 Entering Gaussian System, Link 0=g16
 Initial command:
 /home/sekinelabo/g16/l1.exe "/home/sekinelabo/g16temp/Gau-3251242.inp" -scrdir="/home/sekinelabo/g16temp/"
 Entering Link 1 = /home/sekinelabo/g16/l1.exe PID=   3251244.
  
 Copyright (c) 1988-2017, Gaussian, Inc.  All Rights Reserved.
  
 This is part of the Gaussian(R) 16 program.  It is based on
 the Gaussian(R) 09 system (copyright 2009, Gaussian, Inc.),
 the Gaussian(R) 03 system (copyright 2003, Gaussian, Inc.),
 the Gaussian(R) 98 system (copyright 1998, Gaussian, Inc.),
 the Gaussian(R) 94 system (copyright 1995, Gaussian, Inc.),
 the Gaussian 92(TM) system (copyright 1992, Gaussian, Inc.),
 the Gaussian 90(TM) system (copyright 1990, Gaussian, Inc.),
 the Gaussian 88(TM) system (copyright 1988, Gaussian, Inc.),
 the Gaussian 86(TM) system (copyright 1986, Carnegie Mellon
 University), and the Gaussian 82(TM) system (copyright 1983,
 Carnegie Mellon University). Gaussian is a federally registered
 trademark of Gaussian, Inc.
  
 This software contains proprietary and confidential information,
 including trade secrets, belonging to Gaussian, Inc.
  
 This software is provided under written license and may be
 used, copied, transmitted, or stored only in accord with that
 written license.
  
 The following legend is applicable only to US Government
 contracts under FAR:
  
                    RESTRICTED RIGHTS LEGEND
  
 Use, reproduction and disclosure by the US Government is
 subject to restrictions as set forth in subparagraphs (a)
 and (c) of the Commercial Computer Software - Restricted
 Rights clause in FAR 52.227-19.
  
 Gaussian, Inc.
 340 Quinnipiac St., Bldg. 40, Wallingford CT 06492
  
  
 ---------------------------------------------------------------
 Warning -- This program may not be used in any manner that
 competes with the business of Gaussian, Inc. or will provide
 assistance to any competitor of Gaussian, Inc.  The licensee
 of this program is prohibited from giving any competitor of
 Gaussian, Inc. access to this program.  By using this program,
 the user acknowledges that Gaussian, Inc. is engaged in the
 business of creating and licensing software in the field of
 computational chemistry and represents and warrants to the
 licensee that it is not a competitor of Gaussian, Inc. and that
 it will not use this program in any manner prohibited above.
 ---------------------------------------------------------------
  

 Cite this work as:
 Gaussian 16, Revision B.01,
 M. J. Frisch, G. W. Trucks, H. B. Schlegel, G. E. Scuseria, 
 M. A. Robb, J. R. Cheeseman, G. Scalmani, V. Barone, 
 G. A. Petersson, H. Nakatsuji, X. Li, M. Caricato, A. V. Marenich, 
 J. Bloino, B. G. Janesko, R. Gomperts, B. Mennucci, H. P. Hratchian, 
 J. V. Ortiz, A. F. Izmaylov, J. L. Sonnenberg, D. Williams-Young, 
 F. Ding, F. Lipparini, F. Egidi, J. Goings, B. Peng, A. Petrone, 
 T. Henderson, D. Ranasinghe, V. G. Zakrzewski, J. Gao, N. Rega, 
 G. Zheng, W. Liang, M. Hada, M. Ehara, K. Toyota, R. Fukuda, 
 J. Hasegawa, M. Ishida, T. Nakajima, Y. Honda, O. Kitao, H. Nakai, 
 T. Vreven, K. Throssell, J. A. Montgomery, Jr., J. E. Peralta, 
 F. Ogliaro, M. J. Bearpark, J. J. Heyd, E. N. Brothers, K. N. Kudin, 
 V. N. Staroverov, T. A. Keith, R. Kobayashi, J. Normand, 
 K. Raghavachari, A. P. Rendell, J. C. Burant, S. S. Iyengar, 
 J. Tomasi, M. Cossi, J. M. Millam, M. Klene, C. Adamo, R. Cammi, 
 J. W. Ochterski, R. L. Martin, K. Morokuma, O. Farkas, 
 J. B. Foresman, and D. J. Fox, Gaussian, Inc., Wallingford CT, 2016.
 
 ******************************************
 Gaussian 16:  ES64L-G16RevB.01 20-Dec-2017
                23-Sep-2023 
 ******************************************
 %NProcShared=16
 Will use up to   16 processors via shared memory.
 %mem=12GB
 %Chk=checkpoint.chk
 -------------------------
 #p B3LYP/6-311+g(d) force
 -------------------------
 1/10=7,30=1,38=1/1,3;
 2/12=2,17=6,18=5,40=1/2;
 3/5=4,6=6,7=11,11=2,25=1,30=1,71=1,74=-5/1,2,3;
 4//1;
 5/5=2,38=5/2;
 6/7=2,8=2,9=2,10=2,28=1/1;
 7/29=1/1,2,3,16;
 1/10=7,30=1/3;
 99//99;
 Leave Link    1 at Sat Sep 23 10:16:22 2023, MaxMem=  1610612736 cpu:               0.5 elap:               0.0
 (Enter /home/sekinelabo/g16/l101.exe)


 Symbolic Z-matrix:
 Charge =  0 Multiplicity = 1
 Na                    0.        0.        0. 
 Na                    5.33677   0.34306   0. 
 Na                    2.66266   3.03199   0. 
 Na                   -1.37683   7.09387   0. 
 
 ITRead=  0  0  0  0
 MicOpt= -1 -1 -1 -1
 NAtoms=      4 NQM=        4 NQMF=       0 NMMI=      0 NMMIF=      0
                NMic=       0 NMicF=      0.
                    Isotopes and Nuclear Properties:
 (Nuclear quadrupole moments (NQMom) in fm**2, nuclear magnetic moments (NMagM)
  in nuclear magnetons)

  Atom         1           2           3           4
 IAtWgt=          23          23          23          23
 AtmWgt=  22.9897697  22.9897697  22.9897697  22.9897697
 NucSpn=           3           3           3           3
 AtZEff=  -0.0000000  -0.0000000  -0.0000000  -0.0000000
 NQMom=   10.4000000  10.4000000  10.4000000  10.4000000
 NMagM=    2.2175200   2.2175200   2.2175200   2.2175200
 AtZNuc=  11.0000000  11.0000000  11.0000000  11.0000000
 Leave Link  101 at Sat Sep 23 10:16:22 2023, MaxMem=  1610612736 cpu:               1.7 elap:               0.1
 (Enter /home/sekinelabo/g16/l103.exe)

 GradGradGradGradGradGradGradGradGradGradGradGradGradGradGradGradGradGrad
 Berny optimization.
 Initialization pass.
 Trust Radius=3.00D-01 FncErr=1.00D-07 GrdErr=1.00D-07 EigMax=2.50D+02 EigMin=1.00D-04
 Number of steps in this run=      2 maximum allowed number of steps=      2.
 GradGradGradGradGradGradGradGradGradGradGradGradGradGradGradGradGradGrad

 Leave Link  103 at Sat Sep 23 10:16:22 2023, MaxMem=  1610612736 cpu:               0.2 elap:               0.0
 (Enter /home/sekinelabo/g16/l202.exe)
                          Input orientation:                          
 ---------------------------------------------------------------------
 Center     Atomic      Atomic             Coordinates (Angstroms)
 Number     Number       Type             X           Y           Z
 ---------------------------------------------------------------------
      1         11           0        0.000000    0.000000    0.000000
      2         11           0        5.336774    0.343056    0.000000
      3         11           0        2.662664    3.031987    0.000000
      4         11           0       -1.376830    7.093870    0.000000
 ---------------------------------------------------------------------
                    Distance matrix (angstroms):
                    1          2          3          4
     1  Na   0.000000
     2  Na   5.347788   0.000000
     3  Na   4.035186   3.792257   0.000000
     4  Na   7.226248   9.520818   5.728561   0.000000
 Stoichiometry    Na4
 Framework group  CS[SG(Na4)]
 Deg. of freedom     5
 Full point group                 CS      NOp   2
 Largest Abelian subgroup         CS      NOp   2
 Largest concise Abelian subgroup C1      NOp   1
                         Standard orientation:                         
 ---------------------------------------------------------------------
 Center     Atomic      Atomic             Coordinates (Angstroms)
 Number     Number       Type             X           Y           Z
 ---------------------------------------------------------------------
      1         11           0       -3.019492   -0.688284    0.000000
      2         11           0        1.006497   -4.208263    0.000000
      3         11           0        1.006497   -0.416007    0.000000
      4         11           0        1.006497    5.312555    0.000000
 ---------------------------------------------------------------------
 Rotational constants (GHZ):           1.8419053           0.4697059           0.3742644
 Leave Link  202 at Sat Sep 23 10:16:22 2023, MaxMem=  1610612736 cpu:               0.0 elap:               0.0
 (Enter /home/sekinelabo/g16/l301.exe)
 Standard basis: 6-311+G(d) (5D, 7F)
 Ernie: Thresh=  0.10000D-02 Tol=  0.10000D-05 Strict=F.
 There are    92 symmetry adapted cartesian basis functions of A'  symmetry.
 There are    32 symmetry adapted cartesian basis functions of A"  symmetry.
 There are    88 symmetry adapted basis functions of A'  symmetry.
 There are    32 symmetry adapted basis functions of A"  symmetry.
   120 basis functions,   200 primitive gaussians,   124 cartesian basis functions
    22 alpha electrons       22 beta electrons
       nuclear repulsion energy        71.4893355709 Hartrees.
 IExCor=  402 DFT=T Ex+Corr=B3LYP ExCW=0 ScaHFX=  0.200000
 ScaDFX=  0.800000  0.720000  1.000000  0.810000 ScalE2=  1.000000  1.000000
 IRadAn=      5 IRanWt=     -1 IRanGd=            0 ICorTp=0 IEmpDi=  4
 NAtoms=    4 NActive=    4 NUniq=    4 SFac= 1.00D+00 NAtFMM=   60 NAOKFM=F Big=F
 Integral buffers will be    131072 words long.
 Raffenetti 2 integral format.
 Two-electron integral symmetry is turned on.
 Leave Link  301 at Sat Sep 23 10:16:22 2023, MaxMem=  1610612736 cpu:               0.4 elap:               0.0
 (Enter /home/sekinelabo/g16/l302.exe)
 NPDir=0 NMtPBC=     1 NCelOv=     1 NCel=       1 NClECP=     1 NCelD=      1
         NCelK=      1 NCelE2=     1 NClLst=     1 CellRange=     0.0.
 One-electron integrals computed using PRISM.
 One-electron integral symmetry used in STVInt
 NBasis=   120 RedAO= T EigKep=  4.18D-05  NBF=    88    32
 NBsUse=   120 1.00D-06 EigRej= -1.00D+00 NBFU=    88    32
 Precomputing XC quadrature grid using
 IXCGrd= 4 IRadAn=           5 IRanWt=          -1 IRanGd=           0 AccXCQ= 0.00D+00.
 Generated NRdTot=       0 NPtTot=           0 NUsed=           0 NTot=          32
 NSgBfM=   116   116   116   116   116 MxSgAt=     4 MxSgA2=     4.
 Leave Link  302 at Sat Sep 23 10:16:22 2023, MaxMem=  1610612736 cpu:               1.4 elap:               0.1
 (Enter /home/sekinelabo/g16/l303.exe)
 DipDrv:  MaxL=1.
 Leave Link  303 at Sat Sep 23 10:16:22 2023, MaxMem=  1610612736 cpu:               0.9 elap:               0.1
 (Enter /home/sekinelabo/g16/l401.exe)
 ExpMin= 7.60D-03 ExpMax= 3.62D+04 ExpMxC= 1.21D+03 IAcc=3 IRadAn=         5 AccDes= 0.00D+00
 Harris functional with IExCor=  402 and IRadAn=       5 diagonalized for initial guess.
 HarFok:  IExCor=  402 AccDes= 0.00D+00 IRadAn=         5 IDoV= 1 UseB2=F ITyADJ=14
 ICtDFT=  3500011 ScaDFX=  1.000000  1.000000  1.000000  1.000000
 FoFCou: FMM=F IPFlag=           0 FMFlag=      100000 FMFlg1=           0
         NFxFlg=           0 DoJE=T BraDBF=F KetDBF=T FulRan=T
         wScrn=  0.000000 ICntrl=       500 IOpCl=  0 I1Cent=   200000004 NGrid=           0
         NMat0=    1 NMatS0=      1 NMatT0=    0 NMatD0=    1 NMtDS0=    0 NMtDT0=    0
 Petite list used in FoFCou.
 Harris En= -649.041188471246    
 JPrj=0 DoOrth=F DoCkMO=F.
 Initial guess orbital symmetries:
       Occupied  (A') (A') (A') (A') (A') (A') (A') (A') (A') (A')
                 (A") (A') (A') (A") (A') (A') (A") (A') (A') (A")
                 (A') (A')
       Virtual   (A') (A') (A") (A') (A') (A') (A") (A') (A") (A')
                 (A') (A") (A') (A') (A') (A") (A') (A') (A') (A")
                 (A') (A") (A') (A') (A') (A") (A') (A') (A') (A')
                 (A') (A') (A") (A') (A") (A') (A') (A") (A') (A")
                 (A') (A') (A') (A') (A') (A') (A') (A') (A") (A")
                 (A') (A') (A") (A") (A') (A") (A') (A") (A') (A')
                 (A') (A") (A") (A') (A') (A') (A") (A') (A") (A')
                 (A") (A') (A") (A') (A') (A') (A') (A') (A') (A')
                 (A') (A') (A') (A") (A') (A") (A') (A') (A") (A")
                 (A') (A') (A') (A') (A') (A') (A') (A')
 The electronic state of the initial guess is 1-A'.
 Leave Link  401 at Sat Sep 23 10:16:22 2023, MaxMem=  1610612736 cpu:               1.7 elap:               0.1
 (Enter /home/sekinelabo/g16/l502.exe)
 Keep R1 ints in memory in symmetry-blocked form, NReq=41598130.
 FoFCou: FMM=F IPFlag=           0 FMFlag=           0 FMFlg1=           0
         NFxFlg=           0 DoJE=F BraDBF=F KetDBF=F FulRan=T
         wScrn=  0.000000 ICntrl=       600 IOpCl=  0 I1Cent=           0 NGrid=           0
         NMat0=    1 NMatS0=   7260 NMatT0=    0 NMatD0=    1 NMtDS0=    0 NMtDT0=    0
 Petite list used in FoFCou.
 Closed shell SCF:
 Using DIIS extrapolation, IDIIS=  1040.
 NGot=  1610612736 LenX=  1596719312 LenY=  1596703495
 Requested convergence on RMS density matrix=1.00D-08 within 128 cycles.
 Requested convergence on MAX density matrix=1.00D-06.
 Requested convergence on             energy=1.00D-06.
 No special actions if energy rises.

 Cycle   1  Pass 1  IDiag  1:
 E= -649.123888130879    
 DIIS: error= 1.48D-02 at cycle   1 NSaved=   1.
 NSaved= 1 IEnMin= 1 EnMin= -649.123888130879     IErMin= 1 ErrMin= 1.48D-02
 ErrMax= 1.48D-02  0.00D+00 EMaxC= 1.00D-01 BMatC= 2.91D-02 BMatP= 2.91D-02
 IDIUse=3 WtCom= 8.52D-01 WtEn= 1.48D-01
 Coeff-Com:  0.100D+01
 Coeff-En:   0.100D+01
 Coeff:      0.100D+01
 Gap=    -0.051 Goal=   None    Shift=    0.000
 GapD=   -0.051 DampG=0.250 DampE=0.500 DampFc=0.2500 IDamp=-1.
 Damping current iteration by 2.50D-01
 RMSDP=9.93D-03 MaxDP=6.18D-01              OVMax= 8.88D-01

 Cycle   2  Pass 1  IDiag  1:
 E= -649.146694923693     Delta-E=       -0.022806792813 Rises=F Damp=T
 DIIS: error= 9.97D-03 at cycle   2 NSaved=   2.
 NSaved= 2 IEnMin= 2 EnMin= -649.146694923693     IErMin= 2 ErrMin= 9.97D-03
 ErrMax= 9.97D-03  0.00D+00 EMaxC= 1.00D-01 BMatC= 1.01D-02 BMatP= 2.91D-02
 IDIUse=3 WtCom= 9.00D-01 WtEn= 9.97D-02
 Coeff-Com: -0.885D+00 0.189D+01
 Coeff-En:   0.000D+00 0.100D+01
 Coeff:     -0.797D+00 0.180D+01
 Gap=     0.019 Goal=   None    Shift=    0.000
 RMSDP=4.40D-03 MaxDP=2.23D-01 DE=-2.28D-02 OVMax= 7.32D-01

 Cycle   3  Pass 1  IDiag  1:
 E= -649.069420282937     Delta-E=        0.077274640755 Rises=F Damp=F
 DIIS: error= 1.06D-02 at cycle   3 NSaved=   3.
 NSaved= 3 IEnMin= 2 EnMin= -649.146694923693     IErMin= 2 ErrMin= 9.97D-03
 ErrMax= 1.06D-02  0.00D+00 EMaxC= 1.00D-01 BMatC= 8.06D-03 BMatP= 1.01D-02
 IDIUse=3 WtCom= 8.94D-01 WtEn= 1.06D-01
 Rare condition: small coef for last iteration:  0.000D+00
 Coeff-Com: -0.640D+00 0.121D+01 0.426D+00
 Coeff-En:   0.000D+00 0.000D+00 0.100D+01
 Coeff:     -0.640D+00 0.121D+01 0.426D+00
 Gap=     0.006 Goal=   None    Shift=    0.000
 RMSDP=8.56D-03 MaxDP=5.32D-01 DE= 7.73D-02 OVMax= 9.64D-01

 Cycle   4  Pass 1  IDiag  1:
 E= -649.053574971644     Delta-E=        0.015845311293 Rises=F Damp=F
 DIIS: error= 1.02D-02 at cycle   4 NSaved=   4.
 NSaved= 4 IEnMin= 2 EnMin= -649.146694923693     IErMin= 2 ErrMin= 9.97D-03
 ErrMax= 1.02D-02  0.00D+00 EMaxC= 1.00D-01 BMatC= 5.21D-03 BMatP= 8.06D-03
 IDIUse=3 WtCom= 8.98D-01 WtEn= 1.02D-01
 EnCoef did    39 forward-backward iterations
 Coeff-Com: -0.185D+00 0.396D+00 0.395D+00 0.394D+00
 Coeff-En:   0.102D+00 0.000D+00 0.444D+00 0.455D+00
 Coeff:     -0.156D+00 0.356D+00 0.400D+00 0.400D+00
 Gap=     0.001 Goal=   None    Shift=    0.000
 RMSDP=8.04D-03 MaxDP=4.54D-01 DE= 1.58D-02 OVMax= 9.04D-01

 Cycle   5  Pass 1  IDiag  1:
 E= -649.112412995803     Delta-E=       -0.058838024159 Rises=F Damp=F
 DIIS: error= 9.42D-03 at cycle   5 NSaved=   5.
 NSaved= 5 IEnMin= 2 EnMin= -649.146694923693     IErMin= 5 ErrMin= 9.42D-03
 ErrMax= 9.42D-03  0.00D+00 EMaxC= 1.00D-01 BMatC= 3.84D-03 BMatP= 5.21D-03
 IDIUse=3 WtCom= 9.06D-01 WtEn= 9.42D-02
 Coeff-Com: -0.333D+00 0.547D+00-0.351D-01 0.240D+00 0.582D+00
 Coeff-En:   0.000D+00 0.000D+00 0.000D+00 0.391D+00 0.609D+00
 Coeff:     -0.302D+00 0.495D+00-0.318D-01 0.254D+00 0.584D+00
 Gap=     0.004 Goal=   None    Shift=    0.000
 RMSDP=4.78D-03 MaxDP=2.92D-01 DE=-5.88D-02 OVMax= 5.49D-01

 Cycle   6  Pass 1  IDiag  1:
 E= -649.155678917056     Delta-E=       -0.043265921253 Rises=F Damp=F
 DIIS: error= 3.92D-03 at cycle   6 NSaved=   6.
 NSaved= 6 IEnMin= 6 EnMin= -649.155678917056     IErMin= 6 ErrMin= 3.92D-03
 ErrMax= 3.92D-03  0.00D+00 EMaxC= 1.00D-01 BMatC= 8.37D-04 BMatP= 3.84D-03
 IDIUse=3 WtCom= 9.61D-01 WtEn= 3.92D-02
 Coeff-Com: -0.199D+00 0.274D+00-0.255D+00-0.643D-01 0.621D+00 0.623D+00
 Coeff-En:   0.000D+00 0.000D+00 0.000D+00 0.000D+00 0.237D+00 0.763D+00
 Coeff:     -0.191D+00 0.264D+00-0.245D+00-0.618D-01 0.606D+00 0.628D+00
 Gap=     0.013 Goal=   None    Shift=    0.000
 RMSDP=1.35D-03 MaxDP=8.24D-02 DE=-4.33D-02 OVMax= 9.05D-02

 Cycle   7  Pass 1  IDiag  1:
 E= -649.153008884011     Delta-E=        0.002670033045 Rises=F Damp=F
 DIIS: error= 3.76D-03 at cycle   7 NSaved=   7.
 NSaved= 7 IEnMin= 6 EnMin= -649.155678917056     IErMin= 7 ErrMin= 3.76D-03
 ErrMax= 3.76D-03  0.00D+00 EMaxC= 1.00D-01 BMatC= 1.23D-03 BMatP= 8.37D-04
 IDIUse=3 WtCom= 9.61D-01 WtEn= 3.92D-02
 EnCoef did    14 forward-backward iterations
 Coeff-Com: -0.146D+00 0.197D+00-0.246D+00-0.106D+00 0.596D+00 0.470D+00
 Coeff-Com:  0.235D+00
 Coeff-En:   0.000D+00 0.000D+00 0.000D+00 0.000D+00 0.259D+00 0.321D+00
 Coeff-En:   0.420D+00
 Coeff:     -0.141D+00 0.189D+00-0.237D+00-0.101D+00 0.583D+00 0.464D+00
 Coeff:      0.243D+00
 Gap=     0.015 Goal=   None    Shift=    0.000
 RMSDP=6.09D-04 MaxDP=2.62D-02 DE= 2.67D-03 OVMax= 6.34D-02

 Cycle   8  Pass 1  IDiag  1:
 E= -649.145378279578     Delta-E=        0.007630604433 Rises=F Damp=F
 DIIS: error= 5.05D-03 at cycle   8 NSaved=   8.
 NSaved= 8 IEnMin= 6 EnMin= -649.155678917056     IErMin= 7 ErrMin= 3.76D-03
 ErrMax= 5.05D-03  0.00D+00 EMaxC= 1.00D-01 BMatC= 1.99D-03 BMatP= 8.37D-04
 IDIUse=3 WtCom= 9.61D-01 WtEn= 3.92D-02
 Rare condition: small coef for last iteration: -0.222D-15
 Coeff-Com: -0.139D+00 0.183D+00-0.135D+00 0.276D-01 0.349D+00 0.662D+00
 Coeff-Com:  0.131D+01-0.126D+01
 Coeff-En:   0.000D+00 0.000D+00 0.000D+00 0.000D+00 0.356D+00 0.000D+00
 Coeff-En:   0.000D+00 0.644D+00
 Coeff:     -0.139D+00 0.183D+00-0.135D+00 0.276D-01 0.349D+00 0.662D+00
 Coeff:      0.131D+01-0.126D+01
 Gap=     0.013 Goal=   None    Shift=    0.000
 RMSDP=2.22D-03 MaxDP=1.18D-01 DE= 7.63D-03 OVMax= 2.61D-01

 Cycle   9  Pass 1  IDiag  1:
 E= -649.163055099076     Delta-E=       -0.017676819498 Rises=F Damp=F
 DIIS: error= 8.77D-04 at cycle   9 NSaved=   9.
 NSaved= 9 IEnMin= 9 EnMin= -649.163055099076     IErMin= 9 ErrMin= 8.77D-04
 ErrMax= 8.77D-04  0.00D+00 EMaxC= 1.00D-01 BMatC= 5.63D-05 BMatP= 8.37D-04
 IDIUse=3 WtCom= 9.91D-01 WtEn= 8.77D-03
 EnCoef did   100 forward-backward iterations
 Coeff-Com: -0.402D-01 0.526D-01-0.371D-01-0.441D-02 0.702D-01 0.200D+00
 Coeff-Com:  0.502D+00-0.384D+00 0.641D+00
 Coeff-En:   0.000D+00 0.000D+00 0.000D+00 0.000D+00 0.000D+00 0.000D+00
 Coeff-En:   0.128D+00 0.137D-02 0.871D+00
 Coeff:     -0.399D-01 0.522D-01-0.368D-01-0.437D-02 0.696D-01 0.198D+00
 Coeff:      0.498D+00-0.381D+00 0.643D+00
 Gap=     0.016 Goal=   None    Shift=    0.000
 RMSDP=4.12D-04 MaxDP=2.13D-02 DE=-1.77D-02 OVMax= 3.97D-02

 Cycle  10  Pass 1  IDiag  1:
 E= -649.163508990620     Delta-E=       -0.000453891544 Rises=F Damp=F
 DIIS: error= 9.89D-05 at cycle  10 NSaved=  10.
 NSaved=10 IEnMin=10 EnMin= -649.163508990620     IErMin=10 ErrMin= 9.89D-05
 ErrMax= 9.89D-05  0.00D+00 EMaxC= 1.00D-01 BMatC= 1.20D-06 BMatP= 5.63D-05
 IDIUse=1 WtCom= 1.00D+00 WtEn= 0.00D+00
 Coeff-Com:  0.323D-03-0.111D-02-0.159D-02-0.302D-02-0.523D-03-0.927D-02
 Coeff-Com:  0.833D-01-0.351D-01 0.198D+00 0.769D+00
 Coeff:      0.323D-03-0.111D-02-0.159D-02-0.302D-02-0.523D-03-0.927D-02
 Coeff:      0.833D-01-0.351D-01 0.198D+00 0.769D+00
 Gap=     0.016 Goal=   None    Shift=    0.000
 RMSDP=9.58D-05 MaxDP=3.52D-03 DE=-4.54D-04 OVMax= 6.68D-03

 Cycle  11  Pass 1  IDiag  1:
 E= -649.163490983857     Delta-E=        0.000018006763 Rises=F Damp=F
 DIIS: error= 2.28D-04 at cycle  11 NSaved=  11.
 NSaved=11 IEnMin=10 EnMin= -649.163508990620     IErMin=10 ErrMin= 9.89D-05
 ErrMax= 2.28D-04  0.00D+00 EMaxC= 1.00D-01 BMatC= 3.15D-06 BMatP= 1.20D-06
 IDIUse=1 WtCom= 1.00D+00 WtEn= 0.00D+00
 Coeff-Com:  0.322D-02-0.454D-02 0.385D-02 0.306D-02-0.476D-02-0.173D-01
 Coeff-Com:  0.132D-01-0.291D-01 0.374D-01 0.243D+00 0.752D+00
 Coeff:      0.322D-02-0.454D-02 0.385D-02 0.306D-02-0.476D-02-0.173D-01
 Coeff:      0.132D-01-0.291D-01 0.374D-01 0.243D+00 0.752D+00
 Gap=     0.016 Goal=   None    Shift=    0.000
 RMSDP=7.31D-05 MaxDP=3.98D-03 DE= 1.80D-05 OVMax= 8.33D-03

 Cycle  12  Pass 1  IDiag  1:
 E= -649.163517569855     Delta-E=       -0.000026585998 Rises=F Damp=F
 DIIS: error= 1.19D-05 at cycle  12 NSaved=  12.
 NSaved=12 IEnMin=12 EnMin= -649.163517569855     IErMin=12 ErrMin= 1.19D-05
 ErrMax= 1.19D-05  0.00D+00 EMaxC= 1.00D-01 BMatC= 1.32D-08 BMatP= 1.20D-06
 IDIUse=1 WtCom= 1.00D+00 WtEn= 0.00D+00
 Coeff-Com:  0.110D-02-0.146D-02 0.613D-03 0.393D-03-0.434D-03-0.583D-02
 Coeff-Com: -0.162D-01 0.487D-02-0.858D-02-0.940D-02 0.235D+00 0.800D+00
 Coeff:      0.110D-02-0.146D-02 0.613D-03 0.393D-03-0.434D-03-0.583D-02
 Coeff:     -0.162D-01 0.487D-02-0.858D-02-0.940D-02 0.235D+00 0.800D+00
 Gap=     0.016 Goal=   None    Shift=    0.000
 RMSDP=7.08D-06 MaxDP=2.89D-04 DE=-2.66D-05 OVMax= 4.97D-04

 Cycle  13  Pass 1  IDiag  1:
 E= -649.163517517328     Delta-E=        0.000000052527 Rises=F Damp=F
 DIIS: error= 1.59D-05 at cycle  13 NSaved=  13.
 NSaved=13 IEnMin=12 EnMin= -649.163517569855     IErMin=12 ErrMin= 1.19D-05
 ErrMax= 1.59D-05  0.00D+00 EMaxC= 1.00D-01 BMatC= 1.59D-08 BMatP= 1.32D-08
 IDIUse=1 WtCom= 1.00D+00 WtEn= 0.00D+00
 Coeff-Com: -0.403D-04 0.532D-04 0.601D-04 0.284D-03 0.264D-03 0.125D-03
 Coeff-Com:  0.345D-03-0.286D-02-0.184D-04-0.137D-01-0.195D-02 0.586D-01
 Coeff-Com:  0.959D+00
 Coeff:     -0.403D-04 0.532D-04 0.601D-04 0.284D-03 0.264D-03 0.125D-03
 Coeff:      0.345D-03-0.286D-02-0.184D-04-0.137D-01-0.195D-02 0.586D-01
 Coeff:      0.959D+00
 Gap=     0.016 Goal=   None    Shift=    0.000
 RMSDP=6.53D-06 MaxDP=3.37D-04 DE= 5.25D-08 OVMax= 6.82D-04

 Cycle  14  Pass 1  IDiag  1:
 E= -649.163517648279     Delta-E=       -0.000000130951 Rises=F Damp=F
 DIIS: error= 2.05D-06 at cycle  14 NSaved=  14.
 NSaved=14 IEnMin=14 EnMin= -649.163517648279     IErMin=14 ErrMin= 2.05D-06
 ErrMax= 2.05D-06  0.00D+00 EMaxC= 1.00D-01 BMatC= 3.46D-10 BMatP= 1.32D-08
 IDIUse=1 WtCom= 1.00D+00 WtEn= 0.00D+00
 Coeff-Com:  0.193D-04-0.267D-04 0.947D-05-0.413D-04-0.854D-04-0.129D-03
 Coeff-Com:  0.119D-03 0.450D-03-0.835D-03 0.393D-03-0.304D-02-0.210D-01
 Coeff-Com: -0.222D-01 0.105D+01
 Coeff:      0.193D-04-0.267D-04 0.947D-05-0.413D-04-0.854D-04-0.129D-03
 Coeff:      0.119D-03 0.450D-03-0.835D-03 0.393D-03-0.304D-02-0.210D-01
 Coeff:     -0.222D-01 0.105D+01
 Gap=     0.016 Goal=   None    Shift=    0.000
 RMSDP=1.32D-06 MaxDP=6.21D-05 DE=-1.31D-07 OVMax= 1.25D-04

 Cycle  15  Pass 1  IDiag  1:
 E= -649.163517651322     Delta-E=       -0.000000003042 Rises=F Damp=F
 DIIS: error= 3.78D-07 at cycle  15 NSaved=  15.
 NSaved=15 IEnMin=15 EnMin= -649.163517651322     IErMin=15 ErrMin= 3.78D-07
 ErrMax= 3.78D-07  0.00D+00 EMaxC= 1.00D-01 BMatC= 1.12D-11 BMatP= 3.46D-10
 IDIUse=1 WtCom= 1.00D+00 WtEn= 0.00D+00
 Coeff-Com:  0.354D-05-0.489D-05 0.668D-05-0.140D-04-0.280D-04 0.553D-05
 Coeff-Com:  0.916D-04 0.993D-04 0.698D-04 0.614D-03-0.607D-03-0.878D-02
 Coeff-Com: -0.492D-01 0.156D+00 0.901D+00
 Coeff:      0.354D-05-0.489D-05 0.668D-05-0.140D-04-0.280D-04 0.553D-05
 Coeff:      0.916D-04 0.993D-04 0.698D-04 0.614D-03-0.607D-03-0.878D-02
 Coeff:     -0.492D-01 0.156D+00 0.901D+00
 Gap=     0.016 Goal=   None    Shift=    0.000
 RMSDP=2.10D-07 MaxDP=4.58D-06 DE=-3.04D-09 OVMax= 1.59D-05

 Cycle  16  Pass 1  IDiag  1:
 E= -649.163517651256     Delta-E=        0.000000000066 Rises=F Damp=F
 DIIS: error= 5.62D-07 at cycle  16 NSaved=  16.
 NSaved=16 IEnMin=15 EnMin= -649.163517651322     IErMin=15 ErrMin= 3.78D-07
 ErrMax= 5.62D-07  0.00D+00 EMaxC= 1.00D-01 BMatC= 1.90D-11 BMatP= 1.12D-11
 IDIUse=1 WtCom= 1.00D+00 WtEn= 0.00D+00
 Coeff-Com:  0.133D-05-0.169D-05 0.110D-05 0.245D-05 0.550D-05 0.227D-05
 Coeff-Com:  0.148D-04-0.409D-04 0.132D-03 0.288D-03-0.724D-03 0.235D-04
 Coeff-Com: -0.161D-01-0.573D-01 0.646D-01 0.101D+01
 Coeff:      0.133D-05-0.169D-05 0.110D-05 0.245D-05 0.550D-05 0.227D-05
 Coeff:      0.148D-04-0.409D-04 0.132D-03 0.288D-03-0.724D-03 0.235D-04
 Coeff:     -0.161D-01-0.573D-01 0.646D-01 0.101D+01
 Gap=     0.016 Goal=   None    Shift=    0.000
 RMSDP=1.28D-07 MaxDP=6.03D-06 DE= 6.56D-11 OVMax= 1.15D-05

 Cycle  17  Pass 1  IDiag  1:
 E= -649.163517651387     Delta-E=       -0.000000000131 Rises=F Damp=F
 DIIS: error= 2.23D-07 at cycle  17 NSaved=  17.
 NSaved=17 IEnMin=17 EnMin= -649.163517651387     IErMin=17 ErrMin= 2.23D-07
 ErrMax= 2.23D-07  0.00D+00 EMaxC= 1.00D-01 BMatC= 3.28D-12 BMatP= 1.12D-11
 IDIUse=1 WtCom= 1.00D+00 WtEn= 0.00D+00
 Coeff-Com:  0.816D-06-0.107D-05 0.807D-06 0.280D-05 0.335D-05-0.532D-05
 Coeff-Com:  0.303D-05-0.303D-04 0.434D-04 0.727D-04-0.239D-03 0.200D-03
 Coeff-Com: -0.319D-02-0.961D-02-0.631D-01 0.251D+00 0.824D+00
 Coeff:      0.816D-06-0.107D-05 0.807D-06 0.280D-05 0.335D-05-0.532D-05
 Coeff:      0.303D-05-0.303D-04 0.434D-04 0.727D-04-0.239D-03 0.200D-03
 Coeff:     -0.319D-02-0.961D-02-0.631D-01 0.251D+00 0.824D+00
 Gap=     0.016 Goal=   None    Shift=    0.000
 RMSDP=5.81D-08 MaxDP=3.40D-06 DE=-1.31D-10 OVMax= 6.60D-06

 Cycle  18  Pass 1  IDiag  1:
 E= -649.163517651412     Delta-E=       -0.000000000025 Rises=F Damp=F
 DIIS: error= 5.16D-08 at cycle  18 NSaved=  18.
 NSaved=18 IEnMin=18 EnMin= -649.163517651412     IErMin=18 ErrMin= 5.16D-08
 ErrMax= 5.16D-08  0.00D+00 EMaxC= 1.00D-01 BMatC= 1.50D-13 BMatP= 3.28D-12
 IDIUse=1 WtCom= 1.00D+00 WtEn= 0.00D+00
 Coeff-Com:  0.642D-06-0.862D-06 0.875D-06 0.859D-06-0.600D-06-0.471D-05
 Coeff-Com: -0.103D-05-0.600D-05 0.585D-06 0.167D-04 0.189D-04 0.149D-03
 Coeff-Com: -0.993D-03 0.566D-02-0.208D-01-0.116D-01 0.219D+00 0.808D+00
 Coeff:      0.642D-06-0.862D-06 0.875D-06 0.859D-06-0.600D-06-0.471D-05
 Coeff:     -0.103D-05-0.600D-05 0.585D-06 0.167D-04 0.189D-04 0.149D-03
 Coeff:     -0.993D-03 0.566D-02-0.208D-01-0.116D-01 0.219D+00 0.808D+00
 Gap=     0.016 Goal=   None    Shift=    0.000
 RMSDP=1.48D-08 MaxDP=8.16D-07 DE=-2.52D-11 OVMax= 1.76D-06

 Cycle  19  Pass 1  IDiag  1:
 E= -649.163517651413     Delta-E=       -0.000000000001 Rises=F Damp=F
 DIIS: error= 2.06D-09 at cycle  19 NSaved=  19.
 NSaved=19 IEnMin=19 EnMin= -649.163517651413     IErMin=19 ErrMin= 2.06D-09
 ErrMax= 2.06D-09  0.00D+00 EMaxC= 1.00D-01 BMatC= 3.81D-16 BMatP= 1.50D-13
 IDIUse=1 WtCom= 1.00D+00 WtEn= 0.00D+00
 Large coefficients: NSaved= 19 BigCof=    0.00 CofMax=   10.00 Det=-8.36D-16
 Inversion failed.  Reducing to 18 matrices.
 Large coefficients: NSaved= 18 BigCof=    0.00 CofMax=   10.00 Det=-9.85D-16
 Inversion failed.  Reducing to 17 matrices.
 Large coefficients: NSaved= 17 BigCof=    0.00 CofMax=   10.00 Det=-1.15D-15
 Inversion failed.  Reducing to 16 matrices.
 Large coefficients: NSaved= 16 BigCof=    0.00 CofMax=   10.00 Det=-1.17D-15
 Inversion failed.  Reducing to 15 matrices.
 Coeff-Com:  0.481D-08-0.288D-06-0.114D-05 0.571D-06 0.113D-05-0.998D-06
 Coeff-Com:  0.869D-05 0.287D-04-0.178D-03-0.198D-03-0.199D-02-0.240D-02
 Coeff-Com:  0.629D-03 0.786D-01 0.925D+00
 Coeff:      0.481D-08-0.288D-06-0.114D-05 0.571D-06 0.113D-05-0.998D-06
 Coeff:      0.869D-05 0.287D-04-0.178D-03-0.198D-03-0.199D-02-0.240D-02
 Coeff:      0.629D-03 0.786D-01 0.925D+00
 Gap=     0.016 Goal=   None    Shift=    0.000
 RMSDP=2.01D-09 MaxDP=5.33D-08 DE=-1.14D-12 OVMax= 1.38D-07

 SCF Done:  E(RB3LYP) =  -649.163517651     A.U. after   19 cycles
            NFock= 19  Conv=0.20D-08     -V/T= 2.0030
 KE= 6.472114274054D+02 PE=-1.701723399622D+03 EE= 3.338591189948D+02
 Leave Link  502 at Sat Sep 23 10:16:24 2023, MaxMem=  1610612736 cpu:              18.5 elap:               1.3
 (Enter /home/sekinelabo/g16/l601.exe)
 Copying SCF densities to generalized density rwf, IOpCl= 0 IROHF=0.

 **********************************************************************

            Population analysis using the SCF Density.

 **********************************************************************

 Orbital symmetries:
       Occupied  (A') (A') (A') (A') (A') (A') (A') (A') (A") (A')
                 (A') (A") (A') (A') (A') (A") (A') (A") (A') (A')
                 (A') (A')
       Virtual   (A') (A') (A") (A') (A') (A') (A") (A") (A') (A')
                 (A') (A") (A') (A') (A') (A') (A") (A') (A') (A")
                 (A") (A') (A') (A') (A') (A") (A') (A') (A') (A')
                 (A') (A') (A") (A') (A") (A') (A") (A') (A') (A")
                 (A') (A') (A') (A') (A') (A') (A') (A') (A") (A")
                 (A') (A") (A') (A') (A") (A') (A") (A") (A') (A')
                 (A') (A") (A') (A") (A') (A') (A") (A') (A") (A')
                 (A") (A') (A") (A') (A') (A') (A') (A') (A') (A')
                 (A') (A') (A") (A') (A') (A") (A') (A') (A") (A")
                 (A') (A') (A') (A') (A') (A') (A') (A')
 The electronic state is 1-A'.
 Alpha  occ. eigenvalues --  -38.47275 -38.45988 -38.45118 -38.44762  -2.22950
 Alpha  occ. eigenvalues --   -2.21699  -2.20809  -2.20482  -1.16633  -1.16617
 Alpha  occ. eigenvalues --   -1.16582  -1.15399  -1.15358  -1.15312  -1.14481
 Alpha  occ. eigenvalues --   -1.14481  -1.14466  -1.14160  -1.14158  -1.14111
 Alpha  occ. eigenvalues --   -0.13948  -0.10445
 Alpha virt. eigenvalues --   -0.08833  -0.06370  -0.03047  -0.02735  -0.02340
 Alpha virt. eigenvalues --   -0.01780  -0.01279  -0.00809  -0.00804  -0.00232
 Alpha virt. eigenvalues --    0.00023   0.00504   0.00564   0.00781   0.01104
 Alpha virt. eigenvalues --    0.01368   0.01430   0.01586   0.01741   0.01789
 Alpha virt. eigenvalues --    0.01893   0.01961   0.02056   0.02415   0.02508
 Alpha virt. eigenvalues --    0.02747   0.02986   0.03570   0.03964   0.04762
 Alpha virt. eigenvalues --    0.06437   0.07034   0.07553   0.07907   0.08116
 Alpha virt. eigenvalues --    0.08299   0.08450   0.08516   0.08838   0.09331
 Alpha virt. eigenvalues --    0.09355   0.10250   0.10542   0.11982   0.12386
 Alpha virt. eigenvalues --    0.13982   0.29383   0.29959   0.30827   0.30963
 Alpha virt. eigenvalues --    0.32869   0.33851   0.34014   0.34866   0.35019
 Alpha virt. eigenvalues --    0.35093   0.35162   0.35336   0.35348   0.35814
 Alpha virt. eigenvalues --    0.36145   0.38167   0.40233   0.40360   0.41038
 Alpha virt. eigenvalues --    0.42011   0.42384   0.43022   0.43055   0.43370
 Alpha virt. eigenvalues --    0.43950   0.44755   0.44755   0.46055   0.47650
 Alpha virt. eigenvalues --    0.48894   0.49951   0.53482   1.98725   2.02143
 Alpha virt. eigenvalues --    2.03936   2.09726   4.41803   4.42001   4.42268
 Alpha virt. eigenvalues --    4.43235   4.43518   4.43787   4.43992   4.44272
 Alpha virt. eigenvalues --    4.44784   4.45986   4.46496   4.47071  96.17367
 Alpha virt. eigenvalues --   96.21423  96.23456  96.30263
          Condensed to atoms (all electrons):
               1          2          3          4
     1  Na  10.777841  -0.110775   0.199450   0.083062
     2  Na  -0.110775  10.645817   0.110744  -0.036946
     3  Na   0.199450   0.110744  10.927223   0.058523
     4  Na   0.083062  -0.036946   0.058523  11.041004
 Mulliken charges:
               1
     1  Na   0.050422
     2  Na   0.391160
     3  Na  -0.295940
     4  Na  -0.145643
 Sum of Mulliken charges =   0.00000
 Mulliken charges with hydrogens summed into heavy atoms:
               1
     1  Na   0.050422
     2  Na   0.391160
     3  Na  -0.295940
     4  Na  -0.145643
 Electronic spatial extent (au):  <R**2>=           2401.0644
 Charge=              0.0000 electrons
 Dipole moment (field-independent basis, Debye):
    X=             -1.4302    Y=             -1.9856    Z=              0.0000  Tot=              2.4471
 Quadrupole moment (field-independent basis, Debye-Ang):
   XX=            -33.6851   YY=            -46.1434   ZZ=            -46.3565
   XY=              4.3317   XZ=              0.0000   YZ=              0.0000
 Traceless Quadrupole moment (field-independent basis, Debye-Ang):
   XX=              8.3766   YY=             -4.0817   ZZ=             -4.2949
   XY=              4.3317   XZ=              0.0000   YZ=              0.0000
 Octapole moment (field-independent basis, Debye-Ang**2):
  XXX=            -49.0408  YYY=            -76.9277  ZZZ=              0.0000  XYY=             -3.1499
  XXY=            -21.3111  XXZ=              0.0000  XZZ=             -3.2962  YZZ=             -8.9978
  YYZ=              0.0000  XYZ=              0.0000
 Hexadecapole moment (field-independent basis, Debye-Ang**3):
 XXXX=           -797.5155 YYYY=          -3253.1580 ZZZZ=           -213.1985 XXXY=            -31.9985
 XXXZ=              0.0000 YYYX=           -107.1824 YYYZ=              0.0000 ZZZX=              0.0000
 ZZZY=              0.0000 XXYY=           -745.1150 XXZZ=           -189.5084 YYZZ=           -635.5531
 XXYZ=              0.0000 YYXZ=              0.0000 ZZXY=            -25.7519
 N-N= 7.148933557085D+01 E-N=-1.701723399312D+03  KE= 6.472114274054D+02
 Symmetry A'   KE= 5.997307130135D+02
 Symmetry A"   KE= 4.748071439191D+01
 No NMR shielding tensors so no spin-rotation constants.
 Leave Link  601 at Sat Sep 23 10:16:24 2023, MaxMem=  1610612736 cpu:               1.0 elap:               0.1
 (Enter /home/sekinelabo/g16/l701.exe)
 ... and contract with generalized density number  0.
 Compute integral first derivatives.
 Leave Link  701 at Sat Sep 23 10:16:24 2023, MaxMem=  1610612736 cpu:               1.3 elap:               0.1
 (Enter /home/sekinelabo/g16/l702.exe)
 L702 exits ... SP integral derivatives will be done elsewhere.
 Leave Link  702 at Sat Sep 23 10:16:24 2023, MaxMem=  1610612736 cpu:               0.3 elap:               0.0
 (Enter /home/sekinelabo/g16/l703.exe)
 Integral derivatives from FoFJK, PRISM(SPDF).
 Compute integral first derivatives, UseDBF=F ICtDFT=           0.
 Calling FoFJK, ICntrl=      2127 FMM=F ISym2X=1 I1Cent= 0 IOpClX= 0 NMat=1 NMatS=1 NMatT=0.
 FoFJK:  IHMeth= 1 ICntrl=    2127 DoSepK=F KAlg= 0 I1Cent=           0 FoldK=F
 IRaf=         0 NMat=       1 IRICut=       1 DoRegI=T DoRafI=F ISym2E= 1 IDoP0=0 IntGTp=1.
 FoFCou: FMM=F IPFlag=           0 FMFlag=      100000 FMFlg1=         800
         NFxFlg=           0 DoJE=F BraDBF=F KetDBF=F FulRan=T
         wScrn=  0.000000 ICntrl=      2127 IOpCl=  0 I1Cent=           0 NGrid=           0
         NMat0=    1 NMatS0=      1 NMatT0=    0 NMatD0=    1 NMtDS0=    0 NMtDT0=    0
 Petite list used in FoFCou.
 Leave Link  703 at Sat Sep 23 10:16:24 2023, MaxMem=  1610612736 cpu:               4.5 elap:               0.3
 (Enter /home/sekinelabo/g16/l716.exe)
 Dipole        =-5.62694733D-01-7.81211279D-01 0.00000000D+00
 ***** Axes restored to original set *****
 -------------------------------------------------------------------
 Center     Atomic                   Forces (Hartrees/Bohr)
 Number     Number              X              Y              Z
 -------------------------------------------------------------------
      1       11           0.003686462    0.005479127   -0.000000000
      2       11          -0.004087603    0.003276526   -0.000000000
      3       11          -0.000539770   -0.006412976   -0.000000000
      4       11           0.000940911   -0.002342677   -0.000000000
 -------------------------------------------------------------------
 Cartesian Forces:  Max     0.006412976 RMS     0.003147036
 Z-matrix is all fixed cartesians, so copy forces.
 Force constants in Cartesian coordinates: 
                1             2             3             4             5 
      1  0.682627D-02
      2  0.287728D-02  0.757584D-02
      3  0.000000D+00  0.000000D+00  0.100000D+01
      4 -0.243740D-02  0.214050D-02  0.000000D+00  0.895366D-02
      5 -0.242396D-02  0.212870D-02  0.000000D+00 -0.410835D-02  0.899907D-02
      6  0.000000D+00  0.000000D+00  0.000000D+00  0.000000D+00  0.000000D+00
      7 -0.438888D-02 -0.501778D-02  0.000000D+00 -0.651626D-02  0.653231D-02
      8 -0.453315D-03 -0.970455D-02  0.000000D+00  0.196784D-02 -0.111278D-01
      9  0.000000D+00  0.000000D+00  0.000000D+00  0.000000D+00  0.000000D+00
     10  0.000000D+00  0.000000D+00  0.000000D+00  0.000000D+00  0.000000D+00
     11  0.000000D+00  0.000000D+00  0.000000D+00  0.000000D+00  0.000000D+00
     12  0.000000D+00  0.000000D+00  0.000000D+00  0.000000D+00  0.000000D+00
                6             7             8             9            10 
      6  0.100000D+01
      7  0.000000D+00  0.109051D-01
      8  0.000000D+00 -0.151453D-02  0.208323D-01
      9  0.000000D+00  0.000000D+00  0.000000D+00  0.100000D+01
     10  0.000000D+00  0.000000D+00  0.000000D+00  0.000000D+00  0.100000D+01
     11  0.000000D+00  0.000000D+00  0.000000D+00  0.000000D+00  0.000000D+00
     12  0.000000D+00  0.000000D+00  0.000000D+00  0.000000D+00  0.000000D+00
               11            12 
     11  0.100000D+01
     12  0.000000D+00  0.100000D+01
 Leave Link  716 at Sat Sep 23 10:16:24 2023, MaxMem=  1610612736 cpu:               0.3 elap:               0.0
 (Enter /home/sekinelabo/g16/l103.exe)

 GradGradGradGradGradGradGradGradGradGradGradGradGradGradGradGradGradGrad
 Berny optimization.
 Search for a local minimum.
 Step number   1 out of a maximum of    2
 All quantities printed in internal units (Hartrees-Bohrs-Radians)
 Second derivative matrix not updated -- first step.
 The second derivative matrix:
                          X1        Y1        Z1        X2        Y2
           X1           0.00683
           Y1           0.00288   0.00758
           Z1           0.00000   0.00000   1.00000
           X2          -0.00244   0.00214   0.00000   0.00895
           Y2          -0.00242   0.00213   0.00000  -0.00411   0.00900
           Z2           0.00000   0.00000   0.00000   0.00000   0.00000
           X3          -0.00439  -0.00502   0.00000  -0.00652   0.00653
           Y3          -0.00045  -0.00970   0.00000   0.00197  -0.01113
           Z3           0.00000   0.00000   0.00000   0.00000   0.00000
           X4           0.00000   0.00000   0.00000   0.00000   0.00000
           Y4           0.00000   0.00000   0.00000   0.00000   0.00000
           Z4           0.00000   0.00000   0.00000   0.00000   0.00000
                          Z2        X3        Y3        Z3        X4
           Z2           1.00000
           X3           0.00000   0.01091
           Y3           0.00000  -0.00151   0.02083
           Z3           0.00000   0.00000   0.00000   1.00000
           X4           0.00000   0.00000   0.00000   0.00000   1.00000
           Y4           0.00000   0.00000   0.00000   0.00000   0.00000
           Z4           0.00000   0.00000   0.00000   0.00000   0.00000
                          Y4        Z4
           Y4           1.00000
           Z4           0.00000   1.00000
 ITU=  0
     Eigenvalues ---    0.00995   0.02190   0.03224   0.25224   0.75000
     Eigenvalues ---    1.00000
 Quadratic step=5.785D-01 exceeds max=3.000D-01 adjusted using Lamda=-1.305D-02.
 Angle between NR and scaled steps=  13.22 degrees.
 Angle between quadratic step and forces=  23.24 degrees.
 ClnCor:  largest displacement from symmetrization is 1.00D-16 for atom     1.
 Linear search not attempted -- first point.
 ClnCor:  largest displacement from symmetrization is 3.97D-15 for atom     4.
 B after Tr=    -0.000000    0.000000    0.000000
         Rot=    1.000000   -0.000000    0.000000    0.000000 Ang=   0.00 deg.
 Variable       Old X    -DE/DX   Delta X   Delta X   Delta X     New X
                                 (Linear)    (Quad)   (Total)
    X1       -0.00000   0.00369   0.00000   0.17393   0.17393   0.17393
    Y1       -0.00000   0.00548   0.00000   0.10937   0.10937   0.10937
    Z1        0.00000  -0.00000   0.00000   0.00000   0.00000   0.00000
    X2       10.08504  -0.00409   0.00000  -0.14254  -0.14254   9.94250
    Y2        0.64828   0.00328   0.00000   0.04950   0.04950   0.69778
    Z2        0.00000  -0.00000   0.00000   0.00000   0.00000   0.00000
    X3        5.03171  -0.00054   0.00000  -0.03153  -0.03153   5.00017
    Y3        5.72962  -0.00641   0.00000  -0.15506  -0.15506   5.57456
    Z3        0.00000  -0.00000   0.00000   0.00000   0.00000   0.00000
    X4       -2.60183   0.00094   0.00000   0.00014   0.00014  -2.60169
    Y4       13.40547  -0.00234   0.00000  -0.00381  -0.00381  13.40166
    Z4        0.00000  -0.00000   0.00000   0.00000   0.00000   0.00000
         Item               Value     Threshold  Converged?
 Maximum Force            0.006413     0.000450     NO 
 RMS     Force            0.003147     0.000300     NO 
 Maximum Displacement     0.173926     0.001800     NO 
 RMS     Displacement     0.086618     0.001200     NO 
 Predicted change in Energy=-2.090438D-03
 GradGradGradGradGradGradGradGradGradGradGradGradGradGradGradGradGradGrad

 Leave Link  103 at Sat Sep 23 10:16:24 2023, MaxMem=  1610612736 cpu:               0.1 elap:               0.0
 (Enter /home/sekinelabo/g16/l9999.exe)
 1\1\GINC-SEKINELABO-XA7R-R37\Force\RB3LYP\6-311+G(d)\Na4\SEKINELABO\23
 -Sep-2023\0\\#p B3LYP/6-311+g(d) force\\\0,1\Na,0.,0.,0.\Na,5.33677361
 04,0.3430557745,0.\Na,2.6626643214,3.0319866201,0.\Na,-1.3768300809,7.
 0938703822,0.\\Version=ES64L-G16RevB.01\State=1-A'\HF=-649.1635177\RMS
 D=2.008e-09\RMSF=3.147e-03\Dipole=0.1518877,-0.9507084,0.\Quadrupole=-
 1.5983175,4.7914443,-3.1931268,4.6489606,0.,0.\PG=CS [SG(Na4)]\\@


 Everything starts as somebody's daydream.
                           -- Larry Niven
 Job cpu time:       0 days  0 hours  0 minutes 33.1 seconds.
 Elapsed time:       0 days  0 hours  0 minutes  2.2 seconds.
 File lengths (MBytes):  RWF=     11 Int=      0 D2E=      0 Chk=      2 Scr=      1
 Normal termination of Gaussian 16 at Sat Sep 23 10:16:24 2023.
 Initial command:
 /home/sekinelabo/g16/l1.exe "/home/sekinelabo/g16temp/Gau-3251242.inp" -scrdir="/home/sekinelabo/g16temp/"
 Entering Link 1 = /home/sekinelabo/g16/l1.exe PID=   3251508.
  
 Copyright (c) 1988-2017, Gaussian, Inc.  All Rights Reserved.
  
 This is part of the Gaussian(R) 16 program.  It is based on
 the Gaussian(R) 09 system (copyright 2009, Gaussian, Inc.),
 the Gaussian(R) 03 system (copyright 2003, Gaussian, Inc.),
 the Gaussian(R) 98 system (copyright 1998, Gaussian, Inc.),
 the Gaussian(R) 94 system (copyright 1995, Gaussian, Inc.),
 the Gaussian 92(TM) system (copyright 1992, Gaussian, Inc.),
 the Gaussian 90(TM) system (copyright 1990, Gaussian, Inc.),
 the Gaussian 88(TM) system (copyright 1988, Gaussian, Inc.),
 the Gaussian 86(TM) system (copyright 1986, Carnegie Mellon
 University), and the Gaussian 82(TM) system (copyright 1983,
 Carnegie Mellon University). Gaussian is a federally registered
 trademark of Gaussian, Inc.
  
 This software contains proprietary and confidential information,
 including trade secrets, belonging to Gaussian, Inc.
  
 This software is provided under written license and may be
 used, copied, transmitted, or stored only in accord with that
 written license.
  
 The following legend is applicable only to US Government
 contracts under FAR:
  
                    RESTRICTED RIGHTS LEGEND
  
 Use, reproduction and disclosure by the US Government is
 subject to restrictions as set forth in subparagraphs (a)
 and (c) of the Commercial Computer Software - Restricted
 Rights clause in FAR 52.227-19.
  
 Gaussian, Inc.
 340 Quinnipiac St., Bldg. 40, Wallingford CT 06492
  
  
 ---------------------------------------------------------------
 Warning -- This program may not be used in any manner that
 competes with the business of Gaussian, Inc. or will provide
 assistance to any competitor of Gaussian, Inc.  The licensee
 of this program is prohibited from giving any competitor of
 Gaussian, Inc. access to this program.  By using this program,
 the user acknowledges that Gaussian, Inc. is engaged in the
 business of creating and licensing software in the field of
 computational chemistry and represents and warrants to the
 licensee that it is not a competitor of Gaussian, Inc. and that
 it will not use this program in any manner prohibited above.
 ---------------------------------------------------------------
  

 Cite this work as:
 Gaussian 16, Revision B.01,
 M. J. Frisch, G. W. Trucks, H. B. Schlegel, G. E. Scuseria, 
 M. A. Robb, J. R. Cheeseman, G. Scalmani, V. Barone, 
 G. A. Petersson, H. Nakatsuji, X. Li, M. Caricato, A. V. Marenich, 
 J. Bloino, B. G. Janesko, R. Gomperts, B. Mennucci, H. P. Hratchian, 
 J. V. Ortiz, A. F. Izmaylov, J. L. Sonnenberg, D. Williams-Young, 
 F. Ding, F. Lipparini, F. Egidi, J. Goings, B. Peng, A. Petrone, 
 T. Henderson, D. Ranasinghe, V. G. Zakrzewski, J. Gao, N. Rega, 
 G. Zheng, W. Liang, M. Hada, M. Ehara, K. Toyota, R. Fukuda, 
 J. Hasegawa, M. Ishida, T. Nakajima, Y. Honda, O. Kitao, H. Nakai, 
 T. Vreven, K. Throssell, J. A. Montgomery, Jr., J. E. Peralta, 
 F. Ogliaro, M. J. Bearpark, J. J. Heyd, E. N. Brothers, K. N. Kudin, 
 V. N. Staroverov, T. A. Keith, R. Kobayashi, J. Normand, 
 K. Raghavachari, A. P. Rendell, J. C. Burant, S. S. Iyengar, 
 J. Tomasi, M. Cossi, J. M. Millam, M. Klene, C. Adamo, R. Cammi, 
 J. W. Ochterski, R. L. Martin, K. Morokuma, O. Farkas, 
 J. B. Foresman, and D. J. Fox, Gaussian, Inc., Wallingford CT, 2016.
 
 ******************************************
 Gaussian 16:  ES64L-G16RevB.01 20-Dec-2017
                23-Sep-2023 
 ******************************************
 %NProcShared=16
 Will use up to   16 processors via shared memory.
 %mem=12GB
 %Chk=checkpoint.chk
 -------------------------
 #p B3LYP/6-311+g(d) force
 -------------------------
 1/10=7,30=1,38=1/1,3;
 2/12=2,17=6,18=5,40=1/2;
 3/5=4,6=6,7=11,11=2,25=1,30=1,71=1,74=-5/1,2,3;
 4//1;
 5/5=2,38=5/2;
 6/7=2,8=2,9=2,10=2,28=1/1;
 7/29=1/1,2,3,16;
 1/10=7,30=1/3;
 99//99;
 Leave Link    1 at Sat Sep 23 10:16:24 2023, MaxMem=  1610612736 cpu:               0.2 elap:               0.0
 (Enter /home/sekinelabo/g16/l101.exe)


 Symbolic Z-matrix:
 Charge =  0 Multiplicity = 1
 Na                    0.        0.        0. 
 Na                   -0.97838   3.24779   0. 
 Na                   -3.47097   6.79488   0. 
 Na                   -5.26204   9.34368   0. 
 
 ITRead=  0  0  0  0
 MicOpt= -1 -1 -1 -1
 NAtoms=      4 NQM=        4 NQMF=       0 NMMI=      0 NMMIF=      0
                NMic=       0 NMicF=      0.
                    Isotopes and Nuclear Properties:
 (Nuclear quadrupole moments (NQMom) in fm**2, nuclear magnetic moments (NMagM)
  in nuclear magnetons)

  Atom         1           2           3           4
 IAtWgt=          23          23          23          23
 AtmWgt=  22.9897697  22.9897697  22.9897697  22.9897697
 NucSpn=           3           3           3           3
 AtZEff=  -0.0000000  -0.0000000  -0.0000000  -0.0000000
 NQMom=   10.4000000  10.4000000  10.4000000  10.4000000
 NMagM=    2.2175200   2.2175200   2.2175200   2.2175200
 AtZNuc=  11.0000000  11.0000000  11.0000000  11.0000000
 Leave Link  101 at Sat Sep 23 10:16:24 2023, MaxMem=  1610612736 cpu:               1.6 elap:               0.1
 (Enter /home/sekinelabo/g16/l103.exe)

 GradGradGradGradGradGradGradGradGradGradGradGradGradGradGradGradGradGrad
 Berny optimization.
 Initialization pass.
 Trust Radius=3.00D-01 FncErr=1.00D-07 GrdErr=1.00D-07 EigMax=2.50D+02 EigMin=1.00D-04
 Number of steps in this run=      2 maximum allowed number of steps=      2.
 GradGradGradGradGradGradGradGradGradGradGradGradGradGradGradGradGradGrad

 Leave Link  103 at Sat Sep 23 10:16:24 2023, MaxMem=  1610612736 cpu:               0.2 elap:               0.0
 (Enter /home/sekinelabo/g16/l202.exe)
                          Input orientation:                          
 ---------------------------------------------------------------------
 Center     Atomic      Atomic             Coordinates (Angstroms)
 Number     Number       Type             X           Y           Z
 ---------------------------------------------------------------------
      1         11           0        0.000000    0.000000    0.000000
      2         11           0       -0.978385    3.247791    0.000000
      3         11           0       -3.470967    6.794884    0.000000
      4         11           0       -5.262036    9.343683    0.000000
 ---------------------------------------------------------------------
                    Distance matrix (angstroms):
                    1          2          3          4
     1  Na   0.000000
     2  Na   3.391959   0.000000
     3  Na   7.630076   4.335301   0.000000
     4  Na  10.723499   7.450474   3.115173   0.000000
 Stoichiometry    Na4
 Framework group  CS[SG(Na4)]
 Deg. of freedom     5
 Full point group                 CS      NOp   2
 Largest Abelian subgroup         CS      NOp   2
 Largest concise Abelian subgroup C1      NOp   1
                         Standard orientation:                         
 ---------------------------------------------------------------------
 Center     Atomic      Atomic             Coordinates (Angstroms)
 Number     Number       Type             X           Y           Z
 ---------------------------------------------------------------------
      1         11           0        0.800111    5.361314    0.000000
      2         11           0       -0.266704    2.141487    0.000000
      3         11           0       -0.266704   -2.193814    0.000000
      4         11           0       -0.266704   -5.308987    0.000000
 ---------------------------------------------------------------------
 Rotational constants (GHZ):          61.4568794           0.3289668           0.3272153
 Leave Link  202 at Sat Sep 23 10:16:24 2023, MaxMem=  1610612736 cpu:               0.0 elap:               0.0
 (Enter /home/sekinelabo/g16/l301.exe)
 Standard basis: 6-311+G(d) (5D, 7F)
 Ernie: Thresh=  0.10000D-02 Tol=  0.10000D-05 Strict=F.
 There are    92 symmetry adapted cartesian basis functions of A'  symmetry.
 There are    32 symmetry adapted cartesian basis functions of A"  symmetry.
 There are    88 symmetry adapted basis functions of A'  symmetry.
 There are    32 symmetry adapted basis functions of A"  symmetry.
   120 basis functions,   200 primitive gaussians,   124 cartesian basis functions
    22 alpha electrons       22 beta electrons
       nuclear repulsion energy        77.1580883089 Hartrees.
 IExCor=  402 DFT=T Ex+Corr=B3LYP ExCW=0 ScaHFX=  0.200000
 ScaDFX=  0.800000  0.720000  1.000000  0.810000 ScalE2=  1.000000  1.000000
 IRadAn=      5 IRanWt=     -1 IRanGd=            0 ICorTp=0 IEmpDi=  4
 NAtoms=    4 NActive=    4 NUniq=    4 SFac= 1.00D+00 NAtFMM=   60 NAOKFM=F Big=F
 Integral buffers will be    131072 words long.
 Raffenetti 2 integral format.
 Two-electron integral symmetry is turned on.
 Leave Link  301 at Sat Sep 23 10:16:24 2023, MaxMem=  1610612736 cpu:               0.4 elap:               0.0
 (Enter /home/sekinelabo/g16/l302.exe)
 NPDir=0 NMtPBC=     1 NCelOv=     1 NCel=       1 NClECP=     1 NCelD=      1
         NCelK=      1 NCelE2=     1 NClLst=     1 CellRange=     0.0.
 One-electron integrals computed using PRISM.
 One-electron integral symmetry used in STVInt
 NBasis=   120 RedAO= T EigKep=  2.50D-06  NBF=    88    32
 NBsUse=   120 1.00D-06 EigRej= -1.00D+00 NBFU=    88    32
 Precomputing XC quadrature grid using
 IXCGrd= 4 IRadAn=           5 IRanWt=          -1 IRanGd=           0 AccXCQ= 0.00D+00.
 Generated NRdTot=       0 NPtTot=           0 NUsed=           0 NTot=          32
 NSgBfM=   112   112   112   112   112 MxSgAt=     4 MxSgA2=     4.
 Leave Link  302 at Sat Sep 23 10:16:24 2023, MaxMem=  1610612736 cpu:               1.3 elap:               0.1
 (Enter /home/sekinelabo/g16/l303.exe)
 DipDrv:  MaxL=1.
 Leave Link  303 at Sat Sep 23 10:16:24 2023, MaxMem=  1610612736 cpu:               0.3 elap:               0.0
 (Enter /home/sekinelabo/g16/l401.exe)
 ExpMin= 7.60D-03 ExpMax= 3.62D+04 ExpMxC= 1.21D+03 IAcc=3 IRadAn=         5 AccDes= 0.00D+00
 Harris functional with IExCor=  402 and IRadAn=       5 diagonalized for initial guess.
 HarFok:  IExCor=  402 AccDes= 0.00D+00 IRadAn=         5 IDoV= 1 UseB2=F ITyADJ=14
 ICtDFT=  3500011 ScaDFX=  1.000000  1.000000  1.000000  1.000000
 FoFCou: FMM=F IPFlag=           0 FMFlag=      100000 FMFlg1=           0
         NFxFlg=           0 DoJE=T BraDBF=F KetDBF=T FulRan=T
         wScrn=  0.000000 ICntrl=       500 IOpCl=  0 I1Cent=   200000004 NGrid=           0
         NMat0=    1 NMatS0=      1 NMatT0=    0 NMatD0=    1 NMtDS0=    0 NMtDT0=    0
 Petite list used in FoFCou.
 Harris En= -649.074473384926    
 JPrj=0 DoOrth=F DoCkMO=F.
 Initial guess orbital symmetries:
       Occupied  (A') (A') (A') (A') (A') (A') (A') (A') (A') (A')
                 (A") (A') (A') (A") (A') (A') (A") (A') (A") (A')
                 (A') (A')
       Virtual   (A') (A') (A") (A') (A') (A") (A') (A') (A") (A')
                 (A') (A') (A") (A') (A") (A') (A') (A') (A') (A")
                 (A') (A") (A') (A') (A") (A') (A') (A') (A') (A')
                 (A') (A") (A') (A') (A") (A') (A') (A") (A') (A')
                 (A") (A') (A') (A') (A') (A') (A") (A') (A') (A")
                 (A') (A") (A') (A") (A') (A') (A") (A') (A") (A')
                 (A") (A') (A') (A") (A') (A") (A') (A") (A') (A')
                 (A") (A') (A") (A') (A') (A') (A') (A') (A') (A')
                 (A') (A') (A') (A') (A") (A') (A") (A') (A") (A')
                 (A") (A') (A') (A') (A') (A') (A') (A')
 The electronic state of the initial guess is 1-A'.
 Leave Link  401 at Sat Sep 23 10:16:25 2023, MaxMem=  1610612736 cpu:               1.7 elap:               0.1
 (Enter /home/sekinelabo/g16/l502.exe)
 Keep R1 ints in memory in symmetry-blocked form, NReq=41598130.
 FoFCou: FMM=F IPFlag=           0 FMFlag=           0 FMFlg1=           0
         NFxFlg=           0 DoJE=F BraDBF=F KetDBF=F FulRan=T
         wScrn=  0.000000 ICntrl=       600 IOpCl=  0 I1Cent=           0 NGrid=           0
         NMat0=    1 NMatS0=   7260 NMatT0=    0 NMatD0=    1 NMtDS0=    0 NMtDT0=    0
 Petite list used in FoFCou.
 Closed shell SCF:
 Using DIIS extrapolation, IDIIS=  1040.
 NGot=  1610612736 LenX=  1596719312 LenY=  1596703495
 Requested convergence on RMS density matrix=1.00D-08 within 128 cycles.
 Requested convergence on MAX density matrix=1.00D-06.
 Requested convergence on             energy=1.00D-06.
 No special actions if energy rises.

 Cycle   1  Pass 1  IDiag  1:
 E= -649.188365374552    
 DIIS: error= 1.30D-02 at cycle   1 NSaved=   1.
 NSaved= 1 IEnMin= 1 EnMin= -649.188365374552     IErMin= 1 ErrMin= 1.30D-02
 ErrMax= 1.30D-02  0.00D+00 EMaxC= 1.00D-01 BMatC= 2.61D-02 BMatP= 2.61D-02
 IDIUse=3 WtCom= 8.70D-01 WtEn= 1.30D-01
 Coeff-Com:  0.100D+01
 Coeff-En:   0.100D+01
 Coeff:      0.100D+01
 Gap=     0.049 Goal=   None    Shift=    0.000
 GapD=    0.049 DampG=0.250 DampE=0.500 DampFc=0.2500 IDamp=-1.
 Damping current iteration by 2.50D-01
 RMSDP=5.19D-02 MaxDP=2.85D+00              OVMax= 8.44D-02

 Cycle   2  Pass 1  IDiag  1:
 E= -649.192565914374     Delta-E=       -0.004200539822 Rises=F Damp=T
 DIIS: error= 9.16D-03 at cycle   2 NSaved=   2.
 NSaved= 2 IEnMin= 2 EnMin= -649.192565914374     IErMin= 2 ErrMin= 9.16D-03
 ErrMax= 9.16D-03  0.00D+00 EMaxC= 1.00D-01 BMatC= 1.02D-02 BMatP= 2.61D-02
 IDIUse=3 WtCom= 9.08D-01 WtEn= 9.16D-02
 Coeff-Com: -0.132D+01 0.232D+01
 Coeff-En:   0.000D+00 0.100D+01
 Coeff:     -0.120D+01 0.220D+01
 Gap=     0.051 Goal=   None    Shift=    0.000
 RMSDP=3.70D-02 MaxDP=2.03D+00 DE=-4.20D-03 OVMax= 2.84D-02

 Cycle   3  Pass 1  IDiag  1:
 E= -649.201367172708     Delta-E=       -0.008801258334 Rises=F Damp=F
 DIIS: error= 4.91D-04 at cycle   3 NSaved=   3.
 NSaved= 3 IEnMin= 3 EnMin= -649.201367172708     IErMin= 3 ErrMin= 4.91D-04
 ErrMax= 4.91D-04  0.00D+00 EMaxC= 1.00D-01 BMatC= 1.76D-05 BMatP= 1.02D-02
 IDIUse=3 WtCom= 9.95D-01 WtEn= 4.91D-03
 Coeff-Com:  0.140D-01-0.105D-01 0.996D+00
 Coeff-En:   0.000D+00 0.000D+00 0.100D+01
 Coeff:      0.139D-01-0.104D-01 0.997D+00
 Gap=     0.052 Goal=   None    Shift=    0.000
 RMSDP=2.36D-03 MaxDP=1.12D-01 DE=-8.80D-03 OVMax= 2.09D-02

 Cycle   4  Pass 1  IDiag  1:
 E= -649.201343179638     Delta-E=        0.000023993070 Rises=F Damp=F
 DIIS: error= 6.78D-04 at cycle   4 NSaved=   4.
 NSaved= 4 IEnMin= 3 EnMin= -649.201367172708     IErMin= 3 ErrMin= 4.91D-04
 ErrMax= 6.78D-04  0.00D+00 EMaxC= 1.00D-01 BMatC= 1.75D-05 BMatP= 1.76D-05
 IDIUse=3 WtCom= 9.93D-01 WtEn= 6.78D-03
 Coeff-Com:  0.163D-01-0.206D-01 0.513D+00 0.491D+00
 Coeff-En:   0.000D+00 0.000D+00 0.586D+00 0.414D+00
 Coeff:      0.162D-01-0.205D-01 0.514D+00 0.491D+00
 Gap=     0.052 Goal=   None    Shift=    0.000
 RMSDP=1.49D-03 MaxDP=7.43D-02 DE= 2.40D-05 OVMax= 1.46D-02

 Cycle   5  Pass 1  IDiag  1:
 E= -649.201418053081     Delta-E=       -0.000074873443 Rises=F Damp=F
 DIIS: error= 1.75D-04 at cycle   5 NSaved=   5.
 NSaved= 5 IEnMin= 5 EnMin= -649.201418053081     IErMin= 5 ErrMin= 1.75D-04
 ErrMax= 1.75D-04  0.00D+00 EMaxC= 1.00D-01 BMatC= 1.45D-06 BMatP= 1.75D-05
 IDIUse=3 WtCom= 9.98D-01 WtEn= 1.75D-03
 Coeff-Com:  0.616D-02-0.856D-02 0.145D+00 0.263D+00 0.595D+00
 Coeff-En:   0.000D+00 0.000D+00 0.000D+00 0.460D-01 0.954D+00
 Coeff:      0.615D-02-0.855D-02 0.145D+00 0.262D+00 0.595D+00
 Gap=     0.052 Goal=   None    Shift=    0.000
 RMSDP=1.15D-04 MaxDP=3.06D-03 DE=-7.49D-05 OVMax= 3.15D-03

 Cycle   6  Pass 1  IDiag  1:
 E= -649.201425259501     Delta-E=       -0.000007206420 Rises=F Damp=F
 DIIS: error= 8.30D-06 at cycle   6 NSaved=   6.
 NSaved= 6 IEnMin= 6 EnMin= -649.201425259501     IErMin= 6 ErrMin= 8.30D-06
 ErrMax= 8.30D-06  0.00D+00 EMaxC= 1.00D-01 BMatC= 1.01D-08 BMatP= 1.45D-06
 IDIUse=1 WtCom= 1.00D+00 WtEn= 0.00D+00
 Coeff-Com: -0.703D-03 0.823D-03 0.857D-02 0.263D-01 0.888D-01 0.876D+00
 Coeff:     -0.703D-03 0.823D-03 0.857D-02 0.263D-01 0.888D-01 0.876D+00
 Gap=     0.052 Goal=   None    Shift=    0.000
 RMSDP=4.65D-05 MaxDP=1.88D-03 DE=-7.21D-06 OVMax= 3.54D-04

 Cycle   7  Pass 1  IDiag  1:
 E= -649.201425273809     Delta-E=       -0.000000014307 Rises=F Damp=F
 DIIS: error= 5.62D-06 at cycle   7 NSaved=   7.
 NSaved= 7 IEnMin= 7 EnMin= -649.201425273809     IErMin= 7 ErrMin= 5.62D-06
 ErrMax= 5.62D-06  0.00D+00 EMaxC= 1.00D-01 BMatC= 3.83D-09 BMatP= 1.01D-08
 IDIUse=1 WtCom= 1.00D+00 WtEn= 0.00D+00
 Coeff-Com: -0.761D-03 0.974D-03-0.506D-02-0.392D-02 0.770D-02 0.451D+00
 Coeff-Com:  0.550D+00
 Coeff:     -0.761D-03 0.974D-03-0.506D-02-0.392D-02 0.770D-02 0.451D+00
 Coeff:      0.550D+00
 Gap=     0.052 Goal=   None    Shift=    0.000
 RMSDP=7.05D-06 MaxDP=1.97D-04 DE=-1.43D-08 OVMax= 1.82D-04

 Cycle   8  Pass 1  IDiag  1:
 E= -649.201425283305     Delta-E=       -0.000000009497 Rises=F Damp=F
 DIIS: error= 4.42D-07 at cycle   8 NSaved=   8.
 NSaved= 8 IEnMin= 8 EnMin= -649.201425283305     IErMin= 8 ErrMin= 4.42D-07
 ErrMax= 4.42D-07  0.00D+00 EMaxC= 1.00D-01 BMatC= 5.51D-11 BMatP= 3.83D-09
 IDIUse=1 WtCom= 1.00D+00 WtEn= 0.00D+00
 Coeff-Com:  0.106D-03-0.138D-03-0.891D-03-0.239D-02-0.794D-02-0.317D-01
 Coeff-Com:  0.401D-01 0.100D+01
 Coeff:      0.106D-03-0.138D-03-0.891D-03-0.239D-02-0.794D-02-0.317D-01
 Coeff:      0.401D-01 0.100D+01
 Gap=     0.052 Goal=   None    Shift=    0.000
 RMSDP=6.51D-06 MaxDP=2.58D-04 DE=-9.50D-09 OVMax= 2.51D-05

 Cycle   9  Pass 1  IDiag  1:
 E= -649.201425283429     Delta-E=       -0.000000000123 Rises=F Damp=F
 DIIS: error= 5.58D-07 at cycle   9 NSaved=   9.
 NSaved= 9 IEnMin= 9 EnMin= -649.201425283429     IErMin= 8 ErrMin= 4.42D-07
 ErrMax= 5.58D-07  0.00D+00 EMaxC= 1.00D-01 BMatC= 9.43D-12 BMatP= 5.51D-11
 IDIUse=1 WtCom= 1.00D+00 WtEn= 0.00D+00
 Coeff-Com:  0.693D-04-0.895D-04-0.203D-03-0.649D-03-0.389D-02-0.292D-01
 Coeff-Com: -0.705D-02 0.400D+00 0.641D+00
 Coeff:      0.693D-04-0.895D-04-0.203D-03-0.649D-03-0.389D-02-0.292D-01
 Coeff:     -0.705D-02 0.400D+00 0.641D+00
 Gap=     0.052 Goal=   None    Shift=    0.000
 RMSDP=7.68D-07 MaxDP=3.75D-05 DE=-1.23D-10 OVMax= 9.80D-06

 Cycle  10  Pass 1  IDiag  1:
 E= -649.201425283486     Delta-E=       -0.000000000058 Rises=F Damp=F
 DIIS: error= 3.28D-08 at cycle  10 NSaved=  10.
 NSaved=10 IEnMin=10 EnMin= -649.201425283486     IErMin=10 ErrMin= 3.28D-08
 ErrMax= 3.28D-08  0.00D+00 EMaxC= 1.00D-01 BMatC= 1.19D-13 BMatP= 9.43D-12
 IDIUse=1 WtCom= 1.00D+00 WtEn= 0.00D+00
 Coeff-Com: -0.371D-05 0.499D-05 0.327D-04 0.155D-03 0.393D-03-0.730D-03
 Coeff-Com: -0.338D-02-0.297D-01 0.551D-01 0.978D+00
 Coeff:     -0.371D-05 0.499D-05 0.327D-04 0.155D-03 0.393D-03-0.730D-03
 Coeff:     -0.338D-02-0.297D-01 0.551D-01 0.978D+00
 Gap=     0.052 Goal=   None    Shift=    0.000
 RMSDP=2.28D-07 MaxDP=9.35D-06 DE=-5.75D-11 OVMax= 9.85D-07

 Cycle  11  Pass 1  IDiag  1:
 E= -649.201425283489     Delta-E=       -0.000000000003 Rises=F Damp=F
 DIIS: error= 4.57D-09 at cycle  11 NSaved=  11.
 NSaved=11 IEnMin=11 EnMin= -649.201425283489     IErMin=11 ErrMin= 4.57D-09
 ErrMax= 4.57D-09  0.00D+00 EMaxC= 1.00D-01 BMatC= 4.78D-15 BMatP= 1.19D-13
 IDIUse=1 WtCom= 1.00D+00 WtEn= 0.00D+00
 Coeff-Com: -0.291D-05 0.381D-05 0.136D-04 0.617D-04 0.228D-03 0.578D-03
 Coeff-Com: -0.844D-03-0.180D-01-0.600D-02 0.244D+00 0.780D+00
 Coeff:     -0.291D-05 0.381D-05 0.136D-04 0.617D-04 0.228D-03 0.578D-03
 Coeff:     -0.844D-03-0.180D-01-0.600D-02 0.244D+00 0.780D+00
 Gap=     0.052 Goal=   None    Shift=    0.000
 RMSDP=4.82D-08 MaxDP=2.21D-06 DE=-2.73D-12 OVMax= 1.55D-07

 Cycle  12  Pass 1  IDiag  1:
 E= -649.201425283488     Delta-E=        0.000000000001 Rises=F Damp=F
 DIIS: error= 2.03D-09 at cycle  12 NSaved=  12.
 NSaved=12 IEnMin=11 EnMin= -649.201425283489     IErMin=12 ErrMin= 2.03D-09
 ErrMax= 2.03D-09  0.00D+00 EMaxC= 1.00D-01 BMatC= 3.14D-16 BMatP= 4.78D-15
 IDIUse=1 WtCom= 1.00D+00 WtEn= 0.00D+00
 Coeff-Com: -0.225D-06 0.287D-06 0.621D-06 0.469D-05 0.224D-04 0.105D-03
 Coeff-Com:  0.236D-04-0.153D-02-0.572D-02-0.835D-02 0.153D+00 0.862D+00
 Coeff:     -0.225D-06 0.287D-06 0.621D-06 0.469D-05 0.224D-04 0.105D-03
 Coeff:      0.236D-04-0.153D-02-0.572D-02-0.835D-02 0.153D+00 0.862D+00
 Gap=     0.052 Goal=   None    Shift=    0.000
 RMSDP=1.47D-08 MaxDP=7.20D-07 DE= 9.09D-13 OVMax= 6.04D-08

 Cycle  13  Pass 1  IDiag  1:
 E= -649.201425283489     Delta-E=       -0.000000000001 Rises=F Damp=F
 DIIS: error= 3.72D-10 at cycle  13 NSaved=  13.
 NSaved=13 IEnMin=13 EnMin= -649.201425283489     IErMin=13 ErrMin= 3.72D-10
 ErrMax= 3.72D-10  0.00D+00 EMaxC= 1.00D-01 BMatC= 1.39D-17 BMatP= 3.14D-16
 IDIUse=1 WtCom= 1.00D+00 WtEn= 0.00D+00
 Coeff-Com:  0.709D-07-0.953D-07-0.382D-06-0.105D-05-0.204D-05 0.115D-05
 Coeff-Com:  0.398D-04 0.309D-03-0.141D-02-0.118D-01 0.516D-02 0.246D+00
 Coeff-Com:  0.762D+00
 Coeff:      0.709D-07-0.953D-07-0.382D-06-0.105D-05-0.204D-05 0.115D-05
 Coeff:      0.398D-04 0.309D-03-0.141D-02-0.118D-01 0.516D-02 0.246D+00
 Coeff:      0.762D+00
 Gap=     0.052 Goal=   None    Shift=    0.000
 RMSDP=1.58D-09 MaxDP=6.58D-08 DE=-1.14D-12 OVMax= 1.07D-08

 SCF Done:  E(RB3LYP) =  -649.201425283     A.U. after   13 cycles
            NFock= 13  Conv=0.16D-08     -V/T= 2.0029
 KE= 6.473121809495D+02 PE=-1.713617312190D+03 EE= 3.399456176482D+02
 Leave Link  502 at Sat Sep 23 10:16:26 2023, MaxMem=  1610612736 cpu:              14.8 elap:               1.0
 (Enter /home/sekinelabo/g16/l601.exe)
 Copying SCF densities to generalized density rwf, IOpCl= 0 IROHF=0.

 **********************************************************************

            Population analysis using the SCF Density.

 **********************************************************************

 Orbital symmetries:
       Occupied  (A') (A') (A') (A') (A') (A') (A') (A') (A") (A')
                 (A') (A') (A') (A") (A") (A') (A') (A') (A") (A')
                 (A') (A')
       Virtual   (A') (A') (A") (A') (A') (A") (A') (A') (A') (A")
                 (A') (A') (A') (A") (A') (A") (A') (A') (A') (A")
                 (A') (A") (A') (A') (A") (A') (A') (A') (A') (A')
                 (A") (A') (A') (A') (A") (A') (A') (A") (A') (A')
                 (A") (A') (A') (A') (A') (A') (A") (A') (A') (A")
                 (A') (A") (A') (A") (A') (A') (A") (A') (A") (A')
                 (A') (A") (A') (A") (A') (A") (A') (A") (A') (A')
                 (A") (A') (A') (A') (A") (A') (A') (A') (A') (A')
                 (A') (A') (A') (A') (A") (A") (A') (A') (A") (A')
                 (A") (A') (A') (A') (A') (A') (A') (A')
 The electronic state is 1-A'.
 Alpha  occ. eigenvalues --  -38.45007 -38.44734 -38.44497 -38.44233  -2.20750
 Alpha  occ. eigenvalues --   -2.20511  -2.20243  -2.20012  -1.14418  -1.14418
 Alpha  occ. eigenvalues --   -1.14384  -1.14184  -1.14167  -1.14167  -1.13919
 Alpha  occ. eigenvalues --   -1.13918  -1.13865  -1.13676  -1.13676  -1.13647
 Alpha  occ. eigenvalues --   -0.13848  -0.12607
 Alpha virt. eigenvalues --   -0.07433  -0.04422  -0.02847  -0.02829  -0.01995
 Alpha virt. eigenvalues --   -0.01986  -0.01393   0.00099   0.00225   0.00226
 Alpha virt. eigenvalues --    0.00299   0.01007   0.01225   0.01241   0.01257
 Alpha virt. eigenvalues --    0.01317   0.01355   0.02182   0.02334   0.02465
 Alpha virt. eigenvalues --    0.02511   0.02595   0.02923   0.03450   0.03692
 Alpha virt. eigenvalues --    0.03897   0.04119   0.04579   0.05327   0.05441
 Alpha virt. eigenvalues --    0.07284   0.07291   0.07308   0.07675   0.08079
 Alpha virt. eigenvalues --    0.08272   0.09062   0.09645   0.09684   0.10340
 Alpha virt. eigenvalues --    0.10370   0.11872   0.13143   0.14636   0.15837
 Alpha virt. eigenvalues --    0.17695   0.28582   0.29035   0.30749   0.31133
 Alpha virt. eigenvalues --    0.31828   0.33058   0.33072   0.33795   0.33841
 Alpha virt. eigenvalues --    0.36422   0.36791   0.37261   0.37648   0.37666
 Alpha virt. eigenvalues --    0.42482   0.42778   0.43253   0.43260   0.43322
 Alpha virt. eigenvalues --    0.43406   0.44395   0.44793   0.44798   0.45315
 Alpha virt. eigenvalues --    0.45793   0.46363   0.48123   0.48134   0.48201
 Alpha virt. eigenvalues --    0.50647   0.60165   0.68591   2.00328   2.06856
 Alpha virt. eigenvalues --    2.12500   2.14177   4.41926   4.43618   4.43641
 Alpha virt. eigenvalues --    4.43855   4.43876   4.44300   4.44882   4.45409
 Alpha virt. eigenvalues --    4.46020   4.46249   4.53408   4.62095  96.19101
 Alpha virt. eigenvalues --   96.27109  96.33995  96.36545
          Condensed to atoms (all electrons):
               1          2          3          4
     1  Na  10.866909   0.193221  -0.408419   0.026365
     2  Na   0.193221  12.351712   0.091331  -1.066241
     3  Na  -0.408419   0.091331  12.771752  -0.797522
     4  Na   0.026365  -1.066241  -0.797522  11.932157
 Mulliken charges:
               1
     1  Na   0.321925
     2  Na  -0.570023
     3  Na  -0.657142
     4  Na   0.905240
 Sum of Mulliken charges =  -0.00000
 Mulliken charges with hydrogens summed into heavy atoms:
               1
     1  Na   0.321925
     2  Na  -0.570023
     3  Na  -0.657142
     4  Na   0.905240
 Electronic spatial extent (au):  <R**2>=           2716.0359
 Charge=             -0.0000 electrons
 Dipole moment (field-independent basis, Debye):
    X=              0.1809    Y=              0.0519    Z=              0.0000  Tot=              0.1882
 Quadrupole moment (field-independent basis, Debye-Ang):
   XX=            -43.2705   YY=            -15.8498   ZZ=            -44.4956
   XY=              3.8810   XZ=              0.0000   YZ=              0.0000
 Traceless Quadrupole moment (field-independent basis, Debye-Ang):
   XX=             -8.7319   YY=             18.6889   ZZ=             -9.9570
   XY=              3.8810   XZ=              0.0000   YZ=              0.0000
 Octapole moment (field-independent basis, Debye-Ang**2):
  XXX=              1.4015  YYY=             -3.9902  ZZZ=              0.0000  XYY=             27.9161
  XXY=              5.9816  XXZ=              0.0000  XZZ=              0.1461  YZZ=             -0.6395
  YYZ=              0.0000  XYZ=              0.0000
 Hexadecapole moment (field-independent basis, Debye-Ang**3):
 XXXX=           -230.2832 YYYY=          -2342.1559 ZZZZ=           -186.9359 XXXY=           -168.7400
 XXXZ=              0.0000 YYYX=             62.2131 YYYZ=              0.0000 ZZZX=              0.0000
 ZZZY=              0.0000 XXYY=           -730.8327 XXZZ=            -69.6594 YYZZ=           -760.3959
 XXYZ=              0.0000 YYXZ=              0.0000 ZZXY=            -58.0731
 N-N= 7.715808830892D+01 E-N=-1.713617312212D+03  KE= 6.473121809495D+02
 Symmetry A'   KE= 5.998517975419D+02
 Symmetry A"   KE= 4.746038340755D+01
 No NMR shielding tensors so no spin-rotation constants.
 Leave Link  601 at Sat Sep 23 10:16:26 2023, MaxMem=  1610612736 cpu:               1.0 elap:               0.1
 (Enter /home/sekinelabo/g16/l701.exe)
 ... and contract with generalized density number  0.
 Compute integral first derivatives.
 Leave Link  701 at Sat Sep 23 10:16:26 2023, MaxMem=  1610612736 cpu:               1.3 elap:               0.1
 (Enter /home/sekinelabo/g16/l702.exe)
 L702 exits ... SP integral derivatives will be done elsewhere.
 Leave Link  702 at Sat Sep 23 10:16:26 2023, MaxMem=  1610612736 cpu:               0.6 elap:               0.0
 (Enter /home/sekinelabo/g16/l703.exe)
 Integral derivatives from FoFJK, PRISM(SPDF).
 Compute integral first derivatives, UseDBF=F ICtDFT=           0.
 Calling FoFJK, ICntrl=      2127 FMM=F ISym2X=1 I1Cent= 0 IOpClX= 0 NMat=1 NMatS=1 NMatT=0.
 FoFJK:  IHMeth= 1 ICntrl=    2127 DoSepK=F KAlg= 0 I1Cent=           0 FoldK=F
 IRaf=         0 NMat=       1 IRICut=       1 DoRegI=T DoRafI=F ISym2E= 1 IDoP0=0 IntGTp=1.
 FoFCou: FMM=F IPFlag=           0 FMFlag=      100000 FMFlg1=         800
         NFxFlg=           0 DoJE=F BraDBF=F KetDBF=F FulRan=T
         wScrn=  0.000000 ICntrl=      2127 IOpCl=  0 I1Cent=           0 NGrid=           0
         NMat0=    1 NMatS0=      1 NMatT0=    0 NMatD0=    1 NMtDS0=    0 NMtDT0=    0
 Petite list used in FoFCou.
 Leave Link  703 at Sat Sep 23 10:16:26 2023, MaxMem=  1610612736 cpu:               4.6 elap:               0.3
 (Enter /home/sekinelabo/g16/l716.exe)
 Dipole        = 7.11891338D-02 2.04042859D-02 0.00000000D+00
 ***** Axes restored to original set *****
 -------------------------------------------------------------------
 Center     Atomic                   Forces (Hartrees/Bohr)
 Number     Number              X              Y              Z
 -------------------------------------------------------------------
      1       11          -0.001346144    0.004520763   -0.000000000
      2       11           0.000646237   -0.003505270   -0.000000000
      3       11           0.000252243   -0.000433904   -0.000000000
      4       11           0.000447664   -0.000581589   -0.000000000
 -------------------------------------------------------------------
 Cartesian Forces:  Max     0.004520763 RMS     0.001725893
 Z-matrix is all fixed cartesians, so copy forces.
 Force constants in Cartesian coordinates: 
                1             2             3             4             5 
      1  0.176253D-02
      2 -0.585079D-02  0.194220D-01
      3  0.000000D+00  0.000000D+00  0.100000D+01
      4 -0.176253D-02  0.585079D-02  0.000000D+00  0.176253D-02
      5  0.585079D-02 -0.194220D-01  0.000000D+00 -0.585079D-02  0.194220D-01
      6  0.000000D+00  0.000000D+00  0.000000D+00  0.000000D+00  0.000000D+00
      7  0.000000D+00  0.000000D+00  0.000000D+00  0.000000D+00  0.000000D+00
      8  0.000000D+00  0.000000D+00  0.000000D+00  0.000000D+00  0.000000D+00
      9  0.000000D+00  0.000000D+00  0.000000D+00  0.000000D+00  0.000000D+00
     10  0.000000D+00  0.000000D+00  0.000000D+00  0.000000D+00  0.000000D+00
     11  0.000000D+00  0.000000D+00  0.000000D+00  0.000000D+00  0.000000D+00
     12  0.000000D+00  0.000000D+00  0.000000D+00  0.000000D+00  0.000000D+00
                6             7             8             9            10 
      6  0.100000D+01
      7  0.000000D+00  0.679725D+00
      8  0.000000D+00  0.455771D+00  0.351411D+00
      9  0.000000D+00  0.000000D+00  0.000000D+00  0.100000D+01
     10  0.000000D+00 -0.102925D-01  0.146468D-01  0.000000D+00  0.679725D+00
     11  0.000000D+00  0.146468D-01 -0.208433D-01  0.000000D+00  0.455771D+00
     12  0.000000D+00  0.000000D+00  0.000000D+00  0.000000D+00  0.000000D+00
               11            12 
     11  0.351411D+00
     12  0.000000D+00  0.100000D+01
 Leave Link  716 at Sat Sep 23 10:16:26 2023, MaxMem=  1610612736 cpu:               0.3 elap:               0.0
 (Enter /home/sekinelabo/g16/l103.exe)

 GradGradGradGradGradGradGradGradGradGradGradGradGradGradGradGradGradGrad
 Berny optimization.
 Search for a local minimum.
 Step number   1 out of a maximum of    2
 All quantities printed in internal units (Hartrees-Bohrs-Radians)
 Second derivative matrix not updated -- first step.
 The second derivative matrix:
                          X1        Y1        Z1        X2        Y2
           X1           0.00176
           Y1          -0.00585   0.01942
           Z1           0.00000   0.00000   1.00000
           X2          -0.00176   0.00585   0.00000   0.00176
           Y2           0.00585  -0.01942   0.00000  -0.00585   0.01942
           Z2           0.00000   0.00000   0.00000   0.00000   0.00000
           X3           0.00000   0.00000   0.00000   0.00000   0.00000
           Y3           0.00000   0.00000   0.00000   0.00000   0.00000
           Z3           0.00000   0.00000   0.00000   0.00000   0.00000
           X4           0.00000   0.00000   0.00000   0.00000   0.00000
           Y4           0.00000   0.00000   0.00000   0.00000   0.00000
           Z4           0.00000   0.00000   0.00000   0.00000   0.00000
                          Z2        X3        Y3        Z3        X4
           Z2           1.00000
           X3           0.00000   0.67972
           Y3           0.00000   0.45577   0.35141
           Z3           0.00000   0.00000   0.00000   1.00000
           X4           0.00000  -0.01029   0.01465   0.00000   0.67972
           Y4           0.00000   0.01465  -0.02084   0.00000   0.45577
           Z4           0.00000   0.00000   0.00000   0.00000   0.00000
                          Y4        Z4
           Y4           0.35141
           Z4           0.00000   1.00000
 ITU=  0
     Eigenvalues ---   -0.00000   0.04237   0.04670   0.06227   0.96212
     Eigenvalues ---    1.00000
 Eigenvalue     1 is  -2.22D-16 should be greater than     0.000000 Eigenvector:
                          Y1        X2        Y3        Y4        Y2
   1                    0.44362  -0.42760  -0.39934  -0.39934   0.35506
                          X4        X3        X1        Z3        Z4
   1                    0.28062   0.28062  -0.13364  -0.00000  -0.00000
 Quadratic step=1.266D+01 exceeds max=3.000D-01 adjusted using Lamda=-4.536D-03.
 Angle between NR and scaled steps=  23.88 degrees.
 Angle between quadratic step and forces=  53.26 degrees.
 ClnCor:  largest displacement from symmetrization is 8.58D-17 for atom     1.
 Linear search not attempted -- first point.
 ClnCor:  largest displacement from symmetrization is 4.28D-15 for atom     1.
 B after Tr=    -0.000000    0.000000    0.000000
         Rot=    1.000000    0.000000    0.000000    0.000000 Ang=   0.00 deg.
 Variable       Old X    -DE/DX   Delta X   Delta X   Delta X     New X
                                 (Linear)    (Quad)   (Total)
    X1        0.00000  -0.00135   0.00000  -0.06177  -0.06177  -0.06177
    Y1        0.00000   0.00452   0.00000   0.20550   0.20550   0.20550
    Z1        0.00000  -0.00000   0.00000   0.00000   0.00000   0.00000
    X2       -1.84888   0.00065   0.00000  -0.09156  -0.09156  -1.94044
    Y2        6.13744  -0.00351   0.00000   0.01261   0.01261   6.15005
    Z2        0.00000  -0.00000   0.00000   0.00000   0.00000   0.00000
    X3       -6.55918   0.00025   0.00000   0.07562   0.07562  -6.48355
    Y3       12.84047  -0.00043   0.00000  -0.10765  -0.10765  12.73282
    Z3        0.00000  -0.00000   0.00000   0.00000   0.00000   0.00000
    X4       -9.94381   0.00045   0.00000   0.07771   0.07771  -9.86610
    Y4       17.65700  -0.00058   0.00000  -0.11045  -0.11045  17.54655
    Z4        0.00000  -0.00000   0.00000   0.00000   0.00000   0.00000
         Item               Value     Threshold  Converged?
 Maximum Force            0.004521     0.000450     NO 
 RMS     Force            0.001726     0.000300     NO 
 Maximum Displacement     0.205496     0.001800     NO 
 RMS     Displacement     0.086666     0.001200     NO 
 Predicted change in Energy=-7.449378D-04
 GradGradGradGradGradGradGradGradGradGradGradGradGradGradGradGradGradGrad

 Leave Link  103 at Sat Sep 23 10:16:26 2023, MaxMem=  1610612736 cpu:               0.2 elap:               0.0
 (Enter /home/sekinelabo/g16/l9999.exe)
 1\1\GINC-SEKINELABO-XA7R-R37\Force\RB3LYP\6-311+G(d)\Na4\SEKINELABO\23
 -Sep-2023\0\\#p B3LYP/6-311+g(d) force\\\0,1\Na,0.,0.,0.\Na,-0.9783846
 71,3.2477910839,0.\Na,-3.47096654,6.7948837573,0.\Na,-5.2620360744,9.3
 436825358,0.\\Version=ES64L-G16RevB.01\State=1-A'\HF=-649.2014253\RMSD
 =1.579e-09\RMSF=1.726e-03\Dipole=-0.0465147,-0.0576248,0.\Quadrupole=-
 2.4674804,9.8702672,-7.4027868,-8.6124515,0.,0.\PG=CS [SG(Na4)]\\@


 ERWIN WITH HIS PSI CAN DO
 CALCULATIONS QUITE A FEW.
 BUT ONE THING HAS NOT BEEN SEEN
 JUST WHAT DOES PSI REALLY MEAN.
 -- WALTER HUCKEL, TRANS. BY FELIX BLOCH
 Job cpu time:       0 days  0 hours  0 minutes 28.9 seconds.
 Elapsed time:       0 days  0 hours  0 minutes  1.9 seconds.
 File lengths (MBytes):  RWF=     11 Int=      0 D2E=      0 Chk=      2 Scr=      1
 Normal termination of Gaussian 16 at Sat Sep 23 10:16:26 2023.
 Initial command:
 /home/sekinelabo/g16/l1.exe "/home/sekinelabo/g16temp/Gau-3251242.inp" -scrdir="/home/sekinelabo/g16temp/"
 Entering Link 1 = /home/sekinelabo/g16/l1.exe PID=   3251750.
  
 Copyright (c) 1988-2017, Gaussian, Inc.  All Rights Reserved.
  
 This is part of the Gaussian(R) 16 program.  It is based on
 the Gaussian(R) 09 system (copyright 2009, Gaussian, Inc.),
 the Gaussian(R) 03 system (copyright 2003, Gaussian, Inc.),
 the Gaussian(R) 98 system (copyright 1998, Gaussian, Inc.),
 the Gaussian(R) 94 system (copyright 1995, Gaussian, Inc.),
 the Gaussian 92(TM) system (copyright 1992, Gaussian, Inc.),
 the Gaussian 90(TM) system (copyright 1990, Gaussian, Inc.),
 the Gaussian 88(TM) system (copyright 1988, Gaussian, Inc.),
 the Gaussian 86(TM) system (copyright 1986, Carnegie Mellon
 University), and the Gaussian 82(TM) system (copyright 1983,
 Carnegie Mellon University). Gaussian is a federally registered
 trademark of Gaussian, Inc.
  
 This software contains proprietary and confidential information,
 including trade secrets, belonging to Gaussian, Inc.
  
 This software is provided under written license and may be
 used, copied, transmitted, or stored only in accord with that
 written license.
  
 The following legend is applicable only to US Government
 contracts under FAR:
  
                    RESTRICTED RIGHTS LEGEND
  
 Use, reproduction and disclosure by the US Government is
 subject to restrictions as set forth in subparagraphs (a)
 and (c) of the Commercial Computer Software - Restricted
 Rights clause in FAR 52.227-19.
  
 Gaussian, Inc.
 340 Quinnipiac St., Bldg. 40, Wallingford CT 06492
  
  
 ---------------------------------------------------------------
 Warning -- This program may not be used in any manner that
 competes with the business of Gaussian, Inc. or will provide
 assistance to any competitor of Gaussian, Inc.  The licensee
 of this program is prohibited from giving any competitor of
 Gaussian, Inc. access to this program.  By using this program,
 the user acknowledges that Gaussian, Inc. is engaged in the
[...]
 ErrMax= 1.06D-04  0.00D+00 EMaxC= 1.00D-01 BMatC= 1.67D-06 BMatP= 1.14D-05
 IDIUse=3 WtCom= 9.99D-01 WtEn= 1.06D-03
 Coeff-Com:  0.177D-01-0.236D-01 0.280D+00 0.725D+00
 Coeff-En:   0.000D+00 0.000D+00 0.000D+00 0.100D+01
 Coeff:      0.177D-01-0.236D-01 0.280D+00 0.726D+00
 Gap=     0.059 Goal=   None    Shift=    0.000
 RMSDP=5.21D-05 MaxDP=2.23D-03 DE=-2.12D-05 OVMax= 2.15D-03

 Cycle   5  Pass 1  IDiag  1:
 E= -649.186482646950     Delta-E=       -0.000002544288 Rises=F Damp=F
 DIIS: error= 3.55D-05 at cycle   5 NSaved=   5.
 NSaved= 5 IEnMin= 5 EnMin= -649.186482646950     IErMin= 5 ErrMin= 3.55D-05
 ErrMax= 3.55D-05  0.00D+00 EMaxC= 1.00D-01 BMatC= 1.79D-07 BMatP= 1.67D-06
 IDIUse=1 WtCom= 1.00D+00 WtEn= 0.00D+00
 Coeff-Com:  0.516D-02-0.711D-02 0.825D-01 0.288D+00 0.632D+00
 Coeff:      0.516D-02-0.711D-02 0.825D-01 0.288D+00 0.632D+00
 Gap=     0.059 Goal=   None    Shift=    0.000
 RMSDP=9.30D-06 MaxDP=4.40D-04 DE=-2.54D-06 OVMax= 3.50D-04

 Cycle   6  Pass 1  IDiag  1:
 E= -649.186482764070     Delta-E=       -0.000000117120 Rises=F Damp=F
 DIIS: error= 3.83D-06 at cycle   6 NSaved=   6.
 NSaved= 6 IEnMin= 6 EnMin= -649.186482764070     IErMin= 6 ErrMin= 3.83D-06
 ErrMax= 3.83D-06  0.00D+00 EMaxC= 1.00D-01 BMatC= 4.35D-09 BMatP= 1.79D-07
 IDIUse=1 WtCom= 1.00D+00 WtEn= 0.00D+00
 Coeff-Com: -0.544D-03 0.646D-03 0.262D-02 0.174D-01 0.109D+00 0.870D+00
 Coeff:     -0.544D-03 0.646D-03 0.262D-02 0.174D-01 0.109D+00 0.870D+00
 Gap=     0.059 Goal=   None    Shift=    0.000
 RMSDP=3.56D-06 MaxDP=1.70D-04 DE=-1.17D-07 OVMax= 1.67D-04

 Cycle   7  Pass 1  IDiag  1:
 E= -649.186482770211     Delta-E=       -0.000000006141 Rises=F Damp=F
 DIIS: error= 2.62D-06 at cycle   7 NSaved=   7.
 NSaved= 7 IEnMin= 7 EnMin= -649.186482770211     IErMin= 7 ErrMin= 2.62D-06
 ErrMax= 2.62D-06  0.00D+00 EMaxC= 1.00D-01 BMatC= 1.13D-09 BMatP= 4.35D-09
 IDIUse=1 WtCom= 1.00D+00 WtEn= 0.00D+00
 Coeff-Com: -0.506D-03 0.647D-03-0.316D-02-0.975D-02 0.104D-01 0.404D+00
 Coeff-Com:  0.599D+00
 Coeff:     -0.506D-03 0.647D-03-0.316D-02-0.975D-02 0.104D-01 0.404D+00
 Coeff:      0.599D+00
 Gap=     0.059 Goal=   None    Shift=    0.000
 RMSDP=1.48D-06 MaxDP=7.87D-05 DE=-6.14D-09 OVMax= 7.88D-05

 Cycle   8  Pass 1  IDiag  1:
 E= -649.186482773411     Delta-E=       -0.000000003200 Rises=F Damp=F
 DIIS: error= 6.14D-07 at cycle   8 NSaved=   8.
 NSaved= 8 IEnMin= 8 EnMin= -649.186482773411     IErMin= 8 ErrMin= 6.14D-07
 ErrMax= 6.14D-07  0.00D+00 EMaxC= 1.00D-01 BMatC= 7.63D-11 BMatP= 1.13D-09
 IDIUse=1 WtCom= 1.00D+00 WtEn= 0.00D+00
 Coeff-Com: -0.412D-04 0.541D-04-0.104D-02-0.645D-02-0.110D-01 0.314D-01
 Coeff-Com:  0.206D+00 0.781D+00
 Coeff:     -0.412D-04 0.541D-04-0.104D-02-0.645D-02-0.110D-01 0.314D-01
 Coeff:      0.206D+00 0.781D+00
 Gap=     0.059 Goal=   None    Shift=    0.000
 RMSDP=4.00D-07 MaxDP=1.80D-05 DE=-3.20D-09 OVMax= 1.95D-05

 Cycle   9  Pass 1  IDiag  1:
 E= -649.186482773619     Delta-E=       -0.000000000208 Rises=F Damp=F
 DIIS: error= 1.47D-07 at cycle   9 NSaved=   9.
 NSaved= 9 IEnMin= 9 EnMin= -649.186482773619     IErMin= 9 ErrMin= 1.47D-07
 ErrMax= 1.47D-07  0.00D+00 EMaxC= 1.00D-01 BMatC= 3.87D-12 BMatP= 7.63D-11
 IDIUse=1 WtCom= 1.00D+00 WtEn= 0.00D+00
 Coeff-Com:  0.362D-04-0.467D-04-0.934D-04-0.149D-02-0.422D-02-0.214D-01
 Coeff-Com:  0.173D-01 0.248D+00 0.762D+00
 Coeff:      0.362D-04-0.467D-04-0.934D-04-0.149D-02-0.422D-02-0.214D-01
 Coeff:      0.173D-01 0.248D+00 0.762D+00
 Gap=     0.059 Goal=   None    Shift=    0.000
 RMSDP=1.19D-07 MaxDP=3.80D-06 DE=-2.08D-10 OVMax= 3.86D-06

 Cycle  10  Pass 1  IDiag  1:
 E= -649.186482773629     Delta-E=       -0.000000000010 Rises=F Damp=F
 DIIS: error= 3.48D-08 at cycle  10 NSaved=  10.
 NSaved=10 IEnMin=10 EnMin= -649.186482773629     IErMin=10 ErrMin= 3.48D-08
 ErrMax= 3.48D-08  0.00D+00 EMaxC= 1.00D-01 BMatC= 5.81D-14 BMatP= 3.87D-12
 IDIUse=1 WtCom= 1.00D+00 WtEn= 0.00D+00
 Coeff-Com:  0.718D-05-0.919D-05 0.204D-05-0.149D-03-0.748D-03-0.508D-02
 Coeff-Com: -0.894D-03 0.330D-01 0.141D+00 0.833D+00
 Coeff:      0.718D-05-0.919D-05 0.204D-05-0.149D-03-0.748D-03-0.508D-02
 Coeff:     -0.894D-03 0.330D-01 0.141D+00 0.833D+00
 Gap=     0.059 Goal=   None    Shift=    0.000
 RMSDP=2.00D-08 MaxDP=7.59D-07 DE=-1.03D-11 OVMax= 8.41D-07

 Cycle  11  Pass 1  IDiag  1:
 E= -649.186482773630     Delta-E=       -0.000000000001 Rises=F Damp=F
 DIIS: error= 1.41D-08 at cycle  11 NSaved=  11.
 NSaved=11 IEnMin=11 EnMin= -649.186482773630     IErMin=11 ErrMin= 1.41D-08
 ErrMax= 1.41D-08  0.00D+00 EMaxC= 1.00D-01 BMatC= 1.86D-14 BMatP= 5.81D-14
 IDIUse=1 WtCom= 1.00D+00 WtEn= 0.00D+00
 Coeff-Com: -0.237D-05 0.311D-05 0.116D-04 0.108D-03 0.269D-03 0.765D-03
 Coeff-Com: -0.250D-02-0.161D-01-0.296D-01 0.351D+00 0.696D+00
 Coeff:     -0.237D-05 0.311D-05 0.116D-04 0.108D-03 0.269D-03 0.765D-03
 Coeff:     -0.250D-02-0.161D-01-0.296D-01 0.351D+00 0.696D+00
 Gap=     0.059 Goal=   None    Shift=    0.000
 RMSDP=5.90D-09 MaxDP=3.10D-07 DE=-7.96D-13 OVMax= 2.57D-07

 SCF Done:  E(RB3LYP) =  -649.186482774     A.U. after   11 cycles
            NFock= 11  Conv=0.59D-08     -V/T= 2.0027
 KE= 6.474363409713D+02 PE=-1.747151068375D+03 EE= 3.566097231912D+02
 Leave Link  502 at Sat Sep 23 10:16:42 2023, MaxMem=  1610612736 cpu:              14.1 elap:               0.9
 (Enter /home/sekinelabo/g16/l601.exe)
 Copying SCF densities to generalized density rwf, IOpCl= 0 IROHF=0.

 **********************************************************************

            Population analysis using the SCF Density.

 **********************************************************************

 Orbital symmetries:
       Occupied  (A') (A') (A') (A') (A') (A') (A') (A') (A') (A")
                 (A') (A') (A") (A') (A') (A") (A') (A') (A") (A')
                 (A') (A')
       Virtual   (A') (A') (A") (A') (A") (A') (A') (A') (A") (A')
                 (A') (A") (A') (A') (A') (A') (A") (A") (A') (A")
                 (A') (A') (A') (A') (A") (A') (A') (A') (A') (A')
                 (A") (A') (A") (A') (A') (A') (A") (A') (A") (A')
                 (A') (A') (A') (A') (A') (A') (A") (A") (A') (A")
                 (A') (A') (A') (A") (A") (A') (A') (A') (A") (A')
                 (A") (A') (A") (A") (A') (A") (A") (A') (A') (A')
                 (A') (A') (A') (A") (A') (A') (A') (A') (A') (A')
                 (A') (A') (A") (A") (A') (A") (A') (A') (A") (A')
                 (A') (A') (A') (A') (A') (A') (A')
 The electronic state is 1-A'.
 Alpha  occ. eigenvalues --  -38.45331 -38.45076 -38.44284 -38.44041  -2.21083
 Alpha  occ. eigenvalues --   -2.20835  -2.20306  -2.19918  -1.14952  -1.14752
 Alpha  occ. eigenvalues --   -1.14746  -1.14724  -1.14502  -1.14497  -1.14457
 Alpha  occ. eigenvalues --   -1.13842  -1.13842  -1.13461  -1.13460  -1.13093
 Alpha  occ. eigenvalues --   -0.14471  -0.12365
 Alpha virt. eigenvalues --   -0.06512  -0.04504  -0.03173  -0.02409  -0.01613
 Alpha virt. eigenvalues --   -0.01526  -0.01086   0.00257   0.00292   0.00459
 Alpha virt. eigenvalues --    0.00970   0.00997   0.01020   0.01307   0.01464
 Alpha virt. eigenvalues --    0.01577   0.01673   0.01967   0.02119   0.02531
 Alpha virt. eigenvalues --    0.02567   0.02614   0.02659   0.03304   0.03818
 Alpha virt. eigenvalues --    0.03943   0.04170   0.04269   0.05877   0.06585
 Alpha virt. eigenvalues --    0.07284   0.07673   0.07696   0.07838   0.08532
 Alpha virt. eigenvalues --    0.08855   0.09179   0.10258   0.10959   0.11184
 Alpha virt. eigenvalues --    0.11543   0.12143   0.14036   0.15295   0.18862
 Alpha virt. eigenvalues --    0.29278   0.29407   0.30584   0.30679   0.30786
 Alpha virt. eigenvalues --    0.31134   0.31960   0.34249   0.34324   0.36562
 Alpha virt. eigenvalues --    0.37395   0.40829   0.41108   0.41308   0.42431
 Alpha virt. eigenvalues --    0.43061   0.43290   0.43324   0.43775   0.44012
 Alpha virt. eigenvalues --    0.45072   0.45358   0.45419   0.46107   0.47242
 Alpha virt. eigenvalues --    0.47681   0.48660   0.52106   0.60105   0.60670
 Alpha virt. eigenvalues --    0.62123   0.90909   2.02223   2.06455   2.11253
 Alpha virt. eigenvalues --    2.14088   4.41256   4.43366   4.43667   4.43745
 Alpha virt. eigenvalues --    4.44249   4.45211   4.46096   4.49432   4.50058
 Alpha virt. eigenvalues --    4.53981   4.56734   4.79534  96.21504  96.27848
 Alpha virt. eigenvalues --   96.32670  96.36239
          Condensed to atoms (all electrons):
               1          2          3          4
     1  Na  10.686533   0.345149  -0.077878  -0.025267
     2  Na   0.345149  10.649892  -0.101490  -0.039352
     3  Na  -0.077878  -0.101490  10.935575   0.476033
     4  Na  -0.025267  -0.039352   0.476033  10.573609
 Mulliken charges:
               1
     1  Na   0.071463
     2  Na   0.145801
     3  Na  -0.232240
     4  Na   0.014977
 Sum of Mulliken charges =   0.00000
 Mulliken charges with hydrogens summed into heavy atoms:
               1
     1  Na   0.071463
     2  Na   0.145801
     3  Na  -0.232240
     4  Na   0.014977
 Electronic spatial extent (au):  <R**2>=           1541.4477
 Charge=              0.0000 electrons
 Dipole moment (field-independent basis, Debye):
    X=             -0.7832    Y=             -1.7808    Z=              0.0000  Tot=              1.9454
 Quadrupole moment (field-independent basis, Debye-Ang):
   XX=            -31.9867   YY=            -37.9326   ZZ=            -44.2856
   XY=             -3.8596   XZ=              0.0000   YZ=              0.0000
 Traceless Quadrupole moment (field-independent basis, Debye-Ang):
   XX=              6.0816   YY=              0.1357   ZZ=             -6.2173
   XY=             -3.8596   XZ=              0.0000   YZ=              0.0000
 Octapole moment (field-independent basis, Debye-Ang**2):
  XXX=            -34.6493  YYY=             16.8059  ZZZ=              0.0000  XYY=             18.3737
  XXY=            -30.7850  XXZ=              0.0000  XZZ=             -1.7203  YZZ=             -4.6325
  YYZ=              0.0000  XYZ=              0.0000
 Hexadecapole moment (field-independent basis, Debye-Ang**3):
 XXXX=           -476.7936 YYYY=          -1811.0482 ZZZZ=           -180.7556 XXXY=           -186.5329
 XXXZ=              0.0000 YYYX=           -272.0781 YYYZ=              0.0000 ZZZX=              0.0000
 ZZZY=              0.0000 XXYY=           -393.2039 XXZZ=           -122.8280 YYZZ=           -384.9445
 XXYZ=              0.0000 YYXZ=              0.0000 ZZXY=            -80.0265
 N-N= 9.391852143882D+01 E-N=-1.747151070347D+03  KE= 6.474363409713D+02
 Symmetry A'   KE= 5.999850643630D+02
 Symmetry A"   KE= 4.745127660832D+01
 No NMR shielding tensors so no spin-rotation constants.
 Leave Link  601 at Sat Sep 23 10:16:42 2023, MaxMem=  1610612736 cpu:               1.0 elap:               0.1
 (Enter /home/sekinelabo/g16/l701.exe)
 ... and contract with generalized density number  0.
 Compute integral first derivatives.
 Leave Link  701 at Sat Sep 23 10:16:42 2023, MaxMem=  1610612736 cpu:               1.3 elap:               0.1
 (Enter /home/sekinelabo/g16/l702.exe)
 L702 exits ... SP integral derivatives will be done elsewhere.
 Leave Link  702 at Sat Sep 23 10:16:42 2023, MaxMem=  1610612736 cpu:               0.3 elap:               0.0
 (Enter /home/sekinelabo/g16/l703.exe)
 Integral derivatives from FoFJK, PRISM(SPDF).
 Compute integral first derivatives, UseDBF=F ICtDFT=           0.
 Calling FoFJK, ICntrl=      2127 FMM=F ISym2X=1 I1Cent= 0 IOpClX= 0 NMat=1 NMatS=1 NMatT=0.
 FoFJK:  IHMeth= 1 ICntrl=    2127 DoSepK=F KAlg= 0 I1Cent=           0 FoldK=F
 IRaf=         0 NMat=       1 IRICut=       1 DoRegI=T DoRafI=F ISym2E= 1 IDoP0=0 IntGTp=1.
 FoFCou: FMM=F IPFlag=           0 FMFlag=      100000 FMFlg1=         800
         NFxFlg=           0 DoJE=F BraDBF=F KetDBF=F FulRan=T
         wScrn=  0.000000 ICntrl=      2127 IOpCl=  0 I1Cent=           0 NGrid=           0
         NMat0=    1 NMatS0=      1 NMatT0=    0 NMatD0=    1 NMtDS0=    0 NMtDT0=    0
 Petite list used in FoFCou.
 Leave Link  703 at Sat Sep 23 10:16:43 2023, MaxMem=  1610612736 cpu:               5.0 elap:               0.3
 (Enter /home/sekinelabo/g16/l716.exe)
 Dipole        =-3.08128099D-01-7.00602458D-01 0.00000000D+00
 ***** Axes restored to original set *****
 -------------------------------------------------------------------
 Center     Atomic                   Forces (Hartrees/Bohr)
 Number     Number              X              Y              Z
 -------------------------------------------------------------------
      1       11          -0.000270624    0.004461260   -0.000000000
      2       11          -0.000718165   -0.004078507   -0.000000000
      3       11           0.030401206    0.006134993   -0.000000000
      4       11          -0.029412417   -0.006517746   -0.000000000
 -------------------------------------------------------------------
 Cartesian Forces:  Max     0.030401206 RMS     0.012604790
 Z-matrix is all fixed cartesians, so copy forces.
 Force constants in Cartesian coordinates: 
                1             2             3             4             5 
      1  0.163979D-03
      2  0.196386D-02  0.235197D-01
      3  0.000000D+00  0.000000D+00  0.100000D+01
      4 -0.163979D-03 -0.196386D-02  0.000000D+00  0.163979D-03
      5 -0.196386D-02 -0.235197D-01  0.000000D+00  0.196386D-02  0.235197D-01
      6  0.000000D+00  0.000000D+00  0.000000D+00  0.000000D+00  0.000000D+00
      7  0.000000D+00  0.000000D+00  0.000000D+00  0.000000D+00  0.000000D+00
      8  0.000000D+00  0.000000D+00  0.000000D+00  0.000000D+00  0.000000D+00
      9  0.000000D+00  0.000000D+00  0.000000D+00  0.000000D+00  0.000000D+00
     10  0.000000D+00  0.000000D+00  0.000000D+00  0.000000D+00  0.000000D+00
     11  0.000000D+00  0.000000D+00  0.000000D+00  0.000000D+00  0.000000D+00
     12  0.000000D+00  0.000000D+00  0.000000D+00  0.000000D+00  0.000000D+00
                6             7             8             9            10 
      6  0.100000D+01
      7  0.000000D+00  0.180128D+00
      8  0.000000D+00 -0.188344D+00  0.956733D+00
      9  0.000000D+00  0.000000D+00  0.000000D+00  0.100000D+01
     10  0.000000D+00 -0.130001D+00 -0.298642D-01  0.000000D+00  0.180128D+00
     11  0.000000D+00 -0.298642D-01 -0.686053D-02  0.000000D+00 -0.188344D+00
     12  0.000000D+00  0.000000D+00  0.000000D+00  0.000000D+00  0.000000D+00
               11            12 
     11  0.956733D+00
     12  0.000000D+00  0.100000D+01
 Leave Link  716 at Sat Sep 23 10:16:43 2023, MaxMem=  1610612736 cpu:               0.3 elap:               0.0
 (Enter /home/sekinelabo/g16/l103.exe)

 GradGradGradGradGradGradGradGradGradGradGradGradGradGradGradGradGradGrad
 Berny optimization.
 Search for a local minimum.
 Step number   1 out of a maximum of    2
 All quantities printed in internal units (Hartrees-Bohrs-Radians)
 Second derivative matrix not updated -- first step.
 The second derivative matrix:
                          X1        Y1        Z1        X2        Y2
           X1           0.00016
           Y1           0.00196   0.02352
           Z1           0.00000   0.00000   1.00000
           X2          -0.00016  -0.00196   0.00000   0.00016
           Y2          -0.00196  -0.02352   0.00000   0.00196   0.02352
           Z2           0.00000   0.00000   0.00000   0.00000   0.00000
           X3           0.00000   0.00000   0.00000   0.00000   0.00000
           Y3           0.00000   0.00000   0.00000   0.00000   0.00000
           Z3           0.00000   0.00000   0.00000   0.00000   0.00000
           X4           0.00000   0.00000   0.00000   0.00000   0.00000
           Y4           0.00000   0.00000   0.00000   0.00000   0.00000
           Z4           0.00000   0.00000   0.00000   0.00000   0.00000
                          Z2        X3        Y3        Z3        X4
           Z2           1.00000
           X3           0.00000   0.18013
           Y3           0.00000  -0.18834   0.95673
           Z3           0.00000   0.00000   0.00000   1.00000
           X4           0.00000  -0.13000  -0.02986   0.00000   0.18013
           Y4           0.00000  -0.02986  -0.00686   0.00000  -0.18834
           Z4           0.00000   0.00000   0.00000   0.00000   0.00000
                          Y4        Z4
           Y4           0.95673
           Z4           0.00000   1.00000
 ITU=  0
     Eigenvalues ---   -0.00000   0.04737   0.11187   0.27372   0.95886
     Eigenvalues ---    1.00000
 Eigenvalue     1 is  -5.55D-16 should be greater than     0.000000 Eigenvector:
                          X2        X4        X3        Y1        Y4
   1                    0.79784  -0.40417  -0.40417   0.12572  -0.09285
                          Y3        Y2        X1        Z3        Z4
   1                   -0.09285   0.05998   0.01050   0.00000  -0.00000
 Quadratic step=6.240D+00 exceeds max=3.000D-01 adjusted using Lamda=-2.664D-03.
 Angle between NR and scaled steps=  39.36 degrees.
 Angle between quadratic step and forces=  54.34 degrees.
 ClnCor:  largest displacement from symmetrization is 1.92D-17 for atom     3.
 Linear search not attempted -- first point.
 ClnCor:  largest displacement from symmetrization is 4.66D-16 for atom     1.
 B after Tr=     0.000000    0.000000    0.000000
         Rot=    1.000000    0.000000   -0.000000   -0.000000 Ang=   0.00 deg.
 Variable       Old X    -DE/DX   Delta X   Delta X   Delta X     New X
                                 (Linear)    (Quad)   (Total)
    X1        0.00000  -0.00027   0.00000  -0.00087  -0.00087  -0.00087
    Y1       -0.00000   0.00446   0.00000   0.05836   0.05836   0.05836
    Z1        0.00000  -0.00000   0.00000   0.00000   0.00000   0.00000
    X2        0.52018  -0.00072   0.00000  -0.18562  -0.18562   0.33456
    Y2        6.22976  -0.00408   0.00000  -0.09765  -0.09765   6.13211
    Z2        0.00000  -0.00000   0.00000   0.00000   0.00000   0.00000
    X3       -7.72857   0.03040   0.00000   0.20108   0.20108  -7.52749
    Y3        4.33483   0.00613   0.00000   0.04414   0.04414   4.37896
    Z3        0.00000  -0.00000   0.00000   0.00000   0.00000   0.00000
    X4      -12.01615  -0.02941   0.00000  -0.01460  -0.01460 -12.03074
    Y4        3.34987  -0.00652   0.00000  -0.00485  -0.00485   3.34501
    Z4        0.00000  -0.00000   0.00000   0.00000   0.00000   0.00000
         Item               Value     Threshold  Converged?
 Maximum Force            0.030401     0.000450     NO 
 RMS     Force            0.012605     0.000300     NO 
 Maximum Displacement     0.201079     0.001800     NO 
 RMS     Displacement     0.086609     0.001200     NO 
 Predicted change in Energy=-3.940913D-03
 GradGradGradGradGradGradGradGradGradGradGradGradGradGradGradGradGradGrad

 Leave Link  103 at Sat Sep 23 10:16:43 2023, MaxMem=  1610612736 cpu:               0.2 elap:               0.0
 (Enter /home/sekinelabo/g16/l9999.exe)
 1\1\GINC-SEKINELABO-XA7R-R37\Force\RB3LYP\6-311+G(d)\Na4\SEKINELABO\23
 -Sep-2023\0\\#p B3LYP/6-311+g(d) force\\\0,1\Na,0.,0.,0.\Na,0.27526479
 33,3.2966469665,0.\Na,-4.0897842169,2.2938906133,0.\Na,-6.3586711209,1
 .7726729242,0.\\Version=ES64L-G16RevB.01\State=1-A'\HF=-649.1864828\RM
 SD=5.896e-09\RMSF=1.260e-02\Dipole=0.7518044,-0.1434465,0.\Quadrupole=
 -0.9298013,5.5522424,-4.6224411,1.6172501,0.,0.\PG=CS [SG(Na4)]\\@


 ALL OUR THINKING ABOUT NATURE MUST NECESSARILY MOVE IN CIRCLES OR SPIRALS;
 FOR WE CAN ONLY UNDERSTAND NATURE IF WE THINK ABOUT HER, AND WE CAN ONLY
 THINK BECAUSE OUR BRAIN IS BUILT IN ACCORDANCE WITH NATURE'S LAWS.

                                             -- TIMOTHY FERRIS, "GALAXIES"
 Job cpu time:       0 days  0 hours  0 minutes 28.4 seconds.
 Elapsed time:       0 days  0 hours  0 minutes  1.9 seconds.
 File lengths (MBytes):  RWF=     11 Int=      0 D2E=      0 Chk=      2 Scr=      1
 Normal termination of Gaussian 16 at Sat Sep 23 10:16:43 2023.
