 Entering Gaussian System, Link 0=g16
 Initial command:
 /home/sekinelabo/g16/l1.exe "/home/sekinelabo/g16temp/Gau-3981376.inp" -scrdir="/home/sekinelabo/g16temp/"
 Entering Link 1 = /home/sekinelabo/g16/l1.exe PID=   3981378.
  
 Copyright (c) 1988-2017, Gaussian, Inc.  All Rights Reserved.
  
 This is part of the Gaussian(R) 16 program.  It is based on
 the Gaussian(R) 09 system (copyright 2009, Gaussian, Inc.),
 the Gaussian(R) 03 system (copyright 2003, Gaussian, Inc.),
 the Gaussian(R) 98 system (copyright 1998, Gaussian, Inc.),
 the Gaussian(R) 94 system (copyright 1995, Gaussian, Inc.),
 the Gaussian 92(TM) system (copyright 1992, Gaussian, Inc.),
 the Gaussian 90(TM) system (copyright 1990, Gaussian, Inc.),
 the Gaussian 88(TM) system (copyright 1988, Gaussian, Inc.),
 the Gaussian 86(TM) system (copyright 1986, Carnegie Mellon
 University), and the Gaussian 82(TM) system (copyright 1983,
 Carnegie Mellon University). Gaussian is a federally registered
 trademark of Gaussian, Inc.
  
 This software contains proprietary and confidential information,
 including trade secrets, belonging to Gaussian, Inc.
  
 This software is provided under written license and may be
 used, copied, transmitted, or stored only in accord with that
 written license.
  
 The following legend is applicable only to US Government
 contracts under FAR:
  
                    RESTRICTED RIGHTS LEGEND
  
 Use, reproduction and disclosure by the US Government is
 subject to restrictions as set forth in subparagraphs (a)
 and (c) of the Commercial Computer Software - Restricted
 Rights clause in FAR 52.227-19.
  
 Gaussian, Inc.
 340 Quinnipiac St., Bldg. 40, Wallingford CT 06492
  
  
 ---------------------------------------------------------------
 Warning -- This program may not be used in any manner that
 competes with the business of Gaussian, Inc. or will provide
 assistance to any competitor of Gaussian, Inc.  The licensee
 of this program is prohibited from giving any competitor of
 Gaussian, Inc. access to this program.  By using this program,
 the user acknowledges that Gaussian, Inc. is engaged in the
 business of creating and licensing software in the field of
 computational chemistry and represents and warrants to the
 licensee that it is not a competitor of Gaussian, Inc. and that
 it will not use this program in any manner prohibited above.
 ---------------------------------------------------------------
  

 Cite this work as:
 Gaussian 16, Revision B.01,
 M. J. Frisch, G. W. Trucks, H. B. Schlegel, G. E. Scuseria, 
 M. A. Robb, J. R. Cheeseman, G. Scalmani, V. Barone, 
 G. A. Petersson, H. Nakatsuji, X. Li, M. Caricato, A. V. Marenich, 
 J. Bloino, B. G. Janesko, R. Gomperts, B. Mennucci, H. P. Hratchian, 
 J. V. Ortiz, A. F. Izmaylov, J. L. Sonnenberg, D. Williams-Young, 
 F. Ding, F. Lipparini, F. Egidi, J. Goings, B. Peng, A. Petrone, 
 T. Henderson, D. Ranasinghe, V. G. Zakrzewski, J. Gao, N. Rega, 
 G. Zheng, W. Liang, M. Hada, M. Ehara, K. Toyota, R. Fukuda, 
 J. Hasegawa, M. Ishida, T. Nakajima, Y. Honda, O. Kitao, H. Nakai, 
 T. Vreven, K. Throssell, J. A. Montgomery, Jr., J. E. Peralta, 
 F. Ogliaro, M. J. Bearpark, J. J. Heyd, E. N. Brothers, K. N. Kudin, 
 V. N. Staroverov, T. A. Keith, R. Kobayashi, J. Normand, 
 K. Raghavachari, A. P. Rendell, J. C. Burant, S. S. Iyengar, 
 J. Tomasi, M. Cossi, J. M. Millam, M. Klene, C. Adamo, R. Cammi, 
 J. W. Ochterski, R. L. Martin, K. Morokuma, O. Farkas, 
 J. B. Foresman, and D. J. Fox, Gaussian, Inc., Wallingford CT, 2016.
 
 ******************************************
 Gaussian 16:  ES64L-G16RevB.01 20-Dec-2017
                13-Nov-2023 
 ******************************************
 %mem=14GB
 %chk=checkpoint.chk
 %nprocshared=16
 Will use up to   16 processors via shared memory.
 -------------------------
 #P B3LYP/6-311+g(d) force
 -------------------------
 1/10=7,30=1,38=1/1,3;
 2/12=2,17=6,18=5,40=1/2;
 3/5=4,6=6,7=11,11=2,25=1,30=1,71=1,74=-5/1,2,3;
 4//1;
 5/5=2,38=5/2;
 6/7=2,8=2,9=2,10=2,28=1/1;
 7/29=1/1,2,3,16;
 1/10=7,30=1/3;
 99//99;
 Leave Link    1 at Mon Nov 13 12:18:53 2023, MaxMem=  1879048192 cpu:               0.6 elap:               0.0
 (Enter /home/sekinelabo/g16/l101.exe)
 ------------------------------
 Gaussian input prepared by ASE
 ------------------------------
 Symbolic Z-matrix:
 Charge =  0 Multiplicity = 2
 Na                    2.08026   1.58528   0. 
 Na                    2.69788   3.12571   2.63965 
 Na                    4.74274   1.58165   1.22141 
 Na                    2.69562   0.01778   2.62407 
 Na                    0.44413   1.56976   3.30233 
 Na                    0.00055   0.        1.03073 
 Na                    0.        3.16456   1.04366 
 
 ITRead=  0  0  0  0  0  0  0
 MicOpt= -1 -1 -1 -1 -1 -1 -1
 NAtoms=      7 NQM=        7 NQMF=       0 NMMI=      0 NMMIF=      0
                NMic=       0 NMicF=      0.
                    Isotopes and Nuclear Properties:
 (Nuclear quadrupole moments (NQMom) in fm**2, nuclear magnetic moments (NMagM)
  in nuclear magnetons)

  Atom         1           2           3           4           5           6           7
 IAtWgt=          23          23          23          23          23          23          23
 AtmWgt=  22.9897697  22.9897697  22.9897697  22.9897697  22.9897697  22.9897697  22.9897697
 NucSpn=           3           3           3           3           3           3           3
 AtZEff=  -0.0000000  -0.0000000  -0.0000000  -0.0000000  -0.0000000  -0.0000000  -0.0000000
 NQMom=   10.4000000  10.4000000  10.4000000  10.4000000  10.4000000  10.4000000  10.4000000
 NMagM=    2.2175200   2.2175200   2.2175200   2.2175200   2.2175200   2.2175200   2.2175200
 AtZNuc=  11.0000000  11.0000000  11.0000000  11.0000000  11.0000000  11.0000000  11.0000000
 Leave Link  101 at Mon Nov 13 12:18:53 2023, MaxMem=  1879048192 cpu:               4.1 elap:               0.3
 (Enter /home/sekinelabo/g16/l103.exe)

 GradGradGradGradGradGradGradGradGradGradGradGradGradGradGradGradGradGrad
 Berny optimization.
 Initialization pass.
 Trust Radius=3.00D-01 FncErr=1.00D-07 GrdErr=1.00D-07 EigMax=2.50D+02 EigMin=1.00D-04
 Number of steps in this run=      2 maximum allowed number of steps=      2.
 GradGradGradGradGradGradGradGradGradGradGradGradGradGradGradGradGradGrad

 Leave Link  103 at Mon Nov 13 12:18:54 2023, MaxMem=  1879048192 cpu:               0.4 elap:               0.0
 (Enter /home/sekinelabo/g16/l202.exe)
                          Input orientation:                          
 ---------------------------------------------------------------------
 Center     Atomic      Atomic             Coordinates (Angstroms)
 Number     Number       Type             X           Y           Z
 ---------------------------------------------------------------------
      1         11           0        2.080261    1.585281    0.000000
      2         11           0        2.697884    3.125706    2.639649
      3         11           0        4.742741    1.581649    1.221407
      4         11           0        2.695619    0.017781    2.624072
      5         11           0        0.444129    1.569760    3.302328
      6         11           0        0.000545    0.000000    1.030732
      7         11           0        0.000000    3.164557    1.043663
 ---------------------------------------------------------------------
                    Distance matrix (angstroms):
                    1          2          3          4          5
     1  Na   0.000000
     2  Na   3.118030   0.000000
     3  Na   2.929274   2.928645   0.000000
     4  Na   3.117928   3.107965   2.933234   0.000000
     5  Na   3.685450   2.817716   4.775818   2.817424   0.000000
     6  Na   2.810826   4.431060   5.002638   3.130890   2.796616
     7  Na   2.812620   3.134846   5.003077   4.434665   2.800392
                    6          7
     6  Na   0.000000
     7  Na   3.164583   0.000000
 Stoichiometry    Na7(2)
 Framework group  C1[X(Na7)]
 Deg. of freedom    15
 Full point group                 C1      NOp   1
 Largest Abelian subgroup         C1      NOp   1
 Largest concise Abelian subgroup C1      NOp   1
                         Standard orientation:                         
 ---------------------------------------------------------------------
 Center     Atomic      Atomic             Coordinates (Angstroms)
 Number     Number       Type             X           Y           Z
 ---------------------------------------------------------------------
      1         11           0       -0.271521   -0.007462   -1.694550
      2         11           0       -0.889144   -1.547887    0.945099
      3         11           0       -2.934001   -0.003830   -0.473143
      4         11           0       -0.886879    1.560038    0.929522
      5         11           0        1.364611    0.008059    1.607778
      6         11           0        1.808195    1.577819   -0.663818
      7         11           0        1.808740   -1.586738   -0.650887
 ---------------------------------------------------------------------
 Rotational constants (GHZ):           1.2119133           0.8152539           0.7713379
 Leave Link  202 at Mon Nov 13 12:18:54 2023, MaxMem=  1879048192 cpu:               0.4 elap:               0.0
 (Enter /home/sekinelabo/g16/l301.exe)
 Standard basis: 6-311+G(d) (5D, 7F)
 Ernie: Thresh=  0.10000D-02 Tol=  0.10000D-05 Strict=F.
 There are   217 symmetry adapted cartesian basis functions of A   symmetry.
 There are   210 symmetry adapted basis functions of A   symmetry.
   210 basis functions,   350 primitive gaussians,   217 cartesian basis functions
    39 alpha electrons       38 beta electrons
       nuclear repulsion energy       410.3597380845 Hartrees.
 IExCor=  402 DFT=T Ex+Corr=B3LYP ExCW=0 ScaHFX=  0.200000
 ScaDFX=  0.800000  0.720000  1.000000  0.810000 ScalE2=  1.000000  1.000000
 IRadAn=      5 IRanWt=     -1 IRanGd=            0 ICorTp=0 IEmpDi=  4
 NAtoms=    7 NActive=    7 NUniq=    7 SFac= 1.00D+00 NAtFMM=   60 NAOKFM=F Big=F
 Integral buffers will be    131072 words long.
 Raffenetti 2 integral format.
 Two-electron integral symmetry is turned on.
 Leave Link  301 at Mon Nov 13 12:18:54 2023, MaxMem=  1879048192 cpu:               0.7 elap:               0.1
 (Enter /home/sekinelabo/g16/l302.exe)
 NPDir=0 NMtPBC=     1 NCelOv=     1 NCel=       1 NClECP=     1 NCelD=      1
         NCelK=      1 NCelE2=     1 NClLst=     1 CellRange=     0.0.
 One-electron integrals computed using PRISM.
 One-electron integral symmetry used in STVInt
 NBasis=   210 RedAO= T EigKep=  1.99D-06  NBF=   210
 NBsUse=   210 1.00D-06 EigRej= -1.00D+00 NBFU=   210
 Precomputing XC quadrature grid using
 IXCGrd= 4 IRadAn=           5 IRanWt=          -1 IRanGd=           0 AccXCQ= 0.00D+00.
 Generated NRdTot=       0 NPtTot=           0 NUsed=           0 NTot=          32
 NSgBfM=   211   211   211   211   211 MxSgAt=     7 MxSgA2=     7.
 Leave Link  302 at Mon Nov 13 12:18:54 2023, MaxMem=  1879048192 cpu:               3.6 elap:               0.3
 (Enter /home/sekinelabo/g16/l303.exe)
 DipDrv:  MaxL=1.
 Leave Link  303 at Mon Nov 13 12:18:54 2023, MaxMem=  1879048192 cpu:               1.2 elap:               0.1
 (Enter /home/sekinelabo/g16/l401.exe)
 ExpMin= 7.60D-03 ExpMax= 3.62D+04 ExpMxC= 1.21D+03 IAcc=3 IRadAn=         5 AccDes= 0.00D+00
 Harris functional with IExCor=  402 and IRadAn=       5 diagonalized for initial guess.
 HarFok:  IExCor=  402 AccDes= 0.00D+00 IRadAn=         5 IDoV= 1 UseB2=F ITyADJ=14
 ICtDFT=  3500011 ScaDFX=  1.000000  1.000000  1.000000  1.000000
 FoFCou: FMM=F IPFlag=           0 FMFlag=      100000 FMFlg1=           0
         NFxFlg=           0 DoJE=T BraDBF=F KetDBF=T FulRan=T
         wScrn=  0.000000 ICntrl=       500 IOpCl=  0 I1Cent=   200000004 NGrid=           0
         NMat0=    1 NMatS0=      1 NMatT0=    0 NMatD0=    1 NMtDS0=    0 NMtDT0=    0
 Petite list used in FoFCou.
 Harris En= -1135.85787488530    
 JPrj=0 DoOrth=F DoCkMO=F.
 Initial guess <Sx>= 0.0000 <Sy>= 0.0000 <Sz>= 0.5000 <S**2>= 0.7500 S= 0.5000
 Leave Link  401 at Mon Nov 13 12:18:54 2023, MaxMem=  1879048192 cpu:               4.8 elap:               0.3
 (Enter /home/sekinelabo/g16/l502.exe)
 Keep R1 and R2 ints in memory in canonical form, NReq=507620388.
 FoFCou: FMM=F IPFlag=           0 FMFlag=           0 FMFlg1=           0
         NFxFlg=           0 DoJE=F BraDBF=F KetDBF=F FulRan=T
         wScrn=  0.000000 ICntrl=       600 IOpCl=  0 I1Cent=           0 NGrid=           0
         NMat0=    1 NMatS0=  22155 NMatT0=    0 NMatD0=    1 NMtDS0=    0 NMtDT0=    0
 Symmetry not used in FoFCou.
 Two-electron integral symmetry not used.
 UHF open shell SCF:
 Using DIIS extrapolation, IDIIS=  1040.
 NGot=  1879048192 LenX=  1388082348 LenY=  1388034818
 Requested convergence on RMS density matrix=1.00D-08 within 128 cycles.
 Requested convergence on MAX density matrix=1.00D-06.
 Requested convergence on             energy=1.00D-06.
 No special actions if energy rises.

 Cycle   1  Pass 1  IDiag  1:
 E= -1136.03672942438    
 DIIS: error= 1.61D-02 at cycle   1 NSaved=   1.
 NSaved= 1 IEnMin= 1 EnMin= -1136.03672942438     IErMin= 1 ErrMin= 1.61D-02
 ErrMax= 1.61D-02  0.00D+00 EMaxC= 1.00D-01 BMatC= 2.12D-01 BMatP= 2.12D-01
 IDIUse=3 WtCom= 8.39D-01 WtEn= 1.61D-01
 Coeff-Com:  0.100D+01
 Coeff-En:   0.100D+01
 Coeff:      0.100D+01
 Gap=     0.067 Goal=   None    Shift=    0.000
 Gap=     0.027 Goal=   None    Shift=    0.000
 GapD=    0.027 DampG=0.250 DampE=0.500 DampFc=0.2500 IDamp=-1.
 Damping current iteration by 2.50D-01
 RMSDP=8.39D-02 MaxDP=8.34D+00              OVMax= 2.64D-01

 Cycle   2  Pass 1  IDiag  1:
 E= -1136.05348286739     Delta-E=       -0.016753443006 Rises=F Damp=T
 DIIS: error= 1.03D-02 at cycle   2 NSaved=   2.
 NSaved= 2 IEnMin= 2 EnMin= -1136.05348286739     IErMin= 2 ErrMin= 1.03D-02
 ErrMax= 1.03D-02  0.00D+00 EMaxC= 1.00D-01 BMatC= 7.97D-02 BMatP= 2.12D-01
 IDIUse=3 WtCom= 8.97D-01 WtEn= 1.03D-01
 Coeff-Com: -0.126D+01 0.226D+01
 Coeff-En:   0.000D+00 0.100D+01
 Coeff:     -0.113D+01 0.213D+01
 Gap=     0.068 Goal=   None    Shift=    0.000
 Gap=     0.031 Goal=   None    Shift=    0.000
 RMSDP=3.88D-02 MaxDP=4.16D+00 DE=-1.68D-02 OVMax= 1.72D-01

 Cycle   3  Pass 1  IDiag  1:
 E= -1136.08191464663     Delta-E=       -0.028431779242 Rises=F Damp=F
 DIIS: error= 3.65D-03 at cycle   3 NSaved=   3.
 NSaved= 3 IEnMin= 3 EnMin= -1136.08191464663     IErMin= 3 ErrMin= 3.65D-03
 ErrMax= 3.65D-03  0.00D+00 EMaxC= 1.00D-01 BMatC= 3.84D-03 BMatP= 7.97D-02
 IDIUse=3 WtCom= 9.64D-01 WtEn= 3.65D-02
 Coeff-Com: -0.218D+00 0.414D+00 0.804D+00
 Coeff-En:   0.000D+00 0.000D+00 0.100D+01
 Coeff:     -0.210D+00 0.399D+00 0.811D+00
 Gap=     0.062 Goal=   None    Shift=    0.000
 Gap=     0.031 Goal=   None    Shift=    0.000
 RMSDP=1.40D-02 MaxDP=1.15D+00 DE=-2.84D-02 OVMax= 5.89D-02

 Cycle   4  Pass 1  IDiag  1:
 E= -1136.08217807770     Delta-E=       -0.000263431071 Rises=F Damp=F
 DIIS: error= 3.25D-03 at cycle   4 NSaved=   4.
 NSaved= 4 IEnMin= 4 EnMin= -1136.08217807770     IErMin= 4 ErrMin= 3.25D-03
 ErrMax= 3.25D-03  0.00D+00 EMaxC= 1.00D-01 BMatC= 2.83D-03 BMatP= 3.84D-03
 IDIUse=3 WtCom= 9.67D-01 WtEn= 3.25D-02
 Coeff-Com:  0.183D-01-0.229D-01 0.464D+00 0.541D+00
 Coeff-En:   0.000D+00 0.000D+00 0.468D+00 0.532D+00
 Coeff:      0.177D-01-0.221D-01 0.464D+00 0.540D+00
 Gap=     0.065 Goal=   None    Shift=    0.000
 Gap=     0.032 Goal=   None    Shift=    0.000
 RMSDP=4.33D-03 MaxDP=3.45D-01 DE=-2.63D-04 OVMax= 3.63D-02

 Cycle   5  Pass 1  IDiag  1:
 E= -1136.08379420631     Delta-E=       -0.001616128609 Rises=F Damp=F
 DIIS: error= 6.89D-04 at cycle   5 NSaved=   5.
 NSaved= 5 IEnMin= 5 EnMin= -1136.08379420631     IErMin= 5 ErrMin= 6.89D-04
 ErrMax= 6.89D-04  0.00D+00 EMaxC= 1.00D-01 BMatC= 1.04D-04 BMatP= 2.83D-03
 IDIUse=3 WtCom= 9.93D-01 WtEn= 6.89D-03
 Coeff-Com:  0.119D-01-0.161D-01 0.288D+00 0.343D+00 0.373D+00
 Coeff-En:   0.000D+00 0.000D+00 0.000D+00 0.000D+00 0.100D+01
 Coeff:      0.118D-01-0.160D-01 0.286D+00 0.341D+00 0.377D+00
 Gap=     0.064 Goal=   None    Shift=    0.000
 Gap=     0.032 Goal=   None    Shift=    0.000
 RMSDP=7.00D-04 MaxDP=3.07D-02 DE=-1.62D-03 OVMax= 1.05D-02

 Cycle   6  Pass 1  IDiag  1:
 E= -1136.08390169710     Delta-E=       -0.000107490793 Rises=F Damp=F
 DIIS: error= 1.23D-04 at cycle   6 NSaved=   6.
 NSaved= 6 IEnMin= 6 EnMin= -1136.08390169710     IErMin= 6 ErrMin= 1.23D-04
 ErrMax= 1.23D-04  0.00D+00 EMaxC= 1.00D-01 BMatC= 3.47D-06 BMatP= 1.04D-04
 IDIUse=3 WtCom= 9.99D-01 WtEn= 1.23D-03
 Coeff-Com: -0.404D-02 0.494D-02-0.511D-01-0.646D-01 0.970D-01 0.102D+01
 Coeff-En:   0.000D+00 0.000D+00 0.000D+00 0.000D+00 0.000D+00 0.100D+01
 Coeff:     -0.404D-02 0.494D-02-0.510D-01-0.645D-01 0.969D-01 0.102D+01
 Gap=     0.064 Goal=   None    Shift=    0.000
 Gap=     0.032 Goal=   None    Shift=    0.000
 RMSDP=4.18D-04 MaxDP=2.94D-02 DE=-1.07D-04 OVMax= 3.32D-03

 Cycle   7  Pass 1  IDiag  1:
 E= -1136.08390813504     Delta-E=       -0.000006437936 Rises=F Damp=F
 DIIS: error= 3.08D-05 at cycle   7 NSaved=   7.
 NSaved= 7 IEnMin= 7 EnMin= -1136.08390813504     IErMin= 7 ErrMin= 3.08D-05
 ErrMax= 3.08D-05  0.00D+00 EMaxC= 1.00D-01 BMatC= 2.13D-07 BMatP= 3.47D-06
 IDIUse=1 WtCom= 1.00D+00 WtEn= 0.00D+00
 Coeff-Com: -0.630D-03 0.802D-03-0.220D-01-0.243D-01-0.240D-01-0.524D-02
 Coeff-Com:  0.108D+01
 Coeff:     -0.630D-03 0.802D-03-0.220D-01-0.243D-01-0.240D-01-0.524D-02
 Coeff:      0.108D+01
 Gap=     0.064 Goal=   None    Shift=    0.000
 Gap=     0.032 Goal=   None    Shift=    0.000
 RMSDP=1.42D-04 MaxDP=9.22D-03 DE=-6.44D-06 OVMax= 2.17D-03

 Cycle   8  Pass 1  IDiag  1:
 E= -1136.08390877070     Delta-E=       -0.000000635664 Rises=F Damp=F
 DIIS: error= 3.05D-05 at cycle   8 NSaved=   8.
 NSaved= 8 IEnMin= 8 EnMin= -1136.08390877070     IErMin= 8 ErrMin= 3.05D-05
 ErrMax= 3.05D-05  0.00D+00 EMaxC= 1.00D-01 BMatC= 2.39D-07 BMatP= 2.13D-07
 IDIUse=1 WtCom= 1.00D+00 WtEn= 0.00D+00
 Coeff-Com:  0.364D-03-0.435D-03-0.664D-02-0.547D-02-0.347D-01-0.183D+00
 Coeff-Com:  0.721D+00 0.509D+00
 Coeff:      0.364D-03-0.435D-03-0.664D-02-0.547D-02-0.347D-01-0.183D+00
 Coeff:      0.721D+00 0.509D+00
 Gap=     0.064 Goal=   None    Shift=    0.000
 Gap=     0.032 Goal=   None    Shift=    0.000
 RMSDP=5.03D-05 MaxDP=3.25D-03 DE=-6.36D-07 OVMax= 7.03D-04

 Cycle   9  Pass 1  IDiag  1:
 E= -1136.08390907769     Delta-E=       -0.000000306984 Rises=F Damp=F
 DIIS: error= 9.13D-06 at cycle   9 NSaved=   9.
 NSaved= 9 IEnMin= 9 EnMin= -1136.08390907769     IErMin= 9 ErrMin= 9.13D-06
 ErrMax= 9.13D-06  0.00D+00 EMaxC= 1.00D-01 BMatC= 1.93D-08 BMatP= 2.13D-07
 IDIUse=1 WtCom= 1.00D+00 WtEn= 0.00D+00
 Coeff-Com:  0.341D-03-0.429D-03 0.276D-02 0.387D-02-0.715D-02-0.606D-01
 Coeff-Com: -0.996D-02 0.187D+00 0.884D+00
 Coeff:      0.341D-03-0.429D-03 0.276D-02 0.387D-02-0.715D-02-0.606D-01
 Coeff:     -0.996D-02 0.187D+00 0.884D+00
 Gap=     0.064 Goal=   None    Shift=    0.000
 Gap=     0.032 Goal=   None    Shift=    0.000
 RMSDP=2.91D-05 MaxDP=1.85D-03 DE=-3.07D-07 OVMax= 6.42D-04

 Cycle  10  Pass 1  IDiag  1:
 E= -1136.08390913837     Delta-E=       -0.000000060682 Rises=F Damp=F
 DIIS: error= 3.31D-06 at cycle  10 NSaved=  10.
 NSaved=10 IEnMin=10 EnMin= -1136.08390913837     IErMin=10 ErrMin= 3.31D-06
 ErrMax= 3.31D-06  0.00D+00 EMaxC= 1.00D-01 BMatC= 3.80D-09 BMatP= 1.93D-08
 IDIUse=1 WtCom= 1.00D+00 WtEn= 0.00D+00
 Coeff-Com:  0.299D-04-0.327D-04 0.222D-02 0.222D-02 0.367D-02 0.664D-02
 Coeff-Com: -0.120D+00-0.394D-01 0.268D+00 0.876D+00
 Coeff:      0.299D-04-0.327D-04 0.222D-02 0.222D-02 0.367D-02 0.664D-02
 Coeff:     -0.120D+00-0.394D-01 0.268D+00 0.876D+00
 Gap=     0.064 Goal=   None    Shift=    0.000
 Gap=     0.032 Goal=   None    Shift=    0.000
 RMSDP=1.54D-05 MaxDP=1.25D-03 DE=-6.07D-08 OVMax= 3.25D-04

 Cycle  11  Pass 1  IDiag  1:
 E= -1136.08390915174     Delta-E=       -0.000000013366 Rises=F Damp=F
 DIIS: error= 1.64D-06 at cycle  11 NSaved=  11.
 NSaved=11 IEnMin=11 EnMin= -1136.08390915174     IErMin=11 ErrMin= 1.64D-06
 ErrMax= 1.64D-06  0.00D+00 EMaxC= 1.00D-01 BMatC= 5.71D-10 BMatP= 3.80D-09
 IDIUse=1 WtCom= 1.00D+00 WtEn= 0.00D+00
 Coeff-Com: -0.907D-04 0.116D-03-0.825D-04-0.376D-03 0.267D-02 0.170D-01
 Coeff-Com: -0.323D-01-0.518D-01-0.142D+00 0.159D+00 0.105D+01
 Coeff:     -0.907D-04 0.116D-03-0.825D-04-0.376D-03 0.267D-02 0.170D-01
 Coeff:     -0.323D-01-0.518D-01-0.142D+00 0.159D+00 0.105D+01
 Gap=     0.064 Goal=   None    Shift=    0.000
 Gap=     0.032 Goal=   None    Shift=    0.000
 RMSDP=6.96D-06 MaxDP=7.31D-04 DE=-1.34D-08 OVMax= 2.09D-04

 Cycle  12  Pass 1  IDiag  1:
 E= -1136.08390915493     Delta-E=       -0.000000003192 Rises=F Damp=F
 DIIS: error= 5.57D-07 at cycle  12 NSaved=  12.
 NSaved=12 IEnMin=12 EnMin= -1136.08390915493     IErMin=12 ErrMin= 5.57D-07
 ErrMax= 5.57D-07  0.00D+00 EMaxC= 1.00D-01 BMatC= 8.37D-11 BMatP= 5.71D-10
 IDIUse=1 WtCom= 1.00D+00 WtEn= 0.00D+00
 Coeff-Com: -0.791D-06-0.301D-06-0.154D-03-0.171D-03-0.177D-03 0.411D-03
 Coeff-Com:  0.891D-02 0.897D-04-0.366D-01-0.671D-01 0.800D-01 0.101D+01
 Coeff:     -0.791D-06-0.301D-06-0.154D-03-0.171D-03-0.177D-03 0.411D-03
 Coeff:      0.891D-02 0.897D-04-0.366D-01-0.671D-01 0.800D-01 0.101D+01
 Gap=     0.064 Goal=   None    Shift=    0.000
 Gap=     0.032 Goal=   None    Shift=    0.000
 RMSDP=2.13D-06 MaxDP=1.14D-04 DE=-3.19D-09 OVMax= 5.97D-05

 Cycle  13  Pass 1  IDiag  1:
 E= -1136.08390915531     Delta-E=       -0.000000000387 Rises=F Damp=F
 DIIS: error= 4.57D-07 at cycle  13 NSaved=  13.
 NSaved=13 IEnMin=13 EnMin= -1136.08390915531     IErMin=13 ErrMin= 4.57D-07
 ErrMax= 4.57D-07  0.00D+00 EMaxC= 1.00D-01 BMatC= 7.96D-11 BMatP= 8.37D-11
 IDIUse=1 WtCom= 1.00D+00 WtEn= 0.00D+00
 Coeff-Com:  0.280D-04-0.367D-04-0.899D-04-0.480D-05-0.971D-03-0.506D-02
 Coeff-Com:  0.168D-01 0.162D-01 0.183D-01-0.976D-01-0.271D+00 0.706D+00
 Coeff-Com:  0.618D+00
 Coeff:      0.280D-04-0.367D-04-0.899D-04-0.480D-05-0.971D-03-0.506D-02
 Coeff:      0.168D-01 0.162D-01 0.183D-01-0.976D-01-0.271D+00 0.706D+00
 Coeff:      0.618D+00
 Gap=     0.064 Goal=   None    Shift=    0.000
 Gap=     0.032 Goal=   None    Shift=    0.000
 RMSDP=1.35D-06 MaxDP=6.86D-05 DE=-3.87D-10 OVMax= 3.07D-05

 Cycle  14  Pass 1  IDiag  1:
 E= -1136.08390915549     Delta-E=       -0.000000000172 Rises=F Damp=F
 DIIS: error= 1.27D-07 at cycle  14 NSaved=  14.
 NSaved=14 IEnMin=14 EnMin= -1136.08390915549     IErMin=14 ErrMin= 1.27D-07
 ErrMax= 1.27D-07  0.00D+00 EMaxC= 1.00D-01 BMatC= 7.85D-12 BMatP= 7.96D-11
 IDIUse=1 WtCom= 1.00D+00 WtEn= 0.00D+00
 Coeff-Com:  0.395D-05-0.463D-05 0.116D-05 0.319D-04-0.168D-03-0.118D-02
 Coeff-Com:  0.121D-02 0.355D-02 0.163D-01-0.264D-03-0.914D-01-0.185D+00
 Coeff-Com:  0.135D+00 0.112D+01
 Coeff:      0.395D-05-0.463D-05 0.116D-05 0.319D-04-0.168D-03-0.118D-02
 Coeff:      0.121D-02 0.355D-02 0.163D-01-0.264D-03-0.914D-01-0.185D+00
 Coeff:      0.135D+00 0.112D+01
 Gap=     0.064 Goal=   None    Shift=    0.000
 Gap=     0.032 Goal=   None    Shift=    0.000
 RMSDP=1.09D-06 MaxDP=6.39D-05 DE=-1.72D-10 OVMax= 2.01D-05

 Cycle  15  Pass 1  IDiag  1:
 E= -1136.08390915552     Delta-E=       -0.000000000030 Rises=F Damp=F
 DIIS: error= 6.53D-08 at cycle  15 NSaved=  15.
 NSaved=15 IEnMin=15 EnMin= -1136.08390915552     IErMin=15 ErrMin= 6.53D-08
 ErrMax= 6.53D-08  0.00D+00 EMaxC= 1.00D-01 BMatC= 9.05D-13 BMatP= 7.85D-12
 IDIUse=1 WtCom= 1.00D+00 WtEn= 0.00D+00
 Coeff-Com: -0.270D-05 0.368D-05 0.101D-04 0.496D-06 0.858D-04 0.434D-03
 Coeff-Com: -0.175D-02-0.145D-02-0.314D-03 0.135D-01 0.186D-01-0.104D+00
 Coeff-Com: -0.605D-01 0.141D+00 0.994D+00
 Coeff:     -0.270D-05 0.368D-05 0.101D-04 0.496D-06 0.858D-04 0.434D-03
 Coeff:     -0.175D-02-0.145D-02-0.314D-03 0.135D-01 0.186D-01-0.104D+00
 Coeff:     -0.605D-01 0.141D+00 0.994D+00
 Gap=     0.064 Goal=   None    Shift=    0.000
 Gap=     0.032 Goal=   None    Shift=    0.000
 RMSDP=3.73D-07 MaxDP=2.04D-05 DE=-3.02D-11 OVMax= 9.14D-06

 Cycle  16  Pass 1  IDiag  1:
 E= -1136.08390915555     Delta-E=       -0.000000000037 Rises=F Damp=F
 DIIS: error= 5.78D-08 at cycle  16 NSaved=  16.
 NSaved=16 IEnMin=16 EnMin= -1136.08390915555     IErMin=16 ErrMin= 5.78D-08
 ErrMax= 5.78D-08  0.00D+00 EMaxC= 1.00D-01 BMatC= 3.90D-13 BMatP= 9.05D-13
 IDIUse=1 WtCom= 1.00D+00 WtEn= 0.00D+00
 Coeff-Com: -0.297D-06 0.305D-06 0.292D-05-0.270D-05 0.307D-04 0.127D-03
 Coeff-Com: -0.123D-03-0.527D-03-0.246D-02-0.449D-03 0.146D-01 0.253D-01
 Coeff-Com: -0.261D-01-0.154D+00 0.381D-01 0.111D+01
 Coeff:     -0.297D-06 0.305D-06 0.292D-05-0.270D-05 0.307D-04 0.127D-03
 Coeff:     -0.123D-03-0.527D-03-0.246D-02-0.449D-03 0.146D-01 0.253D-01
 Coeff:     -0.261D-01-0.154D+00 0.381D-01 0.111D+01
 Gap=     0.064 Goal=   None    Shift=    0.000
 Gap=     0.032 Goal=   None    Shift=    0.000
 RMSDP=2.10D-07 MaxDP=1.40D-05 DE=-3.73D-11 OVMax= 8.65D-06

 Cycle  17  Pass 1  IDiag  1:
 E= -1136.08390915556     Delta-E=       -0.000000000003 Rises=F Damp=F
 DIIS: error= 5.04D-08 at cycle  17 NSaved=  17.
 NSaved=17 IEnMin=17 EnMin= -1136.08390915556     IErMin=17 ErrMin= 5.04D-08
 ErrMax= 5.04D-08  0.00D+00 EMaxC= 1.00D-01 BMatC= 2.50D-13 BMatP= 3.90D-13
 IDIUse=1 WtCom= 1.00D+00 WtEn= 0.00D+00
 Coeff-Com:  0.916D-06-0.127D-05-0.444D-05 0.397D-06-0.375D-04-0.140D-03
 Coeff-Com:  0.588D-03 0.613D-03 0.522D-03-0.545D-02-0.820D-02 0.385D-01
 Coeff-Com:  0.228D-01-0.302D-01-0.459D+00-0.196D-01 0.146D+01
 Coeff:      0.916D-06-0.127D-05-0.444D-05 0.397D-06-0.375D-04-0.140D-03
 Coeff:      0.588D-03 0.613D-03 0.522D-03-0.545D-02-0.820D-02 0.385D-01
 Coeff:      0.228D-01-0.302D-01-0.459D+00-0.196D-01 0.146D+01
 Gap=     0.064 Goal=   None    Shift=    0.000
 Gap=     0.032 Goal=   None    Shift=    0.000
 RMSDP=2.60D-07 MaxDP=1.82D-05 DE=-2.73D-12 OVMax= 1.21D-05

 Cycle  18  Pass 1  IDiag  1:
 E= -1136.08390915555     Delta-E=        0.000000000011 Rises=F Damp=F
 DIIS: error= 4.00D-08 at cycle  18 NSaved=  18.
 NSaved=18 IEnMin=17 EnMin= -1136.08390915556     IErMin=18 ErrMin= 4.00D-08
 ErrMax= 4.00D-08  0.00D+00 EMaxC= 1.00D-01 BMatC= 1.52D-13 BMatP= 2.50D-13
 IDIUse=1 WtCom= 1.00D+00 WtEn= 0.00D+00
 Coeff-Com: -0.280D-06 0.526D-06-0.175D-05 0.185D-05-0.674D-05-0.837D-04
 Coeff-Com: -0.142D-03 0.116D-03 0.219D-02 0.530D-02-0.118D-01-0.507D-01
 Coeff-Com:  0.535D-02 0.192D+00 0.344D+00-0.121D+01-0.114D+01 0.286D+01
 Coeff:     -0.280D-06 0.526D-06-0.175D-05 0.185D-05-0.674D-05-0.837D-04
 Coeff:     -0.142D-03 0.116D-03 0.219D-02 0.530D-02-0.118D-01-0.507D-01
 Coeff:      0.535D-02 0.192D+00 0.344D+00-0.121D+01-0.114D+01 0.286D+01
 Gap=     0.064 Goal=   None    Shift=    0.000
 Gap=     0.032 Goal=   None    Shift=    0.000
 RMSDP=5.47D-07 MaxDP=3.68D-05 DE= 1.09D-11 OVMax= 2.59D-05

 Cycle  19  Pass 1  IDiag  1:
 E= -1136.08390915557     Delta-E=       -0.000000000022 Rises=F Damp=F
 DIIS: error= 1.78D-08 at cycle  19 NSaved=  19.
 NSaved=19 IEnMin=19 EnMin= -1136.08390915557     IErMin=19 ErrMin= 1.78D-08
 ErrMax= 1.78D-08  0.00D+00 EMaxC= 1.00D-01 BMatC= 3.74D-14 BMatP= 1.52D-13
 IDIUse=1 WtCom= 1.00D+00 WtEn= 0.00D+00
 Large coefficients: NSaved= 19 BigCof=    0.00 CofMax=   10.00 Det=-4.21D-15
 Inversion failed.  Reducing to 18 matrices.
 Large coefficients: NSaved= 18 BigCof=    0.00 CofMax=   10.00 Det=-4.23D-15
 Inversion failed.  Reducing to 17 matrices.
 Large coefficients: NSaved= 17 BigCof=    0.00 CofMax=   10.00 Det=-4.34D-15
 Inversion failed.  Reducing to 16 matrices.
 Large coefficients: NSaved= 16 BigCof=    0.00 CofMax=   10.00 Det=-4.37D-15
 Inversion failed.  Reducing to 15 matrices.
 Coeff-Com: -0.453D-05-0.246D-04-0.106D-04 0.692D-04 0.419D-03 0.440D-03
 Coeff-Com: -0.236D-02-0.116D-01-0.135D-02 0.347D-01 0.985D-01-0.799D-01
 Coeff-Com: -0.423D+00-0.270D-01 0.141D+01
 Coeff:     -0.453D-05-0.246D-04-0.106D-04 0.692D-04 0.419D-03 0.440D-03
 Coeff:     -0.236D-02-0.116D-01-0.135D-02 0.347D-01 0.985D-01-0.799D-01
 Coeff:     -0.423D+00-0.270D-01 0.141D+01
 Gap=     0.064 Goal=   None    Shift=    0.000
 Gap=     0.032 Goal=   None    Shift=    0.000
 RMSDP=3.07D-07 MaxDP=2.02D-05 DE=-2.18D-11 OVMax= 1.46D-05

 Cycle  20  Pass 1  IDiag  1:
 E= -1136.08390915557     Delta-E=       -0.000000000001 Rises=F Damp=F
 DIIS: error= 5.26D-09 at cycle  20 NSaved=  16.
 NSaved=16 IEnMin=16 EnMin= -1136.08390915557     IErMin=16 ErrMin= 5.26D-09
 ErrMax= 5.26D-09  0.00D+00 EMaxC= 1.00D-01 BMatC= 7.31D-15 BMatP= 3.74D-14
 IDIUse=1 WtCom= 1.00D+00 WtEn= 0.00D+00
 Large coefficients: NSaved= 16 BigCof=    0.00 CofMax=   10.00 Det=-4.99D-15
 Inversion failed.  Reducing to 15 matrices.
 Coeff-Com:  0.944D-05 0.579D-04 0.268D-04-0.361D-03-0.123D-02 0.231D-02
 Coeff-Com:  0.943D-02-0.471D-03-0.310D-01-0.724D-01 0.250D+00 0.215D+00
 Coeff-Com: -0.625D+00 0.409D-01 0.121D+01
 Coeff:      0.944D-05 0.579D-04 0.268D-04-0.361D-03-0.123D-02 0.231D-02
 Coeff:      0.943D-02-0.471D-03-0.310D-01-0.724D-01 0.250D+00 0.215D+00
 Coeff:     -0.625D+00 0.409D-01 0.121D+01
 Gap=     0.064 Goal=   None    Shift=    0.000
 Gap=     0.032 Goal=   None    Shift=    0.000
 RMSDP=1.05D-07 MaxDP=7.25D-06 DE=-9.09D-13 OVMax= 4.90D-06

 Cycle  21  Pass 1  IDiag  1:
 E= -1136.08390915556     Delta-E=        0.000000000004 Rises=F Damp=F
 DIIS: error= 2.86D-09 at cycle  21 NSaved=  16.
 NSaved=16 IEnMin=15 EnMin= -1136.08390915557     IErMin=16 ErrMin= 2.86D-09
 ErrMax= 2.86D-09  0.00D+00 EMaxC= 1.00D-01 BMatC= 2.02D-15 BMatP= 7.31D-15
 IDIUse=1 WtCom= 1.00D+00 WtEn= 0.00D+00
 Large coefficients: NSaved= 16 BigCof=    0.00 CofMax=   10.00 Det=-3.03D-15
 Inversion failed.  Reducing to 15 matrices.
 Coeff-Com:  0.265D-04 0.121D-05-0.200D-03-0.567D-03 0.132D-02 0.580D-02
 Coeff-Com: -0.441D-03-0.202D-01-0.429D-01 0.126D+00 0.166D+00-0.308D+00
 Coeff-Com: -0.134D+00 0.460D+00 0.747D+00
 Coeff:      0.265D-04 0.121D-05-0.200D-03-0.567D-03 0.132D-02 0.580D-02
 Coeff:     -0.441D-03-0.202D-01-0.429D-01 0.126D+00 0.166D+00-0.308D+00
 Coeff:     -0.134D+00 0.460D+00 0.747D+00
 Gap=     0.064 Goal=   None    Shift=    0.000
 Gap=     0.032 Goal=   None    Shift=    0.000
 RMSDP=2.18D-08 MaxDP=1.33D-06 DE= 4.32D-12 OVMax= 8.41D-07

 Cycle  22  Pass 1  IDiag  1:
 E= -1136.08390915554     Delta-E=        0.000000000020 Rises=F Damp=F
 DIIS: error= 1.69D-09 at cycle  22 NSaved=  16.
 NSaved=16 IEnMin=14 EnMin= -1136.08390915557     IErMin=16 ErrMin= 1.69D-09
 ErrMax= 1.69D-09  0.00D+00 EMaxC= 1.00D-01 BMatC= 4.20D-16 BMatP= 2.02D-15
 IDIUse=1 WtCom= 1.00D+00 WtEn= 0.00D+00
 Large coefficients: NSaved= 16 BigCof=    0.00 CofMax=   10.00 Det=-1.03D-15
 Inversion failed.  Reducing to 15 matrices.
 Coeff-Com: -0.125D-04 0.111D-04 0.220D-03-0.346D-03-0.112D-02-0.286D-04
 Coeff-Com:  0.354D-02 0.128D-01-0.435D-01-0.314D-01 0.123D+00-0.634D-01
 Coeff-Com: -0.204D+00 0.111D+00 0.109D+01
 Coeff:     -0.125D-04 0.111D-04 0.220D-03-0.346D-03-0.112D-02-0.286D-04
 Coeff:      0.354D-02 0.128D-01-0.435D-01-0.314D-01 0.123D+00-0.634D-01
 Coeff:     -0.204D+00 0.111D+00 0.109D+01
 Gap=     0.064 Goal=   None    Shift=    0.000
 Gap=     0.032 Goal=   None    Shift=    0.000
 RMSDP=1.75D-08 MaxDP=1.88D-06 DE= 2.02D-11 OVMax= 2.80D-07

 Cycle  23  Pass 1  IDiag  1:
 E= -1136.08390915557     Delta-E=       -0.000000000028 Rises=F Damp=F
 DIIS: error= 7.08D-10 at cycle  23 NSaved=  16.
 NSaved=16 IEnMin=16 EnMin= -1136.08390915557     IErMin=16 ErrMin= 7.08D-10
 ErrMax= 7.08D-10  0.00D+00 EMaxC= 1.00D-01 BMatC= 1.25D-16 BMatP= 4.20D-16
 IDIUse=1 WtCom= 1.00D+00 WtEn= 0.00D+00
 Large coefficients: NSaved= 16 BigCof=    0.00 CofMax=   10.00 Det=-2.36D-16
 Inversion failed.  Reducing to 15 matrices.
 Coeff-Com:  0.391D-04 0.115D-03-0.465D-03-0.109D-02 0.470D-03 0.530D-02
 Coeff-Com:  0.691D-02-0.433D-01-0.375D-01 0.108D+00 0.167D-01-0.188D+00
 Coeff-Com: -0.170D+00 0.373D+00 0.930D+00
 Coeff:      0.391D-04 0.115D-03-0.465D-03-0.109D-02 0.470D-03 0.530D-02
 Coeff:      0.691D-02-0.433D-01-0.375D-01 0.108D+00 0.167D-01-0.188D+00
 Coeff:     -0.170D+00 0.373D+00 0.930D+00
 Gap=     0.064 Goal=   None    Shift=    0.000
 Gap=     0.032 Goal=   None    Shift=    0.000
 RMSDP=9.10D-09 MaxDP=1.00D-06 DE=-2.82D-11 OVMax= 8.65D-08

 Cycle  24  Pass 1  IDiag  1:
 E= -1136.08390915556     Delta-E=        0.000000000014 Rises=F Damp=F
 DIIS: error= 2.41D-10 at cycle  24 NSaved=  16.
 NSaved=16 IEnMin=15 EnMin= -1136.08390915557     IErMin=16 ErrMin= 2.41D-10
 ErrMax= 2.41D-10  0.00D+00 EMaxC= 1.00D-01 BMatC= 1.62D-17 BMatP= 1.25D-16
 IDIUse=1 WtCom= 1.00D+00 WtEn= 0.00D+00
 Large coefficients: NSaved= 16 BigCof=    0.00 CofMax=   10.00 Det=-5.14D-17
 Inversion failed.  Reducing to 15 matrices.
 Coeff-Com: -0.160D-04 0.680D-04 0.360D-04-0.628D-04-0.270D-03-0.158D-04
 Coeff-Com:  0.525D-02-0.341D-02-0.106D-01 0.171D-01 0.139D-01-0.489D-01
 Coeff-Com: -0.157D+00 0.175D+00 0.101D+01
 Coeff:     -0.160D-04 0.680D-04 0.360D-04-0.628D-04-0.270D-03-0.158D-04
 Coeff:      0.525D-02-0.341D-02-0.106D-01 0.171D-01 0.139D-01-0.489D-01
 Coeff:     -0.157D+00 0.175D+00 0.101D+01
 Gap=     0.064 Goal=   None    Shift=    0.000
 Gap=     0.032 Goal=   None    Shift=    0.000
 RMSDP=6.45D-09 MaxDP=6.74D-07 DE= 1.41D-11 OVMax= 2.38D-08

 SCF Done:  E(UB3LYP) =  -1136.08390916     A.U. after   24 cycles
            NFock= 24  Conv=0.64D-08     -V/T= 2.0023
 <Sx>= 0.0000 <Sy>= 0.0000 <Sz>= 0.5000 <S**2>= 0.7611 S= 0.5056
 <L.S>= 0.000000000000E+00
 KE= 1.133487923717D+03 PE=-3.550277820431D+03 EE= 8.703462494735D+02
 Annihilation of the first spin contaminant:
 S**2 before annihilation     0.7611,   after     0.7501
 Leave Link  502 at Mon Nov 13 12:19:15 2023, MaxMem=  1879048192 cpu:             242.2 elap:              20.4
 (Enter /home/sekinelabo/g16/l601.exe)
 Copying SCF densities to generalized density rwf, IOpCl= 1 IROHF=0.

 **********************************************************************

            Population analysis using the SCF Density.

 **********************************************************************

 Orbital symmetries:
 Alpha Orbitals:
       Occupied  (A) (A) (A) (A) (A) (A) (A) (A) (A) (A) (A) (A)
                 (A) (A) (A) (A) (A) (A) (A) (A) (A) (A) (A) (A)
                 (A) (A) (A) (A) (A) (A) (A) (A) (A) (A) (A) (A)
                 (A) (A) (A)
       Virtual   (A) (A) (A) (A) (A) (A) (A) (A) (A) (A) (A) (A)
                 (A) (A) (A) (A) (A) (A) (A) (A) (A) (A) (A) (A)
                 (A) (A) (A) (A) (A) (A) (A) (A) (A) (A) (A) (A)
                 (A) (A) (A) (A) (A) (A) (A) (A) (A) (A) (A) (A)
                 (A) (A) (A) (A) (A) (A) (A) (A) (A) (A) (A) (A)
                 (A) (A) (A) (A) (A) (A) (A) (A) (A) (A) (A) (A)
                 (A) (A) (A) (A) (A) (A) (A) (A) (A) (A) (A) (A)
                 (A) (A) (A) (A) (A) (A) (A) (A) (A) (A) (A) (A)
                 (A) (A) (A) (A) (A) (A) (A) (A) (A) (A) (A) (A)
                 (A) (A) (A) (A) (A) (A) (A) (A) (A) (A) (A) (A)
                 (A) (A) (A) (A) (A) (A) (A) (A) (A) (A) (A) (A)
                 (A) (A) (A) (A) (A) (A) (A) (A) (A) (A) (A) (A)
                 (A) (A) (A) (A) (A) (A) (A) (A) (A) (A) (A) (A)
                 (A) (A) (A) (A) (A) (A) (A) (A) (A) (A) (A) (A)
                 (A) (A) (A)
 Beta  Orbitals:
       Occupied  (A) (A) (A) (A) (A) (A) (A) (A) (A) (A) (A) (A)
                 (A) (A) (A) (A) (A) (A) (A) (A) (A) (A) (A) (A)
                 (A) (A) (A) (A) (A) (A) (A) (A) (A) (A) (A) (A)
                 (A) (A)
       Virtual   (A) (A) (A) (A) (A) (A) (A) (A) (A) (A) (A) (A)
                 (A) (A) (A) (A) (A) (A) (A) (A) (A) (A) (A) (A)
                 (A) (A) (A) (A) (A) (A) (A) (A) (A) (A) (A) (A)
                 (A) (A) (A) (A) (A) (A) (A) (A) (A) (A) (A) (A)
                 (A) (A) (A) (A) (A) (A) (A) (A) (A) (A) (A) (A)
                 (A) (A) (A) (A) (A) (A) (A) (A) (A) (A) (A) (A)
                 (A) (A) (A) (A) (A) (A) (A) (A) (A) (A) (A) (A)
                 (A) (A) (A) (A) (A) (A) (A) (A) (A) (A) (A) (A)
                 (A) (A) (A) (A) (A) (A) (A) (A) (A) (A) (A) (A)
                 (A) (A) (A) (A) (A) (A) (A) (A) (A) (A) (A) (A)
                 (A) (A) (A) (A) (A) (A) (A) (A) (A) (A) (A) (A)
                 (A) (A) (A) (A) (A) (A) (A) (A) (A) (A) (A) (A)
                 (A) (A) (A) (A) (A) (A) (A) (A) (A) (A) (A) (A)
                 (A) (A) (A) (A) (A) (A) (A) (A) (A) (A) (A) (A)
                 (A) (A) (A) (A)
 The electronic state is 2-A.
 Alpha  occ. eigenvalues --  -38.44575 -38.44372 -38.44355 -38.43429 -38.43412
 Alpha  occ. eigenvalues --  -38.43150 -38.43127  -2.20820  -2.20622  -2.20361
 Alpha  occ. eigenvalues --   -2.19528  -2.19509  -2.19308  -2.19282  -1.14599
 Alpha  occ. eigenvalues --   -1.14545  -1.14466  -1.14446  -1.14330  -1.14250
 Alpha  occ. eigenvalues --   -1.14064  -1.13984  -1.13978  -1.13244  -1.13198
 Alpha  occ. eigenvalues --   -1.13189  -1.13169  -1.13138  -1.13079  -1.13043
 Alpha  occ. eigenvalues --   -1.12969  -1.12942  -1.12909  -1.12873  -1.12807
 Alpha  occ. eigenvalues --   -0.21500  -0.14170  -0.12927  -0.11979
 Alpha virt. eigenvalues --   -0.05546  -0.04274  -0.03920  -0.03823  -0.03036
 Alpha virt. eigenvalues --   -0.02843  -0.01190  -0.00339  -0.00335   0.00308
 Alpha virt. eigenvalues --    0.00719   0.00965   0.00983   0.01055   0.01082
 Alpha virt. eigenvalues --    0.01110   0.01297   0.01298   0.01395   0.01456
 Alpha virt. eigenvalues --    0.01514   0.01786   0.01864   0.01944   0.02005
 Alpha virt. eigenvalues --    0.02576   0.02793   0.02849   0.02967   0.02970
 Alpha virt. eigenvalues --    0.03016   0.03095   0.03124   0.03162   0.03286
 Alpha virt. eigenvalues --    0.03293   0.03404   0.03406   0.03837   0.03866
 Alpha virt. eigenvalues --    0.04054   0.04985   0.05105   0.05267   0.05407
 Alpha virt. eigenvalues --    0.05453   0.05556   0.05747   0.05867   0.06152
 Alpha virt. eigenvalues --    0.06495   0.06544   0.06857   0.07261   0.07299
 Alpha virt. eigenvalues --    0.07800   0.08601   0.08610   0.09070   0.09092
 Alpha virt. eigenvalues --    0.09527   0.10185   0.12026   0.12592   0.12811
 Alpha virt. eigenvalues --    0.12895   0.13142   0.13191   0.13802   0.13979
 Alpha virt. eigenvalues --    0.14195   0.14552   0.14902   0.15227   0.15622
 Alpha virt. eigenvalues --    0.16456   0.16922   0.17142   0.17726   0.18062
 Alpha virt. eigenvalues --    0.21777   0.24960   0.26804   0.28353   0.29931
 Alpha virt. eigenvalues --    0.30442   0.31203   0.31737   0.31989   0.34403
 Alpha virt. eigenvalues --    0.34926   0.35691   0.38367   0.38375   0.39187
 Alpha virt. eigenvalues --    0.40558   0.40765   0.43297   0.44384   0.44386
 Alpha virt. eigenvalues --    0.44599   0.44734   0.44965   0.46240   0.46908
 Alpha virt. eigenvalues --    0.47436   0.47771   0.48874   0.49105   0.49507
 Alpha virt. eigenvalues --    0.49947   0.49969   0.51011   0.51190   0.52155
 Alpha virt. eigenvalues --    0.52985   0.54384   0.54767   0.55361   0.55879
 Alpha virt. eigenvalues --    0.57768   0.59425   0.63770   0.64282   0.65169
 Alpha virt. eigenvalues --    0.67495   0.69459   0.70737   0.72641   0.72828
 Alpha virt. eigenvalues --    0.76100   0.80088   0.80396   0.83447   0.83930
 Alpha virt. eigenvalues --    0.87396   2.16587   2.22115   2.27114   2.28204
 Alpha virt. eigenvalues --    2.30147   2.32396   2.33830   4.40759   4.40880
 Alpha virt. eigenvalues --    4.41705   4.41855   4.41913   4.43855   4.46388
 Alpha virt. eigenvalues --    4.47943   4.48574   4.52279   4.57489   4.58480
 Alpha virt. eigenvalues --    4.65737   4.67208   4.71779   4.72614   4.77751
 Alpha virt. eigenvalues --    4.78976   4.80616   4.85087   4.93683  96.38580
 Alpha virt. eigenvalues --   96.48193  96.55513  96.56096  96.59948  96.61814
 Alpha virt. eigenvalues --   96.63779
  Beta  occ. eigenvalues --  -38.44500 -38.44348 -38.44286 -38.43409 -38.43392
  Beta  occ. eigenvalues --  -38.43115 -38.43092  -2.20688  -2.20468  -2.20348
  Beta  occ. eigenvalues --   -2.19497  -2.19479  -2.19250  -2.19225  -1.14513
  Beta  occ. eigenvalues --   -1.14434  -1.14371  -1.14337  -1.14248  -1.14142
  Beta  occ. eigenvalues --   -1.14044  -1.13979  -1.13932  -1.13223  -1.13180
  Beta  occ. eigenvalues --   -1.13137  -1.13118  -1.13106  -1.13031  -1.13016
  Beta  occ. eigenvalues --   -1.12917  -1.12877  -1.12852  -1.12831  -1.12762
  Beta  occ. eigenvalues --   -0.20654  -0.13900  -0.11717
  Beta virt. eigenvalues --   -0.08502  -0.05486  -0.03933  -0.03491  -0.03263
  Beta virt. eigenvalues --   -0.02243  -0.02029  -0.01133  -0.00330  -0.00085
  Beta virt. eigenvalues --    0.00339   0.00804   0.00975   0.01050   0.01095
  Beta virt. eigenvalues --    0.01161   0.01209   0.01334   0.01365   0.01509
  Beta virt. eigenvalues --    0.01523   0.01664   0.01834   0.01952   0.02034
  Beta virt. eigenvalues --    0.02049   0.02619   0.02849   0.02937   0.02965
  Beta virt. eigenvalues --    0.03013   0.03026   0.03075   0.03165   0.03263
  Beta virt. eigenvalues --    0.03344   0.03352   0.03473   0.03506   0.04023
  Beta virt. eigenvalues --    0.04048   0.04181   0.05133   0.05221   0.05396
  Beta virt. eigenvalues --    0.05451   0.05621   0.05675   0.05950   0.05999
  Beta virt. eigenvalues --    0.06303   0.06523   0.06611   0.06870   0.07337
  Beta virt. eigenvalues --    0.07432   0.07930   0.08602   0.08853   0.09123
  Beta virt. eigenvalues --    0.09239   0.09896   0.10617   0.12366   0.12787
  Beta virt. eigenvalues --    0.12931   0.12996   0.13244   0.13441   0.14115
  Beta virt. eigenvalues --    0.14144   0.14588   0.14648   0.15315   0.15512
  Beta virt. eigenvalues --    0.15812   0.16555   0.16987   0.17434   0.18045
  Beta virt. eigenvalues --    0.18224   0.22448   0.25081   0.27523   0.28828
  Beta virt. eigenvalues --    0.30305   0.30412   0.31636   0.32075   0.32352
  Beta virt. eigenvalues --    0.34758   0.35135   0.36219   0.38583   0.38752
  Beta virt. eigenvalues --    0.39398   0.40869   0.41088   0.43522   0.44545
  Beta virt. eigenvalues --    0.44623   0.44773   0.44872   0.45102   0.46487
  Beta virt. eigenvalues --    0.47180   0.47573   0.48026   0.49099   0.49271
  Beta virt. eigenvalues --    0.49597   0.50023   0.50129   0.51219   0.51265
  Beta virt. eigenvalues --    0.52639   0.53399   0.54711   0.55003   0.55525
  Beta virt. eigenvalues --    0.56015   0.58036   0.59721   0.63854   0.64467
  Beta virt. eigenvalues --    0.65352   0.67759   0.69615   0.70939   0.72985
  Beta virt. eigenvalues --    0.73214   0.76234   0.80174   0.80640   0.83665
  Beta virt. eigenvalues --    0.84149   0.87572   2.16668   2.22153   2.27305
  Beta virt. eigenvalues --    2.28243   2.30341   2.32483   2.34171   4.40845
  Beta virt. eigenvalues --    4.40985   4.41732   4.41910   4.42020   4.43941
  Beta virt. eigenvalues --    4.46443   4.47986   4.48639   4.52399   4.57561
  Beta virt. eigenvalues --    4.58525   4.65794   4.67286   4.71848   4.72647
  Beta virt. eigenvalues --    4.77825   4.79079   4.80696   4.85145   4.93753
  Beta virt. eigenvalues --   96.38617  96.48207  96.55561  96.56119  96.60034
  Beta virt. eigenvalues --   96.61852  96.63887
          Condensed to atoms (all electrons):
               1          2          3          4          5          6
     1  Na  12.946389   0.150193  -0.132525   0.152602   0.144736  -1.138121
     2  Na   0.150193  13.852958  -0.504961   1.189941  -1.768370  -0.148527
     3  Na  -0.132525  -0.504961  11.984408  -0.500815  -0.060517  -0.343472
     4  Na   0.152602   1.189941  -0.500815  13.869958  -1.777668  -1.049105
     5  Na   0.144736  -1.768370  -0.060517  -1.777668  14.092555  -0.188673
     6  Na  -1.138121  -0.148527  -0.343472  -1.049105  -0.188673  14.310656
     7  Na  -1.120499  -1.033181  -0.349957  -0.141533  -0.195489  -0.359290
               7
     1  Na  -1.120499
     2  Na  -1.033181
     3  Na  -0.349957
     4  Na  -0.141533
     5  Na  -0.195489
     6  Na  -0.359290
     7  Na  14.293539
          Atomic-Atomic Spin Densities.
               1          2          3          4          5          6
     1  Na   0.187594  -0.029136   0.078292  -0.023650  -0.261696   0.245429
     2  Na  -0.029136  -0.032583  -0.084952  -0.067659   0.237427   0.099845
     3  Na   0.078292  -0.084952   0.410593  -0.086362  -0.453710   0.066898
     4  Na  -0.023650  -0.067659  -0.086362  -0.034160   0.234569   0.000786
     5  Na  -0.261696   0.237427  -0.453710   0.234569   0.314815   0.135632
     6  Na   0.245429   0.099845   0.066898   0.000786   0.135632  -0.180206
     7  Na   0.262434   0.000630   0.058300   0.099574   0.138274  -0.388378
               7
     1  Na   0.262434
     2  Na   0.000630
     3  Na   0.058300
     4  Na   0.099574
     5  Na   0.138274
     6  Na  -0.388378
     7  Na  -0.191152
 Mulliken charges and spin densities:
               1          2
     1  Na  -0.002774   0.459267
     2  Na  -0.738053   0.123572
     3  Na   0.907839  -0.010940
     4  Na  -0.743379   0.123098
     5  Na   0.753426   0.345313
     6  Na  -0.083468  -0.019994
     7  Na  -0.093590  -0.020317
 Sum of Mulliken charges =  -0.00000   1.00000
 Mulliken charges and spin densities with hydrogens summed into heavy atoms:
               1          2
     1  Na  -0.002774   0.459267
     2  Na  -0.738053   0.123572
     3  Na   0.907839  -0.010940
     4  Na  -0.743379   0.123098
     5  Na   0.753426   0.345313
     6  Na  -0.083468  -0.019994
     7  Na  -0.093590  -0.020317
 Electronic spatial extent (au):  <R**2>=           1592.1867
 Charge=              0.0000 electrons
 Dipole moment (field-independent basis, Debye):
    X=             -0.3461    Y=             -0.0029    Z=             -0.2330  Tot=              0.4173
 Quadrupole moment (field-independent basis, Debye-Ang):
   XX=            -57.5650   YY=            -74.7397   ZZ=            -64.8303
   XY=             -0.0077   XZ=             -0.0623   YZ=             -0.0184
 Traceless Quadrupole moment (field-independent basis, Debye-Ang):
   XX=              8.1466   YY=             -9.0280   ZZ=              0.8814
   XY=             -0.0077   XZ=             -0.0623   YZ=             -0.0184
 Octapole moment (field-independent basis, Debye-Ang**2):
  XXX=            -21.1847  YYY=             -0.0158  ZZZ=             -1.3244  XYY=              3.9236
  XXY=             -0.0324  XXZ=             -7.2305  XZZ=              2.7789  YZZ=             -0.0290
  YYZ=              0.8527  XYZ=             -0.0110
 Hexadecapole moment (field-independent basis, Debye-Ang**3):
 XXXX=          -1132.6143 YYYY=           -940.9411 ZZZZ=           -707.2695 XXXY=              0.1280
 XXXZ=             21.4858 YYYX=             -0.7425 YYYZ=             -0.0893 ZZZX=             20.6992
 ZZZY=             -0.1256 XXYY=           -346.0355 XXZZ=           -324.6755 YYZZ=           -276.9759
 XXYZ=             -0.1453 YYXZ=            -38.3661 ZZXY=              0.4451
 N-N= 4.103597380845D+02 E-N=-3.550277820408D+03  KE= 1.133487923718D+03
                          Isotropic Fermi Contact Couplings
        Atom                 a.u.       MegaHertz       Gauss      10(-4) cm-1
     1  Na(23)             0.33713     398.83762     142.31518     133.03791
     2  Na(23)             0.07892      93.36876      33.31630      31.14447
     3  Na(23)             0.00609       7.20851       2.57218       2.40450
     4  Na(23)             0.07543      89.23491      31.84124      29.76556
     5  Na(23)             0.27415     324.32138     115.72593     108.18197
     6  Na(23)             0.02507      29.65265      10.58080       9.89106
     7  Na(23)             0.02284      27.02333       9.64260       9.01401
 --------------------------------------------------------
       Center         ----  Spin Dipole Couplings  ----
                      3XX-RR        3YY-RR        3ZZ-RR
 --------------------------------------------------------
     1   Atom        0.017798     -0.003504     -0.014293
     2   Atom       -0.021498     -0.009028      0.030526
     3   Atom       -0.005502     -0.014612      0.020113
     4   Atom       -0.022060     -0.009554      0.031614
     5   Atom        0.022325     -0.005834     -0.016491
     6   Atom       -0.020634     -0.014673      0.035308
     7   Atom       -0.020988     -0.015028      0.036017
 --------------------------------------------------------
                        XY            XZ            YZ
 --------------------------------------------------------
     1   Atom        0.000165     -0.010332     -0.000129
     2   Atom        0.014508      0.026925      0.034396
     3   Atom        0.000039     -0.013285     -0.000043
     4   Atom       -0.014210      0.026687     -0.034366
     5   Atom        0.000225     -0.022603     -0.000204
     6   Atom        0.006041      0.014226      0.028952
     7   Atom       -0.005839      0.013763     -0.028754
 --------------------------------------------------------


 ---------------------------------------------------------------------------------
              Anisotropic Spin Dipole Couplings in Principal Axis System
 ---------------------------------------------------------------------------------

       Atom             a.u.   MegaHertz   Gauss  10(-4) cm-1        Axes

              Baa    -0.0173    -2.448    -0.873    -0.816  0.2821  0.0056  0.9594
     1 Na(23) Bbb    -0.0035    -0.495    -0.177    -0.165 -0.0092  1.0000 -0.0031
              Bcc     0.0208     2.943     1.050     0.982  0.9593  0.0080 -0.2822
 
              Baa    -0.0329    -4.649    -1.659    -1.551  0.9174  0.0154 -0.3977
     2 Na(23) Bbb    -0.0287    -4.058    -1.448    -1.354 -0.1983  0.8841 -0.4231
              Bcc     0.0617     8.708     3.107     2.905  0.3451  0.4670  0.8142
 
              Baa    -0.0146    -2.063    -0.736    -0.688 -0.0055  1.0000 -0.0009
     3 Na(23) Bbb    -0.0111    -1.574    -0.562    -0.525  0.9203  0.0054  0.3911
              Bcc     0.0258     3.638     1.298     1.213 -0.3911 -0.0014  0.9203
 
              Baa    -0.0331    -4.670    -1.666    -1.558  0.9254  0.0055 -0.3789
     4 Na(23) Bbb    -0.0289    -4.080    -1.456    -1.361  0.1703  0.8872  0.4288
              Bcc     0.0620     8.750     3.122     2.919  0.3385 -0.4613  0.8201
 
              Baa    -0.0269    -3.795    -1.354    -1.266  0.4174  0.0043  0.9087
     5 Na(23) Bbb    -0.0058    -0.824    -0.294    -0.275 -0.0086  1.0000 -0.0008
              Bcc     0.0327     4.619     1.648     1.541  0.9087  0.0075 -0.4175
 
              Baa    -0.0280    -3.950    -1.409    -1.318  0.1011  0.8959 -0.4326
     6 Na(23) Bbb    -0.0239    -3.373    -1.203    -1.125  0.9728 -0.1802 -0.1457
              Bcc     0.0519     7.323     2.613     2.443  0.2085  0.4061  0.8897
 
              Baa    -0.0280    -3.951    -1.410    -1.318 -0.0774  0.9031  0.4224
     7 Na(23) Bbb    -0.0240    -3.393    -1.211    -1.132  0.9766  0.1539 -0.1502
              Bcc     0.0520     7.343     2.620     2.450  0.2006 -0.4009  0.8939
 

 ---------------------------------------------------------------------------------

 No NMR shielding tensors so no spin-rotation constants.
 Leave Link  601 at Mon Nov 13 12:19:15 2023, MaxMem=  1879048192 cpu:               2.6 elap:               0.2
 (Enter /home/sekinelabo/g16/l701.exe)
 ... and contract with generalized density number  0.
 Compute integral first derivatives.
 Leave Link  701 at Mon Nov 13 12:19:15 2023, MaxMem=  1879048192 cpu:               1.7 elap:               0.1
 (Enter /home/sekinelabo/g16/l702.exe)
 L702 exits ... SP integral derivatives will be done elsewhere.
 Leave Link  702 at Mon Nov 13 12:19:15 2023, MaxMem=  1879048192 cpu:               0.5 elap:               0.0
 (Enter /home/sekinelabo/g16/l703.exe)
 Integral derivatives from FoFJK, PRISM(SPDF).
 Compute integral first derivatives, UseDBF=F ICtDFT=           0.
 Calling FoFJK, ICntrl=      2127 FMM=F ISym2X=0 I1Cent= 0 IOpClX= 1 NMat=1 NMatS=1 NMatT=0.
 FoFJK:  IHMeth= 1 ICntrl=    2127 DoSepK=F KAlg= 0 I1Cent=           0 FoldK=F
 IRaf=         0 NMat=       1 IRICut=       1 DoRegI=T DoRafI=F ISym2E= 0 IDoP0=0 IntGTp=1.
 FoFCou: FMM=F IPFlag=           0 FMFlag=      100000 FMFlg1=         800
         NFxFlg=           0 DoJE=F BraDBF=F KetDBF=F FulRan=T
         wScrn=  0.000000 ICntrl=      2127 IOpCl=  1 I1Cent=           0 NGrid=           0
         NMat0=    1 NMatS0=      1 NMatT0=    0 NMatD0=    1 NMtDS0=    0 NMtDT0=    0
 Symmetry not used in FoFCou.
 Leave Link  703 at Mon Nov 13 12:19:18 2023, MaxMem=  1879048192 cpu:              39.7 elap:               2.5
 (Enter /home/sekinelabo/g16/l716.exe)
 Dipole        =-1.36172187D-01-1.15181383D-03-9.16735190D-02
 ***** Axes restored to original set *****
 -------------------------------------------------------------------
 Center     Atomic                   Forces (Hartrees/Bohr)
 Number     Number              X              Y              Z
 -------------------------------------------------------------------
      1       11           0.007228492    0.000124608   -0.016283419
      2       11           0.006941577    0.019715286    0.005875765
      3       11           0.017566898   -0.000008249   -0.004097869
      4       11           0.007056446   -0.019789821    0.005710738
      5       11          -0.013428840   -0.000064973    0.021851090
      6       11          -0.012736483   -0.019199765   -0.006637323
      7       11          -0.012628090    0.019222914   -0.006418983
 -------------------------------------------------------------------
 Cartesian Forces:  Max     0.021851090 RMS     0.012707617
 Z-matrix is all fixed cartesians, so copy forces.
 Force constants in Cartesian coordinates: 
                1             2             3             4             5 
      1  0.205523D+00
      2  0.232882D-04  0.190036D+00
      3 -0.902940D-02 -0.432984D-03  0.275286D+00
      4 -0.220042D-01 -0.336912D-02  0.746530D-02  0.162434D+00
      5 -0.622919D-02 -0.329872D-01  0.792517D-02  0.241935D-01  0.195210D+00
      6 -0.137767D-01 -0.325245D-01 -0.489743D-01  0.112034D-01  0.358318D-01
      7 -0.454751D-01 -0.921272D-04  0.164852D-01 -0.363071D-01 -0.106410D-01
      8  0.160327D-03 -0.317932D-01  0.107959D-03  0.277690D-01 -0.360743D-01
      9 -0.379754D-01  0.656103D-04 -0.503392D-01  0.206213D-01 -0.902861D-02
     10 -0.219737D-01  0.329102D-02  0.749269D-02 -0.189318D-01 -0.130037D-01
     11  0.641129D-02 -0.332506D-01 -0.780611D-02  0.130593D-01 -0.522321D-01
     12 -0.137144D-01  0.327380D-01 -0.487841D-01 -0.726658D-02 -0.198112D-01
     13 -0.948021D-02 -0.183926D-04  0.460911D-02 -0.543753D-01 -0.218310D-02
     14 -0.913769D-04  0.563182D-03  0.161006D-03 -0.268885D-01 -0.491689D-01
     15  0.152711D-01  0.144157D-03 -0.325626D-01 -0.112612D-01 -0.159974D-01
     16 -0.533807D-01 -0.183273D-01 -0.135878D-01  0.417385D-02 -0.166881D-01
     17 -0.763482D-02 -0.464520D-01 -0.952611D-02 -0.141068D-01  0.107679D-02
     18  0.295992D-01  0.334921D-01 -0.472306D-01 -0.430074D-02 -0.951285D-02
     19 -0.532087D-01  0.184926D-01 -0.134351D-01 -0.349891D-01  0.245517D-01
     20  0.736048D-02 -0.461167D-01  0.957107D-02 -0.206573D-01 -0.258239D-01
     21  0.296255D-01 -0.334824D-01 -0.473950D-01 -0.164614D-01  0.105930D-01
                6             7             8             9            10 
      6  0.158764D+00
      7 -0.577119D-02  0.130395D+00
      8 -0.170575D-01  0.316114D-04  0.761554D-01
      9 -0.346509D-01 -0.130094D-01  0.130929D-05  0.871418D-01
     10 -0.733439D-02 -0.361049D-01 -0.279220D-01  0.202105D-01  0.162294D+00
     11  0.194366D-01  0.107754D-01 -0.361843D-01  0.899182D-02 -0.243842D-01
     12 -0.184369D-01 -0.573123D-02  0.169810D-01 -0.341875D-01  0.110475D-01
     13  0.302238D-01 -0.520279D-02 -0.625711D-04  0.119336D-01 -0.543380D-01
     14  0.230739D-01 -0.341292D-04  0.124829D-01  0.388593D-05  0.270556D-01
     15 -0.405833D-01  0.655498D-02  0.426720D-05  0.999201D-02 -0.109283D-01
     16 -0.512733D-02 -0.364920D-02 -0.599633D-02 -0.911654D-03 -0.351629D-01
     17 -0.101528D-01 -0.333406D-02  0.773741D-02 -0.190050D-02  0.208438D-01
     18  0.113448D-01  0.713677D-03 -0.299551D-02  0.109972D-01 -0.163174D-01
     19 -0.941758D-02 -0.365614D-02  0.601996D-02 -0.868873D-03  0.421752D-02
     20 -0.186074D-01  0.329438D-02  0.767609D-02  0.186648D-02  0.141195D-01
     21 -0.274638D-01  0.758057D-03  0.295855D-02  0.110466D-01 -0.417057D-02
               11            12            13            14            15 
     11  0.195969D+00
     12 -0.354746D-01  0.157938D+00
     13  0.193226D-02  0.303092D-01  0.184920D+00
     14 -0.491313D-01 -0.231602D-01  0.102936D-03  0.168031D+00
     15  0.159737D-01 -0.405959D-01 -0.312728D-01 -0.199278D-03  0.223240D+00
     16 -0.245346D-01 -0.967530D-02 -0.307913D-01  0.826315D-02  0.158197D-01
     17 -0.260213D-01  0.186796D-01 -0.107680D-01 -0.413344D-01  0.292355D-04
     18 -0.105288D-01 -0.274653D-01 -0.230082D-01 -0.362458D-01 -0.600533D-01
     19  0.167406D-01 -0.496918D-02 -0.307323D-01 -0.840762D-02  0.158166D-01
     20  0.850233D-03  0.100475D-01  0.109969D-01 -0.414431D-01  0.452893D-04
     21  0.940750D-02  0.115317D-01 -0.227946D-01  0.363665D-01 -0.594371D-01
               16            17            18            19            20 
     16  0.134522D+00
     17  0.361567D-01  0.147839D+00
     18  0.176895D-01  0.144874D-01  0.122304D+00
     19 -0.157115D-01 -0.211569D-01 -0.437597D-02  0.134080D+00
     20  0.211264D-01 -0.428454D-01  0.113035D-01 -0.362403D-01  0.147703D+00
     21 -0.420710D-02 -0.116168D-01 -0.989647D-02  0.172501D-01 -0.142264D-01
               21 
     21  0.121614D+00
 Leave Link  716 at Mon Nov 13 12:19:18 2023, MaxMem=  1879048192 cpu:               0.8 elap:               0.1
 (Enter /home/sekinelabo/g16/l103.exe)

 GradGradGradGradGradGradGradGradGradGradGradGradGradGradGradGradGradGrad
 Berny optimization.
 Search for a local minimum.
 Step number   1 out of a maximum of    2
 All quantities printed in internal units (Hartrees-Bohrs-Radians)
 Second derivative matrix not updated -- first step.
 ITU=  0
     Eigenvalues ---    0.11049   0.11532   0.14660   0.17556   0.18534
     Eigenvalues ---    0.19474   0.20986   0.23044   0.24517   0.25306
     Eigenvalues ---    0.26173   0.28735   0.29401   0.30869   0.33160
 Quadratic step=3.754D-01 exceeds max=3.000D-01 adjusted using Lamda=-3.583D-02.
 Angle between NR and scaled steps=   2.63 degrees.
 Angle between quadratic step and forces=  12.33 degrees.
 Linear search not attempted -- first point.
 B after Tr=    -0.000000    0.000000    0.000000
         Rot=    1.000000    0.000000    0.000000    0.000000 Ang=   0.00 deg.
 Variable       Old X    -DE/DX   Delta X   Delta X   Delta X     New X
                                 (Linear)    (Quad)   (Total)
    X1        3.93112   0.00723   0.00000   0.02175   0.02175   3.95287
    Y1        2.99575   0.00012   0.00000   0.00044   0.00044   2.99619
    Z1        0.00000  -0.01628   0.00000  -0.07032  -0.07032  -0.07032
    X2        5.09826   0.00694   0.00000   0.03818   0.03818   5.13645
    Y2        5.90673   0.01972   0.00000   0.08857   0.08857   5.99530
    Z2        4.98821   0.00588   0.00000   0.03334   0.03334   5.02155
    X3        8.96248   0.01757   0.00000   0.13471   0.13471   9.09719
    Y3        2.98888  -0.00001   0.00000   0.00007   0.00007   2.98896
    Z3        2.30812  -0.00410   0.00000  -0.02131  -0.02131   2.28682
    X4        5.09398   0.00706   0.00000   0.03841   0.03841   5.13239
    Y4        0.03360  -0.01979   0.00000  -0.08901  -0.08901  -0.05541
    Z4        4.95878   0.00571   0.00000   0.03260   0.03260   4.99138
    X5        0.83928  -0.01343   0.00000  -0.06908  -0.06908   0.77020
    Y5        2.96642  -0.00006   0.00000  -0.00041  -0.00041   2.96601
    Z5        6.24050   0.02185   0.00000   0.08433   0.08433   6.32482
    X6        0.00103  -0.01274   0.00000  -0.08210  -0.08210  -0.08107
    Y6        0.00000  -0.01920   0.00000  -0.09552  -0.09552  -0.09552
    Z6        1.94780  -0.00664   0.00000  -0.02975  -0.02975   1.91805
    X7        0.00000  -0.01263   0.00000  -0.08187  -0.08187  -0.08187
    Y7        5.98015   0.01922   0.00000   0.09585   0.09585   6.07600
    Z7        1.97224  -0.00642   0.00000  -0.02889  -0.02889   1.94335
         Item               Value     Threshold  Converged?
 Maximum Force            0.021851     0.000450     NO 
 RMS     Force            0.012708     0.000300     NO 
 Maximum Displacement     0.134705     0.001800     NO 
 RMS     Displacement     0.065557     0.001200     NO 
 Predicted change in Energy=-1.016260D-02
 GradGradGradGradGradGradGradGradGradGradGradGradGradGradGradGradGradGrad

 Leave Link  103 at Mon Nov 13 12:19:18 2023, MaxMem=  1879048192 cpu:               1.5 elap:               0.1
 (Enter /home/sekinelabo/g16/l9999.exe)
 1\1\GINC-SEKINELABO-XA7R-R37\Force\UB3LYP\6-311+G(d)\Na7(2)\SEKINELABO
 \13-Nov-2023\0\\#P B3LYP/6-311+g(d) force\\Gaussian input prepared by 
 ASE\\0,2\Na,2.0802608372,1.5852811334,0.\Na,2.6978841268,3.125706063,2
 .639648573\Na,4.7427406092,1.5816491805,1.2214068743\Na,2.6956186503,0
 .0177810002,2.624071896\Na,0.4441287244,1.5697598337,3.3023280483\Na,0
 .0005450325,0.,1.0307317726\Na,0.,3.1645568267,1.0436631068\\Version=E
 S64L-G16RevB.01\State=2-A\HF=-1136.0839092\S2=0.761149\S2-1=0.\S2A=0.7
 50076\RMSD=6.447e-09\RMSF=1.271e-02\Dipole=0.1361722,0.0011518,-0.0916
 735\Quadrupole=6.0568304,-6.7121259,0.6552955,-0.0057153,0.0463184,0.0
 137156\PG=C01 [X(Na7)]\\@


 FROM THE ASHES OF OUR DESPAIR GROW THE FLOWERS OF TOMORROW.
 Job cpu time:       0 days  0 hours  5 minutes  6.1 seconds.
 Elapsed time:       0 days  0 hours  0 minutes 24.6 seconds.
 File lengths (MBytes):  RWF=     32 Int=      0 D2E=      0 Chk=      5 Scr=      1
 Normal termination of Gaussian 16 at Mon Nov 13 12:19:18 2023.
