 Entering Gaussian System, Link 0=g16
 Initial command:
 /home/sekinelabo/g16/l1.exe "/home/sekinelabo/g16temp/Gau-3974599.inp" -scrdir="/home/sekinelabo/g16temp/"
 Entering Link 1 = /home/sekinelabo/g16/l1.exe PID=   3974601.
  
 Copyright (c) 1988-2017, Gaussian, Inc.  All Rights Reserved.
  
 This is part of the Gaussian(R) 16 program.  It is based on
 the Gaussian(R) 09 system (copyright 2009, Gaussian, Inc.),
 the Gaussian(R) 03 system (copyright 2003, Gaussian, Inc.),
 the Gaussian(R) 98 system (copyright 1998, Gaussian, Inc.),
 the Gaussian(R) 94 system (copyright 1995, Gaussian, Inc.),
 the Gaussian 92(TM) system (copyright 1992, Gaussian, Inc.),
 the Gaussian 90(TM) system (copyright 1990, Gaussian, Inc.),
 the Gaussian 88(TM) system (copyright 1988, Gaussian, Inc.),
 the Gaussian 86(TM) system (copyright 1986, Carnegie Mellon
 University), and the Gaussian 82(TM) system (copyright 1983,
 Carnegie Mellon University). Gaussian is a federally registered
 trademark of Gaussian, Inc.
  
 This software contains proprietary and confidential information,
 including trade secrets, belonging to Gaussian, Inc.
  
 This software is provided under written license and may be
 used, copied, transmitted, or stored only in accord with that
 written license.
  
 The following legend is applicable only to US Government
 contracts under FAR:
  
                    RESTRICTED RIGHTS LEGEND
  
 Use, reproduction and disclosure by the US Government is
 subject to restrictions as set forth in subparagraphs (a)
 and (c) of the Commercial Computer Software - Restricted
 Rights clause in FAR 52.227-19.
  
 Gaussian, Inc.
 340 Quinnipiac St., Bldg. 40, Wallingford CT 06492
  
  
 ---------------------------------------------------------------
 Warning -- This program may not be used in any manner that
 competes with the business of Gaussian, Inc. or will provide
 assistance to any competitor of Gaussian, Inc.  The licensee
 of this program is prohibited from giving any competitor of
 Gaussian, Inc. access to this program.  By using this program,
 the user acknowledges that Gaussian, Inc. is engaged in the
 business of creating and licensing software in the field of
 computational chemistry and represents and warrants to the
 licensee that it is not a competitor of Gaussian, Inc. and that
 it will not use this program in any manner prohibited above.
 ---------------------------------------------------------------
  

 Cite this work as:
 Gaussian 16, Revision B.01,
 M. J. Frisch, G. W. Trucks, H. B. Schlegel, G. E. Scuseria, 
 M. A. Robb, J. R. Cheeseman, G. Scalmani, V. Barone, 
 G. A. Petersson, H. Nakatsuji, X. Li, M. Caricato, A. V. Marenich, 
 J. Bloino, B. G. Janesko, R. Gomperts, B. Mennucci, H. P. Hratchian, 
 J. V. Ortiz, A. F. Izmaylov, J. L. Sonnenberg, D. Williams-Young, 
 F. Ding, F. Lipparini, F. Egidi, J. Goings, B. Peng, A. Petrone, 
 T. Henderson, D. Ranasinghe, V. G. Zakrzewski, J. Gao, N. Rega, 
 G. Zheng, W. Liang, M. Hada, M. Ehara, K. Toyota, R. Fukuda, 
 J. Hasegawa, M. Ishida, T. Nakajima, Y. Honda, O. Kitao, H. Nakai, 
 T. Vreven, K. Throssell, J. A. Montgomery, Jr., J. E. Peralta, 
 F. Ogliaro, M. J. Bearpark, J. J. Heyd, E. N. Brothers, K. N. Kudin, 
 V. N. Staroverov, T. A. Keith, R. Kobayashi, J. Normand, 
 K. Raghavachari, A. P. Rendell, J. C. Burant, S. S. Iyengar, 
 J. Tomasi, M. Cossi, J. M. Millam, M. Klene, C. Adamo, R. Cammi, 
 J. W. Ochterski, R. L. Martin, K. Morokuma, O. Farkas, 
 J. B. Foresman, and D. J. Fox, Gaussian, Inc., Wallingford CT, 2016.
 
 ******************************************
 Gaussian 16:  ES64L-G16RevB.01 20-Dec-2017
                13-Nov-2023 
 ******************************************
 %mem=14GB
 %chk=checkpoint.chk
 %nprocshared=16
 Will use up to   16 processors via shared memory.
 -------------------------
 #P B3LYP/6-311+g(d) force
 -------------------------
 1/10=7,30=1,38=1/1,3;
 2/12=2,17=6,18=5,40=1/2;
 3/5=4,6=6,7=11,11=2,25=1,30=1,71=1,74=-5/1,2,3;
 4//1;
 5/5=2,38=5/2;
 6/7=2,8=2,9=2,10=2,28=1/1;
 7/29=1/1,2,3,16;
 1/10=7,30=1/3;
 99//99;
 Leave Link    1 at Mon Nov 13 12:08:45 2023, MaxMem=  1879048192 cpu:               0.3 elap:               0.0
 (Enter /home/sekinelabo/g16/l101.exe)
 ------------------------------
 Gaussian input prepared by ASE
 ------------------------------
 Symbolic Z-matrix:
 Charge =  0 Multiplicity = 2
 Na                    4.16746   0.56012   2.13566 
 Na                    6.98523   1.33151   2.82315 
 Na                    6.01082   1.57879   0. 
 Na                    4.98153   3.44675   2.10875 
 Na                    2.23391   2.67466   3.03128 
 Na                    1.21869   0.        2.1265 
 Na                    0.        2.51438   1.03449 
 
 ITRead=  0  0  0  0  0  0  0
 MicOpt= -1 -1 -1 -1 -1 -1 -1
 NAtoms=      7 NQM=        7 NQMF=       0 NMMI=      0 NMMIF=      0
                NMic=       0 NMicF=      0.
                    Isotopes and Nuclear Properties:
 (Nuclear quadrupole moments (NQMom) in fm**2, nuclear magnetic moments (NMagM)
  in nuclear magnetons)

  Atom         1           2           3           4           5           6           7
 IAtWgt=          23          23          23          23          23          23          23
 AtmWgt=  22.9897697  22.9897697  22.9897697  22.9897697  22.9897697  22.9897697  22.9897697
 NucSpn=           3           3           3           3           3           3           3
 AtZEff=  -0.0000000  -0.0000000  -0.0000000  -0.0000000  -0.0000000  -0.0000000  -0.0000000
 NQMom=   10.4000000  10.4000000  10.4000000  10.4000000  10.4000000  10.4000000  10.4000000
 NMagM=    2.2175200   2.2175200   2.2175200   2.2175200   2.2175200   2.2175200   2.2175200
 AtZNuc=  11.0000000  11.0000000  11.0000000  11.0000000  11.0000000  11.0000000  11.0000000
 Leave Link  101 at Mon Nov 13 12:08:45 2023, MaxMem=  1879048192 cpu:               2.6 elap:               0.2
 (Enter /home/sekinelabo/g16/l103.exe)

 GradGradGradGradGradGradGradGradGradGradGradGradGradGradGradGradGradGrad
 Berny optimization.
 Initialization pass.
 Trust Radius=3.00D-01 FncErr=1.00D-07 GrdErr=1.00D-07 EigMax=2.50D+02 EigMin=1.00D-04
 Number of steps in this run=      2 maximum allowed number of steps=      2.
 GradGradGradGradGradGradGradGradGradGradGradGradGradGradGradGradGradGrad

 Leave Link  103 at Mon Nov 13 12:08:45 2023, MaxMem=  1879048192 cpu:               0.2 elap:               0.0
 (Enter /home/sekinelabo/g16/l202.exe)
                          Input orientation:                          
 ---------------------------------------------------------------------
 Center     Atomic      Atomic             Coordinates (Angstroms)
 Number     Number       Type             X           Y           Z
 ---------------------------------------------------------------------
      1         11           0        4.167460    0.560116    2.135663
      2         11           0        6.985233    1.331507    2.823154
      3         11           0        6.010816    1.578793    0.000000
      4         11           0        4.981531    3.446754    2.108745
      5         11           0        2.233914    2.674656    3.031279
      6         11           0        1.218689    0.000000    2.126500
      7         11           0        0.000000    2.514379    1.034486
 ---------------------------------------------------------------------
                    Distance matrix (angstroms):
                    1          2          3          4          5
     1  Na   0.000000
     2  Na   3.001255   0.000000
     3  Na   2.999454   2.996805   0.000000
     4  Na   2.999353   2.999911   2.999252   0.000000
     5  Na   3.002001   4.941901   4.965335   2.999434   0.000000
     6  Na   3.001511   5.959133   5.475315   5.102883   3.000516
     7  Na   4.732807   7.306983   6.170526   5.180638   3.000541
                    6          7
     6  Na   0.000000
     7  Na   2.999967   0.000000
 Stoichiometry    Na7(2)
 Framework group  C1[X(Na7)]
 Deg. of freedom    15
 Full point group                 C1      NOp   1
 Largest Abelian subgroup         C1      NOp   1
 Largest concise Abelian subgroup C1      NOp   1
                         Standard orientation:                         
 ---------------------------------------------------------------------
 Center     Atomic      Atomic             Coordinates (Angstroms)
 Number     Number       Type             X           Y           Z
 ---------------------------------------------------------------------
      1         11           0        0.510654    1.169342   -0.241402
      2         11           0        3.328426    0.397951   -0.928893
      3         11           0        2.354010    0.150665    1.894261
      4         11           0        1.324725   -1.717296   -0.214484
      5         11           0       -1.422892   -0.945198   -1.137018
      6         11           0       -2.438117    1.729458   -0.232239
      7         11           0       -3.656806   -0.784922    0.859775
 ---------------------------------------------------------------------
 Rotational constants (GHZ):           1.4056059           0.4715511           0.4488592
 Leave Link  202 at Mon Nov 13 12:08:45 2023, MaxMem=  1879048192 cpu:               0.0 elap:               0.0
 (Enter /home/sekinelabo/g16/l301.exe)
 Standard basis: 6-311+G(d) (5D, 7F)
 Ernie: Thresh=  0.10000D-02 Tol=  0.10000D-05 Strict=F.
 There are   217 symmetry adapted cartesian basis functions of A   symmetry.
 There are   210 symmetry adapted basis functions of A   symmetry.
   210 basis functions,   350 primitive gaussians,   217 cartesian basis functions
    39 alpha electrons       38 beta electrons
       nuclear repulsion energy       361.9895437559 Hartrees.
 IExCor=  402 DFT=T Ex+Corr=B3LYP ExCW=0 ScaHFX=  0.200000
 ScaDFX=  0.800000  0.720000  1.000000  0.810000 ScalE2=  1.000000  1.000000
 IRadAn=      5 IRanWt=     -1 IRanGd=            0 ICorTp=0 IEmpDi=  4
 NAtoms=    7 NActive=    7 NUniq=    7 SFac= 1.00D+00 NAtFMM=   60 NAOKFM=F Big=F
 Integral buffers will be    131072 words long.
 Raffenetti 2 integral format.
 Two-electron integral symmetry is turned on.
 Leave Link  301 at Mon Nov 13 12:08:45 2023, MaxMem=  1879048192 cpu:               0.5 elap:               0.0
 (Enter /home/sekinelabo/g16/l302.exe)
 NPDir=0 NMtPBC=     1 NCelOv=     1 NCel=       1 NClECP=     1 NCelD=      1
         NCelK=      1 NCelE2=     1 NClLst=     1 CellRange=     0.0.
 One-electron integrals computed using PRISM.
 One-electron integral symmetry used in STVInt
 NBasis=   210 RedAO= T EigKep=  1.57D-06  NBF=   210
 NBsUse=   210 1.00D-06 EigRej= -1.00D+00 NBFU=   210
 Precomputing XC quadrature grid using
 IXCGrd= 4 IRadAn=           5 IRanWt=          -1 IRanGd=           0 AccXCQ= 0.00D+00.
 Generated NRdTot=       0 NPtTot=           0 NUsed=           0 NTot=          32
 NSgBfM=   210   210   210   210   210 MxSgAt=     7 MxSgA2=     7.
 Leave Link  302 at Mon Nov 13 12:08:46 2023, MaxMem=  1879048192 cpu:               2.4 elap:               0.2
 (Enter /home/sekinelabo/g16/l303.exe)
 DipDrv:  MaxL=1.
 Leave Link  303 at Mon Nov 13 12:08:46 2023, MaxMem=  1879048192 cpu:               0.6 elap:               0.0
 (Enter /home/sekinelabo/g16/l401.exe)
 ExpMin= 7.60D-03 ExpMax= 3.62D+04 ExpMxC= 1.21D+03 IAcc=3 IRadAn=         5 AccDes= 0.00D+00
 Harris functional with IExCor=  402 and IRadAn=       5 diagonalized for initial guess.
 HarFok:  IExCor=  402 AccDes= 0.00D+00 IRadAn=         5 IDoV= 1 UseB2=F ITyADJ=14
 ICtDFT=  3500011 ScaDFX=  1.000000  1.000000  1.000000  1.000000
 FoFCou: FMM=F IPFlag=           0 FMFlag=      100000 FMFlg1=           0
         NFxFlg=           0 DoJE=T BraDBF=F KetDBF=T FulRan=T
         wScrn=  0.000000 ICntrl=       500 IOpCl=  0 I1Cent=   200000004 NGrid=           0
         NMat0=    1 NMatS0=      1 NMatT0=    0 NMatD0=    1 NMtDS0=    0 NMtDT0=    0
 Petite list used in FoFCou.
 Harris En= -1135.85634305892    
 JPrj=0 DoOrth=F DoCkMO=F.
 Initial guess <Sx>= 0.0000 <Sy>= 0.0000 <Sz>= 0.5000 <S**2>= 0.7500 S= 0.5000
 Leave Link  401 at Mon Nov 13 12:08:46 2023, MaxMem=  1879048192 cpu:               4.6 elap:               0.3
 (Enter /home/sekinelabo/g16/l502.exe)
 Keep R1 and R2 ints in memory in canonical form, NReq=507620374.
 FoFCou: FMM=F IPFlag=           0 FMFlag=           0 FMFlg1=           0
         NFxFlg=           0 DoJE=F BraDBF=F KetDBF=F FulRan=T
         wScrn=  0.000000 ICntrl=       600 IOpCl=  0 I1Cent=           0 NGrid=           0
         NMat0=    1 NMatS0=  22155 NMatT0=    0 NMatD0=    1 NMtDS0=    0 NMtDT0=    0
 Symmetry not used in FoFCou.
 Two-electron integral symmetry not used.
 UHF open shell SCF:
 Using DIIS extrapolation, IDIIS=  1040.
 NGot=  1879048192 LenX=  1388082362 LenY=  1388034832
 Requested convergence on RMS density matrix=1.00D-08 within 128 cycles.
 Requested convergence on MAX density matrix=1.00D-06.
 Requested convergence on             energy=1.00D-06.
 No special actions if energy rises.

 Cycle   1  Pass 1  IDiag  1:
 E= -1136.04108260021    
 DIIS: error= 1.05D-02 at cycle   1 NSaved=   1.
 NSaved= 1 IEnMin= 1 EnMin= -1136.04108260021     IErMin= 1 ErrMin= 1.05D-02
 ErrMax= 1.05D-02  0.00D+00 EMaxC= 1.00D-01 BMatC= 1.99D-01 BMatP= 1.99D-01
 IDIUse=3 WtCom= 8.95D-01 WtEn= 1.05D-01
 Coeff-Com:  0.100D+01
 Coeff-En:   0.100D+01
 Coeff:      0.100D+01
 Gap=     0.031 Goal=   None    Shift=    0.000
 Gap=     0.022 Goal=   None    Shift=    0.000
 GapD=    0.022 DampG=0.250 DampE=0.500 DampFc=0.2500 IDamp=-1.
 Damping current iteration by 2.50D-01
 RMSDP=3.50D-02 MaxDP=2.25D+00              OVMax= 2.59D-01

 Cycle   2  Pass 1  IDiag  1:
 E= -1136.05514892401     Delta-E=       -0.014066323801 Rises=F Damp=T
 DIIS: error= 7.43D-03 at cycle   2 NSaved=   2.
 NSaved= 2 IEnMin= 2 EnMin= -1136.05514892401     IErMin= 2 ErrMin= 7.43D-03
 ErrMax= 7.43D-03  0.00D+00 EMaxC= 1.00D-01 BMatC= 7.52D-02 BMatP= 1.99D-01
 IDIUse=3 WtCom= 9.26D-01 WtEn= 7.43D-02
 Coeff-Com: -0.124D+01 0.224D+01
 Coeff-En:   0.000D+00 0.100D+01
 Coeff:     -0.114D+01 0.214D+01
 Gap=     0.034 Goal=   None    Shift=    0.000
 Gap=     0.035 Goal=   None    Shift=    0.000
 RMSDP=1.97D-02 MaxDP=1.32D+00 DE=-1.41D-02 OVMax= 2.05D-01

 Cycle   3  Pass 1  IDiag  1:
 E= -1136.07683602854     Delta-E=       -0.021687104536 Rises=F Damp=F
 DIIS: error= 4.28D-03 at cycle   3 NSaved=   3.
 NSaved= 3 IEnMin= 3 EnMin= -1136.07683602854     IErMin= 3 ErrMin= 4.28D-03
 ErrMax= 4.28D-03  0.00D+00 EMaxC= 1.00D-01 BMatC= 6.01D-03 BMatP= 7.52D-02
 IDIUse=3 WtCom= 9.57D-01 WtEn= 4.28D-02
 Coeff-Com: -0.369D+00 0.645D+00 0.724D+00
 Coeff-En:   0.000D+00 0.000D+00 0.100D+01
 Coeff:     -0.353D+00 0.618D+00 0.736D+00
 Gap=     0.029 Goal=   None    Shift=    0.000
 Gap=     0.028 Goal=   None    Shift=    0.000
 RMSDP=9.43D-03 MaxDP=8.04D-01 DE=-2.17D-02 OVMax= 9.28D-02

 Cycle   4  Pass 1  IDiag  1:
 E= -1136.07866335869     Delta-E=       -0.001827330145 Rises=F Damp=F
 DIIS: error= 3.18D-03 at cycle   4 NSaved=   4.
 NSaved= 4 IEnMin= 4 EnMin= -1136.07866335869     IErMin= 4 ErrMin= 3.18D-03
 ErrMax= 3.18D-03  0.00D+00 EMaxC= 1.00D-01 BMatC= 3.70D-03 BMatP= 6.01D-03
 IDIUse=3 WtCom= 9.68D-01 WtEn= 3.18D-02
 Coeff-Com: -0.190D-01 0.263D-01 0.439D+00 0.554D+00
 Coeff-En:   0.000D+00 0.000D+00 0.395D+00 0.605D+00
 Coeff:     -0.184D-01 0.255D-01 0.437D+00 0.556D+00
 Gap=     0.030 Goal=   None    Shift=    0.000
 Gap=     0.031 Goal=   None    Shift=    0.000
 RMSDP=4.82D-03 MaxDP=3.94D-01 DE=-1.83D-03 OVMax= 5.37D-02

 Cycle   5  Pass 1  IDiag  1:
 E= -1136.08134165653     Delta-E=       -0.002678297837 Rises=F Damp=F
 DIIS: error= 8.17D-04 at cycle   5 NSaved=   5.
 NSaved= 5 IEnMin= 5 EnMin= -1136.08134165653     IErMin= 5 ErrMin= 8.17D-04
 ErrMax= 8.17D-04  0.00D+00 EMaxC= 1.00D-01 BMatC= 1.43D-04 BMatP= 3.70D-03
 IDIUse=3 WtCom= 9.92D-01 WtEn= 8.17D-03
 Coeff-Com: -0.110D-01 0.143D-01 0.282D+00 0.367D+00 0.348D+00
 Coeff-En:   0.000D+00 0.000D+00 0.000D+00 0.000D+00 0.100D+01
 Coeff:     -0.110D-01 0.141D-01 0.280D+00 0.364D+00 0.353D+00
 Gap=     0.030 Goal=   None    Shift=    0.000
 Gap=     0.030 Goal=   None    Shift=    0.000
 RMSDP=9.53D-04 MaxDP=9.52D-02 DE=-2.68D-03 OVMax= 2.01D-02

 Cycle   6  Pass 1  IDiag  1:
 E= -1136.08151779930     Delta-E=       -0.000176142774 Rises=F Damp=F
 DIIS: error= 2.90D-04 at cycle   6 NSaved=   6.
 NSaved= 6 IEnMin= 6 EnMin= -1136.08151779930     IErMin= 6 ErrMin= 2.90D-04
 ErrMax= 2.90D-04  0.00D+00 EMaxC= 1.00D-01 BMatC= 1.41D-05 BMatP= 1.43D-04
 IDIUse=3 WtCom= 9.97D-01 WtEn= 2.90D-03
 Coeff-Com: -0.245D-02 0.260D-02 0.293D-01 0.432D-01 0.206D+00 0.721D+00
 Coeff-En:   0.000D+00 0.000D+00 0.000D+00 0.000D+00 0.613D-01 0.939D+00
 Coeff:     -0.244D-02 0.259D-02 0.292D-01 0.430D-01 0.206D+00 0.722D+00
 Gap=     0.030 Goal=   None    Shift=    0.000
 Gap=     0.030 Goal=   None    Shift=    0.000
 RMSDP=7.81D-04 MaxDP=1.07D-01 DE=-1.76D-04 OVMax= 1.05D-02

 Cycle   7  Pass 1  IDiag  1:
 E= -1136.08155093269     Delta-E=       -0.000033133395 Rises=F Damp=F
 DIIS: error= 1.56D-04 at cycle   7 NSaved=   7.
 NSaved= 7 IEnMin= 7 EnMin= -1136.08155093269     IErMin= 7 ErrMin= 1.56D-04
 ErrMax= 1.56D-04  0.00D+00 EMaxC= 1.00D-01 BMatC= 5.90D-06 BMatP= 1.41D-05
 IDIUse=3 WtCom= 9.98D-01 WtEn= 1.56D-03
 Coeff-Com:  0.458D-03-0.882D-03-0.471D-01-0.580D-01 0.382D-01 0.463D+00
 Coeff-Com:  0.605D+00
 Coeff-En:   0.000D+00 0.000D+00 0.000D+00 0.000D+00 0.000D+00 0.000D+00
 Coeff-En:   0.100D+01
 Coeff:      0.458D-03-0.881D-03-0.470D-01-0.579D-01 0.382D-01 0.462D+00
 Coeff:      0.605D+00
 Gap=     0.030 Goal=   None    Shift=    0.000
 Gap=     0.030 Goal=   None    Shift=    0.000
 RMSDP=5.22D-04 MaxDP=5.23D-02 DE=-3.31D-05 OVMax= 9.78D-03

 Cycle   8  Pass 1  IDiag  1:
 E= -1136.08157423080     Delta-E=       -0.000023298108 Rises=F Damp=F
 DIIS: error= 6.70D-05 at cycle   8 NSaved=   8.
 NSaved= 8 IEnMin= 8 EnMin= -1136.08157423080     IErMin= 8 ErrMin= 6.70D-05
 ErrMax= 6.70D-05  0.00D+00 EMaxC= 1.00D-01 BMatC= 1.64D-06 BMatP= 5.90D-06
 IDIUse=1 WtCom= 1.00D+00 WtEn= 0.00D+00
 Coeff-Com:  0.887D-03-0.119D-02-0.188D-01-0.248D-01-0.359D-01 0.161D-01
 Coeff-Com:  0.216D+00 0.848D+00
 Coeff:      0.887D-03-0.119D-02-0.188D-01-0.248D-01-0.359D-01 0.161D-01
 Coeff:      0.216D+00 0.848D+00
 Gap=     0.030 Goal=   None    Shift=    0.000
 Gap=     0.030 Goal=   None    Shift=    0.000
 RMSDP=4.25D-04 MaxDP=3.54D-02 DE=-2.33D-05 OVMax= 1.21D-02

 Cycle   9  Pass 1  IDiag  1:
 E= -1136.08159872235     Delta-E=       -0.000024491552 Rises=F Damp=F
 DIIS: error= 8.23D-05 at cycle   9 NSaved=   9.
 NSaved= 9 IEnMin= 9 EnMin= -1136.08159872235     IErMin= 8 ErrMin= 6.70D-05
 ErrMax= 8.23D-05  0.00D+00 EMaxC= 1.00D-01 BMatC= 1.55D-06 BMatP= 1.64D-06
 IDIUse=1 WtCom= 1.00D+00 WtEn= 0.00D+00
 Coeff-Com:  0.873D-03-0.116D-02-0.135D-01-0.182D-01-0.322D-01 0.705D-02
 Coeff-Com:  0.158D+00 0.636D+00 0.263D+00
 Coeff:      0.873D-03-0.116D-02-0.135D-01-0.182D-01-0.322D-01 0.705D-02
 Coeff:      0.158D+00 0.636D+00 0.263D+00
 Gap=     0.030 Goal=   None    Shift=    0.000
 Gap=     0.030 Goal=   None    Shift=    0.000
 RMSDP=1.19D-04 MaxDP=8.47D-03 DE=-2.45D-05 OVMax= 3.93D-03

 Cycle  10  Pass 1  IDiag  1:
 E= -1136.08160647306     Delta-E=       -0.000007750710 Rises=F Damp=F
 DIIS: error= 8.53D-05 at cycle  10 NSaved=  10.
 NSaved=10 IEnMin=10 EnMin= -1136.08160647306     IErMin= 8 ErrMin= 6.70D-05
 ErrMax= 8.53D-05  0.00D+00 EMaxC= 1.00D-01 BMatC= 1.58D-06 BMatP= 1.55D-06
 IDIUse=1 WtCom= 1.00D+00 WtEn= 0.00D+00
 Coeff-Com:  0.150D-02-0.196D-02-0.129D-01-0.180D-01-0.613D-01-0.919D-01
 Coeff-Com:  0.119D+00 0.109D+01 0.320D+01-0.322D+01
 Coeff:      0.150D-02-0.196D-02-0.129D-01-0.180D-01-0.613D-01-0.919D-01
 Coeff:      0.119D+00 0.109D+01 0.320D+01-0.322D+01
 Gap=     0.030 Goal=   None    Shift=    0.000
 Gap=     0.030 Goal=   None    Shift=    0.000
 RMSDP=4.23D-04 MaxDP=2.70D-02 DE=-7.75D-06 OVMax= 1.49D-02

 Cycle  11  Pass 1  IDiag  1:
 E= -1136.08157865218     Delta-E=        0.000027820885 Rises=F Damp=F
 DIIS: error= 7.16D-05 at cycle  11 NSaved=  11.
 NSaved=11 IEnMin=10 EnMin= -1136.08160647306     IErMin= 8 ErrMin= 6.70D-05
 ErrMax= 7.16D-05  0.00D+00 EMaxC= 1.00D-01 BMatC= 1.39D-06 BMatP= 1.55D-06
 IDIUse=1 WtCom= 1.00D+00 WtEn= 0.00D+00
 Large coefficients: NSaved= 11 BigCof=   10.17 CofMax=   10.00 Det=-4.75D-09
 Inversion failed.  Reducing to 10 matrices.
 Coeff-Com:  0.739D-03 0.200D-01 0.206D-01-0.790D-01-0.258D+00-0.204D+00
 Coeff-Com:  0.581D+00 0.781D+01-0.934D+01 0.244D+01
 Coeff:      0.739D-03 0.200D-01 0.206D-01-0.790D-01-0.258D+00-0.204D+00
 Coeff:      0.581D+00 0.781D+01-0.934D+01 0.244D+01
 Gap=     0.030 Goal=   None    Shift=    0.000
 Gap=     0.030 Goal=   None    Shift=    0.000
 RMSDP=1.19D-03 MaxDP=1.05D-01 DE= 2.78D-05 OVMax= 4.01D-02

 Cycle  12  Pass 1  IDiag  1:
 E= -1136.08152678476     Delta-E=        0.000051867415 Rises=F Damp=F
 DIIS: error= 4.74D-05 at cycle  12 NSaved=  11.
 NSaved=11 IEnMin= 9 EnMin= -1136.08160647306     IErMin=11 ErrMin= 4.74D-05
 ErrMax= 4.74D-05  0.00D+00 EMaxC= 1.00D-01 BMatC= 6.39D-07 BMatP= 1.39D-06
 IDIUse=1 WtCom= 1.00D+00 WtEn= 0.00D+00
 Coeff-Com: -0.346D-03 0.327D-03-0.166D-02-0.178D-03-0.360D-01 0.617D-01
 Coeff-Com: -0.240D+00-0.102D+01 0.735D+00-0.159D+00 0.166D+01
 Coeff:     -0.346D-03 0.327D-03-0.166D-02-0.178D-03-0.360D-01 0.617D-01
 Coeff:     -0.240D+00-0.102D+01 0.735D+00-0.159D+00 0.166D+01
 Gap=     0.030 Goal=   None    Shift=    0.000
 Gap=     0.030 Goal=   None    Shift=    0.000
 RMSDP=7.42D-04 MaxDP=8.70D-02 DE= 5.19D-05 OVMax= 2.33D-02

 Cycle  13  Pass 1  IDiag  1:
 E= -1136.08151426262     Delta-E=        0.000012522148 Rises=F Damp=F
 DIIS: error= 4.74D-05 at cycle  13 NSaved=  12.
 NSaved=12 IEnMin= 9 EnMin= -1136.08160647306     IErMin=11 ErrMin= 4.74D-05
 ErrMax= 4.74D-05  0.00D+00 EMaxC= 1.00D-01 BMatC= 3.05D-07 BMatP= 6.39D-07
 IDIUse=1 WtCom= 1.00D+00 WtEn= 0.00D+00
 Coeff-Com: -0.500D-04-0.105D-02-0.690D-03 0.382D-01 0.176D+00 0.687D-01
 Coeff-Com: -0.644D+00-0.500D+01 0.622D+01-0.166D+01 0.754D-01 0.172D+01
 Coeff:     -0.500D-04-0.105D-02-0.690D-03 0.382D-01 0.176D+00 0.687D-01
 Coeff:     -0.644D+00-0.500D+01 0.622D+01-0.166D+01 0.754D-01 0.172D+01
 Gap=     0.030 Goal=   None    Shift=    0.000
 Gap=     0.030 Goal=   None    Shift=    0.000
 RMSDP=6.21D-04 MaxDP=8.14D-02 DE= 1.25D-05 OVMax= 1.63D-02

 Cycle  14  Pass 1  IDiag  1:
 E= -1136.08151387398     Delta-E=        0.000000388633 Rises=F Damp=F
 DIIS: error= 3.36D-05 at cycle  14 NSaved=  13.
 NSaved=13 IEnMin= 9 EnMin= -1136.08160647306     IErMin=13 ErrMin= 3.36D-05
 ErrMax= 3.36D-05  0.00D+00 EMaxC= 1.00D-01 BMatC= 1.20D-07 BMatP= 3.05D-07
 IDIUse=1 WtCom= 1.00D+00 WtEn= 0.00D+00
 Coeff-Com: -0.922D-04 0.199D-02 0.393D-02 0.133D-01 0.811D-01-0.164D-01
 Coeff-Com: -0.364D+00-0.187D+01 0.233D+01-0.507D+00 0.358D-01 0.596D+00
 Coeff-Com:  0.702D+00
 Coeff:     -0.922D-04 0.199D-02 0.393D-02 0.133D-01 0.811D-01-0.164D-01
 Coeff:     -0.364D+00-0.187D+01 0.233D+01-0.507D+00 0.358D-01 0.596D+00
 Coeff:      0.702D+00
 Gap=     0.030 Goal=   None    Shift=    0.000
 Gap=     0.030 Goal=   None    Shift=    0.000
 RMSDP=1.35D-04 MaxDP=1.65D-02 DE= 3.89D-07 OVMax= 3.59D-03

 Cycle  15  Pass 1  IDiag  1:
 E= -1136.08151402986     Delta-E=       -0.000000155873 Rises=F Damp=F
 DIIS: error= 1.69D-05 at cycle  15 NSaved=  14.
 NSaved=14 IEnMin= 9 EnMin= -1136.08160647306     IErMin=14 ErrMin= 1.69D-05
 ErrMax= 1.69D-05  0.00D+00 EMaxC= 1.00D-01 BMatC= 2.54D-08 BMatP= 1.20D-07
 IDIUse=1 WtCom= 1.00D+00 WtEn= 0.00D+00
 Coeff-Com: -0.657D-04-0.102D-02-0.120D-02-0.166D-02-0.118D-01 0.178D-01
 Coeff-Com:  0.836D-01 0.308D+00-0.439D+00 0.129D+00 0.325D-01-0.406D+00
 Coeff-Com: -0.216D+00 0.151D+01
 Coeff:     -0.657D-04-0.102D-02-0.120D-02-0.166D-02-0.118D-01 0.178D-01
 Coeff:      0.836D-01 0.308D+00-0.439D+00 0.129D+00 0.325D-01-0.406D+00
 Coeff:     -0.216D+00 0.151D+01
 Gap=     0.030 Goal=   None    Shift=    0.000
 Gap=     0.030 Goal=   None    Shift=    0.000
 RMSDP=1.40D-04 MaxDP=1.42D-02 DE=-1.56D-07 OVMax= 4.05D-03

 Cycle  16  Pass 1  IDiag  1:
 E= -1136.08151437020     Delta-E=       -0.000000340345 Rises=F Damp=F
 DIIS: error= 7.59D-06 at cycle  16 NSaved=  15.
 NSaved=15 IEnMin= 9 EnMin= -1136.08160647306     IErMin=15 ErrMin= 7.59D-06
 ErrMax= 7.59D-06  0.00D+00 EMaxC= 1.00D-01 BMatC= 1.01D-08 BMatP= 2.54D-08
 IDIUse=1 WtCom= 1.00D+00 WtEn= 0.00D+00
 Coeff-Com:  0.144D-04-0.425D-03-0.895D-03-0.952D-04-0.100D-01 0.140D-01
 Coeff-Com:  0.687D-01 0.753D-01-0.155D+00 0.626D-01-0.148D-01-0.141D+00
 Coeff-Com: -0.151D+00 0.344D+00 0.908D+00
 Coeff:      0.144D-04-0.425D-03-0.895D-03-0.952D-04-0.100D-01 0.140D-01
 Coeff:      0.687D-01 0.753D-01-0.155D+00 0.626D-01-0.148D-01-0.141D+00
 Coeff:     -0.151D+00 0.344D+00 0.908D+00
 Gap=     0.030 Goal=   None    Shift=    0.000
 Gap=     0.030 Goal=   None    Shift=    0.000
 RMSDP=4.03D-05 MaxDP=2.96D-03 DE=-3.40D-07 OVMax= 1.20D-03

 Cycle  17  Pass 1  IDiag  1:
 E= -1136.08151448012     Delta-E=       -0.000000109924 Rises=F Damp=F
 DIIS: error= 4.91D-06 at cycle  17 NSaved=  16.
 NSaved=16 IEnMin= 9 EnMin= -1136.08160647306     IErMin=16 ErrMin= 4.91D-06
 ErrMax= 4.91D-06  0.00D+00 EMaxC= 1.00D-01 BMatC= 5.04D-09 BMatP= 1.01D-08
 IDIUse=1 WtCom= 1.00D+00 WtEn= 0.00D+00
 Coeff-Com:  0.560D-05 0.276D-03 0.531D-03 0.315D-02 0.601D-02-0.108D-01
 Coeff-Com: -0.370D-01-0.358D+00 0.418D+00-0.786D-01 0.344D-02 0.208D+00
 Coeff-Com:  0.945D-01-0.731D+00-0.110D+00 0.159D+01
 Coeff:      0.560D-05 0.276D-03 0.531D-03 0.315D-02 0.601D-02-0.108D-01
 Coeff:     -0.370D-01-0.358D+00 0.418D+00-0.786D-01 0.344D-02 0.208D+00
 Coeff:      0.945D-01-0.731D+00-0.110D+00 0.159D+01
 Gap=     0.030 Goal=   None    Shift=    0.000
 Gap=     0.030 Goal=   None    Shift=    0.000
 RMSDP=5.48D-05 MaxDP=4.12D-03 DE=-1.10D-07 OVMax= 1.59D-03

 Cycle  18  Pass 1  IDiag  1:
 E= -1136.08151458809     Delta-E=       -0.000000107966 Rises=F Damp=F
 DIIS: error= 3.51D-06 at cycle  18 NSaved=  17.
 NSaved=17 IEnMin= 9 EnMin= -1136.08160647306     IErMin=17 ErrMin= 3.51D-06
 ErrMax= 3.51D-06  0.00D+00 EMaxC= 1.00D-01 BMatC= 2.37D-09 BMatP= 5.04D-09
 IDIUse=1 WtCom= 1.00D+00 WtEn= 0.00D+00
 Coeff-Com: -0.251D-04 0.302D-03 0.550D-03 0.182D-02 0.582D-02-0.593D-02
 Coeff-Com: -0.396D-01-0.233D+00 0.259D+00-0.293D-01 0.277D-01 0.611D-01
 Coeff-Com: -0.395D-03-0.584D-01-0.311D+00-0.146D+00 0.147D+01
 Coeff:     -0.251D-04 0.302D-03 0.550D-03 0.182D-02 0.582D-02-0.593D-02
 Coeff:     -0.396D-01-0.233D+00 0.259D+00-0.293D-01 0.277D-01 0.611D-01
 Coeff:     -0.395D-03-0.584D-01-0.311D+00-0.146D+00 0.147D+01
 Gap=     0.030 Goal=   None    Shift=    0.000
 Gap=     0.030 Goal=   None    Shift=    0.000
 RMSDP=3.54D-05 MaxDP=2.76D-03 DE=-1.08D-07 OVMax= 1.39D-03

 Cycle  19  Pass 1  IDiag  1:
 E= -1136.08151464541     Delta-E=       -0.000000057318 Rises=F Damp=F
 DIIS: error= 2.65D-06 at cycle  19 NSaved=  18.
 NSaved=18 IEnMin= 9 EnMin= -1136.08160647306     IErMin=18 ErrMin= 2.65D-06
 ErrMax= 2.65D-06  0.00D+00 EMaxC= 1.00D-01 BMatC= 1.19D-09 BMatP= 2.37D-09
 IDIUse=1 WtCom= 1.00D+00 WtEn= 0.00D+00
 Coeff-Com: -0.302D-05 0.940D-04 0.764D-05 0.306D-02 0.978D-02 0.868D-02
 Coeff-Com: -0.252D-01-0.281D+00 0.341D+00-0.917D-01 0.373D-02 0.266D-01
 Coeff-Com: -0.584D-01 0.303D+00 0.145D-01-0.769D+00-0.166D+00 0.168D+01
 Coeff:     -0.302D-05 0.940D-04 0.764D-05 0.306D-02 0.978D-02 0.868D-02
 Coeff:     -0.252D-01-0.281D+00 0.341D+00-0.917D-01 0.373D-02 0.266D-01
 Coeff:     -0.584D-01 0.303D+00 0.145D-01-0.769D+00-0.166D+00 0.168D+01
 Gap=     0.030 Goal=   None    Shift=    0.000
 Gap=     0.030 Goal=   None    Shift=    0.000
 RMSDP=3.36D-05 MaxDP=3.03D-03 DE=-5.73D-08 OVMax= 1.42D-03

 Cycle  20  Pass 1  IDiag  1:
 E= -1136.08151468089     Delta-E=       -0.000000035479 Rises=F Damp=F
 DIIS: error= 1.51D-06 at cycle  20 NSaved=  19.
 NSaved=19 IEnMin= 9 EnMin= -1136.08160647306     IErMin=19 ErrMin= 1.51D-06
 ErrMax= 1.51D-06  0.00D+00 EMaxC= 1.00D-01 BMatC= 6.45D-10 BMatP= 1.19D-09
 IDIUse=1 WtCom= 1.00D+00 WtEn= 0.00D+00
 Coeff-Com: -0.531D-05-0.876D-04-0.125D-04-0.563D-03-0.214D-02-0.138D-02
 Coeff-Com:  0.794D-02 0.263D-01-0.563D-01 0.297D-01 0.141D-01-0.968D-02
 Coeff-Com: -0.180D-01-0.955D-01 0.124D+00 0.434D+00-0.766D+00-0.431D+00
 Coeff-Com:  0.174D+01
 Coeff:     -0.531D-05-0.876D-04-0.125D-04-0.563D-03-0.214D-02-0.138D-02
 Coeff:      0.794D-02 0.263D-01-0.563D-01 0.297D-01 0.141D-01-0.968D-02
 Coeff:     -0.180D-01-0.955D-01 0.124D+00 0.434D+00-0.766D+00-0.431D+00
 Coeff:      0.174D+01
 Gap=     0.030 Goal=   None    Shift=    0.000
 Gap=     0.030 Goal=   None    Shift=    0.000
 RMSDP=1.69D-05 MaxDP=1.54D-03 DE=-3.55D-08 OVMax= 1.06D-03

 Cycle  21  Pass 1  IDiag  1:
 E= -1136.08151469485     Delta-E=       -0.000000013959 Rises=F Damp=F
 DIIS: error= 7.94D-07 at cycle  21 NSaved=  20.
 NSaved=20 IEnMin= 9 EnMin= -1136.08160647306     IErMin=20 ErrMin= 7.94D-07
 ErrMax= 7.94D-07  0.00D+00 EMaxC= 1.00D-01 BMatC= 1.65D-10 BMatP= 6.45D-10
 IDIUse=1 WtCom= 1.00D+00 WtEn= 0.00D+00
 Coeff-Com:  0.144D-05 0.529D-04 0.108D-03-0.386D-03-0.103D-02-0.316D-02
 Coeff-Com:  0.770D-03-0.151D-01 0.125D-01 0.699D-02-0.417D-02 0.186D-01
 Coeff-Com:  0.396D-01-0.166D+00-0.329D-01 0.298D+00 0.234D+00-0.724D+00
 Coeff-Com: -0.641D-02 0.134D+01
 Coeff:      0.144D-05 0.529D-04 0.108D-03-0.386D-03-0.103D-02-0.316D-02
 Coeff:      0.770D-03-0.151D-01 0.125D-01 0.699D-02-0.417D-02 0.186D-01
 Coeff:      0.396D-01-0.166D+00-0.329D-01 0.298D+00 0.234D+00-0.724D+00
 Coeff:     -0.641D-02 0.134D+01
 Gap=     0.030 Goal=   None    Shift=    0.000
 Gap=     0.030 Goal=   None    Shift=    0.000
 RMSDP=9.02D-06 MaxDP=1.08D-03 DE=-1.40D-08 OVMax= 3.85D-04

 Cycle  22  Pass 1  IDiag  1:
 E= -1136.08151469813     Delta-E=       -0.000000003279 Rises=F Damp=F
 DIIS: error= 5.64D-07 at cycle  22 NSaved=  20.
 NSaved=20 IEnMin= 8 EnMin= -1136.08160647306     IErMin=20 ErrMin= 5.64D-07
 ErrMax= 5.64D-07  0.00D+00 EMaxC= 1.00D-01 BMatC= 6.31D-11 BMatP= 1.65D-10
 IDIUse=1 WtCom= 1.00D+00 WtEn= 0.00D+00
 Coeff-Com:  0.684D-04 0.496D-04 0.287D-03 0.115D-02 0.143D-03-0.423D-02
 Coeff-Com: -0.267D-01 0.383D-01-0.135D-01 0.155D-03 0.343D-02 0.469D-02
 Coeff-Com:  0.430D-01-0.540D-01-0.174D+00 0.267D+00 0.232D+00-0.784D+00
 Coeff-Com:  0.101D+00 0.137D+01
 Coeff:      0.684D-04 0.496D-04 0.287D-03 0.115D-02 0.143D-03-0.423D-02
 Coeff:     -0.267D-01 0.383D-01-0.135D-01 0.155D-03 0.343D-02 0.469D-02
 Coeff:      0.430D-01-0.540D-01-0.174D+00 0.267D+00 0.232D+00-0.784D+00
 Coeff:      0.101D+00 0.137D+01
 Gap=     0.030 Goal=   None    Shift=    0.000
 Gap=     0.030 Goal=   None    Shift=    0.000
 RMSDP=5.86D-06 MaxDP=6.19D-04 DE=-3.28D-09 OVMax= 3.11D-04

 Cycle  23  Pass 1  IDiag  1:
 E= -1136.08151469948     Delta-E=       -0.000000001354 Rises=F Damp=F
 DIIS: error= 3.41D-07 at cycle  23 NSaved=  20.
 NSaved=20 IEnMin= 7 EnMin= -1136.08160647306     IErMin=20 ErrMin= 3.41D-07
 ErrMax= 3.41D-07  0.00D+00 EMaxC= 1.00D-01 BMatC= 1.88D-11 BMatP= 6.31D-11
 IDIUse=1 WtCom= 1.00D+00 WtEn= 0.00D+00
 Coeff-Com: -0.169D-04 0.804D-04 0.118D-03 0.139D-02 0.511D-05-0.689D-02
 Coeff-Com:  0.561D-02-0.150D-02 0.396D-02-0.601D-02-0.192D-01 0.525D-01
 Coeff-Com:  0.186D-01-0.762D-01-0.107D+00 0.211D+00 0.149D-01-0.331D+00
 Coeff-Com: -0.204D+00 0.144D+01
 Coeff:     -0.169D-04 0.804D-04 0.118D-03 0.139D-02 0.511D-05-0.689D-02
 Coeff:      0.561D-02-0.150D-02 0.396D-02-0.601D-02-0.192D-01 0.525D-01
 Coeff:      0.186D-01-0.762D-01-0.107D+00 0.211D+00 0.149D-01-0.331D+00
 Coeff:     -0.204D+00 0.144D+01
 Gap=     0.030 Goal=   None    Shift=    0.000
 Gap=     0.030 Goal=   None    Shift=    0.000
 RMSDP=3.69D-06 MaxDP=3.23D-04 DE=-1.35D-09 OVMax= 1.89D-04

 Cycle  24  Pass 1  IDiag  1:
 E= -1136.08151469982     Delta-E=       -0.000000000342 Rises=F Damp=F
 DIIS: error= 7.49D-08 at cycle  24 NSaved=  20.
 NSaved=20 IEnMin= 6 EnMin= -1136.08160647306     IErMin=20 ErrMin= 7.49D-08
 ErrMax= 7.49D-08  0.00D+00 EMaxC= 1.00D-01 BMatC= 3.30D-12 BMatP= 1.88D-11
 IDIUse=1 WtCom= 1.00D+00 WtEn= 0.00D+00
 Coeff-Com:  0.503D-04 0.132D-04 0.340D-03 0.168D-03-0.715D-02 0.720D-02
 Coeff-Com: -0.150D-02 0.943D-03 0.484D-03-0.354D-02-0.571D-03 0.133D-01
 Coeff-Com:  0.144D-01-0.647D-01 0.892D-02 0.154D+00-0.962D-01-0.341D+00
 Coeff-Com:  0.312D+00 0.100D+01
 Coeff:      0.503D-04 0.132D-04 0.340D-03 0.168D-03-0.715D-02 0.720D-02
 Coeff:     -0.150D-02 0.943D-03 0.484D-03-0.354D-02-0.571D-03 0.133D-01
 Coeff:      0.144D-01-0.647D-01 0.892D-02 0.154D+00-0.962D-01-0.341D+00
 Coeff:      0.312D+00 0.100D+01
 Gap=     0.030 Goal=   None    Shift=    0.000
 Gap=     0.030 Goal=   None    Shift=    0.000
 RMSDP=1.21D-06 MaxDP=8.66D-05 DE=-3.42D-10 OVMax= 2.45D-05

 Cycle  25  Pass 1  IDiag  1:
 E= -1136.08151469985     Delta-E=       -0.000000000030 Rises=F Damp=F
 DIIS: error= 6.48D-08 at cycle  25 NSaved=  20.
 NSaved=20 IEnMin= 5 EnMin= -1136.08160647306     IErMin=20 ErrMin= 6.48D-08
 ErrMax= 6.48D-08  0.00D+00 EMaxC= 1.00D-01 BMatC= 7.20D-13 BMatP= 3.30D-12
 IDIUse=1 WtCom= 1.00D+00 WtEn= 0.00D+00
 Coeff-Com:  0.100D-03-0.261D-03-0.925D-04-0.852D-03 0.165D-02-0.517D-03
 Coeff-Com: -0.101D-02 0.146D-02 0.479D-02-0.102D-01-0.368D-02 0.999D-02
 Coeff-Com:  0.225D-01-0.285D-01-0.173D-01 0.780D-01 0.599D-01-0.409D+00
 Coeff-Com:  0.693D-01 0.122D+01
 Coeff:      0.100D-03-0.261D-03-0.925D-04-0.852D-03 0.165D-02-0.517D-03
 Coeff:     -0.101D-02 0.146D-02 0.479D-02-0.102D-01-0.368D-02 0.999D-02
 Coeff:      0.225D-01-0.285D-01-0.173D-01 0.780D-01 0.599D-01-0.409D+00
 Coeff:      0.693D-01 0.122D+01
 Gap=     0.030 Goal=   None    Shift=    0.000
 Gap=     0.030 Goal=   None    Shift=    0.000
 RMSDP=5.92D-07 MaxDP=4.02D-05 DE=-3.02D-11 OVMax= 1.12D-05

 Cycle  26  Pass 1  IDiag  1:
 E= -1136.08151469988     Delta-E=       -0.000000000022 Rises=F Damp=F
 DIIS: error= 1.25D-08 at cycle  26 NSaved=  20.
 NSaved=20 IEnMin= 5 EnMin= -1136.08160647306     IErMin=20 ErrMin= 1.25D-08
 ErrMax= 1.25D-08  0.00D+00 EMaxC= 1.00D-01 BMatC= 1.35D-13 BMatP= 7.20D-13
 IDIUse=1 WtCom= 1.00D+00 WtEn= 0.00D+00
 Coeff-Com: -0.271D-04-0.422D-04-0.641D-04 0.105D-02-0.128D-02 0.458D-03
 Coeff-Com:  0.656D-04-0.177D-03 0.637D-03-0.196D-02-0.226D-02 0.113D-01
 Coeff-Com: -0.388D-02-0.296D-01 0.256D-01 0.577D-01-0.679D-01-0.153D+00
 Coeff-Com:  0.320D-01 0.113D+01
 Coeff:     -0.271D-04-0.422D-04-0.641D-04 0.105D-02-0.128D-02 0.458D-03
 Coeff:      0.656D-04-0.177D-03 0.637D-03-0.196D-02-0.226D-02 0.113D-01
 Coeff:     -0.388D-02-0.296D-01 0.256D-01 0.577D-01-0.679D-01-0.153D+00
 Coeff:      0.320D-01 0.113D+01
 Gap=     0.030 Goal=   None    Shift=    0.000
 Gap=     0.030 Goal=   None    Shift=    0.000
 RMSDP=1.67D-07 MaxDP=9.12D-06 DE=-2.21D-11 OVMax= 6.59D-06

 Cycle  27  Pass 1  IDiag  1:
 E= -1136.08151469986     Delta-E=        0.000000000016 Rises=F Damp=F
 DIIS: error= 4.96D-09 at cycle  27 NSaved=  20.
 NSaved=20 IEnMin= 5 EnMin= -1136.08160647306     IErMin=20 ErrMin= 4.96D-09
 ErrMax= 4.96D-09  0.00D+00 EMaxC= 1.00D-01 BMatC= 1.20D-14 BMatP= 1.35D-13
 IDIUse=1 WtCom= 1.00D+00 WtEn= 0.00D+00
 Coeff-Com: -0.648D-06 0.464D-05 0.702D-06-0.262D-03 0.320D-03-0.993D-04
 Coeff-Com:  0.205D-04 0.562D-04-0.451D-03-0.108D-03 0.121D-02 0.216D-03
 Coeff-Com: -0.139D-02-0.260D-02 0.178D-02 0.179D-01-0.194D-01-0.672D-01
 Coeff-Com:  0.118D-01 0.106D+01
 Coeff:     -0.648D-06 0.464D-05 0.702D-06-0.262D-03 0.320D-03-0.993D-04
 Coeff:      0.205D-04 0.562D-04-0.451D-03-0.108D-03 0.121D-02 0.216D-03
 Coeff:     -0.139D-02-0.260D-02 0.178D-02 0.179D-01-0.194D-01-0.672D-01
 Coeff:      0.118D-01 0.106D+01
 Gap=     0.030 Goal=   None    Shift=    0.000
 Gap=     0.030 Goal=   None    Shift=    0.000
 RMSDP=4.72D-08 MaxDP=2.87D-06 DE= 1.64D-11 OVMax= 1.27D-06

 Cycle  28  Pass 1  IDiag  1:
 E= -1136.08151469985     Delta-E=        0.000000000008 Rises=F Damp=F
 DIIS: error= 2.13D-09 at cycle  28 NSaved=  20.
 NSaved=20 IEnMin= 5 EnMin= -1136.08160647306     IErMin=20 ErrMin= 2.13D-09
 ErrMax= 2.13D-09  0.00D+00 EMaxC= 1.00D-01 BMatC= 1.98D-15 BMatP= 1.20D-14
 IDIUse=1 WtCom= 1.00D+00 WtEn= 0.00D+00
 Large coefficients: NSaved= 20 BigCof=    0.00 CofMax=   10.00 Det=-4.44D-15
 Inversion failed.  Reducing to 19 matrices.
 Large coefficients: NSaved= 19 BigCof=    0.00 CofMax=   10.00 Det=-4.61D-15
 Inversion failed.  Reducing to 18 matrices.
 Large coefficients: NSaved= 18 BigCof=    0.00 CofMax=   10.00 Det=-4.61D-15
 Inversion failed.  Reducing to 17 matrices.
 Large coefficients: NSaved= 17 BigCof=    0.00 CofMax=   10.00 Det=-4.69D-15
 Inversion failed.  Reducing to 16 matrices.
 Large coefficients: NSaved= 16 BigCof=    0.00 CofMax=   10.00 Det=-4.78D-15
 Inversion failed.  Reducing to 15 matrices.
 Coeff-Com:  0.742D-06-0.110D-07 0.993D-05-0.993D-04 0.104D-03-0.189D-04
 Coeff-Com:  0.489D-05-0.113D-02-0.124D-02 0.912D-02 0.365D-02-0.322D-01
 Coeff-Com: -0.621D-01 0.166D+00 0.918D+00
 Coeff:      0.742D-06-0.110D-07 0.993D-05-0.993D-04 0.104D-03-0.189D-04
 Coeff:      0.489D-05-0.113D-02-0.124D-02 0.912D-02 0.365D-02-0.322D-01
 Coeff:     -0.621D-01 0.166D+00 0.918D+00
 Gap=     0.030 Goal=   None    Shift=    0.000
 Gap=     0.030 Goal=   None    Shift=    0.000
 RMSDP=1.48D-08 MaxDP=1.20D-06 DE= 8.19D-12 OVMax= 5.08D-07

 Cycle  29  Pass 1  IDiag  1:
 E= -1136.08151469986     Delta-E=       -0.000000000008 Rises=F Damp=F
 DIIS: error= 8.89D-10 at cycle  29 NSaved=  16.
 NSaved=16 IEnMin= 5 EnMin= -1136.08160647306     IErMin=16 ErrMin= 8.89D-10
 ErrMax= 8.89D-10  0.00D+00 EMaxC= 1.00D-01 BMatC= 5.40D-16 BMatP= 1.98D-15
 IDIUse=1 WtCom= 1.00D+00 WtEn= 0.00D+00
 Large coefficients: NSaved= 16 BigCof=    0.00 CofMax=   10.00 Det=-1.09D-15
 Inversion failed.  Reducing to 15 matrices.
 Coeff-Com:  0.210D-06-0.158D-05 0.241D-05-0.205D-04 0.169D-04-0.186D-06
 Coeff-Com:  0.565D-05-0.505D-03-0.132D-02 0.668D-02 0.625D-02-0.360D-01
 Coeff-Com: -0.135D+00 0.227D+00 0.932D+00
 Coeff:      0.210D-06-0.158D-05 0.241D-05-0.205D-04 0.169D-04-0.186D-06
 Coeff:      0.565D-05-0.505D-03-0.132D-02 0.668D-02 0.625D-02-0.360D-01
 Coeff:     -0.135D+00 0.227D+00 0.932D+00
 Gap=     0.030 Goal=   None    Shift=    0.000
 Gap=     0.030 Goal=   None    Shift=    0.000
 RMSDP=1.01D-08 MaxDP=1.47D-06 DE=-8.19D-12 OVMax= 2.42D-07

 Cycle  30  Pass 1  IDiag  1:
 E= -1136.08151469986     Delta-E=        0.000000000004 Rises=F Damp=F
 DIIS: error= 4.26D-10 at cycle  30 NSaved=  16.
 NSaved=16 IEnMin= 5 EnMin= -1136.08160647306     IErMin=16 ErrMin= 4.26D-10
 ErrMax= 4.26D-10  0.00D+00 EMaxC= 1.00D-01 BMatC= 1.34D-16 BMatP= 5.40D-16
 IDIUse=1 WtCom= 1.00D+00 WtEn= 0.00D+00
 Large coefficients: NSaved= 16 BigCof=    0.00 CofMax=   10.00 Det=-2.70D-16
 Inversion failed.  Reducing to 15 matrices.
 Coeff-Com:  0.783D-07 0.153D-06-0.561D-06 0.108D-05-0.507D-05 0.401D-05
 Coeff-Com:  0.128D-05-0.912D-03 0.101D-02 0.625D-02-0.254D-02-0.720D-01
 Coeff-Com: -0.959D-01 0.285D+00 0.879D+00
 Coeff:      0.783D-07 0.153D-06-0.561D-06 0.108D-05-0.507D-05 0.401D-05
 Coeff:      0.128D-05-0.912D-03 0.101D-02 0.625D-02-0.254D-02-0.720D-01
 Coeff:     -0.959D-01 0.285D+00 0.879D+00
 Gap=     0.030 Goal=   None    Shift=    0.000
 Gap=     0.030 Goal=   None    Shift=    0.000
 RMSDP=4.70D-09 MaxDP=4.47D-07 DE= 3.64D-12 OVMax= 5.35D-08

 SCF Done:  E(UB3LYP) =  -1136.08151470     A.U. after   30 cycles
            NFock= 30  Conv=0.47D-08     -V/T= 2.0025
 <Sx>= 0.0000 <Sy>= 0.0000 <Sz>= 0.5000 <S**2>= 0.7780 S= 0.5139
 <L.S>= 0.000000000000E+00
 KE= 1.133266127856D+03 PE=-3.453190818648D+03 EE= 8.218536323357D+02
 Annihilation of the first spin contaminant:
 S**2 before annihilation     0.7780,   after     0.7505
 Leave Link  502 at Mon Nov 13 12:09:11 2023, MaxMem=  1879048192 cpu:             294.3 elap:              24.8
 (Enter /home/sekinelabo/g16/l601.exe)
 Copying SCF densities to generalized density rwf, IOpCl= 1 IROHF=0.

 **********************************************************************

            Population analysis using the SCF Density.

 **********************************************************************

 Orbital symmetries:
 Alpha Orbitals:
       Occupied  (A) (A) (A) (A) (A) (A) (A) (A) (A) (A) (A) (A)
                 (A) (A) (A) (A) (A) (A) (A) (A) (A) (A) (A) (A)
                 (A) (A) (A) (A) (A) (A) (A) (A) (A) (A) (A) (A)
                 (A) (A) (A)
       Virtual   (A) (A) (A) (A) (A) (A) (A) (A) (A) (A) (A) (A)
                 (A) (A) (A) (A) (A) (A) (A) (A) (A) (A) (A) (A)
                 (A) (A) (A) (A) (A) (A) (A) (A) (A) (A) (A) (A)
                 (A) (A) (A) (A) (A) (A) (A) (A) (A) (A) (A) (A)
                 (A) (A) (A) (A) (A) (A) (A) (A) (A) (A) (A) (A)
                 (A) (A) (A) (A) (A) (A) (A) (A) (A) (A) (A) (A)
                 (A) (A) (A) (A) (A) (A) (A) (A) (A) (A) (A) (A)
                 (A) (A) (A) (A) (A) (A) (A) (A) (A) (A) (A) (A)
                 (A) (A) (A) (A) (A) (A) (A) (A) (A) (A) (A) (A)
                 (A) (A) (A) (A) (A) (A) (A) (A) (A) (A) (A) (A)
                 (A) (A) (A) (A) (A) (A) (A) (A) (A) (A) (A) (A)
                 (A) (A) (A) (A) (A) (A) (A) (A) (A) (A) (A) (A)
                 (A) (A) (A) (A) (A) (A) (A) (A) (A) (A) (A) (A)
                 (A) (A) (A) (A) (A) (A) (A) (A) (A) (A) (A) (A)
                 (A) (A) (A)
 Beta  Orbitals:
       Occupied  (A) (A) (A) (A) (A) (A) (A) (A) (A) (A) (A) (A)
                 (A) (A) (A) (A) (A) (A) (A) (A) (A) (A) (A) (A)
                 (A) (A) (A) (A) (A) (A) (A) (A) (A) (A) (A) (A)
                 (A) (A)
       Virtual   (A) (A) (A) (A) (A) (A) (A) (A) (A) (A) (A) (A)
                 (A) (A) (A) (A) (A) (A) (A) (A) (A) (A) (A) (A)
                 (A) (A) (A) (A) (A) (A) (A) (A) (A) (A) (A) (A)
                 (A) (A) (A) (A) (A) (A) (A) (A) (A) (A) (A) (A)
                 (A) (A) (A) (A) (A) (A) (A) (A) (A) (A) (A) (A)
                 (A) (A) (A) (A) (A) (A) (A) (A) (A) (A) (A) (A)
                 (A) (A) (A) (A) (A) (A) (A) (A) (A) (A) (A) (A)
                 (A) (A) (A) (A) (A) (A) (A) (A) (A) (A) (A) (A)
                 (A) (A) (A) (A) (A) (A) (A) (A) (A) (A) (A) (A)
                 (A) (A) (A) (A) (A) (A) (A) (A) (A) (A) (A) (A)
                 (A) (A) (A) (A) (A) (A) (A) (A) (A) (A) (A) (A)
                 (A) (A) (A) (A) (A) (A) (A) (A) (A) (A) (A) (A)
                 (A) (A) (A) (A) (A) (A) (A) (A) (A) (A) (A) (A)
                 (A) (A) (A) (A) (A) (A) (A) (A) (A) (A) (A) (A)
                 (A) (A) (A) (A)
 The electronic state is 2-A.
 Alpha  occ. eigenvalues --  -38.46605 -38.45139 -38.45002 -38.43640 -38.43223
 Alpha  occ. eigenvalues --  -38.42927 -38.42596  -2.22560  -2.21126  -2.20909
 Alpha  occ. eigenvalues --   -2.19620  -2.19404  -2.19011  -2.18675  -1.16279
 Alpha  occ. eigenvalues --   -1.16230  -1.16169  -1.14844  -1.14756  -1.14723
 Alpha  occ. eigenvalues --   -1.14602  -1.14546  -1.14522  -1.13409  -1.13286
 Alpha  occ. eigenvalues --   -1.13252  -1.13114  -1.13059  -1.13037  -1.12720
 Alpha  occ. eigenvalues --   -1.12651  -1.12637  -1.12360  -1.12318  -1.12286
 Alpha  occ. eigenvalues --   -0.19800  -0.15849  -0.11068  -0.10630
 Alpha virt. eigenvalues --   -0.07600  -0.05349  -0.04766  -0.03129  -0.02803
 Alpha virt. eigenvalues --   -0.01914  -0.01769  -0.01053  -0.00610  -0.00152
 Alpha virt. eigenvalues --   -0.00008   0.00278   0.00288   0.00645   0.00787
 Alpha virt. eigenvalues --    0.00835   0.00936   0.01075   0.01177   0.01520
 Alpha virt. eigenvalues --    0.01606   0.01778   0.01907   0.01935   0.01979
 Alpha virt. eigenvalues --    0.02073   0.02302   0.02457   0.02589   0.02661
 Alpha virt. eigenvalues --    0.02691   0.02774   0.02852   0.02902   0.02970
 Alpha virt. eigenvalues --    0.03157   0.03274   0.03301   0.03582   0.03874
 Alpha virt. eigenvalues --    0.04391   0.04441   0.04729   0.04887   0.05100
 Alpha virt. eigenvalues --    0.05135   0.05575   0.05793   0.05943   0.06139
 Alpha virt. eigenvalues --    0.06285   0.06568   0.06885   0.07052   0.07295
 Alpha virt. eigenvalues --    0.07453   0.07818   0.08015   0.08174   0.08963
 Alpha virt. eigenvalues --    0.09027   0.09490   0.10942   0.11405   0.11547
 Alpha virt. eigenvalues --    0.11868   0.12221   0.13080   0.13370   0.13504
 Alpha virt. eigenvalues --    0.13874   0.14419   0.14670   0.14857   0.15082
 Alpha virt. eigenvalues --    0.15519   0.15917   0.16742   0.17964   0.19322
 Alpha virt. eigenvalues --    0.24327   0.26086   0.26810   0.27509   0.28292
 Alpha virt. eigenvalues --    0.29542   0.30470   0.30915   0.32137   0.33025
 Alpha virt. eigenvalues --    0.35132   0.35516   0.36033   0.37175   0.37694
 Alpha virt. eigenvalues --    0.38993   0.40304   0.41143   0.41243   0.42558
 Alpha virt. eigenvalues --    0.43231   0.43733   0.43738   0.44358   0.44765
 Alpha virt. eigenvalues --    0.45010   0.45199   0.45920   0.46674   0.47235
 Alpha virt. eigenvalues --    0.47541   0.47896   0.48382   0.48844   0.49102
 Alpha virt. eigenvalues --    0.50579   0.51360   0.52023   0.52214   0.53635
 Alpha virt. eigenvalues --    0.54455   0.56202   0.56675   0.59255   0.62972
 Alpha virt. eigenvalues --    0.64963   0.66540   0.67855   0.69561   0.70553
 Alpha virt. eigenvalues --    0.71550   0.72623   0.72853   0.76513   0.81798
 Alpha virt. eigenvalues --    0.82759   2.11113   2.14209   2.20248   2.21866
 Alpha virt. eigenvalues --    2.22451   2.29837   2.34655   4.39788   4.40277
 Alpha virt. eigenvalues --    4.41126   4.41227   4.42295   4.42572   4.43297
 Alpha virt. eigenvalues --    4.44192   4.45779   4.46056   4.51559   4.55753
 Alpha virt. eigenvalues --    4.56505   4.59699   4.63516   4.64172   4.69904
 Alpha virt. eigenvalues --    4.73387   4.73932   4.78458   4.85852  96.32132
 Alpha virt. eigenvalues --   96.36734  96.45207  96.47860  96.48331  96.57769
 Alpha virt. eigenvalues --   96.63803
  Beta  occ. eigenvalues --  -38.46602 -38.45094 -38.44932 -38.43620 -38.43168
  Beta  occ. eigenvalues --  -38.42898 -38.42583  -2.22558  -2.21041  -2.20778
  Beta  occ. eigenvalues --   -2.19592  -2.19310  -2.18970  -2.18658  -1.16283
  Beta  occ. eigenvalues --   -1.16200  -1.16166  -1.14791  -1.14694  -1.14664
  Beta  occ. eigenvalues --   -1.14522  -1.14452  -1.14430  -1.13369  -1.13259
  Beta  occ. eigenvalues --   -1.13215  -1.13046  -1.12986  -1.12955  -1.12673
  Beta  occ. eigenvalues --   -1.12622  -1.12573  -1.12354  -1.12307  -1.12230
  Beta  occ. eigenvalues --   -0.19137  -0.15267  -0.10413
  Beta virt. eigenvalues --   -0.07408  -0.07246  -0.05018  -0.04282  -0.02918
  Beta virt. eigenvalues --   -0.02586  -0.01446  -0.01201  -0.00692  -0.00456
  Beta virt. eigenvalues --   -0.00016   0.00138   0.00348   0.00463   0.00743
  Beta virt. eigenvalues --    0.00832   0.00893   0.01003   0.01139   0.01243
  Beta virt. eigenvalues --    0.01633   0.01681   0.01861   0.01945   0.02033
  Beta virt. eigenvalues --    0.02089   0.02129   0.02459   0.02568   0.02620
  Beta virt. eigenvalues --    0.02711   0.02752   0.02833   0.02886   0.02985
  Beta virt. eigenvalues --    0.03035   0.03198   0.03308   0.03344   0.03641
  Beta virt. eigenvalues --    0.03972   0.04518   0.04578   0.04810   0.05004
  Beta virt. eigenvalues --    0.05209   0.05284   0.05629   0.05884   0.05982
  Beta virt. eigenvalues --    0.06207   0.06289   0.06593   0.07001   0.07306
  Beta virt. eigenvalues --    0.07435   0.07594   0.07891   0.08107   0.08402
  Beta virt. eigenvalues --    0.09044   0.09253   0.09553   0.11154   0.11743
  Beta virt. eigenvalues --    0.11843   0.12100   0.12551   0.13223   0.13437
  Beta virt. eigenvalues --    0.13681   0.14038   0.14640   0.14950   0.15008
  Beta virt. eigenvalues --    0.15218   0.15742   0.16048   0.16855   0.18189
  Beta virt. eigenvalues --    0.19510   0.24503   0.26431   0.27100   0.27811
  Beta virt. eigenvalues --    0.28676   0.29911   0.30640   0.31209   0.32376
  Beta virt. eigenvalues --    0.33398   0.35334   0.35859   0.36427   0.37512
  Beta virt. eigenvalues --    0.38033   0.39319   0.40767   0.41398   0.41568
  Beta virt. eigenvalues --    0.42769   0.43367   0.43912   0.43940   0.44482
  Beta virt. eigenvalues --    0.44825   0.45230   0.45445   0.46111   0.46879
  Beta virt. eigenvalues --    0.47361   0.47704   0.48015   0.48528   0.48950
  Beta virt. eigenvalues --    0.49268   0.50756   0.51609   0.52218   0.52354
  Beta virt. eigenvalues --    0.53767   0.54661   0.56300   0.56756   0.59440
  Beta virt. eigenvalues --    0.63154   0.65218   0.66645   0.68072   0.69694
  Beta virt. eigenvalues --    0.70757   0.71633   0.72671   0.73090   0.76613
  Beta virt. eigenvalues --    0.81925   0.82839   2.11267   2.14376   2.20388
  Beta virt. eigenvalues --    2.21949   2.22517   2.29901   2.34817   4.39842
  Beta virt. eigenvalues --    4.40317   4.41185   4.41292   4.42360   4.42630
  Beta virt. eigenvalues --    4.43378   4.44260   4.45861   4.46123   4.51599
  Beta virt. eigenvalues --    4.55819   4.56563   4.59753   4.63580   4.64253
  Beta virt. eigenvalues --    4.69971   4.73411   4.73965   4.78501   4.85920
  Beta virt. eigenvalues --   96.32183  96.36794  96.45255  96.47891  96.48356
  Beta virt. eigenvalues --   96.57796  96.63861
          Condensed to atoms (all electrons):
               1          2          3          4          5          6
     1  Na  19.083306  -3.764089  -1.699829  -2.067155  -1.522027   1.112621
     2  Na  -3.764089  15.709583   0.039940   1.101564  -0.538054  -1.645768
     3  Na  -1.699829   0.039940  13.099320  -0.945644   1.231855  -0.461754
     4  Na  -2.067155   1.101564  -0.945644  14.820522  -0.785046  -0.599522
     5  Na  -1.522027  -0.538054   1.231855  -0.785046  13.813998  -1.104331
     6  Na   1.112621  -1.645768  -0.461754  -0.599522  -1.104331  13.102377
     7  Na   1.069799  -1.039852  -0.533692  -0.352074  -0.351765   0.838238
               7
     1  Na   1.069799
     2  Na  -1.039852
     3  Na  -0.533692
     4  Na  -0.352074
     5  Na  -0.351765
     6  Na   0.838238
     7  Na  11.404070
          Atomic-Atomic Spin Densities.
               1          2          3          4          5          6
     1  Na   0.378132  -0.388028   0.028000  -0.091514   0.015157   0.027222
     2  Na  -0.388028  -0.399814  -0.099192   0.040580   0.666544   0.170675
     3  Na   0.028000  -0.099192   0.277432  -0.295041   0.175808   0.184399
     4  Na  -0.091514   0.040580  -0.295041   0.405653  -0.057450  -0.164354
     5  Na   0.015157   0.666544   0.175808  -0.057450  -0.427900  -0.058739
     6  Na   0.027222   0.170675   0.184399  -0.164354  -0.058739   0.070791
     7  Na  -0.075570   0.151803   0.029486   0.192808  -0.066710  -0.101643
               7
     1  Na  -0.075570
     2  Na   0.151803
     3  Na   0.029486
     4  Na   0.192808
     5  Na  -0.066710
     6  Na  -0.101643
     7  Na   0.127222
 Mulliken charges and spin densities:
               1          2
     1  Na  -1.212624  -0.106600
     2  Na   1.136676   0.142568
     3  Na   0.269805   0.300892
     4  Na  -0.172644   0.030682
     5  Na   0.255370   0.246710
     6  Na  -0.241860   0.128351
     7  Na  -0.034723   0.257397
 Sum of Mulliken charges =  -0.00000   1.00000
 Mulliken charges and spin densities with hydrogens summed into heavy atoms:
               1          2
     1  Na  -1.212624  -0.106600
     2  Na   1.136676   0.142568
     3  Na   0.269805   0.300892
     4  Na  -0.172644   0.030682
     5  Na   0.255370   0.246710
     6  Na  -0.241860   0.128351
     7  Na  -0.034723   0.257397
 Electronic spatial extent (au):  <R**2>=           2330.7448
 Charge=             -0.0000 electrons
 Dipole moment (field-independent basis, Debye):
    X=              1.0661    Y=             -0.1636    Z=              0.0942  Tot=              1.0827
 Quadrupole moment (field-independent basis, Debye-Ang):
   XX=            -50.9282   YY=            -81.3976   ZZ=            -64.1164
   XY=              0.4039   XZ=             -5.9573   YZ=             -4.9673
 Traceless Quadrupole moment (field-independent basis, Debye-Ang):
   XX=             14.5525   YY=            -15.9169   ZZ=              1.3644
   XY=              0.4039   XZ=             -5.9573   YZ=             -4.9673
 Octapole moment (field-independent basis, Debye-Ang**2):
  XXX=             23.9636  YYY=              0.3114  ZZZ=              9.1725  XYY=            -11.2174
  XXY=             -5.5503  XXZ=            -25.8703  XZZ=             15.8334  YZZ=             -1.2857
  YYZ=             -1.2420  XYZ=             -1.7985
 Hexadecapole moment (field-independent basis, Debye-Ang**3):
 XXXX=          -2263.7572 YYYY=          -1019.7505 ZZZZ=           -605.2778 XXXY=             53.8848
 XXXZ=           -196.5264 YYYX=            -39.7642 YYYZ=            -35.5415 ZZZX=              1.5269
 ZZZY=            -29.3009 XXYY=           -581.1416 XXZZ=           -450.4022 YYZZ=           -281.1967
 XXYZ=            -53.7051 YYXZ=            -10.5406 ZZXY=             17.9690
 N-N= 3.619895437559D+02 E-N=-3.453190818802D+03  KE= 1.133266127856D+03
                          Isotropic Fermi Contact Couplings
        Atom                 a.u.       MegaHertz       Gauss      10(-4) cm-1
     1  Na(23)             0.17720     209.63325      74.80236      69.92613
     2  Na(23)            -0.03200     -37.86268     -13.51034     -12.62963
     3  Na(23)             0.19617     232.07881      82.81149      77.41316
     4  Na(23)            -0.01219     -14.41694      -5.14432      -4.80897
     5  Na(23)             0.02013      23.81092       8.49633       7.94247
     6  Na(23)             0.00754       8.91639       3.18159       2.97419
     7  Na(23)             0.30769     364.00650     129.88657     121.41950
 --------------------------------------------------------
       Center         ----  Spin Dipole Couplings  ----
                      3XX-RR        3YY-RR        3ZZ-RR
 --------------------------------------------------------
     1   Atom       -0.021205     -0.003316      0.024521
     2   Atom        0.005171     -0.024653      0.019482
     3   Atom        0.007417      0.001370     -0.008787
     4   Atom        0.001470     -0.021994      0.020525
     5   Atom        0.033716     -0.006292     -0.027424
     6   Atom        0.038523     -0.027526     -0.010998
     7   Atom       -0.002168      0.005004     -0.002836
 --------------------------------------------------------
                        XY            XZ            YZ
 --------------------------------------------------------
     1   Atom        0.001113      0.031390      0.005021
     2   Atom       -0.006223      0.031766     -0.016811
     3   Atom        0.000866     -0.001977      0.003167
     4   Atom       -0.018594      0.037751     -0.020882
     5   Atom        0.043568     -0.024539     -0.024565
     6   Atom        0.018945     -0.039548     -0.011377
     7   Atom       -0.006159      0.004903      0.001685
 --------------------------------------------------------


 ---------------------------------------------------------------------------------
              Anisotropic Spin Dipole Couplings in Principal Axis System
 ---------------------------------------------------------------------------------

       Atom             a.u.   MegaHertz   Gauss  10(-4) cm-1        Axes

              Baa    -0.0372    -5.257    -1.876    -1.753  0.8895  0.0382 -0.4553
     1 Na(23) Bbb    -0.0038    -0.540    -0.193    -0.180 -0.0847  0.9930 -0.0821
              Bcc     0.0411     5.797     2.068     1.934  0.4490  0.1116  0.8865
 
              Baa    -0.0313    -4.423    -1.578    -1.475 -0.2254  0.8741  0.4302
     2 Na(23) Bbb    -0.0175    -2.476    -0.883    -0.826  0.7724  0.4294 -0.4679
              Bcc     0.0489     6.899     2.462     2.301  0.5937 -0.2268  0.7720
 
              Baa    -0.0100    -1.406    -0.502    -0.469  0.1223 -0.2759  0.9534
     3 Na(23) Bbb     0.0023     0.319     0.114     0.107 -0.0520  0.9575  0.2838
              Bcc     0.0077     1.087     0.388     0.362  0.9911  0.0843 -0.1027
 
              Baa    -0.0322    -4.554    -1.625    -1.519  0.4783  0.8782  0.0054
     4 Na(23) Bbb    -0.0272    -3.847    -1.373    -1.283 -0.6535  0.3518  0.6702
              Bcc     0.0595     8.401     2.998     2.802  0.5867 -0.3241  0.7421
 
              Baa    -0.0440    -6.211    -2.216    -2.072 -0.1088  0.6280  0.7706
     5 Na(23) Bbb    -0.0292    -4.119    -1.470    -1.374  0.6098 -0.5700  0.5506
              Bcc     0.0731    10.330     3.686     3.446  0.7851  0.5298 -0.3210
 
              Baa    -0.0336    -4.743    -1.692    -1.582  0.2228  0.6564  0.7207
     6 Na(23) Bbb    -0.0321    -4.529    -1.616    -1.511 -0.4767  0.7183 -0.5068
              Bcc     0.0657     9.272     3.308     3.093  0.8504  0.2306 -0.4730
 
              Baa    -0.0096    -1.353    -0.483    -0.451  0.7060  0.3680 -0.6051
     7 Na(23) Bbb     0.0009     0.132     0.047     0.044  0.4736  0.3900  0.7897
              Bcc     0.0086     1.221     0.436     0.407 -0.5266  0.8441 -0.1010
 

 ---------------------------------------------------------------------------------

 No NMR shielding tensors so no spin-rotation constants.
 Leave Link  601 at Mon Nov 13 12:09:11 2023, MaxMem=  1879048192 cpu:               2.7 elap:               0.2
 (Enter /home/sekinelabo/g16/l701.exe)
 ... and contract with generalized density number  0.
 Compute integral first derivatives.
 Leave Link  701 at Mon Nov 13 12:09:11 2023, MaxMem=  1879048192 cpu:               1.7 elap:               0.1
 (Enter /home/sekinelabo/g16/l702.exe)
 L702 exits ... SP integral derivatives will be done elsewhere.
 Leave Link  702 at Mon Nov 13 12:09:11 2023, MaxMem=  1879048192 cpu:               0.5 elap:               0.0
 (Enter /home/sekinelabo/g16/l703.exe)
 Integral derivatives from FoFJK, PRISM(SPDF).
 Compute integral first derivatives, UseDBF=F ICtDFT=           0.
 Calling FoFJK, ICntrl=      2127 FMM=F ISym2X=0 I1Cent= 0 IOpClX= 1 NMat=1 NMatS=1 NMatT=0.
 FoFJK:  IHMeth= 1 ICntrl=    2127 DoSepK=F KAlg= 0 I1Cent=           0 FoldK=F
 IRaf=         0 NMat=       1 IRICut=       1 DoRegI=T DoRafI=F ISym2E= 0 IDoP0=0 IntGTp=1.
 FoFCou: FMM=F IPFlag=           0 FMFlag=      100000 FMFlg1=         800
         NFxFlg=           0 DoJE=F BraDBF=F KetDBF=F FulRan=T
         wScrn=  0.000000 ICntrl=      2127 IOpCl=  1 I1Cent=           0 NGrid=           0
         NMat0=    1 NMatS0=      1 NMatT0=    0 NMatD0=    1 NMtDS0=    0 NMtDT0=    0
 Symmetry not used in FoFCou.
 Leave Link  703 at Mon Nov 13 12:09:14 2023, MaxMem=  1879048192 cpu:              35.7 elap:               2.2
 (Enter /home/sekinelabo/g16/l716.exe)
 Dipole        = 4.19423076D-01-6.43603323D-02 3.70803795D-02
 ***** Axes restored to original set *****
 -------------------------------------------------------------------
 Center     Atomic                   Forces (Hartrees/Bohr)
 Number     Number              X              Y              Z
 -------------------------------------------------------------------
      1       11          -0.002297164   -0.015839594    0.001714685
      2       11           0.008933386   -0.003842229    0.005464702
      3       11           0.005706699   -0.003895993   -0.014540953
      4       11          -0.001719171    0.021399549    0.003523472
      5       11          -0.000803188    0.011607238    0.010799413
      6       11          -0.004732587   -0.014371761   -0.000549810
      7       11          -0.005087974    0.004942790   -0.006411510
 -------------------------------------------------------------------
 Cartesian Forces:  Max     0.021399549 RMS     0.008967428
 Z-matrix is all fixed cartesians, so copy forces.
 Force constants in Cartesian coordinates: 
                1             2             3             4             5 
      1  0.175251D+00
      2  0.269792D-02  0.197372D+00
      3 -0.428276D-02 -0.191479D-02  0.151045D+00
      4 -0.440790D-01  0.874059D-02 -0.123567D-01  0.866956D-01
      5 -0.221564D-01 -0.322457D-01 -0.137043D-01 -0.123383D-01  0.558350D-01
      6  0.199482D-02 -0.246738D-03 -0.333085D-01  0.243123D-01 -0.704820D-02
      7 -0.281973D-01  0.298598D-02  0.172558D-01 -0.118973D-01  0.150971D-02
      8 -0.118648D-01 -0.269460D-01  0.259936D-01  0.182995D-02 -0.323063D-02
      9  0.220418D-02 -0.154302D-02 -0.376392D-01  0.342222D-02 -0.104978D-02
     10 -0.260938D-01 -0.657997D-02  0.147440D-03 -0.267814D-01  0.305182D-01
     11 -0.190470D-02 -0.548527D-01 -0.151313D-02  0.116358D-04 -0.339849D-01
     12  0.188163D-02  0.177036D-02 -0.153908D-01 -0.911348D-02  0.205880D-01
     13 -0.298738D-01  0.324243D-02  0.676027D-02 -0.429461D-02  0.365786D-02
     14  0.106770D-01 -0.457173D-01 -0.168419D-01  0.359944D-02  0.732497D-02
     15 -0.298622D-02 -0.304852D-02 -0.289824D-01 -0.376763D-02  0.959961D-03
     16 -0.434846D-01 -0.169889D-01 -0.149056D-02  0.352880D-03 -0.117768D-02
     17  0.194305D-01 -0.417233D-01  0.435800D-02 -0.184355D-02  0.612974D-02
     18 -0.125761D-02  0.532322D-02 -0.396939D-01 -0.244489D-02  0.188063D-05
     19 -0.352262D-02  0.590195D-02 -0.603346D-02  0.383406D-05 -0.133816D-04
     20  0.312060D-02  0.411333D-02  0.362256D-02  0.000000D+00  0.171532D-03
     21  0.244596D-02 -0.340507D-03  0.396961D-02 -0.517596D-04  0.252438D-03
                6             7             8             9            10 
      6  0.747227D-01
      7 -0.288341D-01  0.565857D-01
      8  0.781840D-02 -0.218980D-02  0.493389D-01
      9 -0.445612D-01 -0.125058D-01  0.519647D-02  0.105199D+00
     10 -0.154621D-02 -0.159674D-01  0.988979D-02  0.620471D-02  0.104088D+00
     11  0.449457D-03 -0.272601D-02 -0.290779D-01 -0.126890D-02 -0.457136D-03
     12 -0.114760D-01  0.100010D-01 -0.362726D-01 -0.285083D-01 -0.101085D-01
     13  0.431742D-02 -0.904866D-03  0.268090D-02  0.547596D-03 -0.356370D-01
     14 -0.173047D-02  0.275505D-02  0.806450D-02 -0.287282D-03 -0.243428D-01
     15  0.480036D-02  0.806649D-02 -0.254911D-02  0.445051D-03  0.278326D-02
     16 -0.200798D-03  0.414868D-03 -0.353842D-03  0.165694D-03  0.208598D-02
     17  0.760247D-03 -0.234412D-02  0.195481D-02 -0.106534D-02 -0.818463D-02
     18  0.986125D-02  0.596411D-02 -0.105101D-03  0.504871D-02  0.555150D-03
     19 -0.434111D-04 -0.336612D-04  0.781712D-05 -0.386187D-04 -0.169478D-02
     20 -0.269384D-05  0.919591D-05 -0.103692D-03  0.178590D-04 -0.843480D-03
     21 -0.386326D-04  0.524295D-04 -0.816564D-04  0.164103D-04  0.196411D-02
               11            12            13            14            15 
     11  0.147532D+00
     12  0.858753D-02  0.755885D-01
     13  0.110168D-01  0.152432D-01  0.115469D+00
     14 -0.333275D-01  0.755699D-02  0.179569D-02  0.118404D+00
     15 -0.910437D-02 -0.311488D-01 -0.816016D-03  0.306147D-01  0.102218D+00
     16 -0.634103D-02 -0.319742D-02 -0.197654D-01 -0.239271D-02  0.447648D-02
     17  0.331853D-02 -0.162298D-04 -0.121625D-01 -0.418339D-01 -0.471858D-02
     18  0.332967D-02  0.556447D-02 -0.627161D-02 -0.232736D-01 -0.132722D-01
     19  0.400428D-03 -0.470646D-02 -0.249932D-01  0.790837D-02 -0.775636D-02
     20  0.392540D-03 -0.221413D-02 -0.102312D-01 -0.129151D-01 -0.121540D-01
     21 -0.480266D-03  0.537089D-02 -0.197808D-01  0.396155D-02 -0.340604D-01
               16            17            18            19            20 
     16  0.753039D-01
     17  0.956748D-02  0.108292D+00
     18  0.797616D-02 -0.498586D-02  0.410716D-01
     19 -0.149075D-01 -0.446312D-02 -0.452131D-02  0.451479D-01
     20  0.176867D-01 -0.361376D-01  0.197098D-01 -0.974207D-02  0.444790D-01
     21 -0.772955D-02  0.566776D-02 -0.857997D-02  0.230996D-01 -0.897932D-02
               21 
     21  0.333221D-01
 Leave Link  716 at Mon Nov 13 12:09:14 2023, MaxMem=  1879048192 cpu:               0.5 elap:               0.0
 (Enter /home/sekinelabo/g16/l103.exe)

 GradGradGradGradGradGradGradGradGradGradGradGradGradGradGradGradGradGrad
 Berny optimization.
 Search for a local minimum.
 Step number   1 out of a maximum of    2
 All quantities printed in internal units (Hartrees-Bohrs-Radians)
 Second derivative matrix not updated -- first step.
 ITU=  0
     Eigenvalues ---    0.01518   0.03142   0.05201   0.06288   0.10033
     Eigenvalues ---    0.10711   0.12165   0.13006   0.14092   0.14234
     Eigenvalues ---    0.17829   0.19019   0.21032   0.22182   0.24963
 Quadratic step=3.701D-01 exceeds max=3.000D-01 adjusted using Lamda=-1.659D-02.
 Angle between NR and scaled steps=   6.98 degrees.
 Angle between quadratic step and forces=  25.62 degrees.
 Linear search not attempted -- first point.
 B after Tr=     0.000000    0.000000    0.000000
         Rot=    1.000000    0.000000    0.000000    0.000000 Ang=   0.00 deg.
 Variable       Old X    -DE/DX   Delta X   Delta X   Delta X     New X
                                 (Linear)    (Quad)   (Total)
    X1        7.87536  -0.00230   0.00000   0.00756   0.00756   7.88292
    Y1        1.05847  -0.01584   0.00000  -0.06726  -0.06726   0.99120
    Z1        4.03582   0.00171   0.00000   0.02005   0.02005   4.05587
    X2       13.20018   0.00893   0.00000   0.10975   0.10975  13.30993
    Y2        2.51618  -0.00384   0.00000  -0.02165  -0.02165   2.49453
    Z2        5.33499   0.00546   0.00000   0.01813   0.01813   5.35311
    X3       11.35880   0.00571   0.00000   0.07790   0.07790  11.43670
    Y3        2.98349  -0.00390   0.00000  -0.02457  -0.02457   2.95891
    Z3        0.00000  -0.01454   0.00000  -0.09604  -0.09604  -0.09604
    X4        9.41373  -0.00172   0.00000   0.02389   0.02389   9.43762
    Y4        6.51342   0.02140   0.00000   0.11612   0.11612   6.62954
    Z4        3.98495   0.00352   0.00000   0.02977   0.02977   4.01472
    X5        4.22149  -0.00080   0.00000  -0.04896  -0.04896   4.17252
    Y5        5.05437   0.01161   0.00000   0.05782   0.05782   5.11218
    Z5        5.72829   0.01080   0.00000   0.07495   0.07495   5.80323
    X6        2.30299  -0.00473   0.00000  -0.08249  -0.08249   2.22050
    Y6        0.00000  -0.01437   0.00000  -0.10175  -0.10175  -0.10175
    Z6        4.01850  -0.00055   0.00000   0.01085   0.01085   4.02936
    X7        0.00000  -0.00509   0.00000  -0.08765  -0.08765  -0.08765
    Y7        4.75149   0.00494   0.00000   0.04130   0.04130   4.79279
    Z7        1.95490  -0.00641   0.00000  -0.05771  -0.05771   1.89718
         Item               Value     Threshold  Converged?
 Maximum Force            0.021400     0.000450     NO 
 RMS     Force            0.008967     0.000300     NO 
 Maximum Displacement     0.116124     0.001800     NO 
 RMS     Displacement     0.065471     0.001200     NO 
 Predicted change in Energy=-6.305340D-03
 GradGradGradGradGradGradGradGradGradGradGradGradGradGradGradGradGradGrad

 Leave Link  103 at Mon Nov 13 12:09:14 2023, MaxMem=  1879048192 cpu:               0.3 elap:               0.0
 (Enter /home/sekinelabo/g16/l9999.exe)
 1\1\GINC-SEKINELABO-XA7R-R37\Force\UB3LYP\6-311+G(d)\Na7(2)\SEKINELABO
 \13-Nov-2023\0\\#P B3LYP/6-311+g(d) force\\Gaussian input prepared by 
 ASE\\0,2\Na,4.1674604324,0.5601156913,2.1356632798\Na,6.9852326315,1.3
 315073429,2.8231543044\Na,6.0108162383,1.5787929428,0.\Na,4.9815313932
 ,3.4467539043,2.108745172\Na,2.2339144349,2.6746562155,3.0312788884\Na
 ,1.2186889365,0.,2.1265000375\Na,0.,2.5143794586,1.0344861238\\Version
 =ES64L-G16RevB.01\State=2-A\HF=-1136.0815147\S2=0.778029\S2-1=0.\S2A=0
 .750518\RMSD=4.696e-09\RMSF=8.967e-03\Dipole=0.4194231,0.0643603,-0.03
 70804\Quadrupole=10.8194518,-11.8338157,1.0143639,-0.3003067,4.4291434
 ,-3.6931022\PG=C01 [X(Na7)]\\@


 WE HAVE LEARNED THAT NOTHING IS SIMPLE AND
 RATIONAL EXCEPT WHAT WE OURSELVES HAVE INVENTED;
 THAT GOD THINKS IN TERMS NEITHER OF EUCLID OR RIEMANN; THAT SCIENCE HAS "EXPLAINED" NOTHING;
 THAT THE MORE WE KNOW THE MORE FANTASTIC THE WORLD BECOMES
 AND THE PROFOUNDER THE SURROUNDING DARKNESS.
   --  ALDOUS HUXLEY
 Job cpu time:       0 days  0 hours  5 minutes 47.8 seconds.
 Elapsed time:       0 days  0 hours  0 minutes 28.1 seconds.
 File lengths (MBytes):  RWF=     32 Int=      0 D2E=      0 Chk=      5 Scr=      1
 Normal termination of Gaussian 16 at Mon Nov 13 12:09:14 2023.
