 Entering Gaussian System, Link 0=g16
 Initial command:
 /home/sekinelabo/g16/l1.exe "/home/sekinelabo/g16temp/Gau-3980572.inp" -scrdir="/home/sekinelabo/g16temp/"
 Entering Link 1 = /home/sekinelabo/g16/l1.exe PID=   3980574.
  
 Copyright (c) 1988-2017, Gaussian, Inc.  All Rights Reserved.
  
 This is part of the Gaussian(R) 16 program.  It is based on
 the Gaussian(R) 09 system (copyright 2009, Gaussian, Inc.),
 the Gaussian(R) 03 system (copyright 2003, Gaussian, Inc.),
 the Gaussian(R) 98 system (copyright 1998, Gaussian, Inc.),
 the Gaussian(R) 94 system (copyright 1995, Gaussian, Inc.),
 the Gaussian 92(TM) system (copyright 1992, Gaussian, Inc.),
 the Gaussian 90(TM) system (copyright 1990, Gaussian, Inc.),
 the Gaussian 88(TM) system (copyright 1988, Gaussian, Inc.),
 the Gaussian 86(TM) system (copyright 1986, Carnegie Mellon
 University), and the Gaussian 82(TM) system (copyright 1983,
 Carnegie Mellon University). Gaussian is a federally registered
 trademark of Gaussian, Inc.
  
 This software contains proprietary and confidential information,
 including trade secrets, belonging to Gaussian, Inc.
  
 This software is provided under written license and may be
 used, copied, transmitted, or stored only in accord with that
 written license.
  
 The following legend is applicable only to US Government
 contracts under FAR:
  
                    RESTRICTED RIGHTS LEGEND
  
 Use, reproduction and disclosure by the US Government is
 subject to restrictions as set forth in subparagraphs (a)
 and (c) of the Commercial Computer Software - Restricted
 Rights clause in FAR 52.227-19.
  
 Gaussian, Inc.
 340 Quinnipiac St., Bldg. 40, Wallingford CT 06492
  
  
 ---------------------------------------------------------------
 Warning -- This program may not be used in any manner that
 competes with the business of Gaussian, Inc. or will provide
 assistance to any competitor of Gaussian, Inc.  The licensee
 of this program is prohibited from giving any competitor of
 Gaussian, Inc. access to this program.  By using this program,
 the user acknowledges that Gaussian, Inc. is engaged in the
 business of creating and licensing software in the field of
 computational chemistry and represents and warrants to the
 licensee that it is not a competitor of Gaussian, Inc. and that
 it will not use this program in any manner prohibited above.
 ---------------------------------------------------------------
  

 Cite this work as:
 Gaussian 16, Revision B.01,
 M. J. Frisch, G. W. Trucks, H. B. Schlegel, G. E. Scuseria, 
 M. A. Robb, J. R. Cheeseman, G. Scalmani, V. Barone, 
 G. A. Petersson, H. Nakatsuji, X. Li, M. Caricato, A. V. Marenich, 
 J. Bloino, B. G. Janesko, R. Gomperts, B. Mennucci, H. P. Hratchian, 
 J. V. Ortiz, A. F. Izmaylov, J. L. Sonnenberg, D. Williams-Young, 
 F. Ding, F. Lipparini, F. Egidi, J. Goings, B. Peng, A. Petrone, 
 T. Henderson, D. Ranasinghe, V. G. Zakrzewski, J. Gao, N. Rega, 
 G. Zheng, W. Liang, M. Hada, M. Ehara, K. Toyota, R. Fukuda, 
 J. Hasegawa, M. Ishida, T. Nakajima, Y. Honda, O. Kitao, H. Nakai, 
 T. Vreven, K. Throssell, J. A. Montgomery, Jr., J. E. Peralta, 
 F. Ogliaro, M. J. Bearpark, J. J. Heyd, E. N. Brothers, K. N. Kudin, 
 V. N. Staroverov, T. A. Keith, R. Kobayashi, J. Normand, 
 K. Raghavachari, A. P. Rendell, J. C. Burant, S. S. Iyengar, 
 J. Tomasi, M. Cossi, J. M. Millam, M. Klene, C. Adamo, R. Cammi, 
 J. W. Ochterski, R. L. Martin, K. Morokuma, O. Farkas, 
 J. B. Foresman, and D. J. Fox, Gaussian, Inc., Wallingford CT, 2016.
 
 ******************************************
 Gaussian 16:  ES64L-G16RevB.01 20-Dec-2017
                13-Nov-2023 
 ******************************************
 %mem=14GB
 %chk=checkpoint.chk
 %nprocshared=16
 Will use up to   16 processors via shared memory.
 -------------------------
 #P B3LYP/6-311+g(d) force
 -------------------------
 1/10=7,30=1,38=1/1,3;
 2/12=2,17=6,18=5,40=1/2;
 3/5=4,6=6,7=11,11=2,25=1,30=1,71=1,74=-5/1,2,3;
 4//1;
 5/5=2,38=5/2;
 6/7=2,8=2,9=2,10=2,28=1/1;
 7/29=1/1,2,3,16;
 1/10=7,30=1/3;
 99//99;
 Leave Link    1 at Mon Nov 13 12:17:40 2023, MaxMem=  1879048192 cpu:               0.6 elap:               0.0
 (Enter /home/sekinelabo/g16/l101.exe)
 ------------------------------
 Gaussian input prepared by ASE
 ------------------------------
 Symbolic Z-matrix:
 Charge =  0 Multiplicity = 2
 Na                    0.05583   0.        2.02649 
 Na                    4.37598   0.17865   2.15073 
 Na                    6.11741   2.19258   0.77139 
 Na                    4.31821   4.21308   2.06127 
 Na                    2.123     2.16401   2.25052 
 Na                    0.14717   2.20135   0. 
 Na                    0.        4.28821   2.14477 
 
 ITRead=  0  0  0  0  0  0  0
 MicOpt= -1 -1 -1 -1 -1 -1 -1
 NAtoms=      7 NQM=        7 NQMF=       0 NMMI=      0 NMMIF=      0
                NMic=       0 NMicF=      0.
                    Isotopes and Nuclear Properties:
 (Nuclear quadrupole moments (NQMom) in fm**2, nuclear magnetic moments (NMagM)
  in nuclear magnetons)

  Atom         1           2           3           4           5           6           7
 IAtWgt=          23          23          23          23          23          23          23
 AtmWgt=  22.9897697  22.9897697  22.9897697  22.9897697  22.9897697  22.9897697  22.9897697
 NucSpn=           3           3           3           3           3           3           3
 AtZEff=  -0.0000000  -0.0000000  -0.0000000  -0.0000000  -0.0000000  -0.0000000  -0.0000000
 NQMom=   10.4000000  10.4000000  10.4000000  10.4000000  10.4000000  10.4000000  10.4000000
 NMagM=    2.2175200   2.2175200   2.2175200   2.2175200   2.2175200   2.2175200   2.2175200
 AtZNuc=  11.0000000  11.0000000  11.0000000  11.0000000  11.0000000  11.0000000  11.0000000
 Leave Link  101 at Mon Nov 13 12:17:40 2023, MaxMem=  1879048192 cpu:               2.7 elap:               0.2
 (Enter /home/sekinelabo/g16/l103.exe)

 GradGradGradGradGradGradGradGradGradGradGradGradGradGradGradGradGradGrad
 Berny optimization.
 Initialization pass.
 Trust Radius=3.00D-01 FncErr=1.00D-07 GrdErr=1.00D-07 EigMax=2.50D+02 EigMin=1.00D-04
 Number of steps in this run=      2 maximum allowed number of steps=      2.
 GradGradGradGradGradGradGradGradGradGradGradGradGradGradGradGradGradGrad

 Leave Link  103 at Mon Nov 13 12:17:40 2023, MaxMem=  1879048192 cpu:               0.3 elap:               0.0
 (Enter /home/sekinelabo/g16/l202.exe)
                          Input orientation:                          
 ---------------------------------------------------------------------
 Center     Atomic      Atomic             Coordinates (Angstroms)
 Number     Number       Type             X           Y           Z
 ---------------------------------------------------------------------
      1         11           0        0.055825    0.000000    2.026487
      2         11           0        4.375980    0.178647    2.150735
      3         11           0        6.117408    2.192580    0.771388
      4         11           0        4.318209    4.213080    2.061274
      5         11           0        2.122996    2.164013    2.250518
      6         11           0        0.147174    2.201350    0.000000
      7         11           0        0.000000    4.288208    2.144768
 ---------------------------------------------------------------------
                    Distance matrix (angstroms):
                    1          2          3          4          5
     1  Na   0.000000
     2  Na   4.325631   0.000000
     3  Na   6.566998   2.998516   0.000000
     4  Na   5.993260   4.035838   2.997223   0.000000
     5  Na   3.001056   3.004592   4.259574   3.008894   0.000000
     6  Na   2.993482   5.157499   6.019868   5.068870   2.995013
     7  Na   4.290202   6.003143   6.610636   4.319669   3.005079
                    6          7
     6  Na   0.000000
     7  Na   2.996108   0.000000
 Stoichiometry    Na7(2)
 Framework group  C1[X(Na7)]
 Deg. of freedom    15
 Full point group                 C1      NOp   1
 Largest Abelian subgroup         C1      NOp   1
 Largest concise Abelian subgroup C1      NOp   1
                         Standard orientation:                         
 ---------------------------------------------------------------------
 Center     Atomic      Atomic             Coordinates (Angstroms)
 Number     Number       Type             X           Y           Z
 ---------------------------------------------------------------------
      1         11           0       -2.392402    2.176840   -0.397177
      2         11           0        1.927752    1.998193   -0.521425
      3         11           0        3.669181   -0.015740    0.857922
      4         11           0        1.869981   -2.036240   -0.431964
      5         11           0       -0.325231    0.012826   -0.621208
      6         11           0       -2.301054   -0.024511    1.629310
      7         11           0       -2.448227   -2.111368   -0.515458
 ---------------------------------------------------------------------
 Rotational constants (GHZ):           0.9994410           0.5178208           0.3987405
 Leave Link  202 at Mon Nov 13 12:17:40 2023, MaxMem=  1879048192 cpu:               0.0 elap:               0.0
 (Enter /home/sekinelabo/g16/l301.exe)
 Standard basis: 6-311+G(d) (5D, 7F)
 Ernie: Thresh=  0.10000D-02 Tol=  0.10000D-05 Strict=F.
 There are   217 symmetry adapted cartesian basis functions of A   symmetry.
 There are   210 symmetry adapted basis functions of A   symmetry.
   210 basis functions,   350 primitive gaussians,   217 cartesian basis functions
    39 alpha electrons       38 beta electrons
       nuclear repulsion energy       344.0099023211 Hartrees.
 IExCor=  402 DFT=T Ex+Corr=B3LYP ExCW=0 ScaHFX=  0.200000
 ScaDFX=  0.800000  0.720000  1.000000  0.810000 ScalE2=  1.000000  1.000000
 IRadAn=      5 IRanWt=     -1 IRanGd=            0 ICorTp=0 IEmpDi=  4
 NAtoms=    7 NActive=    7 NUniq=    7 SFac= 1.00D+00 NAtFMM=   60 NAOKFM=F Big=F
 Integral buffers will be    131072 words long.
 Raffenetti 2 integral format.
 Two-electron integral symmetry is turned on.
 Leave Link  301 at Mon Nov 13 12:17:40 2023, MaxMem=  1879048192 cpu:               0.5 elap:               0.0
 (Enter /home/sekinelabo/g16/l302.exe)
 NPDir=0 NMtPBC=     1 NCelOv=     1 NCel=       1 NClECP=     1 NCelD=      1
         NCelK=      1 NCelE2=     1 NClLst=     1 CellRange=     0.0.
 One-electron integrals computed using PRISM.
 One-electron integral symmetry used in STVInt
 NBasis=   210 RedAO= T EigKep=  1.81D-06  NBF=   210
 NBsUse=   209 1.00D-06 EigRej=  8.83D-07 NBFU=   209
 Precomputing XC quadrature grid using
 IXCGrd= 4 IRadAn=           5 IRanWt=          -1 IRanGd=           0 AccXCQ= 0.00D+00.
 Generated NRdTot=       0 NPtTot=           0 NUsed=           0 NTot=          32
 NSgBfM=   210   210   210   210   210 MxSgAt=     7 MxSgA2=     7.
 Leave Link  302 at Mon Nov 13 12:17:41 2023, MaxMem=  1879048192 cpu:               2.4 elap:               0.2
 (Enter /home/sekinelabo/g16/l303.exe)
 DipDrv:  MaxL=1.
 Leave Link  303 at Mon Nov 13 12:17:41 2023, MaxMem=  1879048192 cpu:               0.6 elap:               0.0
 (Enter /home/sekinelabo/g16/l401.exe)
 ExpMin= 7.60D-03 ExpMax= 3.62D+04 ExpMxC= 1.21D+03 IAcc=3 IRadAn=         5 AccDes= 0.00D+00
 Harris functional with IExCor=  402 and IRadAn=       5 diagonalized for initial guess.
 HarFok:  IExCor=  402 AccDes= 0.00D+00 IRadAn=         5 IDoV= 1 UseB2=F ITyADJ=14
 ICtDFT=  3500011 ScaDFX=  1.000000  1.000000  1.000000  1.000000
 FoFCou: FMM=F IPFlag=           0 FMFlag=      100000 FMFlg1=           0
         NFxFlg=           0 DoJE=T BraDBF=F KetDBF=T FulRan=T
         wScrn=  0.000000 ICntrl=       500 IOpCl=  0 I1Cent=   200000004 NGrid=           0
         NMat0=    1 NMatS0=      1 NMatT0=    0 NMatD0=    1 NMtDS0=    0 NMtDT0=    0
 Petite list used in FoFCou.
 Harris En= -1135.87312837805    
 JPrj=0 DoOrth=F DoCkMO=F.
 Initial guess <Sx>= 0.0000 <Sy>= 0.0000 <Sz>= 0.5000 <S**2>= 0.7500 S= 0.5000
 Leave Link  401 at Mon Nov 13 12:17:41 2023, MaxMem=  1879048192 cpu:               4.7 elap:               0.3
 (Enter /home/sekinelabo/g16/l502.exe)
 Keep R1 and R2 ints in memory in canonical form, NReq=507620374.
 FoFCou: FMM=F IPFlag=           0 FMFlag=           0 FMFlg1=           0
         NFxFlg=           0 DoJE=F BraDBF=F KetDBF=F FulRan=T
         wScrn=  0.000000 ICntrl=       600 IOpCl=  0 I1Cent=           0 NGrid=           0
         NMat0=    1 NMatS0=  22155 NMatT0=    0 NMatD0=    1 NMtDS0=    0 NMtDT0=    0
 Symmetry not used in FoFCou.
 Two-electron integral symmetry not used.
 UHF open shell SCF:
 Using DIIS extrapolation, IDIIS=  1040.
 NGot=  1879048192 LenX=  1388082362 LenY=  1388034832
 Requested convergence on RMS density matrix=1.00D-08 within 128 cycles.
 Requested convergence on MAX density matrix=1.00D-06.
 Requested convergence on             energy=1.00D-06.
 No special actions if energy rises.

 Cycle   1  Pass 1  IDiag  1:
 E= -1136.06511899333    
 DIIS: error= 9.45D-03 at cycle   1 NSaved=   1.
 NSaved= 1 IEnMin= 1 EnMin= -1136.06511899333     IErMin= 1 ErrMin= 9.45D-03
 ErrMax= 9.45D-03  0.00D+00 EMaxC= 1.00D-01 BMatC= 1.95D-01 BMatP= 1.95D-01
 IDIUse=3 WtCom= 9.05D-01 WtEn= 9.45D-02
 Coeff-Com:  0.100D+01
 Coeff-En:   0.100D+01
 Coeff:      0.100D+01
 Gap=     0.029 Goal=   None    Shift=    0.000
 Gap=     0.043 Goal=   None    Shift=    0.000
 GapD=    0.029 DampG=0.250 DampE=1.000 DampFc=0.2500 IDamp=-1.
 Damping current iteration by 2.50D-01
 RMSDP=5.90D-02 MaxDP=4.30D+00              OVMax= 2.40D-01

 Cycle   2  Pass 1  IDiag  1:
 E= -1136.07789598669     Delta-E=       -0.012776993357 Rises=F Damp=T
 DIIS: error= 7.00D-03 at cycle   2 NSaved=   2.
 NSaved= 2 IEnMin= 2 EnMin= -1136.07789598669     IErMin= 2 ErrMin= 7.00D-03
 ErrMax= 7.00D-03  0.00D+00 EMaxC= 1.00D-01 BMatC= 7.40D-02 BMatP= 1.95D-01
 IDIUse=3 WtCom= 9.30D-01 WtEn= 7.00D-02
 Coeff-Com: -0.126D+01 0.226D+01
 Coeff-En:   0.000D+00 0.100D+01
 Coeff:     -0.117D+01 0.217D+01
 Gap=     0.040 Goal=   None    Shift=    0.000
 Gap=     0.055 Goal=   None    Shift=    0.000
 RMSDP=1.98D-02 MaxDP=1.53D+00 DE=-1.28D-02 OVMax= 2.15D-01

 Cycle   3  Pass 1  IDiag  1:
 E= -1136.09678940669     Delta-E=       -0.018893420003 Rises=F Damp=F
 DIIS: error= 3.40D-03 at cycle   3 NSaved=   3.
 NSaved= 3 IEnMin= 3 EnMin= -1136.09678940669     IErMin= 3 ErrMin= 3.40D-03
 ErrMax= 3.40D-03  0.00D+00 EMaxC= 1.00D-01 BMatC= 5.13D-03 BMatP= 7.40D-02
 IDIUse=3 WtCom= 9.66D-01 WtEn= 3.40D-02
 Coeff-Com: -0.341D+00 0.592D+00 0.748D+00
 Coeff-En:   0.000D+00 0.000D+00 0.100D+01
 Coeff:     -0.329D+00 0.572D+00 0.757D+00
 Gap=     0.035 Goal=   None    Shift=    0.000
 Gap=     0.047 Goal=   None    Shift=    0.000
 RMSDP=1.98D-02 MaxDP=1.33D+00 DE=-1.89D-02 OVMax= 1.60D-01

 Cycle   4  Pass 1  IDiag  1:
 E= -1136.09306746574     Delta-E=        0.003721940951 Rises=F Damp=F
 DIIS: error= 6.41D-03 at cycle   4 NSaved=   4.
 NSaved= 4 IEnMin= 3 EnMin= -1136.09678940669     IErMin= 3 ErrMin= 3.40D-03
 ErrMax= 6.41D-03  0.00D+00 EMaxC= 1.00D-01 BMatC= 7.39D-03 BMatP= 5.13D-03
 IDIUse=3 WtCom= 1.11D-01 WtEn= 8.89D-01
 Coeff-Com: -0.396D-01 0.645D-01 0.540D+00 0.435D+00
 Coeff-En:   0.000D+00 0.000D+00 0.604D+00 0.396D+00
 Coeff:     -0.439D-02 0.716D-02 0.597D+00 0.400D+00
 Gap=     0.036 Goal=   None    Shift=    0.000
 Gap=     0.049 Goal=   None    Shift=    0.000
 RMSDP=6.06D-03 MaxDP=3.71D-01 DE= 3.72D-03 OVMax= 1.20D-01

 Cycle   5  Pass 1  IDiag  1:
 E= -1136.10132247625     Delta-E=       -0.008255010514 Rises=F Damp=F
 DIIS: error= 1.43D-03 at cycle   5 NSaved=   5.
 NSaved= 5 IEnMin= 5 EnMin= -1136.10132247625     IErMin= 5 ErrMin= 1.43D-03
 ErrMax= 1.43D-03  0.00D+00 EMaxC= 1.00D-01 BMatC= 6.67D-04 BMatP= 5.13D-03
 IDIUse=3 WtCom= 9.86D-01 WtEn= 1.43D-02
 Coeff-Com: -0.649D-03-0.151D-03 0.346D+00 0.252D+00 0.402D+00
 Coeff-En:   0.000D+00 0.000D+00 0.000D+00 0.000D+00 0.100D+01
 Coeff:     -0.640D-03-0.149D-03 0.341D+00 0.248D+00 0.411D+00
 Gap=     0.037 Goal=   None    Shift=    0.000
 Gap=     0.049 Goal=   None    Shift=    0.000
 RMSDP=2.01D-03 MaxDP=1.45D-01 DE=-8.26D-03 OVMax= 2.69D-02

 Cycle   6  Pass 1  IDiag  1:
 E= -1136.10192852972     Delta-E=       -0.000606053468 Rises=F Damp=F
 DIIS: error= 2.11D-04 at cycle   6 NSaved=   6.
 NSaved= 6 IEnMin= 6 EnMin= -1136.10192852972     IErMin= 6 ErrMin= 2.11D-04
 ErrMax= 2.11D-04  0.00D+00 EMaxC= 1.00D-01 BMatC= 1.09D-05 BMatP= 6.67D-04
 IDIUse=3 WtCom= 9.98D-01 WtEn= 2.11D-03
 Coeff-Com: -0.134D-02 0.134D-02-0.299D-01-0.387D-01 0.670D-01 0.100D+01
 Coeff-En:   0.000D+00 0.000D+00 0.000D+00 0.000D+00 0.000D+00 0.100D+01
 Coeff:     -0.134D-02 0.134D-02-0.298D-01-0.386D-01 0.668D-01 0.100D+01
 Gap=     0.037 Goal=   None    Shift=    0.000
 Gap=     0.049 Goal=   None    Shift=    0.000
 RMSDP=5.04D-04 MaxDP=3.76D-02 DE=-6.06D-04 OVMax= 6.81D-03

 Cycle   7  Pass 1  IDiag  1:
 E= -1136.10194992870     Delta-E=       -0.000021398976 Rises=F Damp=F
 DIIS: error= 7.31D-05 at cycle   7 NSaved=   7.
 NSaved= 7 IEnMin= 7 EnMin= -1136.10194992870     IErMin= 7 ErrMin= 7.31D-05
 ErrMax= 7.31D-05  0.00D+00 EMaxC= 1.00D-01 BMatC= 1.58D-06 BMatP= 1.09D-05
 IDIUse=1 WtCom= 1.00D+00 WtEn= 0.00D+00
 Coeff-Com: -0.718D-04-0.828D-04-0.343D-01-0.319D-01 0.115D-02 0.387D+00
 Coeff-Com:  0.678D+00
 Coeff:     -0.718D-04-0.828D-04-0.343D-01-0.319D-01 0.115D-02 0.387D+00
 Coeff:      0.678D+00
 Gap=     0.037 Goal=   None    Shift=    0.000
 Gap=     0.049 Goal=   None    Shift=    0.000
 RMSDP=1.24D-04 MaxDP=7.39D-03 DE=-2.14D-05 OVMax= 3.72D-03

 Cycle   8  Pass 1  IDiag  1:
 E= -1136.10195320437     Delta-E=       -0.000003275669 Rises=F Damp=F
 DIIS: error= 4.19D-05 at cycle   8 NSaved=   8.
 NSaved= 8 IEnMin= 8 EnMin= -1136.10195320437     IErMin= 8 ErrMin= 4.19D-05
 ErrMax= 4.19D-05  0.00D+00 EMaxC= 1.00D-01 BMatC= 3.76D-07 BMatP= 1.58D-06
 IDIUse=1 WtCom= 1.00D+00 WtEn= 0.00D+00
 Coeff-Com:  0.811D-03-0.103D-02-0.411D-03 0.479D-02-0.281D-01-0.270D+00
 Coeff-Com:  0.197D+00 0.110D+01
 Coeff:      0.811D-03-0.103D-02-0.411D-03 0.479D-02-0.281D-01-0.270D+00
 Coeff:      0.197D+00 0.110D+01
 Gap=     0.037 Goal=   None    Shift=    0.000
 Gap=     0.049 Goal=   None    Shift=    0.000
 RMSDP=1.49D-04 MaxDP=1.03D-02 DE=-3.28D-06 OVMax= 4.62D-03

 Cycle   9  Pass 1  IDiag  1:
 E= -1136.10195520070     Delta-E=       -0.000001996333 Rises=F Damp=F
 DIIS: error= 1.74D-05 at cycle   9 NSaved=   9.
 NSaved= 9 IEnMin= 9 EnMin= -1136.10195520070     IErMin= 9 ErrMin= 1.74D-05
 ErrMax= 1.74D-05  0.00D+00 EMaxC= 1.00D-01 BMatC= 4.59D-08 BMatP= 3.76D-07
 IDIUse=1 WtCom= 1.00D+00 WtEn= 0.00D+00
 Coeff-Com:  0.161D-03-0.187D-03 0.248D-02 0.237D-02-0.316D-02-0.365D-01
 Coeff-Com: -0.526D-01-0.454D-02 0.109D+01
 Coeff:      0.161D-03-0.187D-03 0.248D-02 0.237D-02-0.316D-02-0.365D-01
 Coeff:     -0.526D-01-0.454D-02 0.109D+01
 Gap=     0.037 Goal=   None    Shift=    0.000
 Gap=     0.049 Goal=   None    Shift=    0.000
 RMSDP=3.62D-05 MaxDP=2.39D-03 DE=-2.00D-06 OVMax= 2.07D-03

 Cycle  10  Pass 1  IDiag  1:
 E= -1136.10195559053     Delta-E=       -0.000000389829 Rises=F Damp=F
 DIIS: error= 1.57D-05 at cycle  10 NSaved=  10.
 NSaved=10 IEnMin=10 EnMin= -1136.10195559053     IErMin=10 ErrMin= 1.57D-05
 ErrMax= 1.57D-05  0.00D+00 EMaxC= 1.00D-01 BMatC= 2.05D-08 BMatP= 4.59D-08
 IDIUse=1 WtCom= 1.00D+00 WtEn= 0.00D+00
 Coeff-Com: -0.129D-03 0.174D-03 0.241D-02 0.108D-03 0.732D-02 0.405D-01
 Coeff-Com: -0.622D-01-0.259D+00 0.246D+00 0.102D+01
 Coeff:     -0.129D-03 0.174D-03 0.241D-02 0.108D-03 0.732D-02 0.405D-01
 Coeff:     -0.622D-01-0.259D+00 0.246D+00 0.102D+01
 Gap=     0.037 Goal=   None    Shift=    0.000
 Gap=     0.049 Goal=   None    Shift=    0.000
 RMSDP=2.40D-05 MaxDP=1.50D-03 DE=-3.90D-07 OVMax= 1.19D-03

 Cycle  11  Pass 1  IDiag  1:
 E= -1136.10195575946     Delta-E=       -0.000000168932 Rises=F Damp=F
 DIIS: error= 6.18D-06 at cycle  11 NSaved=  11.
 NSaved=11 IEnMin=11 EnMin= -1136.10195575946     IErMin=11 ErrMin= 6.18D-06
 ErrMax= 6.18D-06  0.00D+00 EMaxC= 1.00D-01 BMatC= 4.13D-09 BMatP= 2.05D-08
 IDIUse=1 WtCom= 1.00D+00 WtEn= 0.00D+00
 Coeff-Com: -0.937D-04 0.116D-03-0.325D-03-0.696D-03 0.275D-02 0.209D-01
 Coeff-Com: -0.420D-02-0.490D-01-0.214D+00 0.841D-01 0.116D+01
 Coeff:     -0.937D-04 0.116D-03-0.325D-03-0.696D-03 0.275D-02 0.209D-01
 Coeff:     -0.420D-02-0.490D-01-0.214D+00 0.841D-01 0.116D+01
 Gap=     0.037 Goal=   None    Shift=    0.000
 Gap=     0.049 Goal=   None    Shift=    0.000
 RMSDP=2.19D-05 MaxDP=1.31D-03 DE=-1.69D-07 OVMax= 7.49D-04

 Cycle  12  Pass 1  IDiag  1:
 E= -1136.10195581519     Delta-E=       -0.000000055726 Rises=F Damp=F
 DIIS: error= 3.66D-06 at cycle  12 NSaved=  12.
 NSaved=12 IEnMin=12 EnMin= -1136.10195581519     IErMin=12 ErrMin= 3.66D-06
 ErrMax= 3.66D-06  0.00D+00 EMaxC= 1.00D-01 BMatC= 1.42D-09 BMatP= 4.13D-09
 IDIUse=1 WtCom= 1.00D+00 WtEn= 0.00D+00
 Coeff-Com:  0.407D-05-0.760D-05-0.670D-03-0.847D-04-0.142D-02-0.442D-02
 Coeff-Com:  0.138D-01 0.419D-01-0.819D-01-0.237D+00 0.197D+00 0.107D+01
 Coeff:      0.407D-05-0.760D-05-0.670D-03-0.847D-04-0.142D-02-0.442D-02
 Coeff:      0.138D-01 0.419D-01-0.819D-01-0.237D+00 0.197D+00 0.107D+01
 Gap=     0.037 Goal=   None    Shift=    0.000
 Gap=     0.049 Goal=   None    Shift=    0.000
 RMSDP=1.29D-05 MaxDP=7.80D-04 DE=-5.57D-08 OVMax= 4.27D-04

 Cycle  13  Pass 1  IDiag  1:
 E= -1136.10195583186     Delta-E=       -0.000000016668 Rises=F Damp=F
 DIIS: error= 2.15D-06 at cycle  13 NSaved=  13.
 NSaved=13 IEnMin=13 EnMin= -1136.10195583186     IErMin=13 ErrMin= 2.15D-06
 ErrMax= 2.15D-06  0.00D+00 EMaxC= 1.00D-01 BMatC= 8.46D-10 BMatP= 1.42D-09
 IDIUse=1 WtCom= 1.00D+00 WtEn= 0.00D+00
 Coeff-Com:  0.318D-04-0.410D-04-0.351D-03 0.136D-03-0.174D-02-0.874D-02
 Coeff-Com:  0.104D-01 0.386D-01 0.357D-02-0.153D+00-0.207D+00 0.637D+00
 Coeff-Com:  0.681D+00
 Coeff:      0.318D-04-0.410D-04-0.351D-03 0.136D-03-0.174D-02-0.874D-02
 Coeff:      0.104D-01 0.386D-01 0.357D-02-0.153D+00-0.207D+00 0.637D+00
 Coeff:      0.681D+00
 Gap=     0.037 Goal=   None    Shift=    0.000
 Gap=     0.049 Goal=   None    Shift=    0.000
 RMSDP=5.71D-06 MaxDP=3.17D-04 DE=-1.67D-08 OVMax= 2.05D-04

 Cycle  14  Pass 1  IDiag  1:
 E= -1136.10195583729     Delta-E=       -0.000000005437 Rises=F Damp=F
 DIIS: error= 1.32D-06 at cycle  14 NSaved=  14.
 NSaved=14 IEnMin=14 EnMin= -1136.10195583729     IErMin=14 ErrMin= 1.32D-06
 ErrMax= 1.32D-06  0.00D+00 EMaxC= 1.00D-01 BMatC= 2.76D-10 BMatP= 8.46D-10
 IDIUse=1 WtCom= 1.00D+00 WtEn= 0.00D+00
 Coeff-Com:  0.184D-04-0.222D-04 0.292D-03 0.117D-03 0.133D-03-0.151D-02
 Coeff-Com: -0.443D-02-0.954D-02 0.506D-01 0.122D+00-0.242D+00-0.518D+00
 Coeff-Com:  0.319D+00 0.128D+01
 Coeff:      0.184D-04-0.222D-04 0.292D-03 0.117D-03 0.133D-03-0.151D-02
 Coeff:     -0.443D-02-0.954D-02 0.506D-01 0.122D+00-0.242D+00-0.518D+00
 Coeff:      0.319D+00 0.128D+01
 Gap=     0.037 Goal=   None    Shift=    0.000
 Gap=     0.049 Goal=   None    Shift=    0.000
 RMSDP=6.16D-06 MaxDP=2.92D-04 DE=-5.44D-09 OVMax= 2.49D-04

 Cycle  15  Pass 1  IDiag  1:
 E= -1136.10195584093     Delta-E=       -0.000000003638 Rises=F Damp=F
 DIIS: error= 3.80D-07 at cycle  15 NSaved=  15.
 NSaved=15 IEnMin=15 EnMin= -1136.10195584093     IErMin=15 ErrMin= 3.80D-07
 ErrMax= 3.80D-07  0.00D+00 EMaxC= 1.00D-01 BMatC= 3.35D-11 BMatP= 2.76D-10
 IDIUse=1 WtCom= 1.00D+00 WtEn= 0.00D+00
 Coeff-Com: -0.103D-04 0.135D-04 0.124D-03 0.327D-05 0.457D-03 0.178D-02
 Coeff-Com: -0.305D-02-0.636D-02-0.162D-02 0.280D-01 0.668D-01-0.168D+00
 Coeff-Com: -0.160D+00 0.510D-01 0.119D+01
 Coeff:     -0.103D-04 0.135D-04 0.124D-03 0.327D-05 0.457D-03 0.178D-02
 Coeff:     -0.305D-02-0.636D-02-0.162D-02 0.280D-01 0.668D-01-0.168D+00
 Coeff:     -0.160D+00 0.510D-01 0.119D+01
 Gap=     0.037 Goal=   None    Shift=    0.000
 Gap=     0.049 Goal=   None    Shift=    0.000
 RMSDP=1.86D-06 MaxDP=9.13D-05 DE=-3.64D-09 OVMax= 7.99D-05

 Cycle  16  Pass 1  IDiag  1:
 E= -1136.10195584134     Delta-E=       -0.000000000410 Rises=F Damp=F
 DIIS: error= 1.23D-07 at cycle  16 NSaved=  16.
 NSaved=16 IEnMin=16 EnMin= -1136.10195584134     IErMin=16 ErrMin= 1.23D-07
 ErrMax= 1.23D-07  0.00D+00 EMaxC= 1.00D-01 BMatC= 5.95D-12 BMatP= 3.35D-11
 IDIUse=1 WtCom= 1.00D+00 WtEn= 0.00D+00
 Coeff-Com: -0.682D-05 0.869D-05-0.960D-05-0.221D-04 0.110D-03 0.761D-03
 Coeff-Com:  0.115D-04-0.715D-03-0.783D-02-0.115D-01 0.550D-01 0.375D-01
 Coeff-Com: -0.962D-01-0.191D+00 0.337D+00 0.876D+00
 Coeff:     -0.682D-05 0.869D-05-0.960D-05-0.221D-04 0.110D-03 0.761D-03
 Coeff:      0.115D-04-0.715D-03-0.783D-02-0.115D-01 0.550D-01 0.375D-01
 Coeff:     -0.962D-01-0.191D+00 0.337D+00 0.876D+00
 Gap=     0.037 Goal=   None    Shift=    0.000
 Gap=     0.049 Goal=   None    Shift=    0.000
 RMSDP=5.65D-07 MaxDP=4.67D-05 DE=-4.10D-10 OVMax= 1.95D-05

 Cycle  17  Pass 1  IDiag  1:
 E= -1136.10195584137     Delta-E=       -0.000000000032 Rises=F Damp=F
 DIIS: error= 7.11D-08 at cycle  17 NSaved=  17.
 NSaved=17 IEnMin=17 EnMin= -1136.10195584137     IErMin=17 ErrMin= 7.11D-08
 ErrMax= 7.11D-08  0.00D+00 EMaxC= 1.00D-01 BMatC= 1.19D-12 BMatP= 5.95D-12
 IDIUse=1 WtCom= 1.00D+00 WtEn= 0.00D+00
 Coeff-Com:  0.825D-06-0.117D-05-0.266D-04 0.148D-05-0.858D-04-0.205D-03
 Coeff-Com:  0.545D-03 0.900D-03 0.167D-03-0.868D-02-0.533D-02 0.479D-01
 Coeff-Com:  0.607D-02-0.627D-01-0.125D+00 0.177D+00 0.969D+00
 Coeff:      0.825D-06-0.117D-05-0.266D-04 0.148D-05-0.858D-04-0.205D-03
 Coeff:      0.545D-03 0.900D-03 0.167D-03-0.868D-02-0.533D-02 0.479D-01
 Coeff:      0.607D-02-0.627D-01-0.125D+00 0.177D+00 0.969D+00
 Gap=     0.037 Goal=   None    Shift=    0.000
 Gap=     0.049 Goal=   None    Shift=    0.000
 RMSDP=2.15D-07 MaxDP=1.33D-05 DE=-3.23D-11 OVMax= 7.85D-06

 Cycle  18  Pass 1  IDiag  1:
 E= -1136.10195584138     Delta-E=       -0.000000000004 Rises=F Damp=F
 DIIS: error= 1.49D-08 at cycle  18 NSaved=  18.
 NSaved=18 IEnMin=18 EnMin= -1136.10195584138     IErMin=18 ErrMin= 1.49D-08
 ErrMax= 1.49D-08  0.00D+00 EMaxC= 1.00D-01 BMatC= 8.59D-14 BMatP= 1.19D-12
 IDIUse=1 WtCom= 1.00D+00 WtEn= 0.00D+00
 Coeff-Com:  0.115D-05-0.148D-05 0.126D-06 0.850D-06-0.110D-04-0.843D-04
 Coeff-Com: -0.457D-04 0.192D-03 0.636D-03 0.184D-02-0.614D-02-0.750D-02
 Coeff-Com:  0.111D-01 0.298D-01-0.424D-01-0.102D+00-0.109D+00 0.122D+01
 Coeff:      0.115D-05-0.148D-05 0.126D-06 0.850D-06-0.110D-04-0.843D-04
 Coeff:     -0.457D-04 0.192D-03 0.636D-03 0.184D-02-0.614D-02-0.750D-02
 Coeff:      0.111D-01 0.298D-01-0.424D-01-0.102D+00-0.109D+00 0.122D+01
 Gap=     0.037 Goal=   None    Shift=    0.000
 Gap=     0.049 Goal=   None    Shift=    0.000
 RMSDP=1.07D-07 MaxDP=5.84D-06 DE=-3.64D-12 OVMax= 1.96D-06

 Cycle  19  Pass 1  IDiag  1:
 E= -1136.10195584138     Delta-E=       -0.000000000002 Rises=F Damp=F
 DIIS: error= 7.95D-09 at cycle  19 NSaved=  19.
 NSaved=19 IEnMin=19 EnMin= -1136.10195584138     IErMin=19 ErrMin= 7.95D-09
 ErrMax= 7.95D-09  0.00D+00 EMaxC= 1.00D-01 BMatC= 1.38D-14 BMatP= 8.59D-14
 IDIUse=1 WtCom= 1.00D+00 WtEn= 0.00D+00
 Coeff-Com: -0.291D-06 0.393D-06 0.234D-05-0.692D-06 0.109D-04 0.397D-04
 Coeff-Com: -0.384D-04-0.141D-03-0.234D-03 0.894D-03 0.150D-02-0.461D-02
 Coeff-Com: -0.211D-02 0.441D-02 0.155D-01-0.926D-02-0.903D-01-0.125D+00
 Coeff-Com:  0.121D+01
 Coeff:     -0.291D-06 0.393D-06 0.234D-05-0.692D-06 0.109D-04 0.397D-04
 Coeff:     -0.384D-04-0.141D-03-0.234D-03 0.894D-03 0.150D-02-0.461D-02
 Coeff:     -0.211D-02 0.441D-02 0.155D-01-0.926D-02-0.903D-01-0.125D+00
 Coeff:      0.121D+01
 Gap=     0.037 Goal=   None    Shift=    0.000
 Gap=     0.049 Goal=   None    Shift=    0.000
 RMSDP=3.79D-08 MaxDP=2.36D-06 DE=-1.59D-12 OVMax= 7.46D-07

 Cycle  20  Pass 1  IDiag  1:
 E= -1136.10195584138     Delta-E=       -0.000000000002 Rises=F Damp=F
 DIIS: error= 4.65D-09 at cycle  20 NSaved=  20.
 NSaved=20 IEnMin=20 EnMin= -1136.10195584138     IErMin=20 ErrMin= 4.65D-09
 ErrMax= 4.65D-09  0.00D+00 EMaxC= 1.00D-01 BMatC= 4.24D-15 BMatP= 1.38D-14
 IDIUse=1 WtCom= 1.00D+00 WtEn= 0.00D+00
 Large coefficients: NSaved= 20 BigCof=    0.00 CofMax=   10.00 Det=-3.31D-15
 Inversion failed.  Reducing to 19 matrices.
 Large coefficients: NSaved= 19 BigCof=    0.00 CofMax=   10.00 Det=-3.60D-15
 Inversion failed.  Reducing to 18 matrices.
 Large coefficients: NSaved= 18 BigCof=    0.00 CofMax=   10.00 Det=-3.63D-15
 Inversion failed.  Reducing to 17 matrices.
 Large coefficients: NSaved= 17 BigCof=    0.00 CofMax=   10.00 Det=-3.66D-15
 Inversion failed.  Reducing to 16 matrices.
 Large coefficients: NSaved= 16 BigCof=    0.00 CofMax=   10.00 Det=-4.23D-15
 Inversion failed.  Reducing to 15 matrices.
 Coeff-Com:  0.204D-05 0.324D-05-0.146D-04 0.449D-04-0.216D-03 0.306D-03
 Coeff-Com:  0.659D-03-0.997D-03-0.194D-02 0.387D-02 0.926D-02 0.215D-01
 Coeff-Com: -0.163D+00-0.142D+00 0.127D+01
 Coeff:      0.204D-05 0.324D-05-0.146D-04 0.449D-04-0.216D-03 0.306D-03
 Coeff:      0.659D-03-0.997D-03-0.194D-02 0.387D-02 0.926D-02 0.215D-01
 Coeff:     -0.163D+00-0.142D+00 0.127D+01
 Gap=     0.037 Goal=   None    Shift=    0.000
 Gap=     0.049 Goal=   None    Shift=    0.000
 RMSDP=1.58D-08 MaxDP=5.68D-07 DE=-2.05D-12 OVMax= 4.70D-07

 Cycle  21  Pass 1  IDiag  1:
 E= -1136.10195584138     Delta-E=       -0.000000000001 Rises=F Damp=F
 DIIS: error= 2.25D-09 at cycle  21 NSaved=  16.
 NSaved=16 IEnMin=16 EnMin= -1136.10195584138     IErMin=16 ErrMin= 2.25D-09
 ErrMax= 2.25D-09  0.00D+00 EMaxC= 1.00D-01 BMatC= 1.64D-15 BMatP= 4.24D-15
 IDIUse=1 WtCom= 1.00D+00 WtEn= 0.00D+00
 Large coefficients: NSaved= 16 BigCof=    0.00 CofMax=   10.00 Det=-1.53D-15
 Inversion failed.  Reducing to 15 matrices.
 Coeff-Com:  0.289D-05 0.478D-06-0.291D-05-0.184D-03 0.202D-03 0.930D-03
 Coeff-Com: -0.547D-03-0.217D-02 0.450D-03 0.906D-02 0.199D-01-0.416D-01
 Coeff-Com: -0.301D+00 0.270D+00 0.104D+01
 Coeff:      0.289D-05 0.478D-06-0.291D-05-0.184D-03 0.202D-03 0.930D-03
 Coeff:     -0.547D-03-0.217D-02 0.450D-03 0.906D-02 0.199D-01-0.416D-01
 Coeff:     -0.301D+00 0.270D+00 0.104D+01
 Gap=     0.037 Goal=   None    Shift=    0.000
 Gap=     0.049 Goal=   None    Shift=    0.000
 RMSDP=1.42D-08 MaxDP=8.03D-07 DE=-9.09D-13 OVMax= 3.29D-07

 Cycle  22  Pass 1  IDiag  1:
 E= -1136.10195584139     Delta-E=       -0.000000000005 Rises=F Damp=F
 DIIS: error= 1.14D-09 at cycle  22 NSaved=  16.
 NSaved=16 IEnMin=16 EnMin= -1136.10195584139     IErMin=16 ErrMin= 1.14D-09
 ErrMax= 1.14D-09  0.00D+00 EMaxC= 1.00D-01 BMatC= 4.85D-16 BMatP= 1.64D-15
 IDIUse=1 WtCom= 1.00D+00 WtEn= 0.00D+00
 Large coefficients: NSaved= 16 BigCof=    0.00 CofMax=   10.00 Det=-7.37D-16
 Inversion failed.  Reducing to 15 matrices.
 Coeff-Com: -0.246D-05 0.136D-04 0.425D-04-0.229D-03 0.118D-03 0.394D-03
 Coeff-Com:  0.253D-03-0.216D-02-0.172D-02-0.103D-02 0.650D-01-0.579D-01
 Coeff-Com: -0.376D+00 0.273D+00 0.110D+01
 Coeff:     -0.246D-05 0.136D-04 0.425D-04-0.229D-03 0.118D-03 0.394D-03
 Coeff:      0.253D-03-0.216D-02-0.172D-02-0.103D-02 0.650D-01-0.579D-01
 Coeff:     -0.376D+00 0.273D+00 0.110D+01
 Gap=     0.037 Goal=   None    Shift=    0.000
 Gap=     0.049 Goal=   None    Shift=    0.000
 RMSDP=8.71D-09 MaxDP=4.33D-07 DE=-4.55D-12 OVMax= 2.47D-07

 SCF Done:  E(UB3LYP) =  -1136.10195584     A.U. after   22 cycles
            NFock= 22  Conv=0.87D-08     -V/T= 2.0026
 <Sx>= 0.0000 <Sy>= 0.0000 <Sz>= 0.5000 <S**2>= 0.7657 S= 0.5078
 <L.S>= 0.000000000000E+00
 KE= 1.133125320429D+03 PE=-3.417316249321D+03 EE= 8.040790707295D+02
 Annihilation of the first spin contaminant:
 S**2 before annihilation     0.7657,   after     0.7502
 Leave Link  502 at Mon Nov 13 12:18:00 2023, MaxMem=  1879048192 cpu:             223.0 elap:              18.8
 (Enter /home/sekinelabo/g16/l601.exe)
 Copying SCF densities to generalized density rwf, IOpCl= 1 IROHF=0.

 **********************************************************************

            Population analysis using the SCF Density.

 **********************************************************************

 Orbital symmetries:
 Alpha Orbitals:
       Occupied  (A) (A) (A) (A) (A) (A) (A) (A) (A) (A) (A) (A)
                 (A) (A) (A) (A) (A) (A) (A) (A) (A) (A) (A) (A)
                 (A) (A) (A) (A) (A) (A) (A) (A) (A) (A) (A) (A)
                 (A) (A) (A)
       Virtual   (A) (A) (A) (A) (A) (A) (A) (A) (A) (A) (A) (A)
                 (A) (A) (A) (A) (A) (A) (A) (A) (A) (A) (A) (A)
                 (A) (A) (A) (A) (A) (A) (A) (A) (A) (A) (A) (A)
                 (A) (A) (A) (A) (A) (A) (A) (A) (A) (A) (A) (A)
                 (A) (A) (A) (A) (A) (A) (A) (A) (A) (A) (A) (A)
                 (A) (A) (A) (A) (A) (A) (A) (A) (A) (A) (A) (A)
                 (A) (A) (A) (A) (A) (A) (A) (A) (A) (A) (A) (A)
                 (A) (A) (A) (A) (A) (A) (A) (A) (A) (A) (A) (A)
                 (A) (A) (A) (A) (A) (A) (A) (A) (A) (A) (A) (A)
                 (A) (A) (A) (A) (A) (A) (A) (A) (A) (A) (A) (A)
                 (A) (A) (A) (A) (A) (A) (A) (A) (A) (A) (A) (A)
                 (A) (A) (A) (A) (A) (A) (A) (A) (A) (A) (A) (A)
                 (A) (A) (A) (A) (A) (A) (A) (A) (A) (A) (A) (A)
                 (A) (A) (A) (A) (A) (A) (A) (A) (A) (A) (A) (A)
                 (A) (A)
 Beta  Orbitals:
       Occupied  (A) (A) (A) (A) (A) (A) (A) (A) (A) (A) (A) (A)
                 (A) (A) (A) (A) (A) (A) (A) (A) (A) (A) (A) (A)
                 (A) (A) (A) (A) (A) (A) (A) (A) (A) (A) (A) (A)
                 (A) (A)
       Virtual   (A) (A) (A) (A) (A) (A) (A) (A) (A) (A) (A) (A)
                 (A) (A) (A) (A) (A) (A) (A) (A) (A) (A) (A) (A)
                 (A) (A) (A) (A) (A) (A) (A) (A) (A) (A) (A) (A)
                 (A) (A) (A) (A) (A) (A) (A) (A) (A) (A) (A) (A)
                 (A) (A) (A) (A) (A) (A) (A) (A) (A) (A) (A) (A)
                 (A) (A) (A) (A) (A) (A) (A) (A) (A) (A) (A) (A)
                 (A) (A) (A) (A) (A) (A) (A) (A) (A) (A) (A) (A)
                 (A) (A) (A) (A) (A) (A) (A) (A) (A) (A) (A) (A)
                 (A) (A) (A) (A) (A) (A) (A) (A) (A) (A) (A) (A)
                 (A) (A) (A) (A) (A) (A) (A) (A) (A) (A) (A) (A)
                 (A) (A) (A) (A) (A) (A) (A) (A) (A) (A) (A) (A)
                 (A) (A) (A) (A) (A) (A) (A) (A) (A) (A) (A) (A)
                 (A) (A) (A) (A) (A) (A) (A) (A) (A) (A) (A) (A)
                 (A) (A) (A) (A) (A) (A) (A) (A) (A) (A) (A) (A)
                 (A) (A) (A)
 The electronic state is 2-A.
 Alpha  occ. eigenvalues --  -38.44351 -38.44332 -38.44298 -38.44237 -38.44177
 Alpha  occ. eigenvalues --  -38.44051 -38.42616  -2.20240  -2.20238  -2.20221
 Alpha  occ. eigenvalues --   -2.20185  -2.20067  -2.19969  -2.18846  -1.14043
 Alpha  occ. eigenvalues --   -1.13981  -1.13967  -1.13951  -1.13936  -1.13933
 Alpha  occ. eigenvalues --   -1.13893  -1.13874  -1.13869  -1.13847  -1.13795
 Alpha  occ. eigenvalues --   -1.13762  -1.13744  -1.13690  -1.13654  -1.13591
 Alpha  occ. eigenvalues --   -1.13584  -1.13554  -1.12538  -1.12505  -1.12442
 Alpha  occ. eigenvalues --   -0.18763  -0.15042  -0.11839  -0.10139
 Alpha virt. eigenvalues --   -0.06413  -0.05905  -0.04213  -0.03657  -0.02390
 Alpha virt. eigenvalues --   -0.02249  -0.01479  -0.01407  -0.00665  -0.00042
 Alpha virt. eigenvalues --   -0.00005   0.00265   0.00559   0.00594   0.00687
 Alpha virt. eigenvalues --    0.00766   0.00974   0.01213   0.01325   0.01345
 Alpha virt. eigenvalues --    0.01522   0.01672   0.01798   0.01845   0.02120
 Alpha virt. eigenvalues --    0.02249   0.02306   0.02438   0.02603   0.02643
 Alpha virt. eigenvalues --    0.02714   0.02816   0.02894   0.02934   0.03080
 Alpha virt. eigenvalues --    0.03291   0.03648   0.03671   0.03801   0.03870
 Alpha virt. eigenvalues --    0.04112   0.04199   0.04482   0.04613   0.04786
 Alpha virt. eigenvalues --    0.05150   0.05196   0.05757   0.05951   0.06099
 Alpha virt. eigenvalues --    0.06840   0.06863   0.07057   0.07248   0.07600
 Alpha virt. eigenvalues --    0.07628   0.08341   0.08442   0.08513   0.09389
 Alpha virt. eigenvalues --    0.09549   0.10361   0.10622   0.10876   0.10997
 Alpha virt. eigenvalues --    0.11562   0.12379   0.12475   0.13669   0.13765
 Alpha virt. eigenvalues --    0.13922   0.14062   0.14509   0.14941   0.15131
 Alpha virt. eigenvalues --    0.16833   0.16952   0.18770   0.19941   0.23191
 Alpha virt. eigenvalues --    0.25578   0.27576   0.28643   0.29143   0.29414
 Alpha virt. eigenvalues --    0.30882   0.31169   0.31578   0.33592   0.33751
 Alpha virt. eigenvalues --    0.35068   0.35703   0.36295   0.38048   0.38263
 Alpha virt. eigenvalues --    0.39533   0.41243   0.41797   0.42567   0.43343
 Alpha virt. eigenvalues --    0.43438   0.43985   0.44252   0.44554   0.45069
 Alpha virt. eigenvalues --    0.45434   0.45710   0.45900   0.46771   0.47046
 Alpha virt. eigenvalues --    0.47454   0.48405   0.48657   0.49299   0.49687
 Alpha virt. eigenvalues --    0.49797   0.50854   0.51327   0.51746   0.52694
 Alpha virt. eigenvalues --    0.53459   0.53766   0.54774   0.56968   0.57392
 Alpha virt. eigenvalues --    0.58767   0.65790   0.66705   0.69195   0.70224
 Alpha virt. eigenvalues --    0.72850   0.74530   0.74982   0.77936   0.86501
 Alpha virt. eigenvalues --    2.07663   2.12352   2.17731   2.18582   2.19361
 Alpha virt. eigenvalues --    2.23493   2.34534   4.40908   4.41548   4.41986
 Alpha virt. eigenvalues --    4.42584   4.42692   4.43609   4.44380   4.45212
 Alpha virt. eigenvalues --    4.45905   4.47194   4.47473   4.48048   4.55097
 Alpha virt. eigenvalues --    4.56449   4.62605   4.63154   4.67303   4.67802
 Alpha virt. eigenvalues --    4.71729   4.72146   4.78336  96.28152  96.34196
 Alpha virt. eigenvalues --   96.41099  96.42389  96.44078  96.49522  96.63516
  Beta  occ. eigenvalues --  -38.44337 -38.44316 -38.44295 -38.44183 -38.44174
  Beta  occ. eigenvalues --  -38.43996 -38.42558  -2.20218  -2.20197  -2.20186
  Beta  occ. eigenvalues --   -2.20136  -2.20066  -2.19866  -2.18746  -1.14013
  Beta  occ. eigenvalues --   -1.13959  -1.13939  -1.13923  -1.13888  -1.13872
  Beta  occ. eigenvalues --   -1.13861  -1.13855  -1.13836  -1.13819  -1.13786
  Beta  occ. eigenvalues --   -1.13746  -1.13708  -1.13679  -1.13621  -1.13524
  Beta  occ. eigenvalues --   -1.13513  -1.13495  -1.12478  -1.12418  -1.12361
  Beta  occ. eigenvalues --   -0.18201  -0.14550  -0.11486
  Beta virt. eigenvalues --   -0.06589  -0.06309  -0.05645  -0.03701  -0.03433
  Beta virt. eigenvalues --   -0.02125  -0.01705  -0.01375  -0.00851  -0.00557
  Beta virt. eigenvalues --    0.00033   0.00193   0.00389   0.00664   0.00755
  Beta virt. eigenvalues --    0.00760   0.00919   0.01089   0.01267   0.01415
  Beta virt. eigenvalues --    0.01465   0.01627   0.01816   0.01834   0.01948
  Beta virt. eigenvalues --    0.02182   0.02361   0.02423   0.02457   0.02674
  Beta virt. eigenvalues --    0.02701   0.02840   0.02924   0.02935   0.03000
  Beta virt. eigenvalues --    0.03094   0.03367   0.03683   0.03837   0.03876
  Beta virt. eigenvalues --    0.03983   0.04202   0.04311   0.04557   0.04602
  Beta virt. eigenvalues --    0.04941   0.05252   0.05275   0.05852   0.06097
  Beta virt. eigenvalues --    0.06199   0.06922   0.06961   0.07089   0.07248
  Beta virt. eigenvalues --    0.07714   0.07896   0.08500   0.08567   0.08686
  Beta virt. eigenvalues --    0.09609   0.09679   0.10597   0.10681   0.11099
  Beta virt. eigenvalues --    0.11326   0.11880   0.12400   0.12560   0.13980
  Beta virt. eigenvalues --    0.14015   0.14219   0.14336   0.14717   0.14956
  Beta virt. eigenvalues --    0.15282   0.17093   0.17174   0.19021   0.20026
  Beta virt. eigenvalues --    0.23416   0.25968   0.27862   0.29030   0.29393
  Beta virt. eigenvalues --    0.29670   0.31121   0.31541   0.31936   0.33697
  Beta virt. eigenvalues --    0.33943   0.35401   0.36068   0.36552   0.38192
  Beta virt. eigenvalues --    0.38648   0.39718   0.41231   0.42018   0.42757
  Beta virt. eigenvalues --    0.43477   0.43654   0.44129   0.44316   0.44675
  Beta virt. eigenvalues --    0.45293   0.45545   0.45916   0.46143   0.46887
  Beta virt. eigenvalues --    0.47283   0.47573   0.48475   0.48923   0.49464
  Beta virt. eigenvalues --    0.49749   0.50060   0.51015   0.51515   0.51942
  Beta virt. eigenvalues --    0.52926   0.53623   0.53887   0.55053   0.57163
  Beta virt. eigenvalues --    0.57624   0.59012   0.65926   0.67069   0.69336
  Beta virt. eigenvalues --    0.70285   0.72914   0.74772   0.75187   0.78191
  Beta virt. eigenvalues --    0.86715   2.07724   2.12466   2.17724   2.18589
  Beta virt. eigenvalues --    2.19550   2.23666   2.34762   4.40960   4.41616
  Beta virt. eigenvalues --    4.42052   4.42643   4.42755   4.43681   4.44434
  Beta virt. eigenvalues --    4.45205   4.45960   4.47230   4.47488   4.48061
  Beta virt. eigenvalues --    4.55181   4.56481   4.62655   4.63222   4.67372
  Beta virt. eigenvalues --    4.67833   4.71758   4.72216   4.78391  96.28178
  Beta virt. eigenvalues --   96.34236  96.41105  96.42396  96.44136  96.49578
  Beta virt. eigenvalues --   96.63587
          Condensed to atoms (all electrons):
               1          2          3          4          5          6
     1  Na  13.024719   0.952108   0.204295  -1.379553  -0.278098   0.025680
     2  Na   0.952108  10.864241   0.163883  -0.476557   0.232206  -0.266819
     3  Na   0.204295   0.163883  10.680334  -0.034366  -0.059693  -0.086158
     4  Na  -1.379553  -0.476557  -0.034366  11.391890  -0.049345  -0.052999
     5  Na  -0.278098   0.232206  -0.059693  -0.049345  13.772218  -0.527898
     6  Na   0.025680  -0.266819  -0.086158  -0.052999  -0.527898  11.793898
     7  Na  -2.066659  -0.750938  -0.153757   1.283844  -0.517411   0.402489
               7
     1  Na  -2.066659
     2  Na  -0.750938
     3  Na  -0.153757
     4  Na   1.283844
     5  Na  -0.517411
     6  Na   0.402489
     7  Na  12.344191
          Atomic-Atomic Spin Densities.
               1          2          3          4          5          6
     1  Na   0.208232   0.205247   0.028876  -0.213889   0.109575  -0.150524
     2  Na   0.205247   0.152655  -0.010912  -0.159243   0.011197  -0.059067
     3  Na   0.028876  -0.010912   0.190846  -0.038470   0.061518   0.133961
     4  Na  -0.213889  -0.159243  -0.038470   0.213699  -0.146376   0.103200
     5  Na   0.109575   0.011197   0.061518  -0.146376   0.283739   0.242592
     6  Na  -0.150524  -0.059067   0.133961   0.103200   0.242592   0.031266
     7  Na  -0.222189  -0.155867  -0.018244   0.223222  -0.174475   0.092449
               7
     1  Na  -0.222189
     2  Na  -0.155867
     3  Na  -0.018244
     4  Na   0.223222
     5  Na  -0.174475
     6  Na   0.092449
     7  Na   0.194400
 Mulliken charges and spin densities:
               1          2
     1  Na   0.517508  -0.034672
     2  Na   0.281875  -0.015989
     3  Na   0.285462   0.347575
     4  Na   0.317085  -0.017857
     5  Na  -1.571978   0.387770
     6  Na  -0.288193   0.393877
     7  Na   0.458240  -0.060704
 Sum of Mulliken charges =  -0.00000   1.00000
 Mulliken charges and spin densities with hydrogens summed into heavy atoms:
               1          2
     1  Na   0.517508  -0.034672
     2  Na   0.281875  -0.015989
     3  Na   0.285462   0.347575
     4  Na   0.317085  -0.017857
     5  Na  -1.571978   0.387770
     6  Na  -0.288193   0.393877
     7  Na   0.458240  -0.060704
 Electronic spatial extent (au):  <R**2>=           2495.1009
 Charge=             -0.0000 electrons
 Dipole moment (field-independent basis, Debye):
    X=             -0.3787    Y=             -0.0194    Z=             -0.2505  Tot=              0.4545
 Quadrupole moment (field-independent basis, Debye-Ang):
   XX=            -60.2560   YY=            -66.5864   ZZ=            -70.1844
   XY=              0.5891   XZ=              2.7034   YZ=             -0.0494
 Traceless Quadrupole moment (field-independent basis, Debye-Ang):
   XX=              5.4196   YY=             -0.9108   ZZ=             -4.5088
   XY=              0.5891   XZ=              2.7034   YZ=             -0.0494
 Octapole moment (field-independent basis, Debye-Ang**2):
  XXX=             -8.1060  YYY=              0.7427  ZZZ=              8.0449  XYY=             -4.7789
  XXY=              0.5296  XXZ=            -19.9136  XZZ=             -6.2403  YZZ=             -0.7042
  YYZ=            -15.8366  XYZ=             -0.3058
 Hexadecapole moment (field-independent basis, Debye-Ang**3):
 XXXX=          -2494.3816 YYYY=          -1296.4040 ZZZZ=           -562.1523 XXXY=             16.9515
 XXXZ=             81.8347 YYYX=             -2.7358 YYYZ=              0.5426 ZZZX=             -6.3103
 ZZZY=             -0.8114 XXYY=           -531.9285 XXZZ=           -491.7302 YYZZ=           -330.1128
 XXYZ=              1.1657 YYXZ=             12.5801 ZZXY=              4.9962
 N-N= 3.440099023211D+02 E-N=-3.417316249214D+03  KE= 1.133125320429D+03
                          Isotropic Fermi Contact Couplings
        Atom                 a.u.       MegaHertz       Gauss      10(-4) cm-1
     1  Na(23)            -0.04125     -48.79764     -17.41221     -16.27714
     2  Na(23)             0.00974      11.52729       4.11322       3.84509
     3  Na(23)             0.24569     290.65688     103.71360      96.95270
     4  Na(23)            -0.00196      -2.31778      -0.82704      -0.77313
     5  Na(23)             0.20280     239.91773      85.60861      80.02794
     6  Na(23)             0.23646     279.74461      99.81983      93.31276
     7  Na(23)            -0.03534     -41.81279     -14.91984     -13.94725
 --------------------------------------------------------
       Center         ----  Spin Dipole Couplings  ----
                      3XX-RR        3YY-RR        3ZZ-RR
 --------------------------------------------------------
     1   Atom        0.008833     -0.021399      0.012566
     2   Atom        0.027657     -0.025256     -0.002401
     3   Atom       -0.001615      0.001701     -0.000086
     4   Atom        0.027459     -0.026172     -0.001287
     5   Atom       -0.025388      0.004704      0.020684
     6   Atom        0.012226     -0.004008     -0.008218
     7   Atom        0.010307     -0.021165      0.010858
 --------------------------------------------------------
                        XY            XZ            YZ
 --------------------------------------------------------
     1   Atom        0.004608     -0.029955     -0.007064
     2   Atom        0.008079      0.033617      0.004568
     3   Atom       -0.000375     -0.002642     -0.000298
     4   Atom       -0.008148      0.035799     -0.004799
     5   Atom        0.002294     -0.021897      0.000544
     6   Atom       -0.001718     -0.001936      0.000806
     7   Atom       -0.003578     -0.029321      0.005652
 --------------------------------------------------------


 ---------------------------------------------------------------------------------
              Anisotropic Spin Dipole Couplings in Principal Axis System
 ---------------------------------------------------------------------------------

       Atom             a.u.   MegaHertz   Gauss  10(-4) cm-1        Axes

              Baa    -0.0231    -3.257    -1.162    -1.086  0.1831  0.9235  0.3371
     1 Na(23) Bbb    -0.0187    -2.646    -0.944    -0.883  0.7132 -0.3608  0.6010
              Bcc     0.0418     5.903     2.106     1.969 -0.6766 -0.1303  0.7247
 
              Baa    -0.0265    -3.745    -1.336    -1.249 -0.2256  0.9653  0.1316
     2 Na(23) Bbb    -0.0241    -3.398    -1.212    -1.133 -0.5046 -0.2313  0.8318
              Bcc     0.0506     7.143     2.549     2.383  0.8334  0.1213  0.5392
 
              Baa    -0.0036    -0.515    -0.184    -0.172  0.7961  0.0892  0.5986
     3 Na(23) Bbb     0.0017     0.246     0.088     0.082 -0.1210  0.9926  0.0130
              Bcc     0.0019     0.269     0.096     0.090 -0.5930 -0.0828  0.8009
 
              Baa    -0.0275    -3.879    -1.384    -1.294  0.2524  0.9525 -0.1705
     4 Na(23) Bbb    -0.0253    -3.575    -1.276    -1.193 -0.5088  0.2806  0.8139
              Bcc     0.0528     7.455     2.660     2.487  0.8231 -0.1187  0.5554
 
              Baa    -0.0343    -4.840    -1.727    -1.614  0.9271 -0.0597  0.3700
     5 Na(23) Bbb     0.0048     0.683     0.244     0.228  0.0503  0.9981  0.0352
              Bcc     0.0294     4.157     1.483     1.387 -0.3714 -0.0141  0.9284
 
              Baa    -0.0085    -1.200    -0.428    -0.400  0.0800 -0.1465  0.9860
     6 Na(23) Bbb    -0.0041    -0.580    -0.207    -0.193  0.1196  0.9834  0.1364
              Bcc     0.0126     1.779     0.635     0.594  0.9896 -0.1070 -0.0962
 
              Baa    -0.0224    -3.165    -1.129    -1.056 -0.1891  0.9269 -0.3241
     7 Na(23) Bbb    -0.0182    -2.568    -0.916    -0.857  0.6906  0.3601  0.6272
              Bcc     0.0406     5.733     2.046     1.912 -0.6981  0.1053  0.7083
 

 ---------------------------------------------------------------------------------

 No NMR shielding tensors so no spin-rotation constants.
 Leave Link  601 at Mon Nov 13 12:18:00 2023, MaxMem=  1879048192 cpu:               2.6 elap:               0.2
 (Enter /home/sekinelabo/g16/l701.exe)
 ... and contract with generalized density number  0.
 Compute integral first derivatives.
 Leave Link  701 at Mon Nov 13 12:18:00 2023, MaxMem=  1879048192 cpu:               2.1 elap:               0.1
 (Enter /home/sekinelabo/g16/l702.exe)
 L702 exits ... SP integral derivatives will be done elsewhere.
 Leave Link  702 at Mon Nov 13 12:18:00 2023, MaxMem=  1879048192 cpu:               0.4 elap:               0.0
 (Enter /home/sekinelabo/g16/l703.exe)
 Integral derivatives from FoFJK, PRISM(SPDF).
 Compute integral first derivatives, UseDBF=F ICtDFT=           0.
 Calling FoFJK, ICntrl=      2127 FMM=F ISym2X=0 I1Cent= 0 IOpClX= 1 NMat=1 NMatS=1 NMatT=0.
 FoFJK:  IHMeth= 1 ICntrl=    2127 DoSepK=F KAlg= 0 I1Cent=           0 FoldK=F
 IRaf=         0 NMat=       1 IRICut=       1 DoRegI=T DoRafI=F ISym2E= 0 IDoP0=0 IntGTp=1.
 FoFCou: FMM=F IPFlag=           0 FMFlag=      100000 FMFlg1=         800
         NFxFlg=           0 DoJE=F BraDBF=F KetDBF=F FulRan=T
         wScrn=  0.000000 ICntrl=      2127 IOpCl=  1 I1Cent=           0 NGrid=           0
         NMat0=    1 NMatS0=      1 NMatT0=    0 NMatD0=    1 NMtDS0=    0 NMtDT0=    0
 Symmetry not used in FoFCou.
 Leave Link  703 at Mon Nov 13 12:18:03 2023, MaxMem=  1879048192 cpu:              35.0 elap:               2.2
 (Enter /home/sekinelabo/g16/l716.exe)
 Dipole        =-1.48988534D-01-7.64838956D-03-9.85639413D-02
 ***** Axes restored to original set *****
 -------------------------------------------------------------------
 Center     Atomic                   Forces (Hartrees/Bohr)
 Number     Number              X              Y              Z
 -------------------------------------------------------------------
      1       11          -0.000735378   -0.009386373    0.003200935
      2       11          -0.003046610   -0.007594016    0.002870097
      3       11           0.006973563    0.000152691   -0.006109277
      4       11          -0.003121073    0.007623153    0.002619449
      5       11           0.004666199   -0.000098980    0.007212810
      6       11          -0.004095483    0.000268674   -0.013354616
      7       11          -0.000641218    0.009034852    0.003560602
 -------------------------------------------------------------------
 Cartesian Forces:  Max     0.013354616 RMS     0.005767263
 Z-matrix is all fixed cartesians, so copy forces.
 Force constants in Cartesian coordinates: 
                1             2             3             4             5 
      1  0.388821D-01
      2  0.964880D-02  0.642086D-01
      3  0.405193D-02 -0.167206D-01  0.424257D-01
      4 -0.379766D-02  0.360310D-02  0.237675D-03  0.599752D-01
      5 -0.426581D-02  0.405955D-02  0.148328D-03  0.883471D-02  0.895613D-01
      6 -0.870638D-03  0.581646D-03  0.241515D-02 -0.319778D-02 -0.510456D-02
      7 -0.105323D-03  0.104623D-03 -0.387704D-04 -0.210326D-01  0.244148D-02
      8  0.856398D-04 -0.895038D-04  0.743439D-04 -0.174385D-01 -0.281684D-01
      9 -0.282771D-03  0.280807D-03 -0.103264D-03  0.141880D-01  0.378294D-02
     10  0.526382D-02 -0.507455D-02  0.447157D-03  0.391996D-02  0.187892D-02
     11 -0.565992D-02  0.534861D-02  0.560409D-03 -0.133519D-02 -0.186071D-01
     12 -0.223748D-03 -0.951438D-03  0.112549D-01 -0.290227D-02  0.432244D-02
     13 -0.408176D-01  0.389775D-02 -0.877680D-02 -0.466020D-01 -0.173815D-01
     14 -0.680995D-02 -0.417534D-01 -0.767595D-02 -0.480574D-02 -0.589404D-01
     15  0.380926D-02  0.709635D-02 -0.336193D-01 -0.149214D-01 -0.947808D-02
     16 -0.360499D-02 -0.806924D-02  0.431975D-02 -0.107759D-02 -0.100481D-02
     17  0.258454D-02 -0.240051D-01  0.276550D-01  0.225241D-02  0.233409D-02
     18 -0.638705D-02  0.647597D-02 -0.291975D-01  0.983433D-03  0.920889D-03
     19  0.417966D-02 -0.411048D-02 -0.240937D-03  0.861464D-02  0.949705D-02
     20  0.441669D-02 -0.776872D-02 -0.404154D-02  0.888919D-02  0.976093D-02
     21 -0.969785D-04  0.323728D-02  0.682440D-02  0.561236D-02  0.540804D-02
                6             7             8             9            10 
      6  0.464220D-01
      7  0.107465D-01  0.488883D-01
      8  0.164388D-01 -0.667770D-03  0.494107D-01
      9 -0.138677D-01 -0.289714D-01 -0.956903D-03  0.243801D-01
     10 -0.279507D-02 -0.214891D-01  0.182535D-01  0.136005D-01  0.566919D-01
     11 -0.365598D-02 -0.173944D-02 -0.285838D-01 -0.279412D-02 -0.653660D-02
     12  0.103480D-03  0.114454D-01 -0.155718D-01 -0.127192D-01 -0.893850D-02
     13 -0.509198D-02 -0.610604D-02 -0.104247D-03  0.188774D-02 -0.393396D-01
     14 -0.191714D-01 -0.599469D-05  0.759825D-02  0.493937D-04 -0.218239D-02
     15 -0.580724D-01  0.693803D-02  0.203293D-03  0.263725D-02 -0.382761D-02
     16 -0.433824D-02 -0.300899D-04 -0.267701D-05 -0.813099D-04 -0.122386D-02
     17  0.441568D-02  0.000000D+00 -0.319920D-04 -0.175071D-05 -0.254183D-02
     18  0.388198D-02  0.264102D-04  0.181950D-05  0.713563D-04  0.103230D-02
     19  0.554719D-02 -0.125267D-03 -0.125925D-03 -0.340717D-03 -0.382313D-02
     20  0.649580D-02 -0.132475D-03 -0.135290D-03 -0.360364D-03 -0.379701D-02
     21  0.191175D-01 -0.146215D-03 -0.189540D-03 -0.398516D-03  0.481207D-03
               11            12            13            14            15 
     11  0.861080D-01
     12  0.874058D-02  0.368497D-01
     13  0.102936D-01  0.526884D-02  0.207453D+00
     14 -0.505818D-01  0.860247D-02  0.140039D-01  0.216407D+00
     15 -0.174186D-02 -0.410372D-01  0.338615D-01  0.221130D-01  0.220557D+00
     16  0.935702D-03 -0.406518D-02 -0.267373D-01  0.750188D-03 -0.196517D-01
     17  0.229271D-02 -0.466037D-02  0.347656D-03 -0.231922D-01  0.532026D-03
     18 -0.783454D-03  0.349167D-02 -0.794591D-02  0.201403D-03 -0.421018D-01
     19  0.404181D-02 -0.584592D-03 -0.478510D-01 -0.950047D-03 -0.620806D-02
     20  0.402332D-02 -0.481872D-03 -0.110572D-01 -0.495379D-01 -0.187247D-01
     21 -0.325579D-03  0.205670D-02 -0.192033D-01 -0.411894D-02 -0.483638D-01
               16            17            18            19            20 
     16  0.364627D-01
     17 -0.836003D-03  0.645863D-01
     18  0.185973D-01 -0.677023D-03  0.946098D-01
     19 -0.378894D-02 -0.180635D-02 -0.630644D-02  0.427940D-01
     20  0.822684D-02 -0.219838D-01 -0.613961D-02 -0.654607D-02  0.656414D-01
     21  0.521940D-02 -0.272636D-01 -0.307555D-01  0.813356D-02  0.232523D-01
               21 
     21  0.515192D-01
 Leave Link  716 at Mon Nov 13 12:18:03 2023, MaxMem=  1879048192 cpu:               0.5 elap:               0.0
 (Enter /home/sekinelabo/g16/l103.exe)

 GradGradGradGradGradGradGradGradGradGradGradGradGradGradGradGradGradGrad
 Berny optimization.
 Search for a local minimum.
 Step number   1 out of a maximum of    2
 All quantities printed in internal units (Hartrees-Bohrs-Radians)
 Second derivative matrix not updated -- first step.
 ITU=  0
     Eigenvalues ---    0.00843   0.02396   0.03304   0.03760   0.04947
     Eigenvalues ---    0.05388   0.07323   0.09998   0.10454   0.10540
     Eigenvalues ---    0.11708   0.12827   0.22254   0.25267   0.32758
 Quadratic step=3.008D-01 exceeds max=3.000D-01 adjusted using Lamda= 0.000D+00.
 Angle between NR and scaled steps=   0.00 degrees.
 Angle between quadratic step and forces=  29.71 degrees.
 Linear search not attempted -- first point.
 B after Tr=    -0.000000    0.000000    0.000000
         Rot=    1.000000    0.000000    0.000000    0.000000 Ang=   0.00 deg.
 Variable       Old X    -DE/DX   Delta X   Delta X   Delta X     New X
                                 (Linear)    (Quad)   (Total)
    X1        0.10549  -0.00074   0.00000  -0.01946  -0.01946   0.08604
    Y1        0.00000  -0.00939   0.00000  -0.13710  -0.13710  -0.13710
    Z1        3.82951   0.00320   0.00000   0.00143   0.00143   3.83094
    X2        8.26940  -0.00305   0.00000   0.02101   0.02101   8.29041
    Y2        0.33759  -0.00759   0.00000  -0.07164  -0.07164   0.26595
    Z2        4.06430   0.00287   0.00000   0.06171   0.06171   4.12600
    X3       11.56023   0.00697   0.00000   0.07705   0.07705  11.63727
    Y3        4.14338   0.00015   0.00000   0.00356   0.00356   4.14694
    Z3        1.45771  -0.00611   0.00000  -0.09322  -0.09322   1.36450
    X4        8.16023  -0.00312   0.00000   0.02162   0.02162   8.18185
    Y4        7.96157   0.00762   0.00000   0.07221   0.07221   8.03377
    Z4        3.89524   0.00262   0.00000   0.06753   0.06753   3.96277
    X5        4.01188   0.00467   0.00000   0.00413   0.00413   4.01602
    Y5        4.08939  -0.00010   0.00000  -0.00094  -0.00094   4.08845
    Z5        4.25286   0.00721   0.00000   0.05036   0.05036   4.30323
    X6        0.27812  -0.00410   0.00000  -0.08862  -0.08862   0.18950
    Y6        4.15995   0.00027   0.00000  -0.00205  -0.00205   4.15790
    Z6        0.00000  -0.01335   0.00000  -0.08893  -0.08893  -0.08893
    X7        0.00000  -0.00064   0.00000  -0.01574  -0.01574  -0.01574
    Y7        8.10354   0.00903   0.00000   0.13595   0.13595   8.23949
    Z7        4.05302   0.00356   0.00000   0.00112   0.00112   4.05414
         Item               Value     Threshold  Converged?
 Maximum Force            0.013355     0.000450     NO 
 RMS     Force            0.005767     0.000300     NO 
 Maximum Displacement     0.137096     0.001800     NO 
 RMS     Displacement     0.065644     0.001200     NO 
 Predicted change in Energy=-3.452563D-03
 GradGradGradGradGradGradGradGradGradGradGradGradGradGradGradGradGradGrad

 Leave Link  103 at Mon Nov 13 12:18:03 2023, MaxMem=  1879048192 cpu:               0.3 elap:               0.0
 (Enter /home/sekinelabo/g16/l9999.exe)
 1\1\GINC-SEKINELABO-XA7R-R37\Force\UB3LYP\6-311+G(d)\Na7(2)\SEKINELABO
 \13-Nov-2023\0\\#P B3LYP/6-311+g(d) force\\Gaussian input prepared by 
 ASE\\0,2\Na,0.0558254639,0.,2.0264868429\Na,4.3759798873,0.178646592,2
 .1507346272\Na,6.1174079833,2.1925799589,0.7713876014\Na,4.3182086339,
 4.2130797872,2.0612743789\Na,2.12299637,2.1640132134,2.2505179269\Na,0
 .147173588,2.2013502329,0.\Na,0.,4.2882080714,2.1447678132\\Version=ES
 64L-G16RevB.01\State=2-A\HF=-1136.1019558\S2=0.765695\S2-1=0.\S2A=0.75
 0166\RMSD=8.713e-09\RMSF=5.767e-03\Dipole=-0.1489885,0.0076484,0.09856
 39\Quadrupole=4.0293244,-0.6771691,-3.3521553,-0.4379579,-2.0099239,-0
 .0367224\PG=C01 [X(Na7)]\\@


      LET US REMEMBER, PLEASE, THAT THE SEARCH FOR THE CONSTITUTION
      OF THE WORLD IS ONE OF THE GREATEST AND NOBLEST PROBLEMS PRESENTED 
      BY NATURE.

                                                  -- GALILEO
 Job cpu time:       0 days  0 hours  4 minutes 36.4 seconds.
 Elapsed time:       0 days  0 hours  0 minutes 22.2 seconds.
 File lengths (MBytes):  RWF=     32 Int=      0 D2E=      0 Chk=      5 Scr=      1
 Normal termination of Gaussian 16 at Mon Nov 13 12:18:03 2023.
