 Entering Gaussian System, Link 0=g16
 Initial command:
 /home/sekinelabo/g16/l1.exe "/home/sekinelabo/g16temp/Gau-3987748.inp" -scrdir="/home/sekinelabo/g16temp/"
 Entering Link 1 = /home/sekinelabo/g16/l1.exe PID=   3987750.
  
 Copyright (c) 1988-2017, Gaussian, Inc.  All Rights Reserved.
  
 This is part of the Gaussian(R) 16 program.  It is based on
 the Gaussian(R) 09 system (copyright 2009, Gaussian, Inc.),
 the Gaussian(R) 03 system (copyright 2003, Gaussian, Inc.),
 the Gaussian(R) 98 system (copyright 1998, Gaussian, Inc.),
 the Gaussian(R) 94 system (copyright 1995, Gaussian, Inc.),
 the Gaussian 92(TM) system (copyright 1992, Gaussian, Inc.),
 the Gaussian 90(TM) system (copyright 1990, Gaussian, Inc.),
 the Gaussian 88(TM) system (copyright 1988, Gaussian, Inc.),
 the Gaussian 86(TM) system (copyright 1986, Carnegie Mellon
 University), and the Gaussian 82(TM) system (copyright 1983,
 Carnegie Mellon University). Gaussian is a federally registered
 trademark of Gaussian, Inc.
  
 This software contains proprietary and confidential information,
 including trade secrets, belonging to Gaussian, Inc.
  
 This software is provided under written license and may be
 used, copied, transmitted, or stored only in accord with that
 written license.
  
 The following legend is applicable only to US Government
 contracts under FAR:
  
                    RESTRICTED RIGHTS LEGEND
  
 Use, reproduction and disclosure by the US Government is
 subject to restrictions as set forth in subparagraphs (a)
 and (c) of the Commercial Computer Software - Restricted
 Rights clause in FAR 52.227-19.
  
 Gaussian, Inc.
 340 Quinnipiac St., Bldg. 40, Wallingford CT 06492
  
  
 ---------------------------------------------------------------
 Warning -- This program may not be used in any manner that
 competes with the business of Gaussian, Inc. or will provide
 assistance to any competitor of Gaussian, Inc.  The licensee
 of this program is prohibited from giving any competitor of
 Gaussian, Inc. access to this program.  By using this program,
 the user acknowledges that Gaussian, Inc. is engaged in the
 business of creating and licensing software in the field of
 computational chemistry and represents and warrants to the
 licensee that it is not a competitor of Gaussian, Inc. and that
 it will not use this program in any manner prohibited above.
 ---------------------------------------------------------------
  

 Cite this work as:
 Gaussian 16, Revision B.01,
 M. J. Frisch, G. W. Trucks, H. B. Schlegel, G. E. Scuseria, 
 M. A. Robb, J. R. Cheeseman, G. Scalmani, V. Barone, 
 G. A. Petersson, H. Nakatsuji, X. Li, M. Caricato, A. V. Marenich, 
 J. Bloino, B. G. Janesko, R. Gomperts, B. Mennucci, H. P. Hratchian, 
 J. V. Ortiz, A. F. Izmaylov, J. L. Sonnenberg, D. Williams-Young, 
 F. Ding, F. Lipparini, F. Egidi, J. Goings, B. Peng, A. Petrone, 
 T. Henderson, D. Ranasinghe, V. G. Zakrzewski, J. Gao, N. Rega, 
 G. Zheng, W. Liang, M. Hada, M. Ehara, K. Toyota, R. Fukuda, 
 J. Hasegawa, M. Ishida, T. Nakajima, Y. Honda, O. Kitao, H. Nakai, 
 T. Vreven, K. Throssell, J. A. Montgomery, Jr., J. E. Peralta, 
 F. Ogliaro, M. J. Bearpark, J. J. Heyd, E. N. Brothers, K. N. Kudin, 
 V. N. Staroverov, T. A. Keith, R. Kobayashi, J. Normand, 
 K. Raghavachari, A. P. Rendell, J. C. Burant, S. S. Iyengar, 
 J. Tomasi, M. Cossi, J. M. Millam, M. Klene, C. Adamo, R. Cammi, 
 J. W. Ochterski, R. L. Martin, K. Morokuma, O. Farkas, 
 J. B. Foresman, and D. J. Fox, Gaussian, Inc., Wallingford CT, 2016.
 
 ******************************************
 Gaussian 16:  ES64L-G16RevB.01 20-Dec-2017
                13-Nov-2023 
 ******************************************
 %mem=14GB
 %chk=checkpoint.chk
 %nprocshared=16
 Will use up to   16 processors via shared memory.
 -------------------------
 #P B3LYP/6-311+g(d) force
 -------------------------
 1/10=7,30=1,38=1/1,3;
 2/12=2,17=6,18=5,40=1/2;
 3/5=4,6=6,7=11,11=2,25=1,30=1,71=1,74=-5/1,2,3;
 4//1;
 5/5=2,38=5/2;
 6/7=2,8=2,9=2,10=2,28=1/1;
 7/29=1/1,2,3,16;
 1/10=7,30=1/3;
 99//99;
 Leave Link    1 at Mon Nov 13 12:28:38 2023, MaxMem=  1879048192 cpu:               0.3 elap:               0.0
 (Enter /home/sekinelabo/g16/l101.exe)
 ------------------------------
 Gaussian input prepared by ASE
 ------------------------------
 Symbolic Z-matrix:
 Charge =  0 Multiplicity = 2
 Na                    2.17426   2.24032   2.95113 
 Na                    5.38613   2.17897   0.06602 
 Na                    3.43644   4.3869    1.10071 
 Na                    4.91861   2.71182   2.74576 
 Na                    3.99206   0.        1.81635 
 Na                    2.66407   1.64527   0. 
 Na                    0.        2.15814   1.03032 
 
 ITRead=  0  0  0  0  0  0  0
 MicOpt= -1 -1 -1 -1 -1 -1 -1
 NAtoms=      7 NQM=        7 NQMF=       0 NMMI=      0 NMMIF=      0
                NMic=       0 NMicF=      0.
                    Isotopes and Nuclear Properties:
 (Nuclear quadrupole moments (NQMom) in fm**2, nuclear magnetic moments (NMagM)
  in nuclear magnetons)

  Atom         1           2           3           4           5           6           7
 IAtWgt=          23          23          23          23          23          23          23
 AtmWgt=  22.9897697  22.9897697  22.9897697  22.9897697  22.9897697  22.9897697  22.9897697
 NucSpn=           3           3           3           3           3           3           3
 AtZEff=  -0.0000000  -0.0000000  -0.0000000  -0.0000000  -0.0000000  -0.0000000  -0.0000000
 NQMom=   10.4000000  10.4000000  10.4000000  10.4000000  10.4000000  10.4000000  10.4000000
 NMagM=    2.2175200   2.2175200   2.2175200   2.2175200   2.2175200   2.2175200   2.2175200
 AtZNuc=  11.0000000  11.0000000  11.0000000  11.0000000  11.0000000  11.0000000  11.0000000
 Leave Link  101 at Mon Nov 13 12:28:38 2023, MaxMem=  1879048192 cpu:               2.6 elap:               0.2
 (Enter /home/sekinelabo/g16/l103.exe)

 GradGradGradGradGradGradGradGradGradGradGradGradGradGradGradGradGradGrad
 Berny optimization.
 Initialization pass.
 Trust Radius=3.00D-01 FncErr=1.00D-07 GrdErr=1.00D-07 EigMax=2.50D+02 EigMin=1.00D-04
 Number of steps in this run=      2 maximum allowed number of steps=      2.
 GradGradGradGradGradGradGradGradGradGradGradGradGradGradGradGradGradGrad

 Leave Link  103 at Mon Nov 13 12:28:38 2023, MaxMem=  1879048192 cpu:               0.2 elap:               0.0
 (Enter /home/sekinelabo/g16/l202.exe)
                          Input orientation:                          
 ---------------------------------------------------------------------
 Center     Atomic      Atomic             Coordinates (Angstroms)
 Number     Number       Type             X           Y           Z
 ---------------------------------------------------------------------
      1         11           0        2.174264    2.240317    2.951133
      2         11           0        5.386130    2.178968    0.066017
      3         11           0        3.436436    4.386903    1.100714
      4         11           0        4.918608    2.711824    2.745763
      5         11           0        3.992056    0.000000    1.816351
      6         11           0        2.664071    1.645267    0.000000
      7         11           0        0.000000    2.158142    1.030323
 ---------------------------------------------------------------------
                    Distance matrix (angstroms):
                    1          2          3          4          5
     1  Na   0.000000
     2  Na   4.317840   0.000000
     3  Na   3.102412   3.122000   0.000000
     4  Na   2.792117   2.771923   2.776492   0.000000
     5  Na   3.100180   3.123302   4.479483   3.012689   0.000000
     6  Na   3.050112   2.774671   3.053635   3.709406   2.787396
     7  Na   2.902359   5.471811   4.096513   5.238511   4.605640
                    6          7
     6  Na   0.000000
     7  Na   2.902048   0.000000
 Stoichiometry    Na7(2)
 Framework group  C1[X(Na7)]
 Deg. of freedom    15
 Full point group                 C1      NOp   1
 Largest Abelian subgroup         C1      NOp   1
 Largest concise Abelian subgroup C1      NOp   1
                         Standard orientation:                         
 ---------------------------------------------------------------------
 Center     Atomic      Atomic             Coordinates (Angstroms)
 Number     Number       Type             X           Y           Z
 ---------------------------------------------------------------------
      1         11           0       -1.050245    0.051542    1.563947
      2         11           0        2.161621   -0.009806   -1.321169
      3         11           0        0.211926    2.198128   -0.286472
      4         11           0        1.694098    0.523050    1.358577
      5         11           0        0.767546   -2.188774    0.429165
      6         11           0       -0.560438   -0.543508   -1.387186
      7         11           0       -3.224509   -0.030632   -0.356863
 ---------------------------------------------------------------------
 Rotational constants (GHZ):           1.1850419           0.7755101           0.7282356
 Leave Link  202 at Mon Nov 13 12:28:38 2023, MaxMem=  1879048192 cpu:               0.0 elap:               0.0
 (Enter /home/sekinelabo/g16/l301.exe)
 Standard basis: 6-311+G(d) (5D, 7F)
 Ernie: Thresh=  0.10000D-02 Tol=  0.10000D-05 Strict=F.
 There are   217 symmetry adapted cartesian basis functions of A   symmetry.
 There are   210 symmetry adapted basis functions of A   symmetry.
   210 basis functions,   350 primitive gaussians,   217 cartesian basis functions
    39 alpha electrons       38 beta electrons
       nuclear repulsion energy       404.6285195971 Hartrees.
 IExCor=  402 DFT=T Ex+Corr=B3LYP ExCW=0 ScaHFX=  0.200000
 ScaDFX=  0.800000  0.720000  1.000000  0.810000 ScalE2=  1.000000  1.000000
 IRadAn=      5 IRanWt=     -1 IRanGd=            0 ICorTp=0 IEmpDi=  4
 NAtoms=    7 NActive=    7 NUniq=    7 SFac= 1.00D+00 NAtFMM=   60 NAOKFM=F Big=F
 Integral buffers will be    131072 words long.
 Raffenetti 2 integral format.
 Two-electron integral symmetry is turned on.
 Leave Link  301 at Mon Nov 13 12:28:38 2023, MaxMem=  1879048192 cpu:               0.5 elap:               0.0
 (Enter /home/sekinelabo/g16/l302.exe)
 NPDir=0 NMtPBC=     1 NCelOv=     1 NCel=       1 NClECP=     1 NCelD=      1
         NCelK=      1 NCelE2=     1 NClLst=     1 CellRange=     0.0.
 One-electron integrals computed using PRISM.
 One-electron integral symmetry used in STVInt
 NBasis=   210 RedAO= T EigKep=  1.39D-06  NBF=   210
 NBsUse=   210 1.00D-06 EigRej= -1.00D+00 NBFU=   210
 Precomputing XC quadrature grid using
 IXCGrd= 4 IRadAn=           5 IRanWt=          -1 IRanGd=           0 AccXCQ= 0.00D+00.
 Generated NRdTot=       0 NPtTot=           0 NUsed=           0 NTot=          32
 NSgBfM=   211   211   211   211   211 MxSgAt=     7 MxSgA2=     7.
 Leave Link  302 at Mon Nov 13 12:28:38 2023, MaxMem=  1879048192 cpu:               2.1 elap:               0.1
 (Enter /home/sekinelabo/g16/l303.exe)
 DipDrv:  MaxL=1.
 Leave Link  303 at Mon Nov 13 12:28:38 2023, MaxMem=  1879048192 cpu:               0.6 elap:               0.0
 (Enter /home/sekinelabo/g16/l401.exe)
 ExpMin= 7.60D-03 ExpMax= 3.62D+04 ExpMxC= 1.21D+03 IAcc=3 IRadAn=         5 AccDes= 0.00D+00
 Harris functional with IExCor=  402 and IRadAn=       5 diagonalized for initial guess.
 HarFok:  IExCor=  402 AccDes= 0.00D+00 IRadAn=         5 IDoV= 1 UseB2=F ITyADJ=14
 ICtDFT=  3500011 ScaDFX=  1.000000  1.000000  1.000000  1.000000
 FoFCou: FMM=F IPFlag=           0 FMFlag=      100000 FMFlg1=           0
         NFxFlg=           0 DoJE=T BraDBF=F KetDBF=T FulRan=T
         wScrn=  0.000000 ICntrl=       500 IOpCl=  0 I1Cent=   200000004 NGrid=           0
         NMat0=    1 NMatS0=      1 NMatT0=    0 NMatD0=    1 NMtDS0=    0 NMtDT0=    0
 Petite list used in FoFCou.
 Harris En= -1135.85882191664    
 JPrj=0 DoOrth=F DoCkMO=F.
 Initial guess <Sx>= 0.0000 <Sy>= 0.0000 <Sz>= 0.5000 <S**2>= 0.7500 S= 0.5000
 Leave Link  401 at Mon Nov 13 12:28:39 2023, MaxMem=  1879048192 cpu:               4.8 elap:               0.3
 (Enter /home/sekinelabo/g16/l502.exe)
 Keep R1 and R2 ints in memory in canonical form, NReq=507620388.
 FoFCou: FMM=F IPFlag=           0 FMFlag=           0 FMFlg1=           0
         NFxFlg=           0 DoJE=F BraDBF=F KetDBF=F FulRan=T
         wScrn=  0.000000 ICntrl=       600 IOpCl=  0 I1Cent=           0 NGrid=           0
         NMat0=    1 NMatS0=  22155 NMatT0=    0 NMatD0=    1 NMtDS0=    0 NMtDT0=    0
 Symmetry not used in FoFCou.
 Two-electron integral symmetry not used.
 UHF open shell SCF:
 Using DIIS extrapolation, IDIIS=  1040.
 NGot=  1879048192 LenX=  1388082348 LenY=  1388034818
 Requested convergence on RMS density matrix=1.00D-08 within 128 cycles.
 Requested convergence on MAX density matrix=1.00D-06.
 Requested convergence on             energy=1.00D-06.
 No special actions if energy rises.

 Cycle   1  Pass 1  IDiag  1:
 E= -1136.03744913973    
 DIIS: error= 1.58D-02 at cycle   1 NSaved=   1.
 NSaved= 1 IEnMin= 1 EnMin= -1136.03744913973     IErMin= 1 ErrMin= 1.58D-02
 ErrMax= 1.58D-02  0.00D+00 EMaxC= 1.00D-01 BMatC= 2.12D-01 BMatP= 2.12D-01
 IDIUse=3 WtCom= 8.42D-01 WtEn= 1.58D-01
 Coeff-Com:  0.100D+01
 Coeff-En:   0.100D+01
 Coeff:      0.100D+01
 Gap=     0.060 Goal=   None    Shift=    0.000
 Gap=     0.029 Goal=   None    Shift=    0.000
 GapD=    0.029 DampG=0.250 DampE=0.500 DampFc=0.2500 IDamp=-1.
 Damping current iteration by 2.50D-01
 RMSDP=9.36D-02 MaxDP=9.85D+00              OVMax= 2.67D-01

 Cycle   2  Pass 1  IDiag  1:
 E= -1136.05426353284     Delta-E=       -0.016814393111 Rises=F Damp=T
 DIIS: error= 8.02D-03 at cycle   2 NSaved=   2.
 NSaved= 2 IEnMin= 2 EnMin= -1136.05426353284     IErMin= 2 ErrMin= 8.02D-03
 ErrMax= 8.02D-03  0.00D+00 EMaxC= 1.00D-01 BMatC= 7.95D-02 BMatP= 2.12D-01
 IDIUse=3 WtCom= 9.20D-01 WtEn= 8.02D-02
 Coeff-Com: -0.125D+01 0.225D+01
 Coeff-En:   0.000D+00 0.100D+01
 Coeff:     -0.115D+01 0.215D+01
 Gap=     0.066 Goal=   None    Shift=    0.000
 Gap=     0.033 Goal=   None    Shift=    0.000
 RMSDP=4.05D-02 MaxDP=4.02D+00 DE=-1.68D-02 OVMax= 1.90D-01

 Cycle   3  Pass 1  IDiag  1:
 E= -1136.08200135749     Delta-E=       -0.027737824654 Rises=F Damp=F
 DIIS: error= 4.16D-03 at cycle   3 NSaved=   3.
 NSaved= 3 IEnMin= 3 EnMin= -1136.08200135749     IErMin= 3 ErrMin= 4.16D-03
 ErrMax= 4.16D-03  0.00D+00 EMaxC= 1.00D-01 BMatC= 4.74D-03 BMatP= 7.95D-02
 IDIUse=3 WtCom= 9.58D-01 WtEn= 4.16D-02
 Coeff-Com: -0.291D+00 0.525D+00 0.765D+00
 Coeff-En:   0.000D+00 0.000D+00 0.100D+01
 Coeff:     -0.278D+00 0.503D+00 0.775D+00
 Gap=     0.060 Goal=   None    Shift=    0.000
 Gap=     0.033 Goal=   None    Shift=    0.000
 RMSDP=1.61D-02 MaxDP=1.61D+00 DE=-2.77D-02 OVMax= 8.33D-02

 Cycle   4  Pass 1  IDiag  1:
 E= -1136.08254449151     Delta-E=       -0.000543134013 Rises=F Damp=F
 DIIS: error= 3.16D-03 at cycle   4 NSaved=   4.
 NSaved= 4 IEnMin= 4 EnMin= -1136.08254449151     IErMin= 4 ErrMin= 3.16D-03
 ErrMax= 3.16D-03  0.00D+00 EMaxC= 1.00D-01 BMatC= 3.41D-03 BMatP= 4.74D-03
 IDIUse=3 WtCom= 9.68D-01 WtEn= 3.16D-02
 Coeff-Com: -0.623D-02 0.114D-01 0.457D+00 0.538D+00
 Coeff-En:   0.000D+00 0.000D+00 0.455D+00 0.545D+00
 Coeff:     -0.604D-02 0.110D-01 0.457D+00 0.538D+00
 Gap=     0.063 Goal=   None    Shift=    0.000
 Gap=     0.034 Goal=   None    Shift=    0.000
 RMSDP=4.77D-03 MaxDP=3.12D-01 DE=-5.43D-04 OVMax= 5.35D-02

 Cycle   5  Pass 1  IDiag  1:
 E= -1136.08464852041     Delta-E=       -0.002104028899 Rises=F Damp=F
 DIIS: error= 1.04D-03 at cycle   5 NSaved=   5.
 NSaved= 5 IEnMin= 5 EnMin= -1136.08464852041     IErMin= 5 ErrMin= 1.04D-03
 ErrMax= 1.04D-03  0.00D+00 EMaxC= 1.00D-01 BMatC= 2.25D-04 BMatP= 3.41D-03
 IDIUse=3 WtCom= 9.90D-01 WtEn= 1.04D-02
 Coeff-Com: -0.806D-03 0.699D-03 0.285D+00 0.352D+00 0.363D+00
 Coeff-En:   0.000D+00 0.000D+00 0.000D+00 0.452D-02 0.995D+00
 Coeff:     -0.797D-03 0.692D-03 0.282D+00 0.348D+00 0.370D+00
 Gap=     0.062 Goal=   None    Shift=    0.000
 Gap=     0.034 Goal=   None    Shift=    0.000
 RMSDP=2.04D-03 MaxDP=1.52D-01 DE=-2.10D-03 OVMax= 1.53D-02

 Cycle   6  Pass 1  IDiag  1:
 E= -1136.08488212591     Delta-E=       -0.000233605499 Rises=F Damp=F
 DIIS: error= 1.15D-04 at cycle   6 NSaved=   6.
 NSaved= 6 IEnMin= 6 EnMin= -1136.08488212591     IErMin= 6 ErrMin= 1.15D-04
 ErrMax= 1.15D-04  0.00D+00 EMaxC= 1.00D-01 BMatC= 3.42D-06 BMatP= 2.25D-04
 IDIUse=3 WtCom= 9.99D-01 WtEn= 1.15D-03
 Coeff-Com: -0.134D-02 0.133D-02-0.435D-01-0.574D-01 0.503D-01 0.105D+01
 Coeff-En:   0.000D+00 0.000D+00 0.000D+00 0.000D+00 0.000D+00 0.100D+01
 Coeff:     -0.134D-02 0.133D-02-0.434D-01-0.573D-01 0.503D-01 0.105D+01
 Gap=     0.062 Goal=   None    Shift=    0.000
 Gap=     0.034 Goal=   None    Shift=    0.000
 RMSDP=6.15D-04 MaxDP=4.69D-02 DE=-2.34D-04 OVMax= 4.90D-03

 Cycle   7  Pass 1  IDiag  1:
 E= -1136.08488896600     Delta-E=       -0.000006840098 Rises=F Damp=F
 DIIS: error= 3.79D-05 at cycle   7 NSaved=   7.
 NSaved= 7 IEnMin= 7 EnMin= -1136.08488896600     IErMin= 7 ErrMin= 3.79D-05
 ErrMax= 3.79D-05  0.00D+00 EMaxC= 1.00D-01 BMatC= 5.41D-07 BMatP= 3.42D-06
 IDIUse=1 WtCom= 1.00D+00 WtEn= 0.00D+00
 Coeff-Com: -0.181D-03 0.680D-04-0.309D-01-0.386D-01-0.135D-02 0.366D+00
 Coeff-Com:  0.705D+00
 Coeff:     -0.181D-03 0.680D-04-0.309D-01-0.386D-01-0.135D-02 0.366D+00
 Coeff:      0.705D+00
 Gap=     0.062 Goal=   None    Shift=    0.000
 Gap=     0.034 Goal=   None    Shift=    0.000
 RMSDP=2.09D-04 MaxDP=1.40D-02 DE=-6.84D-06 OVMax= 2.78D-03

 Cycle   8  Pass 1  IDiag  1:
 E= -1136.08489019859     Delta-E=       -0.000001232591 Rises=F Damp=F
 DIIS: error= 3.22D-05 at cycle   8 NSaved=   8.
 NSaved= 8 IEnMin= 8 EnMin= -1136.08489019859     IErMin= 8 ErrMin= 3.22D-05
 ErrMax= 3.22D-05  0.00D+00 EMaxC= 1.00D-01 BMatC= 3.50D-07 BMatP= 5.41D-07
 IDIUse=1 WtCom= 1.00D+00 WtEn= 0.00D+00
 Coeff-Com:  0.656D-03-0.813D-03-0.316D-02-0.177D-02-0.233D-01-0.203D+00
 Coeff-Com:  0.493D+00 0.739D+00
 Coeff:      0.656D-03-0.813D-03-0.316D-02-0.177D-02-0.233D-01-0.203D+00
 Coeff:      0.493D+00 0.739D+00
 Gap=     0.062 Goal=   None    Shift=    0.000
 Gap=     0.034 Goal=   None    Shift=    0.000
 RMSDP=1.68D-04 MaxDP=1.62D-02 DE=-1.23D-06 OVMax= 3.53D-03

 Cycle   9  Pass 1  IDiag  1:
 E= -1136.08489145948     Delta-E=       -0.000001260890 Rises=F Damp=F
 DIIS: error= 2.39D-05 at cycle   9 NSaved=   9.
 NSaved= 9 IEnMin= 9 EnMin= -1136.08489145948     IErMin= 9 ErrMin= 2.39D-05
 ErrMax= 2.39D-05  0.00D+00 EMaxC= 1.00D-01 BMatC= 6.76D-08 BMatP= 3.50D-07
 IDIUse=1 WtCom= 1.00D+00 WtEn= 0.00D+00
 Coeff-Com:  0.254D-03-0.300D-03 0.340D-02 0.487D-02-0.581D-02-0.982D-01
 Coeff-Com:  0.503D-02 0.154D+00 0.936D+00
 Coeff:      0.254D-03-0.300D-03 0.340D-02 0.487D-02-0.581D-02-0.982D-01
 Coeff:      0.503D-02 0.154D+00 0.936D+00
 Gap=     0.062 Goal=   None    Shift=    0.000
 Gap=     0.034 Goal=   None    Shift=    0.000
 RMSDP=1.36D-04 MaxDP=1.04D-02 DE=-1.26D-06 OVMax= 2.99D-03

 Cycle  10  Pass 1  IDiag  1:
 E= -1136.08489212020     Delta-E=       -0.000000660716 Rises=F Damp=F
 DIIS: error= 2.04D-05 at cycle  10 NSaved=  10.
 NSaved=10 IEnMin=10 EnMin= -1136.08489212020     IErMin=10 ErrMin= 2.04D-05
 ErrMax= 2.04D-05  0.00D+00 EMaxC= 1.00D-01 BMatC= 5.11D-08 BMatP= 6.76D-08
 IDIUse=1 WtCom= 1.00D+00 WtEn= 0.00D+00
 Coeff-Com: -0.998D-04 0.144D-03 0.400D-02 0.407D-02 0.630D-02 0.133D-01
 Coeff-Com: -0.195D+00-0.205D+00 0.463D+00 0.910D+00
 Coeff:     -0.998D-04 0.144D-03 0.400D-02 0.407D-02 0.630D-02 0.133D-01
 Coeff:     -0.195D+00-0.205D+00 0.463D+00 0.910D+00
 Gap=     0.062 Goal=   None    Shift=    0.000
 Gap=     0.034 Goal=   None    Shift=    0.000
 RMSDP=1.50D-04 MaxDP=1.13D-02 DE=-6.61D-07 OVMax= 3.35D-03

 Cycle  11  Pass 1  IDiag  1:
 E= -1136.08489272176     Delta-E=       -0.000000601560 Rises=F Damp=F
 DIIS: error= 1.65D-05 at cycle  11 NSaved=  11.
 NSaved=11 IEnMin=11 EnMin= -1136.08489272176     IErMin=11 ErrMin= 1.65D-05
 ErrMax= 1.65D-05  0.00D+00 EMaxC= 1.00D-01 BMatC= 3.39D-08 BMatP= 5.11D-08
 IDIUse=1 WtCom= 1.00D+00 WtEn= 0.00D+00
 Coeff-Com: -0.262D-03 0.338D-03 0.445D-03-0.932D-03 0.847D-02 0.729D-01
 Coeff-Com: -0.111D+00-0.226D+00-0.633D+00 0.641D+00 0.125D+01
 Coeff:     -0.262D-03 0.338D-03 0.445D-03-0.932D-03 0.847D-02 0.729D-01
 Coeff:     -0.111D+00-0.226D+00-0.633D+00 0.641D+00 0.125D+01
 Gap=     0.062 Goal=   None    Shift=    0.000
 Gap=     0.034 Goal=   None    Shift=    0.000
 RMSDP=2.39D-04 MaxDP=1.80D-02 DE=-6.02D-07 OVMax= 5.36D-03

 Cycle  12  Pass 1  IDiag  1:
 E= -1136.08489341381     Delta-E=       -0.000000692046 Rises=F Damp=F
 DIIS: error= 1.01D-05 at cycle  12 NSaved=  12.
 NSaved=12 IEnMin=12 EnMin= -1136.08489341381     IErMin=12 ErrMin= 1.01D-05
 ErrMax= 1.01D-05  0.00D+00 EMaxC= 1.00D-01 BMatC= 1.50D-08 BMatP= 3.39D-08
 IDIUse=1 WtCom= 1.00D+00 WtEn= 0.00D+00
 Coeff-Com: -0.378D-04 0.328D-04-0.242D-02-0.297D-02-0.438D-03 0.305D-01
 Coeff-Com:  0.651D-01 0.312D-01-0.597D+00-0.313D+00 0.599D+00 0.119D+01
 Coeff:     -0.378D-04 0.328D-04-0.242D-02-0.297D-02-0.438D-03 0.305D-01
 Coeff:      0.651D-01 0.312D-01-0.597D+00-0.313D+00 0.599D+00 0.119D+01
 Gap=     0.062 Goal=   None    Shift=    0.000
 Gap=     0.034 Goal=   None    Shift=    0.000
 RMSDP=2.12D-04 MaxDP=1.71D-02 DE=-6.92D-07 OVMax= 4.91D-03

 Cycle  13  Pass 1  IDiag  1:
 E= -1136.08489377122     Delta-E=       -0.000000357418 Rises=F Damp=F
 DIIS: error= 4.38D-06 at cycle  13 NSaved=  13.
 NSaved=13 IEnMin=13 EnMin= -1136.08489377122     IErMin=13 ErrMin= 4.38D-06
 ErrMax= 4.38D-06  0.00D+00 EMaxC= 1.00D-01 BMatC= 3.70D-09 BMatP= 1.50D-08
 IDIUse=1 WtCom= 1.00D+00 WtEn= 0.00D+00
 Coeff-Com:  0.158D-03-0.204D-03-0.438D-03 0.273D-03-0.425D-02-0.318D-01
 Coeff-Com:  0.580D-01 0.124D+00 0.272D+00-0.311D+00-0.584D+00-0.395D-01
 Coeff-Com:  0.152D+01
 Coeff:      0.158D-03-0.204D-03-0.438D-03 0.273D-03-0.425D-02-0.318D-01
 Coeff:      0.580D-01 0.124D+00 0.272D+00-0.311D+00-0.584D+00-0.395D-01
 Coeff:      0.152D+01
 Gap=     0.062 Goal=   None    Shift=    0.000
 Gap=     0.034 Goal=   None    Shift=    0.000
 RMSDP=1.34D-04 MaxDP=1.16D-02 DE=-3.57D-07 OVMax= 3.21D-03

 Cycle  14  Pass 1  IDiag  1:
 E= -1136.08489386850     Delta-E=       -0.000000097279 Rises=F Damp=F
 DIIS: error= 1.51D-06 at cycle  14 NSaved=  14.
 NSaved=14 IEnMin=14 EnMin= -1136.08489386850     IErMin=14 ErrMin= 1.51D-06
 ErrMax= 1.51D-06  0.00D+00 EMaxC= 1.00D-01 BMatC= 5.10D-10 BMatP= 3.70D-09
 IDIUse=1 WtCom= 1.00D+00 WtEn= 0.00D+00
 Coeff-Com: -0.373D-04 0.527D-04 0.396D-03 0.286D-03 0.114D-02 0.204D-02
 Coeff-Com: -0.236D-01-0.361D-01 0.390D-01 0.147D+00 0.470D-01-0.240D+00
 Coeff-Com: -0.366D+00 0.143D+01
 Coeff:     -0.373D-04 0.527D-04 0.396D-03 0.286D-03 0.114D-02 0.204D-02
 Coeff:     -0.236D-01-0.361D-01 0.390D-01 0.147D+00 0.470D-01-0.240D+00
 Coeff:     -0.366D+00 0.143D+01
 Gap=     0.062 Goal=   None    Shift=    0.000
 Gap=     0.034 Goal=   None    Shift=    0.000
 RMSDP=2.91D-05 MaxDP=2.20D-03 DE=-9.73D-08 OVMax= 6.10D-04

 Cycle  15  Pass 1  IDiag  1:
 E= -1136.08489387597     Delta-E=       -0.000000007469 Rises=F Damp=F
 DIIS: error= 6.62D-07 at cycle  15 NSaved=  15.
 NSaved=15 IEnMin=15 EnMin= -1136.08489387597     IErMin=15 ErrMin= 6.62D-07
 ErrMax= 6.62D-07  0.00D+00 EMaxC= 1.00D-01 BMatC= 9.07D-11 BMatP= 5.10D-10
 IDIUse=1 WtCom= 1.00D+00 WtEn= 0.00D+00
 Coeff-Com: -0.237D-04 0.304D-04 0.108D-03-0.296D-04 0.594D-03 0.482D-02
 Coeff-Com: -0.753D-02-0.183D-01-0.549D-01 0.394D-01 0.107D+00 0.277D-01
 Coeff-Com: -0.257D+00-0.889D-01 0.125D+01
 Coeff:     -0.237D-04 0.304D-04 0.108D-03-0.296D-04 0.594D-03 0.482D-02
 Coeff:     -0.753D-02-0.183D-01-0.549D-01 0.394D-01 0.107D+00 0.277D-01
 Coeff:     -0.257D+00-0.889D-01 0.125D+01
 Gap=     0.062 Goal=   None    Shift=    0.000
 Gap=     0.034 Goal=   None    Shift=    0.000
 RMSDP=1.29D-05 MaxDP=1.17D-03 DE=-7.47D-09 OVMax= 2.03D-04

 Cycle  16  Pass 1  IDiag  1:
 E= -1136.08489387691     Delta-E=       -0.000000000939 Rises=F Damp=F
 DIIS: error= 2.29D-07 at cycle  16 NSaved=  16.
 NSaved=16 IEnMin=16 EnMin= -1136.08489387691     IErMin=16 ErrMin= 2.29D-07
 ErrMax= 2.29D-07  0.00D+00 EMaxC= 1.00D-01 BMatC= 2.02D-11 BMatP= 9.07D-11
 IDIUse=1 WtCom= 1.00D+00 WtEn= 0.00D+00
 Coeff-Com: -0.273D-05 0.261D-05-0.536D-04-0.878D-04 0.883D-04 0.162D-02
 Coeff-Com:  0.152D-02-0.289D-03-0.260D-01-0.150D-01 0.272D-01 0.581D-01
 Coeff-Com: -0.213D-01-0.272D+00 0.339D+00 0.907D+00
 Coeff:     -0.273D-05 0.261D-05-0.536D-04-0.878D-04 0.883D-04 0.162D-02
 Coeff:      0.152D-02-0.289D-03-0.260D-01-0.150D-01 0.272D-01 0.581D-01
 Coeff:     -0.213D-01-0.272D+00 0.339D+00 0.907D+00
 Gap=     0.062 Goal=   None    Shift=    0.000
 Gap=     0.034 Goal=   None    Shift=    0.000
 RMSDP=3.89D-06 MaxDP=3.11D-04 DE=-9.39D-10 OVMax= 5.12D-05

 Cycle  17  Pass 1  IDiag  1:
 E= -1136.08489387702     Delta-E=       -0.000000000105 Rises=F Damp=F
 DIIS: error= 6.07D-08 at cycle  17 NSaved=  17.
 NSaved=17 IEnMin=17 EnMin= -1136.08489387702     IErMin=17 ErrMin= 6.07D-08
 ErrMax= 6.07D-08  0.00D+00 EMaxC= 1.00D-01 BMatC= 2.49D-12 BMatP= 2.02D-11
 IDIUse=1 WtCom= 1.00D+00 WtEn= 0.00D+00
 Coeff-Com:  0.337D-05-0.454D-05-0.324D-04-0.101D-04-0.831D-04-0.311D-03
 Coeff-Com:  0.125D-02 0.236D-02 0.670D-02-0.103D-01-0.144D-01 0.577D-02
 Coeff-Com:  0.438D-01-0.390D-01-0.150D+00 0.160D+00 0.994D+00
 Coeff:      0.337D-05-0.454D-05-0.324D-04-0.101D-04-0.831D-04-0.311D-03
 Coeff:      0.125D-02 0.236D-02 0.670D-02-0.103D-01-0.144D-01 0.577D-02
 Coeff:      0.438D-01-0.390D-01-0.150D+00 0.160D+00 0.994D+00
 Gap=     0.062 Goal=   None    Shift=    0.000
 Gap=     0.034 Goal=   None    Shift=    0.000
 RMSDP=9.88D-07 MaxDP=7.28D-05 DE=-1.05D-10 OVMax= 7.77D-06

 Cycle  18  Pass 1  IDiag  1:
 E= -1136.08489387702     Delta-E=        0.000000000000 Rises=F Damp=F
 DIIS: error= 2.64D-08 at cycle  18 NSaved=  18.
 NSaved=18 IEnMin=17 EnMin= -1136.08489387702     IErMin=18 ErrMin= 2.64D-08
 ErrMax= 2.64D-08  0.00D+00 EMaxC= 1.00D-01 BMatC= 2.33D-13 BMatP= 2.49D-12
 IDIUse=1 WtCom= 1.00D+00 WtEn= 0.00D+00
 Coeff-Com:  0.694D-06-0.800D-06 0.720D-05 0.107D-04-0.858D-05-0.226D-03
 Coeff-Com: -0.940D-04 0.103D-03 0.240D-02 0.185D-02-0.193D-02-0.768D-02
 Coeff-Com:  0.231D-02 0.278D-01-0.256D-01-0.989D-01-0.507D-01 0.115D+01
 Coeff:      0.694D-06-0.800D-06 0.720D-05 0.107D-04-0.858D-05-0.226D-03
 Coeff:     -0.940D-04 0.103D-03 0.240D-02 0.185D-02-0.193D-02-0.768D-02
 Coeff:      0.231D-02 0.278D-01-0.256D-01-0.989D-01-0.507D-01 0.115D+01
 Gap=     0.062 Goal=   None    Shift=    0.000
 Gap=     0.034 Goal=   None    Shift=    0.000
 RMSDP=2.58D-07 MaxDP=1.79D-05 DE= 2.27D-13 OVMax= 2.15D-06

 Cycle  19  Pass 1  IDiag  1:
 E= -1136.08489387702     Delta-E=       -0.000000000002 Rises=F Damp=F
 DIIS: error= 1.03D-08 at cycle  19 NSaved=  19.
 NSaved=19 IEnMin=19 EnMin= -1136.08489387702     IErMin=19 ErrMin= 1.03D-08
 ErrMax= 1.03D-08  0.00D+00 EMaxC= 1.00D-01 BMatC= 4.63D-14 BMatP= 2.33D-13
 IDIUse=1 WtCom= 1.00D+00 WtEn= 0.00D+00
 Coeff-Com: -0.789D-06 0.104D-05 0.439D-05 0.140D-06 0.110D-04 0.642D-04
 Coeff-Com: -0.123D-03-0.348D-03-0.189D-02 0.136D-02 0.316D-02 0.426D-03
 Coeff-Com: -0.827D-02 0.176D-02 0.331D-01-0.187D-01-0.180D+00-0.722D-01
 Coeff-Com:  0.124D+01
 Coeff:     -0.789D-06 0.104D-05 0.439D-05 0.140D-06 0.110D-04 0.642D-04
 Coeff:     -0.123D-03-0.348D-03-0.189D-02 0.136D-02 0.316D-02 0.426D-03
 Coeff:     -0.827D-02 0.176D-02 0.331D-01-0.187D-01-0.180D+00-0.722D-01
 Coeff:      0.124D+01
 Gap=     0.062 Goal=   None    Shift=    0.000
 Gap=     0.034 Goal=   None    Shift=    0.000
 RMSDP=1.40D-07 MaxDP=1.14D-05 DE=-1.59D-12 OVMax= 1.36D-06

 Cycle  20  Pass 1  IDiag  1:
 E= -1136.08489387703     Delta-E=       -0.000000000015 Rises=F Damp=F
 DIIS: error= 3.84D-09 at cycle  20 NSaved=  20.
 NSaved=20 IEnMin=20 EnMin= -1136.08489387703     IErMin=20 ErrMin= 3.84D-09
 ErrMax= 3.84D-09  0.00D+00 EMaxC= 1.00D-01 BMatC= 8.18D-15 BMatP= 4.63D-14
 IDIUse=1 WtCom= 1.00D+00 WtEn= 0.00D+00
 Coeff-Com: -0.113D-06 0.135D-06-0.121D-05-0.180D-05 0.140D-05 0.408D-04
 Coeff-Com: -0.637D-05-0.382D-04-0.105D-03-0.334D-03 0.497D-04 0.118D-02
 Coeff-Com: -0.214D-03-0.356D-02 0.120D-02 0.159D-01 0.213D-01-0.184D+00
 Coeff-Com: -0.342D-01 0.118D+01
 Coeff:     -0.113D-06 0.135D-06-0.121D-05-0.180D-05 0.140D-05 0.408D-04
 Coeff:     -0.637D-05-0.382D-04-0.105D-03-0.334D-03 0.497D-04 0.118D-02
 Coeff:     -0.214D-03-0.356D-02 0.120D-02 0.159D-01 0.213D-01-0.184D+00
 Coeff:     -0.342D-01 0.118D+01
 Gap=     0.062 Goal=   None    Shift=    0.000
 Gap=     0.034 Goal=   None    Shift=    0.000
 RMSDP=6.12D-08 MaxDP=5.88D-06 DE=-1.55D-11 OVMax= 7.66D-07

 Cycle  21  Pass 1  IDiag  1:
 E= -1136.08489387702     Delta-E=        0.000000000010 Rises=F Damp=F
 DIIS: error= 2.92D-09 at cycle  21 NSaved=  20.
 NSaved=20 IEnMin=19 EnMin= -1136.08489387703     IErMin=20 ErrMin= 2.92D-09
 ErrMax= 2.92D-09  0.00D+00 EMaxC= 1.00D-01 BMatC= 2.45D-15 BMatP= 8.18D-15
 IDIUse=1 WtCom= 1.00D+00 WtEn= 0.00D+00
 Large coefficients: NSaved= 20 BigCof=    0.00 CofMax=   10.00 Det=-4.01D-15
 Inversion failed.  Reducing to 19 matrices.
 Large coefficients: NSaved= 19 BigCof=    0.00 CofMax=   10.00 Det=-4.03D-15
 Inversion failed.  Reducing to 18 matrices.
 Large coefficients: NSaved= 18 BigCof=    0.00 CofMax=   10.00 Det=-4.21D-15
 Inversion failed.  Reducing to 17 matrices.
 Large coefficients: NSaved= 17 BigCof=    0.00 CofMax=   10.00 Det=-4.34D-15
 Inversion failed.  Reducing to 16 matrices.
 Large coefficients: NSaved= 16 BigCof=    0.00 CofMax=   10.00 Det=-4.34D-15
 Inversion failed.  Reducing to 15 matrices.
 Coeff-Com:  0.194D-05 0.168D-04 0.749D-04-0.164D-03-0.157D-03 0.307D-03
 Coeff-Com:  0.376D-03-0.152D-02-0.204D-03 0.503D-02 0.156D-01-0.439D-01
 Coeff-Com: -0.148D+00 0.350D+00 0.823D+00
 Coeff:      0.194D-05 0.168D-04 0.749D-04-0.164D-03-0.157D-03 0.307D-03
 Coeff:      0.376D-03-0.152D-02-0.204D-03 0.503D-02 0.156D-01-0.439D-01
 Coeff:     -0.148D+00 0.350D+00 0.823D+00
 Gap=     0.062 Goal=   None    Shift=    0.000
 Gap=     0.034 Goal=   None    Shift=    0.000
 RMSDP=2.16D-08 MaxDP=2.56D-06 DE= 9.78D-12 OVMax= 1.92D-07

 Cycle  22  Pass 1  IDiag  1:
 E= -1136.08489387702     Delta-E=        0.000000000009 Rises=F Damp=F
 DIIS: error= 1.83D-09 at cycle  22 NSaved=  16.
 NSaved=16 IEnMin=14 EnMin= -1136.08489387703     IErMin=16 ErrMin= 1.83D-09
 ErrMax= 1.83D-09  0.00D+00 EMaxC= 1.00D-01 BMatC= 6.68D-16 BMatP= 2.45D-15
 IDIUse=1 WtCom= 1.00D+00 WtEn= 0.00D+00
 Large coefficients: NSaved= 16 BigCof=    0.00 CofMax=   10.00 Det=-1.99D-15
 Inversion failed.  Reducing to 15 matrices.
 Coeff-Com: -0.141D-05-0.127D-05 0.642D-04-0.419D-05-0.184D-03 0.807D-04
 Coeff-Com:  0.465D-03-0.652D-03-0.170D-02 0.213D-02 0.324D-01-0.570D-01
 Coeff-Com: -0.192D+00 0.235D+00 0.981D+00
 Coeff:     -0.141D-05-0.127D-05 0.642D-04-0.419D-05-0.184D-03 0.807D-04
 Coeff:      0.465D-03-0.652D-03-0.170D-02 0.213D-02 0.324D-01-0.570D-01
 Coeff:     -0.192D+00 0.235D+00 0.981D+00
 Gap=     0.062 Goal=   None    Shift=    0.000
 Gap=     0.034 Goal=   None    Shift=    0.000
 RMSDP=2.87D-08 MaxDP=2.12D-06 DE= 8.87D-12 OVMax= 1.12D-07

 Cycle  23  Pass 1  IDiag  1:
 E= -1136.08489387701     Delta-E=        0.000000000002 Rises=F Damp=F
 DIIS: error= 7.75D-10 at cycle  23 NSaved=  16.
 NSaved=16 IEnMin=13 EnMin= -1136.08489387703     IErMin=16 ErrMin= 7.75D-10
 ErrMax= 7.75D-10  0.00D+00 EMaxC= 1.00D-01 BMatC= 1.56D-16 BMatP= 6.68D-16
 IDIUse=1 WtCom= 1.00D+00 WtEn= 0.00D+00
 Large coefficients: NSaved= 16 BigCof=    0.00 CofMax=   10.00 Det=-4.46D-16
 Inversion failed.  Reducing to 15 matrices.
 Coeff-Com: -0.231D-04 0.313D-04 0.180D-04-0.758D-04 0.284D-04 0.220D-03
 Coeff-Com: -0.643D-04-0.128D-02-0.310D-02 0.196D-01 0.184D-01-0.172D+00
 Coeff-Com: -0.648D-01 0.393D+00 0.810D+00
 Coeff:     -0.231D-04 0.313D-04 0.180D-04-0.758D-04 0.284D-04 0.220D-03
 Coeff:     -0.643D-04-0.128D-02-0.310D-02 0.196D-01 0.184D-01-0.172D+00
 Coeff:     -0.648D-01 0.393D+00 0.810D+00
 Gap=     0.062 Goal=   None    Shift=    0.000
 Gap=     0.034 Goal=   None    Shift=    0.000
 RMSDP=2.57D-08 MaxDP=2.37D-06 DE= 2.27D-12 OVMax= 5.30D-08

 Cycle  24  Pass 1  IDiag  1:
 E= -1136.08489387701     Delta-E=        0.000000000004 Rises=F Damp=F
 DIIS: error= 3.03D-10 at cycle  24 NSaved=  16.
 NSaved=16 IEnMin=12 EnMin= -1136.08489387703     IErMin=16 ErrMin= 3.03D-10
 ErrMax= 3.03D-10  0.00D+00 EMaxC= 1.00D-01 BMatC= 2.68D-17 BMatP= 1.56D-16
 IDIUse=1 WtCom= 1.00D+00 WtEn= 0.00D+00
 Large coefficients: NSaved= 16 BigCof=    0.00 CofMax=   10.00 Det=-1.10D-16
 Inversion failed.  Reducing to 15 matrices.
 Coeff-Com:  0.139D-04 0.526D-05-0.335D-04-0.248D-04 0.167D-03-0.566D-04
 Coeff-Com: -0.394D-03-0.126D-02 0.456D-02 0.131D-01-0.351D-01-0.620D-01
 Coeff-Com: -0.112D-02 0.287D+00 0.795D+00
 Coeff:      0.139D-04 0.526D-05-0.335D-04-0.248D-04 0.167D-03-0.566D-04
 Coeff:     -0.394D-03-0.126D-02 0.456D-02 0.131D-01-0.351D-01-0.620D-01
 Coeff:     -0.112D-02 0.287D+00 0.795D+00
 Gap=     0.062 Goal=   None    Shift=    0.000
 Gap=     0.034 Goal=   None    Shift=    0.000
 RMSDP=7.29D-09 MaxDP=5.88D-07 DE= 4.32D-12 OVMax= 4.02D-08

 SCF Done:  E(UB3LYP) =  -1136.08489388     A.U. after   24 cycles
            NFock= 24  Conv=0.73D-08     -V/T= 2.0023
 <Sx>= 0.0000 <Sy>= 0.0000 <Sz>= 0.5000 <S**2>= 0.7612 S= 0.5056
 <L.S>= 0.000000000000E+00
 KE= 1.133449480649D+03 PE=-3.538810983352D+03 EE= 8.646480892291D+02
 Annihilation of the first spin contaminant:
 S**2 before annihilation     0.7612,   after     0.7501
 Leave Link  502 at Mon Nov 13 12:28:59 2023, MaxMem=  1879048192 cpu:             234.5 elap:              20.0
 (Enter /home/sekinelabo/g16/l601.exe)
 Copying SCF densities to generalized density rwf, IOpCl= 1 IROHF=0.

 **********************************************************************

            Population analysis using the SCF Density.

 **********************************************************************

 Orbital symmetries:
 Alpha Orbitals:
       Occupied  (A) (A) (A) (A) (A) (A) (A) (A) (A) (A) (A) (A)
                 (A) (A) (A) (A) (A) (A) (A) (A) (A) (A) (A) (A)
                 (A) (A) (A) (A) (A) (A) (A) (A) (A) (A) (A) (A)
                 (A) (A) (A)
       Virtual   (A) (A) (A) (A) (A) (A) (A) (A) (A) (A) (A) (A)
                 (A) (A) (A) (A) (A) (A) (A) (A) (A) (A) (A) (A)
                 (A) (A) (A) (A) (A) (A) (A) (A) (A) (A) (A) (A)
                 (A) (A) (A) (A) (A) (A) (A) (A) (A) (A) (A) (A)
                 (A) (A) (A) (A) (A) (A) (A) (A) (A) (A) (A) (A)
                 (A) (A) (A) (A) (A) (A) (A) (A) (A) (A) (A) (A)
                 (A) (A) (A) (A) (A) (A) (A) (A) (A) (A) (A) (A)
                 (A) (A) (A) (A) (A) (A) (A) (A) (A) (A) (A) (A)
                 (A) (A) (A) (A) (A) (A) (A) (A) (A) (A) (A) (A)
                 (A) (A) (A) (A) (A) (A) (A) (A) (A) (A) (A) (A)
                 (A) (A) (A) (A) (A) (A) (A) (A) (A) (A) (A) (A)
                 (A) (A) (A) (A) (A) (A) (A) (A) (A) (A) (A) (A)
                 (A) (A) (A) (A) (A) (A) (A) (A) (A) (A) (A) (A)
                 (A) (A) (A) (A) (A) (A) (A) (A) (A) (A) (A) (A)
                 (A) (A) (A)
 Beta  Orbitals:
       Occupied  (A) (A) (A) (A) (A) (A) (A) (A) (A) (A) (A) (A)
                 (A) (A) (A) (A) (A) (A) (A) (A) (A) (A) (A) (A)
                 (A) (A) (A) (A) (A) (A) (A) (A) (A) (A) (A) (A)
                 (A) (A)
       Virtual   (A) (A) (A) (A) (A) (A) (A) (A) (A) (A) (A) (A)
                 (A) (A) (A) (A) (A) (A) (A) (A) (A) (A) (A) (A)
                 (A) (A) (A) (A) (A) (A) (A) (A) (A) (A) (A) (A)
                 (A) (A) (A) (A) (A) (A) (A) (A) (A) (A) (A) (A)
                 (A) (A) (A) (A) (A) (A) (A) (A) (A) (A) (A) (A)
                 (A) (A) (A) (A) (A) (A) (A) (A) (A) (A) (A) (A)
                 (A) (A) (A) (A) (A) (A) (A) (A) (A) (A) (A) (A)
                 (A) (A) (A) (A) (A) (A) (A) (A) (A) (A) (A) (A)
                 (A) (A) (A) (A) (A) (A) (A) (A) (A) (A) (A) (A)
                 (A) (A) (A) (A) (A) (A) (A) (A) (A) (A) (A) (A)
                 (A) (A) (A) (A) (A) (A) (A) (A) (A) (A) (A) (A)
                 (A) (A) (A) (A) (A) (A) (A) (A) (A) (A) (A) (A)
                 (A) (A) (A) (A) (A) (A) (A) (A) (A) (A) (A) (A)
                 (A) (A) (A) (A) (A) (A) (A) (A) (A) (A) (A) (A)
                 (A) (A) (A) (A)
 The electronic state is 2-A.
 Alpha  occ. eigenvalues --  -38.44571 -38.44377 -38.44224 -38.43981 -38.43816
 Alpha  occ. eigenvalues --  -38.42748 -38.42635  -2.20517  -2.20491  -2.20437
 Alpha  occ. eigenvalues --   -2.20174  -2.20094  -2.18827  -2.18716  -1.14454
 Alpha  occ. eigenvalues --   -1.14422  -1.14338  -1.14264  -1.14192  -1.14096
 Alpha  occ. eigenvalues --   -1.14067  -1.14011  -1.13907  -1.13900  -1.13758
 Alpha  occ. eigenvalues --   -1.13743  -1.13709  -1.13680  -1.13637  -1.12538
 Alpha  occ. eigenvalues --   -1.12472  -1.12444  -1.12405  -1.12369  -1.12285
 Alpha  occ. eigenvalues --   -0.21267  -0.13834  -0.12828  -0.12010
 Alpha virt. eigenvalues --   -0.05794  -0.04132  -0.03720  -0.03448  -0.03090
 Alpha virt. eigenvalues --   -0.02920  -0.01447  -0.00448  -0.00277   0.00297
 Alpha virt. eigenvalues --    0.00612   0.00763   0.00988   0.01038   0.01064
 Alpha virt. eigenvalues --    0.01179   0.01332   0.01355   0.01439   0.01448
 Alpha virt. eigenvalues --    0.01667   0.01753   0.01771   0.01877   0.02017
 Alpha virt. eigenvalues --    0.02500   0.02636   0.02877   0.02886   0.02956
 Alpha virt. eigenvalues --    0.02998   0.03017   0.03101   0.03178   0.03291
 Alpha virt. eigenvalues --    0.03368   0.03593   0.03648   0.03743   0.03967
 Alpha virt. eigenvalues --    0.04046   0.04753   0.04910   0.05207   0.05398
 Alpha virt. eigenvalues --    0.05553   0.05650   0.05875   0.06100   0.06307
 Alpha virt. eigenvalues --    0.06605   0.06715   0.06865   0.07190   0.07312
 Alpha virt. eigenvalues --    0.07630   0.08712   0.08895   0.09397   0.09623
 Alpha virt. eigenvalues --    0.09981   0.10190   0.10655   0.11620   0.12789
 Alpha virt. eigenvalues --    0.13146   0.13681   0.14010   0.14112   0.14420
 Alpha virt. eigenvalues --    0.14575   0.14836   0.15006   0.15672   0.15885
 Alpha virt. eigenvalues --    0.16753   0.16893   0.17666   0.18083   0.18876
 Alpha virt. eigenvalues --    0.22272   0.24838   0.25342   0.27548   0.29231
 Alpha virt. eigenvalues --    0.31254   0.31618   0.32704   0.33694   0.34958
 Alpha virt. eigenvalues --    0.35784   0.36442   0.37105   0.37588   0.38488
 Alpha virt. eigenvalues --    0.39717   0.40561   0.41405   0.42868   0.43946
 Alpha virt. eigenvalues --    0.44739   0.45150   0.45177   0.46233   0.46815
 Alpha virt. eigenvalues --    0.47548   0.47681   0.48167   0.48605   0.49204
 Alpha virt. eigenvalues --    0.49906   0.50087   0.50873   0.51458   0.52847
 Alpha virt. eigenvalues --    0.53491   0.53780   0.54593   0.54714   0.55728
 Alpha virt. eigenvalues --    0.56908   0.58448   0.60316   0.65209   0.65874
 Alpha virt. eigenvalues --    0.66982   0.68958   0.71231   0.74605   0.75566
 Alpha virt. eigenvalues --    0.76653   0.78437   0.81676   0.82060   0.83567
 Alpha virt. eigenvalues --    0.86694   2.13331   2.20620   2.26719   2.27814
 Alpha virt. eigenvalues --    2.29974   2.33797   2.36723   4.40924   4.41577
 Alpha virt. eigenvalues --    4.41688   4.42071   4.43452   4.44397   4.45879
 Alpha virt. eigenvalues --    4.47690   4.49348   4.52666   4.53364   4.60399
 Alpha virt. eigenvalues --    4.64850   4.68863   4.70438   4.72187   4.76691
 Alpha virt. eigenvalues --    4.77505   4.80841   4.85860   4.87385  96.35127
 Alpha virt. eigenvalues --   96.44864  96.54341  96.56183  96.59416  96.63596
 Alpha virt. eigenvalues --   96.67859
  Beta  occ. eigenvalues --  -38.44566 -38.44330 -38.44169 -38.43913 -38.43754
  Beta  occ. eigenvalues --  -38.42729 -38.42619  -2.20481  -2.20432  -2.20344
  Beta  occ. eigenvalues --   -2.20056  -2.19984  -2.18800  -2.18694  -1.14403
  Beta  occ. eigenvalues --   -1.14339  -1.14260  -1.14229  -1.14157  -1.14062
  Beta  occ. eigenvalues --   -1.14028  -1.13945  -1.13845  -1.13832  -1.13683
  Beta  occ. eigenvalues --   -1.13646  -1.13627  -1.13603  -1.13546  -1.12524
  Beta  occ. eigenvalues --   -1.12435  -1.12414  -1.12381  -1.12311  -1.12270
  Beta  occ. eigenvalues --   -0.20403  -0.13671  -0.11719
  Beta virt. eigenvalues --   -0.08329  -0.05710  -0.03548  -0.03444  -0.03357
  Beta virt. eigenvalues --   -0.02242  -0.01942  -0.01367  -0.00271  -0.00134
  Beta virt. eigenvalues --    0.00328   0.00687   0.00913   0.00979   0.01046
  Beta virt. eigenvalues --    0.01112   0.01246   0.01377   0.01474   0.01482
  Beta virt. eigenvalues --    0.01578   0.01724   0.01777   0.01861   0.01998
  Beta virt. eigenvalues --    0.02084   0.02525   0.02746   0.02873   0.02935
  Beta virt. eigenvalues --    0.02948   0.03019   0.03049   0.03151   0.03239
  Beta virt. eigenvalues --    0.03321   0.03472   0.03660   0.03771   0.03989
  Beta virt. eigenvalues --    0.04058   0.04140   0.04959   0.05028   0.05227
  Beta virt. eigenvalues --    0.05510   0.05615   0.05908   0.05957   0.06275
  Beta virt. eigenvalues --    0.06428   0.06614   0.06748   0.06979   0.07285
  Beta virt. eigenvalues --    0.07535   0.07725   0.08726   0.09024   0.09512
  Beta virt. eigenvalues --    0.09798   0.10397   0.10444   0.10851   0.11979
  Beta virt. eigenvalues --    0.12928   0.13262   0.13902   0.14168   0.14317
  Beta virt. eigenvalues --    0.14682   0.14801   0.15091   0.15206   0.16026
  Beta virt. eigenvalues --    0.16217   0.16904   0.16996   0.17896   0.18285
  Beta virt. eigenvalues --    0.19181   0.22741   0.25284   0.25609   0.27956
  Beta virt. eigenvalues --    0.29874   0.31481   0.31797   0.32901   0.34142
  Beta virt. eigenvalues --    0.35235   0.36090   0.36913   0.37602   0.37799
  Beta virt. eigenvalues --    0.38751   0.40112   0.40814   0.41514   0.43118
  Beta virt. eigenvalues --    0.44116   0.44885   0.45317   0.45402   0.46441
  Beta virt. eigenvalues --    0.47072   0.47698   0.47918   0.48291   0.48659
  Beta virt. eigenvalues --    0.49406   0.50093   0.50212   0.50952   0.51544
  Beta virt. eigenvalues --    0.53212   0.53814   0.53985   0.54792   0.54945
  Beta virt. eigenvalues --    0.56064   0.57178   0.58713   0.60623   0.65331
  Beta virt. eigenvalues --    0.66029   0.67156   0.69107   0.71548   0.74855
  Beta virt. eigenvalues --    0.75775   0.76921   0.78644   0.81893   0.82288
  Beta virt. eigenvalues --    0.83686   0.86950   2.13386   2.20699   2.26829
  Beta virt. eigenvalues --    2.27930   2.30139   2.34014   2.36928   4.41035
  Beta virt. eigenvalues --    4.41659   4.41764   4.42161   4.43519   4.44440
  Beta virt. eigenvalues --    4.45898   4.47737   4.49413   4.52730   4.53443
  Beta virt. eigenvalues --    4.60504   4.64921   4.68908   4.70495   4.72252
  Beta virt. eigenvalues --    4.76770   4.77568   4.80940   4.85940   4.87436
  Beta virt. eigenvalues --   96.35153  96.44890  96.54363  96.56242  96.59488
  Beta virt. eigenvalues --   96.63666  96.67931
          Condensed to atoms (all electrons):
               1          2          3          4          5          6
     1  Na  13.452877  -1.091334   0.201438  -1.860431  -0.790030   1.078857
     2  Na  -1.091334  14.003498  -1.447839   1.996853  -1.053973  -1.014496
     3  Na   0.201438  -1.447839  14.291766  -2.766043   1.822175  -1.522401
     4  Na  -1.860431   1.996853  -2.766043  15.560139  -1.891581   0.701356
     5  Na  -0.790030  -1.053973   1.822175  -1.891581  15.173671  -3.118656
     6  Na   1.078857  -1.014496  -1.522401   0.701356  -3.118656  15.905687
     7  Na  -0.153356  -0.870958   1.541518  -1.778025   1.845327  -1.718170
               7
     1  Na  -0.153356
     2  Na  -0.870958
     3  Na   1.541518
     4  Na  -1.778025
     5  Na   1.845327
     6  Na  -1.718170
     7  Na  12.391899
          Atomic-Atomic Spin Densities.
               1          2          3          4          5          6
     1  Na   0.063982  -0.001912   0.012536   0.112477   0.193967  -0.399631
     2  Na  -0.001912   0.217013   0.146370  -0.190572   0.427718  -0.802374
     3  Na   0.012536   0.146370   0.039784  -0.190925  -0.162799   0.400522
     4  Na   0.112477  -0.190572  -0.190925   0.287527   0.074348  -0.135656
     5  Na   0.193967   0.427718  -0.162799   0.074348  -0.608477   0.842832
     6  Na  -0.399631  -0.802374   0.400522  -0.135656   0.842832  -0.080481
     7  Na   0.106391   0.272967  -0.148933   0.093543  -0.429577   0.477583
               7
     1  Na   0.106391
     2  Na   0.272967
     3  Na  -0.148933
     4  Na   0.093543
     5  Na  -0.429577
     6  Na   0.477583
     7  Na  -0.317094
 Mulliken charges and spin densities:
               1          2
     1  Na   0.161979   0.087809
     2  Na   0.478249   0.069210
     3  Na  -1.120617   0.096554
     4  Na   1.037731   0.050742
     5  Na  -0.986933   0.338011
     6  Na   0.687825   0.302794
     7  Na  -0.258235   0.054879
 Sum of Mulliken charges =  -0.00000   1.00000
 Mulliken charges and spin densities with hydrogens summed into heavy atoms:
               1          2
     1  Na   0.161979   0.087809
     2  Na   0.478249   0.069210
     3  Na  -1.120617   0.096554
     4  Na   1.037731   0.050742
     5  Na  -0.986933   0.338011
     6  Na   0.687825   0.302794
     7  Na  -0.258235   0.054879
 Electronic spatial extent (au):  <R**2>=           1659.4212
 Charge=             -0.0000 electrons
 Dipole moment (field-independent basis, Debye):
    X=             -0.4860    Y=              0.0386    Z=             -0.1371  Tot=              0.5064
 Quadrupole moment (field-independent basis, Debye-Ang):
   XX=            -56.2364   YY=            -74.2956   ZZ=            -65.1023
   XY=             -0.5853   XZ=              0.1209   YZ=             -1.9303
 Traceless Quadrupole moment (field-independent basis, Debye-Ang):
   XX=              8.9750   YY=             -9.0841   ZZ=              0.1091
   XY=             -0.5853   XZ=              0.1209   YZ=             -1.9303
 Octapole moment (field-independent basis, Debye-Ang**2):
  XXX=            -28.3110  YYY=             -0.4026  ZZZ=              1.7412  XYY=             -0.0925
  XXY=              0.8993  XXZ=             -8.1942  XZZ=              4.6829  YZZ=             -0.3238
  YYZ=              0.2624  XYZ=             -0.2761
 Hexadecapole moment (field-independent basis, Debye-Ang**3):
 XXXX=          -1117.3201 YYYY=           -889.3982 ZZZZ=           -719.0376 XXXY=              4.2080
 XXXZ=              8.4966 YYYX=            -23.3157 YYYZ=            -39.2001 ZZZX=            -11.4865
 ZZZY=             -1.0518 XXYY=           -419.7697 XXZZ=           -312.9725 YYZZ=           -297.0267
 XXYZ=              1.9778 YYXZ=              8.2285 ZZXY=              6.4857
 N-N= 4.046285195971D+02 E-N=-3.538810983401D+03  KE= 1.133449480649D+03
                          Isotropic Fermi Contact Couplings
        Atom                 a.u.       MegaHertz       Gauss      10(-4) cm-1
     1  Na(23)             0.23062     272.82903      97.35218      91.00597
     2  Na(23)             0.16592     196.28391      70.03898      65.47326
     3  Na(23)            -0.00107      -1.26391      -0.45100      -0.42160
     4  Na(23)             0.16967     200.72158      71.62245      66.95351
     5  Na(23)             0.01168      13.81420       4.92925       4.60792
     6  Na(23)             0.21356     252.64175      90.14886      84.27222
     7  Na(23)             0.00842       9.96170       3.55458       3.32286
 --------------------------------------------------------
       Center         ----  Spin Dipole Couplings  ----
                      3XX-RR        3YY-RR        3ZZ-RR
 --------------------------------------------------------
     1   Atom        0.022866     -0.012326     -0.010541
     2   Atom        0.015984     -0.013008     -0.002976
     3   Atom       -0.028404     -0.021573      0.049978
     4   Atom        0.010937     -0.010984      0.000046
     5   Atom       -0.028216     -0.018160      0.046376
     6   Atom        0.003620     -0.006018      0.002398
     7   Atom       -0.003775     -0.008638      0.012413
 --------------------------------------------------------
                        XY            XZ            YZ
 --------------------------------------------------------
     1   Atom       -0.006608      0.030283     -0.003559
     2   Atom       -0.006434      0.029458     -0.003885
     3   Atom       -0.000188     -0.005862      0.016692
     4   Atom        0.016529     -0.036329     -0.018605
     5   Atom       -0.004249     -0.006607      0.026875
     6   Atom        0.010353     -0.021886     -0.016570
     7   Atom        0.000500     -0.008638     -0.000967
 --------------------------------------------------------


 ---------------------------------------------------------------------------------
              Anisotropic Spin Dipole Couplings in Principal Axis System
 ---------------------------------------------------------------------------------

       Atom             a.u.   MegaHertz   Gauss  10(-4) cm-1        Axes

              Baa    -0.0284    -4.014    -1.432    -1.339 -0.5101 -0.0193  0.8599
     1 Na(23) Bbb    -0.0134    -1.887    -0.673    -0.629  0.1084  0.9903  0.0865
              Bcc     0.0418     5.901     2.106     1.968  0.8532 -0.1373  0.5031
 
              Baa    -0.0245    -3.457    -1.234    -1.153 -0.5938 -0.0613  0.8023
     2 Na(23) Bbb    -0.0141    -1.985    -0.708    -0.662  0.0797  0.9877  0.1345
              Bcc     0.0385     5.442     1.942     1.815  0.8007 -0.1438  0.5816
 
              Baa    -0.0291    -4.111    -1.467    -1.371  0.9601 -0.2507  0.1241
     3 Na(23) Bbb    -0.0250    -3.526    -1.258    -1.176  0.2709  0.9439 -0.1890
              Bcc     0.0541     7.637     2.725     2.548 -0.0697  0.2151  0.9741
 
              Baa    -0.0321    -4.532    -1.617    -1.512  0.5678  0.2473  0.7851
     4 Na(23) Bbb    -0.0198    -2.800    -0.999    -0.934 -0.4400  0.8973  0.0356
              Bcc     0.0519     7.332     2.616     2.446  0.6956  0.3657 -0.6183
 
              Baa    -0.0302    -4.266    -1.522    -1.423  0.7972  0.5879 -0.1375
     5 Na(23) Bbb    -0.0266    -3.754    -1.339    -1.252 -0.5970  0.7337 -0.3243
              Bcc     0.0568     8.020     2.862     2.675 -0.0898  0.3407  0.9359
 
              Baa    -0.0216    -3.056    -1.090    -1.019  0.4421  0.4982  0.7459
     6 Na(23) Bbb    -0.0124    -1.745    -0.623    -0.582 -0.6487  0.7519 -0.1178
              Bcc     0.0340     4.801     1.713     1.601 -0.6195 -0.4318  0.6556
 
              Baa    -0.0087    -1.227    -0.438    -0.409 -0.0749  0.9971  0.0150
     7 Na(23) Bbb    -0.0075    -1.061    -0.379    -0.354  0.9146  0.0627  0.3995
              Bcc     0.0162     2.288     0.817     0.763 -0.3974 -0.0437  0.9166
 

 ---------------------------------------------------------------------------------

 No NMR shielding tensors so no spin-rotation constants.
 Leave Link  601 at Mon Nov 13 12:28:59 2023, MaxMem=  1879048192 cpu:               2.5 elap:               0.2
 (Enter /home/sekinelabo/g16/l701.exe)
 ... and contract with generalized density number  0.
 Compute integral first derivatives.
 Leave Link  701 at Mon Nov 13 12:28:59 2023, MaxMem=  1879048192 cpu:               1.7 elap:               0.1
 (Enter /home/sekinelabo/g16/l702.exe)
 L702 exits ... SP integral derivatives will be done elsewhere.
 Leave Link  702 at Mon Nov 13 12:28:59 2023, MaxMem=  1879048192 cpu:               0.5 elap:               0.0
 (Enter /home/sekinelabo/g16/l703.exe)
 Integral derivatives from FoFJK, PRISM(SPDF).
 Compute integral first derivatives, UseDBF=F ICtDFT=           0.
 Calling FoFJK, ICntrl=      2127 FMM=F ISym2X=0 I1Cent= 0 IOpClX= 1 NMat=1 NMatS=1 NMatT=0.
 FoFJK:  IHMeth= 1 ICntrl=    2127 DoSepK=F KAlg= 0 I1Cent=           0 FoldK=F
 IRaf=         0 NMat=       1 IRICut=       1 DoRegI=T DoRafI=F ISym2E= 0 IDoP0=0 IntGTp=1.
 FoFCou: FMM=F IPFlag=           0 FMFlag=      100000 FMFlg1=         800
         NFxFlg=           0 DoJE=F BraDBF=F KetDBF=F FulRan=T
         wScrn=  0.000000 ICntrl=      2127 IOpCl=  1 I1Cent=           0 NGrid=           0
         NMat0=    1 NMatS0=      1 NMatT0=    0 NMatD0=    1 NMtDS0=    0 NMtDT0=    0
 Symmetry not used in FoFCou.
 Leave Link  703 at Mon Nov 13 12:29:02 2023, MaxMem=  1879048192 cpu:              37.9 elap:               2.4
 (Enter /home/sekinelabo/g16/l716.exe)
 Dipole        =-1.91208814D-01 1.51832078D-02-5.39338389D-02
 ***** Axes restored to original set *****
 -------------------------------------------------------------------
 Center     Atomic                   Forces (Hartrees/Bohr)
 Number     Number              X              Y              Z
 -------------------------------------------------------------------
      1       11          -0.010369298    0.000144468    0.014335677
      2       11           0.017829703   -0.000573304   -0.014181418
      3       11          -0.007058783    0.021189849   -0.005596009
      4       11           0.017208355    0.004044657    0.018753724
      5       11           0.003452958   -0.021992312    0.004975021
      6       11          -0.009628818   -0.004256938   -0.016183339
      7       11          -0.011434117    0.001443579   -0.002103656
 -------------------------------------------------------------------
 Cartesian Forces:  Max     0.021992312 RMS     0.012065407
 Z-matrix is all fixed cartesians, so copy forces.
 Force constants in Cartesian coordinates: 
                1             2             3             4             5 
      1  0.185061D+00
      2  0.341259D-02  0.156836D+00
      3 -0.270538D-01  0.519458D-02  0.213992D+00
      4 -0.416696D-02 -0.863331D-04  0.146109D-01  0.156525D+00
      5 -0.766569D-04  0.218873D-01  0.247882D-03  0.483538D-02  0.127017D+00
      6  0.147286D-01 -0.198134D-03 -0.678903D-03 -0.410793D-01  0.394362D-03
      7 -0.215771D-01 -0.185355D-01  0.865863D-02 -0.291012D-01  0.284047D-01
      8  0.959021D-02 -0.362544D-01 -0.944467D-02 -0.135610D-01 -0.383312D-01
      9  0.934656D-02  0.351510D-01 -0.348027D-01  0.136686D-01 -0.201566D-01
     10 -0.702338D-01 -0.109060D-01 -0.269264D-01 -0.290919D-01  0.640485D-02
     11 -0.609725D-03 -0.472504D-01 -0.886314D-02 -0.733807D-02 -0.360842D-01
     12  0.315905D-01  0.548089D-02 -0.438822D-01 -0.209165D-01 -0.132297D-01
     13 -0.255847D-01  0.234788D-01  0.144043D-02 -0.197966D-01 -0.253582D-01
     14 -0.579088D-02 -0.355718D-01  0.119035D-01  0.115691D-01 -0.308651D-01
     15  0.146064D-01 -0.294165D-01 -0.260455D-01  0.814102D-02  0.248845D-01
     16 -0.260037D-01  0.308714D-02  0.175189D-01 -0.715215D-01 -0.133289D-01
     17 -0.570805D-02 -0.269558D-01  0.101201D-02  0.397160D-02 -0.631056D-01
     18 -0.957044D-02 -0.145585D-01 -0.573958D-01  0.227611D-01  0.125413D-01
     19 -0.374944D-01 -0.450659D-03  0.117514D-01 -0.284663D-02 -0.881254D-03
     20 -0.817484D-03 -0.326910D-01 -0.501711D-04  0.609377D-03  0.194818D-01
     21 -0.336478D-01 -0.165338D-02 -0.511868D-01  0.281418D-02 -0.468178D-02
                6             7             8             9            10 
      6  0.152259D+00
      7  0.557160D-02  0.119752D+00
      8  0.127847D-01 -0.409684D-02  0.209204D+00
      9 -0.191360D-01  0.358417D-02 -0.181249D-01  0.122933D+00
     10  0.320811D-01 -0.443105D-01 -0.130861D-01 -0.151058D-01  0.191361D+00
     11 -0.218620D-02  0.296980D-01 -0.505379D-01  0.374034D-01  0.122191D-01
     12 -0.713050D-01 -0.179444D-01 -0.859948D-02 -0.473510D-01  0.337371D-01
     13  0.173291D-01  0.148268D-01  0.521526D-02 -0.367659D-02 -0.281896D-01
     14 -0.359813D-02  0.239338D-02 -0.151903D-01  0.569271D-02  0.811109D-02
     15 -0.217152D-01 -0.275015D-02  0.570343D-02  0.161091D-01 -0.644694D-02
     16 -0.332086D-01 -0.290117D-01  0.527865D-02 -0.458771D-02 -0.149729D-01
     17 -0.355315D-02 -0.144387D-01 -0.515634D-01 -0.389890D-01 -0.882409D-03
     18 -0.539416D-01  0.379236D-04  0.141177D-01 -0.343526D-01 -0.851132D-02
     19  0.457740D-02 -0.105782D-01  0.106598D-01 -0.322922D-02 -0.456269D-02
     20 -0.364342D-02 -0.234251D-01 -0.173269D-01 -0.976574D-03 -0.186051D-02
     21  0.145178D-01  0.284221D-02  0.356322D-02 -0.339998D-02 -0.882780D-02
               11            12            13            14            15 
     11  0.169112D+00
     12  0.133353D-01  0.202020D+00
     13 -0.266110D-01 -0.487776D-02  0.101344D+00
     14 -0.469883D-01  0.108732D-01 -0.120369D-01  0.169734D+00
     15 -0.305422D-01 -0.278820D-01  0.226037D-02 -0.147586D-01  0.109808D+00
     16 -0.558474D-02 -0.162564D-01 -0.391796D-01 -0.468471D-02 -0.142893D-01
     17 -0.477862D-02 -0.890675D-02  0.241390D-01 -0.427143D-01  0.428485D-01
     18 -0.100520D-01 -0.236389D-01 -0.994783D-02 -0.122007D-01 -0.585736D-01
     19 -0.177350D-02 -0.533255D-02 -0.342004D-02  0.438937D-03 -0.152133D-02
     20  0.165271D-01  0.104654D-02  0.111731D-01  0.159529D-02  0.128074D-02
     21  0.904826D-03  0.120388D-01 -0.252771D-02  0.208801D-02  0.829895D-02
               16            17            18            19            20 
     16  0.226629D+00
     17 -0.343811D-03  0.245815D+00
     18  0.205950D-01  0.974319D-02  0.288497D+00
     19 -0.459394D-01 -0.673764D-02 -0.153644D-01  0.104841D+00
     20  0.155764D-01 -0.566970D-01  0.409018D-03 -0.125571D-02  0.691108D-01
     21  0.302282D-01 -0.215478D-02 -0.605948D-01  0.911868D-02  0.193387D-02
               21 
     21  0.803261D-01
 Leave Link  716 at Mon Nov 13 12:29:02 2023, MaxMem=  1879048192 cpu:               0.5 elap:               0.0
 (Enter /home/sekinelabo/g16/l103.exe)

 GradGradGradGradGradGradGradGradGradGradGradGradGradGradGradGradGradGrad
 Berny optimization.
 Search for a local minimum.
 Step number   1 out of a maximum of    2
 All quantities printed in internal units (Hartrees-Bohrs-Radians)
 Second derivative matrix not updated -- first step.
 ITU=  0
     Eigenvalues ---    0.10009   0.10937   0.12177   0.17307   0.18114
     Eigenvalues ---    0.18726   0.20899   0.23173   0.24634   0.26612
     Eigenvalues ---    0.26933   0.29715   0.30380   0.31839   0.35904
 Quadratic step=3.616D-01 exceeds max=3.000D-01 adjusted using Lamda=-2.733D-02.
 Angle between NR and scaled steps=   2.99 degrees.
 Angle between quadratic step and forces=  16.07 degrees.
 Linear search not attempted -- first point.
 B after Tr=     0.000000    0.000000    0.000000
         Rot=    1.000000   -0.000000    0.000000    0.000000 Ang=   0.00 deg.
 Variable       Old X    -DE/DX   Delta X   Delta X   Delta X     New X
                                 (Linear)    (Quad)   (Total)
    X1        4.10876  -0.01037   0.00000  -0.05405  -0.05405   4.05471
    Y1        4.23359   0.00014   0.00000   0.00188   0.00188   4.23547
    Z1        5.57683   0.01434   0.00000   0.07118   0.07118   5.64801
    X2       10.17831   0.01783   0.00000   0.10866   0.10866  10.28697
    Y2        4.11765  -0.00057   0.00000  -0.00262  -0.00262   4.11503
    Z2        0.12475  -0.01418   0.00000  -0.06911  -0.06911   0.05564
    X3        6.49392  -0.00706   0.00000  -0.01905  -0.01905   6.47487
    Y3        8.29004   0.02119   0.00000   0.11198   0.11198   8.40203
    Z3        2.08005  -0.00560   0.00000  -0.01918  -0.01918   2.06087
    X4        9.29482   0.01721   0.00000   0.08583   0.08583   9.38065
    Y4        5.12461   0.00404   0.00000   0.02449   0.02449   5.14909
    Z4        5.18874   0.01875   0.00000   0.07317   0.07317   5.26191
    X5        7.54389   0.00345   0.00000   0.03732   0.03732   7.58121
    Y5        0.00000  -0.02199   0.00000  -0.12306  -0.12306  -0.12306
    Z5        3.43241   0.00498   0.00000   0.02335   0.02335   3.45576
    X6        5.03437  -0.00963   0.00000  -0.03317  -0.03317   5.00119
    Y6        3.10910  -0.00426   0.00000  -0.02425  -0.02425   3.08485
    Z6        0.00000  -0.01618   0.00000  -0.06340  -0.06340  -0.06340
    X7        0.00000  -0.01143   0.00000  -0.12554  -0.12554  -0.12554
    Y7        4.07830   0.00144   0.00000   0.01158   0.01158   4.08988
    Z7        1.94703  -0.00210   0.00000  -0.01600  -0.01600   1.93103
         Item               Value     Threshold  Converged?
 Maximum Force            0.021992     0.000450     NO 
 RMS     Force            0.012065     0.000300     NO 
 Maximum Displacement     0.125541     0.001800     NO 
 RMS     Displacement     0.065507     0.001200     NO 
 Predicted change in Energy=-9.205713D-03
 GradGradGradGradGradGradGradGradGradGradGradGradGradGradGradGradGradGrad

 Leave Link  103 at Mon Nov 13 12:29:02 2023, MaxMem=  1879048192 cpu:               0.2 elap:               0.0
 (Enter /home/sekinelabo/g16/l9999.exe)
 1\1\GINC-SEKINELABO-XA7R-R37\Force\UB3LYP\6-311+G(d)\Na7(2)\SEKINELABO
 \13-Nov-2023\0\\#P B3LYP/6-311+g(d) force\\Gaussian input prepared by 
 ASE\\0,2\Na,2.1742639575,2.2403167791,2.9511332691\Na,5.3861303552,2.1
 789679302,0.0660169091\Na,3.436435568,4.3869028784,1.1007144401\Na,4.9
 186076052,2.7118242941,2.7457634021\Na,3.9920555417,0.,1.8163511864\Na
 ,2.664071344,1.6452667446,0.\Na,0.,2.1581420938,1.0303234468\\Version=
 ES64L-G16RevB.01\State=2-A\HF=-1136.0848939\S2=0.7612\S2-1=0.\S2A=0.75
 0066\RMSD=7.291e-09\RMSF=1.207e-02\Dipole=-0.1912088,0.0151832,-0.0539
 338\Quadrupole=6.6726943,-6.7538341,0.0811399,-0.4351696,0.0899119,-1.
 4351522\PG=C01 [X(Na7)]\\@


 I MET A TRAVELLER FROM AN ANTIQUE LAND
 WHO SAID... TWO VAST AND TRUNKLESS LEGS OF STONE
 STAND IN THE DESERT..... NEAR THEM,  ON THE SAND,
 HALF SUNK,  A SHATTERED VISAGE LIES,  WHOSE FROWN,
 AND WRINKLED LIP,  AND SNEER OF COLD COMMAND
 TELL THAT ITS SCULPTOR WELL THOSE PASSIONS READ
 WHICH YET SURVIVE,  STAMPED ON THESE LIFELESS THINGS
 THE HAND THAT MOCKED THEM,  AND THE HEART THAT FED-
 AND ON THE PEDESTAL THESE WORDS APPEAR 
 MY NAME IS OZYMANDIAS, KING OF KINGS--   
 LOOK ON MY WORKS YE MIGHTY AND DESPAIR. 
 NOTHING BESIDE REMAINS,  ROUND THE DECAY 
 OF THAT COLOSSAL WRECK,  BOUNDLESS AND BARE
 THE LONE AND LEVEL SANDS STRETCH FAR AWAY.
                                    SHELLEY
 Job cpu time:       0 days  0 hours  4 minutes 49.7 seconds.
 Elapsed time:       0 days  0 hours  0 minutes 23.5 seconds.
 File lengths (MBytes):  RWF=     32 Int=      0 D2E=      0 Chk=      5 Scr=      1
 Normal termination of Gaussian 16 at Mon Nov 13 12:29:02 2023.
