 Entering Gaussian System, Link 0=g16
 Initial command:
 /home/sekinelabo/g16/l1.exe "/home/sekinelabo/g16temp/Gau-3974331.inp" -scrdir="/home/sekinelabo/g16temp/"
 Entering Link 1 = /home/sekinelabo/g16/l1.exe PID=   3974333.
  
 Copyright (c) 1988-2017, Gaussian, Inc.  All Rights Reserved.
  
 This is part of the Gaussian(R) 16 program.  It is based on
 the Gaussian(R) 09 system (copyright 2009, Gaussian, Inc.),
 the Gaussian(R) 03 system (copyright 2003, Gaussian, Inc.),
 the Gaussian(R) 98 system (copyright 1998, Gaussian, Inc.),
 the Gaussian(R) 94 system (copyright 1995, Gaussian, Inc.),
 the Gaussian 92(TM) system (copyright 1992, Gaussian, Inc.),
 the Gaussian 90(TM) system (copyright 1990, Gaussian, Inc.),
 the Gaussian 88(TM) system (copyright 1988, Gaussian, Inc.),
 the Gaussian 86(TM) system (copyright 1986, Carnegie Mellon
 University), and the Gaussian 82(TM) system (copyright 1983,
 Carnegie Mellon University). Gaussian is a federally registered
 trademark of Gaussian, Inc.
  
 This software contains proprietary and confidential information,
 including trade secrets, belonging to Gaussian, Inc.
  
 This software is provided under written license and may be
 used, copied, transmitted, or stored only in accord with that
 written license.
  
 The following legend is applicable only to US Government
 contracts under FAR:
  
                    RESTRICTED RIGHTS LEGEND
  
 Use, reproduction and disclosure by the US Government is
 subject to restrictions as set forth in subparagraphs (a)
 and (c) of the Commercial Computer Software - Restricted
 Rights clause in FAR 52.227-19.
  
 Gaussian, Inc.
 340 Quinnipiac St., Bldg. 40, Wallingford CT 06492
  
  
 ---------------------------------------------------------------
 Warning -- This program may not be used in any manner that
 competes with the business of Gaussian, Inc. or will provide
 assistance to any competitor of Gaussian, Inc.  The licensee
 of this program is prohibited from giving any competitor of
 Gaussian, Inc. access to this program.  By using this program,
 the user acknowledges that Gaussian, Inc. is engaged in the
 business of creating and licensing software in the field of
 computational chemistry and represents and warrants to the
 licensee that it is not a competitor of Gaussian, Inc. and that
 it will not use this program in any manner prohibited above.
 ---------------------------------------------------------------
  

 Cite this work as:
 Gaussian 16, Revision B.01,
 M. J. Frisch, G. W. Trucks, H. B. Schlegel, G. E. Scuseria, 
 M. A. Robb, J. R. Cheeseman, G. Scalmani, V. Barone, 
 G. A. Petersson, H. Nakatsuji, X. Li, M. Caricato, A. V. Marenich, 
 J. Bloino, B. G. Janesko, R. Gomperts, B. Mennucci, H. P. Hratchian, 
 J. V. Ortiz, A. F. Izmaylov, J. L. Sonnenberg, D. Williams-Young, 
 F. Ding, F. Lipparini, F. Egidi, J. Goings, B. Peng, A. Petrone, 
 T. Henderson, D. Ranasinghe, V. G. Zakrzewski, J. Gao, N. Rega, 
 G. Zheng, W. Liang, M. Hada, M. Ehara, K. Toyota, R. Fukuda, 
 J. Hasegawa, M. Ishida, T. Nakajima, Y. Honda, O. Kitao, H. Nakai, 
 T. Vreven, K. Throssell, J. A. Montgomery, Jr., J. E. Peralta, 
 F. Ogliaro, M. J. Bearpark, J. J. Heyd, E. N. Brothers, K. N. Kudin, 
 V. N. Staroverov, T. A. Keith, R. Kobayashi, J. Normand, 
 K. Raghavachari, A. P. Rendell, J. C. Burant, S. S. Iyengar, 
 J. Tomasi, M. Cossi, J. M. Millam, M. Klene, C. Adamo, R. Cammi, 
 J. W. Ochterski, R. L. Martin, K. Morokuma, O. Farkas, 
 J. B. Foresman, and D. J. Fox, Gaussian, Inc., Wallingford CT, 2016.
 
 ******************************************
 Gaussian 16:  ES64L-G16RevB.01 20-Dec-2017
                13-Nov-2023 
 ******************************************
 %mem=14GB
 %chk=checkpoint.chk
 %nprocshared=16
 Will use up to   16 processors via shared memory.
 -------------------------
 #P B3LYP/6-311+g(d) force
 -------------------------
 1/10=7,30=1,38=1/1,3;
 2/12=2,17=6,18=5,40=1/2;
 3/5=4,6=6,7=11,11=2,25=1,30=1,71=1,74=-5/1,2,3;
 4//1;
 5/5=2,38=5/2;
 6/7=2,8=2,9=2,10=2,28=1/1;
 7/29=1/1,2,3,16;
 1/10=7,30=1/3;
 99//99;
 Leave Link    1 at Mon Nov 13 12:08:24 2023, MaxMem=  1879048192 cpu:               0.3 elap:               0.0
 (Enter /home/sekinelabo/g16/l101.exe)
 ------------------------------
 Gaussian input prepared by ASE
 ------------------------------
 Symbolic Z-matrix:
 Charge =  0 Multiplicity = 2
 Na                    2.50824   2.23942   0. 
 Na                    2.63078   4.91435   1.3959 
 Na                    0.83329   0.14551   1.39545 
 Na                    0.        3.18154   1.39328 
 Na                    3.98268   0.        1.39375 
 Na                    2.50787   2.23777   2.78729 
 Na                    5.09175   2.94775   1.39449 
 
 ITRead=  0  0  0  0  0  0  0
 MicOpt= -1 -1 -1 -1 -1 -1 -1
 NAtoms=      7 NQM=        7 NQMF=       0 NMMI=      0 NMMIF=      0
                NMic=       0 NMicF=      0.
                    Isotopes and Nuclear Properties:
 (Nuclear quadrupole moments (NQMom) in fm**2, nuclear magnetic moments (NMagM)
  in nuclear magnetons)

  Atom         1           2           3           4           5           6           7
 IAtWgt=          23          23          23          23          23          23          23
 AtmWgt=  22.9897697  22.9897697  22.9897697  22.9897697  22.9897697  22.9897697  22.9897697
 NucSpn=           3           3           3           3           3           3           3
 AtZEff=  -0.0000000  -0.0000000  -0.0000000  -0.0000000  -0.0000000  -0.0000000  -0.0000000
 NQMom=   10.4000000  10.4000000  10.4000000  10.4000000  10.4000000  10.4000000  10.4000000
 NMagM=    2.2175200   2.2175200   2.2175200   2.2175200   2.2175200   2.2175200   2.2175200
 AtZNuc=  11.0000000  11.0000000  11.0000000  11.0000000  11.0000000  11.0000000  11.0000000
 Leave Link  101 at Mon Nov 13 12:08:24 2023, MaxMem=  1879048192 cpu:               2.6 elap:               0.2
 (Enter /home/sekinelabo/g16/l103.exe)

 GradGradGradGradGradGradGradGradGradGradGradGradGradGradGradGradGradGrad
 Berny optimization.
 Initialization pass.
 Trust Radius=3.00D-01 FncErr=1.00D-07 GrdErr=1.00D-07 EigMax=2.50D+02 EigMin=1.00D-04
 Number of steps in this run=      2 maximum allowed number of steps=      2.
 GradGradGradGradGradGradGradGradGradGradGradGradGradGradGradGradGradGrad

 Leave Link  103 at Mon Nov 13 12:08:24 2023, MaxMem=  1879048192 cpu:               0.2 elap:               0.0
 (Enter /home/sekinelabo/g16/l202.exe)
                          Input orientation:                          
 ---------------------------------------------------------------------
 Center     Atomic      Atomic             Coordinates (Angstroms)
 Number     Number       Type             X           Y           Z
 ---------------------------------------------------------------------
      1         11           0        2.508240    2.239420    0.000000
      2         11           0        2.630781    4.914355    1.395903
      3         11           0        0.833287    0.145515    1.395448
      4         11           0        0.000000    3.181541    1.393285
      5         11           0        3.982678    0.000000    1.393750
      6         11           0        2.507872    2.237773    2.787290
      7         11           0        5.091749    2.947748    1.394495
 ---------------------------------------------------------------------
                    Distance matrix (angstroms):
                    1          2          3          4          5
     1  Na   0.000000
     2  Na   3.019741   0.000000
     3  Na   3.022778   5.096354   0.000000
     4  Na   3.019951   3.150184   3.148305   0.000000
     5  Na   3.021839   5.096912   3.152751   5.097443   0.000000
     6  Na   2.787290   3.019131   3.019769   3.020492   3.020700
     7  Na   3.020076   3.150224   5.097746   5.097114   3.149485
                    6          7
     6  Na   0.000000
     7  Na   3.019994   0.000000
 Stoichiometry    Na7(2)
 Framework group  C1[X(Na7)]
 Deg. of freedom    15
 Full point group                 C1      NOp   1
 Largest Abelian subgroup         C1      NOp   1
 Largest concise Abelian subgroup C1      NOp   1
                         Standard orientation:                         
 ---------------------------------------------------------------------
 Center     Atomic      Atomic             Coordinates (Angstroms)
 Number     Number       Type             X           Y           Z
 ---------------------------------------------------------------------
      1         11           0        0.000439   -0.001370    1.394310
      2         11           0        0.122980   -2.676305   -0.001593
      3         11           0       -1.674514    2.092535   -0.001138
      4         11           0       -2.507801   -0.943491    0.001025
      5         11           0        1.474877    2.238050    0.000560
      6         11           0        0.000071    0.000277   -1.392980
      7         11           0        2.583948   -0.709698   -0.000185
 ---------------------------------------------------------------------
 Rotational constants (GHZ):           1.0070666           1.0063193           0.6122609
 Leave Link  202 at Mon Nov 13 12:08:24 2023, MaxMem=  1879048192 cpu:               0.0 elap:               0.0
 (Enter /home/sekinelabo/g16/l301.exe)
 Standard basis: 6-311+G(d) (5D, 7F)
 Ernie: Thresh=  0.10000D-02 Tol=  0.10000D-05 Strict=F.
 There are   217 symmetry adapted cartesian basis functions of A   symmetry.
 There are   210 symmetry adapted basis functions of A   symmetry.
   210 basis functions,   350 primitive gaussians,   217 cartesian basis functions
    39 alpha electrons       38 beta electrons
       nuclear repulsion energy       399.4022781236 Hartrees.
 IExCor=  402 DFT=T Ex+Corr=B3LYP ExCW=0 ScaHFX=  0.200000
 ScaDFX=  0.800000  0.720000  1.000000  0.810000 ScalE2=  1.000000  1.000000
 IRadAn=      5 IRanWt=     -1 IRanGd=            0 ICorTp=0 IEmpDi=  4
 NAtoms=    7 NActive=    7 NUniq=    7 SFac= 1.00D+00 NAtFMM=   60 NAOKFM=F Big=F
 Integral buffers will be    131072 words long.
 Raffenetti 2 integral format.
 Two-electron integral symmetry is turned on.
 Leave Link  301 at Mon Nov 13 12:08:24 2023, MaxMem=  1879048192 cpu:               0.5 elap:               0.0
 (Enter /home/sekinelabo/g16/l302.exe)
 NPDir=0 NMtPBC=     1 NCelOv=     1 NCel=       1 NClECP=     1 NCelD=      1
         NCelK=      1 NCelE2=     1 NClLst=     1 CellRange=     0.0.
 One-electron integrals computed using PRISM.
 One-electron integral symmetry used in STVInt
 NBasis=   210 RedAO= T EigKep=  1.63D-06  NBF=   210
 NBsUse=   210 1.00D-06 EigRej= -1.00D+00 NBFU=   210
 Precomputing XC quadrature grid using
 IXCGrd= 4 IRadAn=           5 IRanWt=          -1 IRanGd=           0 AccXCQ= 0.00D+00.
 Generated NRdTot=       0 NPtTot=           0 NUsed=           0 NTot=          32
 NSgBfM=   211   211   211   211   211 MxSgAt=     7 MxSgA2=     7.
 Leave Link  302 at Mon Nov 13 12:08:24 2023, MaxMem=  1879048192 cpu:               2.2 elap:               0.1
 (Enter /home/sekinelabo/g16/l303.exe)
 DipDrv:  MaxL=1.
 Leave Link  303 at Mon Nov 13 12:08:24 2023, MaxMem=  1879048192 cpu:               0.6 elap:               0.0
 (Enter /home/sekinelabo/g16/l401.exe)
 ExpMin= 7.60D-03 ExpMax= 3.62D+04 ExpMxC= 1.21D+03 IAcc=3 IRadAn=         5 AccDes= 0.00D+00
 Harris functional with IExCor=  402 and IRadAn=       5 diagonalized for initial guess.
 HarFok:  IExCor=  402 AccDes= 0.00D+00 IRadAn=         5 IDoV= 1 UseB2=F ITyADJ=14
 ICtDFT=  3500011 ScaDFX=  1.000000  1.000000  1.000000  1.000000
 FoFCou: FMM=F IPFlag=           0 FMFlag=      100000 FMFlg1=           0
         NFxFlg=           0 DoJE=T BraDBF=F KetDBF=T FulRan=T
         wScrn=  0.000000 ICntrl=       500 IOpCl=  0 I1Cent=   200000004 NGrid=           0
         NMat0=    1 NMatS0=      1 NMatT0=    0 NMatD0=    1 NMtDS0=    0 NMtDT0=    0
 Petite list used in FoFCou.
 Harris En= -1135.88426852069    
 JPrj=0 DoOrth=F DoCkMO=F.
 Initial guess <Sx>= 0.0000 <Sy>= 0.0000 <Sz>= 0.5000 <S**2>= 0.7500 S= 0.5000
 Leave Link  401 at Mon Nov 13 12:08:25 2023, MaxMem=  1879048192 cpu:               4.7 elap:               0.3
 (Enter /home/sekinelabo/g16/l502.exe)
 Keep R1 and R2 ints in memory in canonical form, NReq=507620388.
 FoFCou: FMM=F IPFlag=           0 FMFlag=           0 FMFlg1=           0
         NFxFlg=           0 DoJE=F BraDBF=F KetDBF=F FulRan=T
         wScrn=  0.000000 ICntrl=       600 IOpCl=  0 I1Cent=           0 NGrid=           0
         NMat0=    1 NMatS0=  22155 NMatT0=    0 NMatD0=    1 NMtDS0=    0 NMtDT0=    0
 Symmetry not used in FoFCou.
 Two-electron integral symmetry not used.
 UHF open shell SCF:
 Using DIIS extrapolation, IDIIS=  1040.
 NGot=  1879048192 LenX=  1388082348 LenY=  1388034818
 Requested convergence on RMS density matrix=1.00D-08 within 128 cycles.
 Requested convergence on MAX density matrix=1.00D-06.
 Requested convergence on             energy=1.00D-06.
 No special actions if energy rises.

 Cycle   1  Pass 1  IDiag  1:
 E= -1136.05563536450    
 DIIS: error= 1.65D-02 at cycle   1 NSaved=   1.
 NSaved= 1 IEnMin= 1 EnMin= -1136.05563536450     IErMin= 1 ErrMin= 1.65D-02
 ErrMax= 1.65D-02  0.00D+00 EMaxC= 1.00D-01 BMatC= 2.14D-01 BMatP= 2.14D-01
 IDIUse=3 WtCom= 8.35D-01 WtEn= 1.65D-01
 Coeff-Com:  0.100D+01
 Coeff-En:   0.100D+01
 Coeff:      0.100D+01
 Gap=     0.046 Goal=   None    Shift=    0.000
 Gap=     0.064 Goal=   None    Shift=    0.000
 GapD=    0.046 DampG=0.250 DampE=0.500 DampFc=0.2500 IDamp=-1.
 Damping current iteration by 2.50D-01
 RMSDP=1.54D-01 MaxDP=8.28D+00              OVMax= 2.94D-01

 Cycle   2  Pass 1  IDiag  1:
 E= -1136.07476578218     Delta-E=       -0.019130417674 Rises=F Damp=T
 DIIS: error= 1.11D-02 at cycle   2 NSaved=   2.
 NSaved= 2 IEnMin= 2 EnMin= -1136.07476578218     IErMin= 2 ErrMin= 1.11D-02
 ErrMax= 1.11D-02  0.00D+00 EMaxC= 1.00D-01 BMatC= 7.93D-02 BMatP= 2.14D-01
 IDIUse=3 WtCom= 8.89D-01 WtEn= 1.11D-01
 Coeff-Com: -0.122D+01 0.222D+01
 Coeff-En:   0.000D+00 0.100D+01
 Coeff:     -0.109D+01 0.209D+01
 Gap=     0.061 Goal=   None    Shift=    0.000
 Gap=     0.065 Goal=   None    Shift=    0.000
 RMSDP=6.56D-02 MaxDP=3.63D+00 DE=-1.91D-02 OVMax= 2.00D-01

 Cycle   3  Pass 1  IDiag  1:
 E= -1136.10569697209     Delta-E=       -0.030931189911 Rises=F Damp=F
 DIIS: error= 4.07D-03 at cycle   3 NSaved=   3.
 NSaved= 3 IEnMin= 3 EnMin= -1136.10569697209     IErMin= 3 ErrMin= 4.07D-03
 ErrMax= 4.07D-03  0.00D+00 EMaxC= 1.00D-01 BMatC= 5.76D-03 BMatP= 7.93D-02
 IDIUse=3 WtCom= 9.59D-01 WtEn= 4.07D-02
 Coeff-Com: -0.306D+00 0.568D+00 0.738D+00
 Coeff-En:   0.000D+00 0.000D+00 0.100D+01
 Coeff:     -0.294D+00 0.545D+00 0.749D+00
 Gap=     0.055 Goal=   None    Shift=    0.000
 Gap=     0.065 Goal=   None    Shift=    0.000
 RMSDP=3.12D-02 MaxDP=2.26D+00 DE=-3.09D-02 OVMax= 5.45D-02

 Cycle   4  Pass 1  IDiag  1:
 E= -1136.10704392584     Delta-E=       -0.001346953750 Rises=F Damp=F
 DIIS: error= 3.06D-03 at cycle   4 NSaved=   4.
 NSaved= 4 IEnMin= 4 EnMin= -1136.10704392584     IErMin= 4 ErrMin= 3.06D-03
 ErrMax= 3.06D-03  0.00D+00 EMaxC= 1.00D-01 BMatC= 2.68D-03 BMatP= 5.76D-03
 IDIUse=3 WtCom= 9.69D-01 WtEn= 3.06D-02
 Coeff-Com:  0.124D-01-0.164D-01 0.406D+00 0.598D+00
 Coeff-En:   0.000D+00 0.000D+00 0.348D+00 0.652D+00
 Coeff:      0.120D-01-0.159D-01 0.404D+00 0.600D+00
 Gap=     0.057 Goal=   None    Shift=    0.000
 Gap=     0.066 Goal=   None    Shift=    0.000
 RMSDP=7.48D-03 MaxDP=4.36D-01 DE=-1.35D-03 OVMax= 2.37D-02

 Cycle   5  Pass 1  IDiag  1:
 E= -1136.10837326845     Delta-E=       -0.001329342613 Rises=F Damp=F
 DIIS: error= 4.96D-05 at cycle   5 NSaved=   5.
 NSaved= 5 IEnMin= 5 EnMin= -1136.10837326845     IErMin= 5 ErrMin= 4.96D-05
 ErrMax= 4.96D-05  0.00D+00 EMaxC= 1.00D-01 BMatC= 6.62D-07 BMatP= 2.68D-03
 IDIUse=1 WtCom= 1.00D+00 WtEn= 0.00D+00
 Coeff-Com: -0.437D-02 0.555D-02-0.267D-01-0.402D-01 0.107D+01
 Coeff:     -0.437D-02 0.555D-02-0.267D-01-0.402D-01 0.107D+01
 Gap=     0.057 Goal=   None    Shift=    0.000
 Gap=     0.066 Goal=   None    Shift=    0.000
 RMSDP=1.33D-03 MaxDP=1.64D-01 DE=-1.33D-03 OVMax= 8.30D-04

 Cycle   6  Pass 1  IDiag  1:
 E= -1136.10837403810     Delta-E=       -0.000000769650 Rises=F Damp=F
 DIIS: error= 2.66D-05 at cycle   6 NSaved=   6.
 NSaved= 6 IEnMin= 6 EnMin= -1136.10837403810     IErMin= 6 ErrMin= 2.66D-05
 ErrMax= 2.66D-05  0.00D+00 EMaxC= 1.00D-01 BMatC= 1.65D-07 BMatP= 6.62D-07
 IDIUse=1 WtCom= 1.00D+00 WtEn= 0.00D+00
 Coeff-Com: -0.138D-02 0.171D-02-0.151D-01-0.217D-01 0.333D+00 0.704D+00
 Coeff:     -0.138D-02 0.171D-02-0.151D-01-0.217D-01 0.333D+00 0.704D+00
 Gap=     0.057 Goal=   None    Shift=    0.000
 Gap=     0.066 Goal=   None    Shift=    0.000
 RMSDP=2.32D-04 MaxDP=2.95D-02 DE=-7.70D-07 OVMax= 7.13D-04

 Cycle   7  Pass 1  IDiag  1:
 E= -1136.10837404571     Delta-E=       -0.000000007612 Rises=F Damp=F
 DIIS: error= 3.05D-05 at cycle   7 NSaved=   7.
 NSaved= 7 IEnMin= 7 EnMin= -1136.10837404571     IErMin= 6 ErrMin= 2.66D-05
 ErrMax= 3.05D-05  0.00D+00 EMaxC= 1.00D-01 BMatC= 1.67D-07 BMatP= 1.65D-07
 IDIUse=1 WtCom= 1.00D+00 WtEn= 0.00D+00
 Coeff-Com:  0.425D-03-0.587D-03-0.300D-02-0.354D-02-0.859D-01 0.539D+00
 Coeff-Com:  0.554D+00
 Coeff:      0.425D-03-0.587D-03-0.300D-02-0.354D-02-0.859D-01 0.539D+00
 Coeff:      0.554D+00
 Gap=     0.057 Goal=   None    Shift=    0.000
 Gap=     0.066 Goal=   None    Shift=    0.000
 RMSDP=1.37D-04 MaxDP=1.80D-02 DE=-7.61D-09 OVMax= 4.25D-04

 Cycle   8  Pass 1  IDiag  1:
 E= -1136.10837423085     Delta-E=       -0.000000185136 Rises=F Damp=F
 DIIS: error= 3.47D-06 at cycle   8 NSaved=   8.
 NSaved= 8 IEnMin= 8 EnMin= -1136.10837423085     IErMin= 8 ErrMin= 3.47D-06
 ErrMax= 3.47D-06  0.00D+00 EMaxC= 1.00D-01 BMatC= 4.93D-09 BMatP= 1.65D-07
 IDIUse=1 WtCom= 1.00D+00 WtEn= 0.00D+00
 Coeff-Com:  0.326D-03-0.423D-03 0.533D-04 0.243D-03-0.694D-01 0.135D+00
 Coeff-Com:  0.222D+00 0.712D+00
 Coeff:      0.326D-03-0.423D-03 0.533D-04 0.243D-03-0.694D-01 0.135D+00
 Coeff:      0.222D+00 0.712D+00
 Gap=     0.057 Goal=   None    Shift=    0.000
 Gap=     0.066 Goal=   None    Shift=    0.000
 RMSDP=2.90D-05 MaxDP=3.76D-03 DE=-1.85D-07 OVMax= 5.20D-05

 Cycle   9  Pass 1  IDiag  1:
 E= -1136.10837423461     Delta-E=       -0.000000003761 Rises=F Damp=F
 DIIS: error= 8.10D-07 at cycle   9 NSaved=   9.
 NSaved= 9 IEnMin= 9 EnMin= -1136.10837423461     IErMin= 9 ErrMin= 8.10D-07
 ErrMax= 8.10D-07  0.00D+00 EMaxC= 1.00D-01 BMatC= 1.69D-10 BMatP= 4.93D-09
 IDIUse=1 WtCom= 1.00D+00 WtEn= 0.00D+00
 Coeff-Com: -0.572D-05 0.108D-04 0.718D-04 0.865D-04 0.102D-03-0.301D-01
 Coeff-Com: -0.149D-01 0.138D+00 0.906D+00
 Coeff:     -0.572D-05 0.108D-04 0.718D-04 0.865D-04 0.102D-03-0.301D-01
 Coeff:     -0.149D-01 0.138D+00 0.906D+00
 Gap=     0.057 Goal=   None    Shift=    0.000
 Gap=     0.066 Goal=   None    Shift=    0.000
 RMSDP=3.04D-06 MaxDP=2.58D-04 DE=-3.76D-09 OVMax= 1.06D-05

 Cycle  10  Pass 1  IDiag  1:
 E= -1136.10837423472     Delta-E=       -0.000000000112 Rises=F Damp=F
 DIIS: error= 1.23D-07 at cycle  10 NSaved=  10.
 NSaved=10 IEnMin=10 EnMin= -1136.10837423472     IErMin=10 ErrMin= 1.23D-07
 ErrMax= 1.23D-07  0.00D+00 EMaxC= 1.00D-01 BMatC= 4.39D-12 BMatP= 1.69D-10
 IDIUse=1 WtCom= 1.00D+00 WtEn= 0.00D+00
 Coeff-Com: -0.625D-05 0.845D-05 0.212D-04 0.169D-04 0.105D-02-0.332D-02
 Coeff-Com: -0.523D-02-0.143D-01 0.860D-01 0.936D+00
 Coeff:     -0.625D-05 0.845D-05 0.212D-04 0.169D-04 0.105D-02-0.332D-02
 Coeff:     -0.523D-02-0.143D-01 0.860D-01 0.936D+00
 Gap=     0.057 Goal=   None    Shift=    0.000
 Gap=     0.066 Goal=   None    Shift=    0.000
 RMSDP=1.82D-06 MaxDP=2.13D-04 DE=-1.12D-10 OVMax= 2.66D-06

 Cycle  11  Pass 1  IDiag  1:
 E= -1136.10837423473     Delta-E=       -0.000000000001 Rises=F Damp=F
 DIIS: error= 1.12D-07 at cycle  11 NSaved=  11.
 NSaved=11 IEnMin=11 EnMin= -1136.10837423473     IErMin=11 ErrMin= 1.12D-07
 ErrMax= 1.12D-07  0.00D+00 EMaxC= 1.00D-01 BMatC= 2.67D-12 BMatP= 4.39D-12
 IDIUse=1 WtCom= 1.00D+00 WtEn= 0.00D+00
 Coeff-Com: -0.298D-05 0.369D-05 0.640D-05 0.112D-05 0.633D-03 0.149D-02
 Coeff-Com: -0.152D-02-0.253D-01-0.527D-01 0.580D+00 0.498D+00
 Coeff:     -0.298D-05 0.369D-05 0.640D-05 0.112D-05 0.633D-03 0.149D-02
 Coeff:     -0.152D-02-0.253D-01-0.527D-01 0.580D+00 0.498D+00
 Gap=     0.057 Goal=   None    Shift=    0.000
 Gap=     0.066 Goal=   None    Shift=    0.000
 RMSDP=5.31D-07 MaxDP=8.65D-05 DE=-1.14D-12 OVMax= 1.49D-06

 Cycle  12  Pass 1  IDiag  1:
 E= -1136.10837423470     Delta-E=        0.000000000022 Rises=F Damp=F
 DIIS: error= 1.41D-08 at cycle  12 NSaved=  12.
 NSaved=12 IEnMin=11 EnMin= -1136.10837423473     IErMin=12 ErrMin= 1.41D-08
 ErrMax= 1.41D-08  0.00D+00 EMaxC= 1.00D-01 BMatC= 5.21D-14 BMatP= 2.67D-12
 IDIUse=1 WtCom= 1.00D+00 WtEn= 0.00D+00
 Coeff-Com:  0.787D-06-0.106D-05-0.235D-05-0.311D-05-0.608D-04 0.156D-03
 Coeff-Com:  0.441D-03 0.233D-02-0.117D-01-0.937D-01 0.140D-01 0.109D+01
 Coeff:      0.787D-06-0.106D-05-0.235D-05-0.311D-05-0.608D-04 0.156D-03
 Coeff:      0.441D-03 0.233D-02-0.117D-01-0.937D-01 0.140D-01 0.109D+01
 Gap=     0.057 Goal=   None    Shift=    0.000
 Gap=     0.066 Goal=   None    Shift=    0.000
 RMSDP=1.01D-07 MaxDP=8.38D-06 DE= 2.16D-11 OVMax= 3.75D-07

 Cycle  13  Pass 1  IDiag  1:
 E= -1136.10837423471     Delta-E=       -0.000000000005 Rises=F Damp=F
 DIIS: error= 8.76D-09 at cycle  13 NSaved=  13.
 NSaved=13 IEnMin=11 EnMin= -1136.10837423473     IErMin=13 ErrMin= 8.76D-09
 ErrMax= 8.76D-09  0.00D+00 EMaxC= 1.00D-01 BMatC= 1.75D-14 BMatP= 5.21D-14
 IDIUse=1 WtCom= 1.00D+00 WtEn= 0.00D+00
 Coeff-Com:  0.510D-06-0.670D-06-0.178D-05-0.164D-05-0.690D-04-0.449D-05
 Coeff-Com:  0.307D-03 0.258D-02-0.244D-02-0.813D-01-0.238D-01 0.530D+00
 Coeff-Com:  0.575D+00
 Coeff:      0.510D-06-0.670D-06-0.178D-05-0.164D-05-0.690D-04-0.449D-05
 Coeff:      0.307D-03 0.258D-02-0.244D-02-0.813D-01-0.238D-01 0.530D+00
 Coeff:      0.575D+00
 Gap=     0.057 Goal=   None    Shift=    0.000
 Gap=     0.066 Goal=   None    Shift=    0.000
 RMSDP=3.34D-08 MaxDP=3.39D-06 DE=-4.77D-12 OVMax= 2.03D-07

 Cycle  14  Pass 1  IDiag  1:
 E= -1136.10837423470     Delta-E=        0.000000000004 Rises=F Damp=F
 DIIS: error= 6.05D-09 at cycle  14 NSaved=  14.
 NSaved=14 IEnMin=11 EnMin= -1136.10837423473     IErMin=14 ErrMin= 6.05D-09
 ErrMax= 6.05D-09  0.00D+00 EMaxC= 1.00D-01 BMatC= 7.96D-15 BMatP= 1.75D-14
 IDIUse=1 WtCom= 1.00D+00 WtEn= 0.00D+00
 Coeff-Com: -0.149D-06 0.214D-06-0.849D-07 0.695D-06-0.174D-04-0.837D-04
 Coeff-Com: -0.363D-04 0.405D-03 0.535D-02-0.439D-02-0.273D-01-0.269D+00
 Coeff-Com:  0.456D+00 0.840D+00
 Coeff:     -0.149D-06 0.214D-06-0.849D-07 0.695D-06-0.174D-04-0.837D-04
 Coeff:     -0.363D-04 0.405D-03 0.535D-02-0.439D-02-0.273D-01-0.269D+00
 Coeff:      0.456D+00 0.840D+00
 Gap=     0.057 Goal=   None    Shift=    0.000
 Gap=     0.066 Goal=   None    Shift=    0.000
 RMSDP=4.11D-08 MaxDP=3.13D-06 DE= 4.09D-12 OVMax= 1.56D-07

 Cycle  15  Pass 1  IDiag  1:
 E= -1136.10837423472     Delta-E=       -0.000000000011 Rises=F Damp=F
 DIIS: error= 6.64D-10 at cycle  15 NSaved=  15.
 NSaved=15 IEnMin=11 EnMin= -1136.10837423473     IErMin=15 ErrMin= 6.64D-10
 ErrMax= 6.64D-10  0.00D+00 EMaxC= 1.00D-01 BMatC= 1.48D-16 BMatP= 7.96D-15
 IDIUse=1 WtCom= 1.00D+00 WtEn= 0.00D+00
 Coeff-Com: -0.219D-07 0.272D-07 0.276D-06 0.211D-06 0.609D-05 0.402D-05
 Coeff-Com: -0.244D-04-0.208D-03-0.224D-03 0.727D-02 0.379D-02-0.288D-01
 Coeff-Com: -0.745D-01-0.514D-01 0.114D+01
 Coeff:     -0.219D-07 0.272D-07 0.276D-06 0.211D-06 0.609D-05 0.402D-05
 Coeff:     -0.244D-04-0.208D-03-0.224D-03 0.727D-02 0.379D-02-0.288D-01
 Coeff:     -0.745D-01-0.514D-01 0.114D+01
 Gap=     0.057 Goal=   None    Shift=    0.000
 Gap=     0.066 Goal=   None    Shift=    0.000
 RMSDP=3.11D-08 MaxDP=4.70D-06 DE=-1.11D-11 OVMax= 5.09D-08

 Cycle  16  Pass 1  IDiag  1:
 E= -1136.10837423473     Delta-E=       -0.000000000015 Rises=F Damp=F
 DIIS: error= 2.57D-10 at cycle  16 NSaved=  16.
 NSaved=16 IEnMin=16 EnMin= -1136.10837423473     IErMin=16 ErrMin= 2.57D-10
 ErrMax= 2.57D-10  0.00D+00 EMaxC= 1.00D-01 BMatC= 2.31D-17 BMatP= 1.48D-16
 IDIUse=1 WtCom= 1.00D+00 WtEn= 0.00D+00
 Large coefficients: NSaved= 16 BigCof=    0.00 CofMax=   10.00 Det=-5.29D-17
 Inversion failed.  Reducing to 15 matrices.
 Coeff-Com: -0.104D-08 0.481D-08-0.120D-06 0.458D-05 0.647D-05-0.317D-05
 Coeff-Com: -0.856D-04-0.586D-03 0.165D-02 0.364D-02 0.252D-01-0.576D-01
 Coeff-Com: -0.976D-01 0.785D-01 0.105D+01
 Coeff:     -0.104D-08 0.481D-08-0.120D-06 0.458D-05 0.647D-05-0.317D-05
 Coeff:     -0.856D-04-0.586D-03 0.165D-02 0.364D-02 0.252D-01-0.576D-01
 Coeff:     -0.976D-01 0.785D-01 0.105D+01
 Gap=     0.057 Goal=   None    Shift=    0.000
 Gap=     0.066 Goal=   None    Shift=    0.000
 RMSDP=3.47D-08 MaxDP=5.28D-06 DE=-1.50D-11 OVMax= 1.99D-08

 Cycle  17  Pass 1  IDiag  1:
 E= -1136.10837423472     Delta-E=        0.000000000009 Rises=F Damp=F
 DIIS: error= 1.38D-10 at cycle  17 NSaved=  16.
 NSaved=16 IEnMin=15 EnMin= -1136.10837423473     IErMin=16 ErrMin= 1.38D-10
 ErrMax= 1.38D-10  0.00D+00 EMaxC= 1.00D-01 BMatC= 4.65D-18 BMatP= 2.31D-17
 IDIUse=1 WtCom= 1.00D+00 WtEn= 0.00D+00
 Large coefficients: NSaved= 16 BigCof=    0.00 CofMax=   10.00 Det=-1.15D-17
 Inversion failed.  Reducing to 15 matrices.
 Coeff-Com: -0.639D-07-0.673D-07-0.202D-06 0.178D-06 0.295D-05 0.194D-04
 Coeff-Com: -0.730D-05-0.106D-02-0.362D-03 0.706D-02 0.827D-02 0.884D-03
 Coeff-Com: -0.197D+00 0.969D-01 0.109D+01
 Coeff:     -0.639D-07-0.673D-07-0.202D-06 0.178D-06 0.295D-05 0.194D-04
 Coeff:     -0.730D-05-0.106D-02-0.362D-03 0.706D-02 0.827D-02 0.884D-03
 Coeff:     -0.197D+00 0.969D-01 0.109D+01
 Gap=     0.057 Goal=   None    Shift=    0.000
 Gap=     0.066 Goal=   None    Shift=    0.000
 RMSDP=3.13D-08 MaxDP=4.60D-06 DE= 8.64D-12 OVMax= 8.81D-09

 Cycle  18  Pass 1  IDiag  1:
 E= -1136.10837423472     Delta-E=        0.000000000005 Rises=F Damp=F
 DIIS: error= 9.79D-11 at cycle  18 NSaved=  16.
 NSaved=16 IEnMin=14 EnMin= -1136.10837423473     IErMin=16 ErrMin= 9.79D-11
 ErrMax= 9.79D-11  0.00D+00 EMaxC= 1.00D-01 BMatC= 1.02D-18 BMatP= 4.65D-18
 IDIUse=1 WtCom= 1.00D+00 WtEn= 0.00D+00
 Large coefficients: NSaved= 16 BigCof=    0.00 CofMax=   10.00 Det=-2.39D-18
 Inversion failed.  Reducing to 15 matrices.
 Coeff-Com:  0.198D-07-0.460D-06-0.972D-06 0.396D-06 0.117D-04 0.661D-04
 Coeff-Com: -0.394D-03-0.455D-03-0.121D-02 0.854D-02 0.113D-01-0.588D-01
 Coeff-Com: -0.108D+00 0.283D+00 0.866D+00
 Coeff:      0.198D-07-0.460D-06-0.972D-06 0.396D-06 0.117D-04 0.661D-04
 Coeff:     -0.394D-03-0.455D-03-0.121D-02 0.854D-02 0.113D-01-0.588D-01
 Coeff:     -0.108D+00 0.283D+00 0.866D+00
 Gap=     0.057 Goal=   None    Shift=    0.000
 Gap=     0.066 Goal=   None    Shift=    0.000
 RMSDP=1.87D-08 MaxDP=1.69D-06 DE= 4.55D-12 OVMax= 2.69D-09

 Cycle  19  Pass 1  IDiag  1:
 E= -1136.10837423471     Delta-E=        0.000000000010 Rises=F Damp=F
 DIIS: error= 6.53D-11 at cycle  19 NSaved=  16.
 NSaved=16 IEnMin=13 EnMin= -1136.10837423473     IErMin=16 ErrMin= 6.53D-11
 ErrMax= 6.53D-11  0.00D+00 EMaxC= 1.00D-01 BMatC= 3.23D-19 BMatP= 1.02D-18
 IDIUse=1 WtCom= 1.00D+00 WtEn= 0.00D+00
 Large coefficients: NSaved= 16 BigCof=    0.00 CofMax=   10.00 Det=-1.04D-18
 Inversion failed.  Reducing to 15 matrices.
 Coeff-Com: -0.383D-07-0.155D-07-0.503D-07 0.389D-06 0.488D-05 0.215D-05
 Coeff-Com: -0.177D-04-0.177D-03 0.861D-03 0.140D-02-0.246D-02-0.523D-01
 Coeff-Com:  0.149D-01 0.300D+00 0.738D+00
 Coeff:     -0.383D-07-0.155D-07-0.503D-07 0.389D-06 0.488D-05 0.215D-05
 Coeff:     -0.177D-04-0.177D-03 0.861D-03 0.140D-02-0.246D-02-0.523D-01
 Coeff:      0.149D-01 0.300D+00 0.738D+00
 Gap=     0.057 Goal=   None    Shift=    0.000
 Gap=     0.066 Goal=   None    Shift=    0.000
 RMSDP=1.07D-08 MaxDP=8.67D-07 DE= 1.00D-11 OVMax= 1.08D-09

 Cycle  20  Pass 1  IDiag  1:
 E= -1136.10837423471     Delta-E=       -0.000000000007 Rises=F Damp=F
 DIIS: error= 4.49D-11 at cycle  20 NSaved=  16.
 NSaved=16 IEnMin=12 EnMin= -1136.10837423473     IErMin=16 ErrMin= 4.49D-11
 ErrMax= 4.49D-11  0.00D+00 EMaxC= 1.00D-01 BMatC= 1.60D-19 BMatP= 3.23D-19
 IDIUse=1 WtCom= 1.00D+00 WtEn= 0.00D+00
 Large coefficients: NSaved= 16 BigCof=    0.00 CofMax=   10.00 Det=-3.34D-19
 Inversion failed.  Reducing to 15 matrices.
 Coeff-Com: -0.120D-06-0.765D-07 0.765D-06 0.552D-05-0.104D-04-0.342D-04
 Coeff-Com: -0.310D-03 0.635D-03 0.126D-02 0.325D-02-0.308D-01-0.278D-01
 Coeff-Com:  0.149D+00 0.289D+00 0.616D+00
 Coeff:     -0.120D-06-0.765D-07 0.765D-06 0.552D-05-0.104D-04-0.342D-04
 Coeff:     -0.310D-03 0.635D-03 0.126D-02 0.325D-02-0.308D-01-0.278D-01
 Coeff:      0.149D+00 0.289D+00 0.616D+00
 Gap=     0.057 Goal=   None    Shift=    0.000
 Gap=     0.066 Goal=   None    Shift=    0.000
 RMSDP=6.76D-09 MaxDP=5.26D-07 DE=-6.82D-12 OVMax= 5.34D-10

 SCF Done:  E(UB3LYP) =  -1136.10837423     A.U. after   20 cycles
            NFock= 20  Conv=0.68D-08     -V/T= 2.0024
 <Sx>= 0.0000 <Sy>= 0.0000 <Sz>= 0.5000 <S**2>= 0.7563 S= 0.5032
 <L.S>= 0.000000000000E+00
 KE= 1.133387968424D+03 PE=-3.528703821934D+03 EE= 8.598052011517D+02
 Annihilation of the first spin contaminant:
 S**2 before annihilation     0.7563,   after     0.7500
 Leave Link  502 at Mon Nov 13 12:08:42 2023, MaxMem=  1879048192 cpu:             203.4 elap:              17.2
 (Enter /home/sekinelabo/g16/l601.exe)
 Copying SCF densities to generalized density rwf, IOpCl= 1 IROHF=0.

 **********************************************************************

            Population analysis using the SCF Density.

 **********************************************************************

 Orbital symmetries:
 Alpha Orbitals:
       Occupied  (A) (A) (A) (A) (A) (A) (A) (A) (A) (A) (A) (A)
                 (A) (A) (A) (A) (A) (A) (A) (A) (A) (A) (A) (A)
                 (A) (A) (A) (A) (A) (A) (A) (A) (A) (A) (A) (A)
                 (A) (A) (A)
       Virtual   (A) (A) (A) (A) (A) (A) (A) (A) (A) (A) (A) (A)
                 (A) (A) (A) (A) (A) (A) (A) (A) (A) (A) (A) (A)
                 (A) (A) (A) (A) (A) (A) (A) (A) (A) (A) (A) (A)
                 (A) (A) (A) (A) (A) (A) (A) (A) (A) (A) (A) (A)
                 (A) (A) (A) (A) (A) (A) (A) (A) (A) (A) (A) (A)
                 (A) (A) (A) (A) (A) (A) (A) (A) (A) (A) (A) (A)
                 (A) (A) (A) (A) (A) (A) (A) (A) (A) (A) (A) (A)
                 (A) (A) (A) (A) (A) (A) (A) (A) (A) (A) (A) (A)
                 (A) (A) (A) (A) (A) (A) (A) (A) (A) (A) (A) (A)
                 (A) (A) (A) (A) (A) (A) (A) (A) (A) (A) (A) (A)
                 (A) (A) (A) (A) (A) (A) (A) (A) (A) (A) (A) (A)
                 (A) (A) (A) (A) (A) (A) (A) (A) (A) (A) (A) (A)
                 (A) (A) (A) (A) (A) (A) (A) (A) (A) (A) (A) (A)
                 (A) (A) (A) (A) (A) (A) (A) (A) (A) (A) (A) (A)
                 (A) (A) (A)
 Beta  Orbitals:
       Occupied  (A) (A) (A) (A) (A) (A) (A) (A) (A) (A) (A) (A)
                 (A) (A) (A) (A) (A) (A) (A) (A) (A) (A) (A) (A)
                 (A) (A) (A) (A) (A) (A) (A) (A) (A) (A) (A) (A)
                 (A) (A)
       Virtual   (A) (A) (A) (A) (A) (A) (A) (A) (A) (A) (A) (A)
                 (A) (A) (A) (A) (A) (A) (A) (A) (A) (A) (A) (A)
                 (A) (A) (A) (A) (A) (A) (A) (A) (A) (A) (A) (A)
                 (A) (A) (A) (A) (A) (A) (A) (A) (A) (A) (A) (A)
                 (A) (A) (A) (A) (A) (A) (A) (A) (A) (A) (A) (A)
                 (A) (A) (A) (A) (A) (A) (A) (A) (A) (A) (A) (A)
                 (A) (A) (A) (A) (A) (A) (A) (A) (A) (A) (A) (A)
                 (A) (A) (A) (A) (A) (A) (A) (A) (A) (A) (A) (A)
                 (A) (A) (A) (A) (A) (A) (A) (A) (A) (A) (A) (A)
                 (A) (A) (A) (A) (A) (A) (A) (A) (A) (A) (A) (A)
                 (A) (A) (A) (A) (A) (A) (A) (A) (A) (A) (A) (A)
                 (A) (A) (A) (A) (A) (A) (A) (A) (A) (A) (A) (A)
                 (A) (A) (A) (A) (A) (A) (A) (A) (A) (A) (A) (A)
                 (A) (A) (A) (A) (A) (A) (A) (A) (A) (A) (A) (A)
                 (A) (A) (A) (A)
 The electronic state is 2-A.
 Alpha  occ. eigenvalues --  -38.43445 -38.43444 -38.43443 -38.43442 -38.43441
 Alpha  occ. eigenvalues --  -38.42879 -38.42878  -2.19474  -2.19471  -2.19469
 Alpha  occ. eigenvalues --   -2.19456  -2.19456  -2.19225  -2.19169  -1.13435
 Alpha  occ. eigenvalues --   -1.13341  -1.13339  -1.13209  -1.13209  -1.13160
 Alpha  occ. eigenvalues --   -1.13158  -1.13136  -1.13107  -1.13107  -1.13092
 Alpha  occ. eigenvalues --   -1.13092  -1.13043  -1.13030  -1.13029  -1.12969
 Alpha  occ. eigenvalues --   -1.12745  -1.12744  -1.12735  -1.12735  -1.12695
 Alpha  occ. eigenvalues --   -0.20784  -0.13523  -0.13518  -0.10686
 Alpha virt. eigenvalues --   -0.04959  -0.04875  -0.04873  -0.02836  -0.02833
 Alpha virt. eigenvalues --   -0.01632  -0.01162  -0.01161   0.00099   0.00253
 Alpha virt. eigenvalues --    0.00253   0.00377   0.00968   0.00969   0.01029
 Alpha virt. eigenvalues --    0.01032   0.01342   0.01343   0.01431   0.01600
 Alpha virt. eigenvalues --    0.01600   0.01743   0.01984   0.01985   0.02236
 Alpha virt. eigenvalues --    0.02451   0.02453   0.02801   0.02801   0.02889
 Alpha virt. eigenvalues --    0.03258   0.03258   0.03368   0.03369   0.03540
 Alpha virt. eigenvalues --    0.03541   0.03546   0.03548   0.03762   0.03777
 Alpha virt. eigenvalues --    0.04842   0.04843   0.04905   0.05078   0.05078
 Alpha virt. eigenvalues --    0.05353   0.05354   0.05426   0.05531   0.05532
 Alpha virt. eigenvalues --    0.06277   0.07674   0.07675   0.08161   0.08233
 Alpha virt. eigenvalues --    0.08466   0.08466   0.08739   0.08741   0.09995
 Alpha virt. eigenvalues --    0.09996   0.10017   0.11783   0.11785   0.12461
 Alpha virt. eigenvalues --    0.12462   0.13941   0.13943   0.14286   0.14290
 Alpha virt. eigenvalues --    0.14465   0.14468   0.14478   0.14698   0.15193
 Alpha virt. eigenvalues --    0.16436   0.16880   0.17926   0.17928   0.19880
 Alpha virt. eigenvalues --    0.25808   0.25817   0.26689   0.26697   0.27595
 Alpha virt. eigenvalues --    0.27602   0.30221   0.32148   0.32159   0.36903
 Alpha virt. eigenvalues --    0.36909   0.37989   0.37998   0.38732   0.38739
 Alpha virt. eigenvalues --    0.40531   0.40702   0.42504   0.42521   0.44626
 Alpha virt. eigenvalues --    0.44630   0.46177   0.46179   0.46184   0.47094
 Alpha virt. eigenvalues --    0.47094   0.48136   0.48137   0.48588   0.48592
 Alpha virt. eigenvalues --    0.48764   0.49654   0.50384   0.52186   0.52195
 Alpha virt. eigenvalues --    0.53405   0.53407   0.53835   0.56337   0.56342
 Alpha virt. eigenvalues --    0.60391   0.60418   0.64162   0.64771   0.65975
 Alpha virt. eigenvalues --    0.66027   0.67038   0.67069   0.67906   0.67927
 Alpha virt. eigenvalues --    0.75026   0.75029   0.76221   0.80430   0.81340
 Alpha virt. eigenvalues --    0.81356   2.14120   2.25115   2.25127   2.26338
 Alpha virt. eigenvalues --    2.26346   2.38351   2.44604   4.41371   4.41377
 Alpha virt. eigenvalues --    4.42122   4.42126   4.42155   4.42162   4.46714
 Alpha virt. eigenvalues --    4.48107   4.49355   4.49370   4.55581   4.55631
 Alpha virt. eigenvalues --    4.63926   4.63970   4.65987   4.67642   4.67644
 Alpha virt. eigenvalues --    4.68044   4.88191   4.88214   4.88267  96.35340
 Alpha virt. eigenvalues --   96.51032  96.51043  96.53023  96.53041  96.70854
 Alpha virt. eigenvalues --   96.77446
  Beta  occ. eigenvalues --  -38.43434 -38.43434 -38.43432 -38.43432 -38.43431
  Beta  occ. eigenvalues --  -38.42803 -38.42802  -2.19460  -2.19458  -2.19456
  Beta  occ. eigenvalues --   -2.19443  -2.19442  -2.19091  -2.19034  -1.13398
  Beta  occ. eigenvalues --   -1.13322  -1.13320  -1.13207  -1.13207  -1.13103
  Beta  occ. eigenvalues --   -1.13102  -1.13099  -1.13098  -1.13080  -1.13037
  Beta  occ. eigenvalues --   -1.13037  -1.13027  -1.13026  -1.12979  -1.12966
  Beta  occ. eigenvalues --   -1.12660  -1.12660  -1.12639  -1.12638  -1.12594
  Beta  occ. eigenvalues --   -0.20033  -0.13185  -0.13181
  Beta virt. eigenvalues --   -0.06611  -0.04995  -0.04853  -0.04852  -0.01962
  Beta virt. eigenvalues --   -0.01960  -0.01098  -0.01097  -0.00674   0.00207
  Beta virt. eigenvalues --    0.00208   0.00223   0.00433   0.00976   0.00977
  Beta virt. eigenvalues --    0.01047   0.01048   0.01514   0.01515   0.01629
  Beta virt. eigenvalues --    0.01682   0.01684   0.01888   0.01990   0.01990
  Beta virt. eigenvalues --    0.02406   0.02456   0.02456   0.02811   0.02813
  Beta virt. eigenvalues --    0.02887   0.03240   0.03241   0.03370   0.03370
  Beta virt. eigenvalues --    0.03622   0.03622   0.03681   0.03682   0.03730
  Beta virt. eigenvalues --    0.04151   0.04932   0.04932   0.05066   0.05194
  Beta virt. eigenvalues --    0.05195   0.05509   0.05511   0.05584   0.05585
  Beta virt. eigenvalues --    0.05693   0.06626   0.07640   0.07641   0.08180
  Beta virt. eigenvalues --    0.08479   0.08603   0.08604   0.08854   0.08856
  Beta virt. eigenvalues --    0.10247   0.10248   0.10531   0.11899   0.11901
  Beta virt. eigenvalues --    0.12615   0.12616   0.14420   0.14511   0.14513
  Beta virt. eigenvalues --    0.14598   0.14601   0.14621   0.14624   0.14899
  Beta virt. eigenvalues --    0.15614   0.16788   0.16792   0.18340   0.18342
  Beta virt. eigenvalues --    0.20515   0.26174   0.26182   0.26674   0.26682
  Beta virt. eigenvalues --    0.27572   0.27579   0.30782   0.32794   0.32804
  Beta virt. eigenvalues --    0.36985   0.36991   0.38486   0.38495   0.38995
  Beta virt. eigenvalues --    0.39002   0.40615   0.41272   0.42630   0.42647
  Beta virt. eigenvalues --    0.44891   0.44896   0.46088   0.46350   0.46352
  Beta virt. eigenvalues --    0.47040   0.47040   0.48576   0.48577   0.48680
  Beta virt. eigenvalues --    0.48684   0.48827   0.50021   0.50432   0.52427
  Beta virt. eigenvalues --    0.52435   0.53400   0.53403   0.53880   0.56826
  Beta virt. eigenvalues --    0.56830   0.60308   0.60336   0.64429   0.65145
  Beta virt. eigenvalues --    0.65914   0.65966   0.67665   0.67696   0.68472
  Beta virt. eigenvalues --    0.68493   0.75322   0.75324   0.76177   0.80860
  Beta virt. eigenvalues --    0.81401   0.81417   2.14142   2.25132   2.25143
  Beta virt. eigenvalues --    2.26350   2.26359   2.38753   2.44912   4.41437
  Beta virt. eigenvalues --    4.41443   4.42147   4.42154   4.42217   4.42221
  Beta virt. eigenvalues --    4.46785   4.48185   4.49427   4.49442   4.55604
  Beta virt. eigenvalues --    4.55654   4.63940   4.63984   4.66008   4.67776
  Beta virt. eigenvalues --    4.67778   4.68044   4.88250   4.88275   4.88353
  Beta virt. eigenvalues --   96.35353  96.51040  96.51051  96.53031  96.53049
  Beta virt. eigenvalues --   96.70961  96.77546
          Condensed to atoms (all electrons):
               1          2          3          4          5          6
     1  Na  23.584295  -0.280408  -0.254016  -0.264256  -0.252363 -10.379826
     2  Na  -0.280408  15.251285  -3.316565   1.282772  -3.318680  -0.254250
     3  Na  -0.254016  -3.316565  15.221656   1.268616   1.290180  -0.254884
     4  Na  -0.264256   1.282772   1.268616  15.246263  -3.307336  -0.259952
     5  Na  -0.252363  -3.318680   1.290180  -3.307336  15.222380  -0.257319
     6  Na -10.379826  -0.254250  -0.254884  -0.259952  -0.257319  23.550147
     7  Na  -0.269525   1.279661  -3.308094  -3.321072   1.270187  -0.255901
               7
     1  Na  -0.269525
     2  Na   1.279661
     3  Na  -3.308094
     4  Na  -3.321072
     5  Na   1.270187
     6  Na  -0.255901
     7  Na  15.250039
          Atomic-Atomic Spin Densities.
               1          2          3          4          5          6
     1  Na  11.323516   0.068914   0.069250   0.074371   0.072947 -11.182033
     2  Na   0.068914  -0.734776   0.495773  -0.202390   0.496084   0.080222
     3  Na   0.069250   0.495773  -0.731114  -0.201329  -0.204829   0.078897
     4  Na   0.074371  -0.202390  -0.201329  -0.733996   0.493782   0.074495
     5  Na   0.072947   0.496084  -0.204829   0.493782  -0.731642   0.075258
     6  Na -11.182033   0.080222   0.078897   0.074495   0.075258  11.292775
     7  Na   0.071834  -0.202607   0.494004   0.496219  -0.201117   0.077182
               7
     1  Na   0.071834
     2  Na  -0.202607
     3  Na   0.494004
     4  Na   0.496219
     5  Na  -0.201117
     6  Na   0.077182
     7  Na  -0.734617
 Mulliken charges and spin densities:
               1          2
     1  Na  -0.883900   0.498799
     2  Na   0.356185   0.001220
     3  Na   0.353108   0.000652
     4  Na   0.354965   0.001153
     5  Na   0.352951   0.000482
     6  Na  -0.888014   0.496796
     7  Na   0.354704   0.000898
 Sum of Mulliken charges =  -0.00000   1.00000
 Mulliken charges and spin densities with hydrogens summed into heavy atoms:
               1          2
     1  Na  -0.883900   0.498799
     2  Na   0.356185   0.001220
     3  Na   0.353108   0.000652
     4  Na   0.354965   0.001153
     5  Na   0.352951   0.000482
     6  Na  -0.888014   0.496796
     7  Na   0.354704   0.000898
 Electronic spatial extent (au):  <R**2>=           1705.8267
 Charge=             -0.0000 electrons
 Dipole moment (field-independent basis, Debye):
    X=              0.0003    Y=              0.0023    Z=              0.0010  Tot=              0.0025
 Quadrupole moment (field-independent basis, Debye-Ang):
   XX=            -58.1358   YY=            -58.1561   ZZ=            -75.8542
   XY=              0.0004   XZ=             -0.0009   YZ=              0.0039
 Traceless Quadrupole moment (field-independent basis, Debye-Ang):
   XX=              5.9129   YY=              5.8926   ZZ=            -11.8055
   XY=              0.0004   XZ=             -0.0009   YZ=              0.0039
 Octapole moment (field-independent basis, Debye-Ang**2):
  XXX=              0.0069  YYY=              0.0386  ZZZ=              0.0199  XYY=              0.0036
  XXY=              0.0136  XXZ=              0.0051  XZZ=              0.0021  YZZ=              0.0095
  YYZ=             -0.0103  XYZ=              0.0088
 Hexadecapole moment (field-independent basis, Debye-Ang**3):
 XXXX=          -1098.8454 YYYY=          -1098.3005 ZZZZ=           -571.3932 XXXY=             -0.0364
 XXXZ=             -0.0483 YYYX=              0.0484 YYYZ=              0.1172 ZZZX=             -0.0009
 ZZZY=              0.0042 XXYY=           -366.1380 XXZZ=           -329.9302 YYZZ=           -329.7916
 XXYZ=             -0.0206 YYXZ=              0.0267 ZZXY=              0.0007
 N-N= 3.994022781236D+02 E-N=-3.528703821935D+03  KE= 1.133387968424D+03
                          Isotropic Fermi Contact Couplings
        Atom                 a.u.       MegaHertz       Gauss      10(-4) cm-1
     1  Na(23)             0.28842     341.20534     121.75055     113.81385
     2  Na(23)            -0.01648     -19.49215      -6.95528      -6.50188
     3  Na(23)            -0.01650     -19.51725      -6.96424      -6.51025
     4  Na(23)            -0.01648     -19.49432      -6.95606      -6.50261
     5  Na(23)            -0.01650     -19.51854      -6.96470      -6.51068
     6  Na(23)             0.28793     340.62680     121.54411     113.62087
     7  Na(23)            -0.01647     -19.48882      -6.95410      -6.50077
 --------------------------------------------------------
       Center         ----  Spin Dipole Couplings  ----
                      3XX-RR        3YY-RR        3ZZ-RR
 --------------------------------------------------------
     1   Atom       -0.003066     -0.003111      0.006177
     2   Atom       -0.026557     -0.020416      0.046972
     3   Atom       -0.024107     -0.022745      0.046852
     4   Atom       -0.021153     -0.025803      0.046955
     5   Atom       -0.024638     -0.022195      0.046834
     6   Atom       -0.003161     -0.003121      0.006281
     7   Atom       -0.020815     -0.026130      0.046945
 --------------------------------------------------------
                        XY            XZ            YZ
 --------------------------------------------------------
     1   Atom        0.000023     -0.000006     -0.000020
     2   Atom       -0.000283     -0.000033     -0.000061
     3   Atom       -0.003021     -0.000036      0.000009
     4   Atom        0.002040      0.000046      0.000015
     5   Atom        0.002844      0.000016     -0.000053
     6   Atom       -0.000025     -0.000002      0.000053
     7   Atom       -0.001580      0.000015      0.000052
 --------------------------------------------------------


 ---------------------------------------------------------------------------------
              Anisotropic Spin Dipole Couplings in Principal Axis System
 ---------------------------------------------------------------------------------

       Atom             a.u.   MegaHertz   Gauss  10(-4) cm-1        Axes

              Baa    -0.0031    -0.441    -0.157    -0.147 -0.3923  0.9198  0.0017
     1 Na(23) Bbb    -0.0031    -0.432    -0.154    -0.144  0.9198  0.3923  0.0014
              Bcc     0.0062     0.872     0.311     0.291 -0.0006 -0.0022  1.0000
 
              Baa    -0.0266    -3.752    -1.339    -1.252  0.9989  0.0460  0.0005
     2 Na(23) Bbb    -0.0204    -2.881    -1.028    -0.961 -0.0460  0.9989  0.0009
              Bcc     0.0470     6.633     2.367     2.213 -0.0004 -0.0009  1.0000
 
              Baa    -0.0265    -3.745    -1.336    -1.249  0.7810  0.6246  0.0003
     3 Na(23) Bbb    -0.0203    -2.871    -1.024    -0.958 -0.6246  0.7810 -0.0004
              Bcc     0.0469     6.616     2.361     2.207 -0.0005  0.0002  1.0000
 
              Baa    -0.0266    -3.752    -1.339    -1.252 -0.3524  0.9359  0.0000
     4 Na(23) Bbb    -0.0204    -2.879    -1.027    -0.960  0.9359  0.3524 -0.0007
              Bcc     0.0470     6.631     2.366     2.212  0.0007  0.0002  1.0000
 
              Baa    -0.0265    -3.744    -1.336    -1.249  0.8351 -0.5501 -0.0006
     5 Na(23) Bbb    -0.0203    -2.870    -1.024    -0.957  0.5501  0.8351  0.0005
              Bcc     0.0468     6.614     2.360     2.206  0.0002 -0.0008  1.0000
 
              Baa    -0.0032    -0.448    -0.160    -0.149  0.9005  0.4348 -0.0023
     6 Na(23) Bbb    -0.0031    -0.439    -0.157    -0.146 -0.4348  0.9005 -0.0052
              Bcc     0.0063     0.887     0.317     0.296 -0.0002  0.0056  1.0000
 
              Baa    -0.0266    -3.751    -1.339    -1.251  0.2650  0.9642 -0.0007
     7 Na(23) Bbb    -0.0204    -2.878    -1.027    -0.960  0.9642 -0.2650 -0.0000
              Bcc     0.0469     6.629     2.365     2.211  0.0002  0.0007  1.0000
 

 ---------------------------------------------------------------------------------

 No NMR shielding tensors so no spin-rotation constants.
 Leave Link  601 at Mon Nov 13 12:08:42 2023, MaxMem=  1879048192 cpu:               2.6 elap:               0.2
 (Enter /home/sekinelabo/g16/l701.exe)
 ... and contract with generalized density number  0.
 Compute integral first derivatives.
 Leave Link  701 at Mon Nov 13 12:08:42 2023, MaxMem=  1879048192 cpu:               1.7 elap:               0.1
 (Enter /home/sekinelabo/g16/l702.exe)
 L702 exits ... SP integral derivatives will be done elsewhere.
 Leave Link  702 at Mon Nov 13 12:08:42 2023, MaxMem=  1879048192 cpu:               0.5 elap:               0.0
 (Enter /home/sekinelabo/g16/l703.exe)
 Integral derivatives from FoFJK, PRISM(SPDF).
 Compute integral first derivatives, UseDBF=F ICtDFT=           0.
 Calling FoFJK, ICntrl=      2127 FMM=F ISym2X=0 I1Cent= 0 IOpClX= 1 NMat=1 NMatS=1 NMatT=0.
 FoFJK:  IHMeth= 1 ICntrl=    2127 DoSepK=F KAlg= 0 I1Cent=           0 FoldK=F
 IRaf=         0 NMat=       1 IRICut=       1 DoRegI=T DoRafI=F ISym2E= 0 IDoP0=0 IntGTp=1.
 FoFCou: FMM=F IPFlag=           0 FMFlag=      100000 FMFlg1=         800
         NFxFlg=           0 DoJE=F BraDBF=F KetDBF=F FulRan=T
         wScrn=  0.000000 ICntrl=      2127 IOpCl=  1 I1Cent=           0 NGrid=           0
         NMat0=    1 NMatS0=      1 NMatT0=    0 NMatD0=    1 NMtDS0=    0 NMtDT0=    0
 Symmetry not used in FoFCou.
 Leave Link  703 at Mon Nov 13 12:08:45 2023, MaxMem=  1879048192 cpu:              37.8 elap:               2.4
 (Enter /home/sekinelabo/g16/l716.exe)
 Dipole        = 1.30399420D-04 8.86934145D-04 3.80442407D-04
 ***** Axes restored to original set *****
 -------------------------------------------------------------------
 Center     Atomic                   Forces (Hartrees/Bohr)
 Number     Number              X              Y              Z
 -------------------------------------------------------------------
      1       11          -0.000004760   -0.000052718   -0.024674158
      2       11           0.000685430    0.014919658    0.000009268
      3       11          -0.009241351   -0.011643717   -0.000015906
      4       11          -0.013954543    0.005275794   -0.000002417
      5       11           0.008135962   -0.012430519   -0.000013447
      6       11           0.000000685   -0.000028311    0.024694485
      7       11           0.014378577    0.003959812    0.000002175
 -------------------------------------------------------------------
 Cartesian Forces:  Max     0.024694485 RMS     0.010529729
 Z-matrix is all fixed cartesians, so copy forces.
 Force constants in Cartesian coordinates: 
                1             2             3             4             5 
      1  0.192943D+00
      2 -0.215046D-04  0.192881D+00
      3 -0.374976D-05  0.297525D-04  0.278354D+00
      4 -0.269574D-01 -0.651994D-03  0.367635D-03  0.108807D+00
      5 -0.660669D-03 -0.413279D-01  0.801459D-02  0.230519D-02  0.158895D+00
      6 -0.183775D-02 -0.400208D-01 -0.388041D-01  0.166663D-04  0.573985D-04
      7 -0.324536D-01 -0.702233D-02 -0.503645D-02  0.907577D-02 -0.544039D-02
      8 -0.700087D-02 -0.356166D-01 -0.628516D-02 -0.734189D-02 -0.548274D-02
      9  0.249627D-01  0.312371D-01 -0.386915D-01  0.578197D-05 -0.101785D-04
     10 -0.395853D-01  0.477797D-02 -0.753190D-02 -0.377200D-01  0.177580D-01
     11  0.475522D-02 -0.287247D-01  0.282829D-02 -0.325456D-01 -0.313751D-01
     12  0.374907D-01 -0.140996D-01 -0.387848D-01 -0.413127D-04 -0.904803D-05
     13 -0.312407D-01  0.661442D-02  0.443952D-02  0.101189D-01  0.400205D-02
     14  0.660552D-02 -0.369272D-01 -0.672428D-02  0.589911D-02 -0.652607D-02
     15 -0.219927D-01  0.334262D-01 -0.387149D-01  0.000000D+00 -0.102803D-04
     16 -0.223583D-01  0.000000D+00  0.894421D-05 -0.270087D-01 -0.662939D-03
     17  0.000000D+00 -0.223507D-01  0.140090D-04 -0.666159D-03 -0.414097D-01
     18  0.107345D-05  0.308496D-04 -0.845637D-01 -0.370852D-03 -0.801905D-02
     19 -0.403477D-01 -0.369674D-02  0.775600D-02 -0.363154D-01 -0.173013D-01
     20 -0.367788D-02 -0.279337D-01  0.212280D-02  0.330013D-01 -0.327739D-01
     21 -0.386202D-01 -0.106036D-01 -0.387950D-01  0.227004D-04 -0.234286D-04
                6             7             8             9            10 
      6  0.678321D-01
      7  0.940840D-05  0.128126D+00
      8 -0.336805D-05  0.244725D-01  0.139266D+00
      9  0.103614D-01  0.752730D-05 -0.482372D-05  0.677410D-01
     10 -0.807377D-05 -0.276942D-01 -0.210325D-01  0.128454D-04  0.152741D+00
     11 -0.316241D-04  0.292763D-01 -0.415412D-01  0.253724D-04 -0.165909D-01
     12 -0.548642D-02 -0.130935D-04  0.152596D-04 -0.550556D-02  0.203939D-04
     13 -0.239650D-05 -0.424324D-01  0.258678D-01  0.208176D-04 -0.340884D-03
     14 -0.770651D-05 -0.243921D-01 -0.264813D-01  0.230655D-04  0.849229D-02
     15  0.103655D-01  0.156178D-04  0.000000D+00 -0.547439D-02 -0.492470D-05
     16  0.183543D-02 -0.325877D-01 -0.702435D-02 -0.250066D-01 -0.395561D-01
     17  0.400264D-01 -0.705557D-02 -0.357665D-01 -0.312763D-01  0.476234D-02
     18 -0.387840D-01  0.501973D-02  0.627083D-02 -0.387957D-01  0.751632D-02
     19 -0.132924D-04 -0.203399D-02 -0.794082D-02 -0.303604D-05 -0.784451D-02
     20 -0.203664D-04 -0.983846D-02  0.562176D-02  0.578933D-05  0.183275D-02
     21 -0.548450D-02 -0.274471D-05  0.670694D-05  0.103647D-01 -0.466010D-05
               11            12            13            14            15 
     11  0.114983D+00
     12 -0.877345D-05  0.678191D-01
     13  0.103935D-01  0.261546D-05  0.123702D+00
     14  0.393025D-02 -0.374203D-05 -0.230432D-01  0.143600D+00
     15  0.179283D-05  0.103605D-01 -0.323611D-04  0.186993D-04  0.677309D-01
     16  0.477025D-02 -0.374565D-01 -0.312797D-01  0.660405D-02  0.220119D-01
     17 -0.287101D-01  0.141029D-01  0.662779D-02 -0.369789D-01 -0.334245D-01
     18 -0.281783D-02 -0.387756D-01 -0.441856D-02  0.670596D-02 -0.387733D-01
     19 -0.586909D-04 -0.284668D-05 -0.285273D-01  0.198344D-01  0.316557D-05
     20  0.114374D-01  0.294866D-05 -0.304623D-01 -0.406173D-01 -0.125373D-04
     21  0.276408D-05  0.103728D-01 -0.962879D-05 -0.119890D-04 -0.549439D-02
               16            17            18            19            20 
     16  0.193158D+00
     17  0.234090D-04  0.193174D+00
     18  0.000000D+00 -0.482821D-04  0.278477D+00
     19 -0.403673D-01 -0.369199D-02 -0.774728D-02  0.155436D+00
     20 -0.371060D-02 -0.279585D-01 -0.212248D-02  0.128552D-01  0.112224D+00
     21  0.386073D-01  0.106057D-01 -0.387851D-01  0.728951D-05  0.238468D-04
               21 
     21  0.678214D-01
 Leave Link  716 at Mon Nov 13 12:08:45 2023, MaxMem=  1879048192 cpu:               0.7 elap:               0.0
 (Enter /home/sekinelabo/g16/l103.exe)

 GradGradGradGradGradGradGradGradGradGradGradGradGradGradGradGradGradGrad
 Berny optimization.
 Search for a local minimum.
 Step number   1 out of a maximum of    2
 All quantities printed in internal units (Hartrees-Bohrs-Radians)
 Second derivative matrix not updated -- first step.
 ITU=  0
     Eigenvalues ---    0.08304   0.08311   0.11850   0.15339   0.15347
     Eigenvalues ---    0.15437   0.15447   0.22353   0.22362   0.24757
     Eigenvalues ---    0.24758   0.25401   0.25403   0.27139   0.36562
 Quadratic step=3.216D-01 exceeds max=3.000D-01 adjusted using Lamda=-8.949D-03.
 Angle between NR and scaled steps=   0.73 degrees.
 Angle between quadratic step and forces=  24.25 degrees.
 Linear search not attempted -- first point.
 B after Tr=     0.000000    0.000000    0.000000
         Rot=    1.000000    0.000000    0.000000   -0.000000 Ang=   0.00 deg.
 Variable       Old X    -DE/DX   Delta X   Delta X   Delta X     New X
                                 (Linear)    (Quad)   (Total)
    X1        4.73989  -0.00000   0.00000  -0.00001  -0.00001   4.73988
    Y1        4.23189  -0.00005   0.00000  -0.00009  -0.00009   4.23180
    Z1        0.00000  -0.02467   0.00000  -0.07980  -0.07980  -0.07980
    X2        4.97146   0.00069   0.00000   0.00572   0.00572   4.97718
    Y2        9.28678   0.01492   0.00000   0.12437   0.12437   9.41115
    Z2        2.63787   0.00001   0.00000   0.00003   0.00003   2.63791
    X3        1.57468  -0.00924   0.00000  -0.07748  -0.07748   1.49721
    Y3        0.27498  -0.01164   0.00000  -0.09719  -0.09719   0.17779
    Z3        2.63701  -0.00002   0.00000  -0.00005  -0.00005   2.63697
    X4       -0.00000  -0.01395   0.00000  -0.11642  -0.11642  -0.11642
    Y4        6.01224   0.00528   0.00000   0.04388   0.04388   6.05612
    Z4        2.63293  -0.00000   0.00000   0.00001   0.00001   2.63294
    X5        7.52617   0.00814   0.00000   0.06824   0.06824   7.59441
    Y5        0.00000  -0.01243   0.00000  -0.10387  -0.10387  -0.10387
    Z5        2.63381  -0.00001   0.00000  -0.00003  -0.00003   2.63378
    X6        4.73919   0.00000   0.00000   0.00000   0.00000   4.73919
    Y6        4.22878  -0.00003   0.00000  -0.00006  -0.00006   4.22872
    Z6        5.26721   0.02469   0.00000   0.07981   0.07981   5.34702
    X7        9.62201   0.01438   0.00000   0.11995   0.11995   9.74196
    Y7        5.57044   0.00396   0.00000   0.03297   0.03297   5.60341
    Z7        2.63521   0.00000   0.00000   0.00002   0.00002   2.63523
         Item               Value     Threshold  Converged?
 Maximum Force            0.024694     0.000450     NO 
 RMS     Force            0.010530     0.000300     NO 
 Maximum Displacement     0.124367     0.001800     NO 
 RMS     Displacement     0.065497     0.001200     NO 
 Predicted change in Energy=-7.005449D-03
 GradGradGradGradGradGradGradGradGradGradGradGradGradGradGradGradGradGrad

 Leave Link  103 at Mon Nov 13 12:08:45 2023, MaxMem=  1879048192 cpu:               1.3 elap:               0.1
 (Enter /home/sekinelabo/g16/l9999.exe)
 1\1\GINC-SEKINELABO-XA7R-R37\Force\UB3LYP\6-311+G(d)\Na7(2)\SEKINELABO
 \13-Nov-2023\0\\#P B3LYP/6-311+g(d) force\\Gaussian input prepared by 
 ASE\\0,2\Na,2.50824027,2.2394204036,0.\Na,2.6307810604,4.9143549265,1.
 395902507\Na,0.8332869728,0.1455148727,1.3954481306\Na,0.,3.181540841,
 1.393284551\Na,3.9826776854,0.,1.3937503339\Na,2.5078723939,2.23777310
 6,2.7872895161\Na,5.0917493001,2.9477479817,1.3944945292\\Version=ES64
 L-G16RevB.01\State=2-A\HF=-1136.1083742\S2=0.756342\S2-1=0.\S2A=0.7500
 28\RMSD=6.760e-09\RMSF=1.053e-02\Dipole=0.0001304,-0.0008869,-0.000380
 4\Quadrupole=4.3960989,4.3809927,-8.7770916,-0.0003087,0.0006429,0.002
 8748\PG=C01 [X(Na7)]\\@


  THE LARGE PRINT GIVETH,
  AND THE SMALL PRINT TAKETH AWAY.

                     -- TOM WAITS
 Job cpu time:       0 days  0 hours  4 minutes 20.6 seconds.
 Elapsed time:       0 days  0 hours  0 minutes 20.8 seconds.
 File lengths (MBytes):  RWF=     32 Int=      0 D2E=      0 Chk=      5 Scr=      1
 Normal termination of Gaussian 16 at Mon Nov 13 12:08:45 2023.
