 Entering Gaussian System, Link 0=g16
 Initial command:
 /home/sekinelabo/g16/l1.exe "/home/sekinelabo/g16temp/Gau-3974869.inp" -scrdir="/home/sekinelabo/g16temp/"
 Entering Link 1 = /home/sekinelabo/g16/l1.exe PID=   3974871.
  
 Copyright (c) 1988-2017, Gaussian, Inc.  All Rights Reserved.
  
 This is part of the Gaussian(R) 16 program.  It is based on
 the Gaussian(R) 09 system (copyright 2009, Gaussian, Inc.),
 the Gaussian(R) 03 system (copyright 2003, Gaussian, Inc.),
 the Gaussian(R) 98 system (copyright 1998, Gaussian, Inc.),
 the Gaussian(R) 94 system (copyright 1995, Gaussian, Inc.),
 the Gaussian 92(TM) system (copyright 1992, Gaussian, Inc.),
 the Gaussian 90(TM) system (copyright 1990, Gaussian, Inc.),
 the Gaussian 88(TM) system (copyright 1988, Gaussian, Inc.),
 the Gaussian 86(TM) system (copyright 1986, Carnegie Mellon
 University), and the Gaussian 82(TM) system (copyright 1983,
 Carnegie Mellon University). Gaussian is a federally registered
 trademark of Gaussian, Inc.
  
 This software contains proprietary and confidential information,
 including trade secrets, belonging to Gaussian, Inc.
  
 This software is provided under written license and may be
 used, copied, transmitted, or stored only in accord with that
 written license.
  
 The following legend is applicable only to US Government
 contracts under FAR:
  
                    RESTRICTED RIGHTS LEGEND
  
 Use, reproduction and disclosure by the US Government is
 subject to restrictions as set forth in subparagraphs (a)
 and (c) of the Commercial Computer Software - Restricted
 Rights clause in FAR 52.227-19.
  
 Gaussian, Inc.
 340 Quinnipiac St., Bldg. 40, Wallingford CT 06492
  
  
 ---------------------------------------------------------------
 Warning -- This program may not be used in any manner that
 competes with the business of Gaussian, Inc. or will provide
 assistance to any competitor of Gaussian, Inc.  The licensee
 of this program is prohibited from giving any competitor of
 Gaussian, Inc. access to this program.  By using this program,
 the user acknowledges that Gaussian, Inc. is engaged in the
 business of creating and licensing software in the field of
 computational chemistry and represents and warrants to the
 licensee that it is not a competitor of Gaussian, Inc. and that
 it will not use this program in any manner prohibited above.
 ---------------------------------------------------------------
  

 Cite this work as:
 Gaussian 16, Revision B.01,
 M. J. Frisch, G. W. Trucks, H. B. Schlegel, G. E. Scuseria, 
 M. A. Robb, J. R. Cheeseman, G. Scalmani, V. Barone, 
 G. A. Petersson, H. Nakatsuji, X. Li, M. Caricato, A. V. Marenich, 
 J. Bloino, B. G. Janesko, R. Gomperts, B. Mennucci, H. P. Hratchian, 
 J. V. Ortiz, A. F. Izmaylov, J. L. Sonnenberg, D. Williams-Young, 
 F. Ding, F. Lipparini, F. Egidi, J. Goings, B. Peng, A. Petrone, 
 T. Henderson, D. Ranasinghe, V. G. Zakrzewski, J. Gao, N. Rega, 
 G. Zheng, W. Liang, M. Hada, M. Ehara, K. Toyota, R. Fukuda, 
 J. Hasegawa, M. Ishida, T. Nakajima, Y. Honda, O. Kitao, H. Nakai, 
 T. Vreven, K. Throssell, J. A. Montgomery, Jr., J. E. Peralta, 
 F. Ogliaro, M. J. Bearpark, J. J. Heyd, E. N. Brothers, K. N. Kudin, 
 V. N. Staroverov, T. A. Keith, R. Kobayashi, J. Normand, 
 K. Raghavachari, A. P. Rendell, J. C. Burant, S. S. Iyengar, 
 J. Tomasi, M. Cossi, J. M. Millam, M. Klene, C. Adamo, R. Cammi, 
 J. W. Ochterski, R. L. Martin, K. Morokuma, O. Farkas, 
 J. B. Foresman, and D. J. Fox, Gaussian, Inc., Wallingford CT, 2016.
 
 ******************************************
 Gaussian 16:  ES64L-G16RevB.01 20-Dec-2017
                13-Nov-2023 
 ******************************************
 %mem=14GB
 %chk=checkpoint.chk
 %nprocshared=16
 Will use up to   16 processors via shared memory.
 -------------------------
 #P B3LYP/6-311+g(d) force
 -------------------------
 1/10=7,30=1,38=1/1,3;
 2/12=2,17=6,18=5,40=1/2;
 3/5=4,6=6,7=11,11=2,25=1,30=1,71=1,74=-5/1,2,3;
 4//1;
 5/5=2,38=5/2;
 6/7=2,8=2,9=2,10=2,28=1/1;
 7/29=1/1,2,3,16;
 1/10=7,30=1/3;
 99//99;
 Leave Link    1 at Mon Nov 13 12:09:14 2023, MaxMem=  1879048192 cpu:               0.6 elap:               0.0
 (Enter /home/sekinelabo/g16/l101.exe)
 ------------------------------
 Gaussian input prepared by ASE
 ------------------------------
 Symbolic Z-matrix:
 Charge =  0 Multiplicity = 2
 Na                    4.35651   3.02307   1.5964 
 Na                    1.26684   0.        1.59675 
 Na                    3.84194   0.32673   1.59534 
 Na                    0.        2.26417   1.59554 
 Na                    2.22508   2.03918   3.19187 
 Na                    2.22511   2.03926   0. 
 Na                    1.84231   4.1133    1.59611 
 
 ITRead=  0  0  0  0  0  0  0
 MicOpt= -1 -1 -1 -1 -1 -1 -1
 NAtoms=      7 NQM=        7 NQMF=       0 NMMI=      0 NMMIF=      0
                NMic=       0 NMicF=      0.
                    Isotopes and Nuclear Properties:
 (Nuclear quadrupole moments (NQMom) in fm**2, nuclear magnetic moments (NMagM)
  in nuclear magnetons)

  Atom         1           2           3           4           5           6           7
 IAtWgt=          23          23          23          23          23          23          23
 AtmWgt=  22.9897697  22.9897697  22.9897697  22.9897697  22.9897697  22.9897697  22.9897697
 NucSpn=           3           3           3           3           3           3           3
 AtZEff=  -0.0000000  -0.0000000  -0.0000000  -0.0000000  -0.0000000  -0.0000000  -0.0000000
 NQMom=   10.4000000  10.4000000  10.4000000  10.4000000  10.4000000  10.4000000  10.4000000
 NMagM=    2.2175200   2.2175200   2.2175200   2.2175200   2.2175200   2.2175200   2.2175200
 AtZNuc=  11.0000000  11.0000000  11.0000000  11.0000000  11.0000000  11.0000000  11.0000000
 Leave Link  101 at Mon Nov 13 12:09:14 2023, MaxMem=  1879048192 cpu:               2.6 elap:               0.2
 (Enter /home/sekinelabo/g16/l103.exe)

 GradGradGradGradGradGradGradGradGradGradGradGradGradGradGradGradGradGrad
 Berny optimization.
 Initialization pass.
 Trust Radius=3.00D-01 FncErr=1.00D-07 GrdErr=1.00D-07 EigMax=2.50D+02 EigMin=1.00D-04
 Number of steps in this run=      2 maximum allowed number of steps=      2.
 GradGradGradGradGradGradGradGradGradGradGradGradGradGradGradGradGradGrad

 Leave Link  103 at Mon Nov 13 12:09:14 2023, MaxMem=  1879048192 cpu:               0.2 elap:               0.0
 (Enter /home/sekinelabo/g16/l202.exe)
                          Input orientation:                          
 ---------------------------------------------------------------------
 Center     Atomic      Atomic             Coordinates (Angstroms)
 Number     Number       Type             X           Y           Z
 ---------------------------------------------------------------------
      1         11           0        4.356507    3.023072    1.596401
      2         11           0        1.266839    0.000000    1.596748
      3         11           0        3.841936    0.326732    1.595340
      4         11           0        0.000000    2.264170    1.595542
      5         11           0        2.225083    2.039175    3.191873
      6         11           0        2.225112    2.039255    0.000000
      7         11           0        1.842309    4.113305    1.596110
 ---------------------------------------------------------------------
                    Distance matrix (angstroms):
                    1          2          3          4          5
     1  Na   0.000000
     2  Na   4.322616   0.000000
     3  Na   2.745001   2.595742   0.000000
     4  Na   4.422113   2.594484   4.302805   0.000000
     5  Na   2.838406   2.760597   2.845276   2.747706   0.000000
     6  Na   2.838879   2.761603   2.844637   2.747265   3.191873
     7  Na   2.740401   4.153365   4.282130   2.610250   2.644804
                    6          7
     6  Na   0.000000
     7  Na   2.644955   0.000000
 Stoichiometry    Na7(2)
 Framework group  C1[X(Na7)]
 Deg. of freedom    15
 Full point group                 C1      NOp   1
 Largest Abelian subgroup         C1      NOp   1
 Largest concise Abelian subgroup C1      NOp   1
                         Standard orientation:                         
 ---------------------------------------------------------------------
 Center     Atomic      Atomic             Coordinates (Angstroms)
 Number     Number       Type             X           Y           Z
 ---------------------------------------------------------------------
      1         11           0        2.105394   -1.050827   -0.000399
      2         11           0       -0.984273    1.972244   -0.000746
      3         11           0        1.590823    1.645512    0.000662
      4         11           0       -2.251112   -0.291926    0.000460
      5         11           0       -0.026029   -0.066931   -1.595871
      6         11           0       -0.026000   -0.067011    1.596002
      7         11           0       -0.408803   -2.141061   -0.000108
 ---------------------------------------------------------------------
 Rotational constants (GHZ):           1.2580239           1.2037307           0.8604432
 Leave Link  202 at Mon Nov 13 12:09:14 2023, MaxMem=  1879048192 cpu:               0.0 elap:               0.0
 (Enter /home/sekinelabo/g16/l301.exe)
 Standard basis: 6-311+G(d) (5D, 7F)
 Ernie: Thresh=  0.10000D-02 Tol=  0.10000D-05 Strict=F.
 There are   217 symmetry adapted cartesian basis functions of A   symmetry.
 There are   210 symmetry adapted basis functions of A   symmetry.
   210 basis functions,   350 primitive gaussians,   217 cartesian basis functions
    39 alpha electrons       38 beta electrons
       nuclear repulsion energy       446.7081386029 Hartrees.
 IExCor=  402 DFT=T Ex+Corr=B3LYP ExCW=0 ScaHFX=  0.200000
 ScaDFX=  0.800000  0.720000  1.000000  0.810000 ScalE2=  1.000000  1.000000
 IRadAn=      5 IRanWt=     -1 IRanGd=            0 ICorTp=0 IEmpDi=  4
 NAtoms=    7 NActive=    7 NUniq=    7 SFac= 1.00D+00 NAtFMM=   60 NAOKFM=F Big=F
 Integral buffers will be    131072 words long.
 Raffenetti 2 integral format.
 Two-electron integral symmetry is turned on.
 Leave Link  301 at Mon Nov 13 12:09:14 2023, MaxMem=  1879048192 cpu:               0.5 elap:               0.0
 (Enter /home/sekinelabo/g16/l302.exe)
 NPDir=0 NMtPBC=     1 NCelOv=     1 NCel=       1 NClECP=     1 NCelD=      1
         NCelK=      1 NCelE2=     1 NClLst=     1 CellRange=     0.0.
 One-electron integrals computed using PRISM.
 One-electron integral symmetry used in STVInt
 NBasis=   210 RedAO= T EigKep=  2.53D-06  NBF=   210
 NBsUse=   209 1.00D-06 EigRej=  4.69D-07 NBFU=   209
 Precomputing XC quadrature grid using
 IXCGrd= 4 IRadAn=           5 IRanWt=          -1 IRanGd=           0 AccXCQ= 0.00D+00.
 Generated NRdTot=       0 NPtTot=           0 NUsed=           0 NTot=          32
 NSgBfM=   211   211   211   211   211 MxSgAt=     7 MxSgA2=     7.
 Leave Link  302 at Mon Nov 13 12:09:14 2023, MaxMem=  1879048192 cpu:               2.3 elap:               0.2
 (Enter /home/sekinelabo/g16/l303.exe)
 DipDrv:  MaxL=1.
 Leave Link  303 at Mon Nov 13 12:09:14 2023, MaxMem=  1879048192 cpu:               0.6 elap:               0.0
 (Enter /home/sekinelabo/g16/l401.exe)
 ExpMin= 7.60D-03 ExpMax= 3.62D+04 ExpMxC= 1.21D+03 IAcc=3 IRadAn=         5 AccDes= 0.00D+00
 Harris functional with IExCor=  402 and IRadAn=       5 diagonalized for initial guess.
 HarFok:  IExCor=  402 AccDes= 0.00D+00 IRadAn=         5 IDoV= 1 UseB2=F ITyADJ=14
 ICtDFT=  3500011 ScaDFX=  1.000000  1.000000  1.000000  1.000000
 FoFCou: FMM=F IPFlag=           0 FMFlag=      100000 FMFlg1=           0
         NFxFlg=           0 DoJE=T BraDBF=F KetDBF=T FulRan=T
         wScrn=  0.000000 ICntrl=       500 IOpCl=  0 I1Cent=   200000004 NGrid=           0
         NMat0=    1 NMatS0=      1 NMatT0=    0 NMatD0=    1 NMtDS0=    0 NMtDT0=    0
 Petite list used in FoFCou.
 Harris En= -1135.79907289427    
 JPrj=0 DoOrth=F DoCkMO=F.
 Initial guess <Sx>= 0.0000 <Sy>= 0.0000 <Sz>= 0.5000 <S**2>= 0.7500 S= 0.5000
 Leave Link  401 at Mon Nov 13 12:09:15 2023, MaxMem=  1879048192 cpu:               4.8 elap:               0.3
 (Enter /home/sekinelabo/g16/l502.exe)
 Keep R1 and R2 ints in memory in canonical form, NReq=507620388.
 FoFCou: FMM=F IPFlag=           0 FMFlag=           0 FMFlg1=           0
         NFxFlg=           0 DoJE=F BraDBF=F KetDBF=F FulRan=T
         wScrn=  0.000000 ICntrl=       600 IOpCl=  0 I1Cent=           0 NGrid=           0
         NMat0=    1 NMatS0=  22155 NMatT0=    0 NMatD0=    1 NMtDS0=    0 NMtDT0=    0
 Symmetry not used in FoFCou.
 Two-electron integral symmetry not used.
 UHF open shell SCF:
 Using DIIS extrapolation, IDIIS=  1040.
 NGot=  1879048192 LenX=  1388082348 LenY=  1388034818
 Requested convergence on RMS density matrix=1.00D-08 within 128 cycles.
 Requested convergence on MAX density matrix=1.00D-06.
 Requested convergence on             energy=1.00D-06.
 No special actions if energy rises.

 Cycle   1  Pass 1  IDiag  1:
 E= -1135.97472445088    
 DIIS: error= 1.79D-02 at cycle   1 NSaved=   1.
 NSaved= 1 IEnMin= 1 EnMin= -1135.97472445088     IErMin= 1 ErrMin= 1.79D-02
 ErrMax= 1.79D-02  0.00D+00 EMaxC= 1.00D-01 BMatC= 2.25D-01 BMatP= 2.25D-01
 IDIUse=3 WtCom= 8.21D-01 WtEn= 1.79D-01
 Coeff-Com:  0.100D+01
 Coeff-En:   0.100D+01
 Coeff:      0.100D+01
 Gap=     0.070 Goal=   None    Shift=    0.000
 Gap=     0.050 Goal=   None    Shift=    0.000
 GapD=    0.050 DampG=0.250 DampE=0.500 DampFc=0.2500 IDamp=-1.
 Damping current iteration by 2.50D-01
 RMSDP=1.22D-01 MaxDP=8.79D+00              OVMax= 2.66D-01

 Cycle   2  Pass 1  IDiag  1:
 E= -1135.99237757440     Delta-E=       -0.017653123515 Rises=F Damp=T
 DIIS: error= 1.12D-02 at cycle   2 NSaved=   2.
 NSaved= 2 IEnMin= 2 EnMin= -1135.99237757440     IErMin= 2 ErrMin= 1.12D-02
 ErrMax= 1.12D-02  0.00D+00 EMaxC= 1.00D-01 BMatC= 8.44D-02 BMatP= 2.25D-01
 IDIUse=3 WtCom= 8.88D-01 WtEn= 1.12D-01
 Coeff-Com: -0.127D+01 0.227D+01
 Coeff-En:   0.000D+00 0.100D+01
 Coeff:     -0.113D+01 0.213D+01
 Gap=     0.082 Goal=   None    Shift=    0.000
 Gap=     0.050 Goal=   None    Shift=    0.000
 RMSDP=5.06D-02 MaxDP=3.71D+00 DE=-1.77D-02 OVMax= 1.75D-01

 Cycle   3  Pass 1  IDiag  1:
 E= -1136.02196726416     Delta-E=       -0.029589689764 Rises=F Damp=F
 DIIS: error= 3.89D-03 at cycle   3 NSaved=   3.
 NSaved= 3 IEnMin= 3 EnMin= -1136.02196726416     IErMin= 3 ErrMin= 3.89D-03
 ErrMax= 3.89D-03  0.00D+00 EMaxC= 1.00D-01 BMatC= 4.86D-03 BMatP= 8.44D-02
 IDIUse=3 WtCom= 9.61D-01 WtEn= 3.89D-02
 Coeff-Com: -0.245D+00 0.470D+00 0.775D+00
 Coeff-En:   0.000D+00 0.000D+00 0.100D+01
 Coeff:     -0.235D+00 0.452D+00 0.784D+00
 Gap=     0.073 Goal=   None    Shift=    0.000
 Gap=     0.050 Goal=   None    Shift=    0.000
 RMSDP=2.02D-02 MaxDP=1.39D+00 DE=-2.96D-02 OVMax= 5.08D-02

 Cycle   4  Pass 1  IDiag  1:
 E= -1136.02243116473     Delta-E=       -0.000463900562 Rises=F Damp=F
 DIIS: error= 3.43D-03 at cycle   4 NSaved=   4.
 NSaved= 4 IEnMin= 4 EnMin= -1136.02243116473     IErMin= 4 ErrMin= 3.43D-03
 ErrMax= 3.43D-03  0.00D+00 EMaxC= 1.00D-01 BMatC= 3.08D-03 BMatP= 4.86D-03
 IDIUse=3 WtCom= 9.66D-01 WtEn= 3.43D-02
 Coeff-Com:  0.276D-01-0.352D-01 0.447D+00 0.560D+00
 Coeff-En:   0.000D+00 0.000D+00 0.443D+00 0.557D+00
 Coeff:      0.267D-01-0.340D-01 0.447D+00 0.560D+00
 Gap=     0.074 Goal=   None    Shift=    0.000
 Gap=     0.051 Goal=   None    Shift=    0.000
 RMSDP=6.51D-03 MaxDP=4.71D-01 DE=-4.64D-04 OVMax= 2.79D-02

 Cycle   5  Pass 1  IDiag  1:
 E= -1136.02393869252     Delta-E=       -0.001507527797 Rises=F Damp=F
 DIIS: error= 5.52D-04 at cycle   5 NSaved=   5.
 NSaved= 5 IEnMin= 5 EnMin= -1136.02393869252     IErMin= 5 ErrMin= 5.52D-04
 ErrMax= 5.52D-04  0.00D+00 EMaxC= 1.00D-01 BMatC= 6.52D-05 BMatP= 3.08D-03
 IDIUse=3 WtCom= 9.94D-01 WtEn= 5.52D-03
 Coeff-Com:  0.168D-01-0.221D-01 0.275D+00 0.346D+00 0.385D+00
 Coeff-En:   0.000D+00 0.000D+00 0.000D+00 0.000D+00 0.100D+01
 Coeff:      0.167D-01-0.220D-01 0.273D+00 0.344D+00 0.388D+00
 Gap=     0.074 Goal=   None    Shift=    0.000
 Gap=     0.051 Goal=   None    Shift=    0.000
 RMSDP=3.80D-04 MaxDP=1.98D-02 DE=-1.51D-03 OVMax= 7.85D-03

 Cycle   6  Pass 1  IDiag  1:
 E= -1136.02399796674     Delta-E=       -0.000059274214 Rises=F Damp=F
 DIIS: error= 9.35D-05 at cycle   6 NSaved=   6.
 NSaved= 6 IEnMin= 6 EnMin= -1136.02399796674     IErMin= 6 ErrMin= 9.35D-05
 ErrMax= 9.35D-05  0.00D+00 EMaxC= 1.00D-01 BMatC= 2.31D-06 BMatP= 6.52D-05
 IDIUse=1 WtCom= 1.00D+00 WtEn= 0.00D+00
 Coeff-Com: -0.336D-02 0.419D-02-0.293D-01-0.449D-01 0.119D+00 0.955D+00
 Coeff:     -0.336D-02 0.419D-02-0.293D-01-0.449D-01 0.119D+00 0.955D+00
 Gap=     0.074 Goal=   None    Shift=    0.000
 Gap=     0.051 Goal=   None    Shift=    0.000
 RMSDP=3.98D-04 MaxDP=3.55D-02 DE=-5.93D-05 OVMax= 1.38D-03

 Cycle   7  Pass 1  IDiag  1:
 E= -1136.02400055266     Delta-E=       -0.000002585920 Rises=F Damp=F
 DIIS: error= 1.89D-05 at cycle   7 NSaved=   7.
 NSaved= 7 IEnMin= 7 EnMin= -1136.02400055266     IErMin= 7 ErrMin= 1.89D-05
 ErrMax= 1.89D-05  0.00D+00 EMaxC= 1.00D-01 BMatC= 3.92D-08 BMatP= 2.31D-06
 IDIUse=1 WtCom= 1.00D+00 WtEn= 0.00D+00
 Coeff-Com:  0.103D-03-0.146D-03-0.601D-02-0.546D-02-0.310D-01-0.155D+00
 Coeff-Com:  0.120D+01
 Coeff:      0.103D-03-0.146D-03-0.601D-02-0.546D-02-0.310D-01-0.155D+00
 Coeff:      0.120D+01
 Gap=     0.074 Goal=   None    Shift=    0.000
 Gap=     0.051 Goal=   None    Shift=    0.000
 RMSDP=9.63D-05 MaxDP=8.16D-03 DE=-2.59D-06 OVMax= 3.59D-04

 Cycle   8  Pass 1  IDiag  1:
 E= -1136.02400063882     Delta-E=       -0.000000086163 Rises=F Damp=F
 DIIS: error= 6.90D-06 at cycle   8 NSaved=   8.
 NSaved= 8 IEnMin= 8 EnMin= -1136.02400063882     IErMin= 8 ErrMin= 6.90D-06
 ErrMax= 6.90D-06  0.00D+00 EMaxC= 1.00D-01 BMatC= 1.59D-08 BMatP= 3.92D-08
 IDIUse=1 WtCom= 1.00D+00 WtEn= 0.00D+00
 Coeff-Com:  0.245D-03-0.314D-03-0.142D-02 0.214D-04-0.223D-01-0.129D+00
 Coeff-Com:  0.538D+00 0.615D+00
 Coeff:      0.245D-03-0.314D-03-0.142D-02 0.214D-04-0.223D-01-0.129D+00
 Coeff:      0.538D+00 0.615D+00
 Gap=     0.074 Goal=   None    Shift=    0.000
 Gap=     0.051 Goal=   None    Shift=    0.000
 RMSDP=1.75D-05 MaxDP=1.77D-03 DE=-8.62D-08 OVMax= 1.05D-04

 Cycle   9  Pass 1  IDiag  1:
 E= -1136.02400064715     Delta-E=       -0.000000008326 Rises=F Damp=F
 DIIS: error= 1.85D-06 at cycle   9 NSaved=   9.
 NSaved= 9 IEnMin= 9 EnMin= -1136.02400064715     IErMin= 9 ErrMin= 1.85D-06
 ErrMax= 1.85D-06  0.00D+00 EMaxC= 1.00D-01 BMatC= 9.00D-10 BMatP= 1.59D-08
 IDIUse=1 WtCom= 1.00D+00 WtEn= 0.00D+00
 Coeff-Com:  0.350D-04-0.394D-04 0.180D-03 0.475D-03-0.227D-02-0.141D-01
 Coeff-Com:  0.170D-02 0.716D-01 0.942D+00
 Coeff:      0.350D-04-0.394D-04 0.180D-03 0.475D-03-0.227D-02-0.141D-01
 Coeff:      0.170D-02 0.716D-01 0.942D+00
 Gap=     0.074 Goal=   None    Shift=    0.000
 Gap=     0.051 Goal=   None    Shift=    0.000
 RMSDP=9.35D-06 MaxDP=1.02D-03 DE=-8.33D-09 OVMax= 7.76D-05

 Cycle  10  Pass 1  IDiag  1:
 E= -1136.02400064894     Delta-E=       -0.000000001797 Rises=F Damp=F
 DIIS: error= 2.10D-06 at cycle  10 NSaved=  10.
 NSaved=10 IEnMin=10 EnMin= -1136.02400064894     IErMin= 9 ErrMin= 1.85D-06
 ErrMax= 2.10D-06  0.00D+00 EMaxC= 1.00D-01 BMatC= 1.20D-09 BMatP= 9.00D-10
 IDIUse=1 WtCom= 1.00D+00 WtEn= 0.00D+00
 Coeff-Com: -0.183D-04 0.276D-04 0.366D-03 0.334D-03 0.207D-02 0.109D-01
 Coeff-Com: -0.867D-01-0.458D-01 0.645D+00 0.474D+00
 Coeff:     -0.183D-04 0.276D-04 0.366D-03 0.334D-03 0.207D-02 0.109D-01
 Coeff:     -0.867D-01-0.458D-01 0.645D+00 0.474D+00
 Gap=     0.074 Goal=   None    Shift=    0.000
 Gap=     0.051 Goal=   None    Shift=    0.000
 RMSDP=3.59D-06 MaxDP=3.63D-04 DE=-1.80D-09 OVMax= 4.66D-05

 Cycle  11  Pass 1  IDiag  1:
 E= -1136.02400065054     Delta-E=       -0.000000001593 Rises=F Damp=F
 DIIS: error= 6.58D-07 at cycle  11 NSaved=  11.
 NSaved=11 IEnMin=11 EnMin= -1136.02400065054     IErMin=11 ErrMin= 6.58D-07
 ErrMax= 6.58D-07  0.00D+00 EMaxC= 1.00D-01 BMatC= 1.10D-10 BMatP= 9.00D-10
 IDIUse=1 WtCom= 1.00D+00 WtEn= 0.00D+00
 Coeff-Com: -0.223D-04 0.269D-04 0.426D-04-0.113D-03 0.166D-02 0.893D-02
 Coeff-Com: -0.246D-01-0.204D-01-0.343D+00 0.524D-01 0.132D+01
 Coeff:     -0.223D-04 0.269D-04 0.426D-04-0.113D-03 0.166D-02 0.893D-02
 Coeff:     -0.246D-01-0.204D-01-0.343D+00 0.524D-01 0.132D+01
 Gap=     0.074 Goal=   None    Shift=    0.000
 Gap=     0.051 Goal=   None    Shift=    0.000
 RMSDP=4.45D-06 MaxDP=3.98D-04 DE=-1.59D-09 OVMax= 4.99D-05

 Cycle  12  Pass 1  IDiag  1:
 E= -1136.02400065115     Delta-E=       -0.000000000614 Rises=F Damp=F
 DIIS: error= 2.33D-07 at cycle  12 NSaved=  12.
 NSaved=12 IEnMin=12 EnMin= -1136.02400065115     IErMin=12 ErrMin= 2.33D-07
 ErrMax= 2.33D-07  0.00D+00 EMaxC= 1.00D-01 BMatC= 7.59D-12 BMatP= 1.10D-10
 IDIUse=1 WtCom= 1.00D+00 WtEn= 0.00D+00
 Coeff-Com:  0.848D-05-0.115D-04-0.368D-04-0.138D-04-0.492D-03-0.212D-02
 Coeff-Com:  0.127D-01 0.352D-02-0.104D-01-0.610D-01-0.247D+00 0.130D+01
 Coeff:      0.848D-05-0.115D-04-0.368D-04-0.138D-04-0.492D-03-0.212D-02
 Coeff:      0.127D-01 0.352D-02-0.104D-01-0.610D-01-0.247D+00 0.130D+01
 Gap=     0.074 Goal=   None    Shift=    0.000
 Gap=     0.051 Goal=   None    Shift=    0.000
 RMSDP=1.55D-06 MaxDP=1.24D-04 DE=-6.14D-10 OVMax= 1.95D-05

 Cycle  13  Pass 1  IDiag  1:
 E= -1136.02400065120     Delta-E=       -0.000000000048 Rises=F Damp=F
 DIIS: error= 7.77D-08 at cycle  13 NSaved=  13.
 NSaved=13 IEnMin=13 EnMin= -1136.02400065120     IErMin=13 ErrMin= 7.77D-08
 ErrMax= 7.77D-08  0.00D+00 EMaxC= 1.00D-01 BMatC= 1.05D-12 BMatP= 7.59D-12
 IDIUse=1 WtCom= 1.00D+00 WtEn= 0.00D+00
 Coeff-Com:  0.147D-05-0.161D-05-0.952D-05 0.779D-05-0.124D-03-0.864D-03
 Coeff-Com:  0.215D-02 0.152D-02 0.368D-01-0.395D-02-0.125D+00-0.587D-01
 Coeff-Com:  0.115D+01
 Coeff:      0.147D-05-0.161D-05-0.952D-05 0.779D-05-0.124D-03-0.864D-03
 Coeff:      0.215D-02 0.152D-02 0.368D-01-0.395D-02-0.125D+00-0.587D-01
 Coeff:      0.115D+01
 Gap=     0.074 Goal=   None    Shift=    0.000
 Gap=     0.051 Goal=   None    Shift=    0.000
 RMSDP=4.48D-07 MaxDP=3.78D-05 DE=-4.77D-11 OVMax= 4.41D-06

 Cycle  14  Pass 1  IDiag  1:
 E= -1136.02400065120     Delta-E=       -0.000000000005 Rises=F Damp=F
 DIIS: error= 5.26D-08 at cycle  14 NSaved=  14.
 NSaved=14 IEnMin=14 EnMin= -1136.02400065120     IErMin=14 ErrMin= 5.26D-08
 ErrMax= 5.26D-08  0.00D+00 EMaxC= 1.00D-01 BMatC= 8.68D-13 BMatP= 1.05D-12
 IDIUse=1 WtCom= 1.00D+00 WtEn= 0.00D+00
 Coeff-Com: -0.695D-06 0.118D-05-0.372D-08 0.691D-05 0.412D-05-0.155D-03
 Coeff-Com: -0.951D-03 0.505D-03 0.261D-01 0.795D-02-0.374D-01-0.271D+00
 Coeff-Com:  0.743D+00 0.532D+00
 Coeff:     -0.695D-06 0.118D-05-0.372D-08 0.691D-05 0.412D-05-0.155D-03
 Coeff:     -0.951D-03 0.505D-03 0.261D-01 0.795D-02-0.374D-01-0.271D+00
 Coeff:      0.743D+00 0.532D+00
 Gap=     0.074 Goal=   None    Shift=    0.000
 Gap=     0.051 Goal=   None    Shift=    0.000
 RMSDP=9.45D-08 MaxDP=6.24D-06 DE=-5.46D-12 OVMax= 1.34D-06

 Cycle  15  Pass 1  IDiag  1:
 E= -1136.02400065121     Delta-E=       -0.000000000010 Rises=F Damp=F
 DIIS: error= 1.29D-08 at cycle  15 NSaved=  15.
 NSaved=15 IEnMin=15 EnMin= -1136.02400065121     IErMin=15 ErrMin= 1.29D-08
 ErrMax= 1.29D-08  0.00D+00 EMaxC= 1.00D-01 BMatC= 7.36D-14 BMatP= 8.68D-13
 IDIUse=1 WtCom= 1.00D+00 WtEn= 0.00D+00
 Coeff-Com: -0.649D-06 0.903D-06 0.258D-05 0.131D-05 0.256D-04 0.135D-03
 Coeff-Com: -0.932D-03 0.113D-03 0.324D-02 0.420D-02 0.115D-01-0.109D+00
 Coeff-Com:  0.872D-01 0.235D+00 0.769D+00
 Coeff:     -0.649D-06 0.903D-06 0.258D-05 0.131D-05 0.256D-04 0.135D-03
 Coeff:     -0.932D-03 0.113D-03 0.324D-02 0.420D-02 0.115D-01-0.109D+00
 Coeff:      0.872D-01 0.235D+00 0.769D+00
 Gap=     0.074 Goal=   None    Shift=    0.000
 Gap=     0.051 Goal=   None    Shift=    0.000
 RMSDP=6.88D-08 MaxDP=5.75D-06 DE=-1.05D-11 OVMax= 4.91D-07

 Cycle  16  Pass 1  IDiag  1:
 E= -1136.02400065121     Delta-E=        0.000000000004 Rises=F Damp=F
 DIIS: error= 3.72D-09 at cycle  16 NSaved=  16.
 NSaved=16 IEnMin=15 EnMin= -1136.02400065121     IErMin=16 ErrMin= 3.72D-09
 ErrMax= 3.72D-09  0.00D+00 EMaxC= 1.00D-01 BMatC= 6.87D-15 BMatP= 7.36D-14
 IDIUse=1 WtCom= 1.00D+00 WtEn= 0.00D+00
 Coeff-Com: -0.273D-07 0.974D-08 0.131D-05-0.334D-06 0.913D-05 0.515D-04
 Coeff-Com: -0.115D-03 0.223D-04-0.327D-02 0.250D-03 0.104D-01 0.188D-02
 Coeff-Com: -0.751D-01-0.260D-02 0.227D+00 0.842D+00
 Coeff:     -0.273D-07 0.974D-08 0.131D-05-0.334D-06 0.913D-05 0.515D-04
 Coeff:     -0.115D-03 0.223D-04-0.327D-02 0.250D-03 0.104D-01 0.188D-02
 Coeff:     -0.751D-01-0.260D-02 0.227D+00 0.842D+00
 Gap=     0.074 Goal=   None    Shift=    0.000
 Gap=     0.051 Goal=   None    Shift=    0.000
 RMSDP=3.66D-08 MaxDP=3.22D-06 DE= 3.64D-12 OVMax= 1.33D-07

 Cycle  17  Pass 1  IDiag  1:
 E= -1136.02400065120     Delta-E=        0.000000000008 Rises=F Damp=F
 DIIS: error= 9.52D-10 at cycle  17 NSaved=  17.
 NSaved=17 IEnMin=15 EnMin= -1136.02400065121     IErMin=17 ErrMin= 9.52D-10
 ErrMax= 9.52D-10  0.00D+00 EMaxC= 1.00D-01 BMatC= 3.17D-16 BMatP= 6.87D-15
 IDIUse=1 WtCom= 1.00D+00 WtEn= 0.00D+00
 Large coefficients: NSaved= 17 BigCof=    0.00 CofMax=   10.00 Det=-2.53D-15
 Inversion failed.  Reducing to 16 matrices.
 Large coefficients: NSaved= 16 BigCof=    0.00 CofMax=   10.00 Det=-2.53D-15
 Inversion failed.  Reducing to 15 matrices.
 Coeff-Com: -0.194D-07-0.443D-06 0.127D-05 0.117D-04 0.107D-04-0.711D-04
 Coeff-Com: -0.771D-03-0.171D-03 0.145D-02 0.729D-02-0.209D-01-0.171D-01
 Coeff-Com: -0.107D-01 0.169D+00 0.872D+00
 Coeff:     -0.194D-07-0.443D-06 0.127D-05 0.117D-04 0.107D-04-0.711D-04
 Coeff:     -0.771D-03-0.171D-03 0.145D-02 0.729D-02-0.209D-01-0.171D-01
 Coeff:     -0.107D-01 0.169D+00 0.872D+00
 Gap=     0.074 Goal=   None    Shift=    0.000
 Gap=     0.051 Goal=   None    Shift=    0.000
 RMSDP=8.92D-09 MaxDP=8.71D-07 DE= 7.73D-12 OVMax= 2.41D-08

 SCF Done:  E(UB3LYP) =  -1136.02400065     A.U. after   17 cycles
            NFock= 17  Conv=0.89D-08     -V/T= 2.0019
 <Sx>= 0.0000 <Sy>= 0.0000 <Sz>= 0.5000 <S**2>= 0.7570 S= 0.5035
 <L.S>= 0.000000000000E+00
 KE= 1.133877396708D+03 PE=-3.622572773927D+03 EE= 9.059632379647D+02
 Annihilation of the first spin contaminant:
 S**2 before annihilation     0.7570,   after     0.7500
 Leave Link  502 at Mon Nov 13 12:09:30 2023, MaxMem=  1879048192 cpu:             179.3 elap:              14.9
 (Enter /home/sekinelabo/g16/l601.exe)
 Copying SCF densities to generalized density rwf, IOpCl= 1 IROHF=0.

 **********************************************************************

            Population analysis using the SCF Density.

 **********************************************************************

 Orbital symmetries:
 Alpha Orbitals:
       Occupied  (A) (A) (A) (A) (A) (A) (A) (A) (A) (A) (A) (A)
                 (A) (A) (A) (A) (A) (A) (A) (A) (A) (A) (A) (A)
                 (A) (A) (A) (A) (A) (A) (A) (A) (A) (A) (A) (A)
                 (A) (A) (A)
       Virtual   (A) (A) (A) (A) (A) (A) (A) (A) (A) (A) (A) (A)
                 (A) (A) (A) (A) (A) (A) (A) (A) (A) (A) (A) (A)
                 (A) (A) (A) (A) (A) (A) (A) (A) (A) (A) (A) (A)
                 (A) (A) (A) (A) (A) (A) (A) (A) (A) (A) (A) (A)
                 (A) (A) (A) (A) (A) (A) (A) (A) (A) (A) (A) (A)
                 (A) (A) (A) (A) (A) (A) (A) (A) (A) (A) (A) (A)
                 (A) (A) (A) (A) (A) (A) (A) (A) (A) (A) (A) (A)
                 (A) (A) (A) (A) (A) (A) (A) (A) (A) (A) (A) (A)
                 (A) (A) (A) (A) (A) (A) (A) (A) (A) (A) (A) (A)
                 (A) (A) (A) (A) (A) (A) (A) (A) (A) (A) (A) (A)
                 (A) (A) (A) (A) (A) (A) (A) (A) (A) (A) (A) (A)
                 (A) (A) (A) (A) (A) (A) (A) (A) (A) (A) (A) (A)
                 (A) (A) (A) (A) (A) (A) (A) (A) (A) (A) (A) (A)
                 (A) (A) (A) (A) (A) (A) (A) (A) (A) (A) (A) (A)
                 (A) (A)
 Beta  Orbitals:
       Occupied  (A) (A) (A) (A) (A) (A) (A) (A) (A) (A) (A) (A)
                 (A) (A) (A) (A) (A) (A) (A) (A) (A) (A) (A) (A)
                 (A) (A) (A) (A) (A) (A) (A) (A) (A) (A) (A) (A)
                 (A) (A)
       Virtual   (A) (A) (A) (A) (A) (A) (A) (A) (A) (A) (A) (A)
                 (A) (A) (A) (A) (A) (A) (A) (A) (A) (A) (A) (A)
                 (A) (A) (A) (A) (A) (A) (A) (A) (A) (A) (A) (A)
                 (A) (A) (A) (A) (A) (A) (A) (A) (A) (A) (A) (A)
                 (A) (A) (A) (A) (A) (A) (A) (A) (A) (A) (A) (A)
                 (A) (A) (A) (A) (A) (A) (A) (A) (A) (A) (A) (A)
                 (A) (A) (A) (A) (A) (A) (A) (A) (A) (A) (A) (A)
                 (A) (A) (A) (A) (A) (A) (A) (A) (A) (A) (A) (A)
                 (A) (A) (A) (A) (A) (A) (A) (A) (A) (A) (A) (A)
                 (A) (A) (A) (A) (A) (A) (A) (A) (A) (A) (A) (A)
                 (A) (A) (A) (A) (A) (A) (A) (A) (A) (A) (A) (A)
                 (A) (A) (A) (A) (A) (A) (A) (A) (A) (A) (A) (A)
                 (A) (A) (A) (A) (A) (A) (A) (A) (A) (A) (A) (A)
                 (A) (A) (A) (A) (A) (A) (A) (A) (A) (A) (A) (A)
                 (A) (A) (A)
 The electronic state is 2-A.
 Alpha  occ. eigenvalues --  -38.44642 -38.44642 -38.44562 -38.44485 -38.44476
 Alpha  occ. eigenvalues --  -38.44216 -38.44035  -2.21159  -2.21113  -2.20891
 Alpha  occ. eigenvalues --   -2.20797  -2.20738  -2.20449  -2.20241  -1.15455
 Alpha  occ. eigenvalues --   -1.15190  -1.15050  -1.15022  -1.14972  -1.14926
 Alpha  occ. eigenvalues --   -1.14770  -1.14659  -1.14441  -1.14322  -1.14306
 Alpha  occ. eigenvalues --   -1.14298  -1.14220  -1.14197  -1.14187  -1.14083
 Alpha  occ. eigenvalues --   -1.13991  -1.13897  -1.13839  -1.13818  -1.13678
 Alpha  occ. eigenvalues --   -0.22790  -0.13971  -0.13740  -0.12575
 Alpha virt. eigenvalues --   -0.05153  -0.04310  -0.04230  -0.03575  -0.03481
 Alpha virt. eigenvalues --   -0.02556  -0.00726  -0.00566  -0.00037   0.00325
 Alpha virt. eigenvalues --    0.00960   0.01026   0.01145   0.01241   0.01301
 Alpha virt. eigenvalues --    0.01348   0.01361   0.01388   0.01523   0.01739
 Alpha virt. eigenvalues --    0.01765   0.01806   0.01936   0.01957   0.01985
 Alpha virt. eigenvalues --    0.02790   0.02823   0.03030   0.03041   0.03147
 Alpha virt. eigenvalues --    0.03159   0.03411   0.03475   0.03557   0.03592
 Alpha virt. eigenvalues --    0.03654   0.03673   0.03724   0.03821   0.03939
 Alpha virt. eigenvalues --    0.05041   0.05151   0.05299   0.05335   0.05440
 Alpha virt. eigenvalues --    0.05552   0.05654   0.05797   0.05904   0.06363
 Alpha virt. eigenvalues --    0.06388   0.07670   0.07676   0.08286   0.08376
 Alpha virt. eigenvalues --    0.08962   0.09144   0.09320   0.09698   0.09930
 Alpha virt. eigenvalues --    0.10138   0.11821   0.11889   0.12883   0.12995
 Alpha virt. eigenvalues --    0.13095   0.14057   0.14334   0.14426   0.14671
 Alpha virt. eigenvalues --    0.14674   0.14978   0.16118   0.16454   0.17572
 Alpha virt. eigenvalues --    0.18289   0.18506   0.19129   0.19380   0.25071
 Alpha virt. eigenvalues --    0.25604   0.25741   0.27016   0.27257   0.29499
 Alpha virt. eigenvalues --    0.30257   0.30460   0.31306   0.36724   0.36829
 Alpha virt. eigenvalues --    0.38337   0.38623   0.39028   0.39088   0.40473
 Alpha virt. eigenvalues --    0.41479   0.43894   0.43907   0.45991   0.46025
 Alpha virt. eigenvalues --    0.46583   0.46593   0.46843   0.47381   0.47493
 Alpha virt. eigenvalues --    0.48147   0.48248   0.48607   0.49041   0.49842
 Alpha virt. eigenvalues --    0.50480   0.51082   0.51307   0.55158   0.55473
 Alpha virt. eigenvalues --    0.58234   0.58567   0.59272   0.59993   0.60500
 Alpha virt. eigenvalues --    0.68550   0.70504   0.71198   0.72576   0.74338
 Alpha virt. eigenvalues --    0.75630   0.75926   0.78546   0.79656   0.81776
 Alpha virt. eigenvalues --    0.84170   0.87716   0.92219   0.93059   0.97752
 Alpha virt. eigenvalues --    2.19106   2.22496   2.26861   2.30440   2.31678
 Alpha virt. eigenvalues --    2.35809   2.37035   4.41404   4.41894   4.43333
 Alpha virt. eigenvalues --    4.44554   4.46621   4.47171   4.47204   4.48189
 Alpha virt. eigenvalues --    4.54873   4.57743   4.71851   4.72484   4.78007
 Alpha virt. eigenvalues --    4.81062   4.81626   4.82170   4.85439   4.87071
 Alpha virt. eigenvalues --    4.97551   5.01591   5.03287  96.47624  96.51284
 Alpha virt. eigenvalues --   96.53710  96.61666  96.62395  96.68079  96.70630
  Beta  occ. eigenvalues --  -38.44545 -38.44544 -38.44543 -38.44466 -38.44456
  Beta  occ. eigenvalues --  -38.44201 -38.44021  -2.21012  -2.20938  -2.20844
  Beta  occ. eigenvalues --   -2.20771  -2.20709  -2.20428  -2.20223  -1.15401
  Beta  occ. eigenvalues --   -1.15132  -1.15005  -1.14930  -1.14900  -1.14803
  Beta  occ. eigenvalues --   -1.14652  -1.14619  -1.14374  -1.14256  -1.14223
  Beta  occ. eigenvalues --   -1.14203  -1.14202  -1.14175  -1.14085  -1.14071
  Beta  occ. eigenvalues --   -1.13909  -1.13888  -1.13830  -1.13743  -1.13673
  Beta  occ. eigenvalues --   -0.21963  -0.13544  -0.13313
  Beta virt. eigenvalues --   -0.08247  -0.05220  -0.04272  -0.04197  -0.02559
  Beta virt. eigenvalues --   -0.02470  -0.01474  -0.00670  -0.00519   0.00093
  Beta virt. eigenvalues --    0.00348   0.00931   0.00999   0.01188   0.01273
  Beta virt. eigenvalues --    0.01275   0.01345   0.01464   0.01482   0.01677
  Beta virt. eigenvalues --    0.01793   0.01834   0.01915   0.01978   0.01998
  Beta virt. eigenvalues --    0.02130   0.02779   0.02813   0.03011   0.03034
  Beta virt. eigenvalues --    0.03200   0.03210   0.03393   0.03458   0.03571
  Beta virt. eigenvalues --    0.03708   0.03803   0.03818   0.03930   0.03933
  Beta virt. eigenvalues --    0.04129   0.05154   0.05249   0.05373   0.05406
  Beta virt. eigenvalues --    0.05634   0.05798   0.05917   0.06083   0.06171
  Beta virt. eigenvalues --    0.06334   0.06359   0.07775   0.07788   0.08279
  Beta virt. eigenvalues --    0.08368   0.08941   0.09283   0.09483   0.10181
  Beta virt. eigenvalues --    0.10270   0.10469   0.12166   0.12195   0.12944
  Beta virt. eigenvalues --    0.13035   0.13132   0.14418   0.14426   0.14494
  Beta virt. eigenvalues --    0.15089   0.15181   0.15489   0.16363   0.16691
  Beta virt. eigenvalues --    0.17677   0.18480   0.18691   0.19042   0.19815
  Beta virt. eigenvalues --    0.25582   0.26196   0.26369   0.27729   0.27955
  Beta virt. eigenvalues --    0.29493   0.30250   0.30447   0.31293   0.36934
  Beta virt. eigenvalues --    0.37014   0.38748   0.39173   0.39522   0.39613
  Beta virt. eigenvalues --    0.40918   0.41507   0.44204   0.44242   0.46181
  Beta virt. eigenvalues --    0.46294   0.46874   0.46897   0.47187   0.47414
  Beta virt. eigenvalues --    0.47765   0.48244   0.48420   0.48673   0.49099
  Beta virt. eigenvalues --    0.50230   0.50914   0.50963   0.51200   0.55610
  Beta virt. eigenvalues --    0.55928   0.58323   0.58893   0.59810   0.60700
  Beta virt. eigenvalues --    0.60965   0.68703   0.70595   0.71836   0.72936
  Beta virt. eigenvalues --    0.74301   0.75965   0.76083   0.78542   0.79744
  Beta virt. eigenvalues --    0.81789   0.84456   0.88003   0.92481   0.93331
  Beta virt. eigenvalues --    0.97775   2.19133   2.22517   2.26872   2.30540
  Beta virt. eigenvalues --    2.31692   2.36134   2.37473   4.41546   4.42041
  Beta virt. eigenvalues --    4.43420   4.44628   4.46640   4.47226   4.47322
  Beta virt. eigenvalues --    4.48204   4.54997   4.57881   4.71901   4.72534
  Beta virt. eigenvalues --    4.78140   4.81077   4.81765   4.82187   4.85578
  Beta virt. eigenvalues --    4.87087   4.97593   5.01674   5.03361  96.47640
  Beta virt. eigenvalues --   96.51299  96.53728  96.61703  96.62409  96.68185
  Beta virt. eigenvalues --   96.70769
          Condensed to atoms (all electrons):
               1          2          3          4          5          6
     1  Na  14.819991  -1.811721   1.125431  -3.450311  -0.029213  -0.028576
     2  Na  -1.811721  14.923216  -0.095903   0.415785  -0.114319  -0.112624
     3  Na   1.125431  -0.095903  14.251379  -2.461448  -0.140514  -0.141088
     4  Na  -3.450311   0.415785  -2.461448  16.999659  -0.020666  -0.022404
     5  Na  -0.029213  -0.114319  -0.140514  -0.020666  12.416479  -0.772633
     6  Na  -0.028576  -0.112624  -0.141088  -0.022404  -0.772633  12.416441
     7  Na   0.181631  -2.520200  -1.750250  -0.704012   0.303174   0.302847
               7
     1  Na   0.181631
     2  Na  -2.520200
     3  Na  -1.750250
     4  Na  -0.704012
     5  Na   0.303174
     6  Na   0.302847
     7  Na  14.866866
          Atomic-Atomic Spin Densities.
               1          2          3          4          5          6
     1  Na  -0.154553   0.121933  -0.115631   0.186223   0.013084   0.012932
     2  Na   0.121933  -0.274625  -0.006593  -0.050840   0.045290   0.044995
     3  Na  -0.115631  -0.006593  -0.137847   0.209559   0.026870   0.026836
     4  Na   0.186223  -0.050840   0.209559  -0.350216   0.015369   0.015519
     5  Na   0.013084   0.045290   0.026870   0.015369   1.222785  -0.954406
     6  Na   0.012932   0.044995   0.026836   0.015519  -0.954406   1.223352
     7  Na  -0.051153   0.200925   0.039218   0.010864   0.015075   0.015001
               7
     1  Na  -0.051153
     2  Na   0.200925
     3  Na   0.039218
     4  Na   0.010864
     5  Na   0.015075
     6  Na   0.015001
     7  Na  -0.171040
 Mulliken charges and spin densities:
               1          2
     1  Na   0.192769   0.012835
     2  Na   0.315765   0.081085
     3  Na   0.212393   0.042412
     4  Na   0.243397   0.036478
     5  Na  -0.642307   0.384068
     6  Na  -0.641961   0.384230
     7  Na   0.319943   0.058892
 Sum of Mulliken charges =  -0.00000   1.00000
 Mulliken charges and spin densities with hydrogens summed into heavy atoms:
               1          2
     1  Na   0.192769   0.012835
     2  Na   0.315765   0.081085
     3  Na   0.212393   0.042412
     4  Na   0.243397   0.036478
     5  Na  -0.642307   0.384068
     6  Na  -0.641961   0.384230
     7  Na   0.319943   0.058892
 Electronic spatial extent (au):  <R**2>=           1352.3252
 Charge=             -0.0000 electrons
 Dipole moment (field-independent basis, Debye):
    X=              0.2642    Y=              0.0365    Z=              0.0003  Tot=              0.2667
 Quadrupole moment (field-independent basis, Debye-Ang):
   XX=            -63.9474   YY=            -66.3440   ZZ=            -69.6423
   XY=             -0.1324   XZ=             -0.0001   YZ=              0.0003
 Traceless Quadrupole moment (field-independent basis, Debye-Ang):
   XX=              2.6972   YY=              0.3005   ZZ=             -2.9977
   XY=             -0.1324   XZ=             -0.0001   YZ=              0.0003
 Octapole moment (field-independent basis, Debye-Ang**2):
  XXX=              3.8872  YYY=              1.6328  ZZZ=              0.0049  XYY=              1.9895
  XXY=             -0.5361  XXZ=              0.0040  XZZ=              0.8956  YZZ=             -0.7128
  YYZ=             -0.0033  XYZ=              0.0083
 Hexadecapole moment (field-independent basis, Debye-Ang**3):
 XXXX=           -924.4543 YYYY=           -927.5618 ZZZZ=           -533.1191 XXXY=             -6.6676
 XXXZ=             -0.0242 YYYX=              3.1181 YYYZ=             -0.0034 ZZZX=             -0.0000
 ZZZY=              0.0004 XXYY=           -307.4958 XXZZ=           -283.0508 YYZZ=           -278.8391
 XXYZ=              0.0110 YYXZ=              0.0203 ZZXY=             -0.2804
 N-N= 4.467081386029D+02 E-N=-3.622572773993D+03  KE= 1.133877396708D+03
                          Isotropic Fermi Contact Couplings
        Atom                 a.u.       MegaHertz       Gauss      10(-4) cm-1
     1  Na(23)            -0.01913     -22.63697      -8.07743      -7.55088
     2  Na(23)            -0.01885     -22.30438      -7.95876      -7.43994
     3  Na(23)            -0.01954     -23.12046      -8.24995      -7.71215
     4  Na(23)            -0.01936     -22.89993      -8.17127      -7.63860
     5  Na(23)             0.39647     469.03945     167.36494     156.45472
     6  Na(23)             0.39649     469.06338     167.37348     156.46270
     7  Na(23)            -0.01726     -20.41327      -7.28396      -6.80913
 --------------------------------------------------------
       Center         ----  Spin Dipole Couplings  ----
                      3XX-RR        3YY-RR        3ZZ-RR
 --------------------------------------------------------
     1   Atom       -0.030457     -0.033580      0.064037
     2   Atom       -0.040915     -0.039057      0.079972
     3   Atom       -0.033849     -0.034576      0.068425
     4   Atom       -0.038358     -0.041679      0.080038
     5   Atom        0.007984      0.008099     -0.016083
     6   Atom        0.007992      0.008095     -0.016087
     7   Atom       -0.042154     -0.040018      0.082172
 --------------------------------------------------------
                        XY            XZ            YZ
 --------------------------------------------------------
     1   Atom       -0.002542      0.000026      0.000002
     2   Atom       -0.002239     -0.000014      0.000044
     3   Atom        0.003308     -0.000025     -0.000031
     4   Atom        0.000769      0.000034     -0.000010
     5   Atom       -0.000011      0.002187      0.000184
     6   Atom        0.000009     -0.002187     -0.000184
     7   Atom        0.000490     -0.000019     -0.000003
 --------------------------------------------------------


 ---------------------------------------------------------------------------------
              Anisotropic Spin Dipole Couplings in Principal Axis System
 ---------------------------------------------------------------------------------

       Atom             a.u.   MegaHertz   Gauss  10(-4) cm-1        Axes

              Baa    -0.0350    -4.943    -1.764    -1.649  0.4882  0.8727 -0.0001
     1 Na(23) Bbb    -0.0290    -4.100    -1.463    -1.368  0.8727 -0.4882 -0.0002
              Bcc     0.0640     9.043     3.227     3.016  0.0003  0.0000  1.0000
 
              Baa    -0.0424    -5.989    -2.137    -1.998  0.8317  0.5553 -0.0001
     2 Na(23) Bbb    -0.0376    -5.304    -1.893    -1.769 -0.5553  0.8317 -0.0004
              Bcc     0.0800    11.293     4.030     3.767 -0.0001  0.0004  1.0000
 
              Baa    -0.0375    -5.301    -1.892    -1.768 -0.6674  0.7447  0.0001
     3 Na(23) Bbb    -0.0309    -4.361    -1.556    -1.455  0.7447  0.6674  0.0004
              Bcc     0.0684     9.663     3.448     3.223 -0.0003 -0.0003  1.0000
 
              Baa    -0.0418    -5.910    -2.109    -1.971 -0.2153  0.9766  0.0001
     4 Na(23) Bbb    -0.0382    -5.393    -1.924    -1.799  0.9766  0.2153 -0.0003
              Bcc     0.0800    11.302     4.033     3.770  0.0003 -0.0001  1.0000
 
              Baa    -0.0163    -2.299    -0.820    -0.767 -0.0898 -0.0076  0.9959
     5 Na(23) Bbb     0.0081     1.144     0.408     0.382 -0.0657  0.9978  0.0017
              Bcc     0.0082     1.155     0.412     0.385  0.9938  0.0652  0.0901
 
              Baa    -0.0163    -2.300    -0.821    -0.767  0.0897  0.0075  0.9959
     6 Na(23) Bbb     0.0081     1.142     0.408     0.381 -0.2502  0.9681  0.0153
              Bcc     0.0082     1.157     0.413     0.386  0.9640  0.2505 -0.0887
 
              Baa    -0.0423    -5.968    -2.129    -1.991  0.9769 -0.2135  0.0001
     7 Na(23) Bbb    -0.0399    -5.636    -2.011    -1.880  0.2135  0.9769  0.0001
              Bcc     0.0822    11.604     4.141     3.871 -0.0002 -0.0000  1.0000
 

 ---------------------------------------------------------------------------------

 No NMR shielding tensors so no spin-rotation constants.
 Leave Link  601 at Mon Nov 13 12:09:30 2023, MaxMem=  1879048192 cpu:               2.6 elap:               0.2
 (Enter /home/sekinelabo/g16/l701.exe)
 ... and contract with generalized density number  0.
 Compute integral first derivatives.
 Leave Link  701 at Mon Nov 13 12:09:30 2023, MaxMem=  1879048192 cpu:               1.7 elap:               0.1
 (Enter /home/sekinelabo/g16/l702.exe)
 L702 exits ... SP integral derivatives will be done elsewhere.
 Leave Link  702 at Mon Nov 13 12:09:30 2023, MaxMem=  1879048192 cpu:               0.5 elap:               0.0
 (Enter /home/sekinelabo/g16/l703.exe)
 Integral derivatives from FoFJK, PRISM(SPDF).
 Compute integral first derivatives, UseDBF=F ICtDFT=           0.
 Calling FoFJK, ICntrl=      2127 FMM=F ISym2X=0 I1Cent= 0 IOpClX= 1 NMat=1 NMatS=1 NMatT=0.
 FoFJK:  IHMeth= 1 ICntrl=    2127 DoSepK=F KAlg= 0 I1Cent=           0 FoldK=F
 IRaf=         0 NMat=       1 IRICut=       1 DoRegI=T DoRafI=F ISym2E= 0 IDoP0=0 IntGTp=1.
 FoFCou: FMM=F IPFlag=           0 FMFlag=      100000 FMFlg1=         800
         NFxFlg=           0 DoJE=F BraDBF=F KetDBF=F FulRan=T
         wScrn=  0.000000 ICntrl=      2127 IOpCl=  1 I1Cent=           0 NGrid=           0
         NMat0=    1 NMatS0=      1 NMatT0=    0 NMatD0=    1 NMtDS0=    0 NMtDT0=    0
 Symmetry not used in FoFCou.
 Leave Link  703 at Mon Nov 13 12:09:33 2023, MaxMem=  1879048192 cpu:              38.7 elap:               2.4
 (Enter /home/sekinelabo/g16/l716.exe)
 Dipole        = 1.03937174D-01 1.43677362D-02 1.10856420D-04
 ***** Axes restored to original set *****
 -------------------------------------------------------------------
 Center     Atomic                   Forces (Hartrees/Bohr)
 Number     Number              X              Y              Z
 -------------------------------------------------------------------
      1       11           0.031137508    0.015449666    0.000001735
      2       11          -0.018334270   -0.038271634    0.000005637
      3       11           0.028041622   -0.023648862   -0.000008439
      4       11          -0.044287080    0.005843575   -0.000007126
      5       11           0.003859749   -0.002155632    0.038563243
      6       11           0.003860082   -0.002159336   -0.038555879
      7       11          -0.004277612    0.044942223    0.000000828
 -------------------------------------------------------------------
 Cartesian Forces:  Max     0.044942223 RMS     0.023300401
 Z-matrix is all fixed cartesians, so copy forces.
 Force constants in Cartesian coordinates: 
                1             2             3             4             5 
      1  0.214846D+00
      2  0.305535D-01  0.176059D+00
      3  0.446907D-05  0.103560D-04  0.148695D+00
      4  0.178496D-02 -0.181944D-01  0.114639D-04  0.215734D+00
      5 -0.154783D-01  0.251809D-02  0.447537D-05  0.279046D-01  0.252516D+00
      6  0.163022D-05 -0.690085D-05  0.248998D-01 -0.882466D-05 -0.258322D-05
      7 -0.401208D-01 -0.375787D-01 -0.179022D-04 -0.910379D-01  0.249022D-01
      8  0.243969D-01 -0.721797D-01 -0.130622D-04 -0.399903D-01 -0.481088D-01
      9  0.752363D-05 -0.113764D-04 -0.401519D-01  0.240383D-04 -0.144187D-04
     10 -0.125816D-01 -0.691176D-02 -0.102351D-04 -0.591390D-01 -0.137879D-01
     11 -0.471871D-02  0.211476D-01 -0.191993D-05  0.541761D-01 -0.815801D-01
     12 -0.581457D-05 -0.198554D-05  0.278098D-01 -0.212474D-04  0.918320D-05
     13 -0.489230D-01 -0.744298D-02  0.550092D-01 -0.450057D-01 -0.948725D-02
     14 -0.849887D-02 -0.394209D-01  0.233148D-01 -0.929170D-02 -0.554175D-01
     15 -0.143983D-01 -0.878077D-02 -0.582769D-01  0.843722D-02  0.132521D-01
     16 -0.488799D-01 -0.743323D-02 -0.549968D-01 -0.449299D-01 -0.946802D-02
     17 -0.849112D-02 -0.393866D-01 -0.233060D-01 -0.927372D-02 -0.553121D-01
     18  0.143987D-01  0.878846D-02 -0.582587D-01 -0.843905D-02 -0.132616D-01
     19 -0.661253D-01  0.470076D-01  0.000000D+00  0.225932D-01 -0.458531D-02
     20 -0.177635D-01 -0.487373D-01 -0.862148D-05 -0.533049D-02 -0.146158D-01
     21 -0.820898D-05  0.221309D-05 -0.447166D-01 -0.359979D-05  0.128292D-04
                6             7             8             9            10 
      6  0.178261D+00
      7  0.156804D-04  0.213212D+00
      8  0.244892D-04 -0.320577D-01  0.204471D+00
      9 -0.558073D-01 -0.901258D-05  0.000000D+00  0.154278D+00
     10  0.122798D-04 -0.812375D-02  0.131126D-01 -0.547502D-05  0.270859D+00
     11  0.199075D-04  0.141424D-01  0.139078D-01  0.112885D-04 -0.123797D-01
     12 -0.612447D-01  0.150280D-04  0.000000D+00  0.311181D-01  0.000000D+00
     13 -0.245374D-01 -0.437524D-01  0.969481D-02  0.416143D-01 -0.615496D-01
     14 -0.575849D-01  0.861007D-02 -0.452801D-01 -0.402487D-01  0.379998D-02
     15 -0.581111D-01 -0.113954D-01  0.121048D-01 -0.555253D-01  0.165647D-01
     16  0.245233D-01 -0.438096D-01  0.971218D-02 -0.416300D-01 -0.616119D-01
     17  0.575490D-01  0.862639D-02 -0.453379D-01  0.402644D-01  0.380683D-02
     18 -0.580662D-01  0.113877D-01 -0.121063D-01 -0.555348D-01 -0.165614D-01
     19 -0.669195D-05  0.136327D-01  0.151315D-01 -0.135494D-05 -0.678532D-01
     20  0.103098D-05  0.133554D-01 -0.747275D-02 -0.200979D-05  0.123599D-01
     21  0.300684D-01  0.399798D-05 -0.108786D-04  0.216232D-01  0.000000D+00
               11            12            13            14            15 
     11  0.194231D+00
     12 -0.853971D-05  0.183563D+00
     13  0.271886D-02 -0.653976D-01  0.252258D+00
     14 -0.387644D-01  0.642390D-02 -0.160210D-03  0.249654D+00
     15 -0.318671D-02 -0.617759D-01 -0.220848D-03 -0.130808D-02  0.371591D+00
     16  0.272256D-02  0.654140D-01 -0.319073D-02 -0.855592D-04 -0.264585D-02
     17 -0.387983D-01 -0.642426D-02 -0.859862D-04 -0.261182D-02 -0.118055D-02
     18  0.318129D-02 -0.617870D-01  0.264607D-02  0.118063D-02 -0.714956D-01
     19 -0.566615D-01 -0.519209D-05 -0.498367D-01  0.562629D-02  0.365851D-02
     20 -0.701441D-01  0.152998D-05  0.476276D-02 -0.681592D-01 -0.109008D-01
     21 -0.153227D-04 -0.576829D-01 -0.911384D-02  0.682223D-01 -0.664061D-01
               16            17            18            19            20 
     16  0.252244D+00
     17 -0.212201D-03  0.249583D+00
     18  0.218325D-03  0.131483D-02  0.371536D+00
     19 -0.498216D-01  0.562980D-02 -0.365028D-02  0.197411D+00
     20  0.476427D-02 -0.681362D-01  0.109027D-01 -0.121484D-01  0.277265D+00
     21  0.911710D-02 -0.682174D-01 -0.663941D-01  0.519630D-05  0.620343D-05
               21 
     21  0.183508D+00
 Leave Link  716 at Mon Nov 13 12:09:33 2023, MaxMem=  1879048192 cpu:               0.4 elap:               0.0
 (Enter /home/sekinelabo/g16/l103.exe)

 GradGradGradGradGradGradGradGradGradGradGradGradGradGradGradGradGradGrad
 Berny optimization.
 Search for a local minimum.
 Step number   1 out of a maximum of    2
 All quantities printed in internal units (Hartrees-Bohrs-Radians)
 Second derivative matrix not updated -- first step.
 ITU=  0
     Eigenvalues ---    0.21088   0.22516   0.23952   0.24184   0.26468
     Eigenvalues ---    0.27897   0.29312   0.33569   0.33970   0.35238
     Eigenvalues ---    0.36671   0.37511   0.38805   0.42137   0.45425
 Quadratic step=4.701D-01 exceeds max=3.000D-01 adjusted using Lamda=-1.237D-01.
 Angle between NR and scaled steps=   2.76 degrees.
 Angle between quadratic step and forces=   8.61 degrees.
 Linear search not attempted -- first point.
 B after Tr=     0.000000    0.000000    0.000000
         Rot=    1.000000    0.000000    0.000000   -0.000000 Ang=   0.00 deg.
 Variable       Old X    -DE/DX   Delta X   Delta X   Delta X     New X
                                 (Linear)    (Quad)   (Total)
    X1        8.23260   0.03114   0.00000   0.10538   0.10538   8.33799
    Y1        5.71278   0.01545   0.00000   0.05331   0.05331   5.76609
    Z1        3.01676   0.00000   0.00000   0.00001   0.00001   3.01677
    X2        2.39398  -0.01833   0.00000  -0.05423  -0.05423   2.33975
    Y2        0.00000  -0.03827   0.00000  -0.11218  -0.11218  -0.11218
    Z2        3.01742   0.00001   0.00000   0.00003   0.00003   3.01744
    X3        7.26021   0.02804   0.00000   0.08627   0.08627   7.34648
    Y3        0.61743  -0.02365   0.00000  -0.08155  -0.08155   0.53589
    Z3        3.01475  -0.00001   0.00000  -0.00002  -0.00002   3.01473
    X4        0.00000  -0.04429   0.00000  -0.12776  -0.12776  -0.12776
    Y4        4.27866   0.00584   0.00000   0.01752   0.01752   4.29618
    Z4        3.01514  -0.00001   0.00000  -0.00002  -0.00002   3.01512
    X5        4.20480   0.00386   0.00000   0.00366   0.00366   4.20846
    Y5        3.85348  -0.00216   0.00000  -0.00092  -0.00092   3.85257
    Z5        6.03177   0.03856   0.00000   0.08481   0.08481   6.11658
    X6        4.20485   0.00386   0.00000   0.00366   0.00366   4.20851
    Y6        3.85363  -0.00216   0.00000  -0.00092  -0.00092   3.85271
    Z6        0.00000  -0.03856   0.00000  -0.08481  -0.08481  -0.08481
    X7        3.48146  -0.00428   0.00000  -0.01698  -0.01698   3.46448
    Y7        7.77302   0.04494   0.00000   0.12474   0.12474   7.89776
    Z7        3.01621   0.00000   0.00000   0.00000   0.00000   3.01622
         Item               Value     Threshold  Converged?
 Maximum Force            0.044942     0.000450     NO 
 RMS     Force            0.023300     0.000300     NO 
 Maximum Displacement     0.127763     0.001800     NO 
 RMS     Displacement     0.065632     0.001200     NO 
 Predicted change in Energy=-2.146934D-02
 GradGradGradGradGradGradGradGradGradGradGradGradGradGradGradGradGradGrad

 Leave Link  103 at Mon Nov 13 12:09:33 2023, MaxMem=  1879048192 cpu:               0.2 elap:               0.0
 (Enter /home/sekinelabo/g16/l9999.exe)
 1\1\GINC-SEKINELABO-XA7R-R37\Force\UB3LYP\6-311+G(d)\Na7(2)\SEKINELABO
 \13-Nov-2023\0\\#P B3LYP/6-311+g(d) force\\Gaussian input prepared by 
 ASE\\0,2\Na,4.3565066266,3.0230715572,1.5964012102\Na,1.2668389683,0.,
 1.5967475877\Na,3.8419355931,0.3267319853,1.5953395464\Na,0.,2.2641699
 122,1.5955423869\Na,2.2250830413,2.039175489,3.1918732626\Na,2.2251123
 138,2.039255187,0.\Na,1.8423091945,4.1133046167,1.5961099026\\Version=
 ES64L-G16RevB.01\State=2-A\HF=-1136.0240007\S2=0.757017\S2-1=0.\S2A=0.
 750035\RMSD=8.922e-09\RMSF=2.330e-02\Dipole=0.1039372,-0.0143677,-0.00
 01109\Quadrupole=2.0052849,0.2234306,-2.2287155,0.0984713,0.0000843,0.
 0002127\PG=C01 [X(Na7)]\\@


 ACCORDING TO HEN3RY, LIFE IS MUCH LIKE A SEWER........
 YOU GET OUT OF IT JUST WHAT YOU PUT INTO IT...........
                         TOM LEHRER - (THE 3 IS SILENT)
 Job cpu time:       0 days  0 hours  3 minutes 56.2 seconds.
 Elapsed time:       0 days  0 hours  0 minutes 18.5 seconds.
 File lengths (MBytes):  RWF=     32 Int=      0 D2E=      0 Chk=      5 Scr=      1
 Normal termination of Gaussian 16 at Mon Nov 13 12:09:33 2023.
