 Entering Gaussian System, Link 0=g16
 Initial command:
 /home/sekinelabo/g16/l1.exe "/home/sekinelabo/g16temp/Gau-3973207.inp" -scrdir="/home/sekinelabo/g16temp/"
 Entering Link 1 = /home/sekinelabo/g16/l1.exe PID=   3973209.
  
 Copyright (c) 1988-2017, Gaussian, Inc.  All Rights Reserved.
  
 This is part of the Gaussian(R) 16 program.  It is based on
 the Gaussian(R) 09 system (copyright 2009, Gaussian, Inc.),
 the Gaussian(R) 03 system (copyright 2003, Gaussian, Inc.),
 the Gaussian(R) 98 system (copyright 1998, Gaussian, Inc.),
 the Gaussian(R) 94 system (copyright 1995, Gaussian, Inc.),
 the Gaussian 92(TM) system (copyright 1992, Gaussian, Inc.),
 the Gaussian 90(TM) system (copyright 1990, Gaussian, Inc.),
 the Gaussian 88(TM) system (copyright 1988, Gaussian, Inc.),
 the Gaussian 86(TM) system (copyright 1986, Carnegie Mellon
 University), and the Gaussian 82(TM) system (copyright 1983,
 Carnegie Mellon University). Gaussian is a federally registered
 trademark of Gaussian, Inc.
  
 This software contains proprietary and confidential information,
 including trade secrets, belonging to Gaussian, Inc.
  
 This software is provided under written license and may be
 used, copied, transmitted, or stored only in accord with that
 written license.
  
 The following legend is applicable only to US Government
 contracts under FAR:
  
                    RESTRICTED RIGHTS LEGEND
  
 Use, reproduction and disclosure by the US Government is
 subject to restrictions as set forth in subparagraphs (a)
 and (c) of the Commercial Computer Software - Restricted
 Rights clause in FAR 52.227-19.
  
 Gaussian, Inc.
 340 Quinnipiac St., Bldg. 40, Wallingford CT 06492
  
  
 ---------------------------------------------------------------
 Warning -- This program may not be used in any manner that
 competes with the business of Gaussian, Inc. or will provide
 assistance to any competitor of Gaussian, Inc.  The licensee
 of this program is prohibited from giving any competitor of
 Gaussian, Inc. access to this program.  By using this program,
 the user acknowledges that Gaussian, Inc. is engaged in the
 business of creating and licensing software in the field of
 computational chemistry and represents and warrants to the
 licensee that it is not a competitor of Gaussian, Inc. and that
 it will not use this program in any manner prohibited above.
 ---------------------------------------------------------------
  

 Cite this work as:
 Gaussian 16, Revision B.01,
 M. J. Frisch, G. W. Trucks, H. B. Schlegel, G. E. Scuseria, 
 M. A. Robb, J. R. Cheeseman, G. Scalmani, V. Barone, 
 G. A. Petersson, H. Nakatsuji, X. Li, M. Caricato, A. V. Marenich, 
 J. Bloino, B. G. Janesko, R. Gomperts, B. Mennucci, H. P. Hratchian, 
 J. V. Ortiz, A. F. Izmaylov, J. L. Sonnenberg, D. Williams-Young, 
 F. Ding, F. Lipparini, F. Egidi, J. Goings, B. Peng, A. Petrone, 
 T. Henderson, D. Ranasinghe, V. G. Zakrzewski, J. Gao, N. Rega, 
 G. Zheng, W. Liang, M. Hada, M. Ehara, K. Toyota, R. Fukuda, 
 J. Hasegawa, M. Ishida, T. Nakajima, Y. Honda, O. Kitao, H. Nakai, 
 T. Vreven, K. Throssell, J. A. Montgomery, Jr., J. E. Peralta, 
 F. Ogliaro, M. J. Bearpark, J. J. Heyd, E. N. Brothers, K. N. Kudin, 
 V. N. Staroverov, T. A. Keith, R. Kobayashi, J. Normand, 
 K. Raghavachari, A. P. Rendell, J. C. Burant, S. S. Iyengar, 
 J. Tomasi, M. Cossi, J. M. Millam, M. Klene, C. Adamo, R. Cammi, 
 J. W. Ochterski, R. L. Martin, K. Morokuma, O. Farkas, 
 J. B. Foresman, and D. J. Fox, Gaussian, Inc., Wallingford CT, 2016.
 
 ******************************************
 Gaussian 16:  ES64L-G16RevB.01 20-Dec-2017
                13-Nov-2023 
 ******************************************
 %mem=14GB
 %chk=checkpoint.chk
 %nprocshared=16
 Will use up to   16 processors via shared memory.
 -------------------------
 #P B3LYP/6-311+g(d) force
 -------------------------
 1/10=7,30=1,38=1/1,3;
 2/12=2,17=6,18=5,40=1/2;
 3/5=4,6=6,7=11,11=2,25=1,30=1,71=1,74=-5/1,2,3;
 4//1;
 5/5=2,38=5/2;
 6/7=2,8=2,9=2,10=2,28=1/1;
 7/29=1/1,2,3,16;
 1/10=7,30=1/3;
 99//99;
 Leave Link    1 at Mon Nov 13 12:06:49 2023, MaxMem=  1879048192 cpu:               0.3 elap:               0.0
 (Enter /home/sekinelabo/g16/l101.exe)
 ------------------------------
 Gaussian input prepared by ASE
 ------------------------------
 Symbolic Z-matrix:
 Charge =  0 Multiplicity = 2
 Na                    5.36641   3.64742   0. 
 Na                    2.77421   0.        0.92093 
 Na                    7.74306   3.06859   1.73895 
 Na                    5.40454   1.19543   1.72114 
 Na                    3.83828   5.77677   1.45126 
 Na                    2.94523   2.91472   1.61549 
 Na                    0.        3.48361   1.44194 
 
 ITRead=  0  0  0  0  0  0  0
 MicOpt= -1 -1 -1 -1 -1 -1 -1
 NAtoms=      7 NQM=        7 NQMF=       0 NMMI=      0 NMMIF=      0
                NMic=       0 NMicF=      0.
                    Isotopes and Nuclear Properties:
 (Nuclear quadrupole moments (NQMom) in fm**2, nuclear magnetic moments (NMagM)
  in nuclear magnetons)

  Atom         1           2           3           4           5           6           7
 IAtWgt=          23          23          23          23          23          23          23
 AtmWgt=  22.9897697  22.9897697  22.9897697  22.9897697  22.9897697  22.9897697  22.9897697
 NucSpn=           3           3           3           3           3           3           3
 AtZEff=  -0.0000000  -0.0000000  -0.0000000  -0.0000000  -0.0000000  -0.0000000  -0.0000000
 NQMom=   10.4000000  10.4000000  10.4000000  10.4000000  10.4000000  10.4000000  10.4000000
 NMagM=    2.2175200   2.2175200   2.2175200   2.2175200   2.2175200   2.2175200   2.2175200
 AtZNuc=  11.0000000  11.0000000  11.0000000  11.0000000  11.0000000  11.0000000  11.0000000
 Leave Link  101 at Mon Nov 13 12:06:50 2023, MaxMem=  1879048192 cpu:               2.7 elap:               0.2
 (Enter /home/sekinelabo/g16/l103.exe)

 GradGradGradGradGradGradGradGradGradGradGradGradGradGradGradGradGradGrad
 Berny optimization.
 Initialization pass.
 Trust Radius=3.00D-01 FncErr=1.00D-07 GrdErr=1.00D-07 EigMax=2.50D+02 EigMin=1.00D-04
 Number of steps in this run=      2 maximum allowed number of steps=      2.
 GradGradGradGradGradGradGradGradGradGradGradGradGradGradGradGradGradGrad

 Leave Link  103 at Mon Nov 13 12:06:50 2023, MaxMem=  1879048192 cpu:               0.2 elap:               0.0
 (Enter /home/sekinelabo/g16/l202.exe)
                          Input orientation:                          
 ---------------------------------------------------------------------
 Center     Atomic      Atomic             Coordinates (Angstroms)
 Number     Number       Type             X           Y           Z
 ---------------------------------------------------------------------
      1         11           0        5.366409    3.647420    0.000000
      2         11           0        2.774206    0.000000    0.920932
      3         11           0        7.743062    3.068594    1.738947
      4         11           0        5.404543    1.195433    1.721142
      5         11           0        3.838278    5.776767    1.451260
      6         11           0        2.945233    2.914717    1.615489
      7         11           0        0.000000    3.483608    1.441943
 ---------------------------------------------------------------------
                    Distance matrix (angstroms):
                    1          2          3          4          5
     1  Na   0.000000
     2  Na   4.568512   0.000000
     3  Na   3.001243   5.897029   0.000000
     4  Na   2.996001   2.998011   2.996285   0.000000
     5  Na   2.995907   5.897842   4.760704   4.849190   0.000000
     6  Na   3.001458   3.001206   4.801883   3.002550   3.002637
     7  Na   5.559171   4.483659   7.759862   5.875609   4.471135
                    6          7
     6  Na   0.000000
     7  Na   3.004688   0.000000
 Stoichiometry    Na7(2)
 Framework group  C1[X(Na7)]
 Deg. of freedom    15
 Full point group                 C1      NOp   1
 Largest Abelian subgroup         C1      NOp   1
 Largest concise Abelian subgroup C1      NOp   1
                         Standard orientation:                         
 ---------------------------------------------------------------------
 Center     Atomic      Atomic             Coordinates (Angstroms)
 Number     Number       Type             X           Y           Z
 ---------------------------------------------------------------------
      1         11           0        1.356162   -0.777914    1.269959
      2         11           0       -1.236041    2.869505    0.349027
      3         11           0        3.732815   -0.199088   -0.468988
      4         11           0        1.394295    1.674072   -0.451183
      5         11           0       -0.171969   -2.907262   -0.181301
      6         11           0       -1.065014   -0.045212   -0.345530
      7         11           0       -4.010247   -0.614102   -0.171984
 ---------------------------------------------------------------------
 Rotational constants (GHZ):           0.9619346           0.5661167           0.3856387
 Leave Link  202 at Mon Nov 13 12:06:50 2023, MaxMem=  1879048192 cpu:               0.0 elap:               0.0
 (Enter /home/sekinelabo/g16/l301.exe)
 Standard basis: 6-311+G(d) (5D, 7F)
 Ernie: Thresh=  0.10000D-02 Tol=  0.10000D-05 Strict=F.
 There are   217 symmetry adapted cartesian basis functions of A   symmetry.
 There are   210 symmetry adapted basis functions of A   symmetry.
   210 basis functions,   350 primitive gaussians,   217 cartesian basis functions
    39 alpha electrons       38 beta electrons
       nuclear repulsion energy       348.4228360421 Hartrees.
 IExCor=  402 DFT=T Ex+Corr=B3LYP ExCW=0 ScaHFX=  0.200000
 ScaDFX=  0.800000  0.720000  1.000000  0.810000 ScalE2=  1.000000  1.000000
 IRadAn=      5 IRanWt=     -1 IRanGd=            0 ICorTp=0 IEmpDi=  4
 NAtoms=    7 NActive=    7 NUniq=    7 SFac= 1.00D+00 NAtFMM=   60 NAOKFM=F Big=F
 Integral buffers will be    131072 words long.
 Raffenetti 2 integral format.
 Two-electron integral symmetry is turned on.
 Leave Link  301 at Mon Nov 13 12:06:50 2023, MaxMem=  1879048192 cpu:               0.6 elap:               0.0
 (Enter /home/sekinelabo/g16/l302.exe)
 NPDir=0 NMtPBC=     1 NCelOv=     1 NCel=       1 NClECP=     1 NCelD=      1
         NCelK=      1 NCelE2=     1 NClLst=     1 CellRange=     0.0.
 One-electron integrals computed using PRISM.
 One-electron integral symmetry used in STVInt
 NBasis=   210 RedAO= T EigKep=  1.97D-06  NBF=   210
 NBsUse=   210 1.00D-06 EigRej= -1.00D+00 NBFU=   210
 Precomputing XC quadrature grid using
 IXCGrd= 4 IRadAn=           5 IRanWt=          -1 IRanGd=           0 AccXCQ= 0.00D+00.
 Generated NRdTot=       0 NPtTot=           0 NUsed=           0 NTot=          32
 NSgBfM=   210   210   210   210   210 MxSgAt=     7 MxSgA2=     7.
 Leave Link  302 at Mon Nov 13 12:06:50 2023, MaxMem=  1879048192 cpu:               2.5 elap:               0.2
 (Enter /home/sekinelabo/g16/l303.exe)
 DipDrv:  MaxL=1.
 Leave Link  303 at Mon Nov 13 12:06:50 2023, MaxMem=  1879048192 cpu:               0.9 elap:               0.1
 (Enter /home/sekinelabo/g16/l401.exe)
 ExpMin= 7.60D-03 ExpMax= 3.62D+04 ExpMxC= 1.21D+03 IAcc=3 IRadAn=         5 AccDes= 0.00D+00
 Harris functional with IExCor=  402 and IRadAn=       5 diagonalized for initial guess.
 HarFok:  IExCor=  402 AccDes= 0.00D+00 IRadAn=         5 IDoV= 1 UseB2=F ITyADJ=14
 ICtDFT=  3500011 ScaDFX=  1.000000  1.000000  1.000000  1.000000
 FoFCou: FMM=F IPFlag=           0 FMFlag=      100000 FMFlg1=           0
         NFxFlg=           0 DoJE=T BraDBF=F KetDBF=T FulRan=T
         wScrn=  0.000000 ICntrl=       500 IOpCl=  0 I1Cent=   200000004 NGrid=           0
         NMat0=    1 NMatS0=      1 NMatT0=    0 NMatD0=    1 NMtDS0=    0 NMtDT0=    0
 Petite list used in FoFCou.
 Harris En= -1135.87341806507    
 JPrj=0 DoOrth=F DoCkMO=F.
 Initial guess <Sx>= 0.0000 <Sy>= 0.0000 <Sz>= 0.5000 <S**2>= 0.7500 S= 0.5000
 Leave Link  401 at Mon Nov 13 12:06:50 2023, MaxMem=  1879048192 cpu:               5.0 elap:               0.3
 (Enter /home/sekinelabo/g16/l502.exe)
 Keep R1 and R2 ints in memory in canonical form, NReq=507620374.
 FoFCou: FMM=F IPFlag=           0 FMFlag=           0 FMFlg1=           0
         NFxFlg=           0 DoJE=F BraDBF=F KetDBF=F FulRan=T
         wScrn=  0.000000 ICntrl=       600 IOpCl=  0 I1Cent=           0 NGrid=           0
         NMat0=    1 NMatS0=  22155 NMatT0=    0 NMatD0=    1 NMtDS0=    0 NMtDT0=    0
 Symmetry not used in FoFCou.
 Two-electron integral symmetry not used.
 UHF open shell SCF:
 Using DIIS extrapolation, IDIIS=  1040.
 NGot=  1879048192 LenX=  1388082362 LenY=  1388034832
 Requested convergence on RMS density matrix=1.00D-08 within 128 cycles.
 Requested convergence on MAX density matrix=1.00D-06.
 Requested convergence on             energy=1.00D-06.
 No special actions if energy rises.

 Cycle   1  Pass 1  IDiag  1:
 E= -1136.06837728556    
 DIIS: error= 1.14D-02 at cycle   1 NSaved=   1.
 NSaved= 1 IEnMin= 1 EnMin= -1136.06837728556     IErMin= 1 ErrMin= 1.14D-02
 ErrMax= 1.14D-02  0.00D+00 EMaxC= 1.00D-01 BMatC= 1.90D-01 BMatP= 1.90D-01
 IDIUse=3 WtCom= 8.86D-01 WtEn= 1.14D-01
 Coeff-Com:  0.100D+01
 Coeff-En:   0.100D+01
 Coeff:      0.100D+01
 Gap=     0.047 Goal=   None    Shift=    0.000
 Gap=     0.049 Goal=   None    Shift=    0.000
 GapD=    0.047 DampG=0.250 DampE=0.500 DampFc=0.2500 IDamp=-1.
 Damping current iteration by 2.50D-01
 RMSDP=5.40D-02 MaxDP=7.21D+00              OVMax= 2.29D-01

 Cycle   2  Pass 1  IDiag  1:
 E= -1136.08026663418     Delta-E=       -0.011889348614 Rises=F Damp=T
 DIIS: error= 8.06D-03 at cycle   2 NSaved=   2.
 NSaved= 2 IEnMin= 2 EnMin= -1136.08026663418     IErMin= 2 ErrMin= 8.06D-03
 ErrMax= 8.06D-03  0.00D+00 EMaxC= 1.00D-01 BMatC= 7.32D-02 BMatP= 1.90D-01
 IDIUse=3 WtCom= 9.19D-01 WtEn= 8.06D-02
 Coeff-Com: -0.129D+01 0.229D+01
 Coeff-En:   0.000D+00 0.100D+01
 Coeff:     -0.118D+01 0.218D+01
 Gap=     0.039 Goal=   None    Shift=    0.000
 Gap=     0.062 Goal=   None    Shift=    0.000
 RMSDP=2.53D-02 MaxDP=3.70D+00 DE=-1.19D-02 OVMax= 1.60D-01

 Cycle   3  Pass 1  IDiag  1:
 E= -1136.10060057340     Delta-E=       -0.020333939224 Rises=F Damp=F
 DIIS: error= 3.38D-03 at cycle   3 NSaved=   3.
 NSaved= 3 IEnMin= 3 EnMin= -1136.10060057340     IErMin= 3 ErrMin= 3.38D-03
 ErrMax= 3.38D-03  0.00D+00 EMaxC= 1.00D-01 BMatC= 3.18D-03 BMatP= 7.32D-02
 IDIUse=3 WtCom= 9.66D-01 WtEn= 3.38D-02
 Coeff-Com: -0.240D+00 0.424D+00 0.816D+00
 Coeff-En:   0.000D+00 0.000D+00 0.100D+01
 Coeff:     -0.232D+00 0.409D+00 0.822D+00
 Gap=     0.042 Goal=   None    Shift=    0.000
 Gap=     0.057 Goal=   None    Shift=    0.000
 RMSDP=1.12D-02 MaxDP=1.59D+00 DE=-2.03D-02 OVMax= 8.38D-02

 Cycle   4  Pass 1  IDiag  1:
 E= -1136.10078896565     Delta-E=       -0.000188392255 Rises=F Damp=F
 DIIS: error= 3.25D-03 at cycle   4 NSaved=   4.
 NSaved= 4 IEnMin= 4 EnMin= -1136.10078896565     IErMin= 4 ErrMin= 3.25D-03
 ErrMax= 3.25D-03  0.00D+00 EMaxC= 1.00D-01 BMatC= 2.89D-03 BMatP= 3.18D-03
 IDIUse=3 WtCom= 9.67D-01 WtEn= 3.25D-02
 Coeff-Com: -0.111D-01 0.148D-01 0.487D+00 0.509D+00
 Coeff-En:   0.000D+00 0.000D+00 0.481D+00 0.519D+00
 Coeff:     -0.107D-01 0.143D-01 0.487D+00 0.509D+00
 Gap=     0.040 Goal=   None    Shift=    0.000
 Gap=     0.059 Goal=   None    Shift=    0.000
 RMSDP=3.96D-03 MaxDP=5.60D-01 DE=-1.88D-04 OVMax= 4.65D-02

 Cycle   5  Pass 1  IDiag  1:
 E= -1136.10286285552     Delta-E=       -0.002073889864 Rises=F Damp=F
 DIIS: error= 4.93D-04 at cycle   5 NSaved=   5.
 NSaved= 5 IEnMin= 5 EnMin= -1136.10286285552     IErMin= 5 ErrMin= 4.93D-04
 ErrMax= 4.93D-04  0.00D+00 EMaxC= 1.00D-01 BMatC= 4.82D-05 BMatP= 2.89D-03
 IDIUse=3 WtCom= 9.95D-01 WtEn= 4.93D-03
 Coeff-Com: -0.597D-02 0.710D-02 0.263D+00 0.283D+00 0.453D+00
 Coeff-En:   0.000D+00 0.000D+00 0.000D+00 0.000D+00 0.100D+01
 Coeff:     -0.594D-02 0.707D-02 0.262D+00 0.282D+00 0.455D+00
 Gap=     0.040 Goal=   None    Shift=    0.000
 Gap=     0.059 Goal=   None    Shift=    0.000
 RMSDP=7.12D-04 MaxDP=4.11D-02 DE=-2.07D-03 OVMax= 1.09D-02

 Cycle   6  Pass 1  IDiag  1:
 E= -1136.10292269147     Delta-E=       -0.000059835952 Rises=F Damp=F
 DIIS: error= 1.80D-04 at cycle   6 NSaved=   6.
 NSaved= 6 IEnMin= 6 EnMin= -1136.10292269147     IErMin= 6 ErrMin= 1.80D-04
 ErrMax= 1.80D-04  0.00D+00 EMaxC= 1.00D-01 BMatC= 5.36D-06 BMatP= 4.82D-05
 IDIUse=3 WtCom= 9.98D-01 WtEn= 1.80D-03
 Coeff-Com: -0.194D-03-0.241D-04-0.926D-01-0.953D-01 0.172D+00 0.102D+01
 Coeff-En:   0.000D+00 0.000D+00 0.000D+00 0.000D+00 0.000D+00 0.100D+01
 Coeff:     -0.194D-03-0.240D-04-0.924D-01-0.951D-01 0.172D+00 0.102D+01
 Gap=     0.040 Goal=   None    Shift=    0.000
 Gap=     0.059 Goal=   None    Shift=    0.000
 RMSDP=4.63D-04 MaxDP=3.07D-02 DE=-5.98D-05 OVMax= 6.53D-03

 Cycle   7  Pass 1  IDiag  1:
 E= -1136.10293891938     Delta-E=       -0.000016227913 Rises=F Damp=F
 DIIS: error= 3.92D-05 at cycle   7 NSaved=   7.
 NSaved= 7 IEnMin= 7 EnMin= -1136.10293891938     IErMin= 7 ErrMin= 3.92D-05
 ErrMax= 3.92D-05  0.00D+00 EMaxC= 1.00D-01 BMatC= 5.85D-07 BMatP= 5.36D-06
 IDIUse=1 WtCom= 1.00D+00 WtEn= 0.00D+00
 Coeff-Com:  0.130D-02-0.169D-02-0.390D-01-0.405D-01-0.441D-01 0.111D+00
 Coeff-Com:  0.101D+01
 Coeff:      0.130D-02-0.169D-02-0.390D-01-0.405D-01-0.441D-01 0.111D+00
 Coeff:      0.101D+01
 Gap=     0.040 Goal=   None    Shift=    0.000
 Gap=     0.059 Goal=   None    Shift=    0.000
 RMSDP=1.67D-04 MaxDP=1.22D-02 DE=-1.62D-05 OVMax= 2.94D-03

 Cycle   8  Pass 1  IDiag  1:
 E= -1136.10294139764     Delta-E=       -0.000002478252 Rises=F Damp=F
 DIIS: error= 4.78D-05 at cycle   8 NSaved=   8.
 NSaved= 8 IEnMin= 8 EnMin= -1136.10294139764     IErMin= 7 ErrMin= 3.92D-05
 ErrMax= 4.78D-05  0.00D+00 EMaxC= 1.00D-01 BMatC= 4.40D-07 BMatP= 5.85D-07
 IDIUse=1 WtCom= 1.00D+00 WtEn= 0.00D+00
 Coeff-Com:  0.117D-02-0.145D-02-0.340D-02-0.352D-02-0.778D-01-0.174D+00
 Coeff-Com:  0.646D+00 0.613D+00
 Coeff:      0.117D-02-0.145D-02-0.340D-02-0.352D-02-0.778D-01-0.174D+00
 Coeff:      0.646D+00 0.613D+00
 Gap=     0.040 Goal=   None    Shift=    0.000
 Gap=     0.059 Goal=   None    Shift=    0.000
 RMSDP=1.15D-04 MaxDP=1.43D-02 DE=-2.48D-06 OVMax= 1.84D-03

 Cycle   9  Pass 1  IDiag  1:
 E= -1136.10294237635     Delta-E=       -0.000000978710 Rises=F Damp=F
 DIIS: error= 1.20D-05 at cycle   9 NSaved=   9.
 NSaved= 9 IEnMin= 9 EnMin= -1136.10294237635     IErMin= 9 ErrMin= 1.20D-05
 ErrMax= 1.20D-05  0.00D+00 EMaxC= 1.00D-01 BMatC= 4.90D-08 BMatP= 4.40D-07
 IDIUse=1 WtCom= 1.00D+00 WtEn= 0.00D+00
 Coeff-Com:  0.239D-03-0.287D-03 0.733D-02 0.735D-02-0.185D-01-0.724D-01
 Coeff-Com: -0.324D-01 0.208D+00 0.901D+00
 Coeff:      0.239D-03-0.287D-03 0.733D-02 0.735D-02-0.185D-01-0.724D-01
 Coeff:     -0.324D-01 0.208D+00 0.901D+00
 Gap=     0.040 Goal=   None    Shift=    0.000
 Gap=     0.059 Goal=   None    Shift=    0.000
 RMSDP=6.91D-05 MaxDP=9.22D-03 DE=-9.79D-07 OVMax= 8.40D-04

 Cycle  10  Pass 1  IDiag  1:
 E= -1136.10294258422     Delta-E=       -0.000000207870 Rises=F Damp=F
 DIIS: error= 6.30D-06 at cycle  10 NSaved=  10.
 NSaved=10 IEnMin=10 EnMin= -1136.10294258422     IErMin=10 ErrMin= 6.30D-06
 ErrMax= 6.30D-06  0.00D+00 EMaxC= 1.00D-01 BMatC= 9.78D-09 BMatP= 4.90D-08
 IDIUse=1 WtCom= 1.00D+00 WtEn= 0.00D+00
 Coeff-Com: -0.213D-03 0.278D-03 0.265D-02 0.219D-02 0.115D-01 0.164D-01
 Coeff-Com: -0.127D+00-0.860D-01 0.172D+00 0.101D+01
 Coeff:     -0.213D-03 0.278D-03 0.265D-02 0.219D-02 0.115D-01 0.164D-01
 Coeff:     -0.127D+00-0.860D-01 0.172D+00 0.101D+01
 Gap=     0.040 Goal=   None    Shift=    0.000
 Gap=     0.059 Goal=   None    Shift=    0.000
 RMSDP=4.71D-05 MaxDP=5.64D-03 DE=-2.08D-07 OVMax= 4.73D-04

 Cycle  11  Pass 1  IDiag  1:
 E= -1136.10294263279     Delta-E=       -0.000000048572 Rises=F Damp=F
 DIIS: error= 3.53D-06 at cycle  11 NSaved=  11.
 NSaved=11 IEnMin=11 EnMin= -1136.10294263279     IErMin=11 ErrMin= 3.53D-06
 ErrMax= 3.53D-06  0.00D+00 EMaxC= 1.00D-01 BMatC= 2.94D-09 BMatP= 9.78D-09
 IDIUse=1 WtCom= 1.00D+00 WtEn= 0.00D+00
 Coeff-Com: -0.172D-03 0.218D-03-0.644D-04-0.284D-03 0.967D-02 0.225D-01
 Coeff-Com: -0.512D-01-0.888D-01-0.138D+00 0.451D+00 0.795D+00
 Coeff:     -0.172D-03 0.218D-03-0.644D-04-0.284D-03 0.967D-02 0.225D-01
 Coeff:     -0.512D-01-0.888D-01-0.138D+00 0.451D+00 0.795D+00
 Gap=     0.040 Goal=   None    Shift=    0.000
 Gap=     0.059 Goal=   None    Shift=    0.000
 RMSDP=2.19D-05 MaxDP=2.46D-03 DE=-4.86D-08 OVMax= 2.12D-04

 Cycle  12  Pass 1  IDiag  1:
 E= -1136.10294264296     Delta-E=       -0.000000010173 Rises=F Damp=F
 DIIS: error= 1.45D-06 at cycle  12 NSaved=  12.
 NSaved=12 IEnMin=12 EnMin= -1136.10294264296     IErMin=12 ErrMin= 1.45D-06
 ErrMax= 1.45D-06  0.00D+00 EMaxC= 1.00D-01 BMatC= 3.74D-10 BMatP= 2.94D-09
 IDIUse=1 WtCom= 1.00D+00 WtEn= 0.00D+00
 Coeff-Com: -0.129D-04 0.141D-04-0.412D-03-0.341D-03 0.821D-03 0.387D-02
 Coeff-Com:  0.362D-02-0.120D-01-0.634D-01-0.395D-01 0.216D+00 0.891D+00
 Coeff:     -0.129D-04 0.141D-04-0.412D-03-0.341D-03 0.821D-03 0.387D-02
 Coeff:      0.362D-02-0.120D-01-0.634D-01-0.395D-01 0.216D+00 0.891D+00
 Gap=     0.040 Goal=   None    Shift=    0.000
 Gap=     0.059 Goal=   None    Shift=    0.000
 RMSDP=7.14D-06 MaxDP=6.30D-04 DE=-1.02D-08 OVMax= 8.52D-05

 Cycle  13  Pass 1  IDiag  1:
 E= -1136.10294264449     Delta-E=       -0.000000001530 Rises=F Damp=F
 DIIS: error= 4.88D-07 at cycle  13 NSaved=  13.
 NSaved=13 IEnMin=13 EnMin= -1136.10294264449     IErMin=13 ErrMin= 4.88D-07
 ErrMax= 4.88D-07  0.00D+00 EMaxC= 1.00D-01 BMatC= 8.19D-11 BMatP= 3.74D-10
 IDIUse=1 WtCom= 1.00D+00 WtEn= 0.00D+00
 Coeff-Com:  0.312D-04-0.410D-04-0.105D-03-0.323D-04-0.153D-02-0.304D-02
 Coeff-Com:  0.119D-01 0.114D-01 0.144D-02-0.968D-01-0.609D-01 0.294D+00
 Coeff-Com:  0.843D+00
 Coeff:      0.312D-04-0.410D-04-0.105D-03-0.323D-04-0.153D-02-0.304D-02
 Coeff:      0.119D-01 0.114D-01 0.144D-02-0.968D-01-0.609D-01 0.294D+00
 Coeff:      0.843D+00
 Gap=     0.040 Goal=   None    Shift=    0.000
 Gap=     0.059 Goal=   None    Shift=    0.000
 RMSDP=2.35D-06 MaxDP=1.28D-04 DE=-1.53D-09 OVMax= 3.12D-05

 Cycle  14  Pass 1  IDiag  1:
 E= -1136.10294264479     Delta-E=       -0.000000000299 Rises=F Damp=F
 DIIS: error= 2.32D-07 at cycle  14 NSaved=  14.
 NSaved=14 IEnMin=14 EnMin= -1136.10294264479     IErMin=14 ErrMin= 2.32D-07
 ErrMax= 2.32D-07  0.00D+00 EMaxC= 1.00D-01 BMatC= 1.37D-11 BMatP= 8.19D-11
 IDIUse=1 WtCom= 1.00D+00 WtEn= 0.00D+00
 Coeff-Com:  0.123D-04-0.155D-04 0.401D-04 0.347D-04-0.527D-03-0.133D-02
 Coeff-Com:  0.148D-02 0.539D-02 0.176D-01-0.150D-01-0.649D-01-0.144D+00
 Coeff-Com:  0.102D+00 0.110D+01
 Coeff:      0.123D-04-0.155D-04 0.401D-04 0.347D-04-0.527D-03-0.133D-02
 Coeff:      0.148D-02 0.539D-02 0.176D-01-0.150D-01-0.649D-01-0.144D+00
 Coeff:      0.102D+00 0.110D+01
 Gap=     0.040 Goal=   None    Shift=    0.000
 Gap=     0.059 Goal=   None    Shift=    0.000
 RMSDP=1.65D-06 MaxDP=1.01D-04 DE=-2.99D-10 OVMax= 1.90D-05

 Cycle  15  Pass 1  IDiag  1:
 E= -1136.10294264487     Delta-E=       -0.000000000083 Rises=F Damp=F
 DIIS: error= 7.69D-08 at cycle  15 NSaved=  15.
 NSaved=15 IEnMin=15 EnMin= -1136.10294264487     IErMin=15 ErrMin= 7.69D-08
 ErrMax= 7.69D-08  0.00D+00 EMaxC= 1.00D-01 BMatC= 2.07D-12 BMatP= 1.37D-11
 IDIUse=1 WtCom= 1.00D+00 WtEn= 0.00D+00
 Coeff-Com: -0.857D-05 0.112D-04 0.320D-04 0.810D-05 0.382D-03 0.701D-03
 Coeff-Com: -0.240D-02-0.307D-02-0.451D-02 0.223D-01 0.243D-01-0.250D-01
 Coeff-Com: -0.179D+00-0.207D+00 0.137D+01
 Coeff:     -0.857D-05 0.112D-04 0.320D-04 0.810D-05 0.382D-03 0.701D-03
 Coeff:     -0.240D-02-0.307D-02-0.451D-02 0.223D-01 0.243D-01-0.250D-01
 Coeff:     -0.179D+00-0.207D+00 0.137D+01
 Gap=     0.040 Goal=   None    Shift=    0.000
 Gap=     0.059 Goal=   None    Shift=    0.000
 RMSDP=8.90D-07 MaxDP=8.20D-05 DE=-8.28D-11 OVMax= 9.49D-06

 Cycle  16  Pass 1  IDiag  1:
 E= -1136.10294264491     Delta-E=       -0.000000000036 Rises=F Damp=F
 DIIS: error= 1.89D-08 at cycle  16 NSaved=  16.
 NSaved=16 IEnMin=16 EnMin= -1136.10294264491     IErMin=16 ErrMin= 1.89D-08
 ErrMax= 1.89D-08  0.00D+00 EMaxC= 1.00D-01 BMatC= 1.86D-13 BMatP= 2.07D-12
 IDIUse=1 WtCom= 1.00D+00 WtEn= 0.00D+00
 Coeff-Com: -0.128D-05 0.161D-05-0.597D-05-0.331D-05 0.477D-04 0.143D-03
 Coeff-Com: -0.124D-03-0.444D-03-0.170D-02 0.920D-03 0.629D-02 0.154D-01
 Coeff-Com:  0.308D-02-0.119D+00-0.400D-01 0.114D+01
 Coeff:     -0.128D-05 0.161D-05-0.597D-05-0.331D-05 0.477D-04 0.143D-03
 Coeff:     -0.124D-03-0.444D-03-0.170D-02 0.920D-03 0.629D-02 0.154D-01
 Coeff:      0.308D-02-0.119D+00-0.400D-01 0.114D+01
 Gap=     0.040 Goal=   None    Shift=    0.000
 Gap=     0.059 Goal=   None    Shift=    0.000
 RMSDP=2.45D-07 MaxDP=1.79D-05 DE=-3.59D-11 OVMax= 2.20D-06

 Cycle  17  Pass 1  IDiag  1:
 E= -1136.10294264491     Delta-E=        0.000000000003 Rises=F Damp=F
 DIIS: error= 9.93D-09 at cycle  17 NSaved=  17.
 NSaved=17 IEnMin=16 EnMin= -1136.10294264491     IErMin=17 ErrMin= 9.93D-09
 ErrMax= 9.93D-09  0.00D+00 EMaxC= 1.00D-01 BMatC= 3.73D-14 BMatP= 1.86D-13
 IDIUse=1 WtCom= 1.00D+00 WtEn= 0.00D+00
 Coeff-Com:  0.906D-06-0.120D-05-0.549D-05-0.172D-05-0.340D-04-0.571D-04
 Coeff-Com:  0.218D-03 0.303D-03 0.483D-03-0.216D-02-0.283D-02 0.229D-02
 Coeff-Com:  0.197D-01 0.283D-01-0.201D+00 0.160D+00 0.995D+00
 Coeff:      0.906D-06-0.120D-05-0.549D-05-0.172D-05-0.340D-04-0.571D-04
 Coeff:      0.218D-03 0.303D-03 0.483D-03-0.216D-02-0.283D-02 0.229D-02
 Coeff:      0.197D-01 0.283D-01-0.201D+00 0.160D+00 0.995D+00
 Gap=     0.040 Goal=   None    Shift=    0.000
 Gap=     0.059 Goal=   None    Shift=    0.000
 RMSDP=7.91D-08 MaxDP=5.60D-06 DE= 3.18D-12 OVMax= 8.05D-07

 Cycle  18  Pass 1  IDiag  1:
 E= -1136.10294264489     Delta-E=        0.000000000014 Rises=F Damp=F
 DIIS: error= 3.69D-09 at cycle  18 NSaved=  18.
 NSaved=18 IEnMin=16 EnMin= -1136.10294264491     IErMin=18 ErrMin= 3.69D-09
 ErrMax= 3.69D-09  0.00D+00 EMaxC= 1.00D-01 BMatC= 7.54D-15 BMatP= 3.73D-14
 IDIUse=1 WtCom= 1.00D+00 WtEn= 0.00D+00
 Coeff-Com:  0.427D-06-0.546D-06-0.716D-07 0.301D-06-0.164D-04-0.444D-04
 Coeff-Com:  0.791D-04 0.165D-03 0.395D-03-0.794D-03-0.176D-02-0.155D-02
 Coeff-Com:  0.528D-02 0.247D-01-0.416D-01-0.155D+00 0.208D+00 0.962D+00
 Coeff:      0.427D-06-0.546D-06-0.716D-07 0.301D-06-0.164D-04-0.444D-04
 Coeff:      0.791D-04 0.165D-03 0.395D-03-0.794D-03-0.176D-02-0.155D-02
 Coeff:      0.528D-02 0.247D-01-0.416D-01-0.155D+00 0.208D+00 0.962D+00
 Gap=     0.040 Goal=   None    Shift=    0.000
 Gap=     0.059 Goal=   None    Shift=    0.000
 RMSDP=3.45D-08 MaxDP=3.01D-06 DE= 1.39D-11 OVMax= 3.56D-07

 Cycle  19  Pass 1  IDiag  1:
 E= -1136.10294264490     Delta-E=       -0.000000000007 Rises=F Damp=F
 DIIS: error= 2.67D-09 at cycle  19 NSaved=  19.
 NSaved=19 IEnMin=16 EnMin= -1136.10294264491     IErMin=19 ErrMin= 2.67D-09
 ErrMax= 2.67D-09  0.00D+00 EMaxC= 1.00D-01 BMatC= 1.47D-15 BMatP= 7.54D-15
 IDIUse=1 WtCom= 1.00D+00 WtEn= 0.00D+00
 Large coefficients: NSaved= 19 BigCof=    0.00 CofMax=   10.00 Det=-3.10D-15
 Inversion failed.  Reducing to 18 matrices.
 Large coefficients: NSaved= 18 BigCof=    0.00 CofMax=   10.00 Det=-3.62D-15
 Inversion failed.  Reducing to 17 matrices.
 Large coefficients: NSaved= 17 BigCof=    0.00 CofMax=   10.00 Det=-3.70D-15
 Inversion failed.  Reducing to 16 matrices.
 Large coefficients: NSaved= 16 BigCof=    0.00 CofMax=   10.00 Det=-3.75D-15
 Inversion failed.  Reducing to 15 matrices.
 Coeff-Com: -0.149D-05-0.150D-05 0.419D-05 0.139D-04 0.735D-05 0.861D-05
 Coeff-Com: -0.835D-04-0.418D-03-0.486D-04 0.140D-02 0.105D-01-0.356D-01
 Coeff-Com: -0.110D+00 0.309D-01 0.110D+01
 Coeff:     -0.149D-05-0.150D-05 0.419D-05 0.139D-04 0.735D-05 0.861D-05
 Coeff:     -0.835D-04-0.418D-03-0.486D-04 0.140D-02 0.105D-01-0.356D-01
 Coeff:     -0.110D+00 0.309D-01 0.110D+01
 Gap=     0.040 Goal=   None    Shift=    0.000
 Gap=     0.059 Goal=   None    Shift=    0.000
 RMSDP=1.63D-08 MaxDP=1.30D-06 DE=-7.05D-12 OVMax= 2.39D-07

 Cycle  20  Pass 1  IDiag  1:
 E= -1136.10294264489     Delta-E=        0.000000000009 Rises=F Damp=F
 DIIS: error= 9.32D-10 at cycle  20 NSaved=  16.
 NSaved=16 IEnMin=12 EnMin= -1136.10294264491     IErMin=16 ErrMin= 9.32D-10
 ErrMax= 9.32D-10  0.00D+00 EMaxC= 1.00D-01 BMatC= 2.82D-16 BMatP= 1.47D-15
 IDIUse=1 WtCom= 1.00D+00 WtEn= 0.00D+00
 Large coefficients: NSaved= 16 BigCof=    0.00 CofMax=   10.00 Det=-4.71D-16
 Inversion failed.  Reducing to 15 matrices.
 Coeff-Com: -0.494D-06 0.258D-05-0.521D-05-0.193D-04 0.414D-04 0.110D-03
 Coeff-Com:  0.137D-03-0.715D-03-0.244D-02 0.485D-02 0.287D-01-0.324D-01
 Coeff-Com: -0.209D+00-0.557D-01 0.127D+01
 Coeff:     -0.494D-06 0.258D-05-0.521D-05-0.193D-04 0.414D-04 0.110D-03
 Coeff:      0.137D-03-0.715D-03-0.244D-02 0.485D-02 0.287D-01-0.324D-01
 Coeff:     -0.209D+00-0.557D-01 0.127D+01
 Gap=     0.040 Goal=   None    Shift=    0.000
 Gap=     0.059 Goal=   None    Shift=    0.000
 RMSDP=8.65D-09 MaxDP=7.26D-07 DE= 8.64D-12 OVMax= 1.09D-07

 SCF Done:  E(UB3LYP) =  -1136.10294264     A.U. after   20 cycles
            NFock= 20  Conv=0.86D-08     -V/T= 2.0025
 <Sx>= 0.0000 <Sy>= 0.0000 <Sz>= 0.5000 <S**2>= 0.7766 S= 0.5132
 <L.S>= 0.000000000000E+00
 KE= 1.133215005480D+03 PE=-3.426372963495D+03 EE= 8.086321793283D+02
 Annihilation of the first spin contaminant:
 S**2 before annihilation     0.7766,   after     0.7502
 Leave Link  502 at Mon Nov 13 12:07:09 2023, MaxMem=  1879048192 cpu:             209.0 elap:              18.2
 (Enter /home/sekinelabo/g16/l601.exe)
 Copying SCF densities to generalized density rwf, IOpCl= 1 IROHF=0.

 **********************************************************************

            Population analysis using the SCF Density.

 **********************************************************************

 Orbital symmetries:
 Alpha Orbitals:
       Occupied  (A) (A) (A) (A) (A) (A) (A) (A) (A) (A) (A) (A)
                 (A) (A) (A) (A) (A) (A) (A) (A) (A) (A) (A) (A)
                 (A) (A) (A) (A) (A) (A) (A) (A) (A) (A) (A) (A)
                 (A) (A) (A)
       Virtual   (A) (A) (A) (A) (A) (A) (A) (A) (A) (A) (A) (A)
                 (A) (A) (A) (A) (A) (A) (A) (A) (A) (A) (A) (A)
                 (A) (A) (A) (A) (A) (A) (A) (A) (A) (A) (A) (A)
                 (A) (A) (A) (A) (A) (A) (A) (A) (A) (A) (A) (A)
                 (A) (A) (A) (A) (A) (A) (A) (A) (A) (A) (A) (A)
                 (A) (A) (A) (A) (A) (A) (A) (A) (A) (A) (A) (A)
                 (A) (A) (A) (A) (A) (A) (A) (A) (A) (A) (A) (A)
                 (A) (A) (A) (A) (A) (A) (A) (A) (A) (A) (A) (A)
                 (A) (A) (A) (A) (A) (A) (A) (A) (A) (A) (A) (A)
                 (A) (A) (A) (A) (A) (A) (A) (A) (A) (A) (A) (A)
                 (A) (A) (A) (A) (A) (A) (A) (A) (A) (A) (A) (A)
                 (A) (A) (A) (A) (A) (A) (A) (A) (A) (A) (A) (A)
                 (A) (A) (A) (A) (A) (A) (A) (A) (A) (A) (A) (A)
                 (A) (A) (A) (A) (A) (A) (A) (A) (A) (A) (A) (A)
                 (A) (A) (A)
 Beta  Orbitals:
       Occupied  (A) (A) (A) (A) (A) (A) (A) (A) (A) (A) (A) (A)
                 (A) (A) (A) (A) (A) (A) (A) (A) (A) (A) (A) (A)
                 (A) (A) (A) (A) (A) (A) (A) (A) (A) (A) (A) (A)
                 (A) (A)
       Virtual   (A) (A) (A) (A) (A) (A) (A) (A) (A) (A) (A) (A)
                 (A) (A) (A) (A) (A) (A) (A) (A) (A) (A) (A) (A)
                 (A) (A) (A) (A) (A) (A) (A) (A) (A) (A) (A) (A)
                 (A) (A) (A) (A) (A) (A) (A) (A) (A) (A) (A) (A)
                 (A) (A) (A) (A) (A) (A) (A) (A) (A) (A) (A) (A)
                 (A) (A) (A) (A) (A) (A) (A) (A) (A) (A) (A) (A)
                 (A) (A) (A) (A) (A) (A) (A) (A) (A) (A) (A) (A)
                 (A) (A) (A) (A) (A) (A) (A) (A) (A) (A) (A) (A)
                 (A) (A) (A) (A) (A) (A) (A) (A) (A) (A) (A) (A)
                 (A) (A) (A) (A) (A) (A) (A) (A) (A) (A) (A) (A)
                 (A) (A) (A) (A) (A) (A) (A) (A) (A) (A) (A) (A)
                 (A) (A) (A) (A) (A) (A) (A) (A) (A) (A) (A) (A)
                 (A) (A) (A) (A) (A) (A) (A) (A) (A) (A) (A) (A)
                 (A) (A) (A) (A) (A) (A) (A) (A) (A) (A) (A) (A)
                 (A) (A) (A) (A)
 The electronic state is 2-A.
 Alpha  occ. eigenvalues --  -38.44266 -38.43990 -38.43970 -38.43912 -38.43594
 Alpha  occ. eigenvalues --  -38.43514 -38.43029  -2.20346  -2.19888  -2.19873
 Alpha  occ. eigenvalues --   -2.19757  -2.19597  -2.19527  -2.19215  -1.14103
 Alpha  occ. eigenvalues --   -1.14044  -1.14001  -1.13642  -1.13590  -1.13535
 Alpha  occ. eigenvalues --   -1.13531  -1.13503  -1.13486  -1.13462  -1.13383
 Alpha  occ. eigenvalues --   -1.13354  -1.13324  -1.13313  -1.13238  -1.13162
 Alpha  occ. eigenvalues --   -1.13123  -1.13070  -1.12901  -1.12866  -1.12795
 Alpha  occ. eigenvalues --   -0.19144  -0.14051  -0.12990  -0.10286
 Alpha virt. eigenvalues --   -0.06272  -0.05398  -0.04406  -0.03324  -0.02545
 Alpha virt. eigenvalues --   -0.02174  -0.01409  -0.01091  -0.00682  -0.00205
 Alpha virt. eigenvalues --   -0.00092  -0.00013   0.00534   0.00618   0.00887
 Alpha virt. eigenvalues --    0.00906   0.01101   0.01237   0.01396   0.01498
 Alpha virt. eigenvalues --    0.01533   0.01680   0.01896   0.01910   0.02063
 Alpha virt. eigenvalues --    0.02098   0.02271   0.02362   0.02388   0.02510
 Alpha virt. eigenvalues --    0.02777   0.02957   0.03002   0.03229   0.03253
 Alpha virt. eigenvalues --    0.03290   0.03485   0.03532   0.03612   0.03730
 Alpha virt. eigenvalues --    0.03806   0.04066   0.04331   0.04503   0.04933
 Alpha virt. eigenvalues --    0.05259   0.05392   0.05575   0.05781   0.06135
 Alpha virt. eigenvalues --    0.06410   0.06572   0.06935   0.07165   0.07606
 Alpha virt. eigenvalues --    0.07923   0.08183   0.08399   0.08608   0.08943
 Alpha virt. eigenvalues --    0.09005   0.09565   0.10134   0.10539   0.10950
 Alpha virt. eigenvalues --    0.11434   0.11673   0.12209   0.12996   0.13343
 Alpha virt. eigenvalues --    0.13824   0.14147   0.14606   0.14992   0.15326
 Alpha virt. eigenvalues --    0.15523   0.16526   0.17392   0.18575   0.19502
 Alpha virt. eigenvalues --    0.23760   0.26280   0.27085   0.28380   0.29745
 Alpha virt. eigenvalues --    0.30900   0.31967   0.32607   0.33536   0.34519
 Alpha virt. eigenvalues --    0.35112   0.35553   0.36098   0.36746   0.37727
 Alpha virt. eigenvalues --    0.38083   0.38129   0.39252   0.39632   0.40768
 Alpha virt. eigenvalues --    0.41328   0.42006   0.43666   0.43831   0.44275
 Alpha virt. eigenvalues --    0.44850   0.45138   0.45408   0.45739   0.46966
 Alpha virt. eigenvalues --    0.47059   0.47361   0.48288   0.48510   0.49264
 Alpha virt. eigenvalues --    0.49529   0.50103   0.50661   0.50948   0.52289
 Alpha virt. eigenvalues --    0.52822   0.55294   0.55514   0.55759   0.58217
 Alpha virt. eigenvalues --    0.59747   0.64737   0.65299   0.66882   0.67961
 Alpha virt. eigenvalues --    0.70272   0.73707   0.75537   0.77785   0.80880
 Alpha virt. eigenvalues --    0.84972   2.08391   2.13131   2.16147   2.16802
 Alpha virt. eigenvalues --    2.25345   2.29335   2.33288   4.40480   4.40993
 Alpha virt. eigenvalues --    4.42068   4.43125   4.43390   4.43893   4.46057
 Alpha virt. eigenvalues --    4.46201   4.46304   4.46591   4.48024   4.49585
 Alpha virt. eigenvalues --    4.53918   4.57025   4.60385   4.66547   4.67732
 Alpha virt. eigenvalues --    4.70525   4.71340   4.76430   4.79395  96.29047
 Alpha virt. eigenvalues --   96.35333  96.39392  96.40212  96.51785  96.57100
 Alpha virt. eigenvalues --   96.61864
  Beta  occ. eigenvalues --  -38.44245 -38.43976 -38.43962 -38.43812 -38.43526
  Beta  occ. eigenvalues --  -38.43498 -38.43015  -2.20313  -2.19866  -2.19861
  Beta  occ. eigenvalues --   -2.19576  -2.19570  -2.19400  -2.19198  -1.14073
  Beta  occ. eigenvalues --   -1.13998  -1.13974  -1.13623  -1.13575  -1.13527
  Beta  occ. eigenvalues --   -1.13505  -1.13493  -1.13473  -1.13356  -1.13298
  Beta  occ. eigenvalues --   -1.13257  -1.13255  -1.13227  -1.13215  -1.13080
  Beta  occ. eigenvalues --   -1.13036  -1.13001  -1.12861  -1.12825  -1.12791
  Beta  occ. eigenvalues --   -0.18717  -0.13215  -0.12663
  Beta virt. eigenvalues --   -0.06738  -0.06111  -0.05217  -0.04284  -0.02586
  Beta virt. eigenvalues --   -0.02176  -0.02009  -0.01288  -0.00613  -0.00458
  Beta virt. eigenvalues --   -0.00007   0.00129   0.00250   0.00654   0.00763
  Beta virt. eigenvalues --    0.00938   0.01006   0.01176   0.01362   0.01446
  Beta virt. eigenvalues --    0.01557   0.01622   0.01839   0.01946   0.02043
  Beta virt. eigenvalues --    0.02120   0.02320   0.02354   0.02480   0.02568
  Beta virt. eigenvalues --    0.02632   0.02835   0.03012   0.03068   0.03255
  Beta virt. eigenvalues --    0.03340   0.03460   0.03515   0.03628   0.03647
  Beta virt. eigenvalues --    0.03806   0.03868   0.04266   0.04435   0.04562
  Beta virt. eigenvalues --    0.05027   0.05302   0.05492   0.05653   0.05859
  Beta virt. eigenvalues --    0.06264   0.06493   0.06651   0.06988   0.07374
  Beta virt. eigenvalues --    0.07733   0.07988   0.08400   0.08571   0.08801
  Beta virt. eigenvalues --    0.09032   0.09193   0.09682   0.10457   0.10711
  Beta virt. eigenvalues --    0.11127   0.11564   0.11943   0.12386   0.13101
  Beta virt. eigenvalues --    0.13497   0.13833   0.14314   0.14778   0.15109
  Beta virt. eigenvalues --    0.15540   0.15714   0.16656   0.17555   0.18805
  Beta virt. eigenvalues --    0.19653   0.24140   0.26547   0.27438   0.28607
  Beta virt. eigenvalues --    0.29872   0.31178   0.32215   0.32872   0.33931
  Beta virt. eigenvalues --    0.34851   0.35610   0.36067   0.36664   0.37307
  Beta virt. eigenvalues --    0.38073   0.38383   0.38494   0.39482   0.39924
  Beta virt. eigenvalues --    0.41041   0.41614   0.42148   0.43763   0.44028
  Beta virt. eigenvalues --    0.44387   0.45001   0.45347   0.45573   0.45922
  Beta virt. eigenvalues --    0.47088   0.47228   0.47505   0.48330   0.48678
  Beta virt. eigenvalues --    0.49550   0.49647   0.50389   0.50742   0.51215
  Beta virt. eigenvalues --    0.52431   0.52907   0.55388   0.55586   0.55913
  Beta virt. eigenvalues --    0.58264   0.59893   0.64818   0.65428   0.66957
  Beta virt. eigenvalues --    0.68129   0.70441   0.73728   0.75570   0.77929
  Beta virt. eigenvalues --    0.80965   0.85022   2.08558   2.13499   2.16219
  Beta virt. eigenvalues --    2.16961   2.25424   2.29374   2.33303   4.40524
  Beta virt. eigenvalues --    4.41034   4.42160   4.43181   4.43429   4.43927
  Beta virt. eigenvalues --    4.46135   4.46221   4.46415   4.46696   4.48135
  Beta virt. eigenvalues --    4.49615   4.53945   4.57088   4.60444   4.66587
  Beta virt. eigenvalues --    4.67786   4.70550   4.71405   4.76454   4.79462
  Beta virt. eigenvalues --   96.29101  96.35454  96.39418  96.40266  96.51815
  Beta virt. eigenvalues --   96.57117  96.61880
          Condensed to atoms (all electrons):
               1          2          3          4          5          6
     1  Na  16.630125  -0.980858   0.176708  -0.903377  -1.463442  -2.469169
     2  Na  -0.980858  12.074535   0.017888  -0.870199   0.042765  -0.603483
     3  Na   0.176708   0.017888  11.229742   0.459213  -0.493271  -0.077734
     4  Na  -0.903377  -0.870199   0.459213  13.120292   0.075108   0.437669
     5  Na  -1.463442   0.042765  -0.493271   0.075108  11.385856   0.761973
     6  Na  -2.469169  -0.603483  -0.077734   0.437669   0.761973  15.839860
     7  Na  -0.724612   0.872701  -0.687714  -1.669050   0.469015  -0.506022
               7
     1  Na  -0.724612
     2  Na   0.872701
     3  Na  -0.687714
     4  Na  -1.669050
     5  Na   0.469015
     6  Na  -0.506022
     7  Na  12.991373
          Atomic-Atomic Spin Densities.
               1          2          3          4          5          6
     1  Na   1.340977  -0.240693  -0.164830  -0.398897  -0.203614  -0.453948
     2  Na  -0.240693   0.282519   0.198451  -0.051545   0.038901   0.034371
     3  Na  -0.164830   0.198451   0.213525  -0.153142   0.069829  -0.032189
     4  Na  -0.398897  -0.051545  -0.153142  -0.013020   0.167437   0.196046
     5  Na  -0.203614   0.038901   0.069829   0.167437   0.033828   0.066543
     6  Na  -0.453948   0.034371  -0.032189   0.196046   0.066543  -0.362796
     7  Na   0.175801  -0.226796   0.158066   0.494922  -0.157281   0.470947
               7
     1  Na   0.175801
     2  Na  -0.226796
     3  Na   0.158066
     4  Na   0.494922
     5  Na  -0.157281
     6  Na   0.470947
     7  Na  -0.471788
 Mulliken charges and spin densities:
               1          2
     1  Na   0.734625   0.054795
     2  Na   0.446653   0.035207
     3  Na   0.375169   0.289710
     4  Na   0.350344   0.241800
     5  Na   0.221996   0.015643
     6  Na  -2.383094  -0.081026
     7  Na   0.254308   0.443870
 Sum of Mulliken charges =  -0.00000   1.00000
 Mulliken charges and spin densities with hydrogens summed into heavy atoms:
               1          2
     1  Na   0.734625   0.054795
     2  Na   0.446653   0.035207
     3  Na   0.375169   0.289710
     4  Na   0.350344   0.241800
     5  Na   0.221996   0.015643
     6  Na  -2.383094  -0.081026
     7  Na   0.254308   0.443870
 Electronic spatial extent (au):  <R**2>=           2480.5282
 Charge=             -0.0000 electrons
 Dipole moment (field-independent basis, Debye):
    X=              0.2523    Y=             -0.2238    Z=              0.5468  Tot=              0.6425
 Quadrupole moment (field-independent basis, Debye-Ang):
   XX=            -71.9927   YY=            -61.8090   ZZ=            -67.1637
   XY=             -4.7525   XZ=             -1.7811   YZ=              2.2979
 Traceless Quadrupole moment (field-independent basis, Debye-Ang):
   XX=             -5.0042   YY=              5.1795   ZZ=             -0.1752
   XY=             -4.7525   XZ=             -1.7811   YZ=              2.2979
 Octapole moment (field-independent basis, Debye-Ang**2):
  XXX=              1.4212  YYY=             -0.1895  ZZZ=             11.9063  XYY=            -12.1470
  XXY=             -5.1567  XXZ=              6.8651  XZZ=             10.1612  YZZ=             -0.7588
  YYZ=             -1.4039  XYZ=             -4.3658
 Hexadecapole moment (field-independent basis, Debye-Ang**3):
 XXXX=          -2556.9180 YYYY=          -1273.3889 ZZZZ=           -362.0211 XXXY=            -53.7934
 XXXZ=            -43.2740 YYYX=            -69.4053 YYYZ=             49.4832 ZZZX=              4.8730
 ZZZY=              4.9361 XXYY=           -676.6671 XXZZ=           -505.8678 YYZZ=           -309.4173
 XXYZ=              7.6888 YYXZ=            -19.5566 ZZXY=            -16.5400
 N-N= 3.484228360421D+02 E-N=-3.426372963459D+03  KE= 1.133215005480D+03
                          Isotropic Fermi Contact Couplings
        Atom                 a.u.       MegaHertz       Gauss      10(-4) cm-1
     1  Na(23)             0.03288      38.89773      13.87968      12.97489
     2  Na(23)             0.01314      15.54955       5.54847       5.18677
     3  Na(23)             0.30295     358.39395     127.88387     119.54735
     4  Na(23)            -0.00960     -11.36159      -4.05410      -3.78982
     5  Na(23)             0.04275      50.57249      18.04552      16.86917
     6  Na(23)            -0.02481     -29.35260     -10.47374      -9.79097
     7  Na(23)             0.43713     517.13461     184.52649     172.49754
 --------------------------------------------------------
       Center         ----  Spin Dipole Couplings  ----
                      3XX-RR        3YY-RR        3ZZ-RR
 --------------------------------------------------------
     1   Atom        0.040538     -0.015588     -0.024950
     2   Atom        0.013029     -0.005244     -0.007785
     3   Atom       -0.008447      0.010332     -0.001885
     4   Atom        0.054105     -0.033132     -0.020973
     5   Atom       -0.004652      0.000873      0.003780
     6   Atom        0.054975     -0.038508     -0.016466
     7   Atom       -0.006504      0.002603      0.003902
 --------------------------------------------------------
                        XY            XZ            YZ
 --------------------------------------------------------
     1   Atom        0.010162      0.002661      0.002120
     2   Atom       -0.007020      0.002511     -0.001950
     3   Atom        0.002492      0.006406     -0.002133
     4   Atom       -0.006171     -0.034878      0.006958
     5   Atom        0.009936      0.007387      0.010893
     6   Atom        0.004161      0.037390     -0.000092
     7   Atom        0.000195      0.000452     -0.001036
 --------------------------------------------------------


 ---------------------------------------------------------------------------------
              Anisotropic Spin Dipole Couplings in Principal Axis System
 ---------------------------------------------------------------------------------

       Atom             a.u.   MegaHertz   Gauss  10(-4) cm-1        Axes

              Baa    -0.0254    -3.588    -1.280    -1.197 -0.0083 -0.2028  0.9792
     1 Na(23) Bbb    -0.0170    -2.407    -0.859    -0.803 -0.1792  0.9637  0.1980
              Bcc     0.0425     5.995     2.139     2.000  0.9838  0.1739  0.0443
 
              Baa    -0.0090    -1.266    -0.452    -0.422  0.1051  0.6100  0.7854
     2 Na(23) Bbb    -0.0068    -0.965    -0.344    -0.322  0.3321  0.7229 -0.6059
              Bcc     0.0158     2.231     0.796     0.744  0.9374 -0.3245  0.1266
 
              Baa    -0.0128    -1.810    -0.646    -0.604  0.8424 -0.1387 -0.5207
     3 Na(23) Bbb     0.0020     0.283     0.101     0.094  0.5317  0.0573  0.8450
              Bcc     0.0108     1.527     0.545     0.509  0.0873  0.9887 -0.1220
 
              Baa    -0.0385    -5.433    -1.938    -1.812  0.2230 -0.6678  0.7102
     4 Na(23) Bbb    -0.0300    -4.238    -1.512    -1.414  0.3033  0.7399  0.6005
              Bcc     0.0685     9.671     3.451     3.226  0.9264 -0.0814 -0.3675
 
              Baa    -0.0123    -1.732    -0.618    -0.578  0.7563 -0.6477  0.0915
     5 Na(23) Bbb    -0.0072    -1.015    -0.362    -0.338 -0.4730 -0.4448  0.7605
              Bcc     0.0195     2.747     0.980     0.916  0.4519  0.6185  0.6428
 
              Baa    -0.0391    -5.519    -1.969    -1.841 -0.1294  0.9674  0.2178
     6 Na(23) Bbb    -0.0320    -4.520    -1.613    -1.508 -0.3721 -0.2509  0.8936
              Bcc     0.0711    10.040     3.582     3.349  0.9191  0.0346  0.3924
 
              Baa    -0.0065    -0.922    -0.329    -0.308  0.9986 -0.0266 -0.0459
     7 Na(23) Bbb     0.0020     0.289     0.103     0.096  0.0453  0.8767  0.4788
              Bcc     0.0045     0.633     0.226     0.211  0.0275 -0.4802  0.8767
 

 ---------------------------------------------------------------------------------

 No NMR shielding tensors so no spin-rotation constants.
 Leave Link  601 at Mon Nov 13 12:07:09 2023, MaxMem=  1879048192 cpu:               2.7 elap:               0.2
 (Enter /home/sekinelabo/g16/l701.exe)
 ... and contract with generalized density number  0.
 Compute integral first derivatives.
 Leave Link  701 at Mon Nov 13 12:07:09 2023, MaxMem=  1879048192 cpu:               2.1 elap:               0.1
 (Enter /home/sekinelabo/g16/l702.exe)
 L702 exits ... SP integral derivatives will be done elsewhere.
 Leave Link  702 at Mon Nov 13 12:07:09 2023, MaxMem=  1879048192 cpu:               0.4 elap:               0.0
 (Enter /home/sekinelabo/g16/l703.exe)
 Integral derivatives from FoFJK, PRISM(SPDF).
 Compute integral first derivatives, UseDBF=F ICtDFT=           0.
 Calling FoFJK, ICntrl=      2127 FMM=F ISym2X=0 I1Cent= 0 IOpClX= 1 NMat=1 NMatS=1 NMatT=0.
 FoFJK:  IHMeth= 1 ICntrl=    2127 DoSepK=F KAlg= 0 I1Cent=           0 FoldK=F
 IRaf=         0 NMat=       1 IRICut=       1 DoRegI=T DoRafI=F ISym2E= 0 IDoP0=0 IntGTp=1.
 FoFCou: FMM=F IPFlag=           0 FMFlag=      100000 FMFlg1=         800
         NFxFlg=           0 DoJE=F BraDBF=F KetDBF=F FulRan=T
         wScrn=  0.000000 ICntrl=      2127 IOpCl=  1 I1Cent=           0 NGrid=           0
         NMat0=    1 NMatS0=      1 NMatT0=    0 NMatD0=    1 NMtDS0=    0 NMtDT0=    0
 Symmetry not used in FoFCou.
 Leave Link  703 at Mon Nov 13 12:07:12 2023, MaxMem=  1879048192 cpu:              35.5 elap:               2.3
 (Enter /home/sekinelabo/g16/l716.exe)
 Dipole        = 9.92781698D-02-8.80445035D-02 2.15135107D-01
 ***** Axes restored to original set *****
 -------------------------------------------------------------------
 Center     Atomic                   Forces (Hartrees/Bohr)
 Number     Number              X              Y              Z
 -------------------------------------------------------------------
      1       11           0.003098752    0.003722371   -0.012365046
      2       11          -0.006302923   -0.006926494   -0.002709660
      3       11           0.010608540    0.002781919    0.004047454
      4       11           0.007365635   -0.011770115    0.004739212
      5       11          -0.002851911    0.009440718    0.001648783
      6       11          -0.007795722    0.001418940    0.004493818
      7       11          -0.004122371    0.001332660    0.000145439
 -------------------------------------------------------------------
 Cartesian Forces:  Max     0.012365046 RMS     0.006268058
 Z-matrix is all fixed cartesians, so copy forces.
 Force constants in Cartesian coordinates: 
                1             2             3             4             5 
      1  0.100580D+00
      2 -0.897215D-02  0.941655D-01
      3 -0.970565D-02 -0.192524D-01  0.122203D+00
      4  0.203598D-02 -0.603604D-02 -0.155258D-02  0.583853D-01
      5 -0.569376D-02 -0.205790D-02 -0.234862D-02  0.128004D-01  0.621044D-01
      6  0.458232D-02  0.631674D-02  0.523355D-02  0.535943D-02  0.536614D-02
      7 -0.270456D-01 -0.429044D-02 -0.286695D-02  0.964289D-03 -0.303303D-02
      8  0.963783D-02 -0.107814D-01  0.708209D-02 -0.123800D-02  0.383305D-02
      9 -0.262400D-01  0.184535D-02 -0.310950D-01 -0.529466D-03 -0.334542D-02
     10 -0.209866D-01 -0.187380D-02  0.431477D-02 -0.374503D-01  0.779766D-02
     11  0.719847D-02 -0.330526D-01  0.775002D-02 -0.189999D-01 -0.233916D-01
     12 -0.325327D-02  0.273003D-01 -0.318625D-01 -0.123999D-01  0.901387D-02
     13 -0.164134D-01  0.169957D-01  0.783356D-02  0.421007D-02  0.258693D-03
     14  0.147110D-02 -0.253021D-01 -0.883274D-04 -0.146326D-02 -0.206240D-03
     15  0.127571D-01 -0.229486D-01 -0.277858D-01 -0.303807D-02 -0.170526D-02
     16 -0.374796D-01  0.349659D-02  0.270352D-02 -0.294762D-01 -0.120736D-01
     17 -0.140266D-02 -0.256578D-01  0.899424D-02  0.750625D-02 -0.397942D-01
     18  0.174767D-01  0.947606D-02 -0.420209D-01  0.103893D-01 -0.633873D-02
     19 -0.690702D-03  0.680180D-03 -0.726678D-03  0.133089D-02 -0.563273D-04
     20 -0.223883D-02  0.268629D-02 -0.213703D-02  0.743059D-02 -0.487457D-03
     21  0.438288D-02 -0.273750D-02  0.532715D-02  0.177129D-02 -0.641979D-03
                6             7             8             9            10 
      6  0.275157D-01
      7  0.136840D-02  0.646090D-01
      8 -0.182384D-02  0.833699D-02  0.374279D-01
      9  0.667289D-02  0.170211D-01 -0.853095D-02  0.330900D-01
     10 -0.134654D-01 -0.309266D-01 -0.228125D-01  0.272721D-02  0.129670D+00
     11 -0.714236D-03  0.197673D-02 -0.365123D-01  0.115717D-01  0.520813D-02
     12 -0.212953D-01 -0.993096D-02  0.113958D-02 -0.182252D-01  0.182043D-01
     13 -0.235140D-02 -0.170011D-02  0.378422D-02  0.358336D-02  0.529370D-02
     14  0.114063D-02  0.129863D-04 -0.512980D-05 -0.237965D-04  0.125878D-02
     15  0.778799D-02 -0.180696D-02  0.399018D-02  0.372309D-02 -0.296075D-02
     16  0.459796D-02 -0.590081D-02  0.227938D-02  0.344487D-02 -0.464976D-01
     17 -0.105013D-01 -0.299997D-02  0.595706D-02 -0.154278D-02  0.575793D-02
     18 -0.281728D-01 -0.377746D-02 -0.191664D-02  0.563013D-02 -0.887040D-02
     19 -0.913397D-04  0.000000D+00  0.121023D-04 -0.703007D-05  0.897888D-03
     20  0.215919D-03 -0.325768D-05  0.808307D-04  0.258537D-04  0.466382D-02
     21  0.225792D-02 -0.716163D-05  0.595789D-04  0.204057D-03  0.502170D-04
               11            12            13            14            15 
     11  0.139758D+00
     12 -0.296284D-01  0.816514D-01
     13  0.603074D-02 -0.110085D-02  0.434763D-01
     14 -0.445091D-02 -0.325839D-02 -0.724051D-02  0.690770D-01
     15  0.353664D-02  0.724185D-02 -0.133513D-01  0.928522D-02  0.325123D-01
     16 -0.269128D-02  0.859861D-02 -0.334113D-01  0.552305D-02  0.868295D-02
     17 -0.490671D-01 -0.530769D-02 -0.124675D-01 -0.413704D-01  0.852360D-02
     18  0.714018D-02 -0.219402D-01  0.481981D-02 -0.702570D-02 -0.260455D-01
     19  0.127711D-02 -0.117962D-03 -0.145528D-02  0.437857D-03 -0.282894D-03
     20  0.671677D-02  0.740725D-03 -0.736127D-02  0.225781D-02 -0.681782D-03
     21  0.344068D-03  0.443006D-02  0.566865D-03 -0.296345D-04  0.256606D-02
               16            17            18            19            20 
     16  0.189276D+00
     17  0.406325D-02  0.187621D+00
     18 -0.202008D-01 -0.519950D-02  0.139502D+00
     19 -0.365107D-01 -0.457260D-03  0.162878D-03  0.364281D-01
     20 -0.597390D-03 -0.376883D-01  0.386433D-02 -0.189367D-02  0.264340D-01
     21 -0.782711D-02  0.503348D-02 -0.269532D-01  0.106303D-02 -0.202802D-02
               21 
     21  0.121680D-01
 Leave Link  716 at Mon Nov 13 12:07:12 2023, MaxMem=  1879048192 cpu:               1.1 elap:               0.1
 (Enter /home/sekinelabo/g16/l103.exe)

 GradGradGradGradGradGradGradGradGradGradGradGradGradGradGradGradGradGrad
 Berny optimization.
 Search for a local minimum.
 Step number   1 out of a maximum of    2
 All quantities printed in internal units (Hartrees-Bohrs-Radians)
 Second derivative matrix not updated -- first step.
 ITU=  0
     Eigenvalues ---    0.01222   0.03118   0.03502   0.04185   0.05160
     Eigenvalues ---    0.06137   0.06721   0.10305   0.11814   0.13640
     Eigenvalues ---    0.16190   0.18571   0.19572   0.23259   0.24832
 Quadratic step=4.213D-01 exceeds max=3.000D-01 adjusted using Lamda=-1.970D-02.
 Angle between NR and scaled steps=   7.74 degrees.
 Angle between quadratic step and forces=  26.37 degrees.
 Linear search not attempted -- first point.
 B after Tr=     0.000000    0.000000    0.000000
         Rot=    1.000000   -0.000000   -0.000000   -0.000000 Ang=   0.00 deg.
 Variable       Old X    -DE/DX   Delta X   Delta X   Delta X     New X
                                 (Linear)    (Quad)   (Total)
    X1       10.14104   0.00310   0.00000   0.05390   0.05390  10.19494
    Y1        6.89262   0.00372   0.00000   0.03261   0.03261   6.92524
    Z1        0.00000  -0.01237   0.00000  -0.05917  -0.05917  -0.05917
    X2        5.24249  -0.00630   0.00000  -0.07169  -0.07169   5.17080
    Y2        0.00000  -0.00693   0.00000  -0.10061  -0.10061  -0.10061
    Z2        1.74031  -0.00271   0.00000  -0.01956  -0.01956   1.72075
    X3       14.63227   0.01061   0.00000   0.15374   0.15374  14.78600
    Y3        5.79880   0.00278   0.00000   0.01666   0.01666   5.81546
    Z3        3.28613   0.00405   0.00000   0.04023   0.04023   3.32636
    X4       10.21311   0.00737   0.00000   0.06460   0.06460  10.27771
    Y4        2.25904  -0.01177   0.00000  -0.08756  -0.08756   2.17148
    Z4        3.25249   0.00474   0.00000   0.01170   0.01170   3.26419
    X5        7.25329  -0.00285   0.00000  -0.04138  -0.04138   7.21191
    Y5       10.91651   0.00944   0.00000   0.11100   0.11100  11.02751
    Z5        2.74248   0.00165   0.00000  -0.00847  -0.00847   2.73401
    X6        5.56568  -0.00780   0.00000  -0.05226  -0.05226   5.51342
    Y6        5.50802   0.00142   0.00000   0.00136   0.00136   5.50938
    Z6        3.05283   0.00449   0.00000   0.01474   0.01474   3.06758
    X7        0.00000  -0.00412   0.00000  -0.10691  -0.10691  -0.10691
    Y7        6.58306   0.00133   0.00000   0.02653   0.02653   6.60959
    Z7        2.72488   0.00015   0.00000   0.02053   0.02053   2.74540
         Item               Value     Threshold  Converged?
 Maximum Force            0.012365     0.000450     NO 
 RMS     Force            0.006268     0.000300     NO 
 Maximum Displacement     0.153737     0.001800     NO 
 RMS     Displacement     0.065549     0.001200     NO 
 Predicted change in Energy=-4.753768D-03
 GradGradGradGradGradGradGradGradGradGradGradGradGradGradGradGradGradGrad

 Leave Link  103 at Mon Nov 13 12:07:12 2023, MaxMem=  1879048192 cpu:               2.6 elap:               0.2
 (Enter /home/sekinelabo/g16/l9999.exe)
 1\1\GINC-SEKINELABO-XA7R-R37\Force\UB3LYP\6-311+G(d)\Na7(2)\SEKINELABO
 \13-Nov-2023\0\\#P B3LYP/6-311+g(d) force\\Gaussian input prepared by 
 ASE\\0,2\Na,5.3664087722,3.6474197321,0.\Na,2.7742059416,0.,0.92093203
 91\Na,7.743062163,3.0685935513,1.7389470658\Na,5.4045425226,1.19543306
 02,1.7211421841\Na,3.8382781793,5.7767671589,1.4512602289\Na,2.9452329
 903,2.9147170739,1.6154886125\Na,0.,3.4836078308,1.4419429766\\Version
 =ES64L-G16RevB.01\State=2-A\HF=-1136.1029426\S2=0.776557\S2-1=0.\S2A=0
 .750234\RMSD=8.648e-09\RMSF=6.268e-03\Dipole=0.0992782,0.0880445,-0.21
 51351\Quadrupole=-3.720526,3.8507963,-0.1302702,3.533388,1.3241918,1.7
 084073\PG=C01 [X(Na7)]\\@


 I LOVE THOSE WHO LONG FOR THE IMPOSSIBLE.

                                 -- GOETHE
 Job cpu time:       0 days  0 hours  4 minutes 27.4 seconds.
 Elapsed time:       0 days  0 hours  0 minutes 22.1 seconds.
 File lengths (MBytes):  RWF=     32 Int=      0 D2E=      0 Chk=      4 Scr=      1
 Normal termination of Gaussian 16 at Mon Nov 13 12:07:12 2023.
