 Entering Gaussian System, Link 0=g16
 Initial command:
 /home/sekinelabo/g16/l1.exe "/home/sekinelabo/g16temp/Gau-3975132.inp" -scrdir="/home/sekinelabo/g16temp/"
 Entering Link 1 = /home/sekinelabo/g16/l1.exe PID=   3975134.
  
 Copyright (c) 1988-2017, Gaussian, Inc.  All Rights Reserved.
  
 This is part of the Gaussian(R) 16 program.  It is based on
 the Gaussian(R) 09 system (copyright 2009, Gaussian, Inc.),
 the Gaussian(R) 03 system (copyright 2003, Gaussian, Inc.),
 the Gaussian(R) 98 system (copyright 1998, Gaussian, Inc.),
 the Gaussian(R) 94 system (copyright 1995, Gaussian, Inc.),
 the Gaussian 92(TM) system (copyright 1992, Gaussian, Inc.),
 the Gaussian 90(TM) system (copyright 1990, Gaussian, Inc.),
 the Gaussian 88(TM) system (copyright 1988, Gaussian, Inc.),
 the Gaussian 86(TM) system (copyright 1986, Carnegie Mellon
 University), and the Gaussian 82(TM) system (copyright 1983,
 Carnegie Mellon University). Gaussian is a federally registered
 trademark of Gaussian, Inc.
  
 This software contains proprietary and confidential information,
 including trade secrets, belonging to Gaussian, Inc.
  
 This software is provided under written license and may be
 used, copied, transmitted, or stored only in accord with that
 written license.
  
 The following legend is applicable only to US Government
 contracts under FAR:
  
                    RESTRICTED RIGHTS LEGEND
  
 Use, reproduction and disclosure by the US Government is
 subject to restrictions as set forth in subparagraphs (a)
 and (c) of the Commercial Computer Software - Restricted
 Rights clause in FAR 52.227-19.
  
 Gaussian, Inc.
 340 Quinnipiac St., Bldg. 40, Wallingford CT 06492
  
  
 ---------------------------------------------------------------
 Warning -- This program may not be used in any manner that
 competes with the business of Gaussian, Inc. or will provide
 assistance to any competitor of Gaussian, Inc.  The licensee
 of this program is prohibited from giving any competitor of
 Gaussian, Inc. access to this program.  By using this program,
 the user acknowledges that Gaussian, Inc. is engaged in the
 business of creating and licensing software in the field of
 computational chemistry and represents and warrants to the
 licensee that it is not a competitor of Gaussian, Inc. and that
 it will not use this program in any manner prohibited above.
 ---------------------------------------------------------------
  

 Cite this work as:
 Gaussian 16, Revision B.01,
 M. J. Frisch, G. W. Trucks, H. B. Schlegel, G. E. Scuseria, 
 M. A. Robb, J. R. Cheeseman, G. Scalmani, V. Barone, 
 G. A. Petersson, H. Nakatsuji, X. Li, M. Caricato, A. V. Marenich, 
 J. Bloino, B. G. Janesko, R. Gomperts, B. Mennucci, H. P. Hratchian, 
 J. V. Ortiz, A. F. Izmaylov, J. L. Sonnenberg, D. Williams-Young, 
 F. Ding, F. Lipparini, F. Egidi, J. Goings, B. Peng, A. Petrone, 
 T. Henderson, D. Ranasinghe, V. G. Zakrzewski, J. Gao, N. Rega, 
 G. Zheng, W. Liang, M. Hada, M. Ehara, K. Toyota, R. Fukuda, 
 J. Hasegawa, M. Ishida, T. Nakajima, Y. Honda, O. Kitao, H. Nakai, 
 T. Vreven, K. Throssell, J. A. Montgomery, Jr., J. E. Peralta, 
 F. Ogliaro, M. J. Bearpark, J. J. Heyd, E. N. Brothers, K. N. Kudin, 
 V. N. Staroverov, T. A. Keith, R. Kobayashi, J. Normand, 
 K. Raghavachari, A. P. Rendell, J. C. Burant, S. S. Iyengar, 
 J. Tomasi, M. Cossi, J. M. Millam, M. Klene, C. Adamo, R. Cammi, 
 J. W. Ochterski, R. L. Martin, K. Morokuma, O. Farkas, 
 J. B. Foresman, and D. J. Fox, Gaussian, Inc., Wallingford CT, 2016.
 
 ******************************************
 Gaussian 16:  ES64L-G16RevB.01 20-Dec-2017
                13-Nov-2023 
 ******************************************
 %mem=14GB
 %chk=checkpoint.chk
 %nprocshared=16
 Will use up to   16 processors via shared memory.
 -------------------------
 #P B3LYP/6-311+g(d) force
 -------------------------
 1/10=7,30=1,38=1/1,3;
 2/12=2,17=6,18=5,40=1/2;
 3/5=4,6=6,7=11,11=2,25=1,30=1,71=1,74=-5/1,2,3;
 4//1;
 5/5=2,38=5/2;
 6/7=2,8=2,9=2,10=2,28=1/1;
 7/29=1/1,2,3,16;
 1/10=7,30=1/3;
 99//99;
 Leave Link    1 at Mon Nov 13 12:09:33 2023, MaxMem=  1879048192 cpu:               0.3 elap:               0.0
 (Enter /home/sekinelabo/g16/l101.exe)
 ------------------------------
 Gaussian input prepared by ASE
 ------------------------------
 Symbolic Z-matrix:
 Charge =  0 Multiplicity = 2
 Na                    2.09453   1.32409   3.23045 
 Na                    2.65911   0.51778   0.32324 
 Na                    4.73983   1.57036   2.05566 
 Na                    2.74669   3.49835   1.18343 
 Na                    0.52622   2.3031    0. 
 Na                    0.        3.05034   2.62354 
 Na                    0.0271    0.        1.89397 
 
 ITRead=  0  0  0  0  0  0  0
 MicOpt= -1 -1 -1 -1 -1 -1 -1
 NAtoms=      7 NQM=        7 NQMF=       0 NMMI=      0 NMMIF=      0
                NMic=       0 NMicF=      0.
                    Isotopes and Nuclear Properties:
 (Nuclear quadrupole moments (NQMom) in fm**2, nuclear magnetic moments (NMagM)
  in nuclear magnetons)

  Atom         1           2           3           4           5           6           7
 IAtWgt=          23          23          23          23          23          23          23
 AtmWgt=  22.9897697  22.9897697  22.9897697  22.9897697  22.9897697  22.9897697  22.9897697
 NucSpn=           3           3           3           3           3           3           3
 AtZEff=  -0.0000000  -0.0000000  -0.0000000  -0.0000000  -0.0000000  -0.0000000  -0.0000000
 NQMom=   10.4000000  10.4000000  10.4000000  10.4000000  10.4000000  10.4000000  10.4000000
 NMagM=    2.2175200   2.2175200   2.2175200   2.2175200   2.2175200   2.2175200   2.2175200
 AtZNuc=  11.0000000  11.0000000  11.0000000  11.0000000  11.0000000  11.0000000  11.0000000
 Leave Link  101 at Mon Nov 13 12:09:33 2023, MaxMem=  1879048192 cpu:               2.6 elap:               0.2
 (Enter /home/sekinelabo/g16/l103.exe)

 GradGradGradGradGradGradGradGradGradGradGradGradGradGradGradGradGradGrad
 Berny optimization.
 Initialization pass.
 Trust Radius=3.00D-01 FncErr=1.00D-07 GrdErr=1.00D-07 EigMax=2.50D+02 EigMin=1.00D-04
 Number of steps in this run=      2 maximum allowed number of steps=      2.
 GradGradGradGradGradGradGradGradGradGradGradGradGradGradGradGradGradGrad

 Leave Link  103 at Mon Nov 13 12:09:33 2023, MaxMem=  1879048192 cpu:               0.2 elap:               0.0
 (Enter /home/sekinelabo/g16/l202.exe)
                          Input orientation:                          
 ---------------------------------------------------------------------
 Center     Atomic      Atomic             Coordinates (Angstroms)
 Number     Number       Type             X           Y           Z
 ---------------------------------------------------------------------
      1         11           0        2.094535    1.324092    3.230449
      2         11           0        2.659115    0.517777    0.323242
      3         11           0        4.739833    1.570359    2.055663
      4         11           0        2.746687    3.498346    1.183435
      5         11           0        0.526220    2.303096    0.000000
      6         11           0        0.000000    3.050342    2.623540
      7         11           0        0.027103    0.000000    1.893973
 ---------------------------------------------------------------------
                    Distance matrix (angstroms):
                    1          2          3          4          5
     1  Na   0.000000
     2  Na   3.069324   0.000000
     3  Na   2.904887   2.904927   0.000000
     4  Na   3.056624   3.103449   2.906983   0.000000
     5  Na   3.722077   2.800194   4.745228   2.785608   0.000000
     6  Na   2.781250   4.333146   4.997885   3.133513   2.778174
     7  Na   2.795293   3.108501   4.970110   4.487697   3.023326
                    6          7
     6  Na   0.000000
     7  Na   3.136493   0.000000
 Stoichiometry    Na7(2)
 Framework group  C1[X(Na7)]
 Deg. of freedom    15
 Full point group                 C1      NOp   1
 Largest Abelian subgroup         C1      NOp   1
 Largest concise Abelian subgroup C1      NOp   1
                         Standard orientation:                         
 ---------------------------------------------------------------------
 Center     Atomic      Atomic             Coordinates (Angstroms)
 Number     Number       Type             X           Y           Z
 ---------------------------------------------------------------------
      1         11           0       -0.266893   -0.427909   -1.614691
      2         11           0       -0.831473   -1.234225    1.292516
      3         11           0       -2.912191   -0.181643   -0.439906
      4         11           0       -0.919045    1.746344    0.432323
      5         11           0        1.301421    0.551094    1.615757
      6         11           0        1.827642    1.298340   -1.007783
      7         11           0        1.800539   -1.752002   -0.278216
 ---------------------------------------------------------------------
 Rotational constants (GHZ):           1.2071830           0.8225259           0.7791989
 Leave Link  202 at Mon Nov 13 12:09:33 2023, MaxMem=  1879048192 cpu:               0.1 elap:               0.0
 (Enter /home/sekinelabo/g16/l301.exe)
 Standard basis: 6-311+G(d) (5D, 7F)
 Ernie: Thresh=  0.10000D-02 Tol=  0.10000D-05 Strict=F.
 There are   217 symmetry adapted cartesian basis functions of A   symmetry.
 There are   210 symmetry adapted basis functions of A   symmetry.
   210 basis functions,   350 primitive gaussians,   217 cartesian basis functions
    39 alpha electrons       38 beta electrons
       nuclear repulsion energy       411.4433442589 Hartrees.
 IExCor=  402 DFT=T Ex+Corr=B3LYP ExCW=0 ScaHFX=  0.200000
 ScaDFX=  0.800000  0.720000  1.000000  0.810000 ScalE2=  1.000000  1.000000
 IRadAn=      5 IRanWt=     -1 IRanGd=            0 ICorTp=0 IEmpDi=  4
 NAtoms=    7 NActive=    7 NUniq=    7 SFac= 1.00D+00 NAtFMM=   60 NAOKFM=F Big=F
 Integral buffers will be    131072 words long.
 Raffenetti 2 integral format.
 Two-electron integral symmetry is turned on.
 Leave Link  301 at Mon Nov 13 12:09:33 2023, MaxMem=  1879048192 cpu:               0.5 elap:               0.0
 (Enter /home/sekinelabo/g16/l302.exe)
 NPDir=0 NMtPBC=     1 NCelOv=     1 NCel=       1 NClECP=     1 NCelD=      1
         NCelK=      1 NCelE2=     1 NClLst=     1 CellRange=     0.0.
 One-electron integrals computed using PRISM.
 One-electron integral symmetry used in STVInt
 NBasis=   210 RedAO= T EigKep=  1.97D-06  NBF=   210
 NBsUse=   210 1.00D-06 EigRej= -1.00D+00 NBFU=   210
 Precomputing XC quadrature grid using
 IXCGrd= 4 IRadAn=           5 IRanWt=          -1 IRanGd=           0 AccXCQ= 0.00D+00.
 Generated NRdTot=       0 NPtTot=           0 NUsed=           0 NTot=          32
 NSgBfM=   211   211   211   211   211 MxSgAt=     7 MxSgA2=     7.
 Leave Link  302 at Mon Nov 13 12:09:33 2023, MaxMem=  1879048192 cpu:               2.1 elap:               0.1
 (Enter /home/sekinelabo/g16/l303.exe)
 DipDrv:  MaxL=1.
 Leave Link  303 at Mon Nov 13 12:09:33 2023, MaxMem=  1879048192 cpu:               0.6 elap:               0.0
 (Enter /home/sekinelabo/g16/l401.exe)
 ExpMin= 7.60D-03 ExpMax= 3.62D+04 ExpMxC= 1.21D+03 IAcc=3 IRadAn=         5 AccDes= 0.00D+00
 Harris functional with IExCor=  402 and IRadAn=       5 diagonalized for initial guess.
 HarFok:  IExCor=  402 AccDes= 0.00D+00 IRadAn=         5 IDoV= 1 UseB2=F ITyADJ=14
 ICtDFT=  3500011 ScaDFX=  1.000000  1.000000  1.000000  1.000000
 FoFCou: FMM=F IPFlag=           0 FMFlag=      100000 FMFlg1=           0
         NFxFlg=           0 DoJE=T BraDBF=F KetDBF=T FulRan=T
         wScrn=  0.000000 ICntrl=       500 IOpCl=  0 I1Cent=   200000004 NGrid=           0
         NMat0=    1 NMatS0=      1 NMatT0=    0 NMatD0=    1 NMtDS0=    0 NMtDT0=    0
 Petite list used in FoFCou.
 Harris En= -1135.85666158027    
 JPrj=0 DoOrth=F DoCkMO=F.
 Initial guess <Sx>= 0.0000 <Sy>= 0.0000 <Sz>= 0.5000 <S**2>= 0.7500 S= 0.5000
 Leave Link  401 at Mon Nov 13 12:09:34 2023, MaxMem=  1879048192 cpu:               4.7 elap:               0.3
 (Enter /home/sekinelabo/g16/l502.exe)
 Keep R1 and R2 ints in memory in canonical form, NReq=507620388.
 FoFCou: FMM=F IPFlag=           0 FMFlag=           0 FMFlg1=           0
         NFxFlg=           0 DoJE=F BraDBF=F KetDBF=F FulRan=T
         wScrn=  0.000000 ICntrl=       600 IOpCl=  0 I1Cent=           0 NGrid=           0
         NMat0=    1 NMatS0=  22155 NMatT0=    0 NMatD0=    1 NMtDS0=    0 NMtDT0=    0
 Symmetry not used in FoFCou.
 Two-electron integral symmetry not used.
 UHF open shell SCF:
 Using DIIS extrapolation, IDIIS=  1040.
 NGot=  1879048192 LenX=  1388082348 LenY=  1388034818
 Requested convergence on RMS density matrix=1.00D-08 within 128 cycles.
 Requested convergence on MAX density matrix=1.00D-06.
 Requested convergence on             energy=1.00D-06.
 No special actions if energy rises.

 Cycle   1  Pass 1  IDiag  1:
 E= -1136.03527428747    
 DIIS: error= 1.61D-02 at cycle   1 NSaved=   1.
 NSaved= 1 IEnMin= 1 EnMin= -1136.03527428747     IErMin= 1 ErrMin= 1.61D-02
 ErrMax= 1.61D-02  0.00D+00 EMaxC= 1.00D-01 BMatC= 2.13D-01 BMatP= 2.13D-01
 IDIUse=3 WtCom= 8.39D-01 WtEn= 1.61D-01
 Coeff-Com:  0.100D+01
 Coeff-En:   0.100D+01
 Coeff:      0.100D+01
 Gap=     0.068 Goal=   None    Shift=    0.000
 Gap=     0.027 Goal=   None    Shift=    0.000
 GapD=    0.027 DampG=0.250 DampE=0.500 DampFc=0.2500 IDamp=-1.
 Damping current iteration by 2.50D-01
 RMSDP=8.52D-02 MaxDP=8.59D+00              OVMax= 2.63D-01

 Cycle   2  Pass 1  IDiag  1:
 E= -1136.05207633196     Delta-E=       -0.016802044490 Rises=F Damp=T
 DIIS: error= 9.86D-03 at cycle   2 NSaved=   2.
 NSaved= 2 IEnMin= 2 EnMin= -1136.05207633196     IErMin= 2 ErrMin= 9.86D-03
 ErrMax= 9.86D-03  0.00D+00 EMaxC= 1.00D-01 BMatC= 7.99D-02 BMatP= 2.13D-01
 IDIUse=3 WtCom= 9.01D-01 WtEn= 9.86D-02
 Coeff-Com: -0.126D+01 0.226D+01
 Coeff-En:   0.000D+00 0.100D+01
 Coeff:     -0.114D+01 0.214D+01
 Gap=     0.068 Goal=   None    Shift=    0.000
 Gap=     0.031 Goal=   None    Shift=    0.000
 RMSDP=3.92D-02 MaxDP=4.15D+00 DE=-1.68D-02 OVMax= 1.73D-01

 Cycle   3  Pass 1  IDiag  1:
 E= -1136.08068012277     Delta-E=       -0.028603790814 Rises=F Damp=F
 DIIS: error= 3.70D-03 at cycle   3 NSaved=   3.
 NSaved= 3 IEnMin= 3 EnMin= -1136.08068012277     IErMin= 3 ErrMin= 3.70D-03
 ErrMax= 3.70D-03  0.00D+00 EMaxC= 1.00D-01 BMatC= 3.76D-03 BMatP= 7.99D-02
 IDIUse=3 WtCom= 9.63D-01 WtEn= 3.70D-02
 Coeff-Com: -0.219D+00 0.413D+00 0.806D+00
 Coeff-En:   0.000D+00 0.000D+00 0.100D+01
 Coeff:     -0.211D+00 0.397D+00 0.813D+00
 Gap=     0.063 Goal=   None    Shift=    0.000
 Gap=     0.031 Goal=   None    Shift=    0.000
 RMSDP=1.49D-02 MaxDP=1.30D+00 DE=-2.86D-02 OVMax= 5.18D-02

 Cycle   4  Pass 1  IDiag  1:
 E= -1136.08115035426     Delta-E=       -0.000470231491 Rises=F Damp=F
 DIIS: error= 3.33D-03 at cycle   4 NSaved=   4.
 NSaved= 4 IEnMin= 4 EnMin= -1136.08115035426     IErMin= 4 ErrMin= 3.33D-03
 ErrMax= 3.33D-03  0.00D+00 EMaxC= 1.00D-01 BMatC= 2.59D-03 BMatP= 3.76D-03
 IDIUse=3 WtCom= 9.67D-01 WtEn= 3.33D-02
 Coeff-Com:  0.164D-01-0.213D-01 0.455D+00 0.549D+00
 Coeff-En:   0.000D+00 0.000D+00 0.435D+00 0.565D+00
 Coeff:      0.158D-01-0.206D-01 0.455D+00 0.550D+00
 Gap=     0.065 Goal=   None    Shift=    0.000
 Gap=     0.032 Goal=   None    Shift=    0.000
 RMSDP=4.72D-03 MaxDP=3.86D-01 DE=-4.70D-04 OVMax= 2.70D-02

 Cycle   5  Pass 1  IDiag  1:
 E= -1136.08255879380     Delta-E=       -0.001408439539 Rises=F Damp=F
 DIIS: error= 2.67D-04 at cycle   5 NSaved=   5.
 NSaved= 5 IEnMin= 5 EnMin= -1136.08255879380     IErMin= 5 ErrMin= 2.67D-04
 ErrMax= 2.67D-04  0.00D+00 EMaxC= 1.00D-01 BMatC= 2.13D-05 BMatP= 2.59D-03
 IDIUse=3 WtCom= 9.97D-01 WtEn= 2.67D-03
 Coeff-Com:  0.701D-02-0.957D-02 0.220D+00 0.266D+00 0.516D+00
 Coeff-En:   0.000D+00 0.000D+00 0.000D+00 0.000D+00 0.100D+01
 Coeff:      0.699D-02-0.954D-02 0.220D+00 0.266D+00 0.517D+00
 Gap=     0.065 Goal=   None    Shift=    0.000
 Gap=     0.032 Goal=   None    Shift=    0.000
 RMSDP=4.32D-04 MaxDP=2.71D-02 DE=-1.41D-03 OVMax= 6.53D-03

 Cycle   6  Pass 1  IDiag  1:
 E= -1136.08257535750     Delta-E=       -0.000016563700 Rises=F Damp=F
 DIIS: error= 1.56D-04 at cycle   6 NSaved=   6.
 NSaved= 6 IEnMin= 6 EnMin= -1136.08257535750     IErMin= 6 ErrMin= 1.56D-04
 ErrMax= 1.56D-04  0.00D+00 EMaxC= 1.00D-01 BMatC= 7.82D-06 BMatP= 2.13D-05
 IDIUse=3 WtCom= 9.98D-01 WtEn= 1.56D-03
 Coeff-Com: -0.366D-02 0.444D-02-0.490D-01-0.623D-01 0.376D+00 0.735D+00
 Coeff-En:   0.000D+00 0.000D+00 0.000D+00 0.000D+00 0.266D+00 0.734D+00
 Coeff:     -0.366D-02 0.444D-02-0.489D-01-0.622D-01 0.376D+00 0.735D+00
 Gap=     0.065 Goal=   None    Shift=    0.000
 Gap=     0.032 Goal=   None    Shift=    0.000
 RMSDP=4.02D-04 MaxDP=2.68D-02 DE=-1.66D-05 OVMax= 3.72D-03

 Cycle   7  Pass 1  IDiag  1:
 E= -1136.08258605164     Delta-E=       -0.000010694136 Rises=F Damp=F
 DIIS: error= 2.55D-05 at cycle   7 NSaved=   7.
 NSaved= 7 IEnMin= 7 EnMin= -1136.08258605164     IErMin= 7 ErrMin= 2.55D-05
 ErrMax= 2.55D-05  0.00D+00 EMaxC= 1.00D-01 BMatC= 2.03D-07 BMatP= 7.82D-06
 IDIUse=1 WtCom= 1.00D+00 WtEn= 0.00D+00
 Coeff-Com: -0.515D-05 0.197D-04-0.172D-01-0.183D-01-0.883D-01-0.758D-01
 Coeff-Com:  0.120D+01
 Coeff:     -0.515D-05 0.197D-04-0.172D-01-0.183D-01-0.883D-01-0.758D-01
 Coeff:      0.120D+01
 Gap=     0.065 Goal=   None    Shift=    0.000
 Gap=     0.032 Goal=   None    Shift=    0.000
 RMSDP=1.68D-04 MaxDP=1.28D-02 DE=-1.07D-05 OVMax= 3.25D-03

 Cycle   8  Pass 1  IDiag  1:
 E= -1136.08258729414     Delta-E=       -0.000001242502 Rises=F Damp=F
 DIIS: error= 1.87D-05 at cycle   8 NSaved=   8.
 NSaved= 8 IEnMin= 8 EnMin= -1136.08258729414     IErMin= 8 ErrMin= 1.87D-05
 ErrMax= 1.87D-05  0.00D+00 EMaxC= 1.00D-01 BMatC= 1.18D-07 BMatP= 2.03D-07
 IDIUse=1 WtCom= 1.00D+00 WtEn= 0.00D+00
 Coeff-Com:  0.505D-03-0.625D-03-0.410D-02-0.304D-02-0.856D-01-0.113D+00
 Coeff-Com:  0.620D+00 0.586D+00
 Coeff:      0.505D-03-0.625D-03-0.410D-02-0.304D-02-0.856D-01-0.113D+00
 Coeff:      0.620D+00 0.586D+00
 Gap=     0.065 Goal=   None    Shift=    0.000
 Gap=     0.032 Goal=   None    Shift=    0.000
 RMSDP=5.40D-05 MaxDP=3.80D-03 DE=-1.24D-06 OVMax= 1.55D-03

 Cycle   9  Pass 1  IDiag  1:
 E= -1136.08258765442     Delta-E=       -0.000000360281 Rises=F Damp=F
 DIIS: error= 1.64D-05 at cycle   9 NSaved=   9.
 NSaved= 9 IEnMin= 9 EnMin= -1136.08258765442     IErMin= 9 ErrMin= 1.64D-05
 ErrMax= 1.64D-05  0.00D+00 EMaxC= 1.00D-01 BMatC= 4.92D-08 BMatP= 1.18D-07
 IDIUse=1 WtCom= 1.00D+00 WtEn= 0.00D+00
 Coeff-Com:  0.379D-03-0.477D-03 0.418D-02 0.527D-02-0.200D-01-0.425D-01
 Coeff-Com: -0.688D-01 0.343D+00 0.779D+00
 Coeff:      0.379D-03-0.477D-03 0.418D-02 0.527D-02-0.200D-01-0.425D-01
 Coeff:     -0.688D-01 0.343D+00 0.779D+00
 Gap=     0.065 Goal=   None    Shift=    0.000
 Gap=     0.032 Goal=   None    Shift=    0.000
 RMSDP=5.54D-05 MaxDP=3.58D-03 DE=-3.60D-07 OVMax= 2.01D-03

 Cycle  10  Pass 1  IDiag  1:
 E= -1136.08258799865     Delta-E=       -0.000000344227 Rises=F Damp=F
 DIIS: error= 1.44D-05 at cycle  10 NSaved=  10.
 NSaved=10 IEnMin=10 EnMin= -1136.08258799865     IErMin=10 ErrMin= 1.44D-05
 ErrMax= 1.44D-05  0.00D+00 EMaxC= 1.00D-01 BMatC= 2.30D-08 BMatP= 4.92D-08
 IDIUse=1 WtCom= 1.00D+00 WtEn= 0.00D+00
 Coeff-Com: -0.748D-04 0.103D-03 0.284D-02 0.260D-02 0.192D-01 0.175D-01
 Coeff-Com: -0.200D+00-0.138D+00 0.206D+00 0.109D+01
 Coeff:     -0.748D-04 0.103D-03 0.284D-02 0.260D-02 0.192D-01 0.175D-01
 Coeff:     -0.200D+00-0.138D+00 0.206D+00 0.109D+01
 Gap=     0.065 Goal=   None    Shift=    0.000
 Gap=     0.032 Goal=   None    Shift=    0.000
 RMSDP=6.01D-05 MaxDP=3.92D-03 DE=-3.44D-07 OVMax= 2.49D-03

 Cycle  11  Pass 1  IDiag  1:
 E= -1136.08258832101     Delta-E=       -0.000000322360 Rises=F Damp=F
 DIIS: error= 1.21D-05 at cycle  11 NSaved=  11.
 NSaved=11 IEnMin=11 EnMin= -1136.08258832101     IErMin=11 ErrMin= 1.21D-05
 ErrMax= 1.21D-05  0.00D+00 EMaxC= 1.00D-01 BMatC= 1.46D-08 BMatP= 2.30D-08
 IDIUse=1 WtCom= 1.00D+00 WtEn= 0.00D+00
 Coeff-Com: -0.269D-03 0.340D-03-0.200D-02-0.278D-02 0.162D-01 0.327D-01
 Coeff-Com:  0.548D-02-0.262D+00-0.475D+00 0.266D+00 0.142D+01
 Coeff:     -0.269D-03 0.340D-03-0.200D-02-0.278D-02 0.162D-01 0.327D-01
 Coeff:      0.548D-02-0.262D+00-0.475D+00 0.266D+00 0.142D+01
 Gap=     0.065 Goal=   None    Shift=    0.000
 Gap=     0.032 Goal=   None    Shift=    0.000
 RMSDP=7.62D-05 MaxDP=5.10D-03 DE=-3.22D-07 OVMax= 3.60D-03

 Cycle  12  Pass 1  IDiag  1:
 E= -1136.08258867583     Delta-E=       -0.000000354819 Rises=F Damp=F
 DIIS: error= 8.91D-06 at cycle  12 NSaved=  12.
 NSaved=12 IEnMin=12 EnMin= -1136.08258867583     IErMin=12 ErrMin= 8.91D-06
 ErrMax= 8.91D-06  0.00D+00 EMaxC= 1.00D-01 BMatC= 8.59D-09 BMatP= 1.46D-08
 IDIUse=1 WtCom= 1.00D+00 WtEn= 0.00D+00
 Coeff-Com:  0.436D-04-0.644D-04-0.190D-02-0.189D-02-0.873D-02-0.329D-02
 Coeff-Com:  0.131D+00-0.312D-02-0.232D+00-0.461D+00 0.221D+00 0.136D+01
 Coeff:      0.436D-04-0.644D-04-0.190D-02-0.189D-02-0.873D-02-0.329D-02
 Coeff:      0.131D+00-0.312D-02-0.232D+00-0.461D+00 0.221D+00 0.136D+01
 Gap=     0.065 Goal=   None    Shift=    0.000
 Gap=     0.032 Goal=   None    Shift=    0.000
 RMSDP=6.91D-05 MaxDP=5.67D-03 DE=-3.55D-07 OVMax= 3.31D-03

 Cycle  13  Pass 1  IDiag  1:
 E= -1136.08258890810     Delta-E=       -0.000000232269 Rises=F Damp=F
 DIIS: error= 6.07D-06 at cycle  13 NSaved=  13.
 NSaved=13 IEnMin=13 EnMin= -1136.08258890810     IErMin=13 ErrMin= 6.07D-06
 ErrMax= 6.07D-06  0.00D+00 EMaxC= 1.00D-01 BMatC= 7.42D-09 BMatP= 8.59D-09
 IDIUse=1 WtCom= 1.00D+00 WtEn= 0.00D+00
 Coeff-Com:  0.327D-03-0.421D-03-0.310D-03 0.476D-03-0.267D-01-0.368D-01
 Coeff-Com:  0.153D+00 0.248D+00 0.221D+00-0.719D+00-0.124D+01 0.142D+01
 Coeff-Com:  0.985D+00
 Coeff:      0.327D-03-0.421D-03-0.310D-03 0.476D-03-0.267D-01-0.368D-01
 Coeff:      0.153D+00 0.248D+00 0.221D+00-0.719D+00-0.124D+01 0.142D+01
 Coeff:      0.985D+00
 Gap=     0.065 Goal=   None    Shift=    0.000
 Gap=     0.032 Goal=   None    Shift=    0.000
 RMSDP=8.15D-05 MaxDP=6.21D-03 DE=-2.32D-07 OVMax= 4.04D-03

 Cycle  14  Pass 1  IDiag  1:
 E= -1136.08258908212     Delta-E=       -0.000000174022 Rises=F Damp=F
 DIIS: error= 2.70D-06 at cycle  14 NSaved=  14.
 NSaved=14 IEnMin=14 EnMin= -1136.08258908212     IErMin=14 ErrMin= 2.70D-06
 ErrMax= 2.70D-06  0.00D+00 EMaxC= 1.00D-01 BMatC= 1.30D-09 BMatP= 7.42D-09
 IDIUse=1 WtCom= 1.00D+00 WtEn= 0.00D+00
 Coeff-Com: -0.780D-04 0.108D-03 0.473D-03 0.419D-03 0.650D-02 0.663D-02
 Coeff-Com: -0.677D-01-0.141D-01 0.982D-01 0.238D+00-0.296D-01-0.697D+00
 Coeff-Com: -0.278D-01 0.149D+01
 Coeff:     -0.780D-04 0.108D-03 0.473D-03 0.419D-03 0.650D-02 0.663D-02
 Coeff:     -0.677D-01-0.141D-01 0.982D-01 0.238D+00-0.296D-01-0.697D+00
 Coeff:     -0.278D-01 0.149D+01
 Gap=     0.065 Goal=   None    Shift=    0.000
 Gap=     0.032 Goal=   None    Shift=    0.000
 RMSDP=4.47D-05 MaxDP=3.51D-03 DE=-1.74D-07 OVMax= 2.22D-03

 Cycle  15  Pass 1  IDiag  1:
 E= -1136.08258912385     Delta-E=       -0.000000041727 Rises=F Damp=F
 DIIS: error= 8.68D-07 at cycle  15 NSaved=  15.
 NSaved=15 IEnMin=15 EnMin= -1136.08258912385     IErMin=15 ErrMin= 8.68D-07
 ErrMax= 8.68D-07  0.00D+00 EMaxC= 1.00D-01 BMatC= 2.63D-10 BMatP= 1.30D-09
 IDIUse=1 WtCom= 1.00D+00 WtEn= 0.00D+00
 Coeff-Com: -0.667D-04 0.849D-04 0.831D-04-0.209D-03 0.602D-02 0.883D-02
 Coeff-Com: -0.290D-01-0.685D-01-0.844D-01 0.167D+00 0.338D+00-0.274D+00
 Coeff-Com: -0.256D+00-0.282D+00 0.147D+01
 Coeff:     -0.667D-04 0.849D-04 0.831D-04-0.209D-03 0.602D-02 0.883D-02
 Coeff:     -0.290D-01-0.685D-01-0.844D-01 0.167D+00 0.338D+00-0.274D+00
 Coeff:     -0.256D+00-0.282D+00 0.147D+01
 Gap=     0.065 Goal=   None    Shift=    0.000
 Gap=     0.032 Goal=   None    Shift=    0.000
 RMSDP=1.83D-05 MaxDP=1.32D-03 DE=-4.17D-08 OVMax= 8.83D-04

 Cycle  16  Pass 1  IDiag  1:
 E= -1136.08258912941     Delta-E=       -0.000000005568 Rises=F Damp=F
 DIIS: error= 2.67D-07 at cycle  16 NSaved=  16.
 NSaved=16 IEnMin=16 EnMin= -1136.08258912941     IErMin=16 ErrMin= 2.67D-07
 ErrMax= 2.67D-07  0.00D+00 EMaxC= 1.00D-01 BMatC= 3.15D-11 BMatP= 2.63D-10
 IDIUse=1 WtCom= 1.00D+00 WtEn= 0.00D+00
 Coeff-Com:  0.917D-05-0.139D-04-0.272D-04-0.478D-04-0.440D-03-0.441D-03
 Coeff-Com:  0.916D-02-0.831D-02-0.327D-01-0.242D-01 0.707D-01 0.849D-01
 Coeff-Com: -0.398D-01-0.306D+00 0.245D+00 0.100D+01
 Coeff:      0.917D-05-0.139D-04-0.272D-04-0.478D-04-0.440D-03-0.441D-03
 Coeff:      0.916D-02-0.831D-02-0.327D-01-0.242D-01 0.707D-01 0.849D-01
 Coeff:     -0.398D-01-0.306D+00 0.245D+00 0.100D+01
 Gap=     0.065 Goal=   None    Shift=    0.000
 Gap=     0.032 Goal=   None    Shift=    0.000
 RMSDP=3.37D-06 MaxDP=2.28D-04 DE=-5.57D-09 OVMax= 1.31D-04

 Cycle  17  Pass 1  IDiag  1:
 E= -1136.08258912965     Delta-E=       -0.000000000238 Rises=F Damp=F
 DIIS: error= 1.17D-07 at cycle  17 NSaved=  17.
 NSaved=17 IEnMin=17 EnMin= -1136.08258912965     IErMin=17 ErrMin= 1.17D-07
 ErrMax= 1.17D-07  0.00D+00 EMaxC= 1.00D-01 BMatC= 5.86D-12 BMatP= 3.15D-11
 IDIUse=1 WtCom= 1.00D+00 WtEn= 0.00D+00
 Coeff-Com:  0.826D-05-0.109D-04-0.302D-04 0.135D-04-0.809D-03-0.886D-03
 Coeff-Com:  0.431D-02 0.774D-02 0.762D-02-0.248D-01-0.342D-01 0.454D-01
 Coeff-Com:  0.308D-01-0.438D-02-0.175D+00 0.207D+00 0.937D+00
 Coeff:      0.826D-05-0.109D-04-0.302D-04 0.135D-04-0.809D-03-0.886D-03
 Coeff:      0.431D-02 0.774D-02 0.762D-02-0.248D-01-0.342D-01 0.454D-01
 Coeff:      0.308D-01-0.438D-02-0.175D+00 0.207D+00 0.937D+00
 Gap=     0.065 Goal=   None    Shift=    0.000
 Gap=     0.032 Goal=   None    Shift=    0.000
 RMSDP=9.73D-07 MaxDP=6.97D-05 DE=-2.38D-10 OVMax= 1.20D-05

 Cycle  18  Pass 1  IDiag  1:
 E= -1136.08258912968     Delta-E=       -0.000000000028 Rises=F Damp=F
 DIIS: error= 3.66D-08 at cycle  18 NSaved=  18.
 NSaved=18 IEnMin=18 EnMin= -1136.08258912968     IErMin=18 ErrMin= 3.66D-08
 ErrMax= 3.66D-08  0.00D+00 EMaxC= 1.00D-01 BMatC= 5.84D-13 BMatP= 5.86D-12
 IDIUse=1 WtCom= 1.00D+00 WtEn= 0.00D+00
 Coeff-Com: -0.121D-05 0.192D-05-0.474D-05 0.173D-05 0.953D-05-0.369D-04
 Coeff-Com: -0.794D-03 0.132D-02 0.512D-02 0.305D-02-0.143D-01-0.889D-02
 Coeff-Com:  0.717D-02 0.421D-01-0.440D-01-0.150D+00 0.930D-01 0.107D+01
 Coeff:     -0.121D-05 0.192D-05-0.474D-05 0.173D-05 0.953D-05-0.369D-04
 Coeff:     -0.794D-03 0.132D-02 0.512D-02 0.305D-02-0.143D-01-0.889D-02
 Coeff:      0.717D-02 0.421D-01-0.440D-01-0.150D+00 0.930D-01 0.107D+01
 Gap=     0.065 Goal=   None    Shift=    0.000
 Gap=     0.032 Goal=   None    Shift=    0.000
 RMSDP=4.80D-07 MaxDP=2.84D-05 DE=-2.82D-11 OVMax= 1.97D-05

 Cycle  19  Pass 1  IDiag  1:
 E= -1136.08258912967     Delta-E=        0.000000000005 Rises=F Damp=F
 DIIS: error= 1.05D-08 at cycle  19 NSaved=  19.
 NSaved=19 IEnMin=18 EnMin= -1136.08258912968     IErMin=19 ErrMin= 1.05D-08
 ErrMax= 1.05D-08  0.00D+00 EMaxC= 1.00D-01 BMatC= 4.42D-14 BMatP= 5.84D-13
 IDIUse=1 WtCom= 1.00D+00 WtEn= 0.00D+00
 Coeff-Com: -0.432D-06 0.549D-06 0.465D-05 0.616D-07 0.683D-04 0.812D-04
 Coeff-Com: -0.370D-03-0.613D-03-0.609D-03 0.148D-02 0.302D-02-0.245D-02
 Coeff-Com: -0.253D-02-0.408D-03 0.134D-01-0.863D-02-0.686D-01-0.807D-01
 Coeff-Com:  0.115D+01
 Coeff:     -0.432D-06 0.549D-06 0.465D-05 0.616D-07 0.683D-04 0.812D-04
 Coeff:     -0.370D-03-0.613D-03-0.609D-03 0.148D-02 0.302D-02-0.245D-02
 Coeff:     -0.253D-02-0.408D-03 0.134D-01-0.863D-02-0.686D-01-0.807D-01
 Coeff:      0.115D+01
 Gap=     0.065 Goal=   None    Shift=    0.000
 Gap=     0.032 Goal=   None    Shift=    0.000
 RMSDP=1.04D-07 MaxDP=4.73D-06 DE= 5.46D-12 OVMax= 2.29D-06

 Cycle  20  Pass 1  IDiag  1:
 E= -1136.08258912967     Delta-E=        0.000000000004 Rises=F Damp=F
 DIIS: error= 4.93D-09 at cycle  20 NSaved=  20.
 NSaved=20 IEnMin=18 EnMin= -1136.08258912968     IErMin=20 ErrMin= 4.93D-09
 ErrMax= 4.93D-09  0.00D+00 EMaxC= 1.00D-01 BMatC= 8.37D-15 BMatP= 4.42D-14
 IDIUse=1 WtCom= 1.00D+00 WtEn= 0.00D+00
 Coeff-Com:  0.986D-07-0.169D-06 0.141D-05-0.233D-06 0.394D-05 0.133D-04
 Coeff-Com:  0.736D-04-0.242D-03-0.787D-03-0.190D-03 0.247D-02 0.370D-03
 Coeff-Com: -0.155D-02-0.514D-02 0.765D-02 0.153D-01-0.252D-01-0.120D+00
 Coeff-Com:  0.143D+00 0.985D+00
 Coeff:      0.986D-07-0.169D-06 0.141D-05-0.233D-06 0.394D-05 0.133D-04
 Coeff:      0.736D-04-0.242D-03-0.787D-03-0.190D-03 0.247D-02 0.370D-03
 Coeff:     -0.155D-02-0.514D-02 0.765D-02 0.153D-01-0.252D-01-0.120D+00
 Coeff:      0.143D+00 0.985D+00
 Gap=     0.065 Goal=   None    Shift=    0.000
 Gap=     0.032 Goal=   None    Shift=    0.000
 RMSDP=6.05D-08 MaxDP=4.10D-06 DE= 3.64D-12 OVMax= 2.37D-06

 Cycle  21  Pass 1  IDiag  1:
 E= -1136.08258912967     Delta-E=       -0.000000000001 Rises=F Damp=F
 DIIS: error= 2.24D-09 at cycle  21 NSaved=  20.
 NSaved=20 IEnMin=17 EnMin= -1136.08258912968     IErMin=20 ErrMin= 2.24D-09
 ErrMax= 2.24D-09  0.00D+00 EMaxC= 1.00D-01 BMatC= 2.00D-15 BMatP= 8.37D-15
 IDIUse=1 WtCom= 1.00D+00 WtEn= 0.00D+00
 Large coefficients: NSaved= 20 BigCof=    0.00 CofMax=   10.00 Det=-4.09D-15
 Inversion failed.  Reducing to 19 matrices.
 Large coefficients: NSaved= 19 BigCof=    0.00 CofMax=   10.00 Det=-4.15D-15
 Inversion failed.  Reducing to 18 matrices.
 Large coefficients: NSaved= 18 BigCof=    0.00 CofMax=   10.00 Det=-4.26D-15
 Inversion failed.  Reducing to 17 matrices.
 Large coefficients: NSaved= 17 BigCof=    0.00 CofMax=   10.00 Det=-5.50D-15
 Inversion failed.  Reducing to 16 matrices.
 Large coefficients: NSaved= 16 BigCof=    0.00 CofMax=   10.00 Det=-5.98D-15
 Inversion failed.  Reducing to 15 matrices.
 Coeff-Com:  0.236D-04-0.571D-04-0.146D-03 0.716D-05 0.381D-03 0.134D-03
 Coeff-Com: -0.235D-03-0.126D-02 0.123D-02 0.363D-02 0.188D-02-0.116D-01
 Coeff-Com: -0.160D+00 0.202D+00 0.964D+00
 Coeff:      0.236D-04-0.571D-04-0.146D-03 0.716D-05 0.381D-03 0.134D-03
 Coeff:     -0.235D-03-0.126D-02 0.123D-02 0.363D-02 0.188D-02-0.116D-01
 Coeff:     -0.160D+00 0.202D+00 0.964D+00
 Gap=     0.065 Goal=   None    Shift=    0.000
 Gap=     0.032 Goal=   None    Shift=    0.000
 RMSDP=1.37D-08 MaxDP=7.96D-07 DE=-9.09D-13 OVMax= 2.31D-07

 Cycle  22  Pass 1  IDiag  1:
 E= -1136.08258912967     Delta-E=        0.000000000001 Rises=F Damp=F
 DIIS: error= 1.16D-09 at cycle  22 NSaved=  16.
 NSaved=16 IEnMin=12 EnMin= -1136.08258912968     IErMin=16 ErrMin= 1.16D-09
 ErrMax= 1.16D-09  0.00D+00 EMaxC= 1.00D-01 BMatC= 4.42D-16 BMatP= 2.00D-15
 IDIUse=1 WtCom= 1.00D+00 WtEn= 0.00D+00
 Large coefficients: NSaved= 16 BigCof=    0.00 CofMax=   10.00 Det=-6.74D-16
 Inversion failed.  Reducing to 15 matrices.
 Coeff-Com: -0.950D-05 0.154D-04 0.730D-04-0.147D-03-0.229D-05 0.111D-03
 Coeff-Com:  0.172D-03 0.414D-04-0.173D-02 0.893D-03 0.153D-01-0.172D-01
 Coeff-Com: -0.172D+00-0.513D-01 0.123D+01
 Coeff:     -0.950D-05 0.154D-04 0.730D-04-0.147D-03-0.229D-05 0.111D-03
 Coeff:      0.172D-03 0.414D-04-0.173D-02 0.893D-03 0.153D-01-0.172D-01
 Coeff:     -0.172D+00-0.513D-01 0.123D+01
 Gap=     0.065 Goal=   None    Shift=    0.000
 Gap=     0.032 Goal=   None    Shift=    0.000
 RMSDP=1.06D-08 MaxDP=6.07D-07 DE= 9.09D-13 OVMax= 2.31D-07

 Cycle  23  Pass 1  IDiag  1:
 E= -1136.08258912966     Delta-E=        0.000000000016 Rises=F Damp=F
 DIIS: error= 5.76D-10 at cycle  23 NSaved=  16.
 NSaved=16 IEnMin=11 EnMin= -1136.08258912968     IErMin=16 ErrMin= 5.76D-10
 ErrMax= 5.76D-10  0.00D+00 EMaxC= 1.00D-01 BMatC= 1.40D-16 BMatP= 4.42D-16
 IDIUse=1 WtCom= 1.00D+00 WtEn= 0.00D+00
 Large coefficients: NSaved= 16 BigCof=    0.00 CofMax=   10.00 Det=-2.45D-16
 Inversion failed.  Reducing to 15 matrices.
 Coeff-Com:  0.860D-05 0.469D-05-0.617D-04 0.117D-04 0.642D-04 0.146D-03
 Coeff-Com: -0.302D-03-0.619D-03 0.842D-03 0.665D-02 0.197D-01-0.889D-01
 Coeff-Com: -0.236D+00 0.507D+00 0.791D+00
 Coeff:      0.860D-05 0.469D-05-0.617D-04 0.117D-04 0.642D-04 0.146D-03
 Coeff:     -0.302D-03-0.619D-03 0.842D-03 0.665D-02 0.197D-01-0.889D-01
 Coeff:     -0.236D+00 0.507D+00 0.791D+00
 Gap=     0.065 Goal=   None    Shift=    0.000
 Gap=     0.032 Goal=   None    Shift=    0.000
 RMSDP=5.84D-09 MaxDP=4.63D-07 DE= 1.59D-11 OVMax= 1.11D-07

 SCF Done:  E(UB3LYP) =  -1136.08258913     A.U. after   23 cycles
            NFock= 23  Conv=0.58D-08     -V/T= 2.0023
 <Sx>= 0.0000 <Sy>= 0.0000 <Sz>= 0.5000 <S**2>= 0.7614 S= 0.5057
 <L.S>= 0.000000000000E+00
 KE= 1.133497882608D+03 PE=-3.552443407726D+03 EE= 8.714195917287D+02
 Annihilation of the first spin contaminant:
 S**2 before annihilation     0.7614,   after     0.7501
 Leave Link  502 at Mon Nov 13 12:09:53 2023, MaxMem=  1879048192 cpu:             234.2 elap:              19.7
 (Enter /home/sekinelabo/g16/l601.exe)
 Copying SCF densities to generalized density rwf, IOpCl= 1 IROHF=0.

 **********************************************************************

            Population analysis using the SCF Density.

 **********************************************************************

 Orbital symmetries:
 Alpha Orbitals:
       Occupied  (A) (A) (A) (A) (A) (A) (A) (A) (A) (A) (A) (A)
                 (A) (A) (A) (A) (A) (A) (A) (A) (A) (A) (A) (A)
                 (A) (A) (A) (A) (A) (A) (A) (A) (A) (A) (A) (A)
                 (A) (A) (A)
       Virtual   (A) (A) (A) (A) (A) (A) (A) (A) (A) (A) (A) (A)
                 (A) (A) (A) (A) (A) (A) (A) (A) (A) (A) (A) (A)
                 (A) (A) (A) (A) (A) (A) (A) (A) (A) (A) (A) (A)
                 (A) (A) (A) (A) (A) (A) (A) (A) (A) (A) (A) (A)
                 (A) (A) (A) (A) (A) (A) (A) (A) (A) (A) (A) (A)
                 (A) (A) (A) (A) (A) (A) (A) (A) (A) (A) (A) (A)
                 (A) (A) (A) (A) (A) (A) (A) (A) (A) (A) (A) (A)
                 (A) (A) (A) (A) (A) (A) (A) (A) (A) (A) (A) (A)
                 (A) (A) (A) (A) (A) (A) (A) (A) (A) (A) (A) (A)
                 (A) (A) (A) (A) (A) (A) (A) (A) (A) (A) (A) (A)
                 (A) (A) (A) (A) (A) (A) (A) (A) (A) (A) (A) (A)
                 (A) (A) (A) (A) (A) (A) (A) (A) (A) (A) (A) (A)
                 (A) (A) (A) (A) (A) (A) (A) (A) (A) (A) (A) (A)
                 (A) (A) (A) (A) (A) (A) (A) (A) (A) (A) (A) (A)
                 (A) (A) (A)
 Beta  Orbitals:
       Occupied  (A) (A) (A) (A) (A) (A) (A) (A) (A) (A) (A) (A)
                 (A) (A) (A) (A) (A) (A) (A) (A) (A) (A) (A) (A)
                 (A) (A) (A) (A) (A) (A) (A) (A) (A) (A) (A) (A)
                 (A) (A)
       Virtual   (A) (A) (A) (A) (A) (A) (A) (A) (A) (A) (A) (A)
                 (A) (A) (A) (A) (A) (A) (A) (A) (A) (A) (A) (A)
                 (A) (A) (A) (A) (A) (A) (A) (A) (A) (A) (A) (A)
                 (A) (A) (A) (A) (A) (A) (A) (A) (A) (A) (A) (A)
                 (A) (A) (A) (A) (A) (A) (A) (A) (A) (A) (A) (A)
                 (A) (A) (A) (A) (A) (A) (A) (A) (A) (A) (A) (A)
                 (A) (A) (A) (A) (A) (A) (A) (A) (A) (A) (A) (A)
                 (A) (A) (A) (A) (A) (A) (A) (A) (A) (A) (A) (A)
                 (A) (A) (A) (A) (A) (A) (A) (A) (A) (A) (A) (A)
                 (A) (A) (A) (A) (A) (A) (A) (A) (A) (A) (A) (A)
                 (A) (A) (A) (A) (A) (A) (A) (A) (A) (A) (A) (A)
                 (A) (A) (A) (A) (A) (A) (A) (A) (A) (A) (A) (A)
                 (A) (A) (A) (A) (A) (A) (A) (A) (A) (A) (A) (A)
                 (A) (A) (A) (A) (A) (A) (A) (A) (A) (A) (A) (A)
                 (A) (A) (A) (A)
 The electronic state is 2-A.
 Alpha  occ. eigenvalues --  -38.44430 -38.44323 -38.44246 -38.43874 -38.43719
 Alpha  occ. eigenvalues --  -38.43085 -38.42781  -2.20645  -2.20523  -2.20340
 Alpha  occ. eigenvalues --   -2.19988  -2.19899  -2.19156  -2.18951  -1.14480
 Alpha  occ. eigenvalues --   -1.14421  -1.14390  -1.14274  -1.14249  -1.14176
 Alpha  occ. eigenvalues --   -1.14053  -1.13972  -1.13934  -1.13622  -1.13604
 Alpha  occ. eigenvalues --   -1.13580  -1.13537  -1.13496  -1.13464  -1.12859
 Alpha  occ. eigenvalues --   -1.12806  -1.12735  -1.12671  -1.12603  -1.12523
 Alpha  occ. eigenvalues --   -0.21540  -0.14127  -0.12989  -0.11994
 Alpha virt. eigenvalues --   -0.05473  -0.04261  -0.03901  -0.03832  -0.03038
 Alpha virt. eigenvalues --   -0.02907  -0.01169  -0.00377  -0.00302   0.00306
 Alpha virt. eigenvalues --    0.00756   0.00959   0.00998   0.01064   0.01089
 Alpha virt. eigenvalues --    0.01128   0.01293   0.01329   0.01380   0.01447
 Alpha virt. eigenvalues --    0.01507   0.01771   0.01870   0.01929   0.02013
 Alpha virt. eigenvalues --    0.02597   0.02798   0.02866   0.02966   0.02980
 Alpha virt. eigenvalues --    0.03018   0.03102   0.03139   0.03172   0.03293
 Alpha virt. eigenvalues --    0.03305   0.03406   0.03409   0.03811   0.03854
 Alpha virt. eigenvalues --    0.04070   0.04961   0.05132   0.05293   0.05438
 Alpha virt. eigenvalues --    0.05452   0.05518   0.05725   0.05838   0.06166
 Alpha virt. eigenvalues --    0.06462   0.06555   0.06869   0.07292   0.07344
 Alpha virt. eigenvalues --    0.07849   0.08584   0.08669   0.09051   0.09117
 Alpha virt. eigenvalues --    0.09503   0.10137   0.12118   0.12594   0.12815
 Alpha virt. eigenvalues --    0.12913   0.13122   0.13251   0.13809   0.13986
 Alpha virt. eigenvalues --    0.14157   0.14524   0.14915   0.15244   0.15662
 Alpha virt. eigenvalues --    0.16437   0.16857   0.17215   0.17704   0.18110
 Alpha virt. eigenvalues --    0.21600   0.25135   0.26845   0.28287   0.30087
 Alpha virt. eigenvalues --    0.30479   0.31364   0.31799   0.32059   0.34407
 Alpha virt. eigenvalues --    0.35204   0.35431   0.37957   0.38552   0.39327
 Alpha virt. eigenvalues --    0.40550   0.41099   0.42941   0.44293   0.44442
 Alpha virt. eigenvalues --    0.44576   0.44749   0.44969   0.46251   0.46981
 Alpha virt. eigenvalues --    0.47353   0.47824   0.48775   0.49174   0.49367
 Alpha virt. eigenvalues --    0.49708   0.50031   0.50846   0.51266   0.51943
 Alpha virt. eigenvalues --    0.53062   0.54430   0.54987   0.55540   0.56095
 Alpha virt. eigenvalues --    0.57747   0.59914   0.64035   0.64764   0.65730
 Alpha virt. eigenvalues --    0.68000   0.69551   0.71203   0.71959   0.73808
 Alpha virt. eigenvalues --    0.76492   0.77671   0.81480   0.84033   0.84727
 Alpha virt. eigenvalues --    0.87991   2.16996   2.22038   2.26954   2.27998
 Alpha virt. eigenvalues --    2.29906   2.32675   2.34389   4.40639   4.40997
 Alpha virt. eigenvalues --    4.41531   4.41769   4.42065   4.43805   4.46115
 Alpha virt. eigenvalues --    4.48387   4.48689   4.52459   4.57864   4.58697
 Alpha virt. eigenvalues --    4.66634   4.67389   4.70990   4.73646   4.76550
 Alpha virt. eigenvalues --    4.79700   4.81046   4.86594   4.94836  96.39091
 Alpha virt. eigenvalues --   96.48150  96.55263  96.56251  96.59294  96.62396
 Alpha virt. eigenvalues --   96.64692
  Beta  occ. eigenvalues --  -38.44359 -38.44315 -38.44167 -38.43840 -38.43662
  Beta  occ. eigenvalues --  -38.43074 -38.42762  -2.20519  -2.20385  -2.20326
  Beta  occ. eigenvalues --   -2.19929  -2.19801  -2.19142  -2.18924  -1.14393
  Beta  occ. eigenvalues --   -1.14314  -1.14299  -1.14203  -1.14162  -1.14075
  Beta  occ. eigenvalues --   -1.14023  -1.13960  -1.13889  -1.13573  -1.13539
  Beta  occ. eigenvalues --   -1.13517  -1.13490  -1.13411  -1.13387  -1.12849
  Beta  occ. eigenvalues --   -1.12767  -1.12718  -1.12652  -1.12550  -1.12493
  Beta  occ. eigenvalues --   -0.20689  -0.13863  -0.11745
  Beta virt. eigenvalues --   -0.08534  -0.05411  -0.03910  -0.03470  -0.03292
  Beta virt. eigenvalues --   -0.02250  -0.02079  -0.01115  -0.00325  -0.00090
  Beta virt. eigenvalues --    0.00337   0.00832   0.00993   0.01063   0.01102
  Beta virt. eigenvalues --    0.01154   0.01212   0.01325   0.01417   0.01473
  Beta virt. eigenvalues --    0.01530   0.01633   0.01845   0.01941   0.02028
  Beta virt. eigenvalues --    0.02058   0.02632   0.02862   0.02944   0.02968
  Beta virt. eigenvalues --    0.03009   0.03047   0.03088   0.03166   0.03259
  Beta virt. eigenvalues --    0.03364   0.03381   0.03487   0.03508   0.03975
  Beta virt. eigenvalues --    0.04071   0.04188   0.05101   0.05222   0.05418
  Beta virt. eigenvalues --    0.05467   0.05606   0.05713   0.05918   0.05966
  Beta virt. eigenvalues --    0.06303   0.06527   0.06551   0.06905   0.07390
  Beta virt. eigenvalues --    0.07474   0.07945   0.08631   0.08870   0.09093
  Beta virt. eigenvalues --    0.09297   0.09815   0.10607   0.12405   0.12833
  Beta virt. eigenvalues --    0.12911   0.13065   0.13253   0.13465   0.14100
  Beta virt. eigenvalues --    0.14177   0.14498   0.14685   0.15257   0.15578
  Beta virt. eigenvalues --    0.15835   0.16497   0.16986   0.17496   0.17934
  Beta virt. eigenvalues --    0.18373   0.22210   0.25266   0.27537   0.28792
  Beta virt. eigenvalues --    0.30209   0.30763   0.31782   0.32032   0.32452
  Beta virt. eigenvalues --    0.34759   0.35411   0.36037   0.38275   0.38726
  Beta virt. eigenvalues --    0.39589   0.40858   0.41431   0.43233   0.44541
  Beta virt. eigenvalues --    0.44568   0.44759   0.44798   0.45128   0.46511
  Beta virt. eigenvalues --    0.47259   0.47523   0.48036   0.49015   0.49377
  Beta virt. eigenvalues --    0.49454   0.49806   0.50162   0.51039   0.51354
  Beta virt. eigenvalues --    0.52415   0.53399   0.54745   0.55224   0.55721
  Beta virt. eigenvalues --    0.56237   0.57995   0.60262   0.64124   0.64937
  Beta virt. eigenvalues --    0.65926   0.68246   0.69865   0.71330   0.72192
  Beta virt. eigenvalues --    0.74138   0.76633   0.77913   0.81704   0.84165
  Beta virt. eigenvalues --    0.84977   0.88141   2.17078   2.22077   2.27113
  Beta virt. eigenvalues --    2.28113   2.30077   2.32773   2.34695   4.40736
  Beta virt. eigenvalues --    4.41086   4.41591   4.41811   4.42153   4.43899
  Beta virt. eigenvalues --    4.46169   4.48430   4.48749   4.52585   4.57938
  Beta virt. eigenvalues --    4.58750   4.66687   4.67475   4.71034   4.73696
  Beta virt. eigenvalues --    4.76636   4.79783   4.81133   4.86661   4.94899
  Beta virt. eigenvalues --   96.39128  96.48164  96.55300  96.56298  96.59376
  Beta virt. eigenvalues --   96.62437  96.64792
          Condensed to atoms (all electrons):
               1          2          3          4          5          6
     1  Na  13.645657   0.242407  -0.473829   0.335238   0.064591  -1.579626
     2  Na   0.242407  13.840305  -0.650576   1.385301  -2.063200  -0.323740
     3  Na  -0.473829  -0.650576  12.253334  -0.876916   0.070336   0.320782
     4  Na   0.335238   1.385301  -0.876916  14.482266  -2.327448  -1.035448
     5  Na   0.064591  -2.063200   0.070336  -2.327448  14.438330  -0.040585
     6  Na  -1.579626  -0.323740   0.320782  -1.035448  -0.040585  13.709210
     7  Na  -1.264470  -0.887162  -0.536765  -0.051242   0.064188  -0.079449
               7
     1  Na  -1.264470
     2  Na  -0.887162
     3  Na  -0.536765
     4  Na  -0.051242
     5  Na   0.064188
     6  Na  -0.079449
     7  Na  14.046128
          Atomic-Atomic Spin Densities.
               1          2          3          4          5          6
     1  Na   0.424962  -0.055758  -0.236513   0.211543  -0.246870  -0.168134
     2  Na  -0.055758   0.078988  -0.005075  -0.073374   0.260023   0.052452
     3  Na  -0.236513  -0.005075   0.561546  -0.193570  -0.314731   0.306899
     4  Na   0.211543  -0.073374  -0.193570  -0.051105   0.260476  -0.084677
     5  Na  -0.246870   0.260023  -0.314731   0.260476   0.098120   0.057822
     6  Na  -0.168134   0.052452   0.306899  -0.084677   0.057822   0.051351
     7  Na   0.546102  -0.111895  -0.128812   0.047316   0.206713  -0.242726
               7
     1  Na   0.546102
     2  Na  -0.111895
     3  Na  -0.128812
     4  Na   0.047316
     5  Na   0.206713
     6  Na  -0.242726
     7  Na  -0.338286
 Mulliken charges and spin densities:
               1          2
     1  Na   0.030033   0.475333
     2  Na  -0.543334   0.145360
     3  Na   0.893636  -0.010255
     4  Na  -0.911751   0.116609
     5  Na   0.793788   0.321553
     6  Na   0.028855  -0.027012
     7  Na  -0.291227  -0.021588
 Sum of Mulliken charges =  -0.00000   1.00000
 Mulliken charges and spin densities with hydrogens summed into heavy atoms:
               1          2
     1  Na   0.030033   0.475333
     2  Na  -0.543334   0.145360
     3  Na   0.893636  -0.010255
     4  Na  -0.911751   0.116609
     5  Na   0.793788   0.321553
     6  Na   0.028855  -0.027012
     7  Na  -0.291227  -0.021588
 Electronic spatial extent (au):  <R**2>=           1583.2530
 Charge=             -0.0000 electrons
 Dipole moment (field-independent basis, Debye):
    X=             -0.2259    Y=             -0.0957    Z=             -0.1278  Tot=              0.2766
 Quadrupole moment (field-independent basis, Debye-Ang):
   XX=            -57.7305   YY=            -74.7440   ZZ=            -64.6601
   XY=             -0.0366   XZ=              0.1187   YZ=             -1.1718
 Traceless Quadrupole moment (field-independent basis, Debye-Ang):
   XX=              7.9811   YY=             -9.0324   ZZ=              1.0514
   XY=             -0.0366   XZ=              0.1187   YZ=             -1.1718
 Octapole moment (field-independent basis, Debye-Ang**2):
  XXX=            -19.5863  YYY=             -0.7228  ZZZ=              0.9385  XYY=              4.3503
  XXY=             -1.6030  XXZ=             -7.0907  XZZ=              3.9657  YZZ=             -0.7033
  YYZ=              0.7576  XYZ=             -0.6877
 Hexadecapole moment (field-independent basis, Debye-Ang**3):
 XXXX=          -1118.9140 YYYY=           -942.8303 ZZZZ=           -707.7692 XXXY=              9.2642
 XXXZ=             17.9161 YYYX=            -31.9853 YYYZ=            -10.6495 ZZZX=             14.1429
 ZZZY=             -5.5738 XXYY=           -343.2091 XXZZ=           -321.5508 YYZZ=           -276.9255
 XXYZ=             -7.5443 YYXZ=            -25.5211 ZZXY=             23.6096
 N-N= 4.114433442589D+02 E-N=-3.552443407766D+03  KE= 1.133497882608D+03
                          Isotropic Fermi Contact Couplings
        Atom                 a.u.       MegaHertz       Gauss      10(-4) cm-1
     1  Na(23)             0.29878     353.46461     126.12496     117.90310
     2  Na(23)             0.18040     213.41872      76.15311      71.18882
     3  Na(23)             0.00438       5.18748       1.85102       1.73036
     4  Na(23)            -0.00010      -0.11405      -0.04069      -0.03804
     5  Na(23)             0.25819     305.44385     108.98996     101.88510
     6  Na(23)             0.09936     117.54920      41.94448      39.21019
     7  Na(23)            -0.01764     -20.86533      -7.44527      -6.95993
 --------------------------------------------------------
       Center         ----  Spin Dipole Couplings  ----
                      3XX-RR        3YY-RR        3ZZ-RR
 --------------------------------------------------------
     1   Atom        0.010960      0.002303     -0.013263
     2   Atom       -0.006710      0.001397      0.005314
     3   Atom       -0.006293     -0.014267      0.020559
     4   Atom       -0.034255     -0.027128      0.061383
     5   Atom        0.016359      0.000286     -0.016645
     6   Atom       -0.005461     -0.006757      0.012219
     7   Atom       -0.026744     -0.024477      0.051221
 --------------------------------------------------------
                        XY            XZ            YZ
 --------------------------------------------------------
     1   Atom        0.008145     -0.012332     -0.009677
     2   Atom        0.019341      0.028155      0.029734
     3   Atom        0.002104     -0.012898     -0.003282
     4   Atom       -0.005714      0.015682     -0.021191
     5   Atom        0.014346     -0.020844     -0.012958
     6   Atom        0.010616      0.023380      0.025599
     7   Atom       -0.001903     -0.000334     -0.016259
 --------------------------------------------------------


 ---------------------------------------------------------------------------------
              Anisotropic Spin Dipole Couplings in Principal Axis System
 ---------------------------------------------------------------------------------

       Atom             a.u.   MegaHertz   Gauss  10(-4) cm-1        Axes

              Baa    -0.0202    -2.851    -1.017    -0.951  0.2860  0.2895  0.9135
     1 Na(23) Bbb    -0.0024    -0.344    -0.123    -0.115 -0.5708  0.8172 -0.0803
              Bcc     0.0226     3.195     1.140     1.066  0.7697  0.4984 -0.3989
 
              Baa    -0.0307    -4.337    -1.548    -1.447 -0.6065 -0.3119  0.7314
     2 Na(23) Bbb    -0.0218    -3.079    -1.099    -1.027 -0.6205  0.7609 -0.1901
              Bcc     0.0525     7.416     2.646     2.474  0.4972  0.5691  0.6550
 
              Baa    -0.0148    -2.088    -0.745    -0.697 -0.2326  0.9725  0.0054
     3 Na(23) Bbb    -0.0113    -1.599    -0.571    -0.533  0.8980  0.2127  0.3851
              Bcc     0.0261     3.688     1.316     1.230 -0.3734 -0.0945  0.9228
 
              Baa    -0.0377    -5.319    -1.898    -1.774  0.9285  0.3648 -0.0690
     4 Na(23) Bbb    -0.0312    -4.405    -1.572    -1.469 -0.3357  0.9043  0.2639
              Bcc     0.0689     9.723     3.470     3.243  0.1586 -0.2218  0.9621
 
              Baa    -0.0281    -3.962    -1.414    -1.322  0.3485  0.2380  0.9066
     5 Na(23) Bbb    -0.0081    -1.145    -0.408    -0.382 -0.5207  0.8534 -0.0238
              Bcc     0.0362     5.107     1.822     1.704  0.7793  0.4638 -0.4214
 
              Baa    -0.0267    -3.773    -1.346    -1.259 -0.4131 -0.6271  0.6603
     6 Na(23) Bbb    -0.0165    -2.330    -0.831    -0.777  0.7844 -0.6134 -0.0918
              Bcc     0.0432     6.103     2.178     2.036  0.4626  0.4800  0.7453
 
              Baa    -0.0293    -4.136    -1.476    -1.380  0.6047  0.7802  0.1601
     7 Na(23) Bbb    -0.0253    -3.570    -1.274    -1.191  0.7965 -0.5922 -0.1224
              Bcc     0.0546     7.705     2.749     2.570  0.0007 -0.2015  0.9795
 

 ---------------------------------------------------------------------------------

 No NMR shielding tensors so no spin-rotation constants.
 Leave Link  601 at Mon Nov 13 12:09:54 2023, MaxMem=  1879048192 cpu:               2.7 elap:               0.2
 (Enter /home/sekinelabo/g16/l701.exe)
 ... and contract with generalized density number  0.
 Compute integral first derivatives.
 Leave Link  701 at Mon Nov 13 12:09:54 2023, MaxMem=  1879048192 cpu:               1.7 elap:               0.1
 (Enter /home/sekinelabo/g16/l702.exe)
 L702 exits ... SP integral derivatives will be done elsewhere.
 Leave Link  702 at Mon Nov 13 12:09:54 2023, MaxMem=  1879048192 cpu:               0.5 elap:               0.0
 (Enter /home/sekinelabo/g16/l703.exe)
 Integral derivatives from FoFJK, PRISM(SPDF).
 Compute integral first derivatives, UseDBF=F ICtDFT=           0.
 Calling FoFJK, ICntrl=      2127 FMM=F ISym2X=0 I1Cent= 0 IOpClX= 1 NMat=1 NMatS=1 NMatT=0.
 FoFJK:  IHMeth= 1 ICntrl=    2127 DoSepK=F KAlg= 0 I1Cent=           0 FoldK=F
 IRaf=         0 NMat=       1 IRICut=       1 DoRegI=T DoRafI=F ISym2E= 0 IDoP0=0 IntGTp=1.
 FoFCou: FMM=F IPFlag=           0 FMFlag=      100000 FMFlg1=         800
         NFxFlg=           0 DoJE=F BraDBF=F KetDBF=F FulRan=T
         wScrn=  0.000000 ICntrl=      2127 IOpCl=  1 I1Cent=           0 NGrid=           0
         NMat0=    1 NMatS0=      1 NMatT0=    0 NMatD0=    1 NMtDS0=    0 NMtDT0=    0
 Symmetry not used in FoFCou.
 Leave Link  703 at Mon Nov 13 12:09:56 2023, MaxMem=  1879048192 cpu:              38.2 elap:               2.4
 (Enter /home/sekinelabo/g16/l716.exe)
 Dipole        =-8.88834139D-02-3.76568316D-02-5.02733251D-02
 ***** Axes restored to original set *****
 -------------------------------------------------------------------
 Center     Atomic                   Forces (Hartrees/Bohr)
 Number     Number              X              Y              Z
 -------------------------------------------------------------------
      1       11           0.007351320   -0.006284530    0.017491492
      2       11           0.006809517   -0.017406502   -0.010217891
      3       11           0.019088042   -0.002324863    0.003942540
      4       11           0.007827749    0.022748485   -0.001526026
      5       11          -0.014430166    0.004976657   -0.019603056
      6       11          -0.014174690    0.016149685    0.010219888
      7       11          -0.012471772   -0.017858933   -0.000306948
 -------------------------------------------------------------------
 Cartesian Forces:  Max     0.022748485 RMS     0.012868726
 Z-matrix is all fixed cartesians, so copy forces.
 Force constants in Cartesian coordinates: 
                1             2             3             4             5 
      1  0.212791D+00
      2  0.105858D-02  0.203794D+00
      3  0.112057D-01 -0.218789D-01  0.279182D+00
      4 -0.241169D-01  0.543464D-02 -0.540365D-02  0.166728D+00
      5  0.142031D-02 -0.283115D-01  0.138305D-01 -0.205611D-01  0.179924D+00
      6  0.128912D-01 -0.273685D-01 -0.562380D-01 -0.187233D-01  0.362428D-01
      7 -0.474232D-01  0.479011D-02 -0.157425D-01 -0.382638D-01  0.823790D-02
      8 -0.970815D-02 -0.350505D-01  0.476561D-02 -0.222011D-01 -0.302192D-01
      9  0.377149D-01  0.299925D-02 -0.510307D-01 -0.282024D-01 -0.595943D-02
     10 -0.245250D-01 -0.235775D-02 -0.886991D-02 -0.189425D-01  0.912431D-02
     11 -0.108917D-01 -0.436351D-01 -0.663281D-02 -0.155905D-01 -0.498903D-01
     12  0.123058D-01  0.374774D-01 -0.440222D-01  0.295388D-02 -0.290526D-01
     13 -0.884151D-02  0.165893D-02 -0.397850D-02 -0.534249D-01  0.119788D-01
     14  0.438714D-02 -0.137188D-02  0.789421D-02  0.227194D-01 -0.528316D-01
     15 -0.137693D-01  0.860007D-02 -0.299277D-01  0.185453D-01 -0.175109D-01
     16 -0.554917D-01  0.123881D-01  0.164302D-01  0.319748D-02  0.134766D-01
     17  0.153197D-01 -0.546754D-01 -0.106681D-01  0.139821D-01  0.675067D-02
     18 -0.279630D-01  0.317267D-01 -0.438898D-01  0.857450D-02 -0.111065D-01
     19 -0.523922D-01 -0.229727D-01  0.635861D-02 -0.351771D-01 -0.236767D-01
     20 -0.158588D-02 -0.407498D-01  0.126895D-01  0.162166D-01 -0.254227D-01
     21 -0.323853D-01 -0.315561D-01 -0.540742D-01  0.222557D-01  0.135561D-01
                6             7             8             9            10 
      6  0.184569D+00
      7  0.779997D-02  0.134893D+00
      8 -0.145183D-01 -0.460086D-02  0.810938D-01
      9 -0.431311D-01  0.122223D-01 -0.318448D-02  0.895365D-01
     10  0.105669D-01 -0.373934D-01  0.334050D-01 -0.110201D-01  0.168247D+00
     11  0.104850D-01 -0.123150D-01 -0.456168D-01  0.657246D-02  0.299755D-01
     12 -0.203929D-01  0.298011D-02  0.137503D-01 -0.290622D-01 -0.253007D-02
     13 -0.239756D-01 -0.449472D-02  0.417063D-02 -0.128823D-01 -0.553654D-01
     14  0.245028D-01  0.231943D-02  0.122780D-01  0.946875D-03 -0.300536D-01
     15 -0.395061D-01 -0.641236D-02  0.733488D-03  0.109002D-01  0.182754D-02
     16  0.744185D-02 -0.352137D-02  0.567149D-02  0.234131D-02 -0.356348D-01
     17 -0.119495D-01  0.415938D-02  0.102875D-01 -0.191921D-02 -0.258087D-01
     18  0.514615D-02  0.592336D-03 -0.329403D-02  0.104923D-01  0.951308D-02
     19  0.399894D-02 -0.379628D-02 -0.673703D-02 -0.173605D-03  0.361441D-02
     20 -0.173943D-01 -0.259098D-02  0.722719D-02  0.544529D-03 -0.142848D-01
     21 -0.304466D-01 -0.143990D-02  0.174746D-02  0.122948D-01  0.512607D-03
               11            12            13            14            15 
     11  0.218201D+00
     12 -0.201436D-01  0.147645D+00
     13  0.503205D-02 -0.315701D-01  0.175617D+00
     14 -0.466746D-01 -0.255221D-01 -0.936657D-02  0.163277D+00
     15  0.153219D-01 -0.458342D-01  0.283129D-01 -0.140120D-01  0.211588D+00
     16  0.206686D-01  0.153341D-01 -0.290067D-01 -0.103682D-02 -0.140599D-01
     17 -0.286099D-01  0.180892D-01  0.248773D-02 -0.354822D-01  0.857785D-02
     18 -0.104452D-01 -0.239598D-01  0.276971D-01 -0.273044D-01 -0.693018D-01
     19 -0.168790D-01  0.526170D-03 -0.244834D-01  0.110310D-01 -0.144441D-01
     20 -0.377416D-02  0.540140D-02 -0.159615D-01 -0.391950D-01 -0.171035D-02
     21  0.484226D-02  0.156258D-01  0.163965D-01  0.334947D-01 -0.379181D-01
               16            17            18            19            20 
     16  0.135972D+00
     17 -0.308807D-01  0.143575D+00
     18 -0.286453D-01  0.172798D-01  0.135344D+00
     19 -0.155146D-01  0.207405D-01  0.102313D-01  0.127749D+00
     20 -0.202873D-01 -0.418453D-01  0.314372D-02  0.384939D-01  0.143760D+00
     21  0.115769D-02 -0.194099D-01 -0.138314D-01 -0.649733D-02 -0.267445D-02
               21 
     21  0.108350D+00
 Leave Link  716 at Mon Nov 13 12:09:56 2023, MaxMem=  1879048192 cpu:               0.5 elap:               0.0
 (Enter /home/sekinelabo/g16/l103.exe)

 GradGradGradGradGradGradGradGradGradGradGradGradGradGradGradGradGradGrad
 Berny optimization.
 Search for a local minimum.
 Step number   1 out of a maximum of    2
 All quantities printed in internal units (Hartrees-Bohrs-Radians)
 Second derivative matrix not updated -- first step.
 ITU=  0
     Eigenvalues ---    0.11238   0.11812   0.14965   0.17474   0.18537
     Eigenvalues ---    0.19652   0.21024   0.22858   0.24518   0.25296
     Eigenvalues ---    0.26678   0.29206   0.29958   0.30465   0.34304
 Quadratic step=3.798D-01 exceeds max=3.000D-01 adjusted using Lamda=-3.811D-02.
 Angle between NR and scaled steps=   2.58 degrees.
 Angle between quadratic step and forces=  12.17 degrees.
 Linear search not attempted -- first point.
 B after Tr=    -0.000000    0.000000    0.000000
         Rot=    1.000000    0.000000   -0.000000    0.000000 Ang=   0.00 deg.
 Variable       Old X    -DE/DX   Delta X   Delta X   Delta X     New X
                                 (Linear)    (Quad)   (Total)
    X1        3.95810   0.00735   0.00000   0.02152   0.02152   3.97961
    Y1        2.50217  -0.00628   0.00000  -0.02357  -0.02357   2.47861
    Z1        6.10466   0.01749   0.00000   0.07019   0.07019   6.17486
    X2        5.02500   0.00681   0.00000   0.03789   0.03789   5.06289
    Y2        0.97846  -0.01741   0.00000  -0.07351  -0.07351   0.90494
    Z2        0.61084  -0.01022   0.00000  -0.05063  -0.05063   0.56020
    X3        8.95699   0.01909   0.00000   0.13932   0.13932   9.09631
    Y3        2.96755  -0.00232   0.00000  -0.01169  -0.01169   2.95586
    Z3        3.88464   0.00394   0.00000   0.02071   0.02071   3.90535
    X4        5.19049   0.00783   0.00000   0.03968   0.03968   5.23017
    Y4        6.61092   0.02275   0.00000   0.09791   0.09791   6.70882
    Z4        2.23637  -0.00153   0.00000  -0.01248  -0.01248   2.22389
    X5        0.99441  -0.01443   0.00000  -0.07068  -0.07068   0.92374
    Y5        4.35222   0.00498   0.00000   0.02670   0.02670   4.37892
    Z5        0.00000  -0.01960   0.00000  -0.07938  -0.07938  -0.07938
    X6        0.00000  -0.01417   0.00000  -0.08616  -0.08616  -0.08616
    Y6        5.76431   0.01615   0.00000   0.07907   0.07907   5.84338
    Z6        4.95777   0.01022   0.00000   0.04815   0.04815   5.00593
    X7        0.05122  -0.01247   0.00000  -0.08158  -0.08158  -0.03037
    Y7        0.00000  -0.01786   0.00000  -0.09490  -0.09490  -0.09490
    Z7        3.57909  -0.00031   0.00000   0.00344   0.00344   3.58253
         Item               Value     Threshold  Converged?
 Maximum Force            0.022748     0.000450     NO 
 RMS     Force            0.012869     0.000300     NO 
 Maximum Displacement     0.139324     0.001800     NO 
 RMS     Displacement     0.065581     0.001200     NO 
 Predicted change in Energy=-1.038342D-02
 GradGradGradGradGradGradGradGradGradGradGradGradGradGradGradGradGradGrad

 Leave Link  103 at Mon Nov 13 12:09:56 2023, MaxMem=  1879048192 cpu:               0.3 elap:               0.0
 (Enter /home/sekinelabo/g16/l9999.exe)
 1\1\GINC-SEKINELABO-XA7R-R37\Force\UB3LYP\6-311+G(d)\Na7(2)\SEKINELABO
 \13-Nov-2023\0\\#P B3LYP/6-311+g(d) force\\Gaussian input prepared by 
 ASE\\0,2\Na,2.0945345546,1.3240923479,3.2304487521\Na,2.6591147426,0.5
 177767782,0.323241627\Na,4.7398327237,1.5703585155,2.0556629882\Na,2.7
 466869259,3.4983460519,1.1834346515\Na,0.5262202173,2.3030959281,0.\Na
 ,0.,3.0503418886,2.6235403453\Na,0.0271026659,0.,1.8939728429\\Version
 =ES64L-G16RevB.01\State=2-A\HF=-1136.0825891\S2=0.761448\S2-1=0.\S2A=0
 .75008\RMSD=5.837e-09\RMSF=1.287e-02\Dipole=0.0888834,-0.0376568,0.050
 2733\Quadrupole=5.93372,-6.7154027,0.7816827,0.0272134,0.0882503,0.871
 1914\PG=C01 [X(Na7)]\\@


 THE CAUTIOUS SELDOM ERR...CONFUCIUS                   
 Job cpu time:       0 days  0 hours  4 minutes 50.2 seconds.
 Elapsed time:       0 days  0 hours  0 minutes 23.2 seconds.
 File lengths (MBytes):  RWF=     32 Int=      0 D2E=      0 Chk=      5 Scr=      1
 Normal termination of Gaussian 16 at Mon Nov 13 12:09:56 2023.
