 Entering Gaussian System, Link 0=g16
 Initial command:
 /home/sekinelabo/g16/l1.exe "/home/sekinelabo/g16temp/Gau-3978918.inp" -scrdir="/home/sekinelabo/g16temp/"
 Entering Link 1 = /home/sekinelabo/g16/l1.exe PID=   3978920.
  
 Copyright (c) 1988-2017, Gaussian, Inc.  All Rights Reserved.
  
 This is part of the Gaussian(R) 16 program.  It is based on
 the Gaussian(R) 09 system (copyright 2009, Gaussian, Inc.),
 the Gaussian(R) 03 system (copyright 2003, Gaussian, Inc.),
 the Gaussian(R) 98 system (copyright 1998, Gaussian, Inc.),
 the Gaussian(R) 94 system (copyright 1995, Gaussian, Inc.),
 the Gaussian 92(TM) system (copyright 1992, Gaussian, Inc.),
 the Gaussian 90(TM) system (copyright 1990, Gaussian, Inc.),
 the Gaussian 88(TM) system (copyright 1988, Gaussian, Inc.),
 the Gaussian 86(TM) system (copyright 1986, Carnegie Mellon
 University), and the Gaussian 82(TM) system (copyright 1983,
 Carnegie Mellon University). Gaussian is a federally registered
 trademark of Gaussian, Inc.
  
 This software contains proprietary and confidential information,
 including trade secrets, belonging to Gaussian, Inc.
  
 This software is provided under written license and may be
 used, copied, transmitted, or stored only in accord with that
 written license.
  
 The following legend is applicable only to US Government
 contracts under FAR:
  
                    RESTRICTED RIGHTS LEGEND
  
 Use, reproduction and disclosure by the US Government is
 subject to restrictions as set forth in subparagraphs (a)
 and (c) of the Commercial Computer Software - Restricted
 Rights clause in FAR 52.227-19.
  
 Gaussian, Inc.
 340 Quinnipiac St., Bldg. 40, Wallingford CT 06492
  
  
 ---------------------------------------------------------------
 Warning -- This program may not be used in any manner that
 competes with the business of Gaussian, Inc. or will provide
 assistance to any competitor of Gaussian, Inc.  The licensee
 of this program is prohibited from giving any competitor of
 Gaussian, Inc. access to this program.  By using this program,
 the user acknowledges that Gaussian, Inc. is engaged in the
 business of creating and licensing software in the field of
 computational chemistry and represents and warrants to the
 licensee that it is not a competitor of Gaussian, Inc. and that
 it will not use this program in any manner prohibited above.
 ---------------------------------------------------------------
  

 Cite this work as:
 Gaussian 16, Revision B.01,
 M. J. Frisch, G. W. Trucks, H. B. Schlegel, G. E. Scuseria, 
 M. A. Robb, J. R. Cheeseman, G. Scalmani, V. Barone, 
 G. A. Petersson, H. Nakatsuji, X. Li, M. Caricato, A. V. Marenich, 
 J. Bloino, B. G. Janesko, R. Gomperts, B. Mennucci, H. P. Hratchian, 
 J. V. Ortiz, A. F. Izmaylov, J. L. Sonnenberg, D. Williams-Young, 
 F. Ding, F. Lipparini, F. Egidi, J. Goings, B. Peng, A. Petrone, 
 T. Henderson, D. Ranasinghe, V. G. Zakrzewski, J. Gao, N. Rega, 
 G. Zheng, W. Liang, M. Hada, M. Ehara, K. Toyota, R. Fukuda, 
 J. Hasegawa, M. Ishida, T. Nakajima, Y. Honda, O. Kitao, H. Nakai, 
 T. Vreven, K. Throssell, J. A. Montgomery, Jr., J. E. Peralta, 
 F. Ogliaro, M. J. Bearpark, J. J. Heyd, E. N. Brothers, K. N. Kudin, 
 V. N. Staroverov, T. A. Keith, R. Kobayashi, J. Normand, 
 K. Raghavachari, A. P. Rendell, J. C. Burant, S. S. Iyengar, 
 J. Tomasi, M. Cossi, J. M. Millam, M. Klene, C. Adamo, R. Cammi, 
 J. W. Ochterski, R. L. Martin, K. Morokuma, O. Farkas, 
 J. B. Foresman, and D. J. Fox, Gaussian, Inc., Wallingford CT, 2016.
 
 ******************************************
 Gaussian 16:  ES64L-G16RevB.01 20-Dec-2017
                13-Nov-2023 
 ******************************************
 %mem=14GB
 %chk=checkpoint.chk
 %nprocshared=16
 Will use up to   16 processors via shared memory.
 -------------------------
 #P B3LYP/6-311+g(d) force
 -------------------------
 1/10=7,30=1,38=1/1,3;
 2/12=2,17=6,18=5,40=1/2;
 3/5=4,6=6,7=11,11=2,25=1,30=1,71=1,74=-5/1,2,3;
 4//1;
 5/5=2,38=5/2;
 6/7=2,8=2,9=2,10=2,28=1/1;
 7/29=1/1,2,3,16;
 1/10=7,30=1/3;
 99//99;
 Leave Link    1 at Mon Nov 13 12:15:06 2023, MaxMem=  1879048192 cpu:               0.6 elap:               0.0
 (Enter /home/sekinelabo/g16/l101.exe)
 ------------------------------
 Gaussian input prepared by ASE
 ------------------------------
 Symbolic Z-matrix:
 Charge =  0 Multiplicity = 2
 Na                    4.43221   2.52255   0. 
 Na                    5.11807   3.60082   2.70227 
 Na                    7.30788   2.8904    0.77463 
 Na                    7.29422   0.        1.60177 
 Na                    4.47317   0.68638   2.37694 
 Na                    2.30862   2.73721   2.10027 
 Na                    0.        1.16744   1.0018 
 
 ITRead=  0  0  0  0  0  0  0
 MicOpt= -1 -1 -1 -1 -1 -1 -1
 NAtoms=      7 NQM=        7 NQMF=       0 NMMI=      0 NMMIF=      0
                NMic=       0 NMicF=      0.
                    Isotopes and Nuclear Properties:
 (Nuclear quadrupole moments (NQMom) in fm**2, nuclear magnetic moments (NMagM)
  in nuclear magnetons)

  Atom         1           2           3           4           5           6           7
 IAtWgt=          23          23          23          23          23          23          23
 AtmWgt=  22.9897697  22.9897697  22.9897697  22.9897697  22.9897697  22.9897697  22.9897697
 NucSpn=           3           3           3           3           3           3           3
 AtZEff=  -0.0000000  -0.0000000  -0.0000000  -0.0000000  -0.0000000  -0.0000000  -0.0000000
 NQMom=   10.4000000  10.4000000  10.4000000  10.4000000  10.4000000  10.4000000  10.4000000
 NMagM=    2.2175200   2.2175200   2.2175200   2.2175200   2.2175200   2.2175200   2.2175200
 AtZNuc=  11.0000000  11.0000000  11.0000000  11.0000000  11.0000000  11.0000000  11.0000000
 Leave Link  101 at Mon Nov 13 12:15:06 2023, MaxMem=  1879048192 cpu:               2.6 elap:               0.2
 (Enter /home/sekinelabo/g16/l103.exe)

 GradGradGradGradGradGradGradGradGradGradGradGradGradGradGradGradGradGrad
 Berny optimization.
 Initialization pass.
 Trust Radius=3.00D-01 FncErr=1.00D-07 GrdErr=1.00D-07 EigMax=2.50D+02 EigMin=1.00D-04
 Number of steps in this run=      2 maximum allowed number of steps=      2.
 GradGradGradGradGradGradGradGradGradGradGradGradGradGradGradGradGradGrad

 Leave Link  103 at Mon Nov 13 12:15:06 2023, MaxMem=  1879048192 cpu:               0.2 elap:               0.0
 (Enter /home/sekinelabo/g16/l202.exe)
                          Input orientation:                          
 ---------------------------------------------------------------------
 Center     Atomic      Atomic             Coordinates (Angstroms)
 Number     Number       Type             X           Y           Z
 ---------------------------------------------------------------------
      1         11           0        4.432215    2.522552    0.000000
      2         11           0        5.118075    3.600823    2.702269
      3         11           0        7.307877    2.890397    0.774634
      4         11           0        7.294219    0.000000    1.601765
      5         11           0        4.473170    0.686383    2.376937
      6         11           0        2.308620    2.737211    2.100268
      7         11           0        0.000000    1.167442    1.001801
 ---------------------------------------------------------------------
                    Distance matrix (angstroms):
                    1          2          3          4          5
     1  Na   0.000000
     2  Na   2.989203   0.000000
     3  Na   3.000800   3.002618   0.000000
     4  Na   4.137630   4.348866   3.006448   0.000000
     5  Na   3.003834   3.002616   3.931999   3.005050   0.000000
     6  Na   2.994471   3.000211   5.174296   5.709380   2.994614
     7  Na   4.741778   5.916724   7.511674   7.411376   4.704430
                    6          7
     6  Na   0.000000
     7  Na   3.000089   0.000000
 Stoichiometry    Na7(2)
 Framework group  C1[X(Na7)]
 Deg. of freedom    15
 Full point group                 C1      NOp   1
 Largest Abelian subgroup         C1      NOp   1
 Largest concise Abelian subgroup C1      NOp   1
                         Standard orientation:                         
 ---------------------------------------------------------------------
 Center     Atomic      Atomic             Coordinates (Angstroms)
 Number     Number       Type             X           Y           Z
 ---------------------------------------------------------------------
      1         11           0        0.013047   -0.579008    1.508239
      2         11           0        0.698907   -1.657279   -1.194030
      3         11           0        2.888709   -0.946853    0.733605
      4         11           0        2.875051    1.943544   -0.093526
      5         11           0        0.054002    1.257161   -0.868697
      6         11           0       -2.110548   -0.793667   -0.592029
      7         11           0       -4.419168    0.776102    0.506438
 ---------------------------------------------------------------------
 Rotational constants (GHZ):           1.3588537           0.4707777           0.4255776
 Leave Link  202 at Mon Nov 13 12:15:06 2023, MaxMem=  1879048192 cpu:               0.1 elap:               0.0
 (Enter /home/sekinelabo/g16/l301.exe)
 Standard basis: 6-311+G(d) (5D, 7F)
 Ernie: Thresh=  0.10000D-02 Tol=  0.10000D-05 Strict=F.
 There are   217 symmetry adapted cartesian basis functions of A   symmetry.
 There are   210 symmetry adapted basis functions of A   symmetry.
   210 basis functions,   350 primitive gaussians,   217 cartesian basis functions
    39 alpha electrons       38 beta electrons
       nuclear repulsion energy       359.9516916188 Hartrees.
 IExCor=  402 DFT=T Ex+Corr=B3LYP ExCW=0 ScaHFX=  0.200000
 ScaDFX=  0.800000  0.720000  1.000000  0.810000 ScalE2=  1.000000  1.000000
 IRadAn=      5 IRanWt=     -1 IRanGd=            0 ICorTp=0 IEmpDi=  4
 NAtoms=    7 NActive=    7 NUniq=    7 SFac= 1.00D+00 NAtFMM=   60 NAOKFM=F Big=F
 Integral buffers will be    131072 words long.
 Raffenetti 2 integral format.
 Two-electron integral symmetry is turned on.
 Leave Link  301 at Mon Nov 13 12:15:06 2023, MaxMem=  1879048192 cpu:               0.5 elap:               0.0
 (Enter /home/sekinelabo/g16/l302.exe)
 NPDir=0 NMtPBC=     1 NCelOv=     1 NCel=       1 NClECP=     1 NCelD=      1
         NCelK=      1 NCelE2=     1 NClLst=     1 CellRange=     0.0.
 One-electron integrals computed using PRISM.
 One-electron integral symmetry used in STVInt
 NBasis=   210 RedAO= T EigKep=  1.95D-06  NBF=   210
 NBsUse=   210 1.00D-06 EigRej= -1.00D+00 NBFU=   210
 Precomputing XC quadrature grid using
 IXCGrd= 4 IRadAn=           5 IRanWt=          -1 IRanGd=           0 AccXCQ= 0.00D+00.
 Generated NRdTot=       0 NPtTot=           0 NUsed=           0 NTot=          32
 NSgBfM=   210   210   210   210   210 MxSgAt=     7 MxSgA2=     7.
 Leave Link  302 at Mon Nov 13 12:15:06 2023, MaxMem=  1879048192 cpu:               2.6 elap:               0.2
 (Enter /home/sekinelabo/g16/l303.exe)
 DipDrv:  MaxL=1.
 Leave Link  303 at Mon Nov 13 12:15:06 2023, MaxMem=  1879048192 cpu:               0.6 elap:               0.0
 (Enter /home/sekinelabo/g16/l401.exe)
 ExpMin= 7.60D-03 ExpMax= 3.62D+04 ExpMxC= 1.21D+03 IAcc=3 IRadAn=         5 AccDes= 0.00D+00
 Harris functional with IExCor=  402 and IRadAn=       5 diagonalized for initial guess.
 HarFok:  IExCor=  402 AccDes= 0.00D+00 IRadAn=         5 IDoV= 1 UseB2=F ITyADJ=14
 ICtDFT=  3500011 ScaDFX=  1.000000  1.000000  1.000000  1.000000
 FoFCou: FMM=F IPFlag=           0 FMFlag=      100000 FMFlg1=           0
         NFxFlg=           0 DoJE=T BraDBF=F KetDBF=T FulRan=T
         wScrn=  0.000000 ICntrl=       500 IOpCl=  0 I1Cent=   200000004 NGrid=           0
         NMat0=    1 NMatS0=      1 NMatT0=    0 NMatD0=    1 NMtDS0=    0 NMtDT0=    0
 Petite list used in FoFCou.
 Harris En= -1135.86452255344    
 JPrj=0 DoOrth=F DoCkMO=F.
 Initial guess <Sx>= 0.0000 <Sy>= 0.0000 <Sz>= 0.5000 <S**2>= 0.7500 S= 0.5000
 Leave Link  401 at Mon Nov 13 12:15:07 2023, MaxMem=  1879048192 cpu:               4.6 elap:               0.3
 (Enter /home/sekinelabo/g16/l502.exe)
 Keep R1 and R2 ints in memory in canonical form, NReq=507620360.
 FoFCou: FMM=F IPFlag=           0 FMFlag=           0 FMFlg1=           0
         NFxFlg=           0 DoJE=F BraDBF=F KetDBF=F FulRan=T
         wScrn=  0.000000 ICntrl=       600 IOpCl=  0 I1Cent=           0 NGrid=           0
         NMat0=    1 NMatS0=  22155 NMatT0=    0 NMatD0=    1 NMtDS0=    0 NMtDT0=    0
 Symmetry not used in FoFCou.
 Two-electron integral symmetry not used.
 UHF open shell SCF:
 Using DIIS extrapolation, IDIIS=  1040.
 NGot=  1879048192 LenX=  1388082376 LenY=  1388034846
 Requested convergence on RMS density matrix=1.00D-08 within 128 cycles.
 Requested convergence on MAX density matrix=1.00D-06.
 Requested convergence on             energy=1.00D-06.
 No special actions if energy rises.

 Cycle   1  Pass 1  IDiag  1:
 E= -1136.04928634082    
 DIIS: error= 1.10D-02 at cycle   1 NSaved=   1.
 NSaved= 1 IEnMin= 1 EnMin= -1136.04928634082     IErMin= 1 ErrMin= 1.10D-02
 ErrMax= 1.10D-02  0.00D+00 EMaxC= 1.00D-01 BMatC= 2.01D-01 BMatP= 2.01D-01
 IDIUse=3 WtCom= 8.90D-01 WtEn= 1.10D-01
 Coeff-Com:  0.100D+01
 Coeff-En:   0.100D+01
 Coeff:      0.100D+01
 Gap=     0.030 Goal=   None    Shift=    0.000
 Gap=     0.032 Goal=   None    Shift=    0.000
 GapD=    0.030 DampG=0.250 DampE=0.500 DampFc=0.2500 IDamp=-1.
 Damping current iteration by 2.50D-01
 RMSDP=7.80D-02 MaxDP=7.31D+00              OVMax= 3.87D-01

 Cycle   2  Pass 1  IDiag  1:
 E= -1136.06420496699     Delta-E=       -0.014918626163 Rises=F Damp=T
 DIIS: error= 6.58D-03 at cycle   2 NSaved=   2.
 NSaved= 2 IEnMin= 2 EnMin= -1136.06420496699     IErMin= 2 ErrMin= 6.58D-03
 ErrMax= 6.58D-03  0.00D+00 EMaxC= 1.00D-01 BMatC= 7.47D-02 BMatP= 2.01D-01
 IDIUse=3 WtCom= 9.34D-01 WtEn= 6.58D-02
 Coeff-Com: -0.116D+01 0.216D+01
 Coeff-En:   0.000D+00 0.100D+01
 Coeff:     -0.109D+01 0.209D+01
 Gap=     0.045 Goal=   None    Shift=    0.000
 Gap=     0.037 Goal=   None    Shift=    0.000
 RMSDP=4.06D-02 MaxDP=3.89D+00 DE=-1.49D-02 OVMax= 4.90D-01

 Cycle   3  Pass 1  IDiag  1:
 E= -1136.06942601814     Delta-E=       -0.005221051151 Rises=F Damp=F
 DIIS: error= 7.36D-03 at cycle   3 NSaved=   3.
 NSaved= 3 IEnMin= 3 EnMin= -1136.06942601814     IErMin= 2 ErrMin= 6.58D-03
 ErrMax= 7.36D-03  0.00D+00 EMaxC= 1.00D-01 BMatC= 1.99D-02 BMatP= 7.47D-02
 IDIUse=3 WtCom= 9.26D-01 WtEn= 7.36D-02
 Coeff-Com: -0.622D+00 0.108D+01 0.538D+00
 Coeff-En:   0.000D+00 0.292D+00 0.708D+00
 Coeff:     -0.577D+00 0.103D+01 0.550D+00
 Gap=     0.037 Goal=   None    Shift=    0.000
 Gap=     0.038 Goal=   None    Shift=    0.000
 RMSDP=1.76D-02 MaxDP=2.01D+00 DE=-5.22D-03 OVMax= 2.68D-01

 Cycle   4  Pass 1  IDiag  1:
 E= -1136.08178827966     Delta-E=       -0.012362261520 Rises=F Damp=F
 DIIS: error= 4.31D-03 at cycle   4 NSaved=   4.
 NSaved= 4 IEnMin= 4 EnMin= -1136.08178827966     IErMin= 4 ErrMin= 4.31D-03
 ErrMax= 4.31D-03  0.00D+00 EMaxC= 1.00D-01 BMatC= 8.78D-03 BMatP= 1.99D-02
 IDIUse=3 WtCom= 9.57D-01 WtEn= 4.31D-02
 Coeff-Com: -0.614D-01 0.102D+00 0.391D+00 0.569D+00
 Coeff-En:   0.000D+00 0.000D+00 0.355D+00 0.645D+00
 Coeff:     -0.587D-01 0.972D-01 0.390D+00 0.572D+00
 Gap=     0.039 Goal=   None    Shift=    0.000
 Gap=     0.034 Goal=   None    Shift=    0.000
 RMSDP=6.23D-03 MaxDP=2.62D-01 DE=-1.24D-02 OVMax= 1.57D-01

 Cycle   5  Pass 1  IDiag  1:
 E= -1136.09120747936     Delta-E=       -0.009419199703 Rises=F Damp=F
 DIIS: error= 1.47D-03 at cycle   5 NSaved=   5.
 NSaved= 5 IEnMin= 5 EnMin= -1136.09120747936     IErMin= 5 ErrMin= 1.47D-03
 ErrMax= 1.47D-03  0.00D+00 EMaxC= 1.00D-01 BMatC= 1.05D-03 BMatP= 8.78D-03
 IDIUse=3 WtCom= 9.85D-01 WtEn= 1.47D-02
 Coeff-Com: -0.669D-02 0.782D-02 0.214D+00 0.349D+00 0.435D+00
 Coeff-En:   0.000D+00 0.000D+00 0.000D+00 0.545D-01 0.946D+00
 Coeff:     -0.659D-02 0.770D-02 0.211D+00 0.345D+00 0.443D+00
 Gap=     0.038 Goal=   None    Shift=    0.000
 Gap=     0.034 Goal=   None    Shift=    0.000
 RMSDP=2.71D-03 MaxDP=2.29D-01 DE=-9.42D-03 OVMax= 4.51D-02

 Cycle   6  Pass 1  IDiag  1:
 E= -1136.09230794831     Delta-E=       -0.001100468949 Rises=F Damp=F
 DIIS: error= 5.71D-04 at cycle   6 NSaved=   6.
 NSaved= 6 IEnMin= 6 EnMin= -1136.09230794831     IErMin= 6 ErrMin= 5.71D-04
 ErrMax= 5.71D-04  0.00D+00 EMaxC= 1.00D-01 BMatC= 8.51D-05 BMatP= 1.05D-03
 IDIUse=3 WtCom= 9.94D-01 WtEn= 5.71D-03
 Coeff-Com:  0.689D-03-0.174D-02-0.208D-01-0.505D-01 0.185D+00 0.887D+00
 Coeff-En:   0.000D+00 0.000D+00 0.000D+00 0.000D+00 0.649D-01 0.935D+00
 Coeff:      0.685D-03-0.173D-02-0.207D-01-0.502D-01 0.185D+00 0.887D+00
 Gap=     0.039 Goal=   None    Shift=    0.000
 Gap=     0.035 Goal=   None    Shift=    0.000
 RMSDP=1.82D-03 MaxDP=1.25D-01 DE=-1.10D-03 OVMax= 1.74D-02

 Cycle   7  Pass 1  IDiag  1:
 E= -1136.09244105560     Delta-E=       -0.000133107287 Rises=F Damp=F
 DIIS: error= 9.27D-05 at cycle   7 NSaved=   7.
 NSaved= 7 IEnMin= 7 EnMin= -1136.09244105560     IErMin= 7 ErrMin= 9.27D-05
 ErrMax= 9.27D-05  0.00D+00 EMaxC= 1.00D-01 BMatC= 5.32D-06 BMatP= 8.51D-05
 IDIUse=1 WtCom= 1.00D+00 WtEn= 0.00D+00
 Coeff-Com:  0.149D-03-0.430D-03-0.148D-01-0.318D-01 0.459D-01 0.308D+00
 Coeff-Com:  0.694D+00
 Coeff:      0.149D-03-0.430D-03-0.148D-01-0.318D-01 0.459D-01 0.308D+00
 Coeff:      0.694D+00
 Gap=     0.039 Goal=   None    Shift=    0.000
 Gap=     0.036 Goal=   None    Shift=    0.000
 RMSDP=4.37D-04 MaxDP=3.60D-02 DE=-1.33D-04 OVMax= 8.18D-03

 Cycle   8  Pass 1  IDiag  1:
 E= -1136.09245665624     Delta-E=       -0.000015600647 Rises=F Damp=F
 DIIS: error= 7.88D-05 at cycle   8 NSaved=   8.
 NSaved= 8 IEnMin= 8 EnMin= -1136.09245665624     IErMin= 8 ErrMin= 7.88D-05
 ErrMax= 7.88D-05  0.00D+00 EMaxC= 1.00D-01 BMatC= 2.60D-06 BMatP= 5.32D-06
 IDIUse=1 WtCom= 1.00D+00 WtEn= 0.00D+00
 Coeff-Com:  0.157D-03-0.193D-03-0.293D-02-0.430D-02-0.274D-01-0.780D-01
 Coeff-Com:  0.372D+00 0.740D+00
 Coeff:      0.157D-03-0.193D-03-0.293D-02-0.430D-02-0.274D-01-0.780D-01
 Coeff:      0.372D+00 0.740D+00
 Gap=     0.039 Goal=   None    Shift=    0.000
 Gap=     0.036 Goal=   None    Shift=    0.000
 RMSDP=4.29D-04 MaxDP=2.76D-02 DE=-1.56D-05 OVMax= 7.57D-03

 Cycle   9  Pass 1  IDiag  1:
 E= -1136.09247044894     Delta-E=       -0.000013792698 Rises=F Damp=F
 DIIS: error= 5.67D-05 at cycle   9 NSaved=   9.
 NSaved= 9 IEnMin= 9 EnMin= -1136.09247044894     IErMin= 9 ErrMin= 5.67D-05
 ErrMax= 5.67D-05  0.00D+00 EMaxC= 1.00D-01 BMatC= 8.23D-07 BMatP= 2.60D-06
 IDIUse=1 WtCom= 1.00D+00 WtEn= 0.00D+00
 Coeff-Com:  0.277D-03-0.272D-03 0.117D-02 0.400D-02-0.158D-01-0.687D-01
 Coeff-Com: -0.139D+00 0.805D-01 0.114D+01
 Coeff:      0.277D-03-0.272D-03 0.117D-02 0.400D-02-0.158D-01-0.687D-01
 Coeff:     -0.139D+00 0.805D-01 0.114D+01
 Gap=     0.039 Goal=   None    Shift=    0.000
 Gap=     0.036 Goal=   None    Shift=    0.000
 RMSDP=5.54D-04 MaxDP=3.19D-02 DE=-1.38D-05 OVMax= 9.64D-03

 Cycle  10  Pass 1  IDiag  1:
 E= -1136.09248318556     Delta-E=       -0.000012736616 Rises=F Damp=F
 DIIS: error= 4.55D-05 at cycle  10 NSaved=  10.
 NSaved=10 IEnMin=10 EnMin= -1136.09248318556     IErMin=10 ErrMin= 4.55D-05
 ErrMax= 4.55D-05  0.00D+00 EMaxC= 1.00D-01 BMatC= 5.44D-07 BMatP= 8.23D-07
 IDIUse=1 WtCom= 1.00D+00 WtEn= 0.00D+00
 Coeff-Com: -0.147D-03 0.247D-03 0.103D-02 0.192D-02 0.688D-02 0.233D-01
 Coeff-Com: -0.171D+00-0.276D+00 0.323D+00 0.109D+01
 Coeff:     -0.147D-03 0.247D-03 0.103D-02 0.192D-02 0.688D-02 0.233D-01
 Coeff:     -0.171D+00-0.276D+00 0.323D+00 0.109D+01
 Gap=     0.039 Goal=   None    Shift=    0.000
 Gap=     0.036 Goal=   None    Shift=    0.000
 RMSDP=5.65D-04 MaxDP=3.92D-02 DE=-1.27D-05 OVMax= 9.86D-03

 Cycle  11  Pass 1  IDiag  1:
 E= -1136.09249410536     Delta-E=       -0.000010919801 Rises=F Damp=F
 DIIS: error= 4.07D-05 at cycle  11 NSaved=  11.
 NSaved=11 IEnMin=11 EnMin= -1136.09249410536     IErMin=11 ErrMin= 4.07D-05
 ErrMax= 4.07D-05  0.00D+00 EMaxC= 1.00D-01 BMatC= 4.11D-07 BMatP= 5.44D-07
 IDIUse=1 WtCom= 1.00D+00 WtEn= 0.00D+00
 Coeff-Com: -0.451D-03 0.612D-03-0.669D-03-0.173D-02 0.142D-01 0.665D-01
 Coeff-Com: -0.181D-01-0.166D+00-0.429D+00 0.355D+00 0.118D+01
 Coeff:     -0.451D-03 0.612D-03-0.669D-03-0.173D-02 0.142D-01 0.665D-01
 Coeff:     -0.181D-01-0.166D+00-0.429D+00 0.355D+00 0.118D+01
 Gap=     0.039 Goal=   None    Shift=    0.000
 Gap=     0.036 Goal=   None    Shift=    0.000
 RMSDP=6.48D-04 MaxDP=4.91D-02 DE=-1.09D-05 OVMax= 1.12D-02

 Cycle  12  Pass 1  IDiag  1:
 E= -1136.09250498960     Delta-E=       -0.000010884242 Rises=F Damp=F
 DIIS: error= 3.11D-05 at cycle  12 NSaved=  12.
 NSaved=12 IEnMin=12 EnMin= -1136.09250498960     IErMin=12 ErrMin= 3.11D-05
 ErrMax= 3.11D-05  0.00D+00 EMaxC= 1.00D-01 BMatC= 3.32D-07 BMatP= 4.11D-07
 IDIUse=1 WtCom= 1.00D+00 WtEn= 0.00D+00
 Coeff-Com: -0.248D-03 0.316D-03-0.190D-02-0.262D-02 0.333D-02 0.334D-01
 Coeff-Com:  0.920D-01 0.132D+00-0.391D+00-0.784D+00 0.617D+00 0.130D+01
 Coeff:     -0.248D-03 0.316D-03-0.190D-02-0.262D-02 0.333D-02 0.334D-01
 Coeff:      0.920D-01 0.132D+00-0.391D+00-0.784D+00 0.617D+00 0.130D+01
 Gap=     0.039 Goal=   None    Shift=    0.000
 Gap=     0.036 Goal=   None    Shift=    0.000
 RMSDP=8.21D-04 MaxDP=5.83D-02 DE=-1.09D-05 OVMax= 1.50D-02

 Cycle  13  Pass 1  IDiag  1:
 E= -1136.09251725568     Delta-E=       -0.000012266077 Rises=F Damp=F
 DIIS: error= 2.78D-05 at cycle  13 NSaved=  13.
 NSaved=13 IEnMin=13 EnMin= -1136.09251725568     IErMin=13 ErrMin= 2.78D-05
 ErrMax= 2.78D-05  0.00D+00 EMaxC= 1.00D-01 BMatC= 2.27D-07 BMatP= 3.32D-07
 IDIUse=1 WtCom= 1.00D+00 WtEn= 0.00D+00
 Coeff-Com:  0.472D-04-0.317D-04-0.397D-03 0.852D-03-0.113D-01-0.348D-01
 Coeff-Com: -0.693D-03 0.120D+00 0.341D+00-0.229D+00-0.906D+00-0.164D+00
 Coeff-Com:  0.188D+01
 Coeff:      0.472D-04-0.317D-04-0.397D-03 0.852D-03-0.113D-01-0.348D-01
 Coeff:     -0.693D-03 0.120D+00 0.341D+00-0.229D+00-0.906D+00-0.164D+00
 Coeff:      0.188D+01
 Gap=     0.039 Goal=   None    Shift=    0.000
 Gap=     0.036 Goal=   None    Shift=    0.000
 RMSDP=9.78D-04 MaxDP=7.36D-02 DE=-1.23D-05 OVMax= 1.90D-02

 Cycle  14  Pass 1  IDiag  1:
 E= -1136.09252938883     Delta-E=       -0.000012133150 Rises=F Damp=F
 DIIS: error= 2.25D-05 at cycle  14 NSaved=  14.
 NSaved=14 IEnMin=14 EnMin= -1136.09252938883     IErMin=14 ErrMin= 2.25D-05
 ErrMax= 2.25D-05  0.00D+00 EMaxC= 1.00D-01 BMatC= 1.40D-07 BMatP= 2.27D-07
 IDIUse=1 WtCom= 1.00D+00 WtEn= 0.00D+00
 Coeff-Com:  0.214D-04 0.772D-05 0.141D-02 0.239D-02 0.139D-03-0.113D-01
 Coeff-Com: -0.164D+00-0.192D+00 0.478D+00 0.120D+01-0.611D+00-0.227D+01
 Coeff-Com:  0.423D+00 0.215D+01
 Coeff:      0.214D-04 0.772D-05 0.141D-02 0.239D-02 0.139D-03-0.113D-01
 Coeff:     -0.164D+00-0.192D+00 0.478D+00 0.120D+01-0.611D+00-0.227D+01
 Coeff:      0.423D+00 0.215D+01
 Gap=     0.040 Goal=   None    Shift=    0.000
 Gap=     0.037 Goal=   None    Shift=    0.000
 RMSDP=1.35D-03 MaxDP=9.71D-02 DE=-1.21D-05 OVMax= 2.83D-02

 Cycle  15  Pass 1  IDiag  1:
 E= -1136.09253909856     Delta-E=       -0.000009709732 Rises=F Damp=F
 DIIS: error= 8.44D-06 at cycle  15 NSaved=  15.
 NSaved=15 IEnMin=15 EnMin= -1136.09253909856     IErMin=15 ErrMin= 8.44D-06
 ErrMax= 8.44D-06  0.00D+00 EMaxC= 1.00D-01 BMatC= 2.55D-08 BMatP= 1.40D-07
 IDIUse=1 WtCom= 1.00D+00 WtEn= 0.00D+00
 Coeff-Com: -0.800D-04 0.104D-03 0.402D-03-0.964D-04 0.735D-02 0.301D-01
 Coeff-Com: -0.216D-01-0.748D-01-0.141D+00 0.104D+00 0.511D+00-0.303D-01
 Coeff-Com: -0.742D+00 0.133D+00 0.122D+01
 Coeff:     -0.800D-04 0.104D-03 0.402D-03-0.964D-04 0.735D-02 0.301D-01
 Coeff:     -0.216D-01-0.748D-01-0.141D+00 0.104D+00 0.511D+00-0.303D-01
 Coeff:     -0.742D+00 0.133D+00 0.122D+01
 Gap=     0.040 Goal=   None    Shift=    0.000
 Gap=     0.037 Goal=   None    Shift=    0.000
 RMSDP=2.25D-04 MaxDP=1.37D-02 DE=-9.71D-06 OVMax= 5.90D-03

 Cycle  16  Pass 1  IDiag  1:
 E= -1136.09253972899     Delta-E=       -0.000000630425 Rises=F Damp=F
 DIIS: error= 2.71D-06 at cycle  16 NSaved=  16.
 NSaved=16 IEnMin=16 EnMin= -1136.09253972899     IErMin=16 ErrMin= 2.71D-06
 ErrMax= 2.71D-06  0.00D+00 EMaxC= 1.00D-01 BMatC= 5.46D-09 BMatP= 2.55D-08
 IDIUse=1 WtCom= 1.00D+00 WtEn= 0.00D+00
 Coeff-Com: -0.508D-04 0.618D-04-0.182D-03-0.311D-03 0.176D-02 0.896D-02
 Coeff-Com:  0.158D-01 0.220D-01-0.794D-01-0.193D+00 0.175D+00 0.427D+00
 Coeff-Com: -0.259D+00-0.371D+00 0.310D+00 0.942D+00
 Coeff:     -0.508D-04 0.618D-04-0.182D-03-0.311D-03 0.176D-02 0.896D-02
 Coeff:      0.158D-01 0.220D-01-0.794D-01-0.193D+00 0.175D+00 0.427D+00
 Coeff:     -0.259D+00-0.371D+00 0.310D+00 0.942D+00
 Gap=     0.040 Goal=   None    Shift=    0.000
 Gap=     0.037 Goal=   None    Shift=    0.000
 RMSDP=5.43D-05 MaxDP=3.73D-03 DE=-6.30D-07 OVMax= 1.51D-03

 Cycle  17  Pass 1  IDiag  1:
 E= -1136.09253980669     Delta-E=       -0.000000077704 Rises=F Damp=F
 DIIS: error= 1.53D-06 at cycle  17 NSaved=  17.
 NSaved=17 IEnMin=17 EnMin= -1136.09253980669     IErMin=17 ErrMin= 1.53D-06
 ErrMax= 1.53D-06  0.00D+00 EMaxC= 1.00D-01 BMatC= 1.17D-09 BMatP= 5.46D-09
 IDIUse=1 WtCom= 1.00D+00 WtEn= 0.00D+00
 Coeff-Com:  0.150D-04-0.226D-04-0.916D-04-0.222D-04-0.102D-02-0.350D-02
 Coeff-Com:  0.115D-01 0.225D-01-0.120D-01-0.100D+00 0.222D-02 0.163D+00
 Coeff-Com: -0.130D-02-0.162D+00 0.267D-01 0.109D-01 0.104D+01
 Coeff:      0.150D-04-0.226D-04-0.916D-04-0.222D-04-0.102D-02-0.350D-02
 Coeff:      0.115D-01 0.225D-01-0.120D-01-0.100D+00 0.222D-02 0.163D+00
 Coeff:     -0.130D-02-0.162D+00 0.267D-01 0.109D-01 0.104D+01
 Gap=     0.040 Goal=   None    Shift=    0.000
 Gap=     0.037 Goal=   None    Shift=    0.000
 RMSDP=5.16D-05 MaxDP=3.86D-03 DE=-7.77D-08 OVMax= 1.27D-03

 Cycle  18  Pass 1  IDiag  1:
 E= -1136.09253983006     Delta-E=       -0.000000023366 Rises=F Damp=F
 DIIS: error= 8.30D-07 at cycle  18 NSaved=  18.
 NSaved=18 IEnMin=18 EnMin= -1136.09253983006     IErMin=18 ErrMin= 8.30D-07
 ErrMax= 8.30D-07  0.00D+00 EMaxC= 1.00D-01 BMatC= 3.50D-10 BMatP= 1.17D-09
 IDIUse=1 WtCom= 1.00D+00 WtEn= 0.00D+00
 Coeff-Com:  0.878D-05-0.104D-04-0.331D-04 0.354D-04-0.887D-03-0.365D-02
 Coeff-Com:  0.216D-02 0.367D-02 0.163D-01-0.204D-02-0.386D-01-0.391D-01
 Coeff-Com:  0.814D-01 0.139D-01-0.855D-01-0.249D+00 0.337D+00 0.964D+00
 Coeff:      0.878D-05-0.104D-04-0.331D-04 0.354D-04-0.887D-03-0.365D-02
 Coeff:      0.216D-02 0.367D-02 0.163D-01-0.204D-02-0.386D-01-0.391D-01
 Coeff:      0.814D-01 0.139D-01-0.855D-01-0.249D+00 0.337D+00 0.964D+00
 Gap=     0.040 Goal=   None    Shift=    0.000
 Gap=     0.037 Goal=   None    Shift=    0.000
 RMSDP=1.11D-05 MaxDP=6.70D-04 DE=-2.34D-08 OVMax= 3.27D-04

 Cycle  19  Pass 1  IDiag  1:
 E= -1136.09253983282     Delta-E=       -0.000000002765 Rises=F Damp=F
 DIIS: error= 3.89D-07 at cycle  19 NSaved=  19.
 NSaved=19 IEnMin=19 EnMin= -1136.09253983282     IErMin=19 ErrMin= 3.89D-07
 ErrMax= 3.89D-07  0.00D+00 EMaxC= 1.00D-01 BMatC= 6.11D-11 BMatP= 3.50D-10
 IDIUse=1 WtCom= 1.00D+00 WtEn= 0.00D+00
 Coeff-Com: -0.117D-04 0.158D-04-0.218D-05-0.108D-04 0.425D-03 0.181D-02
 Coeff-Com: -0.178D-02-0.450D-02-0.460D-02 0.166D-01 0.139D-01-0.250D-01
 Coeff-Com: -0.112D-01 0.260D-01 0.453D-03 0.385D-01-0.181D+00-0.208D+00
 Coeff-Com:  0.134D+01
 Coeff:     -0.117D-04 0.158D-04-0.218D-05-0.108D-04 0.425D-03 0.181D-02
 Coeff:     -0.178D-02-0.450D-02-0.460D-02 0.166D-01 0.139D-01-0.250D-01
 Coeff:     -0.112D-01 0.260D-01 0.453D-03 0.385D-01-0.181D+00-0.208D+00
 Coeff:      0.134D+01
 Gap=     0.040 Goal=   None    Shift=    0.000
 Gap=     0.037 Goal=   None    Shift=    0.000
 RMSDP=7.47D-06 MaxDP=5.04D-04 DE=-2.77D-09 OVMax= 1.21D-04

 Cycle  20  Pass 1  IDiag  1:
 E= -1136.09253983328     Delta-E=       -0.000000000463 Rises=F Damp=F
 DIIS: error= 1.50D-07 at cycle  20 NSaved=  20.
 NSaved=20 IEnMin=20 EnMin= -1136.09253983328     IErMin=20 ErrMin= 1.50D-07
 ErrMax= 1.50D-07  0.00D+00 EMaxC= 1.00D-01 BMatC= 1.38D-11 BMatP= 6.11D-11
 IDIUse=1 WtCom= 1.00D+00 WtEn= 0.00D+00
 Coeff-Com:  0.524D-05-0.706D-05 0.217D-04 0.187D-04 0.314D-04 0.130D-03
 Coeff-Com: -0.829D-03-0.527D-03 0.389D-03 0.325D-02 0.191D-03-0.484D-04
 Coeff-Com: -0.115D-01 0.554D-02 0.189D-01 0.180D-01-0.582D-01-0.151D+00
 Coeff-Com:  0.567D-01 0.112D+01
 Coeff:      0.524D-05-0.706D-05 0.217D-04 0.187D-04 0.314D-04 0.130D-03
 Coeff:     -0.829D-03-0.527D-03 0.389D-03 0.325D-02 0.191D-03-0.484D-04
 Coeff:     -0.115D-01 0.554D-02 0.189D-01 0.180D-01-0.582D-01-0.151D+00
 Coeff:      0.567D-01 0.112D+01
 Gap=     0.040 Goal=   None    Shift=    0.000
 Gap=     0.037 Goal=   None    Shift=    0.000
 RMSDP=6.10D-06 MaxDP=5.94D-04 DE=-4.63D-10 OVMax= 1.17D-04

 Cycle  21  Pass 1  IDiag  1:
 E= -1136.09253983344     Delta-E=       -0.000000000153 Rises=F Damp=F
 DIIS: error= 8.81D-08 at cycle  21 NSaved=  20.
 NSaved=20 IEnMin=20 EnMin= -1136.09253983344     IErMin=20 ErrMin= 8.81D-08
 ErrMax= 8.81D-08  0.00D+00 EMaxC= 1.00D-01 BMatC= 3.10D-12 BMatP= 1.38D-11
 IDIUse=1 WtCom= 1.00D+00 WtEn= 0.00D+00
 Coeff-Com: -0.416D-06-0.300D-05-0.122D-05-0.255D-04-0.142D-03 0.498D-03
 Coeff-Com:  0.843D-03 0.548D-05-0.489D-02 0.464D-03 0.844D-02-0.246D-03
 Coeff-Com: -0.849D-02-0.787D-03 0.698D-02 0.304D-01 0.168D-01-0.278D+00
 Coeff-Com: -0.282D-01 0.126D+01
 Coeff:     -0.416D-06-0.300D-05-0.122D-05-0.255D-04-0.142D-03 0.498D-03
 Coeff:      0.843D-03 0.548D-05-0.489D-02 0.464D-03 0.844D-02-0.246D-03
 Coeff:     -0.849D-02-0.787D-03 0.698D-02 0.304D-01 0.168D-01-0.278D+00
 Coeff:     -0.282D-01 0.126D+01
 Gap=     0.040 Goal=   None    Shift=    0.000
 Gap=     0.037 Goal=   None    Shift=    0.000
 RMSDP=2.76D-06 MaxDP=1.57D-04 DE=-1.53D-10 OVMax= 5.18D-05

 Cycle  22  Pass 1  IDiag  1:
 E= -1136.09253983347     Delta-E=       -0.000000000032 Rises=F Damp=F
 DIIS: error= 5.08D-08 at cycle  22 NSaved=  20.
 NSaved=20 IEnMin=20 EnMin= -1136.09253983347     IErMin=20 ErrMin= 5.08D-08
 ErrMax= 5.08D-08  0.00D+00 EMaxC= 1.00D-01 BMatC= 7.40D-13 BMatP= 3.10D-12
 IDIUse=1 WtCom= 1.00D+00 WtEn= 0.00D+00
 Coeff-Com: -0.230D-05 0.403D-06-0.372D-05 0.241D-05 0.518D-04-0.454D-04
 Coeff-Com: -0.263D-03 0.172D-03 0.534D-03-0.915D-03 0.674D-03 0.501D-04
 Coeff-Com:  0.510D-04-0.836D-02 0.859D-02 0.267D-01-0.432D-02-0.216D+00
 Coeff-Com:  0.523D-01 0.114D+01
 Coeff:     -0.230D-05 0.403D-06-0.372D-05 0.241D-05 0.518D-04-0.454D-04
 Coeff:     -0.263D-03 0.172D-03 0.534D-03-0.915D-03 0.674D-03 0.501D-04
 Coeff:      0.510D-04-0.836D-02 0.859D-02 0.267D-01-0.432D-02-0.216D+00
 Coeff:      0.523D-01 0.114D+01
 Gap=     0.040 Goal=   None    Shift=    0.000
 Gap=     0.037 Goal=   None    Shift=    0.000
 RMSDP=9.87D-07 MaxDP=1.19D-04 DE=-3.23D-11 OVMax= 1.35D-05

 Cycle  23  Pass 1  IDiag  1:
 E= -1136.09253983348     Delta-E=       -0.000000000009 Rises=F Damp=F
 DIIS: error= 1.90D-08 at cycle  23 NSaved=  20.
 NSaved=20 IEnMin=20 EnMin= -1136.09253983348     IErMin=20 ErrMin= 1.90D-08
 ErrMax= 1.90D-08  0.00D+00 EMaxC= 1.00D-01 BMatC= 1.43D-13 BMatP= 7.40D-13
 IDIUse=1 WtCom= 1.00D+00 WtEn= 0.00D+00
 Coeff-Com: -0.835D-07 0.985D-05 0.523D-04-0.463D-04-0.120D-03-0.350D-03
 Coeff-Com:  0.477D-03 0.714D-03-0.927D-03-0.336D-03 0.786D-03 0.802D-03
 Coeff-Com: -0.316D-02-0.369D-02 0.667D-02 0.506D-01-0.595D-01-0.201D+00
 Coeff-Com:  0.264D+00 0.945D+00
 Coeff:     -0.835D-07 0.985D-05 0.523D-04-0.463D-04-0.120D-03-0.350D-03
 Coeff:      0.477D-03 0.714D-03-0.927D-03-0.336D-03 0.786D-03 0.802D-03
 Coeff:     -0.316D-02-0.369D-02 0.667D-02 0.506D-01-0.595D-01-0.201D+00
 Coeff:      0.264D+00 0.945D+00
 Gap=     0.040 Goal=   None    Shift=    0.000
 Gap=     0.037 Goal=   None    Shift=    0.000
 RMSDP=2.51D-07 MaxDP=3.24D-05 DE=-9.32D-12 OVMax= 2.74D-06

 Cycle  24  Pass 1  IDiag  1:
 E= -1136.09253983348     Delta-E=       -0.000000000002 Rises=F Damp=F
 DIIS: error= 1.18D-08 at cycle  24 NSaved=  20.
 NSaved=20 IEnMin=20 EnMin= -1136.09253983348     IErMin=20 ErrMin= 1.18D-08
 ErrMax= 1.18D-08  0.00D+00 EMaxC= 1.00D-01 BMatC= 4.77D-14 BMatP= 1.43D-13
 IDIUse=1 WtCom= 1.00D+00 WtEn= 0.00D+00
 Coeff-Com:  0.228D-05 0.155D-04-0.400D-04 0.748D-05 0.565D-04-0.300D-04
 Coeff-Com: -0.559D-04 0.247D-03-0.223D-03-0.217D-04 0.184D-03 0.153D-02
 Coeff-Com: -0.341D-02-0.553D-02 0.139D-01 0.415D-01-0.542D-01-0.244D+00
 Coeff-Com: -0.416D-01 0.129D+01
 Coeff:      0.228D-05 0.155D-04-0.400D-04 0.748D-05 0.565D-04-0.300D-04
 Coeff:     -0.559D-04 0.247D-03-0.223D-03-0.217D-04 0.184D-03 0.153D-02
 Coeff:     -0.341D-02-0.553D-02 0.139D-01 0.415D-01-0.542D-01-0.244D+00
 Coeff:     -0.416D-01 0.129D+01
 Gap=     0.040 Goal=   None    Shift=    0.000
 Gap=     0.037 Goal=   None    Shift=    0.000
 RMSDP=1.58D-07 MaxDP=1.15D-05 DE=-1.59D-12 OVMax= 3.15D-06

 Cycle  25  Pass 1  IDiag  1:
 E= -1136.09253983348     Delta-E=        0.000000000004 Rises=F Damp=F
 DIIS: error= 4.58D-09 at cycle  25 NSaved=  20.
 NSaved=20 IEnMin=19 EnMin= -1136.09253983348     IErMin=20 ErrMin= 4.58D-09
 ErrMax= 4.58D-09  0.00D+00 EMaxC= 1.00D-01 BMatC= 1.02D-14 BMatP= 4.77D-14
 IDIUse=1 WtCom= 1.00D+00 WtEn= 0.00D+00
 Coeff-Com: -0.108D-05 0.161D-04 0.182D-04 0.532D-05-0.179D-03 0.606D-04
 Coeff-Com:  0.325D-03-0.108D-03-0.249D-03 0.487D-04 0.300D-03 0.826D-03
 Coeff-Com: -0.702D-03-0.123D-01 0.335D-02 0.648D-01-0.673D-01-0.312D+00
 Coeff-Com:  0.120D+00 0.120D+01
 Coeff:     -0.108D-05 0.161D-04 0.182D-04 0.532D-05-0.179D-03 0.606D-04
 Coeff:      0.325D-03-0.108D-03-0.249D-03 0.487D-04 0.300D-03 0.826D-03
 Coeff:     -0.702D-03-0.123D-01 0.335D-02 0.648D-01-0.673D-01-0.312D+00
 Coeff:      0.120D+00 0.120D+01
 Gap=     0.040 Goal=   None    Shift=    0.000
 Gap=     0.037 Goal=   None    Shift=    0.000
 RMSDP=7.29D-08 MaxDP=6.50D-06 DE= 4.09D-12 OVMax= 1.50D-06

 Cycle  26  Pass 1  IDiag  1:
 E= -1136.09253983349     Delta-E=       -0.000000000015 Rises=F Damp=F
 DIIS: error= 1.49D-09 at cycle  26 NSaved=  20.
 NSaved=20 IEnMin=20 EnMin= -1136.09253983349     IErMin=20 ErrMin= 1.49D-09
 ErrMax= 1.49D-09  0.00D+00 EMaxC= 1.00D-01 BMatC= 1.90D-15 BMatP= 1.02D-14
 IDIUse=1 WtCom= 1.00D+00 WtEn= 0.00D+00
 Large coefficients: NSaved= 20 BigCof=    0.00 CofMax=   10.00 Det=-1.06D-15
 Inversion failed.  Reducing to 19 matrices.
 Large coefficients: NSaved= 19 BigCof=    0.00 CofMax=   10.00 Det=-1.12D-15
 Inversion failed.  Reducing to 18 matrices.
 Large coefficients: NSaved= 18 BigCof=    0.00 CofMax=   10.00 Det=-1.12D-15
 Inversion failed.  Reducing to 17 matrices.
 Large coefficients: NSaved= 17 BigCof=    0.00 CofMax=   10.00 Det=-1.36D-15
 Inversion failed.  Reducing to 16 matrices.
 Large coefficients: NSaved= 16 BigCof=    0.00 CofMax=   10.00 Det=-1.48D-15
 Inversion failed.  Reducing to 15 matrices.
 Coeff-Com: -0.882D-05 0.627D-05-0.276D-04 0.562D-04-0.217D-03 0.724D-04
 Coeff-Com:  0.873D-03-0.356D-03-0.681D-02 0.113D-01 0.159D-01 0.168D-02
 Coeff-Com: -0.111D+00-0.106D+00 0.119D+01
 Coeff:     -0.882D-05 0.627D-05-0.276D-04 0.562D-04-0.217D-03 0.724D-04
 Coeff:      0.873D-03-0.356D-03-0.681D-02 0.113D-01 0.159D-01 0.168D-02
 Coeff:     -0.111D+00-0.106D+00 0.119D+01
 Gap=     0.040 Goal=   None    Shift=    0.000
 Gap=     0.037 Goal=   None    Shift=    0.000
 RMSDP=8.01D-08 MaxDP=7.08D-06 DE=-1.55D-11 OVMax= 1.62D-06

 Cycle  27  Pass 1  IDiag  1:
 E= -1136.09253983348     Delta-E=        0.000000000013 Rises=F Damp=F
 DIIS: error= 8.21D-10 at cycle  27 NSaved=  16.
 NSaved=16 IEnMin=15 EnMin= -1136.09253983349     IErMin=16 ErrMin= 8.21D-10
 ErrMax= 8.21D-10  0.00D+00 EMaxC= 1.00D-01 BMatC= 2.11D-16 BMatP= 1.90D-15
 IDIUse=1 WtCom= 1.00D+00 WtEn= 0.00D+00
 Large coefficients: NSaved= 16 BigCof=    0.00 CofMax=   10.00 Det=-2.97D-16
 Inversion failed.  Reducing to 15 matrices.
 Coeff-Com:  0.236D-04-0.276D-04-0.150D-04-0.684D-04 0.122D-03 0.602D-03
 Coeff-Com:  0.129D-03-0.362D-02-0.109D-02 0.180D-01 0.289D-01-0.529D-01
 Coeff-Com: -0.107D+00 0.929D-01 0.102D+01
 Coeff:      0.236D-04-0.276D-04-0.150D-04-0.684D-04 0.122D-03 0.602D-03
 Coeff:      0.129D-03-0.362D-02-0.109D-02 0.180D-01 0.289D-01-0.529D-01
 Coeff:     -0.107D+00 0.929D-01 0.102D+01
 Gap=     0.040 Goal=   None    Shift=    0.000
 Gap=     0.037 Goal=   None    Shift=    0.000
 RMSDP=2.46D-08 MaxDP=1.92D-06 DE= 1.27D-11 OVMax= 3.90D-07

 Cycle  28  Pass 1  IDiag  1:
 E= -1136.09253983347     Delta-E=        0.000000000006 Rises=F Damp=F
 DIIS: error= 3.46D-10 at cycle  28 NSaved=  16.
 NSaved=16 IEnMin=14 EnMin= -1136.09253983349     IErMin=16 ErrMin= 3.46D-10
 ErrMax= 3.46D-10  0.00D+00 EMaxC= 1.00D-01 BMatC= 6.95D-17 BMatP= 2.11D-16
 IDIUse=1 WtCom= 1.00D+00 WtEn= 0.00D+00
 Large coefficients: NSaved= 16 BigCof=    0.00 CofMax=   10.00 Det=-1.25D-16
 Inversion failed.  Reducing to 15 matrices.
 Coeff-Com:  0.385D-05-0.170D-05 0.498D-05 0.696D-05-0.639D-04 0.286D-03
 Coeff-Com:  0.308D-03-0.281D-02 0.241D-02 0.402D-02 0.125D-01-0.548D-02
 Coeff-Com: -0.238D+00 0.214D+00 0.101D+01
 Coeff:      0.385D-05-0.170D-05 0.498D-05 0.696D-05-0.639D-04 0.286D-03
 Coeff:      0.308D-03-0.281D-02 0.241D-02 0.402D-02 0.125D-01-0.548D-02
 Coeff:     -0.238D+00 0.214D+00 0.101D+01
 Gap=     0.040 Goal=   None    Shift=    0.000
 Gap=     0.037 Goal=   None    Shift=    0.000
 RMSDP=5.98D-09 MaxDP=5.35D-07 DE= 6.14D-12 OVMax= 1.25D-07

 SCF Done:  E(UB3LYP) =  -1136.09253983     A.U. after   28 cycles
            NFock= 28  Conv=0.60D-08     -V/T= 2.0025
 <Sx>= 0.0000 <Sy>= 0.0000 <Sz>= 0.5000 <S**2>= 0.8264 S= 0.5375
 <L.S>= 0.000000000000E+00
 KE= 1.133230026256D+03 PE=-3.449170843415D+03 EE= 8.198965857058D+02
 Annihilation of the first spin contaminant:
 S**2 before annihilation     0.8264,   after     0.7514
 Leave Link  502 at Mon Nov 13 12:15:30 2023, MaxMem=  1879048192 cpu:             279.1 elap:              23.7
 (Enter /home/sekinelabo/g16/l601.exe)
 Copying SCF densities to generalized density rwf, IOpCl= 1 IROHF=0.

 **********************************************************************

            Population analysis using the SCF Density.

 **********************************************************************

 Orbital symmetries:
 Alpha Orbitals:
       Occupied  (A) (A) (A) (A) (A) (A) (A) (A) (A) (A) (A) (A)
                 (A) (A) (A) (A) (A) (A) (A) (A) (A) (A) (A) (A)
                 (A) (A) (A) (A) (A) (A) (A) (A) (A) (A) (A) (A)
                 (A) (A) (A)
       Virtual   (A) (A) (A) (A) (A) (A) (A) (A) (A) (A) (A) (A)
                 (A) (A) (A) (A) (A) (A) (A) (A) (A) (A) (A) (A)
                 (A) (A) (A) (A) (A) (A) (A) (A) (A) (A) (A) (A)
                 (A) (A) (A) (A) (A) (A) (A) (A) (A) (A) (A) (A)
                 (A) (A) (A) (A) (A) (A) (A) (A) (A) (A) (A) (A)
                 (A) (A) (A) (A) (A) (A) (A) (A) (A) (A) (A) (A)
                 (A) (A) (A) (A) (A) (A) (A) (A) (A) (A) (A) (A)
                 (A) (A) (A) (A) (A) (A) (A) (A) (A) (A) (A) (A)
                 (A) (A) (A) (A) (A) (A) (A) (A) (A) (A) (A) (A)
                 (A) (A) (A) (A) (A) (A) (A) (A) (A) (A) (A) (A)
                 (A) (A) (A) (A) (A) (A) (A) (A) (A) (A) (A) (A)
                 (A) (A) (A) (A) (A) (A) (A) (A) (A) (A) (A) (A)
                 (A) (A) (A) (A) (A) (A) (A) (A) (A) (A) (A) (A)
                 (A) (A) (A) (A) (A) (A) (A) (A) (A) (A) (A) (A)
                 (A) (A) (A)
 Beta  Orbitals:
       Occupied  (A) (A) (A) (A) (A) (A) (A) (A) (A) (A) (A) (A)
                 (A) (A) (A) (A) (A) (A) (A) (A) (A) (A) (A) (A)
                 (A) (A) (A) (A) (A) (A) (A) (A) (A) (A) (A) (A)
                 (A) (A)
       Virtual   (A) (A) (A) (A) (A) (A) (A) (A) (A) (A) (A) (A)
                 (A) (A) (A) (A) (A) (A) (A) (A) (A) (A) (A) (A)
                 (A) (A) (A) (A) (A) (A) (A) (A) (A) (A) (A) (A)
                 (A) (A) (A) (A) (A) (A) (A) (A) (A) (A) (A) (A)
                 (A) (A) (A) (A) (A) (A) (A) (A) (A) (A) (A) (A)
                 (A) (A) (A) (A) (A) (A) (A) (A) (A) (A) (A) (A)
                 (A) (A) (A) (A) (A) (A) (A) (A) (A) (A) (A) (A)
                 (A) (A) (A) (A) (A) (A) (A) (A) (A) (A) (A) (A)
                 (A) (A) (A) (A) (A) (A) (A) (A) (A) (A) (A) (A)
                 (A) (A) (A) (A) (A) (A) (A) (A) (A) (A) (A) (A)
                 (A) (A) (A) (A) (A) (A) (A) (A) (A) (A) (A) (A)
                 (A) (A) (A) (A) (A) (A) (A) (A) (A) (A) (A) (A)
                 (A) (A) (A) (A) (A) (A) (A) (A) (A) (A) (A) (A)
                 (A) (A) (A) (A) (A) (A) (A) (A) (A) (A) (A) (A)
                 (A) (A) (A) (A)
 The electronic state is 2-A.
 Alpha  occ. eigenvalues --  -38.45256 -38.44781 -38.44512 -38.43993 -38.43486
 Alpha  occ. eigenvalues --  -38.43305 -38.43176  -2.21320  -2.20605  -2.20518
 Alpha  occ. eigenvalues --   -2.20080  -2.19583  -2.19397  -2.19088  -1.15077
 Alpha  occ. eigenvalues --   -1.14997  -1.14915  -1.14306  -1.14233  -1.14217
 Alpha  occ. eigenvalues --   -1.14197  -1.14184  -1.14138  -1.13828  -1.13741
 Alpha  occ. eigenvalues --   -1.13715  -1.13330  -1.13245  -1.13203  -1.13069
 Alpha  occ. eigenvalues --   -1.13020  -1.12987  -1.12763  -1.12750  -1.12707
 Alpha  occ. eigenvalues --   -0.20073  -0.14683  -0.11553  -0.11395
 Alpha virt. eigenvalues --   -0.07416  -0.04862  -0.04172  -0.03184  -0.03029
 Alpha virt. eigenvalues --   -0.02177  -0.01997  -0.01330  -0.00722  -0.00119
 Alpha virt. eigenvalues --    0.00031   0.00304   0.00395   0.00724   0.00840
 Alpha virt. eigenvalues --    0.00975   0.01150   0.01333   0.01423   0.01475
 Alpha virt. eigenvalues --    0.01494   0.01656   0.01837   0.01923   0.02063
 Alpha virt. eigenvalues --    0.02170   0.02286   0.02518   0.02619   0.02668
 Alpha virt. eigenvalues --    0.02751   0.02896   0.02920   0.02959   0.03007
 Alpha virt. eigenvalues --    0.03173   0.03498   0.03635   0.03752   0.03856
 Alpha virt. eigenvalues --    0.04092   0.04379   0.04403   0.04691   0.04954
 Alpha virt. eigenvalues --    0.05141   0.05349   0.05492   0.05735   0.06061
 Alpha virt. eigenvalues --    0.06407   0.06572   0.06937   0.07267   0.07304
 Alpha virt. eigenvalues --    0.07356   0.08106   0.08292   0.08622   0.08812
 Alpha virt. eigenvalues --    0.09261   0.09871   0.10123   0.10964   0.11619
 Alpha virt. eigenvalues --    0.11811   0.12158   0.12700   0.12932   0.13286
 Alpha virt. eigenvalues --    0.13424   0.13754   0.14053   0.14663   0.15283
 Alpha virt. eigenvalues --    0.15734   0.16293   0.16935   0.19401   0.19612
 Alpha virt. eigenvalues --    0.23093   0.24281   0.25190   0.27429   0.29889
 Alpha virt. eigenvalues --    0.30990   0.31409   0.31937   0.32794   0.33798
 Alpha virt. eigenvalues --    0.34147   0.34827   0.35176   0.35821   0.37210
 Alpha virt. eigenvalues --    0.37819   0.38608   0.38900   0.40322   0.41215
 Alpha virt. eigenvalues --    0.43656   0.44052   0.44316   0.44511   0.44973
 Alpha virt. eigenvalues --    0.45242   0.45366   0.46411   0.46624   0.46690
 Alpha virt. eigenvalues --    0.47486   0.47763   0.48346   0.49059   0.49857
 Alpha virt. eigenvalues --    0.50663   0.51164   0.52181   0.52661   0.53192
 Alpha virt. eigenvalues --    0.53358   0.54372   0.54687   0.56621   0.58868
 Alpha virt. eigenvalues --    0.64704   0.66478   0.68525   0.70049   0.71262
 Alpha virt. eigenvalues --    0.72009   0.72608   0.73160   0.76214   0.81008
 Alpha virt. eigenvalues --    0.81054   2.08698   2.12438   2.20278   2.23235
 Alpha virt. eigenvalues --    2.27107   2.30741   2.31121   4.40519   4.41142
 Alpha virt. eigenvalues --    4.41526   4.41981   4.42556   4.43694   4.44674
 Alpha virt. eigenvalues --    4.45429   4.45741   4.46409   4.47690   4.52851
 Alpha virt. eigenvalues --    4.56505   4.59978   4.63016   4.65338   4.66080
 Alpha virt. eigenvalues --    4.73628   4.76217   4.76799   4.81694  96.29374
 Alpha virt. eigenvalues --   96.34297  96.44251  96.48795  96.54719  96.58877
 Alpha virt. eigenvalues --   96.60210
  Beta  occ. eigenvalues --  -38.45215 -38.44725 -38.44471 -38.43933 -38.43465
  Beta  occ. eigenvalues --  -38.43290 -38.43167  -2.21247  -2.20501  -2.20443
  Beta  occ. eigenvalues --   -2.19976  -2.19556  -2.19379  -2.19073  -1.15009
  Beta  occ. eigenvalues --   -1.14937  -1.14879  -1.14236  -1.14159  -1.14158
  Beta  occ. eigenvalues --   -1.14149  -1.14121  -1.14081  -1.13747  -1.13668
  Beta  occ. eigenvalues --   -1.13640  -1.13283  -1.13215  -1.13177  -1.13063
  Beta  occ. eigenvalues --   -1.12977  -1.12939  -1.12746  -1.12736  -1.12691
  Beta  occ. eigenvalues --   -0.19434  -0.14126  -0.11308
  Beta virt. eigenvalues --   -0.07625  -0.07128  -0.04727  -0.03539  -0.02958
  Beta virt. eigenvalues --   -0.02792  -0.01712  -0.01362  -0.01137  -0.00375
  Beta virt. eigenvalues --   -0.00041   0.00131   0.00342   0.00565   0.00771
  Beta virt. eigenvalues --    0.00870   0.01060   0.01196   0.01394   0.01496
  Beta virt. eigenvalues --    0.01577   0.01646   0.01700   0.01906   0.01979
  Beta virt. eigenvalues --    0.02124   0.02227   0.02365   0.02571   0.02666
  Beta virt. eigenvalues --    0.02748   0.02783   0.02946   0.02952   0.03019
  Beta virt. eigenvalues --    0.03094   0.03264   0.03517   0.03714   0.03770
  Beta virt. eigenvalues --    0.04021   0.04210   0.04450   0.04465   0.04793
  Beta virt. eigenvalues --    0.05039   0.05303   0.05355   0.05693   0.05898
  Beta virt. eigenvalues --    0.06145   0.06456   0.06616   0.07046   0.07373
  Beta virt. eigenvalues --    0.07429   0.07515   0.08128   0.08542   0.08689
  Beta virt. eigenvalues --    0.08936   0.09523   0.10060   0.10286   0.11122
  Beta virt. eigenvalues --    0.11873   0.12068   0.12349   0.12839   0.13058
  Beta virt. eigenvalues --    0.13474   0.13619   0.13970   0.14214   0.14828
  Beta virt. eigenvalues --    0.15449   0.16080   0.16469   0.17139   0.19593
  Beta virt. eigenvalues --    0.19762   0.23468   0.24702   0.25560   0.27654
  Beta virt. eigenvalues --    0.30243   0.31296   0.31846   0.32097   0.33092
  Beta virt. eigenvalues --    0.34085   0.34509   0.35109   0.35620   0.36212
  Beta virt. eigenvalues --    0.37714   0.38059   0.38821   0.39181   0.40438
  Beta virt. eigenvalues --    0.41428   0.43888   0.44194   0.44568   0.44698
  Beta virt. eigenvalues --    0.45135   0.45325   0.45536   0.46565   0.46756
  Beta virt. eigenvalues --    0.46908   0.47687   0.47930   0.48437   0.49136
  Beta virt. eigenvalues --    0.50062   0.50793   0.51420   0.52383   0.52876
  Beta virt. eigenvalues --    0.53376   0.53611   0.54543   0.54873   0.56782
  Beta virt. eigenvalues --    0.59035   0.64751   0.66699   0.68736   0.70184
  Beta virt. eigenvalues --    0.71415   0.72174   0.72902   0.73297   0.76380
  Beta virt. eigenvalues --    0.81070   0.81217   2.08860   2.12605   2.20338
  Beta virt. eigenvalues --    2.23401   2.27246   2.30813   2.31259   4.40593
  Beta virt. eigenvalues --    4.41188   4.41607   4.42042   4.42606   4.43781
  Beta virt. eigenvalues --    4.44766   4.45474   4.45814   4.46446   4.47736
  Beta virt. eigenvalues --    4.52886   4.56579   4.60014   4.63080   4.65385
  Beta virt. eigenvalues --    4.66141   4.73718   4.76256   4.76863   4.81750
  Beta virt. eigenvalues --   96.29426  96.34358  96.44274  96.48852  96.54762
  Beta virt. eigenvalues --   96.58909  96.60258
          Condensed to atoms (all electrons):
               1          2          3          4          5          6
     1  Na  14.462748  -1.321497  -2.448826   1.091214  -0.731128   0.003288
     2  Na  -1.321497  14.764431   1.824159   0.221677  -0.284604  -2.105248
     3  Na  -2.448826   1.824159  17.470089  -1.612919   1.315968  -4.942028
     4  Na   1.091214   0.221677  -1.612919  11.688480   0.235998  -0.474254
     5  Na  -0.731128  -0.284604   1.315968   0.235998  14.466899  -3.427735
     6  Na   0.003288  -2.105248  -4.942028  -0.474254  -3.427735  20.589553
     7  Na   1.211965  -2.007110  -1.935976   0.446799   0.216571   0.342513
               7
     1  Na   1.211965
     2  Na  -2.007110
     3  Na  -1.935976
     4  Na   0.446799
     5  Na   0.216571
     6  Na   0.342513
     7  Na  12.320147
          Atomic-Atomic Spin Densities.
               1          2          3          4          5          6
     1  Na   0.545923  -0.411276   0.582156  -0.398288  -0.553300   0.293435
     2  Na  -0.411276   0.598731   0.189433  -0.151771  -0.344865   0.565123
     3  Na   0.582156   0.189433  -0.242200   0.297886  -0.481408   0.170739
     4  Na  -0.398288  -0.151771   0.297886  -0.318302   0.281572   0.089254
     5  Na  -0.553300  -0.344865  -0.481408   0.281572   1.399292  -0.499666
     6  Na   0.293435   0.565123   0.170739   0.089254  -0.499666   0.061864
     7  Na  -0.045503  -0.369039  -0.052990   0.016910   0.454205  -0.333279
               7
     1  Na  -0.045503
     2  Na  -0.369039
     3  Na  -0.052990
     4  Na   0.016910
     5  Na   0.454205
     6  Na  -0.333279
     7  Na   0.356031
 Mulliken charges and spin densities:
               1          2
     1  Na  -1.267764   0.013148
     2  Na  -0.091808   0.076338
     3  Na   1.329532   0.463617
     4  Na  -0.596995  -0.182738
     5  Na  -0.791969   0.255830
     6  Na   1.013912   0.347471
     7  Na   0.405092   0.026335
 Sum of Mulliken charges =  -0.00000   1.00000
 Mulliken charges and spin densities with hydrogens summed into heavy atoms:
               1          2
     1  Na  -1.267764   0.013148
     2  Na  -0.091808   0.076338
     3  Na   1.329532   0.463617
     4  Na  -0.596995  -0.182738
     5  Na  -0.791969   0.255830
     6  Na   1.013912   0.347471
     7  Na   0.405092   0.026335
 Electronic spatial extent (au):  <R**2>=           2396.9808
 Charge=             -0.0000 electrons
 Dipole moment (field-independent basis, Debye):
    X=             -0.1002    Y=             -0.3867    Z=             -0.0045  Tot=              0.3995
 Quadrupole moment (field-independent basis, Debye-Ang):
   XX=            -55.8028   YY=            -74.0516   ZZ=            -68.6613
   XY=             -3.3555   XZ=             -1.2480   YZ=              2.7089
 Traceless Quadrupole moment (field-independent basis, Debye-Ang):
   XX=             10.3691   YY=             -7.8797   ZZ=             -2.4894
   XY=             -3.3555   XZ=             -1.2480   YZ=              2.7089
 Octapole moment (field-independent basis, Debye-Ang**2):
  XXX=            -14.7494  YYY=              0.4122  ZZZ=              3.0791  XYY=              3.2413
  XXY=              1.7567  XXZ=              1.8226  XZZ=             -2.0923  YZZ=             -8.3713
  YYZ=             -8.7559  XYZ=             -2.2670
 Hexadecapole moment (field-independent basis, Debye-Ang**3):
 XXXX=          -2309.8790 YYYY=          -1008.7224 ZZZZ=           -600.0052 XXXY=           -105.4346
 XXXZ=            -24.3228 YYYX=              6.6668 YYYZ=             28.7432 ZZZX=             -9.4383
 ZZZY=             16.6502 XXYY=           -560.0990 XXZZ=           -565.8479 YYZZ=           -261.7287
 XXYZ=             16.3920 YYXZ=             -3.4316 ZZXY=            -11.9846
 N-N= 3.599516916188D+02 E-N=-3.449170843519D+03  KE= 1.133230026256D+03
                          Isotropic Fermi Contact Couplings
        Atom                 a.u.       MegaHertz       Gauss      10(-4) cm-1
     1  Na(23)             0.15450     182.77650      65.21920      60.96768
     2  Na(23)            -0.02467     -29.18788     -10.41496      -9.73603
     3  Na(23)             0.16279     192.58604      68.71949      64.23979
     4  Na(23)             0.01245      14.72843       5.25547       4.91288
     5  Na(23)             0.22347     264.37115      94.33420      88.18472
     6  Na(23)            -0.01591     -18.81847      -6.71490      -6.27716
     7  Na(23)             0.24483     289.64355     103.35202      96.61469
 --------------------------------------------------------
       Center         ----  Spin Dipole Couplings  ----
                      3XX-RR        3YY-RR        3ZZ-RR
 --------------------------------------------------------
     1   Atom        0.003530     -0.021430      0.017901
     2   Atom       -0.008994      0.004503      0.004491
     3   Atom        0.002203     -0.013236      0.011033
     4   Atom       -0.002849     -0.008932      0.011782
     5   Atom       -0.015435      0.011265      0.004169
     6   Atom        0.047988     -0.051326      0.003338
     7   Atom       -0.005863      0.003877      0.001986
 --------------------------------------------------------
                        XY            XZ            YZ
 --------------------------------------------------------
     1   Atom       -0.005186      0.020628     -0.017144
     2   Atom       -0.032590      0.019391     -0.034243
     3   Atom        0.005229     -0.021761     -0.017048
     4   Atom       -0.005450      0.020071     -0.010356
     5   Atom        0.011561     -0.003233      0.011380
     6   Atom        0.004589     -0.053515     -0.013874
     7   Atom        0.000122      0.002347     -0.001843
 --------------------------------------------------------


 ---------------------------------------------------------------------------------
              Anisotropic Spin Dipole Couplings in Principal Axis System
 ---------------------------------------------------------------------------------

       Atom             a.u.   MegaHertz   Gauss  10(-4) cm-1        Axes

              Baa    -0.0281    -3.968    -1.416    -1.324 -0.1024  0.9162  0.3874
     1 Na(23) Bbb    -0.0094    -1.328    -0.474    -0.443  0.8424  0.2870 -0.4561
              Bcc     0.0375     5.296     1.890     1.767  0.5291 -0.2796  0.8012
 
              Baa    -0.0377    -5.319    -1.898    -1.774  0.6179  0.7249  0.3045
     2 Na(23) Bbb    -0.0213    -3.002    -1.071    -1.001 -0.6222  0.2140  0.7531
              Bcc     0.0589     8.321     2.969     2.776 -0.4807  0.6548 -0.5832
 
              Baa    -0.0239    -3.373    -1.203    -1.125  0.3249  0.7542  0.5707
     3 Na(23) Bbb    -0.0107    -1.517    -0.541    -0.506  0.7606 -0.5670  0.3162
              Bcc     0.0346     4.890     1.745     1.631 -0.5621 -0.3313  0.7578
 
              Baa    -0.0173    -2.444    -0.872    -0.815  0.7452 -0.2693 -0.6100
     4 Na(23) Bbb    -0.0120    -1.701    -0.607    -0.567  0.3897  0.9182  0.0708
              Bcc     0.0294     4.145     1.479     1.383  0.5411 -0.2905  0.7892
 
              Baa    -0.0218    -3.082    -1.100    -1.028  0.8705 -0.4018  0.2842
     5 Na(23) Bbb     0.0005     0.076     0.027     0.026 -0.4419 -0.3840  0.8107
              Bcc     0.0213     3.006     1.073     1.003  0.2167  0.8313  0.5118
 
              Baa    -0.0557    -7.871    -2.808    -2.625  0.1344  0.9306  0.3403
     6 Na(23) Bbb    -0.0289    -4.080    -1.456    -1.361  0.5481 -0.3560  0.7569
              Bcc     0.0846    11.951     4.264     3.986  0.8255  0.0848 -0.5579
 
              Baa    -0.0065    -0.925    -0.330    -0.308  0.9591 -0.0601 -0.2767
     7 Na(23) Bbb     0.0014     0.200     0.072     0.067  0.2604  0.5710  0.7785
              Bcc     0.0051     0.724     0.258     0.242 -0.1112  0.8187 -0.5633
 

 ---------------------------------------------------------------------------------

 No NMR shielding tensors so no spin-rotation constants.
 Leave Link  601 at Mon Nov 13 12:15:31 2023, MaxMem=  1879048192 cpu:               2.6 elap:               0.2
 (Enter /home/sekinelabo/g16/l701.exe)
 ... and contract with generalized density number  0.
 Compute integral first derivatives.
 Leave Link  701 at Mon Nov 13 12:15:31 2023, MaxMem=  1879048192 cpu:               2.2 elap:               0.1
 (Enter /home/sekinelabo/g16/l702.exe)
 L702 exits ... SP integral derivatives will be done elsewhere.
 Leave Link  702 at Mon Nov 13 12:15:31 2023, MaxMem=  1879048192 cpu:               0.4 elap:               0.0
 (Enter /home/sekinelabo/g16/l703.exe)
 Integral derivatives from FoFJK, PRISM(SPDF).
 Compute integral first derivatives, UseDBF=F ICtDFT=           0.
 Calling FoFJK, ICntrl=      2127 FMM=F ISym2X=0 I1Cent= 0 IOpClX= 1 NMat=1 NMatS=1 NMatT=0.
 FoFJK:  IHMeth= 1 ICntrl=    2127 DoSepK=F KAlg= 0 I1Cent=           0 FoldK=F
 IRaf=         0 NMat=       1 IRICut=       1 DoRegI=T DoRafI=F ISym2E= 0 IDoP0=0 IntGTp=1.
 FoFCou: FMM=F IPFlag=           0 FMFlag=      100000 FMFlg1=         800
         NFxFlg=           0 DoJE=F BraDBF=F KetDBF=F FulRan=T
         wScrn=  0.000000 ICntrl=      2127 IOpCl=  1 I1Cent=           0 NGrid=           0
         NMat0=    1 NMatS0=      1 NMatT0=    0 NMatD0=    1 NMtDS0=    0 NMtDT0=    0
 Symmetry not used in FoFCou.
 Leave Link  703 at Mon Nov 13 12:15:33 2023, MaxMem=  1879048192 cpu:              35.7 elap:               2.4
 (Enter /home/sekinelabo/g16/l716.exe)
 Dipole        =-3.94321689D-02-1.52121544D-01-1.75541904D-03
 ***** Axes restored to original set *****
 -------------------------------------------------------------------
 Center     Atomic                   Forces (Hartrees/Bohr)
 Number     Number              X              Y              Z
 -------------------------------------------------------------------
      1       11          -0.002462048    0.001887730   -0.014911797
      2       11           0.003763949    0.013767672    0.011140843
      3       11           0.008902817    0.004710711   -0.005267099
      4       11           0.004546367   -0.008934167   -0.000230950
      5       11          -0.002212265   -0.014490048    0.007052222
      6       11          -0.011388133    0.006832958    0.005076412
      7       11          -0.001150687   -0.003774856   -0.002859630
 -------------------------------------------------------------------
 Cartesian Forces:  Max     0.014911797 RMS     0.007807341
 Z-matrix is all fixed cartesians, so copy forces.
 Force constants in Cartesian coordinates: 
                1             2             3             4             5 
      1  0.130154D+00
      2  0.606637D-03  0.926420D-01
      3  0.216082D-01 -0.105364D-01  0.186215D+00
      4 -0.178803D-01 -0.613297D-02 -0.107167D-01  0.113081D+00
      5  0.141316D-02 -0.195768D-01  0.336159D-02  0.102809D-01  0.125788D+00
      6 -0.111256D-01 -0.262456D-01 -0.493914D-01 -0.123793D-02  0.414809D-01
      7 -0.460060D-01 -0.144187D-01  0.106366D-01 -0.303870D-01 -0.142300D-01
      8  0.171319D-02 -0.210593D-01  0.657535D-02  0.154843D-01 -0.260297D-01
      9 -0.334966D-01 -0.433691D-02 -0.313762D-01  0.277365D-01 -0.274847D-03
     10 -0.559768D-02  0.103527D-01  0.143396D-02  0.284224D-02  0.463662D-02
     11  0.380578D-02 -0.461038D-02 -0.498231D-02  0.976299D-02 -0.548282D-02
     12 -0.152332D-01  0.126610D-01 -0.121512D-01  0.508603D-02 -0.947587D-02
     13 -0.251947D-01  0.635167D-02 -0.855368D-02 -0.231721D-01 -0.996826D-02
     14 -0.615254D-02 -0.307449D-01  0.166419D-02 -0.660072D-02 -0.508922D-01
     15  0.796572D-02  0.346997D-01 -0.454487D-01 -0.220272D-02 -0.242020D-01
     16 -0.330855D-01  0.597604D-02 -0.122719D-01 -0.464643D-01  0.121997D-01
     17 -0.205876D-02 -0.181471D-01  0.339053D-02 -0.208000D-01 -0.295506D-01
     18  0.262207D-01 -0.985213D-02 -0.515840D-01 -0.173530D-01 -0.117855D-01
     19 -0.238947D-02 -0.273532D-02 -0.213644D-02  0.198044D-02 -0.433209D-02
     20  0.672529D-03  0.149636D-02  0.527063D-03 -0.199441D-02  0.574435D-02
     21  0.406080D-02  0.361039D-02  0.373690D-02 -0.131212D-02  0.895655D-03
                6             7             8             9            10 
      6  0.116552D+00
      7  0.497959D-03  0.117987D+00
      8 -0.178316D-01  0.171963D-01  0.931933D-01
      9 -0.337191D-01 -0.162416D-01 -0.103723D-01  0.747848D-01
     10 -0.162377D-02 -0.238000D-01 -0.202466D-01  0.915714D-02  0.706844D-01
     11 -0.911249D-03  0.155203D-01 -0.424677D-01  0.655113D-02 -0.153122D-01
     12  0.426837D-02 -0.682525D-03  0.130818D-01 -0.126169D-01 -0.955989D-02
     13  0.617263D-02 -0.117491D-01 -0.165382D-01  0.891307D-02 -0.433686D-01
     14  0.129653D-01 -0.308922D-02 -0.120468D-01  0.639461D-02  0.174612D-01
     15 -0.146129D-01  0.629992D-03  0.749118D-02 -0.839969D-02  0.157859D-02
     16  0.103445D-01 -0.604244D-02  0.243965D-02  0.394571D-02 -0.729850D-03
     17 -0.105248D-01 -0.991128D-03  0.844946D-02  0.199543D-02  0.309013D-02
     18 -0.279358D-01  0.517275D-02  0.897449D-03  0.113585D-01 -0.102418D-02
     19 -0.302776D-02 -0.229032D-05 -0.486109D-04 -0.142546D-04 -0.305531D-04
     20  0.106697D-02  0.125831D-04 -0.392409D-04  0.429191D-04  0.182393D-04
     21  0.483860D-02 -0.131684D-04  0.158242D-03 -0.313751D-04  0.381477D-04
               11            12            13            14            15 
     11  0.815993D-01
     12 -0.134601D-01  0.386633D-01
     13 -0.190042D-01  0.190321D-01  0.141189D+00
     14 -0.347338D-01  0.812891D-03  0.117533D-01  0.174778D+00
     15  0.155101D-01 -0.268664D-01 -0.177510D-01 -0.366328D-01  0.117994D+00
     16  0.527324D-02  0.141132D-02 -0.351416D-01 -0.104064D-01  0.117141D-01
     17  0.566168D-02 -0.361674D-02  0.233193D-01 -0.510025D-01  0.691839D-03
     18 -0.275563D-02  0.858563D-02 -0.735894D-02  0.151973D-01 -0.232422D-01
     19 -0.458498D-04 -0.538107D-04 -0.256250D-02 -0.296559D-02 -0.193468D-02
     20  0.337443D-04 -0.287141D-05  0.408640D-02  0.464243D-02  0.244196D-02
     21  0.481390D-04  0.117196D-03 -0.454143D-03 -0.401570D-03  0.576375D-03
               16            17            18            19            20 
     16  0.148760D+00
     17 -0.584856D-02  0.117291D+00
     18 -0.825590D-02  0.212952D-01  0.106830D+00
     19 -0.272961D-01  0.328905D-02  0.259863D-02  0.303005D-01
     20 -0.963375D-02 -0.327022D-01 -0.129967D-01  0.683842D-02  0.208245D-01
     21 -0.688783D-02 -0.132315D-01 -0.240125D-01  0.456831D-02  0.892066D-02
               21 
     21  0.147748D-01
 Leave Link  716 at Mon Nov 13 12:15:33 2023, MaxMem=  1879048192 cpu:               0.5 elap:               0.0
 (Enter /home/sekinelabo/g16/l103.exe)

 GradGradGradGradGradGradGradGradGradGradGradGradGradGradGradGradGradGrad
 Berny optimization.
 Search for a local minimum.
 Step number   1 out of a maximum of    2
 All quantities printed in internal units (Hartrees-Bohrs-Radians)
 Second derivative matrix not updated -- first step.
 ITU=  0
     Eigenvalues ---    0.01985   0.02764   0.04363   0.07656   0.09192
     Eigenvalues ---    0.11114   0.13171   0.14858   0.16004   0.17354
     Eigenvalues ---    0.19430   0.20121   0.21957   0.24081   0.25225
 Quadratic step=3.370D-01 exceeds max=3.000D-01 adjusted using Lamda=-8.178D-03.
 Angle between NR and scaled steps=   3.64 degrees.
 Angle between quadratic step and forces=  29.28 degrees.
 Linear search not attempted -- first point.
 B after Tr=     0.000000   -0.000000    0.000000
         Rot=    1.000000    0.000000   -0.000000    0.000000 Ang=   0.00 deg.
 Variable       Old X    -DE/DX   Delta X   Delta X   Delta X     New X
                                 (Linear)    (Quad)   (Total)
    X1        8.37567  -0.00246   0.00000  -0.01179  -0.01179   8.36388
    Y1        4.76693   0.00189   0.00000   0.04782   0.04782   4.81475
    Z1        0.00000  -0.01491   0.00000  -0.05793  -0.05793  -0.05793
    X2        9.67176   0.00376   0.00000   0.03268   0.03268   9.70444
    Y2        6.80457   0.01377   0.00000   0.11452   0.11452   6.91909
    Z2        5.10655   0.01114   0.00000   0.06353   0.06353   5.17008
    X3       13.80989   0.00890   0.00000   0.10592   0.10592  13.91581
    Y3        5.46206   0.00471   0.00000   0.02424   0.02424   5.48630
    Z3        1.46385  -0.00527   0.00000  -0.04295  -0.04295   1.42090
    X4       13.78408   0.00455   0.00000   0.06283   0.06283  13.84691
    Y4        0.00000  -0.00893   0.00000  -0.11910  -0.11910  -0.11910
    Z4        3.02690  -0.00023   0.00000  -0.02200  -0.02200   3.00489
    X5        8.45307  -0.00221   0.00000  -0.01117  -0.01117   8.44190
    Y5        1.29708  -0.01449   0.00000  -0.04699  -0.04699   1.25009
    Z5        4.49176   0.00705   0.00000   0.05936   0.05936   4.55112
    X6        4.36266  -0.01139   0.00000  -0.10105  -0.10105   4.26161
    Y6        5.17258   0.00683   0.00000   0.05336   0.05336   5.22593
    Z6        3.96893   0.00508   0.00000   0.04117   0.04117   4.01010
    X7        0.00000  -0.00115   0.00000  -0.07743  -0.07743  -0.07743
    Y7        2.20615  -0.00377   0.00000  -0.07385  -0.07385   2.13230
    Z7        1.89313  -0.00286   0.00000  -0.04119  -0.04119   1.85194
         Item               Value     Threshold  Converged?
 Maximum Force            0.014912     0.000450     NO 
 RMS     Force            0.007807     0.000300     NO 
 Maximum Displacement     0.119104     0.001800     NO 
 RMS     Displacement     0.065474     0.001200     NO 
 Predicted change in Energy=-5.049635D-03
 GradGradGradGradGradGradGradGradGradGradGradGradGradGradGradGradGradGrad

 Leave Link  103 at Mon Nov 13 12:15:34 2023, MaxMem=  1879048192 cpu:               0.3 elap:               0.0
 (Enter /home/sekinelabo/g16/l9999.exe)
 1\1\GINC-SEKINELABO-XA7R-R37\Force\UB3LYP\6-311+G(d)\Na7(2)\SEKINELABO
 \13-Nov-2023\0\\#P B3LYP/6-311+g(d) force\\Gaussian input prepared by 
 ASE\\0,2\Na,4.4322148112,2.5225516675,0.\Na,5.1180749431,3.6008232909,
 2.7022692937\Na,7.3078771381,2.8903972717,0.7746342679\Na,7.2942185112
 ,0.,1.6017652371\Na,4.4731701758,0.6863832577,2.3769365779\Na,2.308620
 4793,2.7372108488,2.1002679043\Na,0.,1.167441738,1.0018013038\\Version
 =ES64L-G16RevB.01\State=2-A\HF=-1136.0925398\S2=0.826434\S2-1=0.\S2A=0
 .751391\RMSD=5.983e-09\RMSF=7.807e-03\Dipole=-0.0394322,0.1521215,0.00
 17554\Quadrupole=7.7091491,-5.8583417,-1.8508074,2.4947016,0.9278675,2
 .0139997\PG=C01 [X(Na7)]\\@


 IN THE WOODS WE RETURN TO REASON AND FAITH.

                                 -- EMERSON
 Job cpu time:       0 days  0 hours  5 minutes 33.4 seconds.
 Elapsed time:       0 days  0 hours  0 minutes 27.3 seconds.
 File lengths (MBytes):  RWF=     32 Int=      0 D2E=      0 Chk=      5 Scr=      1
 Normal termination of Gaussian 16 at Mon Nov 13 12:15:34 2023.
