 Entering Gaussian System, Link 0=g16
 Initial command:
 /home/sekinelabo/g16/l1.exe "/home/sekinelabo/g16temp/Gau-3975403.inp" -scrdir="/home/sekinelabo/g16temp/"
 Entering Link 1 = /home/sekinelabo/g16/l1.exe PID=   3975405.
  
 Copyright (c) 1988-2017, Gaussian, Inc.  All Rights Reserved.
  
 This is part of the Gaussian(R) 16 program.  It is based on
 the Gaussian(R) 09 system (copyright 2009, Gaussian, Inc.),
 the Gaussian(R) 03 system (copyright 2003, Gaussian, Inc.),
 the Gaussian(R) 98 system (copyright 1998, Gaussian, Inc.),
 the Gaussian(R) 94 system (copyright 1995, Gaussian, Inc.),
 the Gaussian 92(TM) system (copyright 1992, Gaussian, Inc.),
 the Gaussian 90(TM) system (copyright 1990, Gaussian, Inc.),
 the Gaussian 88(TM) system (copyright 1988, Gaussian, Inc.),
 the Gaussian 86(TM) system (copyright 1986, Carnegie Mellon
 University), and the Gaussian 82(TM) system (copyright 1983,
 Carnegie Mellon University). Gaussian is a federally registered
 trademark of Gaussian, Inc.
  
 This software contains proprietary and confidential information,
 including trade secrets, belonging to Gaussian, Inc.
  
 This software is provided under written license and may be
 used, copied, transmitted, or stored only in accord with that
 written license.
  
 The following legend is applicable only to US Government
 contracts under FAR:
  
                    RESTRICTED RIGHTS LEGEND
  
 Use, reproduction and disclosure by the US Government is
 subject to restrictions as set forth in subparagraphs (a)
 and (c) of the Commercial Computer Software - Restricted
 Rights clause in FAR 52.227-19.
  
 Gaussian, Inc.
 340 Quinnipiac St., Bldg. 40, Wallingford CT 06492
  
  
 ---------------------------------------------------------------
 Warning -- This program may not be used in any manner that
 competes with the business of Gaussian, Inc. or will provide
 assistance to any competitor of Gaussian, Inc.  The licensee
 of this program is prohibited from giving any competitor of
 Gaussian, Inc. access to this program.  By using this program,
 the user acknowledges that Gaussian, Inc. is engaged in the
 business of creating and licensing software in the field of
 computational chemistry and represents and warrants to the
 licensee that it is not a competitor of Gaussian, Inc. and that
 it will not use this program in any manner prohibited above.
 ---------------------------------------------------------------
  

 Cite this work as:
 Gaussian 16, Revision B.01,
 M. J. Frisch, G. W. Trucks, H. B. Schlegel, G. E. Scuseria, 
 M. A. Robb, J. R. Cheeseman, G. Scalmani, V. Barone, 
 G. A. Petersson, H. Nakatsuji, X. Li, M. Caricato, A. V. Marenich, 
 J. Bloino, B. G. Janesko, R. Gomperts, B. Mennucci, H. P. Hratchian, 
 J. V. Ortiz, A. F. Izmaylov, J. L. Sonnenberg, D. Williams-Young, 
 F. Ding, F. Lipparini, F. Egidi, J. Goings, B. Peng, A. Petrone, 
 T. Henderson, D. Ranasinghe, V. G. Zakrzewski, J. Gao, N. Rega, 
 G. Zheng, W. Liang, M. Hada, M. Ehara, K. Toyota, R. Fukuda, 
 J. Hasegawa, M. Ishida, T. Nakajima, Y. Honda, O. Kitao, H. Nakai, 
 T. Vreven, K. Throssell, J. A. Montgomery, Jr., J. E. Peralta, 
 F. Ogliaro, M. J. Bearpark, J. J. Heyd, E. N. Brothers, K. N. Kudin, 
 V. N. Staroverov, T. A. Keith, R. Kobayashi, J. Normand, 
 K. Raghavachari, A. P. Rendell, J. C. Burant, S. S. Iyengar, 
 J. Tomasi, M. Cossi, J. M. Millam, M. Klene, C. Adamo, R. Cammi, 
 J. W. Ochterski, R. L. Martin, K. Morokuma, O. Farkas, 
 J. B. Foresman, and D. J. Fox, Gaussian, Inc., Wallingford CT, 2016.
 
 ******************************************
 Gaussian 16:  ES64L-G16RevB.01 20-Dec-2017
                13-Nov-2023 
 ******************************************
 %mem=14GB
 %chk=checkpoint.chk
 %nprocshared=16
 Will use up to   16 processors via shared memory.
 -------------------------
 #P B3LYP/6-311+g(d) force
 -------------------------
 1/10=7,30=1,38=1/1,3;
 2/12=2,17=6,18=5,40=1/2;
 3/5=4,6=6,7=11,11=2,25=1,30=1,71=1,74=-5/1,2,3;
 4//1;
 5/5=2,38=5/2;
 6/7=2,8=2,9=2,10=2,28=1/1;
 7/29=1/1,2,3,16;
 1/10=7,30=1/3;
 99//99;
 Leave Link    1 at Mon Nov 13 12:09:56 2023, MaxMem=  1879048192 cpu:               0.3 elap:               0.0
 (Enter /home/sekinelabo/g16/l101.exe)
 ------------------------------
 Gaussian input prepared by ASE
 ------------------------------
 Symbolic Z-matrix:
 Charge =  0 Multiplicity = 2
 Na                    2.49216   0.        2.1444 
 Na                    4.06597   1.81683   3.57088 
 Na                    4.0399    0.94418   0. 
 Na                    5.65536   0.04932   2.10871 
 Na                    5.56295   3.13722   1.59286 
 Na                    2.45675   3.07781   1.63714 
 Na                    0.        1.49901   1.82871 
 
 ITRead=  0  0  0  0  0  0  0
 MicOpt= -1 -1 -1 -1 -1 -1 -1
 NAtoms=      7 NQM=        7 NQMF=       0 NMMI=      0 NMMIF=      0
                NMic=       0 NMicF=      0.
                    Isotopes and Nuclear Properties:
 (Nuclear quadrupole moments (NQMom) in fm**2, nuclear magnetic moments (NMagM)
  in nuclear magnetons)

  Atom         1           2           3           4           5           6           7
 IAtWgt=          23          23          23          23          23          23          23
 AtmWgt=  22.9897697  22.9897697  22.9897697  22.9897697  22.9897697  22.9897697  22.9897697
 NucSpn=           3           3           3           3           3           3           3
 AtZEff=  -0.0000000  -0.0000000  -0.0000000  -0.0000000  -0.0000000  -0.0000000  -0.0000000
 NQMom=   10.4000000  10.4000000  10.4000000  10.4000000  10.4000000  10.4000000  10.4000000
 NMagM=    2.2175200   2.2175200   2.2175200   2.2175200   2.2175200   2.2175200   2.2175200
 AtZNuc=  11.0000000  11.0000000  11.0000000  11.0000000  11.0000000  11.0000000  11.0000000
 Leave Link  101 at Mon Nov 13 12:09:57 2023, MaxMem=  1879048192 cpu:               2.6 elap:               0.2
 (Enter /home/sekinelabo/g16/l103.exe)

 GradGradGradGradGradGradGradGradGradGradGradGradGradGradGradGradGradGrad
 Berny optimization.
 Initialization pass.
 Trust Radius=3.00D-01 FncErr=1.00D-07 GrdErr=1.00D-07 EigMax=2.50D+02 EigMin=1.00D-04
 Number of steps in this run=      2 maximum allowed number of steps=      2.
 GradGradGradGradGradGradGradGradGradGradGradGradGradGradGradGradGradGrad

 Leave Link  103 at Mon Nov 13 12:09:57 2023, MaxMem=  1879048192 cpu:               0.2 elap:               0.0
 (Enter /home/sekinelabo/g16/l202.exe)
                          Input orientation:                          
 ---------------------------------------------------------------------
 Center     Atomic      Atomic             Coordinates (Angstroms)
 Number     Number       Type             X           Y           Z
 ---------------------------------------------------------------------
      1         11           0        2.492157    0.000000    2.144395
      2         11           0        4.065969    1.816834    3.570885
      3         11           0        4.039895    0.944179    0.000000
      4         11           0        5.655357    0.049322    2.108712
      5         11           0        5.562949    3.137221    1.592856
      6         11           0        2.456754    3.077810    1.637138
      7         11           0        0.000000    1.499006    1.828710
 ---------------------------------------------------------------------
                    Distance matrix (angstroms):
                    1          2          3          4          5
     1  Na   0.000000
     2  Na   2.795111   0.000000
     3  Na   2.808095   3.676061   0.000000
     4  Na   3.163785   2.790734   2.803061   0.000000
     5  Na   4.424490   2.810155   3.109070   3.132054   0.000000
     6  Na   3.119531   2.814074   3.120727   4.430031   3.107079
     7  Na   2.925324   4.434895   4.469090   5.844916   5.803945
                    6          7
     6  Na   0.000000
     7  Na   2.926596   0.000000
 Stoichiometry    Na7(2)
 Framework group  C1[X(Na7)]
 Deg. of freedom    15
 Full point group                 C1      NOp   1
 Largest Abelian subgroup         C1      NOp   1
 Largest concise Abelian subgroup C1      NOp   1
                         Standard orientation:                         
 ---------------------------------------------------------------------
 Center     Atomic      Atomic             Coordinates (Angstroms)
 Number     Number       Type             X           Y           Z
 ---------------------------------------------------------------------
      1         11           0        0.975426   -1.503482   -0.304010
      2         11           0       -0.598386    0.313352   -1.730500
      3         11           0       -0.572312   -0.559303    1.840385
      4         11           0       -2.187773   -1.454159   -0.268327
      5         11           0       -2.095366    1.633739    0.247529
      6         11           0        1.010829    1.574328    0.203247
      7         11           0        3.467583   -0.004476    0.011675
 ---------------------------------------------------------------------
 Rotational constants (GHZ):           1.3256642           0.7205421           0.6505020
 Leave Link  202 at Mon Nov 13 12:09:57 2023, MaxMem=  1879048192 cpu:               0.0 elap:               0.0
 (Enter /home/sekinelabo/g16/l301.exe)
 Standard basis: 6-311+G(d) (5D, 7F)
 Ernie: Thresh=  0.10000D-02 Tol=  0.10000D-05 Strict=F.
 There are   217 symmetry adapted cartesian basis functions of A   symmetry.
 There are   210 symmetry adapted basis functions of A   symmetry.
   210 basis functions,   350 primitive gaussians,   217 cartesian basis functions
    39 alpha electrons       38 beta electrons
       nuclear repulsion energy       400.8276686327 Hartrees.
 IExCor=  402 DFT=T Ex+Corr=B3LYP ExCW=0 ScaHFX=  0.200000
 ScaDFX=  0.800000  0.720000  1.000000  0.810000 ScalE2=  1.000000  1.000000
 IRadAn=      5 IRanWt=     -1 IRanGd=            0 ICorTp=0 IEmpDi=  4
 NAtoms=    7 NActive=    7 NUniq=    7 SFac= 1.00D+00 NAtFMM=   60 NAOKFM=F Big=F
 Integral buffers will be    131072 words long.
 Raffenetti 2 integral format.
 Two-electron integral symmetry is turned on.
 Leave Link  301 at Mon Nov 13 12:09:57 2023, MaxMem=  1879048192 cpu:               0.5 elap:               0.0
 (Enter /home/sekinelabo/g16/l302.exe)
 NPDir=0 NMtPBC=     1 NCelOv=     1 NCel=       1 NClECP=     1 NCelD=      1
         NCelK=      1 NCelE2=     1 NClLst=     1 CellRange=     0.0.
 One-electron integrals computed using PRISM.
 One-electron integral symmetry used in STVInt
 NBasis=   210 RedAO= T EigKep=  3.49D-06  NBF=   210
 NBsUse=   209 1.00D-06 EigRej=  3.58D-07 NBFU=   209
 Precomputing XC quadrature grid using
 IXCGrd= 4 IRadAn=           5 IRanWt=          -1 IRanGd=           0 AccXCQ= 0.00D+00.
 Generated NRdTot=       0 NPtTot=           0 NUsed=           0 NTot=          32
 NSgBfM=   210   210   210   210   210 MxSgAt=     7 MxSgA2=     7.
 Leave Link  302 at Mon Nov 13 12:09:57 2023, MaxMem=  1879048192 cpu:               2.1 elap:               0.1
 (Enter /home/sekinelabo/g16/l303.exe)
 DipDrv:  MaxL=1.
 Leave Link  303 at Mon Nov 13 12:09:57 2023, MaxMem=  1879048192 cpu:               0.7 elap:               0.0
 (Enter /home/sekinelabo/g16/l401.exe)
 ExpMin= 7.60D-03 ExpMax= 3.62D+04 ExpMxC= 1.21D+03 IAcc=3 IRadAn=         5 AccDes= 0.00D+00
 Harris functional with IExCor=  402 and IRadAn=       5 diagonalized for initial guess.
 HarFok:  IExCor=  402 AccDes= 0.00D+00 IRadAn=         5 IDoV= 1 UseB2=F ITyADJ=14
 ICtDFT=  3500011 ScaDFX=  1.000000  1.000000  1.000000  1.000000
 FoFCou: FMM=F IPFlag=           0 FMFlag=      100000 FMFlg1=           0
         NFxFlg=           0 DoJE=T BraDBF=F KetDBF=T FulRan=T
         wScrn=  0.000000 ICntrl=       500 IOpCl=  0 I1Cent=   200000004 NGrid=           0
         NMat0=    1 NMatS0=      1 NMatT0=    0 NMatD0=    1 NMtDS0=    0 NMtDT0=    0
 Petite list used in FoFCou.
 Harris En= -1135.85912048429    
 JPrj=0 DoOrth=F DoCkMO=F.
 Initial guess <Sx>= 0.0000 <Sy>= 0.0000 <Sz>= 0.5000 <S**2>= 0.7500 S= 0.5000
 Leave Link  401 at Mon Nov 13 12:09:57 2023, MaxMem=  1879048192 cpu:               4.7 elap:               0.3
 (Enter /home/sekinelabo/g16/l502.exe)
 Keep R1 and R2 ints in memory in canonical form, NReq=507620374.
 FoFCou: FMM=F IPFlag=           0 FMFlag=           0 FMFlg1=           0
         NFxFlg=           0 DoJE=F BraDBF=F KetDBF=F FulRan=T
         wScrn=  0.000000 ICntrl=       600 IOpCl=  0 I1Cent=           0 NGrid=           0
         NMat0=    1 NMatS0=  22155 NMatT0=    0 NMatD0=    1 NMtDS0=    0 NMtDT0=    0
 Symmetry not used in FoFCou.
 Two-electron integral symmetry not used.
 UHF open shell SCF:
 Using DIIS extrapolation, IDIIS=  1040.
 NGot=  1879048192 LenX=  1388082362 LenY=  1388034832
 Requested convergence on RMS density matrix=1.00D-08 within 128 cycles.
 Requested convergence on MAX density matrix=1.00D-06.
 Requested convergence on             energy=1.00D-06.
 No special actions if energy rises.

 Cycle   1  Pass 1  IDiag  1:
 E= -1136.03629958579    
 DIIS: error= 1.57D-02 at cycle   1 NSaved=   1.
 NSaved= 1 IEnMin= 1 EnMin= -1136.03629958579     IErMin= 1 ErrMin= 1.57D-02
 ErrMax= 1.57D-02  0.00D+00 EMaxC= 1.00D-01 BMatC= 2.12D-01 BMatP= 2.12D-01
 IDIUse=3 WtCom= 8.43D-01 WtEn= 1.57D-01
 Coeff-Com:  0.100D+01
 Coeff-En:   0.100D+01
 Coeff:      0.100D+01
 Gap=     0.041 Goal=   None    Shift=    0.000
 Gap=     0.034 Goal=   None    Shift=    0.000
 GapD=    0.034 DampG=0.250 DampE=0.500 DampFc=0.2500 IDamp=-1.
 Damping current iteration by 2.50D-01
 RMSDP=8.46D-02 MaxDP=8.56D+00              OVMax= 2.88D-01

 Cycle   2  Pass 1  IDiag  1:
 E= -1136.05338087459     Delta-E=       -0.017081288800 Rises=F Damp=T
 DIIS: error= 7.49D-03 at cycle   2 NSaved=   2.
 NSaved= 2 IEnMin= 2 EnMin= -1136.05338087459     IErMin= 2 ErrMin= 7.49D-03
 ErrMax= 7.49D-03  0.00D+00 EMaxC= 1.00D-01 BMatC= 7.90D-02 BMatP= 2.12D-01
 IDIUse=3 WtCom= 9.25D-01 WtEn= 7.49D-02
 Coeff-Com: -0.122D+01 0.222D+01
 Coeff-En:   0.000D+00 0.100D+01
 Coeff:     -0.113D+01 0.213D+01
 Gap=     0.058 Goal=   None    Shift=    0.000
 Gap=     0.037 Goal=   None    Shift=    0.000
 RMSDP=3.90D-02 MaxDP=4.19D+00 DE=-1.71D-02 OVMax= 2.27D-01

 Cycle   3  Pass 1  IDiag  1:
 E= -1136.07899297082     Delta-E=       -0.025612096226 Rises=F Damp=F
 DIIS: error= 4.92D-03 at cycle   3 NSaved=   3.
 NSaved= 3 IEnMin= 3 EnMin= -1136.07899297082     IErMin= 3 ErrMin= 4.92D-03
 ErrMax= 4.92D-03  0.00D+00 EMaxC= 1.00D-01 BMatC= 7.47D-03 BMatP= 7.90D-02
 IDIUse=3 WtCom= 9.51D-01 WtEn= 4.92D-02
 Coeff-Com: -0.394D+00 0.701D+00 0.692D+00
 Coeff-En:   0.000D+00 0.000D+00 0.100D+01
 Coeff:     -0.374D+00 0.667D+00 0.708D+00
 Gap=     0.049 Goal=   None    Shift=    0.000
 Gap=     0.037 Goal=   None    Shift=    0.000
 RMSDP=1.61D-02 MaxDP=1.38D+00 DE=-2.56D-02 OVMax= 1.24D-01

 Cycle   4  Pass 1  IDiag  1:
 E= -1136.07974721587     Delta-E=       -0.000754245053 Rises=F Damp=F
 DIIS: error= 3.38D-03 at cycle   4 NSaved=   4.
 NSaved= 4 IEnMin= 4 EnMin= -1136.07974721587     IErMin= 4 ErrMin= 3.38D-03
 ErrMax= 3.38D-03  0.00D+00 EMaxC= 1.00D-01 BMatC= 5.30D-03 BMatP= 7.47D-03
 IDIUse=3 WtCom= 9.66D-01 WtEn= 3.38D-02
 Coeff-Com: -0.303D-01 0.506D-01 0.452D+00 0.528D+00
 Coeff-En:   0.000D+00 0.000D+00 0.469D+00 0.531D+00
 Coeff:     -0.293D-01 0.489D-01 0.452D+00 0.528D+00
 Gap=     0.053 Goal=   None    Shift=    0.000
 Gap=     0.037 Goal=   None    Shift=    0.000
 RMSDP=4.80D-03 MaxDP=3.78D-01 DE=-7.54D-04 OVMax= 8.01D-02

 Cycle   5  Pass 1  IDiag  1:
 E= -1136.08361790699     Delta-E=       -0.003870691116 Rises=F Damp=F
 DIIS: error= 1.65D-03 at cycle   5 NSaved=   5.
 NSaved= 5 IEnMin= 5 EnMin= -1136.08361790699     IErMin= 5 ErrMin= 1.65D-03
 ErrMax= 1.65D-03  0.00D+00 EMaxC= 1.00D-01 BMatC= 6.85D-04 BMatP= 5.30D-03
 IDIUse=3 WtCom= 9.84D-01 WtEn= 1.65D-02
 Coeff-Com: -0.708D-02 0.907D-02 0.276D+00 0.358D+00 0.364D+00
 Coeff-En:   0.000D+00 0.000D+00 0.000D+00 0.128D+00 0.872D+00
 Coeff:     -0.696D-02 0.892D-02 0.271D+00 0.354D+00 0.373D+00
 Gap=     0.053 Goal=   None    Shift=    0.000
 Gap=     0.037 Goal=   None    Shift=    0.000
 RMSDP=1.53D-03 MaxDP=1.10D-01 DE=-3.87D-03 OVMax= 2.47D-02

 Cycle   6  Pass 1  IDiag  1:
 E= -1136.08431462653     Delta-E=       -0.000696719546 Rises=F Damp=F
 DIIS: error= 1.20D-04 at cycle   6 NSaved=   6.
 NSaved= 6 IEnMin= 6 EnMin= -1136.08431462653     IErMin= 6 ErrMin= 1.20D-04
 ErrMax= 1.20D-04  0.00D+00 EMaxC= 1.00D-01 BMatC= 4.28D-06 BMatP= 6.85D-04
 IDIUse=3 WtCom= 9.99D-01 WtEn= 1.20D-03
 Coeff-Com: -0.700D-03 0.542D-03-0.160D-01-0.254D-01 0.345D-01 0.101D+01
 Coeff-En:   0.000D+00 0.000D+00 0.000D+00 0.000D+00 0.000D+00 0.100D+01
 Coeff:     -0.700D-03 0.541D-03-0.160D-01-0.254D-01 0.345D-01 0.101D+01
 Gap=     0.053 Goal=   None    Shift=    0.000
 Gap=     0.037 Goal=   None    Shift=    0.000
 RMSDP=5.19D-04 MaxDP=6.81D-02 DE=-6.97D-04 OVMax= 6.23D-03

 Cycle   7  Pass 1  IDiag  1:
 E= -1136.08432295065     Delta-E=       -0.000008324120 Rises=F Damp=F
 DIIS: error= 6.59D-05 at cycle   7 NSaved=   7.
 NSaved= 7 IEnMin= 7 EnMin= -1136.08432295065     IErMin= 7 ErrMin= 6.59D-05
 ErrMax= 6.59D-05  0.00D+00 EMaxC= 1.00D-01 BMatC= 1.93D-06 BMatP= 4.28D-06
 IDIUse=1 WtCom= 1.00D+00 WtEn= 0.00D+00
 Coeff-Com:  0.795D-04-0.323D-03-0.237D-01-0.335D-01-0.832D-03 0.561D+00
 Coeff-Com:  0.497D+00
 Coeff:      0.795D-04-0.323D-03-0.237D-01-0.335D-01-0.832D-03 0.561D+00
 Coeff:      0.497D+00
 Gap=     0.053 Goal=   None    Shift=    0.000
 Gap=     0.037 Goal=   None    Shift=    0.000
 RMSDP=1.30D-04 MaxDP=8.24D-03 DE=-8.32D-06 OVMax= 2.66D-03

 Cycle   8  Pass 1  IDiag  1:
 E= -1136.08432590612     Delta-E=       -0.000002955464 Rises=F Damp=F
 DIIS: error= 3.94D-05 at cycle   8 NSaved=   8.
 NSaved= 8 IEnMin= 8 EnMin= -1136.08432590612     IErMin= 8 ErrMin= 3.94D-05
 ErrMax= 3.94D-05  0.00D+00 EMaxC= 1.00D-01 BMatC= 3.38D-07 BMatP= 1.93D-06
 IDIUse=1 WtCom= 1.00D+00 WtEn= 0.00D+00
 Coeff-Com:  0.506D-03-0.603D-03 0.538D-03 0.325D-02-0.149D-01-0.289D+00
 Coeff-Com:  0.120D+00 0.118D+01
 Coeff:      0.506D-03-0.603D-03 0.538D-03 0.325D-02-0.149D-01-0.289D+00
 Coeff:      0.120D+00 0.118D+01
 Gap=     0.053 Goal=   None    Shift=    0.000
 Gap=     0.037 Goal=   None    Shift=    0.000
 RMSDP=2.17D-04 MaxDP=2.07D-02 DE=-2.96D-06 OVMax= 5.70D-03

 Cycle   9  Pass 1  IDiag  1:
 E= -1136.08432852536     Delta-E=       -0.000002619239 Rises=F Damp=F
 DIIS: error= 2.74D-05 at cycle   9 NSaved=   9.
 NSaved= 9 IEnMin= 9 EnMin= -1136.08432852536     IErMin= 9 ErrMin= 2.74D-05
 ErrMax= 2.74D-05  0.00D+00 EMaxC= 1.00D-01 BMatC= 1.08D-07 BMatP= 3.38D-07
 IDIUse=1 WtCom= 1.00D+00 WtEn= 0.00D+00
 Coeff-Com:  0.351D-04-0.190D-05 0.373D-02 0.664D-02-0.384D-02-0.154D+00
 Coeff-Com: -0.106D+00 0.165D+00 0.109D+01
 Coeff:      0.351D-04-0.190D-05 0.373D-02 0.664D-02-0.384D-02-0.154D+00
 Coeff:     -0.106D+00 0.165D+00 0.109D+01
 Gap=     0.052 Goal=   None    Shift=    0.000
 Gap=     0.037 Goal=   None    Shift=    0.000
 RMSDP=1.19D-04 MaxDP=1.01D-02 DE=-2.62D-06 OVMax= 4.22D-03

 Cycle  10  Pass 1  IDiag  1:
 E= -1136.08432961848     Delta-E=       -0.000001093121 Rises=F Damp=F
 DIIS: error= 1.87D-05 at cycle  10 NSaved=  10.
 NSaved=10 IEnMin=10 EnMin= -1136.08432961848     IErMin=10 ErrMin= 1.87D-05
 ErrMax= 1.87D-05  0.00D+00 EMaxC= 1.00D-01 BMatC= 4.21D-08 BMatP= 1.08D-07
 IDIUse=1 WtCom= 1.00D+00 WtEn= 0.00D+00
 Coeff-Com: -0.211D-03 0.290D-03 0.257D-02 0.214D-02 0.559D-02 0.433D-01
 Coeff-Com: -0.852D-01-0.426D+00 0.269D+00 0.119D+01
 Coeff:     -0.211D-03 0.290D-03 0.257D-02 0.214D-02 0.559D-02 0.433D-01
 Coeff:     -0.852D-01-0.426D+00 0.269D+00 0.119D+01
 Gap=     0.052 Goal=   None    Shift=    0.000
 Gap=     0.037 Goal=   None    Shift=    0.000
 RMSDP=8.90D-05 MaxDP=6.01D-03 DE=-1.09D-06 OVMax= 4.29D-03

 Cycle  11  Pass 1  IDiag  1:
 E= -1136.08433020937     Delta-E=       -0.000000590892 Rises=F Damp=F
 DIIS: error= 9.63D-06 at cycle  11 NSaved=  11.
 NSaved=11 IEnMin=11 EnMin= -1136.08433020937     IErMin=11 ErrMin= 9.63D-06
 ErrMax= 9.63D-06  0.00D+00 EMaxC= 1.00D-01 BMatC= 1.20D-08 BMatP= 4.21D-08
 IDIUse=1 WtCom= 1.00D+00 WtEn= 0.00D+00
 Coeff-Com: -0.467D-04 0.541D-04 0.221D-03-0.466D-03 0.250D-02 0.345D-01
 Coeff-Com:  0.762D-02-0.931D-01-0.200D+00 0.175D+00 0.107D+01
 Coeff:     -0.467D-04 0.541D-04 0.221D-03-0.466D-03 0.250D-02 0.345D-01
 Coeff:      0.762D-02-0.931D-01-0.200D+00 0.175D+00 0.107D+01
 Gap=     0.052 Goal=   None    Shift=    0.000
 Gap=     0.037 Goal=   None    Shift=    0.000
 RMSDP=3.28D-05 MaxDP=2.06D-03 DE=-5.91D-07 OVMax= 1.98D-03

 Cycle  12  Pass 1  IDiag  1:
 E= -1136.08433034855     Delta-E=       -0.000000139181 Rises=F Damp=F
 DIIS: error= 5.42D-06 at cycle  12 NSaved=  12.
 NSaved=12 IEnMin=12 EnMin= -1136.08433034855     IErMin=12 ErrMin= 5.42D-06
 ErrMax= 5.42D-06  0.00D+00 EMaxC= 1.00D-01 BMatC= 9.61D-09 BMatP= 1.20D-08
 IDIUse=1 WtCom= 1.00D+00 WtEn= 0.00D+00
 Coeff-Com:  0.426D-04-0.672D-04-0.843D-03-0.116D-02-0.295D-03 0.103D-01
 Coeff-Com:  0.358D-01 0.938D-01-0.244D+00-0.323D+00 0.754D+00 0.676D+00
 Coeff:      0.426D-04-0.672D-04-0.843D-03-0.116D-02-0.295D-03 0.103D-01
 Coeff:      0.358D-01 0.938D-01-0.244D+00-0.323D+00 0.754D+00 0.676D+00
 Gap=     0.052 Goal=   None    Shift=    0.000
 Gap=     0.037 Goal=   None    Shift=    0.000
 RMSDP=2.00D-05 MaxDP=1.23D-03 DE=-1.39D-07 OVMax= 1.13D-03

 Cycle  13  Pass 1  IDiag  1:
 E= -1136.08433040504     Delta-E=       -0.000000056493 Rises=F Damp=F
 DIIS: error= 3.17D-06 at cycle  13 NSaved=  13.
 NSaved=13 IEnMin=13 EnMin= -1136.08433040504     IErMin=13 ErrMin= 3.17D-06
 ErrMax= 3.17D-06  0.00D+00 EMaxC= 1.00D-01 BMatC= 2.35D-09 BMatP= 9.61D-09
 IDIUse=1 WtCom= 1.00D+00 WtEn= 0.00D+00
 Coeff-Com:  0.514D-04-0.670D-04-0.480D-03-0.563D-04-0.198D-02-0.196D-01
 Coeff-Com:  0.383D-02 0.950D-01 0.444D-01-0.196D+00-0.476D+00 0.153D+00
 Coeff-Com:  0.140D+01
 Coeff:      0.514D-04-0.670D-04-0.480D-03-0.563D-04-0.198D-02-0.196D-01
 Coeff:      0.383D-02 0.950D-01 0.444D-01-0.196D+00-0.476D+00 0.153D+00
 Coeff:      0.140D+01
 Gap=     0.052 Goal=   None    Shift=    0.000
 Gap=     0.037 Goal=   None    Shift=    0.000
 RMSDP=2.77D-05 MaxDP=2.39D-03 DE=-5.65D-08 OVMax= 1.18D-03

 Cycle  14  Pass 1  IDiag  1:
 E= -1136.08433043649     Delta-E=       -0.000000031443 Rises=F Damp=F
 DIIS: error= 9.43D-07 at cycle  14 NSaved=  14.
 NSaved=14 IEnMin=14 EnMin= -1136.08433043649     IErMin=14 ErrMin= 9.43D-07
 ErrMax= 9.43D-07  0.00D+00 EMaxC= 1.00D-01 BMatC= 3.16D-10 BMatP= 2.35D-09
 IDIUse=1 WtCom= 1.00D+00 WtEn= 0.00D+00
 Coeff-Com:  0.605D-05-0.501D-05 0.211D-03 0.284D-03-0.531D-04-0.580D-02
 Coeff-Com: -0.765D-02-0.186D-01 0.529D-01 0.117D+00-0.196D+00-0.221D+00
 Coeff-Com: -0.133D-01 0.129D+01
 Coeff:      0.605D-05-0.501D-05 0.211D-03 0.284D-03-0.531D-04-0.580D-02
 Coeff:     -0.765D-02-0.186D-01 0.529D-01 0.117D+00-0.196D+00-0.221D+00
 Coeff:     -0.133D-01 0.129D+01
 Gap=     0.052 Goal=   None    Shift=    0.000
 Gap=     0.037 Goal=   None    Shift=    0.000
 RMSDP=1.12D-05 MaxDP=1.13D-03 DE=-3.14D-08 OVMax= 3.53D-04

 Cycle  15  Pass 1  IDiag  1:
 E= -1136.08433044016     Delta-E=       -0.000000003675 Rises=F Damp=F
 DIIS: error= 2.95D-07 at cycle  15 NSaved=  15.
 NSaved=15 IEnMin=15 EnMin= -1136.08433044016     IErMin=15 ErrMin= 2.95D-07
 ErrMax= 2.95D-07  0.00D+00 EMaxC= 1.00D-01 BMatC= 2.88D-11 BMatP= 3.16D-10
 IDIUse=1 WtCom= 1.00D+00 WtEn= 0.00D+00
 Coeff-Com: -0.970D-05 0.133D-04 0.839D-04 0.430D-04 0.207D-03 0.182D-02
 Coeff-Com: -0.135D-02-0.135D-01 0.243D-02 0.341D-01 0.260D-01-0.420D-01
 Coeff-Com: -0.159D+00 0.180D+00 0.972D+00
 Coeff:     -0.970D-05 0.133D-04 0.839D-04 0.430D-04 0.207D-03 0.182D-02
 Coeff:     -0.135D-02-0.135D-01 0.243D-02 0.341D-01 0.260D-01-0.420D-01
 Coeff:     -0.159D+00 0.180D+00 0.972D+00
 Gap=     0.052 Goal=   None    Shift=    0.000
 Gap=     0.037 Goal=   None    Shift=    0.000
 RMSDP=1.98D-06 MaxDP=1.69D-04 DE=-3.67D-09 OVMax= 6.22D-05

 Cycle  16  Pass 1  IDiag  1:
 E= -1136.08433044032     Delta-E=       -0.000000000160 Rises=F Damp=F
 DIIS: error= 1.31D-07 at cycle  16 NSaved=  16.
 NSaved=16 IEnMin=16 EnMin= -1136.08433044032     IErMin=16 ErrMin= 1.31D-07
 ErrMax= 1.31D-07  0.00D+00 EMaxC= 1.00D-01 BMatC= 5.55D-12 BMatP= 2.88D-11
 IDIUse=1 WtCom= 1.00D+00 WtEn= 0.00D+00
 Coeff-Com: -0.227D-05 0.256D-05-0.846D-05-0.308D-04 0.672D-04 0.116D-02
 Coeff-Com:  0.112D-02 0.114D-02-0.771D-02-0.165D-01 0.396D-01 0.293D-01
 Coeff-Com: -0.299D-01-0.172D+00 0.168D+00 0.986D+00
 Coeff:     -0.227D-05 0.256D-05-0.846D-05-0.308D-04 0.672D-04 0.116D-02
 Coeff:      0.112D-02 0.114D-02-0.771D-02-0.165D-01 0.396D-01 0.293D-01
 Coeff:     -0.299D-01-0.172D+00 0.168D+00 0.986D+00
 Gap=     0.052 Goal=   None    Shift=    0.000
 Gap=     0.037 Goal=   None    Shift=    0.000
 RMSDP=6.52D-07 MaxDP=4.75D-05 DE=-1.60D-10 OVMax= 1.48D-05

 Cycle  17  Pass 1  IDiag  1:
 E= -1136.08433044035     Delta-E=       -0.000000000027 Rises=F Damp=F
 DIIS: error= 5.14D-08 at cycle  17 NSaved=  17.
 NSaved=17 IEnMin=17 EnMin= -1136.08433044035     IErMin=17 ErrMin= 5.14D-08
 ErrMax= 5.14D-08  0.00D+00 EMaxC= 1.00D-01 BMatC= 7.89D-13 BMatP= 5.55D-12
 IDIUse=1 WtCom= 1.00D+00 WtEn= 0.00D+00
 Coeff-Com:  0.208D-05-0.285D-05-0.122D-04-0.568D-05-0.403D-04-0.235D-03
 Coeff-Com:  0.209D-03 0.203D-02-0.152D-03-0.617D-02-0.256D-02 0.836D-02
 Coeff-Com:  0.267D-01-0.476D-01-0.134D+00 0.147D+00 0.101D+01
 Coeff:      0.208D-05-0.285D-05-0.122D-04-0.568D-05-0.403D-04-0.235D-03
 Coeff:      0.209D-03 0.203D-02-0.152D-03-0.617D-02-0.256D-02 0.836D-02
 Coeff:      0.267D-01-0.476D-01-0.134D+00 0.147D+00 0.101D+01
 Gap=     0.052 Goal=   None    Shift=    0.000
 Gap=     0.037 Goal=   None    Shift=    0.000
 RMSDP=2.14D-07 MaxDP=1.38D-05 DE=-2.73D-11 OVMax= 3.57D-06

 Cycle  18  Pass 1  IDiag  1:
 E= -1136.08433044035     Delta-E=       -0.000000000003 Rises=F Damp=F
 DIIS: error= 1.95D-08 at cycle  18 NSaved=  18.
 NSaved=18 IEnMin=18 EnMin= -1136.08433044035     IErMin=18 ErrMin= 1.95D-08
 ErrMax= 1.95D-08  0.00D+00 EMaxC= 1.00D-01 BMatC= 8.70D-14 BMatP= 7.89D-13
 IDIUse=1 WtCom= 1.00D+00 WtEn= 0.00D+00
 Coeff-Com:  0.240D-06-0.261D-06-0.137D-06 0.239D-05-0.876D-05-0.149D-03
 Coeff-Com: -0.985D-04-0.660D-04 0.532D-03 0.230D-02-0.454D-02-0.332D-02
 Coeff-Com:  0.293D-02 0.192D-01-0.970D-02-0.128D+00-0.356D-01 0.116D+01
 Coeff:      0.240D-06-0.261D-06-0.137D-06 0.239D-05-0.876D-05-0.149D-03
 Coeff:     -0.985D-04-0.660D-04 0.532D-03 0.230D-02-0.454D-02-0.332D-02
 Coeff:      0.293D-02 0.192D-01-0.970D-02-0.128D+00-0.356D-01 0.116D+01
 Gap=     0.052 Goal=   None    Shift=    0.000
 Gap=     0.037 Goal=   None    Shift=    0.000
 RMSDP=8.34D-08 MaxDP=5.71D-06 DE=-3.18D-12 OVMax= 1.73D-06

 Cycle  19  Pass 1  IDiag  1:
 E= -1136.08433044034     Delta-E=        0.000000000011 Rises=F Damp=F
 DIIS: error= 1.12D-08 at cycle  19 NSaved=  19.
 NSaved=19 IEnMin=18 EnMin= -1136.08433044035     IErMin=19 ErrMin= 1.12D-08
 ErrMax= 1.12D-08  0.00D+00 EMaxC= 1.00D-01 BMatC= 2.11D-14 BMatP= 8.70D-14
 IDIUse=1 WtCom= 1.00D+00 WtEn= 0.00D+00
 Coeff-Com: -0.435D-06 0.578D-06 0.101D-05-0.300D-06 0.761D-05 0.763D-04
 Coeff-Com:  0.349D-06-0.318D-03-0.693D-04 0.423D-03 0.122D-02-0.816D-03
 Coeff-Com: -0.445D-02 0.465D-02 0.166D-01 0.496D-02-0.129D+00-0.239D+00
 Coeff-Com:  0.135D+01
 Coeff:     -0.435D-06 0.578D-06 0.101D-05-0.300D-06 0.761D-05 0.763D-04
 Coeff:      0.349D-06-0.318D-03-0.693D-04 0.423D-03 0.122D-02-0.816D-03
 Coeff:     -0.445D-02 0.465D-02 0.166D-01 0.496D-02-0.129D+00-0.239D+00
 Coeff:      0.135D+01
 Gap=     0.052 Goal=   None    Shift=    0.000
 Gap=     0.037 Goal=   None    Shift=    0.000
 RMSDP=4.66D-08 MaxDP=2.81D-06 DE= 1.07D-11 OVMax= 1.44D-06

 Cycle  20  Pass 1  IDiag  1:
 E= -1136.08433044034     Delta-E=        0.000000000002 Rises=F Damp=F
 DIIS: error= 5.65D-09 at cycle  20 NSaved=  20.
 NSaved=20 IEnMin=18 EnMin= -1136.08433044035     IErMin=20 ErrMin= 5.65D-09
 ErrMax= 5.65D-09  0.00D+00 EMaxC= 1.00D-01 BMatC= 6.74D-15 BMatP= 2.11D-14
 IDIUse=1 WtCom= 1.00D+00 WtEn= 0.00D+00
 Large coefficients: NSaved= 20 BigCof=    0.00 CofMax=   10.00 Det=-5.37D-15
 Inversion failed.  Reducing to 19 matrices.
 Large coefficients: NSaved= 19 BigCof=    0.00 CofMax=   10.00 Det=-6.09D-15
 Inversion failed.  Reducing to 18 matrices.
 Large coefficients: NSaved= 18 BigCof=    0.00 CofMax=   10.00 Det=-6.36D-15
 Inversion failed.  Reducing to 17 matrices.
 Large coefficients: NSaved= 17 BigCof=    0.00 CofMax=   10.00 Det=-6.39D-15
 Inversion failed.  Reducing to 16 matrices.
 Large coefficients: NSaved= 16 BigCof=    0.00 CofMax=   10.00 Det=-6.43D-15
 Inversion failed.  Reducing to 15 matrices.
 Coeff-Com:  0.189D-05 0.204D-04 0.137D-03-0.159D-04-0.823D-03 0.678D-03
 Coeff-Com:  0.953D-03 0.477D-03-0.493D-02-0.661D-03 0.290D-01 0.160D-01
 Coeff-Com: -0.291D+00 0.475D-01 0.120D+01
 Coeff:      0.189D-05 0.204D-04 0.137D-03-0.159D-04-0.823D-03 0.678D-03
 Coeff:      0.953D-03 0.477D-03-0.493D-02-0.661D-03 0.290D-01 0.160D-01
 Coeff:     -0.291D+00 0.475D-01 0.120D+01
 Gap=     0.052 Goal=   None    Shift=    0.000
 Gap=     0.037 Goal=   None    Shift=    0.000
 RMSDP=3.08D-08 MaxDP=2.07D-06 DE= 2.27D-12 OVMax= 7.94D-07

 Cycle  21  Pass 1  IDiag  1:
 E= -1136.08433044035     Delta-E=       -0.000000000014 Rises=F Damp=F
 DIIS: error= 2.61D-09 at cycle  21 NSaved=  16.
 NSaved=16 IEnMin=16 EnMin= -1136.08433044035     IErMin=16 ErrMin= 2.61D-09
 ErrMax= 2.61D-09  0.00D+00 EMaxC= 1.00D-01 BMatC= 2.01D-15 BMatP= 6.74D-15
 IDIUse=1 WtCom= 1.00D+00 WtEn= 0.00D+00
 Large coefficients: NSaved= 16 BigCof=    0.00 CofMax=   10.00 Det=-2.47D-15
 Inversion failed.  Reducing to 15 matrices.
 Coeff-Com: -0.278D-05 0.947D-05-0.595D-05-0.172D-04 0.472D-04 0.159D-03
 Coeff-Com:  0.318D-03-0.130D-02-0.105D-02 0.363D-02 0.297D-01-0.204D-01
 Coeff-Com: -0.334D+00 0.209D+00 0.111D+01
 Coeff:     -0.278D-05 0.947D-05-0.595D-05-0.172D-04 0.472D-04 0.159D-03
 Coeff:      0.318D-03-0.130D-02-0.105D-02 0.363D-02 0.297D-01-0.204D-01
 Coeff:     -0.334D+00 0.209D+00 0.111D+01
 Gap=     0.052 Goal=   None    Shift=    0.000
 Gap=     0.037 Goal=   None    Shift=    0.000
 RMSDP=2.04D-08 MaxDP=1.08D-06 DE=-1.39D-11 OVMax= 5.15D-07

 Cycle  22  Pass 1  IDiag  1:
 E= -1136.08433044035     Delta-E=       -0.000000000002 Rises=F Damp=F
 DIIS: error= 1.15D-09 at cycle  22 NSaved=  16.
 NSaved=16 IEnMin=16 EnMin= -1136.08433044035     IErMin=16 ErrMin= 1.15D-09
 ErrMax= 1.15D-09  0.00D+00 EMaxC= 1.00D-01 BMatC= 4.41D-16 BMatP= 2.01D-15
 IDIUse=1 WtCom= 1.00D+00 WtEn= 0.00D+00
 Large coefficients: NSaved= 16 BigCof=    0.00 CofMax=   10.00 Det=-6.05D-16
 Inversion failed.  Reducing to 15 matrices.
 Coeff-Com: -0.932D-05-0.340D-04 0.952D-04 0.250D-05-0.913D-04-0.183D-03
 Coeff-Com:  0.428D-03 0.413D-03-0.339D-02-0.210D-02 0.524D-01-0.522D-01
 Coeff-Com: -0.213D+00 0.168D+00 0.105D+01
 Coeff:     -0.932D-05-0.340D-04 0.952D-04 0.250D-05-0.913D-04-0.183D-03
 Coeff:      0.428D-03 0.413D-03-0.339D-02-0.210D-02 0.524D-01-0.522D-01
 Coeff:     -0.213D+00 0.168D+00 0.105D+01
 Gap=     0.052 Goal=   None    Shift=    0.000
 Gap=     0.037 Goal=   None    Shift=    0.000
 RMSDP=1.03D-08 MaxDP=1.19D-06 DE=-2.05D-12 OVMax= 2.13D-07

 Cycle  23  Pass 1  IDiag  1:
 E= -1136.08433044034     Delta-E=        0.000000000015 Rises=F Damp=F
 DIIS: error= 5.24D-10 at cycle  23 NSaved=  16.
 NSaved=16 IEnMin=15 EnMin= -1136.08433044035     IErMin=16 ErrMin= 5.24D-10
 ErrMax= 5.24D-10  0.00D+00 EMaxC= 1.00D-01 BMatC= 1.64D-16 BMatP= 4.41D-16
 IDIUse=1 WtCom= 1.00D+00 WtEn= 0.00D+00
 Large coefficients: NSaved= 16 BigCof=    0.00 CofMax=   10.00 Det=-2.97D-16
 Inversion failed.  Reducing to 15 matrices.
 Coeff-Com: -0.475D-05 0.250D-04-0.704D-04-0.538D-04 0.271D-04 0.384D-03
 Coeff-Com: -0.278D-03-0.226D-02-0.633D-02 0.326D-01 0.583D-01-0.153D+00
 Coeff-Com: -0.227D+00 0.410D+00 0.889D+00
 Coeff:     -0.475D-05 0.250D-04-0.704D-04-0.538D-04 0.271D-04 0.384D-03
 Coeff:     -0.278D-03-0.226D-02-0.633D-02 0.326D-01 0.583D-01-0.153D+00
 Coeff:     -0.227D+00 0.410D+00 0.889D+00
 Gap=     0.052 Goal=   None    Shift=    0.000
 Gap=     0.037 Goal=   None    Shift=    0.000
 RMSDP=6.44D-09 MaxDP=8.43D-07 DE= 1.48D-11 OVMax= 8.74D-08

 SCF Done:  E(UB3LYP) =  -1136.08433044     A.U. after   23 cycles
            NFock= 23  Conv=0.64D-08     -V/T= 2.0023
 <Sx>= 0.0000 <Sy>= 0.0000 <Sz>= 0.5000 <S**2>= 0.7601 S= 0.5050
 <L.S>= 0.000000000000E+00
 KE= 1.133432510700D+03 PE=-3.531133422355D+03 EE= 8.607889125819D+02
 Annihilation of the first spin contaminant:
 S**2 before annihilation     0.7601,   after     0.7501
 Leave Link  502 at Mon Nov 13 12:10:17 2023, MaxMem=  1879048192 cpu:             234.3 elap:              19.6
 (Enter /home/sekinelabo/g16/l601.exe)
 Copying SCF densities to generalized density rwf, IOpCl= 1 IROHF=0.

 **********************************************************************

            Population analysis using the SCF Density.

 **********************************************************************

 Orbital symmetries:
 Alpha Orbitals:
       Occupied  (A) (A) (A) (A) (A) (A) (A) (A) (A) (A) (A) (A)
                 (A) (A) (A) (A) (A) (A) (A) (A) (A) (A) (A) (A)
                 (A) (A) (A) (A) (A) (A) (A) (A) (A) (A) (A) (A)
                 (A) (A) (A)
       Virtual   (A) (A) (A) (A) (A) (A) (A) (A) (A) (A) (A) (A)
                 (A) (A) (A) (A) (A) (A) (A) (A) (A) (A) (A) (A)
                 (A) (A) (A) (A) (A) (A) (A) (A) (A) (A) (A) (A)
                 (A) (A) (A) (A) (A) (A) (A) (A) (A) (A) (A) (A)
                 (A) (A) (A) (A) (A) (A) (A) (A) (A) (A) (A) (A)
                 (A) (A) (A) (A) (A) (A) (A) (A) (A) (A) (A) (A)
                 (A) (A) (A) (A) (A) (A) (A) (A) (A) (A) (A) (A)
                 (A) (A) (A) (A) (A) (A) (A) (A) (A) (A) (A) (A)
                 (A) (A) (A) (A) (A) (A) (A) (A) (A) (A) (A) (A)
                 (A) (A) (A) (A) (A) (A) (A) (A) (A) (A) (A) (A)
                 (A) (A) (A) (A) (A) (A) (A) (A) (A) (A) (A) (A)
                 (A) (A) (A) (A) (A) (A) (A) (A) (A) (A) (A) (A)
                 (A) (A) (A) (A) (A) (A) (A) (A) (A) (A) (A) (A)
                 (A) (A) (A) (A) (A) (A) (A) (A) (A) (A) (A) (A)
                 (A) (A)
 Beta  Orbitals:
       Occupied  (A) (A) (A) (A) (A) (A) (A) (A) (A) (A) (A) (A)
                 (A) (A) (A) (A) (A) (A) (A) (A) (A) (A) (A) (A)
                 (A) (A) (A) (A) (A) (A) (A) (A) (A) (A) (A) (A)
                 (A) (A)
       Virtual   (A) (A) (A) (A) (A) (A) (A) (A) (A) (A) (A) (A)
                 (A) (A) (A) (A) (A) (A) (A) (A) (A) (A) (A) (A)
                 (A) (A) (A) (A) (A) (A) (A) (A) (A) (A) (A) (A)
                 (A) (A) (A) (A) (A) (A) (A) (A) (A) (A) (A) (A)
                 (A) (A) (A) (A) (A) (A) (A) (A) (A) (A) (A) (A)
                 (A) (A) (A) (A) (A) (A) (A) (A) (A) (A) (A) (A)
                 (A) (A) (A) (A) (A) (A) (A) (A) (A) (A) (A) (A)
                 (A) (A) (A) (A) (A) (A) (A) (A) (A) (A) (A) (A)
                 (A) (A) (A) (A) (A) (A) (A) (A) (A) (A) (A) (A)
                 (A) (A) (A) (A) (A) (A) (A) (A) (A) (A) (A) (A)
                 (A) (A) (A) (A) (A) (A) (A) (A) (A) (A) (A) (A)
                 (A) (A) (A) (A) (A) (A) (A) (A) (A) (A) (A) (A)
                 (A) (A) (A) (A) (A) (A) (A) (A) (A) (A) (A) (A)
                 (A) (A) (A) (A) (A) (A) (A) (A) (A) (A) (A) (A)
                 (A) (A) (A)
 The electronic state is 2-A.
 Alpha  occ. eigenvalues --  -38.45302 -38.44428 -38.44165 -38.43735 -38.43333
 Alpha  occ. eigenvalues --  -38.43126 -38.42943  -2.21201  -2.20677  -2.20315
 Alpha  occ. eigenvalues --   -2.19839  -2.19399  -2.19318  -2.19092  -1.14916
 Alpha  occ. eigenvalues --   -1.14882  -1.14812  -1.14457  -1.14403  -1.14336
 Alpha  occ. eigenvalues --   -1.14114  -1.14027  -1.13914  -1.13496  -1.13449
 Alpha  occ. eigenvalues --   -1.13415  -1.13096  -1.13053  -1.13039  -1.13003
 Alpha  occ. eigenvalues --   -1.12971  -1.12889  -1.12792  -1.12733  -1.12657
 Alpha  occ. eigenvalues --   -0.21199  -0.14449  -0.12131  -0.11780
 Alpha virt. eigenvalues --   -0.06544  -0.04238  -0.03846  -0.03454  -0.02570
 Alpha virt. eigenvalues --   -0.02546  -0.02014  -0.00595  -0.00148   0.00192
 Alpha virt. eigenvalues --    0.00484   0.00614   0.00818   0.00935   0.01041
 Alpha virt. eigenvalues --    0.01281   0.01347   0.01453   0.01506   0.01635
 Alpha virt. eigenvalues --    0.01686   0.01730   0.01829   0.01945   0.02102
 Alpha virt. eigenvalues --    0.02311   0.02566   0.02746   0.02814   0.02899
 Alpha virt. eigenvalues --    0.03032   0.03043   0.03055   0.03268   0.03412
 Alpha virt. eigenvalues --    0.03561   0.03869   0.03954   0.04083   0.04222
 Alpha virt. eigenvalues --    0.04485   0.04728   0.04875   0.05353   0.05535
 Alpha virt. eigenvalues --    0.05782   0.05915   0.06022   0.06174   0.06284
 Alpha virt. eigenvalues --    0.06955   0.06991   0.07089   0.07120   0.07253
 Alpha virt. eigenvalues --    0.08657   0.08843   0.09349   0.09661   0.09920
 Alpha virt. eigenvalues --    0.10273   0.10507   0.11176   0.12761   0.12973
 Alpha virt. eigenvalues --    0.13531   0.13937   0.14290   0.14426   0.14725
 Alpha virt. eigenvalues --    0.14924   0.15251   0.15340   0.15478   0.16223
 Alpha virt. eigenvalues --    0.17074   0.17859   0.17995   0.20955   0.22056
 Alpha virt. eigenvalues --    0.23098   0.27379   0.27635   0.27858   0.30542
 Alpha virt. eigenvalues --    0.31099   0.32873   0.33626   0.34136   0.35172
 Alpha virt. eigenvalues --    0.35756   0.37226   0.37706   0.38359   0.40416
 Alpha virt. eigenvalues --    0.40605   0.40992   0.42844   0.43183   0.44705
 Alpha virt. eigenvalues --    0.44946   0.45045   0.46065   0.47106   0.47225
 Alpha virt. eigenvalues --    0.47689   0.48017   0.48159   0.48493   0.48909
 Alpha virt. eigenvalues --    0.49931   0.50725   0.50772   0.51557   0.52825
 Alpha virt. eigenvalues --    0.54349   0.54820   0.55134   0.56648   0.57806
 Alpha virt. eigenvalues --    0.58533   0.59774   0.64748   0.65115   0.66110
 Alpha virt. eigenvalues --    0.68491   0.71331   0.72814   0.73310   0.76175
 Alpha virt. eigenvalues --    0.79232   0.80716   0.83824   0.84176   0.85501
 Alpha virt. eigenvalues --    2.12477   2.19547   2.26669   2.28783   2.31471
 Alpha virt. eigenvalues --    2.32156   2.37260   4.40916   4.41425   4.41571
 Alpha virt. eigenvalues --    4.42325   4.42867   4.44054   4.45309   4.46918
 Alpha virt. eigenvalues --    4.48344   4.51201   4.53558   4.58598   4.66050
 Alpha virt. eigenvalues --    4.69943   4.70725   4.72795   4.75885   4.77527
 Alpha virt. eigenvalues --    4.80854   4.81407   4.87939  96.34286  96.43316
 Alpha virt. eigenvalues --   96.54513  96.56783  96.60969  96.61307  96.68953
  Beta  occ. eigenvalues --  -38.45310 -38.44337 -38.44077 -38.43716 -38.43318
  Beta  occ. eigenvalues --  -38.43102 -38.42924  -2.21217  -2.20514  -2.20155
  Beta  occ. eigenvalues --   -2.19811  -2.19377  -2.19283  -2.19064  -1.14926
  Beta  occ. eigenvalues --   -1.14895  -1.14812  -1.14363  -1.14285  -1.14210
  Beta  occ. eigenvalues --   -1.14025  -1.13914  -1.13791  -1.13460  -1.13408
  Beta  occ. eigenvalues --   -1.13371  -1.13085  -1.13023  -1.13004  -1.12973
  Beta  occ. eigenvalues --   -1.12881  -1.12873  -1.12776  -1.12661  -1.12645
  Beta  occ. eigenvalues --   -0.20352  -0.14198  -0.11535
  Beta virt. eigenvalues --   -0.07791  -0.06419  -0.04241  -0.03242  -0.03012
  Beta virt. eigenvalues --   -0.01996  -0.01837  -0.01492  -0.00544   0.00040
  Beta virt. eigenvalues --    0.00232   0.00503   0.00591   0.00969   0.01027
  Beta virt. eigenvalues --    0.01069   0.01318   0.01466   0.01533   0.01622
  Beta virt. eigenvalues --    0.01703   0.01772   0.01802   0.01940   0.02052
  Beta virt. eigenvalues --    0.02188   0.02326   0.02557   0.02807   0.02934
  Beta virt. eigenvalues --    0.02944   0.03033   0.03083   0.03101   0.03291
  Beta virt. eigenvalues --    0.03440   0.03699   0.04043   0.04082   0.04304
  Beta virt. eigenvalues --    0.04402   0.04567   0.04790   0.05007   0.05448
  Beta virt. eigenvalues --    0.05618   0.05990   0.06064   0.06149   0.06292
  Beta virt. eigenvalues --    0.06531   0.06997   0.07046   0.07136   0.07149
  Beta virt. eigenvalues --    0.07472   0.08909   0.08939   0.09398   0.09860
  Beta virt. eigenvalues --    0.10276   0.10639   0.10700   0.11443   0.12803
  Beta virt. eigenvalues --    0.13048   0.13832   0.14092   0.14623   0.14794
  Beta virt. eigenvalues --    0.14936   0.15231   0.15390   0.15511   0.15717
  Beta virt. eigenvalues --    0.16336   0.17242   0.18132   0.18259   0.21043
  Beta virt. eigenvalues --    0.22664   0.23692   0.27740   0.28222   0.28376
  Beta virt. eigenvalues --    0.30619   0.31176   0.33212   0.33826   0.34415
  Beta virt. eigenvalues --    0.35437   0.36327   0.37424   0.38093   0.38701
  Beta virt. eigenvalues --    0.40619   0.40774   0.41167   0.42939   0.43740
  Beta virt. eigenvalues --    0.44877   0.44971   0.45297   0.46038   0.47385
  Beta virt. eigenvalues --    0.47501   0.47989   0.48214   0.48423   0.48611
  Beta virt. eigenvalues --    0.49151   0.50040   0.50810   0.50937   0.51676
  Beta virt. eigenvalues --    0.53331   0.54662   0.54907   0.55393   0.56947
  Beta virt. eigenvalues --    0.58152   0.58844   0.60178   0.64852   0.65125
  Beta virt. eigenvalues --    0.66168   0.68766   0.71536   0.72883   0.73617
  Beta virt. eigenvalues --    0.76272   0.79579   0.80906   0.84103   0.84467
  Beta virt. eigenvalues --    0.85563   2.12470   2.19639   2.26763   2.28908
  Beta virt. eigenvalues --    2.31634   2.32398   2.37422   4.40925   4.41451
  Beta virt. eigenvalues --    4.41710   4.42457   4.42917   4.44091   4.45380
  Beta virt. eigenvalues --    4.46971   4.48415   4.51264   4.53666   4.58627
  Beta virt. eigenvalues --    4.66154   4.69969   4.70786   4.72827   4.75952
  Beta virt. eigenvalues --    4.77632   4.80945   4.81503   4.87967  96.34292
  Beta virt. eigenvalues --   96.43347  96.54540  96.56829  96.61000  96.61417
  Beta virt. eigenvalues --   96.69018
          Condensed to atoms (all electrons):
               1          2          3          4          5          6
     1  Na  13.719456   0.175907  -0.153056  -2.773022  -1.436911   0.927226
     2  Na   0.175907  12.411691  -1.006187   0.145177   0.049640  -0.126390
     3  Na  -0.153056  -1.006187  12.338154   0.166952  -0.072334   0.089737
     4  Na  -2.773022   0.145177   0.166952  15.806693   0.156340  -1.664173
     5  Na  -1.436911   0.049640  -0.072334   0.156340  13.575892  -0.981882
     6  Na   0.927226  -0.126390   0.089737  -1.664173  -0.981882  12.507574
     7  Na   0.543614  -0.596208  -0.267768  -1.259286  -0.460313   0.406283
               7
     1  Na   0.543614
     2  Na  -0.596208
     3  Na  -0.267768
     4  Na  -1.259286
     5  Na  -0.460313
     6  Na   0.406283
     7  Na  12.913849
          Atomic-Atomic Spin Densities.
               1          2          3          4          5          6
     1  Na  -0.369530   0.167405  -0.064360   0.383627   0.493454  -0.345549
     2  Na   0.167405   0.785001  -0.634633  -0.434503   0.470442  -0.023972
     3  Na  -0.064360  -0.634633   0.842428   0.338551  -0.387644   0.077661
     4  Na   0.383627  -0.434503   0.338551  -0.822588  -0.203371   0.441154
     5  Na   0.493454   0.470442  -0.387644  -0.203371  -0.431963   0.070206
     6  Na  -0.345549  -0.023972   0.077661   0.441154   0.070206  -0.017049
     7  Na  -0.132022   0.042369   0.301363   0.288234   0.029500  -0.055337
               7
     1  Na  -0.132022
     2  Na   0.042369
     3  Na   0.301363
     4  Na   0.288234
     5  Na   0.029500
     6  Na  -0.055337
     7  Na  -0.631452
 Mulliken charges and spin densities:
               1          2
     1  Na  -0.003214   0.133025
     2  Na  -0.053630   0.372108
     3  Na  -0.095499   0.473365
     4  Na   0.421319  -0.008896
     5  Na   0.169568   0.040625
     6  Na  -0.158375   0.147115
     7  Na  -0.280171  -0.157343
 Sum of Mulliken charges =  -0.00000   1.00000
 Mulliken charges and spin densities with hydrogens summed into heavy atoms:
               1          2
     1  Na  -0.003214   0.133025
     2  Na  -0.053630   0.372108
     3  Na  -0.095499   0.473365
     4  Na   0.421319  -0.008896
     5  Na   0.169568   0.040625
     6  Na  -0.158375   0.147115
     7  Na  -0.280171  -0.157343
 Electronic spatial extent (au):  <R**2>=           1733.0715
 Charge=              0.0000 electrons
 Dipole moment (field-independent basis, Debye):
    X=              0.7225    Y=              0.0251    Z=              0.2714  Tot=              0.7722
 Quadrupole moment (field-independent basis, Debye-Ang):
   XX=            -49.2633   YY=            -76.1669   ZZ=            -68.8288
   XY=             -0.0158   XZ=             -0.0357   YZ=              1.6218
 Traceless Quadrupole moment (field-independent basis, Debye-Ang):
   XX=             15.4897   YY=            -11.4139   ZZ=             -4.0758
   XY=             -0.0158   XZ=             -0.0357   YZ=              1.6218
 Octapole moment (field-independent basis, Debye-Ang**2):
  XXX=             39.7611  YYY=              2.4662  ZZZ=              3.6551  XYY=             -3.7321
  XXY=             -0.7993  XXZ=              0.6569  XZZ=             -1.8893  YZZ=             -1.3983
  YYZ=              1.1645  XYZ=             -1.6209
 Hexadecapole moment (field-independent basis, Debye-Ang**3):
 XXXX=          -1170.1147 YYYY=           -974.4472 ZZZZ=           -628.7295 XXXY=              2.1474
 XXXZ=              2.8865 YYYX=             -3.8128 YYYZ=             25.6816 ZZZX=             -1.4777
 ZZZY=             -9.7478 XXYY=           -379.9462 XXZZ=           -387.7001 YYZZ=           -285.7815
 XXYZ=             18.4853 YYXZ=             -1.8795 ZZXY=              0.6139
 N-N= 4.008276686327D+02 E-N=-3.531133422449D+03  KE= 1.133432510700D+03
                          Isotropic Fermi Contact Couplings
        Atom                 a.u.       MegaHertz       Gauss      10(-4) cm-1
     1  Na(23)             0.01227      14.51110       5.17792       4.84038
     2  Na(23)             0.36379     430.37758     153.56942     143.55851
     3  Na(23)             0.36206     428.33113     152.83920     142.87589
     4  Na(23)             0.00083       0.97956       0.34953       0.32675
     5  Na(23)            -0.00234      -2.76416      -0.98632      -0.92202
     6  Na(23)             0.00661       7.82177       2.79100       2.60906
     7  Na(23)            -0.04936     -58.38929     -20.83475     -19.47657
 --------------------------------------------------------
       Center         ----  Spin Dipole Couplings  ----
                      3XX-RR        3YY-RR        3ZZ-RR
 --------------------------------------------------------
     1   Atom       -0.039163     -0.030644      0.069806
     2   Atom        0.002646      0.014419     -0.017065
     3   Atom        0.003282      0.014715     -0.017997
     4   Atom       -0.029761     -0.032620      0.062381
     5   Atom       -0.023195     -0.027681      0.050875
     6   Atom       -0.033939     -0.026838      0.060778
     7   Atom       -0.001107     -0.010260      0.011368
 --------------------------------------------------------
                        XY            XZ            YZ
 --------------------------------------------------------
     1   Atom       -0.000514      0.016031     -0.010557
     2   Atom        0.000886      0.002096      0.008522
     3   Atom       -0.000800     -0.002082      0.002047
     4   Atom       -0.000097     -0.017046     -0.008212
     5   Atom       -0.001239      0.014327     -0.009055
     6   Atom        0.001511     -0.011484     -0.006841
     7   Atom        0.000020     -0.000028      0.001232
 --------------------------------------------------------


 ---------------------------------------------------------------------------------
              Anisotropic Spin Dipole Couplings in Principal Axis System
 ---------------------------------------------------------------------------------

       Atom             a.u.   MegaHertz   Gauss  10(-4) cm-1        Axes

              Baa    -0.0416    -5.871    -2.095    -1.958  0.9835 -0.0996 -0.1510
     1 Na(23) Bbb    -0.0316    -4.464    -1.593    -1.489  0.1133  0.9899  0.0851
              Bcc     0.0732    10.334     3.688     3.447  0.1410 -0.1008  0.9849
 
              Baa    -0.0194    -2.736    -0.976    -0.913 -0.0823 -0.2417  0.9669
     2 Na(23) Bbb     0.0027     0.376     0.134     0.125  0.9918 -0.1151  0.0557
              Bcc     0.0167     2.360     0.842     0.787  0.0978  0.9635  0.2492
 
              Baa    -0.0183    -2.586    -0.923    -0.863  0.0936 -0.0593  0.9938
     3 Na(23) Bbb     0.0034     0.480     0.171     0.160  0.9924  0.0861 -0.0883
              Bcc     0.0149     2.107     0.752     0.703 -0.0804  0.9945  0.0669
 
              Baa    -0.0346    -4.886    -1.744    -1.630  0.6310  0.7558  0.1749
     4 Na(23) Bbb    -0.0315    -4.447    -1.587    -1.483  0.7559 -0.6498  0.0804
              Bcc     0.0661     9.333     3.330     3.113 -0.1744 -0.0815  0.9813
 
              Baa    -0.0288    -4.061    -1.449    -1.355 -0.1282  0.9826  0.1348
     5 Na(23) Bbb    -0.0258    -3.644    -1.300    -1.215  0.9749  0.1497 -0.1645
              Bcc     0.0546     7.705     2.749     2.570  0.1818 -0.1103  0.9771
 
              Baa    -0.0354    -4.995    -1.782    -1.666  0.9900 -0.0853  0.1122
     6 Na(23) Bbb    -0.0273    -3.858    -1.377    -1.287  0.0758  0.9933  0.0870
              Bcc     0.0627     8.853     3.159     2.953 -0.1189 -0.0776  0.9899
 
              Baa    -0.0103    -1.459    -0.521    -0.487 -0.0024  0.9984 -0.0567
     7 Na(23) Bbb    -0.0011    -0.156    -0.056    -0.052  1.0000  0.0025  0.0020
              Bcc     0.0114     1.615     0.576     0.539 -0.0022  0.0567  0.9984
 

 ---------------------------------------------------------------------------------

 No NMR shielding tensors so no spin-rotation constants.
 Leave Link  601 at Mon Nov 13 12:10:18 2023, MaxMem=  1879048192 cpu:               7.1 elap:               0.5
 (Enter /home/sekinelabo/g16/l701.exe)
 ... and contract with generalized density number  0.
 Compute integral first derivatives.
 Leave Link  701 at Mon Nov 13 12:10:18 2023, MaxMem=  1879048192 cpu:               1.7 elap:               0.1
 (Enter /home/sekinelabo/g16/l702.exe)
 L702 exits ... SP integral derivatives will be done elsewhere.
 Leave Link  702 at Mon Nov 13 12:10:18 2023, MaxMem=  1879048192 cpu:               0.4 elap:               0.0
 (Enter /home/sekinelabo/g16/l703.exe)
 Integral derivatives from FoFJK, PRISM(SPDF).
 Compute integral first derivatives, UseDBF=F ICtDFT=           0.
 Calling FoFJK, ICntrl=      2127 FMM=F ISym2X=0 I1Cent= 0 IOpClX= 1 NMat=1 NMatS=1 NMatT=0.
 FoFJK:  IHMeth= 1 ICntrl=    2127 DoSepK=F KAlg= 0 I1Cent=           0 FoldK=F
 IRaf=         0 NMat=       1 IRICut=       1 DoRegI=T DoRafI=F ISym2E= 0 IDoP0=0 IntGTp=1.
 FoFCou: FMM=F IPFlag=           0 FMFlag=      100000 FMFlg1=         800
         NFxFlg=           0 DoJE=F BraDBF=F KetDBF=F FulRan=T
         wScrn=  0.000000 ICntrl=      2127 IOpCl=  1 I1Cent=           0 NGrid=           0
         NMat0=    1 NMatS0=      1 NMatT0=    0 NMatD0=    1 NMtDS0=    0 NMtDT0=    0
 Symmetry not used in FoFCou.
 Leave Link  703 at Mon Nov 13 12:10:20 2023, MaxMem=  1879048192 cpu:              37.3 elap:               2.3
 (Enter /home/sekinelabo/g16/l716.exe)
 Dipole        = 2.84263872D-01 9.86643836D-03 1.06771306D-01
 ***** Axes restored to original set *****
 -------------------------------------------------------------------
 Center     Atomic                   Forces (Hartrees/Bohr)
 Number     Number              X              Y              Z
 -------------------------------------------------------------------
      1       11          -0.007904194   -0.022257289    0.003670835
      2       11          -0.001296983    0.005900923    0.025793592
      3       11          -0.001593345   -0.000696563   -0.020552039
      4       11           0.014955228   -0.017916616    0.002661981
      5       11           0.010872848    0.015929271   -0.005640399
      6       11          -0.005140624    0.019268261   -0.005660607
      7       11          -0.009892930   -0.000227988   -0.000273363
 -------------------------------------------------------------------
 Cartesian Forces:  Max     0.025793592 RMS     0.012309146
 Z-matrix is all fixed cartesians, so copy forces.
 Force constants in Cartesian coordinates: 
                1             2             3             4             5 
      1  0.186661D+00
      2  0.257651D-01  0.230658D+00
      3 -0.990713D-02 -0.171589D-01  0.152137D+00
      4 -0.440071D-01 -0.798912D-02 -0.261258D-01  0.167056D+00
      5 -0.708856D-02 -0.560204D-01 -0.398661D-01 -0.926404D-03  0.167102D+00
      6  0.784701D-02  0.679583D-02 -0.467348D-01 -0.223840D-02  0.114576D-01
      7 -0.398744D-01  0.280602D-02  0.300190D-01  0.648070D-03  0.492751D-04
      8 -0.116202D-01 -0.409198D-01  0.367438D-01 -0.638599D-04 -0.188511D-04
      9 -0.159848D-02 -0.837407D-02 -0.573928D-01 -0.341879D-03 -0.759072D-02
     10 -0.428353D-01  0.241184D-01 -0.448007D-02 -0.410733D-01  0.869336D-02
     11 -0.296793D-01 -0.349729D-01  0.448739D-02  0.175602D-01 -0.457949D-01
     12  0.620364D-02  0.395371D-02 -0.187326D-01  0.339722D-01 -0.346638D-01
     13  0.243377D-02 -0.178999D-01  0.366313D-02 -0.369335D-01 -0.123695D-01
     14 -0.167844D-01  0.414104D-03  0.432098D-02 -0.517573D-02 -0.332277D-01
     15  0.185787D-02  0.250259D-02  0.136474D-01  0.344256D-01  0.336083D-01
     16 -0.241103D-01 -0.142834D-01  0.425726D-02 -0.414333D-01  0.115793D-01
     17  0.123248D-01 -0.498393D-01  0.614489D-02 -0.949033D-03 -0.399074D-01
     18  0.298078D-03  0.712222D-02 -0.157437D-01 -0.275278D-01  0.373231D-01
     19 -0.382679D-01 -0.125172D-01  0.257363D-02 -0.425683D-02  0.625118D-04
     20  0.270826D-01 -0.493195D-01  0.532787D-02 -0.245602D-02  0.786747D-02
     21 -0.470098D-02  0.515861D-02 -0.271801D-01 -0.121639D-01 -0.268439D-03
                6             7             8             9            10 
      6  0.234493D+00
      7 -0.214385D-03  0.140018D+00
      8 -0.621267D-02 -0.655033D-03  0.137201D+00
      9 -0.345671D-01  0.344566D-02  0.112680D-01  0.200248D+00
     10 -0.685993D-02 -0.381805D-01  0.142334D-01 -0.691037D-04  0.141318D+00
     11  0.401321D-02  0.303806D-02 -0.324319D-01 -0.891057D-02 -0.412347D-01
     12 -0.447678D-01 -0.407556D-01  0.281806D-01 -0.527246D-01  0.115947D-01
     13 -0.227484D-02 -0.276901D-01 -0.607289D-02  0.965486D-02 -0.196526D-01
     14 -0.743847D-02 -0.149785D-01 -0.320670D-01  0.657485D-02 -0.219388D-01
     15 -0.545382D-01 -0.234375D-01 -0.331209D-01 -0.283521D-01  0.132742D-02
     16  0.412949D-02 -0.299738D-01  0.427358D-02 -0.110013D-01  0.769523D-03
     17 -0.787782D-02  0.681296D-02 -0.386810D-01  0.779064D-02  0.158223D-01
     18 -0.576216D-01  0.196751D-01 -0.345801D-01 -0.307610D-01 -0.201094D-02
     19 -0.388957D-03 -0.494776D-02 -0.950953D-04 -0.897292D-04 -0.345560D-03
     20 -0.737667D-03  0.292719D-02  0.691768D-02 -0.758161D-03  0.306053D-03
     21  0.373678D-02  0.112677D-01 -0.227886D-02  0.354998D-02  0.497901D-03
               11            12            13            14            15 
     11  0.145832D+00
     12 -0.632873D-02  0.107056D+00
     13  0.265156D-01 -0.601602D-02  0.128135D+00
     14 -0.433116D-01  0.641500D-02  0.347438D-01  0.138896D+00
     15  0.610070D-02 -0.983530D-02 -0.101657D-01 -0.817444D-02  0.919622D-01
     16  0.189811D-01 -0.383339D-02 -0.459071D-01  0.287811D-01 -0.423990D-02
     17  0.197435D-02  0.341280D-02 -0.240147D-01 -0.393941D-01 -0.796199D-03
     18  0.115161D-02  0.138463D-01  0.478755D-02 -0.176153D-02 -0.177414D-01
     19  0.481908D-02 -0.116556D-02 -0.385467D-03 -0.464748D-02  0.232122D-03
     20  0.870463D-02 -0.969601D-03 -0.902485D-03  0.869055D-02 -0.120086D-03
     21 -0.513613D-03  0.515826D-02  0.350982D-03  0.636127D-04  0.485734D-02
               16            17            18            19            20 
     16  0.178522D+00
     17 -0.217127D-01  0.214542D+00
     18  0.579508D-02 -0.106383D-01  0.131618D+00
     19 -0.378665D-01  0.117164D-01 -0.101711D-02  0.860700D-01
     20 -0.276191D-01 -0.486946D-01  0.138295D-02  0.661726D-03  0.658338D-01
     21  0.489278D-02  0.196400D-02 -0.235970D-01 -0.144397D-03 -0.412531D-02
               21 
     21  0.334747D-01
 Leave Link  716 at Mon Nov 13 12:10:20 2023, MaxMem=  1879048192 cpu:               0.5 elap:               0.0
 (Enter /home/sekinelabo/g16/l103.exe)

 GradGradGradGradGradGradGradGradGradGradGradGradGradGradGradGradGradGrad
 Berny optimization.
 Search for a local minimum.
 Step number   1 out of a maximum of    2
 All quantities printed in internal units (Hartrees-Bohrs-Radians)
 Second derivative matrix not updated -- first step.
 ITU=  0
     Eigenvalues ---    0.07466   0.08071   0.09591   0.15137   0.16196
     Eigenvalues ---    0.18430   0.21466   0.22177   0.23602   0.24404
     Eigenvalues ---    0.24744   0.25625   0.28137   0.29436   0.31080
 Quadratic step=3.635D-01 exceeds max=3.000D-01 adjusted using Lamda=-2.564D-02.
 Angle between NR and scaled steps=   4.28 degrees.
 Angle between quadratic step and forces=  20.19 degrees.
 Linear search not attempted -- first point.
 B after Tr=     0.000000    0.000000   -0.000000
         Rot=    1.000000   -0.000000    0.000000    0.000000 Ang=   0.00 deg.
 Variable       Old X    -DE/DX   Delta X   Delta X   Delta X     New X
                                 (Linear)    (Quad)   (Total)
    X1        4.70949  -0.00790   0.00000  -0.04376  -0.04376   4.66573
    Y1        0.00000  -0.02226   0.00000  -0.09162  -0.09162  -0.09162
    Z1        4.05232   0.00367   0.00000   0.01630   0.01630   4.06862
    X2        7.68357  -0.00130   0.00000   0.01765   0.01765   7.70122
    Y2        3.43332   0.00590   0.00000   0.02197   0.02197   3.45529
    Z2        6.74799   0.02579   0.00000   0.09778   0.09778   6.84578
    X3        7.63430  -0.00159   0.00000   0.01469   0.01469   7.64898
    Y3        1.78424  -0.00070   0.00000  -0.01720  -0.01720   1.76704
    Z3        0.00000  -0.02055   0.00000  -0.09059  -0.09059  -0.09059
    X4       10.68708   0.01496   0.00000   0.09321   0.09321  10.78028
    Y4        0.09321  -0.01792   0.00000  -0.09560  -0.09560  -0.00239
    Z4        3.98489   0.00266   0.00000   0.01553   0.01553   4.00042
    X5       10.51245   0.01087   0.00000   0.08392   0.08392  10.59637
    Y5        5.92849   0.01593   0.00000   0.09577   0.09577   6.02426
    Z5        3.01006  -0.00564   0.00000  -0.02078  -0.02078   2.98928
    X6        4.64259  -0.00514   0.00000  -0.03916  -0.03916   4.60343
    Y6        5.81622   0.01927   0.00000   0.08952   0.08952   5.90574
    Z6        3.09374  -0.00566   0.00000  -0.01650  -0.01650   3.07724
    X7        0.00000  -0.00989   0.00000  -0.12653  -0.12653  -0.12653
    Y7        2.83271  -0.00023   0.00000  -0.00285  -0.00285   2.82986
    Z7        3.45576  -0.00027   0.00000  -0.00173  -0.00173   3.45403
         Item               Value     Threshold  Converged?
 Maximum Force            0.025794     0.000450     NO 
 RMS     Force            0.012309     0.000300     NO 
 Maximum Displacement     0.126535     0.001800     NO 
 RMS     Displacement     0.065540     0.001200     NO 
 Predicted change in Energy=-9.106625D-03
 GradGradGradGradGradGradGradGradGradGradGradGradGradGradGradGradGradGrad

 Leave Link  103 at Mon Nov 13 12:10:20 2023, MaxMem=  1879048192 cpu:               0.3 elap:               0.0
 (Enter /home/sekinelabo/g16/l9999.exe)
 1\1\GINC-SEKINELABO-XA7R-R37\Force\UB3LYP\6-311+G(d)\Na7(2)\SEKINELABO
 \13-Nov-2023\0\\#P B3LYP/6-311+g(d) force\\Gaussian input prepared by 
 ASE\\0,2\Na,2.4921569876,0.,2.1443951073\Na,4.0659693336,1.8168335478,
 3.5708849851\Na,4.0398951046,0.9441791202,0.\Na,5.6553565447,0.0493222
 762,2.1087122159\Na,5.562949322,3.1372208707,1.5928557204\Na,2.4567542
 653,3.0778098825,1.6371381524\Na,0.,1.4990057701,1.8287100044\\Version
 =ES64L-G16RevB.01\State=2-A\HF=-1136.0843304\S2=0.76007\S2-1=0.\S2A=0.
 75007\RMSD=6.444e-09\RMSF=1.231e-02\Dipole=-0.2842639,0.0098664,-0.106
 7713\Quadrupole=11.5162129,-8.4859335,-3.0302794,0.0117692,-0.0265573,
 -1.2057999\PG=C01 [X(Na7)]\\@


 In the beginning there was nothing, which exploded.
 Job cpu time:       0 days  0 hours  4 minutes 53.6 seconds.
 Elapsed time:       0 days  0 hours  0 minutes 23.4 seconds.
 File lengths (MBytes):  RWF=     32 Int=      0 D2E=      0 Chk=      5 Scr=      1
 Normal termination of Gaussian 16 at Mon Nov 13 12:10:20 2023.
