 Entering Gaussian System, Link 0=g16
 Initial command:
 /home/sekinelabo/g16/l1.exe "/home/sekinelabo/g16temp/Gau-3978084.inp" -scrdir="/home/sekinelabo/g16temp/"
 Entering Link 1 = /home/sekinelabo/g16/l1.exe PID=   3978086.
  
 Copyright (c) 1988-2017, Gaussian, Inc.  All Rights Reserved.
  
 This is part of the Gaussian(R) 16 program.  It is based on
 the Gaussian(R) 09 system (copyright 2009, Gaussian, Inc.),
 the Gaussian(R) 03 system (copyright 2003, Gaussian, Inc.),
 the Gaussian(R) 98 system (copyright 1998, Gaussian, Inc.),
 the Gaussian(R) 94 system (copyright 1995, Gaussian, Inc.),
 the Gaussian 92(TM) system (copyright 1992, Gaussian, Inc.),
 the Gaussian 90(TM) system (copyright 1990, Gaussian, Inc.),
 the Gaussian 88(TM) system (copyright 1988, Gaussian, Inc.),
 the Gaussian 86(TM) system (copyright 1986, Carnegie Mellon
 University), and the Gaussian 82(TM) system (copyright 1983,
 Carnegie Mellon University). Gaussian is a federally registered
 trademark of Gaussian, Inc.
  
 This software contains proprietary and confidential information,
 including trade secrets, belonging to Gaussian, Inc.
  
 This software is provided under written license and may be
 used, copied, transmitted, or stored only in accord with that
 written license.
  
 The following legend is applicable only to US Government
 contracts under FAR:
  
                    RESTRICTED RIGHTS LEGEND
  
 Use, reproduction and disclosure by the US Government is
 subject to restrictions as set forth in subparagraphs (a)
 and (c) of the Commercial Computer Software - Restricted
 Rights clause in FAR 52.227-19.
  
 Gaussian, Inc.
 340 Quinnipiac St., Bldg. 40, Wallingford CT 06492
  
  
 ---------------------------------------------------------------
 Warning -- This program may not be used in any manner that
 competes with the business of Gaussian, Inc. or will provide
 assistance to any competitor of Gaussian, Inc.  The licensee
 of this program is prohibited from giving any competitor of
 Gaussian, Inc. access to this program.  By using this program,
 the user acknowledges that Gaussian, Inc. is engaged in the
 business of creating and licensing software in the field of
 computational chemistry and represents and warrants to the
 licensee that it is not a competitor of Gaussian, Inc. and that
 it will not use this program in any manner prohibited above.
 ---------------------------------------------------------------
  

 Cite this work as:
 Gaussian 16, Revision B.01,
 M. J. Frisch, G. W. Trucks, H. B. Schlegel, G. E. Scuseria, 
 M. A. Robb, J. R. Cheeseman, G. Scalmani, V. Barone, 
 G. A. Petersson, H. Nakatsuji, X. Li, M. Caricato, A. V. Marenich, 
 J. Bloino, B. G. Janesko, R. Gomperts, B. Mennucci, H. P. Hratchian, 
 J. V. Ortiz, A. F. Izmaylov, J. L. Sonnenberg, D. Williams-Young, 
 F. Ding, F. Lipparini, F. Egidi, J. Goings, B. Peng, A. Petrone, 
 T. Henderson, D. Ranasinghe, V. G. Zakrzewski, J. Gao, N. Rega, 
 G. Zheng, W. Liang, M. Hada, M. Ehara, K. Toyota, R. Fukuda, 
 J. Hasegawa, M. Ishida, T. Nakajima, Y. Honda, O. Kitao, H. Nakai, 
 T. Vreven, K. Throssell, J. A. Montgomery, Jr., J. E. Peralta, 
 F. Ogliaro, M. J. Bearpark, J. J. Heyd, E. N. Brothers, K. N. Kudin, 
 V. N. Staroverov, T. A. Keith, R. Kobayashi, J. Normand, 
 K. Raghavachari, A. P. Rendell, J. C. Burant, S. S. Iyengar, 
 J. Tomasi, M. Cossi, J. M. Millam, M. Klene, C. Adamo, R. Cammi, 
 J. W. Ochterski, R. L. Martin, K. Morokuma, O. Farkas, 
 J. B. Foresman, and D. J. Fox, Gaussian, Inc., Wallingford CT, 2016.
 
 ******************************************
 Gaussian 16:  ES64L-G16RevB.01 20-Dec-2017
                13-Nov-2023 
 ******************************************
 %mem=14GB
 %chk=checkpoint.chk
 %nprocshared=16
 Will use up to   16 processors via shared memory.
 -------------------------
 #P B3LYP/6-311+g(d) force
 -------------------------
 1/10=7,30=1,38=1/1,3;
 2/12=2,17=6,18=5,40=1/2;
 3/5=4,6=6,7=11,11=2,25=1,30=1,71=1,74=-5/1,2,3;
 4//1;
 5/5=2,38=5/2;
 6/7=2,8=2,9=2,10=2,28=1/1;
 7/29=1/1,2,3,16;
 1/10=7,30=1/3;
 99//99;
 Leave Link    1 at Mon Nov 13 12:13:49 2023, MaxMem=  1879048192 cpu:               0.3 elap:               0.0
 (Enter /home/sekinelabo/g16/l101.exe)
 ------------------------------
 Gaussian input prepared by ASE
 ------------------------------
 Symbolic Z-matrix:
 Charge =  0 Multiplicity = 2
 Na                    2.63168   3.3589    2.30333 
 Na                    4.49759   2.85244   0. 
 Na                    7.28184   3.14561   1.06933 
 Na                    5.16559   1.80167   2.71523 
 Na                    3.86282   0.        0.69516 
 Na                    1.11464   0.88746   1.52063 
 Na                    0.        3.59659   0.89151 
 
 ITRead=  0  0  0  0  0  0  0
 MicOpt= -1 -1 -1 -1 -1 -1 -1
 NAtoms=      7 NQM=        7 NQMF=       0 NMMI=      0 NMMIF=      0
                NMic=       0 NMicF=      0.
                    Isotopes and Nuclear Properties:
 (Nuclear quadrupole moments (NQMom) in fm**2, nuclear magnetic moments (NMagM)
  in nuclear magnetons)

  Atom         1           2           3           4           5           6           7
 IAtWgt=          23          23          23          23          23          23          23
 AtmWgt=  22.9897697  22.9897697  22.9897697  22.9897697  22.9897697  22.9897697  22.9897697
 NucSpn=           3           3           3           3           3           3           3
 AtZEff=  -0.0000000  -0.0000000  -0.0000000  -0.0000000  -0.0000000  -0.0000000  -0.0000000
 NQMom=   10.4000000  10.4000000  10.4000000  10.4000000  10.4000000  10.4000000  10.4000000
 NMagM=    2.2175200   2.2175200   2.2175200   2.2175200   2.2175200   2.2175200   2.2175200
 AtZNuc=  11.0000000  11.0000000  11.0000000  11.0000000  11.0000000  11.0000000  11.0000000
 Leave Link  101 at Mon Nov 13 12:13:49 2023, MaxMem=  1879048192 cpu:               2.6 elap:               0.2
 (Enter /home/sekinelabo/g16/l103.exe)

 GradGradGradGradGradGradGradGradGradGradGradGradGradGradGradGradGradGrad
 Berny optimization.
 Initialization pass.
 Trust Radius=3.00D-01 FncErr=1.00D-07 GrdErr=1.00D-07 EigMax=2.50D+02 EigMin=1.00D-04
 Number of steps in this run=      2 maximum allowed number of steps=      2.
 GradGradGradGradGradGradGradGradGradGradGradGradGradGradGradGradGradGrad

 Leave Link  103 at Mon Nov 13 12:13:49 2023, MaxMem=  1879048192 cpu:               0.2 elap:               0.0
 (Enter /home/sekinelabo/g16/l202.exe)
                          Input orientation:                          
 ---------------------------------------------------------------------
 Center     Atomic      Atomic             Coordinates (Angstroms)
 Number     Number       Type             X           Y           Z
 ---------------------------------------------------------------------
      1         11           0        2.631678    3.358903    2.303333
      2         11           0        4.497591    2.852445    0.000000
      3         11           0        7.281841    3.145614    1.069334
      4         11           0        5.165588    1.801666    2.715232
      5         11           0        3.862825    0.000000    0.695160
      6         11           0        1.114639    0.887457    1.520631
      7         11           0        0.000000    3.596592    0.891512
 ---------------------------------------------------------------------
                    Distance matrix (angstroms):
                    1          2          3          4          5
     1  Na   0.000000
     2  Na   3.007237   0.000000
     3  Na   4.815834   2.996910   0.000000
     4  Na   3.002556   2.987112   2.998950   0.000000
     5  Na   3.922266   3.003767   4.660962   3.003978   0.000000
     6  Na   3.003677   4.197364   6.583109   4.321231   3.003582
     7  Na   2.995908   4.645092   7.297960   5.764634   5.281614
                    6          7
     6  Na   0.000000
     7  Na   2.996268   0.000000
 Stoichiometry    Na7(2)
 Framework group  C1[X(Na7)]
 Deg. of freedom    15
 Full point group                 C1      NOp   1
 Largest Abelian subgroup         C1      NOp   1
 Largest concise Abelian subgroup C1      NOp   1
                         Standard orientation:                         
 ---------------------------------------------------------------------
 Center     Atomic      Atomic             Coordinates (Angstroms)
 Number     Number       Type             X           Y           Z
 ---------------------------------------------------------------------
      1         11           0        0.876059   -1.124235    0.989733
      2         11           0       -0.989854   -0.617777   -1.313600
      3         11           0       -3.774104   -0.910946   -0.244267
      4         11           0       -1.657850    0.433002    1.401631
      5         11           0       -0.355087    2.234668   -0.618440
      6         11           0        2.393099    1.347211    0.207031
      7         11           0        3.507738   -1.361924   -0.422088
 ---------------------------------------------------------------------
 Rotational constants (GHZ):           1.3195530           0.5205527           0.4558542
 Leave Link  202 at Mon Nov 13 12:13:49 2023, MaxMem=  1879048192 cpu:               0.0 elap:               0.0
 (Enter /home/sekinelabo/g16/l301.exe)
 Standard basis: 6-311+G(d) (5D, 7F)
 Ernie: Thresh=  0.10000D-02 Tol=  0.10000D-05 Strict=F.
 There are   217 symmetry adapted cartesian basis functions of A   symmetry.
 There are   210 symmetry adapted basis functions of A   symmetry.
   210 basis functions,   350 primitive gaussians,   217 cartesian basis functions
    39 alpha electrons       38 beta electrons
       nuclear repulsion energy       363.7257649158 Hartrees.
 IExCor=  402 DFT=T Ex+Corr=B3LYP ExCW=0 ScaHFX=  0.200000
 ScaDFX=  0.800000  0.720000  1.000000  0.810000 ScalE2=  1.000000  1.000000
 IRadAn=      5 IRanWt=     -1 IRanGd=            0 ICorTp=0 IEmpDi=  4
 NAtoms=    7 NActive=    7 NUniq=    7 SFac= 1.00D+00 NAtFMM=   60 NAOKFM=F Big=F
 Integral buffers will be    131072 words long.
 Raffenetti 2 integral format.
 Two-electron integral symmetry is turned on.
 Leave Link  301 at Mon Nov 13 12:13:49 2023, MaxMem=  1879048192 cpu:               0.5 elap:               0.0
 (Enter /home/sekinelabo/g16/l302.exe)
 NPDir=0 NMtPBC=     1 NCelOv=     1 NCel=       1 NClECP=     1 NCelD=      1
         NCelK=      1 NCelE2=     1 NClLst=     1 CellRange=     0.0.
 One-electron integrals computed using PRISM.
 One-electron integral symmetry used in STVInt
 NBasis=   210 RedAO= T EigKep=  4.74D-06  NBF=   210
 NBsUse=   209 1.00D-06 EigRej=  6.68D-07 NBFU=   209
 Precomputing XC quadrature grid using
 IXCGrd= 4 IRadAn=           5 IRanWt=          -1 IRanGd=           0 AccXCQ= 0.00D+00.
 Generated NRdTot=       0 NPtTot=           0 NUsed=           0 NTot=          32
 NSgBfM=   210   210   210   210   210 MxSgAt=     7 MxSgA2=     7.
 Leave Link  302 at Mon Nov 13 12:13:50 2023, MaxMem=  1879048192 cpu:               2.1 elap:               0.1
 (Enter /home/sekinelabo/g16/l303.exe)
 DipDrv:  MaxL=1.
 Leave Link  303 at Mon Nov 13 12:13:50 2023, MaxMem=  1879048192 cpu:               0.7 elap:               0.0
 (Enter /home/sekinelabo/g16/l401.exe)
 ExpMin= 7.60D-03 ExpMax= 3.62D+04 ExpMxC= 1.21D+03 IAcc=3 IRadAn=         5 AccDes= 0.00D+00
 Harris functional with IExCor=  402 and IRadAn=       5 diagonalized for initial guess.
 HarFok:  IExCor=  402 AccDes= 0.00D+00 IRadAn=         5 IDoV= 1 UseB2=F ITyADJ=14
 ICtDFT=  3500011 ScaDFX=  1.000000  1.000000  1.000000  1.000000
 FoFCou: FMM=F IPFlag=           0 FMFlag=      100000 FMFlg1=           0
         NFxFlg=           0 DoJE=T BraDBF=F KetDBF=T FulRan=T
         wScrn=  0.000000 ICntrl=       500 IOpCl=  0 I1Cent=   200000004 NGrid=           0
         NMat0=    1 NMatS0=      1 NMatT0=    0 NMatD0=    1 NMtDS0=    0 NMtDT0=    0
 Petite list used in FoFCou.
 Harris En= -1135.86748709826    
 JPrj=0 DoOrth=F DoCkMO=F.
 Initial guess <Sx>= 0.0000 <Sy>= 0.0000 <Sz>= 0.5000 <S**2>= 0.7500 S= 0.5000
 Leave Link  401 at Mon Nov 13 12:13:50 2023, MaxMem=  1879048192 cpu:               4.7 elap:               0.3
 (Enter /home/sekinelabo/g16/l502.exe)
 Keep R1 and R2 ints in memory in canonical form, NReq=507620360.
 FoFCou: FMM=F IPFlag=           0 FMFlag=           0 FMFlg1=           0
         NFxFlg=           0 DoJE=F BraDBF=F KetDBF=F FulRan=T
         wScrn=  0.000000 ICntrl=       600 IOpCl=  0 I1Cent=           0 NGrid=           0
         NMat0=    1 NMatS0=  22155 NMatT0=    0 NMatD0=    1 NMtDS0=    0 NMtDT0=    0
 Symmetry not used in FoFCou.
 Two-electron integral symmetry not used.
 UHF open shell SCF:
 Using DIIS extrapolation, IDIIS=  1040.
 NGot=  1879048192 LenX=  1388082376 LenY=  1388034846
 Requested convergence on RMS density matrix=1.00D-08 within 128 cycles.
 Requested convergence on MAX density matrix=1.00D-06.
 Requested convergence on             energy=1.00D-06.
 No special actions if energy rises.

 Cycle   1  Pass 1  IDiag  1:
 E= -1136.05580670794    
 DIIS: error= 1.05D-02 at cycle   1 NSaved=   1.
 NSaved= 1 IEnMin= 1 EnMin= -1136.05580670794     IErMin= 1 ErrMin= 1.05D-02
 ErrMax= 1.05D-02  0.00D+00 EMaxC= 1.00D-01 BMatC= 1.99D-01 BMatP= 1.99D-01
 IDIUse=3 WtCom= 8.95D-01 WtEn= 1.05D-01
 Coeff-Com:  0.100D+01
 Coeff-En:   0.100D+01
 Coeff:      0.100D+01
 Gap=     0.025 Goal=   None    Shift=    0.000
 Gap=     0.045 Goal=   None    Shift=    0.000
 GapD=    0.025 DampG=0.250 DampE=0.500 DampFc=0.2500 IDamp=-1.
 Damping current iteration by 2.50D-01
 RMSDP=2.88D-02 MaxDP=1.65D+00              OVMax= 2.88D-01

 Cycle   2  Pass 1  IDiag  1:
 E= -1136.06979409607     Delta-E=       -0.013987388132 Rises=F Damp=T
 DIIS: error= 7.46D-03 at cycle   2 NSaved=   2.
 NSaved= 2 IEnMin= 2 EnMin= -1136.06979409607     IErMin= 2 ErrMin= 7.46D-03
 ErrMax= 7.46D-03  0.00D+00 EMaxC= 1.00D-01 BMatC= 7.50D-02 BMatP= 1.99D-01
 IDIUse=3 WtCom= 9.25D-01 WtEn= 7.46D-02
 Coeff-Com: -0.122D+01 0.222D+01
 Coeff-En:   0.000D+00 0.100D+01
 Coeff:     -0.113D+01 0.213D+01
 Gap=     0.038 Goal=   None    Shift=    0.000
 Gap=     0.045 Goal=   None    Shift=    0.000
 RMSDP=1.35D-02 MaxDP=1.00D+00 DE=-1.40D-02 OVMax= 2.57D-01

 Cycle   3  Pass 1  IDiag  1:
 E= -1136.09027568514     Delta-E=       -0.020481589074 Rises=F Damp=F
 DIIS: error= 5.01D-03 at cycle   3 NSaved=   3.
 NSaved= 3 IEnMin= 3 EnMin= -1136.09027568514     IErMin= 3 ErrMin= 5.01D-03
 ErrMax= 5.01D-03  0.00D+00 EMaxC= 1.00D-01 BMatC= 7.06D-03 BMatP= 7.50D-02
 IDIUse=3 WtCom= 9.50D-01 WtEn= 5.01D-02
 Coeff-Com: -0.402D+00 0.702D+00 0.700D+00
 Coeff-En:   0.000D+00 0.000D+00 0.100D+01
 Coeff:     -0.382D+00 0.667D+00 0.715D+00
 Gap=     0.032 Goal=   None    Shift=    0.000
 Gap=     0.044 Goal=   None    Shift=    0.000
 RMSDP=6.82D-03 MaxDP=3.74D-01 DE=-2.05D-02 OVMax= 1.19D-01

 Cycle   4  Pass 1  IDiag  1:
 E= -1136.09269354131     Delta-E=       -0.002417856170 Rises=F Damp=F
 DIIS: error= 3.53D-03 at cycle   4 NSaved=   4.
 NSaved= 4 IEnMin= 4 EnMin= -1136.09269354131     IErMin= 4 ErrMin= 3.53D-03
 ErrMax= 3.53D-03  0.00D+00 EMaxC= 1.00D-01 BMatC= 4.23D-03 BMatP= 7.06D-03
 IDIUse=3 WtCom= 9.65D-01 WtEn= 3.53D-02
 Coeff-Com: -0.217D-01 0.302D-01 0.435D+00 0.556D+00
 Coeff-En:   0.000D+00 0.000D+00 0.386D+00 0.614D+00
 Coeff:     -0.210D-01 0.291D-01 0.434D+00 0.558D+00
 Gap=     0.035 Goal=   None    Shift=    0.000
 Gap=     0.042 Goal=   None    Shift=    0.000
 RMSDP=2.83D-03 MaxDP=1.43D-01 DE=-2.42D-03 OVMax= 6.12D-02

 Cycle   5  Pass 1  IDiag  1:
 E= -1136.09578478817     Delta-E=       -0.003091246854 Rises=F Damp=F
 DIIS: error= 7.73D-04 at cycle   5 NSaved=   5.
 NSaved= 5 IEnMin= 5 EnMin= -1136.09578478817     IErMin= 5 ErrMin= 7.73D-04
 ErrMax= 7.73D-04  0.00D+00 EMaxC= 1.00D-01 BMatC= 1.81D-04 BMatP= 4.23D-03
 IDIUse=3 WtCom= 9.92D-01 WtEn= 7.73D-03
 Coeff-Com: -0.107D-01 0.133D-01 0.275D+00 0.361D+00 0.361D+00
 Coeff-En:   0.000D+00 0.000D+00 0.000D+00 0.000D+00 0.100D+01
 Coeff:     -0.106D-01 0.132D-01 0.273D+00 0.358D+00 0.366D+00
 Gap=     0.035 Goal=   None    Shift=    0.000
 Gap=     0.042 Goal=   None    Shift=    0.000
 RMSDP=7.32D-04 MaxDP=5.90D-02 DE=-3.09D-03 OVMax= 1.69D-02

 Cycle   6  Pass 1  IDiag  1:
 E= -1136.09600690539     Delta-E=       -0.000222117224 Rises=F Damp=F
 DIIS: error= 1.69D-04 at cycle   6 NSaved=   6.
 NSaved= 6 IEnMin= 6 EnMin= -1136.09600690539     IErMin= 6 ErrMin= 1.69D-04
 ErrMax= 1.69D-04  0.00D+00 EMaxC= 1.00D-01 BMatC= 9.23D-06 BMatP= 1.81D-04
 IDIUse=3 WtCom= 9.98D-01 WtEn= 1.69D-03
 Coeff-Com:  0.456D-03-0.123D-02-0.237D-01-0.353D-01 0.146D+00 0.913D+00
 Coeff-En:   0.000D+00 0.000D+00 0.000D+00 0.000D+00 0.000D+00 0.100D+01
 Coeff:      0.455D-03-0.123D-02-0.237D-01-0.352D-01 0.146D+00 0.914D+00
 Gap=     0.035 Goal=   None    Shift=    0.000
 Gap=     0.042 Goal=   None    Shift=    0.000
 RMSDP=3.78D-04 MaxDP=3.78D-02 DE=-2.22D-04 OVMax= 7.82D-03

 Cycle   7  Pass 1  IDiag  1:
 E= -1136.09602584879     Delta-E=       -0.000018943397 Rises=F Damp=F
 DIIS: error= 5.97D-05 at cycle   7 NSaved=   7.
 NSaved= 7 IEnMin= 7 EnMin= -1136.09602584879     IErMin= 7 ErrMin= 5.97D-05
 ErrMax= 5.97D-05  0.00D+00 EMaxC= 1.00D-01 BMatC= 1.14D-06 BMatP= 9.23D-06
 IDIUse=1 WtCom= 1.00D+00 WtEn= 0.00D+00
 Coeff-Com:  0.615D-03-0.986D-03-0.264D-01-0.358D-01 0.248D-01 0.285D+00
 Coeff-Com:  0.753D+00
 Coeff:      0.615D-03-0.986D-03-0.264D-01-0.358D-01 0.248D-01 0.285D+00
 Coeff:      0.753D+00
 Gap=     0.035 Goal=   None    Shift=    0.000
 Gap=     0.042 Goal=   None    Shift=    0.000
 RMSDP=1.20D-04 MaxDP=5.42D-03 DE=-1.89D-05 OVMax= 4.96D-03

 Cycle   8  Pass 1  IDiag  1:
 E= -1136.09602986480     Delta-E=       -0.000004016010 Rises=F Damp=F
 DIIS: error= 4.45D-05 at cycle   8 NSaved=   8.
 NSaved= 8 IEnMin= 8 EnMin= -1136.09602986480     IErMin= 8 ErrMin= 4.45D-05
 ErrMax= 4.45D-05  0.00D+00 EMaxC= 1.00D-01 BMatC= 6.94D-07 BMatP= 1.14D-06
 IDIUse=1 WtCom= 1.00D+00 WtEn= 0.00D+00
 Coeff-Com:  0.536D-03-0.675D-03-0.793D-02-0.924D-02-0.309D-01-0.105D+00
 Coeff-Com:  0.435D+00 0.718D+00
 Coeff:      0.536D-03-0.675D-03-0.793D-02-0.924D-02-0.309D-01-0.105D+00
 Coeff:      0.435D+00 0.718D+00
 Gap=     0.035 Goal=   None    Shift=    0.000
 Gap=     0.042 Goal=   None    Shift=    0.000
 RMSDP=1.06D-04 MaxDP=8.21D-03 DE=-4.02D-06 OVMax= 4.34D-03

 Cycle   9  Pass 1  IDiag  1:
 E= -1136.09603283408     Delta-E=       -0.000002969277 Rises=F Damp=F
 DIIS: error= 3.41D-05 at cycle   9 NSaved=   9.
 NSaved= 9 IEnMin= 9 EnMin= -1136.09603283408     IErMin= 9 ErrMin= 3.41D-05
 ErrMax= 3.41D-05  0.00D+00 EMaxC= 1.00D-01 BMatC= 1.73D-07 BMatP= 6.94D-07
 IDIUse=1 WtCom= 1.00D+00 WtEn= 0.00D+00
 Coeff-Com:  0.456D-03-0.549D-03 0.634D-02 0.858D-02-0.223D-01-0.109D+00
 Coeff-Com: -0.201D+00 0.550D-01 0.126D+01
 Coeff:      0.456D-03-0.549D-03 0.634D-02 0.858D-02-0.223D-01-0.109D+00
 Coeff:     -0.201D+00 0.550D-01 0.126D+01
 Gap=     0.035 Goal=   None    Shift=    0.000
 Gap=     0.042 Goal=   None    Shift=    0.000
 RMSDP=1.27D-04 MaxDP=8.42D-03 DE=-2.97D-06 OVMax= 5.81D-03

 Cycle  10  Pass 1  IDiag  1:
 E= -1136.09603515835     Delta-E=       -0.000002324276 Rises=F Damp=F
 DIIS: error= 2.20D-05 at cycle  10 NSaved=  10.
 NSaved=10 IEnMin=10 EnMin= -1136.09603515835     IErMin=10 ErrMin= 2.20D-05
 ErrMax= 2.20D-05  0.00D+00 EMaxC= 1.00D-01 BMatC= 6.27D-08 BMatP= 1.73D-07
 IDIUse=1 WtCom= 1.00D+00 WtEn= 0.00D+00
 Coeff-Com: -0.343D-03 0.465D-03 0.358D-02 0.381D-02 0.863D-02 0.168D-01
 Coeff-Com: -0.125D+00-0.248D+00 0.132D+00 0.121D+01
 Coeff:     -0.343D-03 0.465D-03 0.358D-02 0.381D-02 0.863D-02 0.168D-01
 Coeff:     -0.125D+00-0.248D+00 0.132D+00 0.121D+01
 Gap=     0.035 Goal=   None    Shift=    0.000
 Gap=     0.042 Goal=   None    Shift=    0.000
 RMSDP=9.96D-05 MaxDP=6.55D-03 DE=-2.32D-06 OVMax= 4.25D-03

 Cycle  11  Pass 1  IDiag  1:
 E= -1136.09603622653     Delta-E=       -0.000001068173 Rises=F Damp=F
 DIIS: error= 1.29D-05 at cycle  11 NSaved=  11.
 NSaved=11 IEnMin=11 EnMin= -1136.09603622653     IErMin=11 ErrMin= 1.29D-05
 ErrMax= 1.29D-05  0.00D+00 EMaxC= 1.00D-01 BMatC= 2.78D-08 BMatP= 6.27D-08
 IDIUse=1 WtCom= 1.00D+00 WtEn= 0.00D+00
 Coeff-Com: -0.284D-03 0.358D-03-0.692D-03-0.129D-02 0.108D-01 0.474D-01
 Coeff-Com:  0.210D-01-0.148D+00-0.384D+00 0.345D+00 0.111D+01
 Coeff:     -0.284D-03 0.358D-03-0.692D-03-0.129D-02 0.108D-01 0.474D-01
 Coeff:      0.210D-01-0.148D+00-0.384D+00 0.345D+00 0.111D+01
 Gap=     0.035 Goal=   None    Shift=    0.000
 Gap=     0.042 Goal=   None    Shift=    0.000
 RMSDP=8.33D-05 MaxDP=5.29D-03 DE=-1.07D-06 OVMax= 3.21D-03

 Cycle  12  Pass 1  IDiag  1:
 E= -1136.09603677566     Delta-E=       -0.000000549137 Rises=F Damp=F
 DIIS: error= 1.00D-05 at cycle  12 NSaved=  12.
 NSaved=12 IEnMin=12 EnMin= -1136.09603677566     IErMin=12 ErrMin= 1.00D-05
 ErrMax= 1.00D-05  0.00D+00 EMaxC= 1.00D-01 BMatC= 1.31D-08 BMatP= 2.78D-08
 IDIUse=1 WtCom= 1.00D+00 WtEn= 0.00D+00
 Coeff-Com:  0.125D-04-0.265D-04-0.853D-03-0.103D-02 0.589D-03 0.104D-01
 Coeff-Com:  0.441D-01 0.802D-02-0.167D+00-0.214D+00 0.413D+00 0.906D+00
 Coeff:      0.125D-04-0.265D-04-0.853D-03-0.103D-02 0.589D-03 0.104D-01
 Coeff:      0.441D-01 0.802D-02-0.167D+00-0.214D+00 0.413D+00 0.906D+00
 Gap=     0.035 Goal=   None    Shift=    0.000
 Gap=     0.042 Goal=   None    Shift=    0.000
 RMSDP=3.90D-05 MaxDP=1.92D-03 DE=-5.49D-07 OVMax= 1.35D-03

 Cycle  13  Pass 1  IDiag  1:
 E= -1136.09603698113     Delta-E=       -0.000000205467 Rises=F Damp=F
 DIIS: error= 7.90D-06 at cycle  13 NSaved=  13.
 NSaved=13 IEnMin=13 EnMin= -1136.09603698113     IErMin=13 ErrMin= 7.90D-06
 ErrMax= 7.90D-06  0.00D+00 EMaxC= 1.00D-01 BMatC= 7.58D-09 BMatP= 1.31D-08
 IDIUse=1 WtCom= 1.00D+00 WtEn= 0.00D+00
 Coeff-Com:  0.161D-03-0.207D-03-0.163D-03 0.108D-03-0.615D-02-0.216D-01
 Coeff-Com:  0.950D-02 0.887D-01 0.136D+00-0.282D+00-0.474D+00 0.330D+00
 Coeff-Com:  0.122D+01
 Coeff:      0.161D-03-0.207D-03-0.163D-03 0.108D-03-0.615D-02-0.216D-01
 Coeff:      0.950D-02 0.887D-01 0.136D+00-0.282D+00-0.474D+00 0.330D+00
 Coeff:      0.122D+01
 Gap=     0.035 Goal=   None    Shift=    0.000
 Gap=     0.043 Goal=   None    Shift=    0.000
 RMSDP=4.26D-05 MaxDP=1.85D-03 DE=-2.05D-07 OVMax= 1.64D-03

 Cycle  14  Pass 1  IDiag  1:
 E= -1136.09603716002     Delta-E=       -0.000000178895 Rises=F Damp=F
 DIIS: error= 5.53D-06 at cycle  14 NSaved=  14.
 NSaved=14 IEnMin=14 EnMin= -1136.09603716002     IErMin=14 ErrMin= 5.53D-06
 ErrMax= 5.53D-06  0.00D+00 EMaxC= 1.00D-01 BMatC= 4.16D-09 BMatP= 7.58D-09
 IDIUse=1 WtCom= 1.00D+00 WtEn= 0.00D+00
 Coeff-Com:  0.497D-04-0.593D-04 0.163D-03 0.367D-03-0.233D-02-0.120D-01
 Coeff-Com: -0.341D-01 0.256D-01 0.187D+00 0.825D-01-0.476D+00-0.608D+00
 Coeff-Com:  0.468D+00 0.137D+01
 Coeff:      0.497D-04-0.593D-04 0.163D-03 0.367D-03-0.233D-02-0.120D-01
 Coeff:     -0.341D-01 0.256D-01 0.187D+00 0.825D-01-0.476D+00-0.608D+00
 Coeff:      0.468D+00 0.137D+01
 Gap=     0.035 Goal=   None    Shift=    0.000
 Gap=     0.043 Goal=   None    Shift=    0.000
 RMSDP=4.09D-05 MaxDP=2.18D-03 DE=-1.79D-07 OVMax= 1.63D-03

 Cycle  15  Pass 1  IDiag  1:
 E= -1136.09603728132     Delta-E=       -0.000000121299 Rises=F Damp=F
 DIIS: error= 3.26D-06 at cycle  15 NSaved=  15.
 NSaved=15 IEnMin=15 EnMin= -1136.09603728132     IErMin=15 ErrMin= 3.26D-06
 ErrMax= 3.26D-06  0.00D+00 EMaxC= 1.00D-01 BMatC= 1.56D-09 BMatP= 4.16D-09
 IDIUse=1 WtCom= 1.00D+00 WtEn= 0.00D+00
 Coeff-Com: -0.733D-04 0.964D-04 0.433D-03 0.234D-03 0.280D-02 0.677D-02
 Coeff-Com:  0.285D-02-0.410D-01-0.948D-01 0.918D-01 0.314D+00-0.232D-01
 Coeff-Com: -0.562D+00-0.342D+00 0.164D+01
 Coeff:     -0.733D-04 0.964D-04 0.433D-03 0.234D-03 0.280D-02 0.677D-02
 Coeff:      0.285D-02-0.410D-01-0.948D-01 0.918D-01 0.314D+00-0.232D-01
 Coeff:     -0.562D+00-0.342D+00 0.164D+01
 Gap=     0.035 Goal=   None    Shift=    0.000
 Gap=     0.043 Goal=   None    Shift=    0.000
 RMSDP=2.99D-05 MaxDP=1.81D-03 DE=-1.21D-07 OVMax= 1.14D-03

 Cycle  16  Pass 1  IDiag  1:
 E= -1136.09603733214     Delta-E=       -0.000000050817 Rises=F Damp=F
 DIIS: error= 1.68D-06 at cycle  16 NSaved=  16.
 NSaved=16 IEnMin=16 EnMin= -1136.09603733214     IErMin=16 ErrMin= 1.68D-06
 ErrMax= 1.68D-06  0.00D+00 EMaxC= 1.00D-01 BMatC= 5.84D-10 BMatP= 1.56D-09
 IDIUse=1 WtCom= 1.00D+00 WtEn= 0.00D+00
 Coeff-Com:  0.488D-05-0.942D-05-0.271D-03-0.217D-03-0.637D-04 0.340D-02
 Coeff-Com:  0.161D-01 0.114D-01-0.490D-01-0.107D+00 0.909D-01 0.294D+00
 Coeff-Com:  0.113D+00-0.635D+00-0.703D+00 0.196D+01
 Coeff:      0.488D-05-0.942D-05-0.271D-03-0.217D-03-0.637D-04 0.340D-02
 Coeff:      0.161D-01 0.114D-01-0.490D-01-0.107D+00 0.909D-01 0.294D+00
 Coeff:      0.113D+00-0.635D+00-0.703D+00 0.196D+01
 Gap=     0.035 Goal=   None    Shift=    0.000
 Gap=     0.043 Goal=   None    Shift=    0.000
 RMSDP=2.61D-05 MaxDP=1.83D-03 DE=-5.08D-08 OVMax= 9.70D-04

 Cycle  17  Pass 1  IDiag  1:
 E= -1136.09603735360     Delta-E=       -0.000000021461 Rises=F Damp=F
 DIIS: error= 5.50D-07 at cycle  17 NSaved=  17.
 NSaved=17 IEnMin=17 EnMin= -1136.09603735360     IErMin=17 ErrMin= 5.50D-07
 ErrMax= 5.50D-07  0.00D+00 EMaxC= 1.00D-01 BMatC= 1.10D-10 BMatP= 5.84D-10
 IDIUse=1 WtCom= 1.00D+00 WtEn= 0.00D+00
 Coeff-Com:  0.269D-04-0.352D-04-0.190D-03-0.113D-03-0.943D-03-0.274D-02
 Coeff-Com: -0.118D-02 0.155D-01 0.346D-01-0.352D-01-0.105D+00 0.199D-01
 Coeff-Com:  0.178D+00 0.944D-01-0.453D+00-0.546D-01 0.131D+01
 Coeff:      0.269D-04-0.352D-04-0.190D-03-0.113D-03-0.943D-03-0.274D-02
 Coeff:     -0.118D-02 0.155D-01 0.346D-01-0.352D-01-0.105D+00 0.199D-01
 Coeff:      0.178D+00 0.944D-01-0.453D+00-0.546D-01 0.131D+01
 Gap=     0.035 Goal=   None    Shift=    0.000
 Gap=     0.043 Goal=   None    Shift=    0.000
 RMSDP=8.13D-06 MaxDP=6.97D-04 DE=-2.15D-08 OVMax= 2.94D-04

 Cycle  18  Pass 1  IDiag  1:
 E= -1136.09603735596     Delta-E=       -0.000000002360 Rises=F Damp=F
 DIIS: error= 2.07D-07 at cycle  18 NSaved=  18.
 NSaved=18 IEnMin=18 EnMin= -1136.09603735596     IErMin=18 ErrMin= 2.07D-07
 ErrMax= 2.07D-07  0.00D+00 EMaxC= 1.00D-01 BMatC= 2.04D-11 BMatP= 1.10D-10
 IDIUse=1 WtCom= 1.00D+00 WtEn= 0.00D+00
 Coeff-Com:  0.106D-04-0.133D-04-0.114D-05 0.219D-04-0.380D-03-0.177D-02
 Coeff-Com: -0.368D-02 0.363D-02 0.232D-01 0.182D-02-0.541D-01-0.356D-01
 Coeff-Com:  0.494D-01 0.119D+00-0.191D-01-0.351D+00 0.364D+00 0.904D+00
 Coeff:      0.106D-04-0.133D-04-0.114D-05 0.219D-04-0.380D-03-0.177D-02
 Coeff:     -0.368D-02 0.363D-02 0.232D-01 0.182D-02-0.541D-01-0.356D-01
 Coeff:      0.494D-01 0.119D+00-0.191D-01-0.351D+00 0.364D+00 0.904D+00
 Gap=     0.035 Goal=   None    Shift=    0.000
 Gap=     0.043 Goal=   None    Shift=    0.000
 RMSDP=1.90D-06 MaxDP=1.64D-04 DE=-2.36D-09 OVMax= 7.64D-05

 Cycle  19  Pass 1  IDiag  1:
 E= -1136.09603735616     Delta-E=       -0.000000000198 Rises=F Damp=F
 DIIS: error= 1.03D-07 at cycle  19 NSaved=  19.
 NSaved=19 IEnMin=19 EnMin= -1136.09603735616     IErMin=19 ErrMin= 1.03D-07
 ErrMax= 1.03D-07  0.00D+00 EMaxC= 1.00D-01 BMatC= 3.86D-12 BMatP= 2.04D-11
 IDIUse=1 WtCom= 1.00D+00 WtEn= 0.00D+00
 Coeff-Com: -0.584D-05 0.769D-05 0.225D-04 0.785D-05 0.157D-03 0.653D-03
 Coeff-Com:  0.267D-03-0.247D-02-0.706D-02 0.531D-02 0.204D-01-0.154D-02
 Coeff-Com: -0.355D-01-0.183D-01 0.914D-01-0.280D-02-0.238D+00 0.673D-01
 Coeff-Com:  0.112D+01
 Coeff:     -0.584D-05 0.769D-05 0.225D-04 0.785D-05 0.157D-03 0.653D-03
 Coeff:      0.267D-03-0.247D-02-0.706D-02 0.531D-02 0.204D-01-0.154D-02
 Coeff:     -0.355D-01-0.183D-01 0.914D-01-0.280D-02-0.238D+00 0.673D-01
 Coeff:      0.112D+01
 Gap=     0.035 Goal=   None    Shift=    0.000
 Gap=     0.043 Goal=   None    Shift=    0.000
 RMSDP=5.04D-07 MaxDP=3.20D-05 DE=-1.98D-10 OVMax= 2.04D-05

 Cycle  20  Pass 1  IDiag  1:
 E= -1136.09603735619     Delta-E=       -0.000000000035 Rises=F Damp=F
 DIIS: error= 4.90D-08 at cycle  20 NSaved=  20.
 NSaved=20 IEnMin=20 EnMin= -1136.09603735619     IErMin=20 ErrMin= 4.90D-08
 ErrMax= 4.90D-08  0.00D+00 EMaxC= 1.00D-01 BMatC= 7.83D-13 BMatP= 3.86D-12
 IDIUse=1 WtCom= 1.00D+00 WtEn= 0.00D+00
 Coeff-Com: -0.107D-05 0.131D-05 0.614D-05 0.285D-05 0.486D-04 0.199D-03
 Coeff-Com:  0.660D-03-0.237D-03-0.340D-02-0.136D-02 0.755D-02 0.550D-02
 Coeff-Com: -0.452D-02-0.198D-01-0.662D-02 0.827D-01-0.952D-01-0.184D+00
 Coeff-Com:  0.788D-01 0.114D+01
 Coeff:     -0.107D-05 0.131D-05 0.614D-05 0.285D-05 0.486D-04 0.199D-03
 Coeff:      0.660D-03-0.237D-03-0.340D-02-0.136D-02 0.755D-02 0.550D-02
 Coeff:     -0.452D-02-0.198D-01-0.662D-02 0.827D-01-0.952D-01-0.184D+00
 Coeff:      0.788D-01 0.114D+01
 Gap=     0.035 Goal=   None    Shift=    0.000
 Gap=     0.043 Goal=   None    Shift=    0.000
 RMSDP=2.85D-07 MaxDP=2.77D-05 DE=-3.50D-11 OVMax= 8.25D-06

 Cycle  21  Pass 1  IDiag  1:
 E= -1136.09603735621     Delta-E=       -0.000000000013 Rises=F Damp=F
 DIIS: error= 1.82D-08 at cycle  21 NSaved=  20.
 NSaved=20 IEnMin=20 EnMin= -1136.09603735621     IErMin=20 ErrMin= 1.82D-08
 ErrMax= 1.82D-08  0.00D+00 EMaxC= 1.00D-01 BMatC= 1.15D-13 BMatP= 7.83D-13
 IDIUse=1 WtCom= 1.00D+00 WtEn= 0.00D+00
 Coeff-Com:  0.104D-06-0.341D-05-0.166D-05-0.983D-05-0.608D-04-0.434D-04
 Coeff-Com:  0.153D-03 0.726D-03 0.115D-03-0.281D-02-0.632D-04 0.607D-02
 Coeff-Com:  0.156D-02-0.156D-01 0.889D-03 0.438D-01-0.176D-01-0.173D+00
 Coeff-Com: -0.150D+00 0.131D+01
 Coeff:      0.104D-06-0.341D-05-0.166D-05-0.983D-05-0.608D-04-0.434D-04
 Coeff:      0.153D-03 0.726D-03 0.115D-03-0.281D-02-0.632D-04 0.607D-02
 Coeff:      0.156D-02-0.156D-01 0.889D-03 0.438D-01-0.176D-01-0.173D+00
 Coeff:     -0.150D+00 0.131D+01
 Gap=     0.035 Goal=   None    Shift=    0.000
 Gap=     0.043 Goal=   None    Shift=    0.000
 RMSDP=1.70D-07 MaxDP=1.66D-05 DE=-1.30D-11 OVMax= 3.41D-06

 Cycle  22  Pass 1  IDiag  1:
 E= -1136.09603735619     Delta-E=        0.000000000021 Rises=F Damp=F
 DIIS: error= 9.65D-09 at cycle  22 NSaved=  20.
 NSaved=20 IEnMin=19 EnMin= -1136.09603735621     IErMin=20 ErrMin= 9.65D-09
 ErrMax= 9.65D-09  0.00D+00 EMaxC= 1.00D-01 BMatC= 1.75D-14 BMatP= 1.15D-13
 IDIUse=1 WtCom= 1.00D+00 WtEn= 0.00D+00
 Coeff-Com: -0.847D-06-0.184D-06-0.962D-05-0.236D-04-0.464D-04 0.904D-04
 Coeff-Com:  0.289D-03-0.511D-04-0.671D-03-0.411D-03 0.124D-03 0.183D-02
 Coeff-Com:  0.149D-02-0.809D-02 0.687D-02 0.232D-01 0.561D-02-0.102D+00
 Coeff-Com: -0.157D+00 0.123D+01
 Coeff:     -0.847D-06-0.184D-06-0.962D-05-0.236D-04-0.464D-04 0.904D-04
 Coeff:      0.289D-03-0.511D-04-0.671D-03-0.411D-03 0.124D-03 0.183D-02
 Coeff:      0.149D-02-0.809D-02 0.687D-02 0.232D-01 0.561D-02-0.102D+00
 Coeff:     -0.157D+00 0.123D+01
 Gap=     0.035 Goal=   None    Shift=    0.000
 Gap=     0.043 Goal=   None    Shift=    0.000
 RMSDP=3.51D-08 MaxDP=2.67D-06 DE= 2.14D-11 OVMax= 1.08D-06

 Cycle  23  Pass 1  IDiag  1:
 E= -1136.09603735620     Delta-E=       -0.000000000015 Rises=F Damp=F
 DIIS: error= 5.53D-09 at cycle  23 NSaved=  20.
 NSaved=20 IEnMin=18 EnMin= -1136.09603735621     IErMin=20 ErrMin= 5.53D-09
 ErrMax= 5.53D-09  0.00D+00 EMaxC= 1.00D-01 BMatC= 5.84D-15 BMatP= 1.75D-14
 IDIUse=1 WtCom= 1.00D+00 WtEn= 0.00D+00
 Large coefficients: NSaved= 20 BigCof=    0.00 CofMax=   10.00 Det=-7.02D-15
 Inversion failed.  Reducing to 19 matrices.
 Large coefficients: NSaved= 19 BigCof=    0.00 CofMax=   10.00 Det=-7.37D-15
 Inversion failed.  Reducing to 18 matrices.
 Large coefficients: NSaved= 18 BigCof=    0.00 CofMax=   10.00 Det=-8.20D-15
 Inversion failed.  Reducing to 17 matrices.
 Large coefficients: NSaved= 17 BigCof=    0.00 CofMax=   10.00 Det=-9.76D-15
 Inversion failed.  Reducing to 16 matrices.
 Coeff-Com:  0.141D-04-0.213D-04-0.109D-03 0.287D-03-0.916D-04-0.803D-03
 Coeff-Com:  0.239D-03 0.283D-02-0.309D-02-0.312D-02 0.923D-02 0.230D-01
 Coeff-Com: -0.343D-03-0.260D+00 0.328D+00 0.903D+00
 Coeff:      0.141D-04-0.213D-04-0.109D-03 0.287D-03-0.916D-04-0.803D-03
 Coeff:      0.239D-03 0.283D-02-0.309D-02-0.312D-02 0.923D-02 0.230D-01
 Coeff:     -0.343D-03-0.260D+00 0.328D+00 0.903D+00
 Gap=     0.035 Goal=   None    Shift=    0.000
 Gap=     0.043 Goal=   None    Shift=    0.000
 RMSDP=1.58D-08 MaxDP=1.36D-06 DE=-1.50D-11 OVMax= 5.24D-07

 Cycle  24  Pass 1  IDiag  1:
 E= -1136.09603735619     Delta-E=        0.000000000009 Rises=F Damp=F
 DIIS: error= 2.82D-09 at cycle  24 NSaved=  17.
 NSaved=17 IEnMin=14 EnMin= -1136.09603735621     IErMin=17 ErrMin= 2.82D-09
 ErrMax= 2.82D-09  0.00D+00 EMaxC= 1.00D-01 BMatC= 1.44D-15 BMatP= 5.84D-15
 IDIUse=1 WtCom= 1.00D+00 WtEn= 0.00D+00
 Large coefficients: NSaved= 17 BigCof=    0.00 CofMax=   10.00 Det=-1.67D-15
 Inversion failed.  Reducing to 16 matrices.
 Large coefficients: NSaved= 16 BigCof=    0.00 CofMax=   10.00 Det=-1.81D-15
 Inversion failed.  Reducing to 15 matrices.
 Coeff-Com: -0.151D-04-0.581D-05 0.121D-03 0.313D-03-0.449D-03-0.744D-03
 Coeff-Com:  0.148D-02 0.163D-03-0.624D-02-0.544D-02 0.854D-02 0.120D+00
 Coeff-Com: -0.412D+00-0.213D+00 0.151D+01
 Coeff:     -0.151D-04-0.581D-05 0.121D-03 0.313D-03-0.449D-03-0.744D-03
 Coeff:      0.148D-02 0.163D-03-0.624D-02-0.544D-02 0.854D-02 0.120D+00
 Coeff:     -0.412D+00-0.213D+00 0.151D+01
 Gap=     0.035 Goal=   None    Shift=    0.000
 Gap=     0.043 Goal=   None    Shift=    0.000
 RMSDP=1.50D-08 MaxDP=1.14D-06 DE= 9.32D-12 OVMax= 4.35D-07

 Cycle  25  Pass 1  IDiag  1:
 E= -1136.09603735619     Delta-E=       -0.000000000000 Rises=F Damp=F
 DIIS: error= 9.52D-10 at cycle  25 NSaved=  16.
 NSaved=16 IEnMin=12 EnMin= -1136.09603735621     IErMin=16 ErrMin= 9.52D-10
 ErrMax= 9.52D-10  0.00D+00 EMaxC= 1.00D-01 BMatC= 3.05D-16 BMatP= 1.44D-15
 IDIUse=1 WtCom= 1.00D+00 WtEn= 0.00D+00
 Large coefficients: NSaved= 16 BigCof=    0.00 CofMax=   10.00 Det=-2.87D-16
 Inversion failed.  Reducing to 15 matrices.
 Coeff-Com: -0.393D-04 0.103D-03 0.284D-03-0.265D-03-0.995D-03 0.119D-02
 Coeff-Com:  0.138D-02-0.360D-02-0.102D-01 0.361D-02 0.956D-01-0.180D+00
 Coeff-Com: -0.255D+00 0.368D+00 0.980D+00
 Coeff:     -0.393D-04 0.103D-03 0.284D-03-0.265D-03-0.995D-03 0.119D-02
 Coeff:      0.138D-02-0.360D-02-0.102D-01 0.361D-02 0.956D-01-0.180D+00
 Coeff:     -0.255D+00 0.368D+00 0.980D+00
 Gap=     0.035 Goal=   None    Shift=    0.000
 Gap=     0.043 Goal=   None    Shift=    0.000
 RMSDP=5.15D-09 MaxDP=3.62D-07 DE=-2.27D-13 OVMax= 1.67D-07

 SCF Done:  E(UB3LYP) =  -1136.09603736     A.U. after   25 cycles
            NFock= 25  Conv=0.52D-08     -V/T= 2.0025
 <Sx>= 0.0000 <Sy>= 0.0000 <Sz>= 0.5000 <S**2>= 0.7629 S= 0.5064
 <L.S>= 0.000000000000E+00
 KE= 1.133223635749D+03 PE=-3.456758629464D+03 EE= 8.237131914435D+02
 Annihilation of the first spin contaminant:
 S**2 before annihilation     0.7629,   after     0.7501
 Leave Link  502 at Mon Nov 13 12:14:11 2023, MaxMem=  1879048192 cpu:             245.3 elap:              20.9
 (Enter /home/sekinelabo/g16/l601.exe)
 Copying SCF densities to generalized density rwf, IOpCl= 1 IROHF=0.

 **********************************************************************

            Population analysis using the SCF Density.

 **********************************************************************

 Orbital symmetries:
 Alpha Orbitals:
       Occupied  (A) (A) (A) (A) (A) (A) (A) (A) (A) (A) (A) (A)
                 (A) (A) (A) (A) (A) (A) (A) (A) (A) (A) (A) (A)
                 (A) (A) (A) (A) (A) (A) (A) (A) (A) (A) (A) (A)
                 (A) (A) (A)
       Virtual   (A) (A) (A) (A) (A) (A) (A) (A) (A) (A) (A) (A)
                 (A) (A) (A) (A) (A) (A) (A) (A) (A) (A) (A) (A)
                 (A) (A) (A) (A) (A) (A) (A) (A) (A) (A) (A) (A)
                 (A) (A) (A) (A) (A) (A) (A) (A) (A) (A) (A) (A)
                 (A) (A) (A) (A) (A) (A) (A) (A) (A) (A) (A) (A)
                 (A) (A) (A) (A) (A) (A) (A) (A) (A) (A) (A) (A)
                 (A) (A) (A) (A) (A) (A) (A) (A) (A) (A) (A) (A)
                 (A) (A) (A) (A) (A) (A) (A) (A) (A) (A) (A) (A)
                 (A) (A) (A) (A) (A) (A) (A) (A) (A) (A) (A) (A)
                 (A) (A) (A) (A) (A) (A) (A) (A) (A) (A) (A) (A)
                 (A) (A) (A) (A) (A) (A) (A) (A) (A) (A) (A) (A)
                 (A) (A) (A) (A) (A) (A) (A) (A) (A) (A) (A) (A)
                 (A) (A) (A) (A) (A) (A) (A) (A) (A) (A) (A) (A)
                 (A) (A) (A) (A) (A) (A) (A) (A) (A) (A) (A) (A)
                 (A) (A)
 Beta  Orbitals:
       Occupied  (A) (A) (A) (A) (A) (A) (A) (A) (A) (A) (A) (A)
                 (A) (A) (A) (A) (A) (A) (A) (A) (A) (A) (A) (A)
                 (A) (A) (A) (A) (A) (A) (A) (A) (A) (A) (A) (A)
                 (A) (A)
       Virtual   (A) (A) (A) (A) (A) (A) (A) (A) (A) (A) (A) (A)
                 (A) (A) (A) (A) (A) (A) (A) (A) (A) (A) (A) (A)
                 (A) (A) (A) (A) (A) (A) (A) (A) (A) (A) (A) (A)
                 (A) (A) (A) (A) (A) (A) (A) (A) (A) (A) (A) (A)
                 (A) (A) (A) (A) (A) (A) (A) (A) (A) (A) (A) (A)
                 (A) (A) (A) (A) (A) (A) (A) (A) (A) (A) (A) (A)
                 (A) (A) (A) (A) (A) (A) (A) (A) (A) (A) (A) (A)
                 (A) (A) (A) (A) (A) (A) (A) (A) (A) (A) (A) (A)
                 (A) (A) (A) (A) (A) (A) (A) (A) (A) (A) (A) (A)
                 (A) (A) (A) (A) (A) (A) (A) (A) (A) (A) (A) (A)
                 (A) (A) (A) (A) (A) (A) (A) (A) (A) (A) (A) (A)
                 (A) (A) (A) (A) (A) (A) (A) (A) (A) (A) (A) (A)
                 (A) (A) (A) (A) (A) (A) (A) (A) (A) (A) (A) (A)
                 (A) (A) (A) (A) (A) (A) (A) (A) (A) (A) (A) (A)
                 (A) (A) (A)
 The electronic state is 2-A.
 Alpha  occ. eigenvalues --  -38.44865 -38.44755 -38.44445 -38.44009 -38.43868
 Alpha  occ. eigenvalues --  -38.43794 -38.42397  -2.20822  -2.20753  -2.20431
 Alpha  occ. eigenvalues --   -2.19952  -2.19912  -2.19903  -2.18404  -1.14589
 Alpha  occ. eigenvalues --   -1.14579  -1.14472  -1.14446  -1.14360  -1.14304
 Alpha  occ. eigenvalues --   -1.14178  -1.14109  -1.14085  -1.13777  -1.13649
 Alpha  occ. eigenvalues --   -1.13608  -1.13567  -1.13556  -1.13536  -1.13525
 Alpha  occ. eigenvalues --   -1.13482  -1.13418  -1.12094  -1.12060  -1.12021
 Alpha  occ. eigenvalues --   -0.19886  -0.14889  -0.11609  -0.10862
 Alpha virt. eigenvalues --   -0.07334  -0.05153  -0.03956  -0.03262  -0.02950
 Alpha virt. eigenvalues --   -0.02065  -0.01958  -0.01187  -0.00385  -0.00078
 Alpha virt. eigenvalues --    0.00022   0.00390   0.00539   0.00778   0.00830
 Alpha virt. eigenvalues --    0.00975   0.01030   0.01258   0.01473   0.01496
 Alpha virt. eigenvalues --    0.01610   0.01711   0.01889   0.01926   0.02052
 Alpha virt. eigenvalues --    0.02276   0.02317   0.02593   0.02665   0.02749
 Alpha virt. eigenvalues --    0.02765   0.02854   0.02945   0.03069   0.03090
 Alpha virt. eigenvalues --    0.03226   0.03327   0.03586   0.03818   0.04155
 Alpha virt. eigenvalues --    0.04243   0.04429   0.04630   0.04871   0.05171
 Alpha virt. eigenvalues --    0.05284   0.05581   0.05836   0.05980   0.06227
 Alpha virt. eigenvalues --    0.06549   0.06714   0.07173   0.07336   0.07630
 Alpha virt. eigenvalues --    0.07956   0.08049   0.08255   0.08749   0.09213
 Alpha virt. eigenvalues --    0.09511   0.10031   0.11124   0.11727   0.11865
 Alpha virt. eigenvalues --    0.12393   0.12646   0.13393   0.13567   0.13753
 Alpha virt. eigenvalues --    0.14230   0.14388   0.14740   0.15182   0.15462
 Alpha virt. eigenvalues --    0.16027   0.16644   0.17460   0.19059   0.23987
 Alpha virt. eigenvalues --    0.25550   0.26437   0.27910   0.28137   0.30172
 Alpha virt. eigenvalues --    0.30478   0.32000   0.32947   0.33807   0.34568
 Alpha virt. eigenvalues --    0.35547   0.35949   0.36616   0.37641   0.38520
 Alpha virt. eigenvalues --    0.39097   0.39984   0.41790   0.42366   0.43295
 Alpha virt. eigenvalues --    0.44165   0.44366   0.44854   0.45020   0.45454
 Alpha virt. eigenvalues --    0.45646   0.46252   0.46388   0.47318   0.47762
 Alpha virt. eigenvalues --    0.48334   0.49333   0.49450   0.49671   0.50552
 Alpha virt. eigenvalues --    0.51805   0.52939   0.53210   0.54166   0.54540
 Alpha virt. eigenvalues --    0.55382   0.55867   0.57684   0.58659   0.64575
 Alpha virt. eigenvalues --    0.65294   0.67899   0.69292   0.71233   0.71672
 Alpha virt. eigenvalues --    0.74345   0.74931   0.77920   0.79226   0.80191
 Alpha virt. eigenvalues --    2.08667   2.14018   2.17466   2.23317   2.25463
 Alpha virt. eigenvalues --    2.27147   2.36374   4.40821   4.41210   4.41541
 Alpha virt. eigenvalues --    4.42081   4.42522   4.42729   4.43996   4.44986
 Alpha virt. eigenvalues --    4.46266   4.47025   4.47217   4.53722   4.59056
 Alpha virt. eigenvalues --    4.61500   4.64838   4.66409   4.67501   4.72668
 Alpha virt. eigenvalues --    4.73102   4.74320   4.81706  96.29125  96.36556
 Alpha virt. eigenvalues --   96.41231  96.48992  96.52420  96.54035  96.66641
  Beta  occ. eigenvalues --  -38.44849 -38.44713 -38.44440 -38.44000 -38.43814
  Beta  occ. eigenvalues --  -38.43732 -38.42380  -2.20750  -2.20725  -2.20425
  Beta  occ. eigenvalues --   -2.19897  -2.19856  -2.19797  -2.18377  -1.14553
  Beta  occ. eigenvalues --   -1.14509  -1.14422  -1.14410  -1.14334  -1.14267
  Beta  occ. eigenvalues --   -1.14173  -1.14102  -1.14059  -1.13702  -1.13598
  Beta  occ. eigenvalues --   -1.13557  -1.13542  -1.13507  -1.13485  -1.13463
  Beta  occ. eigenvalues --   -1.13412  -1.13334  -1.12079  -1.12040  -1.11979
  Beta  occ. eigenvalues --   -0.19147  -0.14621  -0.11431
  Beta virt. eigenvalues --   -0.07178  -0.06782  -0.05047  -0.03332  -0.03173
  Beta virt. eigenvalues --   -0.02803  -0.01559  -0.01215  -0.00885  -0.00061
  Beta virt. eigenvalues --   -0.00034   0.00074   0.00453   0.00720   0.00823
  Beta virt. eigenvalues --    0.00872   0.01033   0.01126   0.01351   0.01574
  Beta virt. eigenvalues --    0.01651   0.01741   0.01777   0.01962   0.01980
  Beta virt. eigenvalues --    0.02188   0.02320   0.02371   0.02631   0.02730
  Beta virt. eigenvalues --    0.02779   0.02795   0.02902   0.03031   0.03117
  Beta virt. eigenvalues --    0.03181   0.03288   0.03397   0.03674   0.03906
  Beta virt. eigenvalues --    0.04299   0.04334   0.04557   0.04695   0.05004
  Beta virt. eigenvalues --    0.05343   0.05461   0.05700   0.05938   0.06149
  Beta virt. eigenvalues --    0.06333   0.06639   0.06774   0.07244   0.07545
  Beta virt. eigenvalues --    0.07791   0.08042   0.08091   0.08390   0.08915
  Beta virt. eigenvalues --    0.09365   0.09587   0.10267   0.11453   0.11990
  Beta virt. eigenvalues --    0.12123   0.12514   0.12973   0.13654   0.13731
  Beta virt. eigenvalues --    0.14014   0.14361   0.14514   0.14959   0.15532
  Beta virt. eigenvalues --    0.15776   0.16314   0.16822   0.17824   0.19305
  Beta virt. eigenvalues --    0.24239   0.25902   0.26637   0.28104   0.28309
  Beta virt. eigenvalues --    0.30444   0.30933   0.32208   0.33152   0.34044
  Beta virt. eigenvalues --    0.34948   0.35906   0.36170   0.36770   0.37986
  Beta virt. eigenvalues --    0.38768   0.39349   0.40173   0.42064   0.42679
  Beta virt. eigenvalues --    0.43403   0.44256   0.44505   0.45057   0.45232
  Beta virt. eigenvalues --    0.45531   0.45796   0.46384   0.46552   0.47434
  Beta virt. eigenvalues --    0.47949   0.48628   0.49460   0.49699   0.49934
  Beta virt. eigenvalues --    0.50701   0.51942   0.53190   0.53420   0.54391
  Beta virt. eigenvalues --    0.54763   0.55593   0.56175   0.57874   0.58869
  Beta virt. eigenvalues --    0.64731   0.65598   0.68008   0.69470   0.71353
  Beta virt. eigenvalues --    0.71865   0.74470   0.75072   0.78190   0.79336
  Beta virt. eigenvalues --    0.80310   2.08752   2.14070   2.17518   2.23405
  Beta virt. eigenvalues --    2.25651   2.27311   2.36537   4.40884   4.41282
  Beta virt. eigenvalues --    4.41572   4.42154   4.42589   4.42787   4.44042
  Beta virt. eigenvalues --    4.45010   4.46293   4.47070   4.47268   4.53774
  Beta virt. eigenvalues --    4.59148   4.61544   4.64915   4.66438   4.67537
  Beta virt. eigenvalues --    4.72702   4.73155   4.74379   4.81762  96.29157
  Beta virt. eigenvalues --   96.36576  96.41249  96.49021  96.52475  96.54088
  Beta virt. eigenvalues --   96.66698
          Condensed to atoms (all electrons):
               1          2          3          4          5          6
     1  Na  12.166775   0.098844  -0.371657   0.318758  -0.571716   0.247981
     2  Na   0.098844  13.292671  -0.543083  -2.477277   0.663273   0.126820
     3  Na  -0.371657  -0.543083  11.655393   0.518395   0.067374   0.253971
     4  Na   0.318758  -2.477277   0.518395  15.491727  -0.115704  -0.778068
     5  Na  -0.571716   0.663273   0.067374  -0.115704  11.664652  -0.250839
     6  Na   0.247981   0.126820   0.253971  -0.778068  -0.250839  11.335768
     7  Na  -0.343682   0.387152  -0.906675  -2.136739  -0.383635   0.258667
               7
     1  Na  -0.343682
     2  Na   0.387152
     3  Na  -0.906675
     4  Na  -2.136739
     5  Na  -0.383635
     6  Na   0.258667
     7  Na  13.268687
          Atomic-Atomic Spin Densities.
               1          2          3          4          5          6
     1  Na   0.176388  -0.441122   0.062156   0.431319  -0.250123   0.100419
     2  Na  -0.441122   1.292289   0.023960  -1.166291   0.634146  -0.087707
     3  Na   0.062156   0.023960   0.048543  -0.093960  -0.040951   0.134277
     4  Na   0.431319  -1.166291  -0.093960   1.186453  -0.675430   0.216486
     5  Na  -0.250123   0.634146  -0.040951  -0.675430   0.353394  -0.009014
     6  Na   0.100419  -0.087707   0.134277   0.216486  -0.009014   0.076115
     7  Na   0.067568   0.229042  -0.090262   0.011875   0.149580  -0.291639
               7
     1  Na   0.067568
     2  Na   0.229042
     3  Na  -0.090262
     4  Na   0.011875
     5  Na   0.149580
     6  Na  -0.291639
     7  Na   0.038157
 Mulliken charges and spin densities:
               1          2
     1  Na  -0.545305   0.146606
     2  Na  -0.548400   0.484318
     3  Na   0.326281   0.043764
     4  Na   0.178906  -0.089548
     5  Na  -0.073405   0.161602
     6  Na  -0.194301   0.138938
     7  Na   0.856223   0.114321
 Sum of Mulliken charges =  -0.00000   1.00000
 Mulliken charges and spin densities with hydrogens summed into heavy atoms:
               1          2
     1  Na  -0.545305   0.146606
     2  Na  -0.548400   0.484318
     3  Na   0.326281   0.043764
     4  Na   0.178906  -0.089548
     5  Na  -0.073405   0.161602
     6  Na  -0.194301   0.138938
     7  Na   0.856223   0.114321
 Electronic spatial extent (au):  <R**2>=           2248.9641
 Charge=             -0.0000 electrons
 Dipole moment (field-independent basis, Debye):
    X=             -0.2384    Y=              0.1834    Z=              0.0273  Tot=              0.3021
 Quadrupole moment (field-independent basis, Debye-Ang):
   XX=            -49.9943   YY=            -72.6689   ZZ=            -72.6202
   XY=              0.4674   XZ=             -2.5978   YZ=              2.9752
 Traceless Quadrupole moment (field-independent basis, Debye-Ang):
   XX=             15.1001   YY=             -7.5744   ZZ=             -7.5257
   XY=              0.4674   XZ=             -2.5978   YZ=              2.9752
 Octapole moment (field-independent basis, Debye-Ang**2):
  XXX=            -17.7050  YYY=              7.6677  ZZZ=              2.5847  XYY=              7.0517
  XXY=             -2.1246  XXZ=              5.2689  XZZ=             -0.7846  YZZ=             -0.5699
  YYZ=             -1.5905  XYZ=              3.2302
 Hexadecapole moment (field-independent basis, Debye-Ang**3):
 XXXX=          -1914.4936 YYYY=          -1032.3369 ZZZZ=           -641.0687 XXXY=             37.2202
 XXXZ=            -53.2459 YYYX=             -9.5569 YYYZ=              2.5721 ZZZX=            -19.1665
 ZZZY=             22.7543 XXYY=           -513.4880 XXZZ=           -509.9322 YYZZ=           -277.1994
 XXYZ=             38.9944 YYXZ=             -1.5855 ZZXY=            -10.0809
 N-N= 3.637257649158D+02 E-N=-3.456758629491D+03  KE= 1.133223635749D+03
                          Isotropic Fermi Contact Couplings
        Atom                 a.u.       MegaHertz       Gauss      10(-4) cm-1
     1  Na(23)             0.16517     195.39580      69.72208      65.17702
     2  Na(23)             0.12117     143.34215      51.14804      47.81380
     3  Na(23)             0.03928      46.46981      16.58158      15.50066
     4  Na(23)             0.20656     244.36923      87.19702      81.51280
     5  Na(23)             0.02852      33.74249      12.04016      11.25528
     6  Na(23)            -0.01759     -20.80528      -7.42384      -6.93989
     7  Na(23)             0.03539      41.86795      14.93953      13.96564
 --------------------------------------------------------
       Center         ----  Spin Dipole Couplings  ----
                      3XX-RR        3YY-RR        3ZZ-RR
 --------------------------------------------------------
     1   Atom        0.001884     -0.015920      0.014036
     2   Atom       -0.011089     -0.010603      0.021692
     3   Atom       -0.010888     -0.011893      0.022780
     4   Atom        0.013486     -0.011996     -0.001490
     5   Atom       -0.018656     -0.012646      0.031302
     6   Atom       -0.003908     -0.019054      0.022962
     7   Atom       -0.005103      0.000714      0.004389
 --------------------------------------------------------
                        XY            XZ            YZ
 --------------------------------------------------------
     1   Atom       -0.017930     -0.034219      0.018150
     2   Atom        0.001615      0.019549     -0.020257
     3   Atom       -0.000973     -0.005609     -0.005091
     4   Atom       -0.018845      0.027166     -0.018063
     5   Atom       -0.001201     -0.001616      0.006687
     6   Atom        0.002766     -0.015104     -0.003653
     7   Atom       -0.000539      0.000570     -0.005782
 --------------------------------------------------------


 ---------------------------------------------------------------------------------
              Anisotropic Spin Dipole Couplings in Principal Axis System
 ---------------------------------------------------------------------------------

       Atom             a.u.   MegaHertz   Gauss  10(-4) cm-1        Axes

              Baa    -0.0282    -3.979    -1.420    -1.327  0.7513  0.5427  0.3756
     1 Na(23) Bbb    -0.0240    -3.394    -1.211    -1.132 -0.2550  0.7636 -0.5932
              Bcc     0.0522     7.373     2.631     2.459 -0.6088  0.3499  0.7120
 
              Baa    -0.0283    -3.997    -1.426    -1.333 -0.6149  0.6174  0.4906
     2 Na(23) Bbb    -0.0092    -1.304    -0.465    -0.435  0.7123  0.7018  0.0095
              Bcc     0.0375     5.302     1.892     1.768  0.3385 -0.3553  0.8713
 
              Baa    -0.0140    -1.973    -0.704    -0.658  0.6052  0.7708  0.1991
     3 Na(23) Bbb    -0.0104    -1.465    -0.523    -0.489  0.7814 -0.6230  0.0365
              Bcc     0.0243     3.438     1.227     1.147 -0.1522 -0.1335  0.9793
 
              Baa    -0.0257    -3.630    -1.295    -1.211 -0.1187  0.7275  0.6758
     4 Na(23) Bbb    -0.0201    -2.843    -1.014    -0.948  0.6893  0.5503 -0.4713
              Bcc     0.0458     6.472     2.310     2.159  0.7147 -0.4099  0.5667
 
              Baa    -0.0189    -2.668    -0.952    -0.890  0.9834  0.1811  0.0075
     5 Na(23) Bbb    -0.0135    -1.902    -0.679    -0.634 -0.1779  0.9723 -0.1516
              Bcc     0.0324     4.570     1.631     1.524 -0.0348  0.1478  0.9884
 
              Baa    -0.0196    -2.765    -0.986    -0.922 -0.1410  0.9894  0.0349
     6 Na(23) Bbb    -0.0106    -1.493    -0.533    -0.498  0.9012  0.1137  0.4183
              Bcc     0.0301     4.257     1.519     1.420 -0.4099 -0.0904  0.9076
 
              Baa    -0.0052    -0.728    -0.260    -0.243  0.9966  0.0818 -0.0100
     7 Na(23) Bbb    -0.0035    -0.496    -0.177    -0.165 -0.0600  0.8034  0.5924
              Bcc     0.0087     1.223     0.437     0.408  0.0564 -0.5898  0.8056
 

 ---------------------------------------------------------------------------------

 No NMR shielding tensors so no spin-rotation constants.
 Leave Link  601 at Mon Nov 13 12:14:11 2023, MaxMem=  1879048192 cpu:               2.6 elap:               0.2
 (Enter /home/sekinelabo/g16/l701.exe)
 ... and contract with generalized density number  0.
 Compute integral first derivatives.
 Leave Link  701 at Mon Nov 13 12:14:11 2023, MaxMem=  1879048192 cpu:               1.7 elap:               0.1
 (Enter /home/sekinelabo/g16/l702.exe)
 L702 exits ... SP integral derivatives will be done elsewhere.
 Leave Link  702 at Mon Nov 13 12:14:11 2023, MaxMem=  1879048192 cpu:               0.5 elap:               0.0
 (Enter /home/sekinelabo/g16/l703.exe)
 Integral derivatives from FoFJK, PRISM(SPDF).
 Compute integral first derivatives, UseDBF=F ICtDFT=           0.
 Calling FoFJK, ICntrl=      2127 FMM=F ISym2X=0 I1Cent= 0 IOpClX= 1 NMat=1 NMatS=1 NMatT=0.
 FoFJK:  IHMeth= 1 ICntrl=    2127 DoSepK=F KAlg= 0 I1Cent=           0 FoldK=F
 IRaf=         0 NMat=       1 IRICut=       1 DoRegI=T DoRafI=F ISym2E= 0 IDoP0=0 IntGTp=1.
 FoFCou: FMM=F IPFlag=           0 FMFlag=      100000 FMFlg1=         800
         NFxFlg=           0 DoJE=F BraDBF=F KetDBF=F FulRan=T
         wScrn=  0.000000 ICntrl=      2127 IOpCl=  1 I1Cent=           0 NGrid=           0
         NMat0=    1 NMatS0=      1 NMatT0=    0 NMatD0=    1 NMtDS0=    0 NMtDT0=    0
 Symmetry not used in FoFCou.
 Leave Link  703 at Mon Nov 13 12:14:14 2023, MaxMem=  1879048192 cpu:              35.8 elap:               2.3
 (Enter /home/sekinelabo/g16/l716.exe)
 Dipole        =-9.38117770D-02 7.21553235D-02 1.07294312D-02
 ***** Axes restored to original set *****
 -------------------------------------------------------------------
 Center     Atomic                   Forces (Hartrees/Bohr)
 Number     Number              X              Y              Z
 -------------------------------------------------------------------
      1       11          -0.000531250    0.009020960    0.010144883
      2       11          -0.002357966    0.005488740   -0.014097804
      3       11           0.007647357    0.005054348   -0.002602378
      4       11           0.002402726   -0.005193231    0.015170153
      5       11           0.001159307   -0.013938276   -0.004620079
      6       11          -0.001871508   -0.008563653    0.000746528
      7       11          -0.006448666    0.008131112   -0.004741302
 -------------------------------------------------------------------
 Cartesian Forces:  Max     0.015170153 RMS     0.007550563
 Z-matrix is all fixed cartesians, so copy forces.
 Force constants in Cartesian coordinates: 
                1             2             3             4             5 
      1  0.132276D+00
      2 -0.667388D-02  0.146274D+00
      3  0.966890D-02  0.377983D-01  0.136734D+00
      4 -0.262473D-01 -0.969161D-02  0.127016D-01  0.103270D+00
      5  0.860253D-02 -0.202594D-01 -0.212191D-01  0.269589D-02  0.885719D-01
      6  0.579108D-03  0.634724D-02 -0.485269D-01  0.984374D-02 -0.232644D-01
      7 -0.499222D-02 -0.396265D-02  0.140046D-02 -0.364780D-01 -0.750569D-02
      8  0.449009D-02  0.445566D-02 -0.223020D-02  0.582709D-02 -0.115330D-01
      9  0.480513D-02  0.938513D-04  0.576104D-02 -0.271995D-01 -0.242705D-02
     10 -0.371184D-01  0.199774D-02 -0.224020D-01 -0.133668D-01  0.161081D-02
     11  0.151282D-01 -0.440127D-01  0.117676D-01  0.455317D-02 -0.145730D-01
     12  0.114940D-01 -0.125863D-01 -0.295300D-01 -0.120045D-01  0.137247D-01
     13 -0.256354D-02  0.670684D-02 -0.135767D-03 -0.203134D-01 -0.199259D-02
     14  0.313351D-02 -0.192961D-01 -0.538461D-02  0.227199D-02 -0.455328D-01
     15  0.881187D-03 -0.113073D-01 -0.117855D-01  0.494422D-02  0.288319D-01
     16 -0.283056D-01 -0.241672D-02  0.456700D-02 -0.400194D-02 -0.353982D-02
     17 -0.122580D-01 -0.410362D-01 -0.249549D-02 -0.673097D-02  0.288637D-02
     18 -0.807438D-02 -0.185845D-01 -0.174490D-01  0.623985D-02  0.453976D-02
     19 -0.330489D-01  0.140403D-01 -0.580019D-02 -0.286254D-02  0.128876D-03
     20 -0.124224D-01 -0.261253D-01 -0.182366D-01  0.107444D-02  0.440024D-03
     21 -0.193540D-01 -0.176136D-02 -0.352036D-01  0.547461D-02 -0.185809D-03
                6             7             8             9            10 
      6  0.130048D+00
      7  0.723037D-03  0.671744D-01
      8  0.576250D-02  0.143677D-01  0.254657D-01
      9 -0.227783D-01 -0.237307D-03 -0.105250D-01  0.395227D-01
     10 -0.658797D-02 -0.242724D-01 -0.145459D-01  0.247433D-01  0.103833D+00
     11  0.169222D-01 -0.203773D-02 -0.180400D-01  0.152348D-01  0.283064D-02
     12 -0.477580D-01 -0.343351D-02  0.695093D-02 -0.283022D-01  0.151732D-01
     13 -0.167214D-02 -0.140303D-02 -0.100688D-01 -0.207725D-02 -0.232139D-01
     14 -0.848217D-02 -0.801315D-03 -0.454394D-03 -0.228180D-02  0.691141D-02
     15 -0.172952D-01  0.149912D-02  0.640408D-05  0.557781D-02 -0.467175D-02
     16 -0.516256D-03 -0.141414D-04 -0.445539D-04  0.161673D-04 -0.604820D-02
     17  0.196207D-02 -0.420310D-04  0.757951D-04 -0.207059D-04 -0.178510D-02
     18  0.188595D-02  0.240761D-04 -0.173738D-04  0.137226D-03 -0.641329D-02
     19 -0.236951D-02 -0.145927D-04 -0.255592D-04 -0.505729D-04  0.186491D-03
     20  0.752546D-03 -0.182853D-04  0.302779D-04 -0.741389D-04  0.298045D-02
     21  0.442439D-02  0.241228D-04  0.527407D-04  0.817876D-04  0.158487D-03
               11            12            13            14            15 
     11  0.889709D-01
     12 -0.144511D-01  0.133217D+00
     13 -0.154798D-01 -0.816909D-02  0.840849D-01
     14 -0.237312D-01  0.542632D-03 -0.374850D-02  0.118319D+00
     15 -0.308747D-01 -0.361423D-01 -0.389328D-02  0.176771D-01  0.706317D-01
     16 -0.471059D-02 -0.736231D-03 -0.368381D-01 -0.139987D-01  0.522399D-02
     17  0.547816D-02  0.191711D-02  0.195234D-01 -0.314719D-01 -0.626510D-02
     18 -0.216606D-03  0.361328D-02  0.140639D-01  0.159319D-02 -0.155497D-01
     19 -0.283845D-03 -0.232385D-02  0.247130D-03  0.623162D-02 -0.398349D-02
     20  0.590782D-02  0.390212D-02  0.505949D-02  0.216767D-02  0.193162D-02
     21  0.161774D-02  0.490203D-02  0.188364D-02 -0.366437D-02  0.456311D-02
               16            17            18            19            20 
     16  0.917794D-01
     17  0.534541D-02  0.102781D+00
     18 -0.650907D-02 -0.142575D-02  0.337417D-01
     19 -0.165714D-01 -0.405271D-02  0.668925D-03  0.520638D-01
     20  0.193650D-01 -0.387132D-01  0.141112D-01 -0.160387D-01  0.562927D-01
     21 -0.204561D-02  0.632787D-02 -0.637936D-02  0.138587D-01 -0.238681D-02
               21 
     21  0.276116D-01
 Leave Link  716 at Mon Nov 13 12:14:14 2023, MaxMem=  1879048192 cpu:               0.5 elap:               0.0
 (Enter /home/sekinelabo/g16/l103.exe)

 GradGradGradGradGradGradGradGradGradGradGradGradGradGradGradGradGradGrad
 Berny optimization.
 Search for a local minimum.
 Step number   1 out of a maximum of    2
 All quantities printed in internal units (Hartrees-Bohrs-Radians)
 Second derivative matrix not updated -- first step.
 ITU=  0
     Eigenvalues ---    0.02222   0.03570   0.04016   0.05279   0.07939
     Eigenvalues ---    0.10152   0.12248   0.13407   0.14021   0.14528
     Eigenvalues ---    0.16159   0.17101   0.18923   0.19907   0.22615
 Quadratic step=3.523D-01 exceeds max=3.000D-01 adjusted using Lamda=-1.064D-02.
 Angle between NR and scaled steps=   4.46 degrees.
 Angle between quadratic step and forces=  30.01 degrees.
 Linear search not attempted -- first point.
 B after Tr=     0.000000   -0.000000    0.000000
         Rot=    1.000000    0.000000    0.000000    0.000000 Ang=   0.00 deg.
 Variable       Old X    -DE/DX   Delta X   Delta X   Delta X     New X
                                 (Linear)    (Quad)   (Total)
    X1        4.97315  -0.00053   0.00000  -0.02411  -0.02411   4.94904
    Y1        6.34741   0.00902   0.00000   0.02701   0.02701   6.37442
    Z1        4.35267   0.01014   0.00000   0.06937   0.06937   4.42203
    X2        8.49922  -0.00236   0.00000   0.00926   0.00926   8.50847
    Y2        5.39034   0.00549   0.00000   0.00715   0.00715   5.39749
    Z2        0.00000  -0.01410   0.00000  -0.06079  -0.06079  -0.06079
    X3       13.76069   0.00765   0.00000   0.10447   0.10447  13.86516
    Y3        5.94435   0.00505   0.00000   0.09372   0.09372   6.03806
    Z3        2.02075  -0.00260   0.00000  -0.03208  -0.03208   1.98867
    X4        9.76155   0.00240   0.00000   0.05727   0.05727   9.81881
    Y4        3.40466  -0.00519   0.00000  -0.04035  -0.04035   3.36431
    Z4        5.13104   0.01517   0.00000   0.08061   0.08061   5.21166
    X5        7.29968   0.00116   0.00000   0.01218   0.01218   7.31186
    Y5        0.00000  -0.01394   0.00000  -0.13193  -0.13193  -0.13193
    Z5        1.31366  -0.00462   0.00000  -0.01365  -0.01365   1.30002
    X6        2.10636  -0.00187   0.00000  -0.07043  -0.07043   2.03593
    Y6        1.67705  -0.00856   0.00000  -0.06430  -0.06430   1.61275
    Z6        2.87358   0.00075   0.00000  -0.00468  -0.00468   2.86889
    X7        0.00000  -0.00645   0.00000  -0.08863  -0.08863  -0.08863
    Y7        6.79657   0.00813   0.00000   0.10870   0.10870   6.90528
    Z7        1.68471  -0.00474   0.00000  -0.03878  -0.03878   1.64593
         Item               Value     Threshold  Converged?
 Maximum Force            0.015170     0.000450     NO 
 RMS     Force            0.007551     0.000300     NO 
 Maximum Displacement     0.131932     0.001800     NO 
 RMS     Displacement     0.065509     0.001200     NO 
 Predicted change in Energy=-4.976751D-03
 GradGradGradGradGradGradGradGradGradGradGradGradGradGradGradGradGradGrad

 Leave Link  103 at Mon Nov 13 12:14:14 2023, MaxMem=  1879048192 cpu:               0.3 elap:               0.0
 (Enter /home/sekinelabo/g16/l9999.exe)
 1\1\GINC-SEKINELABO-XA7R-R37\Force\UB3LYP\6-311+G(d)\Na7(2)\SEKINELABO
 \13-Nov-2023\0\\#P B3LYP/6-311+g(d) force\\Gaussian input prepared by 
 ASE\\0,2\Na,2.631678481,3.358902686,2.3033333029\Na,4.4975913739,2.852
 4447062,0.\Na,7.2818412158,3.1456136349,1.0693335935\Na,5.1655879918,1
 .8016664429,2.7152315594\Na,3.8628248725,0.,0.6951602905\Na,1.11463898
 68,0.8874566455,1.5206311061\Na,0.,3.5965918303,0.8915119785\\Version=
 ES64L-G16RevB.01\State=2-A\HF=-1136.0960374\S2=0.76286\S2-1=0.\S2A=0.7
 50112\RMSD=5.153e-09\RMSF=7.551e-03\Dipole=0.0938118,-0.0721553,0.0107
 294\Quadrupole=11.2265755,-5.6313802,-5.5951954,0.3474862,1.931414,-2.
 2120236\PG=C01 [X(Na7)]\\@


     SCHOPENHAUER'S LAW OF ENTROPY
 IF YOU PUT A SPOONFUL OF WINE IN A BARREL FULL
 OF SEWAGE, YOU GET SEWAGE.
 IF YOU PUT A SPOONFUL OF SEWAGE IN A BARREL FULL
 OF WINE, YOU GET SEWAGE.
 Job cpu time:       0 days  0 hours  4 minutes 58.9 seconds.
 Elapsed time:       0 days  0 hours  0 minutes 24.3 seconds.
 File lengths (MBytes):  RWF=     32 Int=      0 D2E=      0 Chk=      5 Scr=      1
 Normal termination of Gaussian 16 at Mon Nov 13 12:14:14 2023.
