 Entering Gaussian System, Link 0=g16
 Initial command:
 /home/sekinelabo/g16/l1.exe "/home/sekinelabo/g16temp/Gau-3978644.inp" -scrdir="/home/sekinelabo/g16temp/"
 Entering Link 1 = /home/sekinelabo/g16/l1.exe PID=   3978646.
  
 Copyright (c) 1988-2017, Gaussian, Inc.  All Rights Reserved.
  
 This is part of the Gaussian(R) 16 program.  It is based on
 the Gaussian(R) 09 system (copyright 2009, Gaussian, Inc.),
 the Gaussian(R) 03 system (copyright 2003, Gaussian, Inc.),
 the Gaussian(R) 98 system (copyright 1998, Gaussian, Inc.),
 the Gaussian(R) 94 system (copyright 1995, Gaussian, Inc.),
 the Gaussian 92(TM) system (copyright 1992, Gaussian, Inc.),
 the Gaussian 90(TM) system (copyright 1990, Gaussian, Inc.),
 the Gaussian 88(TM) system (copyright 1988, Gaussian, Inc.),
 the Gaussian 86(TM) system (copyright 1986, Carnegie Mellon
 University), and the Gaussian 82(TM) system (copyright 1983,
 Carnegie Mellon University). Gaussian is a federally registered
 trademark of Gaussian, Inc.
  
 This software contains proprietary and confidential information,
 including trade secrets, belonging to Gaussian, Inc.
  
 This software is provided under written license and may be
 used, copied, transmitted, or stored only in accord with that
 written license.
  
 The following legend is applicable only to US Government
 contracts under FAR:
  
                    RESTRICTED RIGHTS LEGEND
  
 Use, reproduction and disclosure by the US Government is
 subject to restrictions as set forth in subparagraphs (a)
 and (c) of the Commercial Computer Software - Restricted
 Rights clause in FAR 52.227-19.
  
 Gaussian, Inc.
 340 Quinnipiac St., Bldg. 40, Wallingford CT 06492
  
  
 ---------------------------------------------------------------
 Warning -- This program may not be used in any manner that
 competes with the business of Gaussian, Inc. or will provide
 assistance to any competitor of Gaussian, Inc.  The licensee
 of this program is prohibited from giving any competitor of
 Gaussian, Inc. access to this program.  By using this program,
 the user acknowledges that Gaussian, Inc. is engaged in the
 business of creating and licensing software in the field of
 computational chemistry and represents and warrants to the
 licensee that it is not a competitor of Gaussian, Inc. and that
 it will not use this program in any manner prohibited above.
 ---------------------------------------------------------------
  

 Cite this work as:
 Gaussian 16, Revision B.01,
 M. J. Frisch, G. W. Trucks, H. B. Schlegel, G. E. Scuseria, 
 M. A. Robb, J. R. Cheeseman, G. Scalmani, V. Barone, 
 G. A. Petersson, H. Nakatsuji, X. Li, M. Caricato, A. V. Marenich, 
 J. Bloino, B. G. Janesko, R. Gomperts, B. Mennucci, H. P. Hratchian, 
 J. V. Ortiz, A. F. Izmaylov, J. L. Sonnenberg, D. Williams-Young, 
 F. Ding, F. Lipparini, F. Egidi, J. Goings, B. Peng, A. Petrone, 
 T. Henderson, D. Ranasinghe, V. G. Zakrzewski, J. Gao, N. Rega, 
 G. Zheng, W. Liang, M. Hada, M. Ehara, K. Toyota, R. Fukuda, 
 J. Hasegawa, M. Ishida, T. Nakajima, Y. Honda, O. Kitao, H. Nakai, 
 T. Vreven, K. Throssell, J. A. Montgomery, Jr., J. E. Peralta, 
 F. Ogliaro, M. J. Bearpark, J. J. Heyd, E. N. Brothers, K. N. Kudin, 
 V. N. Staroverov, T. A. Keith, R. Kobayashi, J. Normand, 
 K. Raghavachari, A. P. Rendell, J. C. Burant, S. S. Iyengar, 
 J. Tomasi, M. Cossi, J. M. Millam, M. Klene, C. Adamo, R. Cammi, 
 J. W. Ochterski, R. L. Martin, K. Morokuma, O. Farkas, 
 J. B. Foresman, and D. J. Fox, Gaussian, Inc., Wallingford CT, 2016.
 
 ******************************************
 Gaussian 16:  ES64L-G16RevB.01 20-Dec-2017
                13-Nov-2023 
 ******************************************
 %mem=14GB
 %chk=checkpoint.chk
 %nprocshared=16
 Will use up to   16 processors via shared memory.
 -------------------------
 #P B3LYP/6-311+g(d) force
 -------------------------
 1/10=7,30=1,38=1/1,3;
 2/12=2,17=6,18=5,40=1/2;
 3/5=4,6=6,7=11,11=2,25=1,30=1,71=1,74=-5/1,2,3;
 4//1;
 5/5=2,38=5/2;
 6/7=2,8=2,9=2,10=2,28=1/1;
 7/29=1/1,2,3,16;
 1/10=7,30=1/3;
 99//99;
 Leave Link    1 at Mon Nov 13 12:14:36 2023, MaxMem=  1879048192 cpu:               0.8 elap:               0.1
 (Enter /home/sekinelabo/g16/l101.exe)
 ------------------------------
 Gaussian input prepared by ASE
 ------------------------------
 Symbolic Z-matrix:
 Charge =  0 Multiplicity = 2
 Na                    5.65263   2.64038   1.06248 
 Na                    4.85248   0.46144   2.95963 
 Na                    10.20748   1.17441   1.13873 
 Na                    7.37876   0.20142   1.36298 
 Na                    4.71389   0.        0. 
 Na                    2.76597   1.86066   1.31933 
 Na                    0.        0.70372   1.14953 
 
 ITRead=  0  0  0  0  0  0  0
 MicOpt= -1 -1 -1 -1 -1 -1 -1
 NAtoms=      7 NQM=        7 NQMF=       0 NMMI=      0 NMMIF=      0
                NMic=       0 NMicF=      0.
                    Isotopes and Nuclear Properties:
 (Nuclear quadrupole moments (NQMom) in fm**2, nuclear magnetic moments (NMagM)
  in nuclear magnetons)

  Atom         1           2           3           4           5           6           7
 IAtWgt=          23          23          23          23          23          23          23
 AtmWgt=  22.9897697  22.9897697  22.9897697  22.9897697  22.9897697  22.9897697  22.9897697
 NucSpn=           3           3           3           3           3           3           3
 AtZEff=  -0.0000000  -0.0000000  -0.0000000  -0.0000000  -0.0000000  -0.0000000  -0.0000000
 NQMom=   10.4000000  10.4000000  10.4000000  10.4000000  10.4000000  10.4000000  10.4000000
 NMagM=    2.2175200   2.2175200   2.2175200   2.2175200   2.2175200   2.2175200   2.2175200
 AtZNuc=  11.0000000  11.0000000  11.0000000  11.0000000  11.0000000  11.0000000  11.0000000
 Leave Link  101 at Mon Nov 13 12:14:36 2023, MaxMem=  1879048192 cpu:               3.0 elap:               0.2
 (Enter /home/sekinelabo/g16/l103.exe)

 GradGradGradGradGradGradGradGradGradGradGradGradGradGradGradGradGradGrad
 Berny optimization.
 Initialization pass.
 Trust Radius=3.00D-01 FncErr=1.00D-07 GrdErr=1.00D-07 EigMax=2.50D+02 EigMin=1.00D-04
 Number of steps in this run=      2 maximum allowed number of steps=      2.
 GradGradGradGradGradGradGradGradGradGradGradGradGradGradGradGradGradGrad

 Leave Link  103 at Mon Nov 13 12:14:36 2023, MaxMem=  1879048192 cpu:               0.4 elap:               0.0
 (Enter /home/sekinelabo/g16/l202.exe)
                          Input orientation:                          
 ---------------------------------------------------------------------
 Center     Atomic      Atomic             Coordinates (Angstroms)
 Number     Number       Type             X           Y           Z
 ---------------------------------------------------------------------
      1         11           0        5.652630    2.640384    1.062476
      2         11           0        4.852477    0.461439    2.959629
      3         11           0       10.207475    1.174414    1.138726
      4         11           0        7.378761    0.201416    1.362981
      5         11           0        4.713886    0.000000    0.000000
      6         11           0        2.765972    1.860657    1.319333
      7         11           0        0.000000    0.703717    1.149531
 ---------------------------------------------------------------------
                    Distance matrix (angstroms):
                    1          2          3          4          5
     1  Na   0.000000
     2  Na   2.997871   0.000000
     3  Na   4.785551   5.700879   0.000000
     4  Na   3.003064   2.999834   2.999773   0.000000
     5  Na   2.996952   2.998589   5.731969   2.999974   0.000000
     6  Na   3.001124   3.000314   7.475260   4.902326   2.999508
     7  Na   5.975825   5.184755  10.218328   7.398917   4.902791
                    6          7
     6  Na   0.000000
     7  Na   3.002990   0.000000
 Stoichiometry    Na7(2)
 Framework group  C1[X(Na7)]
 Deg. of freedom    15
 Full point group                 C1      NOp   1
 Largest Abelian subgroup         C1      NOp   1
 Largest concise Abelian subgroup C1      NOp   1
                         Standard orientation:                         
 ---------------------------------------------------------------------
 Center     Atomic      Atomic             Coordinates (Angstroms)
 Number     Number       Type             X           Y           Z
 ---------------------------------------------------------------------
      1         11           0        0.571030    1.634380   -0.222192
      2         11           0       -0.229123   -0.544565    1.674961
      3         11           0        5.125875    0.168410   -0.145942
      4         11           0        2.297161   -0.804588    0.078313
      5         11           0       -0.367715   -1.006004   -1.284668
      6         11           0       -2.315628    0.854653    0.034665
      7         11           0       -5.081600   -0.302287   -0.135137
 ---------------------------------------------------------------------
 Rotational constants (GHZ):           2.1918217           0.3242190           0.3198544
 Leave Link  202 at Mon Nov 13 12:14:36 2023, MaxMem=  1879048192 cpu:               0.0 elap:               0.0
 (Enter /home/sekinelabo/g16/l301.exe)
 Standard basis: 6-311+G(d) (5D, 7F)
 Ernie: Thresh=  0.10000D-02 Tol=  0.10000D-05 Strict=F.
 There are   217 symmetry adapted cartesian basis functions of A   symmetry.
 There are   210 symmetry adapted basis functions of A   symmetry.
   210 basis functions,   350 primitive gaussians,   217 cartesian basis functions
    39 alpha electrons       38 beta electrons
       nuclear repulsion energy       343.2326162682 Hartrees.
 IExCor=  402 DFT=T Ex+Corr=B3LYP ExCW=0 ScaHFX=  0.200000
 ScaDFX=  0.800000  0.720000  1.000000  0.810000 ScalE2=  1.000000  1.000000
 IRadAn=      5 IRanWt=     -1 IRanGd=            0 ICorTp=0 IEmpDi=  4
 NAtoms=    7 NActive=    7 NUniq=    7 SFac= 1.00D+00 NAtFMM=   60 NAOKFM=F Big=F
 Integral buffers will be    131072 words long.
 Raffenetti 2 integral format.
 Two-electron integral symmetry is turned on.
 Leave Link  301 at Mon Nov 13 12:14:36 2023, MaxMem=  1879048192 cpu:               0.5 elap:               0.0
 (Enter /home/sekinelabo/g16/l302.exe)
 NPDir=0 NMtPBC=     1 NCelOv=     1 NCel=       1 NClECP=     1 NCelD=      1
         NCelK=      1 NCelE2=     1 NClLst=     1 CellRange=     0.0.
 One-electron integrals computed using PRISM.
 One-electron integral symmetry used in STVInt
 NBasis=   210 RedAO= T EigKep=  1.03D-06  NBF=   210
 NBsUse=   210 1.00D-06 EigRej= -1.00D+00 NBFU=   210
 Precomputing XC quadrature grid using
 IXCGrd= 4 IRadAn=           5 IRanWt=          -1 IRanGd=           0 AccXCQ= 0.00D+00.
 Generated NRdTot=       0 NPtTot=           0 NUsed=           0 NTot=          32
 NSgBfM=   205   205   205   205   205 MxSgAt=     7 MxSgA2=     7.
 Leave Link  302 at Mon Nov 13 12:14:36 2023, MaxMem=  1879048192 cpu:               3.7 elap:               0.2
 (Enter /home/sekinelabo/g16/l303.exe)
 DipDrv:  MaxL=1.
 Leave Link  303 at Mon Nov 13 12:14:37 2023, MaxMem=  1879048192 cpu:               1.0 elap:               0.1
 (Enter /home/sekinelabo/g16/l401.exe)
 ExpMin= 7.60D-03 ExpMax= 3.62D+04 ExpMxC= 1.21D+03 IAcc=3 IRadAn=         5 AccDes= 0.00D+00
 Harris functional with IExCor=  402 and IRadAn=       5 diagonalized for initial guess.
 HarFok:  IExCor=  402 AccDes= 0.00D+00 IRadAn=         5 IDoV= 1 UseB2=F ITyADJ=14
 ICtDFT=  3500011 ScaDFX=  1.000000  1.000000  1.000000  1.000000
 FoFCou: FMM=F IPFlag=           0 FMFlag=      100000 FMFlg1=           0
         NFxFlg=           0 DoJE=T BraDBF=F KetDBF=T FulRan=T
         wScrn=  0.000000 ICntrl=       500 IOpCl=  0 I1Cent=   200000004 NGrid=           0
         NMat0=    1 NMatS0=      1 NMatT0=    0 NMatD0=    1 NMtDS0=    0 NMtDT0=    0
 Petite list used in FoFCou.
 Harris En= -1135.85028234174    
 JPrj=0 DoOrth=F DoCkMO=F.
 Initial guess <Sx>= 0.0000 <Sy>= 0.0000 <Sz>= 0.5000 <S**2>= 0.7500 S= 0.5000
 Leave Link  401 at Mon Nov 13 12:14:37 2023, MaxMem=  1879048192 cpu:               8.5 elap:               0.6
 (Enter /home/sekinelabo/g16/l502.exe)
 Keep R1 and R2 ints in memory in canonical form, NReq=507620360.
 FoFCou: FMM=F IPFlag=           0 FMFlag=           0 FMFlg1=           0
         NFxFlg=           0 DoJE=F BraDBF=F KetDBF=F FulRan=T
         wScrn=  0.000000 ICntrl=       600 IOpCl=  0 I1Cent=           0 NGrid=           0
         NMat0=    1 NMatS0=  22155 NMatT0=    0 NMatD0=    1 NMtDS0=    0 NMtDT0=    0
 Symmetry not used in FoFCou.
 Two-electron integral symmetry not used.
 UHF open shell SCF:
 Using DIIS extrapolation, IDIIS=  1040.
 NGot=  1879048192 LenX=  1388082376 LenY=  1388034846
 Requested convergence on RMS density matrix=1.00D-08 within 128 cycles.
 Requested convergence on MAX density matrix=1.00D-06.
 Requested convergence on             energy=1.00D-06.
 No special actions if energy rises.

 Cycle   1  Pass 1  IDiag  1:
 E= -1136.04963779515    
 DIIS: error= 1.35D-02 at cycle   1 NSaved=   1.
 NSaved= 1 IEnMin= 1 EnMin= -1136.04963779515     IErMin= 1 ErrMin= 1.35D-02
 ErrMax= 1.35D-02  0.00D+00 EMaxC= 1.00D-01 BMatC= 1.88D-01 BMatP= 1.88D-01
 IDIUse=3 WtCom= 8.65D-01 WtEn= 1.35D-01
 Coeff-Com:  0.100D+01
 Coeff-En:   0.100D+01
 Coeff:      0.100D+01
 Gap=     0.031 Goal=   None    Shift=    0.000
 Gap=     0.032 Goal=   None    Shift=    0.000
 GapD=    0.031 DampG=0.250 DampE=0.500 DampFc=0.2500 IDamp=-1.
 Damping current iteration by 2.50D-01
 RMSDP=6.01D-02 MaxDP=6.00D+00              OVMax= 1.36D-01

 Cycle   2  Pass 1  IDiag  1:
 E= -1136.05852951397     Delta-E=       -0.008891718814 Rises=F Damp=T
 DIIS: error= 9.34D-03 at cycle   2 NSaved=   2.
 NSaved= 2 IEnMin= 2 EnMin= -1136.05852951397     IErMin= 2 ErrMin= 9.34D-03
 ErrMax= 9.34D-03  0.00D+00 EMaxC= 1.00D-01 BMatC= 7.40D-02 BMatP= 1.88D-01
 IDIUse=3 WtCom= 9.07D-01 WtEn= 9.34D-02
 Coeff-Com: -0.135D+01 0.235D+01
 Coeff-En:   0.000D+00 0.100D+01
 Coeff:     -0.122D+01 0.222D+01
 Gap=     0.016 Goal=   None    Shift=    0.000
 Gap=     0.018 Goal=   None    Shift=    0.000
 RMSDP=3.54D-02 MaxDP=3.90D+00 DE=-8.89D-03 OVMax= 1.07D-01

 Cycle   3  Pass 1  IDiag  1:
 E= -1136.07680989643     Delta-E=       -0.018280382464 Rises=F Damp=F
 DIIS: error= 1.91D-03 at cycle   3 NSaved=   3.
 NSaved= 3 IEnMin= 3 EnMin= -1136.07680989643     IErMin= 3 ErrMin= 1.91D-03
 ErrMax= 1.91D-03  0.00D+00 EMaxC= 1.00D-01 BMatC= 8.32D-04 BMatP= 7.40D-02
 IDIUse=3 WtCom= 9.81D-01 WtEn= 1.91D-02
 Coeff-Com: -0.499D-01 0.981D-01 0.952D+00
 Coeff-En:   0.000D+00 0.000D+00 0.100D+01
 Coeff:     -0.490D-01 0.962D-01 0.953D+00
 Gap=     0.028 Goal=   None    Shift=    0.000
 Gap=     0.030 Goal=   None    Shift=    0.000
 RMSDP=6.28D-03 MaxDP=3.87D-01 DE=-1.83D-02 OVMax= 7.88D-02

 Cycle   4  Pass 1  IDiag  1:
 E= -1136.07614670535     Delta-E=        0.000663191080 Rises=F Damp=F
 DIIS: error= 2.37D-03 at cycle   4 NSaved=   4.
 NSaved= 4 IEnMin= 3 EnMin= -1136.07680989643     IErMin= 3 ErrMin= 1.91D-03
 ErrMax= 2.37D-03  0.00D+00 EMaxC= 1.00D-01 BMatC= 1.67D-03 BMatP= 8.32D-04
 IDIUse=3 WtCom= 1.70D-01 WtEn= 8.30D-01
 Coeff-Com:  0.698D-02-0.741D-02 0.590D+00 0.411D+00
 Coeff-En:   0.000D+00 0.000D+00 0.623D+00 0.377D+00
 Coeff:      0.119D-02-0.126D-02 0.617D+00 0.383D+00
 Gap=     0.024 Goal=   None    Shift=    0.000
 Gap=     0.025 Goal=   None    Shift=    0.000
 RMSDP=3.62D-03 MaxDP=2.11D-01 DE= 6.63D-04 OVMax= 4.33D-02

 Cycle   5  Pass 1  IDiag  1:
 E= -1136.07771751669     Delta-E=       -0.001570811336 Rises=F Damp=F
 DIIS: error= 1.95D-04 at cycle   5 NSaved=   5.
 NSaved= 5 IEnMin= 5 EnMin= -1136.07771751669     IErMin= 5 ErrMin= 1.95D-04
 ErrMax= 1.95D-04  0.00D+00 EMaxC= 1.00D-01 BMatC= 1.35D-05 BMatP= 8.32D-04
 IDIUse=3 WtCom= 9.98D-01 WtEn= 1.95D-03
 Coeff-Com: -0.260D-02 0.278D-02 0.779D-01-0.106D-01 0.933D+00
 Coeff-En:   0.000D+00 0.000D+00 0.000D+00 0.000D+00 0.100D+01
 Coeff:     -0.259D-02 0.277D-02 0.777D-01-0.106D-01 0.933D+00
 Gap=     0.023 Goal=   None    Shift=    0.000
 Gap=     0.025 Goal=   None    Shift=    0.000
 RMSDP=6.70D-04 MaxDP=4.69D-02 DE=-1.57D-03 OVMax= 2.74D-02

 Cycle   6  Pass 1  IDiag  1:
 E= -1136.07776693058     Delta-E=       -0.000049413893 Rises=F Damp=F
 DIIS: error= 1.71D-04 at cycle   6 NSaved=   6.
 NSaved= 6 IEnMin= 6 EnMin= -1136.07776693058     IErMin= 6 ErrMin= 1.71D-04
 ErrMax= 1.71D-04  0.00D+00 EMaxC= 1.00D-01 BMatC= 4.43D-06 BMatP= 1.35D-05
 IDIUse=3 WtCom= 9.98D-01 WtEn= 1.71D-03
 Coeff-Com: -0.362D-02 0.447D-02-0.299D-01-0.398D-01 0.415D+00 0.653D+00
 Coeff-En:   0.000D+00 0.000D+00 0.000D+00 0.000D+00 0.000D+00 0.100D+01
 Coeff:     -0.361D-02 0.446D-02-0.298D-01-0.397D-01 0.415D+00 0.654D+00
 Gap=     0.023 Goal=   None    Shift=    0.000
 Gap=     0.025 Goal=   None    Shift=    0.000
 RMSDP=4.66D-04 MaxDP=2.85D-02 DE=-4.94D-05 OVMax= 1.98D-02

 Cycle   7  Pass 1  IDiag  1:
 E= -1136.07780059049     Delta-E=       -0.000033659906 Rises=F Damp=F
 DIIS: error= 1.74D-04 at cycle   7 NSaved=   7.
 NSaved= 7 IEnMin= 7 EnMin= -1136.07780059049     IErMin= 6 ErrMin= 1.71D-04
 ErrMax= 1.74D-04  0.00D+00 EMaxC= 1.00D-01 BMatC= 3.64D-06 BMatP= 4.43D-06
 IDIUse=3 WtCom= 9.98D-01 WtEn= 1.71D-03
 Coeff-Com: -0.310D-02 0.412D-02-0.545D-01-0.288D-01 0.108D+00 0.454D+00
 Coeff-Com:  0.521D+00
 Coeff-En:   0.000D+00 0.000D+00 0.000D+00 0.000D+00 0.000D+00 0.000D+00
 Coeff-En:   0.100D+01
 Coeff:     -0.309D-02 0.411D-02-0.544D-01-0.288D-01 0.108D+00 0.453D+00
 Coeff:      0.521D+00
 Gap=     0.023 Goal=   None    Shift=    0.000
 Gap=     0.025 Goal=   None    Shift=    0.000
 RMSDP=4.01D-04 MaxDP=2.41D-02 DE=-3.37D-05 OVMax= 1.88D-02

 Cycle   8  Pass 1  IDiag  1:
 E= -1136.07783585181     Delta-E=       -0.000035261327 Rises=F Damp=F
 DIIS: error= 1.81D-04 at cycle   8 NSaved=   8.
 NSaved= 8 IEnMin= 8 EnMin= -1136.07783585181     IErMin= 6 ErrMin= 1.71D-04
 ErrMax= 1.81D-04  0.00D+00 EMaxC= 1.00D-01 BMatC= 3.07D-06 BMatP= 3.64D-06
 IDIUse=3 WtCom= 9.98D-01 WtEn= 1.71D-03
 Coeff-Com: -0.369D-02 0.488D-02-0.679D-01-0.363D-01 0.883D-01 0.626D+00
 Coeff-Com:  0.778D+00-0.390D+00
 Coeff-En:   0.000D+00 0.000D+00 0.000D+00 0.000D+00 0.000D+00 0.000D+00
 Coeff-En:   0.000D+00 0.100D+01
 Coeff:     -0.368D-02 0.487D-02-0.677D-01-0.363D-01 0.882D-01 0.625D+00
 Coeff:      0.777D+00-0.388D+00
 Gap=     0.023 Goal=   None    Shift=    0.000
 Gap=     0.025 Goal=   None    Shift=    0.000
 RMSDP=1.78D-04 MaxDP=1.01D-02 DE=-3.53D-05 OVMax= 8.67D-03

 Cycle   9  Pass 1  IDiag  1:
 E= -1136.07781823188     Delta-E=        0.000017619937 Rises=F Damp=F
 DIIS: error= 1.74D-04 at cycle   9 NSaved=   9.
 NSaved= 9 IEnMin= 8 EnMin= -1136.07783585181     IErMin= 6 ErrMin= 1.71D-04
 ErrMax= 1.74D-04  0.00D+00 EMaxC= 1.00D-01 BMatC= 3.03D-06 BMatP= 3.07D-06
 IDIUse=3 WtCom= 9.98D-01 WtEn= 1.71D-03
 Rare condition: small coef for last iteration:  0.000D+00
 Coeff-Com: -0.347D-02 0.467D-02-0.898D-01-0.350D-01-0.445D-01 0.657D+00
 Coeff-Com:  0.116D+01-0.387D+01 0.321D+01
 Coeff-En:   0.000D+00 0.000D+00 0.000D+00 0.000D+00 0.000D+00 0.000D+00
 Coeff-En:   0.000D+00 0.000D+00 0.100D+01
 Coeff:     -0.347D-02 0.467D-02-0.898D-01-0.350D-01-0.445D-01 0.657D+00
 Coeff:      0.116D+01-0.387D+01 0.321D+01
 Gap=     0.023 Goal=   None    Shift=    0.000
 Gap=     0.025 Goal=   None    Shift=    0.000
 RMSDP=6.10D-04 MaxDP=3.36D-02 DE= 1.76D-05 OVMax= 2.97D-02

 Cycle  10  Pass 1  IDiag  1:
 E= -1136.07776373554     Delta-E=        0.000054496340 Rises=F Damp=F
 DIIS: error= 1.45D-04 at cycle  10 NSaved=  10.
 NSaved=10 IEnMin= 8 EnMin= -1136.07783585181     IErMin=10 ErrMin= 1.45D-04
 ErrMax= 1.45D-04  0.00D+00 EMaxC= 1.00D-01 BMatC= 2.45D-06 BMatP= 3.03D-06
 IDIUse=3 WtCom= 9.99D-01 WtEn= 1.45D-03
 Rare condition: small coef for last iteration:  0.000D+00
 Coeff-Com: -0.918D-03 0.154D-02-0.465D-01-0.365D-02 0.300D-01-0.140D+00
 Coeff-Com:  0.134D+00-0.432D+01 0.335D+01 0.199D+01
 Coeff-En:   0.000D+00 0.000D+00 0.000D+00 0.000D+00 0.000D+00 0.000D+00
 Coeff-En:   0.000D+00 0.000D+00 0.000D+00 0.100D+01
 Coeff:     -0.918D-03 0.154D-02-0.465D-01-0.365D-02 0.300D-01-0.140D+00
 Coeff:      0.134D+00-0.432D+01 0.335D+01 0.199D+01
 Gap=     0.023 Goal=   None    Shift=    0.000
 Gap=     0.024 Goal=   None    Shift=    0.000
 RMSDP=1.02D-03 MaxDP=4.19D-02 DE= 5.45D-05 OVMax= 4.84D-02

 Cycle  11  Pass 1  IDiag  1:
 E= -1136.07770746623     Delta-E=        0.000056269311 Rises=F Damp=F
 DIIS: error= 9.28D-05 at cycle  11 NSaved=  11.
 NSaved=11 IEnMin= 8 EnMin= -1136.07783585181     IErMin=11 ErrMin= 9.28D-05
 ErrMax= 9.28D-05  0.00D+00 EMaxC= 1.00D-01 BMatC= 2.12D-06 BMatP= 2.45D-06
 IDIUse=1 WtCom= 1.00D+00 WtEn= 0.00D+00
 Coeff-Com: -0.278D-02 0.402D-02-0.225D-01-0.135D-01 0.258D+00-0.171D+00
 Coeff-Com: -0.475D+00 0.187D+01-0.212D+01 0.590D+00 0.109D+01
 Coeff:     -0.278D-02 0.402D-02-0.225D-01-0.135D-01 0.258D+00-0.171D+00
 Coeff:     -0.475D+00 0.187D+01-0.212D+01 0.590D+00 0.109D+01
 Gap=     0.024 Goal=   None    Shift=    0.000
 Gap=     0.025 Goal=   None    Shift=    0.000
 RMSDP=3.47D-04 MaxDP=2.88D-02 DE= 5.63D-05 OVMax= 9.84D-03

 Cycle  12  Pass 1  IDiag  1:
 E= -1136.07771042908     Delta-E=       -0.000002962859 Rises=F Damp=F
 DIIS: error= 5.81D-05 at cycle  12 NSaved=  12.
 NSaved=12 IEnMin= 8 EnMin= -1136.07783585181     IErMin=12 ErrMin= 5.81D-05
 ErrMax= 5.81D-05  0.00D+00 EMaxC= 1.00D-01 BMatC= 3.94D-07 BMatP= 2.12D-06
 IDIUse=1 WtCom= 1.00D+00 WtEn= 0.00D+00
 Coeff-Com: -0.716D-03 0.106D-02 0.101D-01-0.107D-01 0.221D+00-0.209D+00
 Coeff-Com: -0.632D+00 0.342D+01-0.317D+01-0.264D+00 0.634D+00 0.993D+00
 Coeff:     -0.716D-03 0.106D-02 0.101D-01-0.107D-01 0.221D+00-0.209D+00
 Coeff:     -0.632D+00 0.342D+01-0.317D+01-0.264D+00 0.634D+00 0.993D+00
 Gap=     0.024 Goal=   None    Shift=    0.000
 Gap=     0.025 Goal=   None    Shift=    0.000
 RMSDP=4.39D-04 MaxDP=2.58D-02 DE=-2.96D-06 OVMax= 1.90D-02

 Cycle  13  Pass 1  IDiag  1:
 E= -1136.07770957618     Delta-E=        0.000000852902 Rises=F Damp=F
 DIIS: error= 2.68D-05 at cycle  13 NSaved=  13.
 NSaved=13 IEnMin= 8 EnMin= -1136.07783585181     IErMin=13 ErrMin= 2.68D-05
 ErrMax= 2.68D-05  0.00D+00 EMaxC= 1.00D-01 BMatC= 1.23D-07 BMatP= 3.94D-07
 IDIUse=1 WtCom= 1.00D+00 WtEn= 0.00D+00
 Coeff-Com:  0.423D-03-0.578D-03 0.153D-01 0.432D-02 0.213D-01-0.930D-01
 Coeff-Com: -0.184D+00 0.963D+00-0.816D+00-0.128D+00 0.881D-01 0.181D+00
 Coeff-Com:  0.949D+00
 Coeff:      0.423D-03-0.578D-03 0.153D-01 0.432D-02 0.213D-01-0.930D-01
 Coeff:     -0.184D+00 0.963D+00-0.816D+00-0.128D+00 0.881D-01 0.181D+00
 Coeff:      0.949D+00
 Gap=     0.024 Goal=   None    Shift=    0.000
 Gap=     0.025 Goal=   None    Shift=    0.000
 RMSDP=1.87D-04 MaxDP=1.18D-02 DE= 8.53D-07 OVMax= 6.38D-03

 Cycle  14  Pass 1  IDiag  1:
 E= -1136.07771073153     Delta-E=       -0.000001155351 Rises=F Damp=F
 DIIS: error= 2.48D-05 at cycle  14 NSaved=  14.
 NSaved=14 IEnMin= 8 EnMin= -1136.07783585181     IErMin=14 ErrMin= 2.48D-05
 ErrMax= 2.48D-05  0.00D+00 EMaxC= 1.00D-01 BMatC= 7.84D-08 BMatP= 1.23D-07
 IDIUse=1 WtCom= 1.00D+00 WtEn= 0.00D+00
 Coeff-Com: -0.313D-03 0.387D-03 0.252D-02 0.591D-03-0.229D-02 0.340D-01
 Coeff-Com:  0.560D-01 0.220D+00-0.234D+00-0.125D+00 0.230D-01-0.133D+00
 Coeff-Com:  0.241D-02 0.116D+01
 Coeff:     -0.313D-03 0.387D-03 0.252D-02 0.591D-03-0.229D-02 0.340D-01
 Coeff:      0.560D-01 0.220D+00-0.234D+00-0.125D+00 0.230D-01-0.133D+00
 Coeff:      0.241D-02 0.116D+01
 Gap=     0.024 Goal=   None    Shift=    0.000
 Gap=     0.025 Goal=   None    Shift=    0.000
 RMSDP=1.57D-04 MaxDP=8.78D-03 DE=-1.16D-06 OVMax= 5.59D-03

 Cycle  15  Pass 1  IDiag  1:
 E= -1136.07771196416     Delta-E=       -0.000001232623 Rises=F Damp=F
 DIIS: error= 2.20D-05 at cycle  15 NSaved=  15.
 NSaved=15 IEnMin= 8 EnMin= -1136.07783585181     IErMin=15 ErrMin= 2.20D-05
 ErrMax= 2.20D-05  0.00D+00 EMaxC= 1.00D-01 BMatC= 6.25D-08 BMatP= 7.84D-08
 IDIUse=1 WtCom= 1.00D+00 WtEn= 0.00D+00
 Coeff-Com: -0.440D-03 0.572D-03-0.911D-02-0.258D-02-0.212D-01 0.867D-01
 Coeff-Com:  0.200D+00-0.571D+00 0.435D+00 0.446D-02-0.304D-01-0.252D+00
 Coeff-Com: -0.696D+00 0.659D+00 0.120D+01
 Coeff:     -0.440D-03 0.572D-03-0.911D-02-0.258D-02-0.212D-01 0.867D-01
 Coeff:      0.200D+00-0.571D+00 0.435D+00 0.446D-02-0.304D-01-0.252D+00
 Coeff:     -0.696D+00 0.659D+00 0.120D+01
 Gap=     0.024 Goal=   None    Shift=    0.000
 Gap=     0.025 Goal=   None    Shift=    0.000
 RMSDP=2.00D-04 MaxDP=1.15D-02 DE=-1.23D-06 OVMax= 8.12D-03

 Cycle  16  Pass 1  IDiag  1:
 E= -1136.07771355776     Delta-E=       -0.000001593602 Rises=F Damp=F
 DIIS: error= 1.71D-05 at cycle  16 NSaved=  16.
 NSaved=16 IEnMin= 8 EnMin= -1136.07783585181     IErMin=16 ErrMin= 1.71D-05
 ErrMax= 1.71D-05  0.00D+00 EMaxC= 1.00D-01 BMatC= 3.53D-08 BMatP= 6.25D-08
 IDIUse=1 WtCom= 1.00D+00 WtEn= 0.00D+00
 Coeff-Com:  0.740D-03-0.978D-03 0.291D-02 0.254D-02-0.189D-01-0.451D-01
 Coeff-Com:  0.718D-02-0.234D+00 0.298D+00-0.552D-02-0.240D-01 0.119D+00
 Coeff-Com:  0.356D+00-0.120D+01-0.401D+00 0.214D+01
 Coeff:      0.740D-03-0.978D-03 0.291D-02 0.254D-02-0.189D-01-0.451D-01
 Coeff:      0.718D-02-0.234D+00 0.298D+00-0.552D-02-0.240D-01 0.119D+00
 Coeff:      0.356D+00-0.120D+01-0.401D+00 0.214D+01
 Gap=     0.024 Goal=   None    Shift=    0.000
 Gap=     0.025 Goal=   None    Shift=    0.000
 RMSDP=2.77D-04 MaxDP=1.28D-02 DE=-1.59D-06 OVMax= 1.17D-02

 Cycle  17  Pass 1  IDiag  1:
 E= -1136.07771524475     Delta-E=       -0.000001686989 Rises=F Damp=F
 DIIS: error= 9.41D-06 at cycle  17 NSaved=  17.
 NSaved=17 IEnMin= 8 EnMin= -1136.07783585181     IErMin=17 ErrMin= 9.41D-06
 ErrMax= 9.41D-06  0.00D+00 EMaxC= 1.00D-01 BMatC= 1.54D-08 BMatP= 3.53D-08
 IDIUse=1 WtCom= 1.00D+00 WtEn= 0.00D+00
 Coeff-Com: -0.309D-03 0.391D-03 0.178D-02 0.217D-02-0.260D-01 0.227D-01
 Coeff-Com:  0.751D-01-0.277D+00 0.272D+00-0.446D-01-0.306D-01-0.139D+00
 Coeff-Com:  0.282D+00 0.556D+00-0.486D+00-0.145D+01 0.225D+01
 Coeff:     -0.309D-03 0.391D-03 0.178D-02 0.217D-02-0.260D-01 0.227D-01
 Coeff:      0.751D-01-0.277D+00 0.272D+00-0.446D-01-0.306D-01-0.139D+00
 Coeff:      0.282D+00 0.556D+00-0.486D+00-0.145D+01 0.225D+01
 Gap=     0.024 Goal=   None    Shift=    0.000
 Gap=     0.025 Goal=   None    Shift=    0.000
 RMSDP=2.24D-04 MaxDP=1.08D-02 DE=-1.69D-06 OVMax= 9.61D-03

 Cycle  18  Pass 1  IDiag  1:
 E= -1136.07771596309     Delta-E=       -0.000000718338 Rises=F Damp=F
 DIIS: error= 2.84D-06 at cycle  18 NSaved=  18.
 NSaved=18 IEnMin= 8 EnMin= -1136.07783585181     IErMin=18 ErrMin= 2.84D-06
 ErrMax= 2.84D-06  0.00D+00 EMaxC= 1.00D-01 BMatC= 3.22D-09 BMatP= 1.54D-08
 IDIUse=1 WtCom= 1.00D+00 WtEn= 0.00D+00
 Coeff-Com: -0.338D-03 0.436D-03 0.850D-04-0.939D-03 0.617D-02 0.269D-01
 Coeff-Com:  0.138D-01 0.239D+00-0.238D+00-0.855D-01 0.305D-01-0.428D-01
 Coeff-Com: -0.287D-01 0.456D+00-0.222D-01-0.948D+00 0.593D+00 0.100D+01
 Coeff:     -0.338D-03 0.436D-03 0.850D-04-0.939D-03 0.617D-02 0.269D-01
 Coeff:      0.138D-01 0.239D+00-0.238D+00-0.855D-01 0.305D-01-0.428D-01
 Coeff:     -0.287D-01 0.456D+00-0.222D-01-0.948D+00 0.593D+00 0.100D+01
 Gap=     0.024 Goal=   None    Shift=    0.000
 Gap=     0.025 Goal=   None    Shift=    0.000
 RMSDP=7.47D-05 MaxDP=3.66D-03 DE=-7.18D-07 OVMax= 3.05D-03

 Cycle  19  Pass 1  IDiag  1:
 E= -1136.07771604010     Delta-E=       -0.000000077018 Rises=F Damp=F
 DIIS: error= 4.02D-06 at cycle  19 NSaved=  19.
 NSaved=19 IEnMin= 8 EnMin= -1136.07783585181     IErMin=18 ErrMin= 2.84D-06
 ErrMax= 4.02D-06  0.00D+00 EMaxC= 1.00D-01 BMatC= 3.26D-09 BMatP= 3.22D-09
 IDIUse=1 WtCom= 1.00D+00 WtEn= 0.00D+00
 Coeff-Com:  0.165D-03-0.216D-03-0.499D-04 0.717D-04 0.273D-03-0.871D-02
 Coeff-Com: -0.762D-02-0.369D-01 0.241D-01 0.395D-01 0.247D-01-0.182D-01
 Coeff-Com: -0.115D+00-0.638D-01 0.961D-01 0.395D+00-0.631D+00 0.135D+00
 Coeff-Com:  0.117D+01
 Coeff:      0.165D-03-0.216D-03-0.499D-04 0.717D-04 0.273D-03-0.871D-02
 Coeff:     -0.762D-02-0.369D-01 0.241D-01 0.395D-01 0.247D-01-0.182D-01
 Coeff:     -0.115D+00-0.638D-01 0.961D-01 0.395D+00-0.631D+00 0.135D+00
 Coeff:      0.117D+01
 Gap=     0.024 Goal=   None    Shift=    0.000
 Gap=     0.025 Goal=   None    Shift=    0.000
 RMSDP=2.89D-05 MaxDP=1.57D-03 DE=-7.70D-08 OVMax= 1.15D-03

 Cycle  20  Pass 1  IDiag  1:
 E= -1136.07771605552     Delta-E=       -0.000000015418 Rises=F Damp=F
 DIIS: error= 1.35D-06 at cycle  20 NSaved=  20.
 NSaved=20 IEnMin= 8 EnMin= -1136.07783585181     IErMin=20 ErrMin= 1.35D-06
 ErrMax= 1.35D-06  0.00D+00 EMaxC= 1.00D-01 BMatC= 5.10D-10 BMatP= 3.22D-09
 IDIUse=1 WtCom= 1.00D+00 WtEn= 0.00D+00
 Coeff-Com:  0.435D-04-0.557D-04 0.975D-04 0.155D-03 0.877D-03-0.739D-02
 Coeff-Com: -0.463D-02-0.150D-01 0.224D-01 0.255D-02-0.103D-01 0.260D-01
 Coeff-Com:  0.400D-01-0.126D+00-0.241D-02 0.206D+00-0.122D+00-0.210D+00
 Coeff-Com:  0.682D-02 0.119D+01
 Coeff:      0.435D-04-0.557D-04 0.975D-04 0.155D-03 0.877D-03-0.739D-02
 Coeff:     -0.463D-02-0.150D-01 0.224D-01 0.255D-02-0.103D-01 0.260D-01
 Coeff:      0.400D-01-0.126D+00-0.241D-02 0.206D+00-0.122D+00-0.210D+00
 Coeff:      0.682D-02 0.119D+01
 Gap=     0.024 Goal=   None    Shift=    0.000
 Gap=     0.025 Goal=   None    Shift=    0.000
 RMSDP=7.20D-06 MaxDP=4.07D-04 DE=-1.54D-08 OVMax= 1.84D-04

 Cycle  21  Pass 1  IDiag  1:
 E= -1136.07771605844     Delta-E=       -0.000000002918 Rises=F Damp=F
 DIIS: error= 7.99D-07 at cycle  21 NSaved=  20.
 NSaved=20 IEnMin= 7 EnMin= -1136.07783585181     IErMin=20 ErrMin= 7.99D-07
 ErrMax= 7.99D-07  0.00D+00 EMaxC= 1.00D-01 BMatC= 1.01D-10 BMatP= 5.10D-10
 IDIUse=1 WtCom= 1.00D+00 WtEn= 0.00D+00
 Coeff-Com: -0.229D-05 0.297D-03 0.697D-05 0.187D-02-0.346D-02-0.658D-02
 Coeff-Com:  0.401D-01-0.307D-01-0.943D-02-0.568D-02 0.233D-01 0.391D-01
 Coeff-Com: -0.406D-01-0.423D-01 0.823D-02 0.769D-01-0.650D-01-0.274D+00
 Coeff-Com:  0.525D-01 0.124D+01
 Coeff:     -0.229D-05 0.297D-03 0.697D-05 0.187D-02-0.346D-02-0.658D-02
 Coeff:      0.401D-01-0.307D-01-0.943D-02-0.568D-02 0.233D-01 0.391D-01
 Coeff:     -0.406D-01-0.423D-01 0.823D-02 0.769D-01-0.650D-01-0.274D+00
 Coeff:      0.525D-01 0.124D+01
 Gap=     0.024 Goal=   None    Shift=    0.000
 Gap=     0.025 Goal=   None    Shift=    0.000
 RMSDP=5.58D-06 MaxDP=3.23D-04 DE=-2.92D-09 OVMax= 2.05D-04

 Cycle  22  Pass 1  IDiag  1:
 E= -1136.07771606016     Delta-E=       -0.000000001718 Rises=F Damp=F
 DIIS: error= 6.05D-07 at cycle  22 NSaved=  20.
 NSaved=20 IEnMin= 6 EnMin= -1136.07783585181     IErMin=20 ErrMin= 6.05D-07
 ErrMax= 6.05D-07  0.00D+00 EMaxC= 1.00D-01 BMatC= 8.90D-11 BMatP= 1.01D-10
 IDIUse=1 WtCom= 1.00D+00 WtEn= 0.00D+00
 Coeff-Com:  0.128D-03-0.423D-04 0.127D-03 0.735D-03-0.160D-02 0.112D-01
 Coeff-Com: -0.148D-01 0.547D-02 0.794D-02-0.117D-01-0.276D-01 0.570D-01
 Coeff-Com: -0.576D-02-0.783D-01 0.377D-01 0.126D+00-0.385D-01-0.686D+00
 Coeff-Com:  0.332D+00 0.129D+01
 Coeff:      0.128D-03-0.423D-04 0.127D-03 0.735D-03-0.160D-02 0.112D-01
 Coeff:     -0.148D-01 0.547D-02 0.794D-02-0.117D-01-0.276D-01 0.570D-01
 Coeff:     -0.576D-02-0.783D-01 0.377D-01 0.126D+00-0.385D-01-0.686D+00
 Coeff:      0.332D+00 0.129D+01
 Gap=     0.024 Goal=   None    Shift=    0.000
 Gap=     0.025 Goal=   None    Shift=    0.000
 RMSDP=5.62D-06 MaxDP=3.58D-04 DE=-1.72D-09 OVMax= 2.04D-04

 Cycle  23  Pass 1  IDiag  1:
 E= -1136.07771606105     Delta-E=       -0.000000000896 Rises=F Damp=F
 DIIS: error= 2.69D-07 at cycle  23 NSaved=  20.
 NSaved=20 IEnMin= 5 EnMin= -1136.07783585181     IErMin=20 ErrMin= 2.69D-07
 ErrMax= 2.69D-07  0.00D+00 EMaxC= 1.00D-01 BMatC= 1.55D-11 BMatP= 8.90D-11
 IDIUse=1 WtCom= 1.00D+00 WtEn= 0.00D+00
 Coeff-Com: -0.715D-04-0.479D-03 0.154D-02 0.286D-02-0.760D-02 0.553D-02
 Coeff-Com: -0.533D-03-0.516D-03-0.508D-02-0.511D-02 0.312D-02 0.190D-01
 Coeff-Com:  0.901D-02-0.257D-01 0.439D-02 0.103D+00 0.820D-01-0.439D+00
 Coeff-Com: -0.348D+00 0.160D+01
 Coeff:     -0.715D-04-0.479D-03 0.154D-02 0.286D-02-0.760D-02 0.553D-02
 Coeff:     -0.533D-03-0.516D-03-0.508D-02-0.511D-02 0.312D-02 0.190D-01
 Coeff:      0.901D-02-0.257D-01 0.439D-02 0.103D+00 0.820D-01-0.439D+00
 Coeff:     -0.348D+00 0.160D+01
 Gap=     0.024 Goal=   None    Shift=    0.000
 Gap=     0.025 Goal=   None    Shift=    0.000
 RMSDP=4.08D-06 MaxDP=2.06D-04 DE=-8.96D-10 OVMax= 1.41D-04

 Cycle  24  Pass 1  IDiag  1:
 E= -1136.07771606138     Delta-E=       -0.000000000327 Rises=F Damp=F
 DIIS: error= 1.19D-07 at cycle  24 NSaved=  20.
 NSaved=20 IEnMin= 4 EnMin= -1136.07783585181     IErMin=20 ErrMin= 1.19D-07
 ErrMax= 1.19D-07  0.00D+00 EMaxC= 1.00D-01 BMatC= 3.78D-12 BMatP= 1.55D-11
 IDIUse=1 WtCom= 1.00D+00 WtEn= 0.00D+00
 Coeff-Com:  0.381D-03-0.454D-03-0.767D-03 0.272D-02-0.203D-02-0.964D-03
 Coeff-Com: -0.647D-04 0.308D-02 0.492D-02-0.819D-02-0.443D-02 0.139D-01
 Coeff-Com: -0.955D-02-0.199D-01 0.170D-01 0.974D-01-0.849D-01-0.174D+00
 Coeff-Com: -0.128D+00 0.129D+01
 Coeff:      0.381D-03-0.454D-03-0.767D-03 0.272D-02-0.203D-02-0.964D-03
 Coeff:     -0.647D-04 0.308D-02 0.492D-02-0.819D-02-0.443D-02 0.139D-01
 Coeff:     -0.955D-02-0.199D-01 0.170D-01 0.974D-01-0.849D-01-0.174D+00
 Coeff:     -0.128D+00 0.129D+01
 Gap=     0.024 Goal=   None    Shift=    0.000
 Gap=     0.025 Goal=   None    Shift=    0.000
 RMSDP=1.45D-06 MaxDP=7.47D-05 DE=-3.27D-10 OVMax= 3.42D-05

 Cycle  25  Pass 1  IDiag  1:
 E= -1136.07771606144     Delta-E=       -0.000000000057 Rises=F Damp=F
 DIIS: error= 4.82D-08 at cycle  25 NSaved=  20.
 NSaved=20 IEnMin= 4 EnMin= -1136.07783585181     IErMin=20 ErrMin= 4.82D-08
 ErrMax= 4.82D-08  0.00D+00 EMaxC= 1.00D-01 BMatC= 7.73D-13 BMatP= 3.78D-12
 IDIUse=1 WtCom= 1.00D+00 WtEn= 0.00D+00
 Coeff-Com: -0.520D-04-0.156D-03-0.266D-03-0.906D-03 0.910D-03 0.702D-03
 Coeff-Com:  0.749D-04-0.687D-03-0.850D-03-0.567D-03-0.206D-02 0.384D-02
 Coeff-Com:  0.720D-03-0.117D-01-0.189D-01 0.633D-01 0.542D-01-0.223D+00
 Coeff-Com: -0.189D+00 0.132D+01
 Coeff:     -0.520D-04-0.156D-03-0.266D-03-0.906D-03 0.910D-03 0.702D-03
 Coeff:      0.749D-04-0.687D-03-0.850D-03-0.567D-03-0.206D-02 0.384D-02
 Coeff:      0.720D-03-0.117D-01-0.189D-01 0.633D-01 0.542D-01-0.223D+00
 Coeff:     -0.189D+00 0.132D+01
 Gap=     0.024 Goal=   None    Shift=    0.000
 Gap=     0.025 Goal=   None    Shift=    0.000
 RMSDP=9.37D-07 MaxDP=6.58D-05 DE=-5.68D-11 OVMax= 3.20D-05

 Cycle  26  Pass 1  IDiag  1:
 E= -1136.07771606144     Delta-E=       -0.000000000003 Rises=F Damp=F
 DIIS: error= 2.78D-08 at cycle  26 NSaved=  20.
 NSaved=20 IEnMin= 4 EnMin= -1136.07783585181     IErMin=20 ErrMin= 2.78D-08
 ErrMax= 2.78D-08  0.00D+00 EMaxC= 1.00D-01 BMatC= 3.41D-13 BMatP= 7.73D-13
 IDIUse=1 WtCom= 1.00D+00 WtEn= 0.00D+00
 Coeff-Com: -0.807D-04-0.174D-04-0.511D-04-0.412D-03 0.333D-03 0.397D-03
 Coeff-Com: -0.185D-03-0.588D-04-0.418D-03-0.210D-02 0.396D-02 0.704D-03
 Coeff-Com: -0.813D-02-0.216D-01 0.496D-01 0.540D-01-0.125D+00-0.233D+00
 Coeff-Com:  0.451D+00 0.831D+00
 Coeff:     -0.807D-04-0.174D-04-0.511D-04-0.412D-03 0.333D-03 0.397D-03
 Coeff:     -0.185D-03-0.588D-04-0.418D-03-0.210D-02 0.396D-02 0.704D-03
 Coeff:     -0.813D-02-0.216D-01 0.496D-01 0.540D-01-0.125D+00-0.233D+00
 Coeff:      0.451D+00 0.831D+00
 Gap=     0.024 Goal=   None    Shift=    0.000
 Gap=     0.025 Goal=   None    Shift=    0.000
 RMSDP=3.90D-07 MaxDP=2.15D-05 DE=-3.18D-12 OVMax= 1.06D-05

 Cycle  27  Pass 1  IDiag  1:
 E= -1136.07771606146     Delta-E=       -0.000000000016 Rises=F Damp=F
 DIIS: error= 1.55D-08 at cycle  27 NSaved=  20.
 NSaved=20 IEnMin= 4 EnMin= -1136.07783585181     IErMin=20 ErrMin= 1.55D-08
 ErrMax= 1.55D-08  0.00D+00 EMaxC= 1.00D-01 BMatC= 9.19D-14 BMatP= 3.41D-13
 IDIUse=1 WtCom= 1.00D+00 WtEn= 0.00D+00
 Coeff-Com:  0.208D-04 0.559D-04 0.701D-04-0.117D-03 0.214D-03-0.233D-03
 Coeff-Com: -0.601D-03 0.629D-03 0.121D-02-0.984D-03-0.216D-02-0.963D-03
 Coeff-Com: -0.364D-03 0.769D-02 0.108D-01-0.631D-02 0.146D-01-0.263D+00
 Coeff-Com:  0.577D-01 0.118D+01
 Coeff:      0.208D-04 0.559D-04 0.701D-04-0.117D-03 0.214D-03-0.233D-03
 Coeff:     -0.601D-03 0.629D-03 0.121D-02-0.984D-03-0.216D-02-0.963D-03
 Coeff:     -0.364D-03 0.769D-02 0.108D-01-0.631D-02 0.146D-01-0.263D+00
 Coeff:      0.577D-01 0.118D+01
 Gap=     0.024 Goal=   None    Shift=    0.000
 Gap=     0.025 Goal=   None    Shift=    0.000
 RMSDP=1.94D-07 MaxDP=9.91D-06 DE=-1.59D-11 OVMax= 4.47D-06

 Cycle  28  Pass 1  IDiag  1:
 E= -1136.07771606145     Delta-E=        0.000000000009 Rises=F Damp=F
 DIIS: error= 1.08D-08 at cycle  28 NSaved=  20.
 NSaved=20 IEnMin= 4 EnMin= -1136.07783585181     IErMin=20 ErrMin= 1.08D-08
 ErrMax= 1.08D-08  0.00D+00 EMaxC= 1.00D-01 BMatC= 3.91D-14 BMatP= 9.19D-14
 IDIUse=1 WtCom= 1.00D+00 WtEn= 0.00D+00
 Coeff-Com:  0.560D-05 0.243D-04 0.360D-04 0.541D-04-0.221D-04-0.122D-03
 Coeff-Com:  0.279D-03 0.587D-03-0.888D-03 0.305D-04 0.192D-02 0.631D-02
 Coeff-Com: -0.133D-01-0.160D-01 0.482D-01 0.299D-01-0.187D+00-0.844D-01
 Coeff-Com:  0.247D+00 0.967D+00
 Coeff:      0.560D-05 0.243D-04 0.360D-04 0.541D-04-0.221D-04-0.122D-03
 Coeff:      0.279D-03 0.587D-03-0.888D-03 0.305D-04 0.192D-02 0.631D-02
 Coeff:     -0.133D-01-0.160D-01 0.482D-01 0.299D-01-0.187D+00-0.844D-01
 Coeff:      0.247D+00 0.967D+00
 Gap=     0.024 Goal=   None    Shift=    0.000
 Gap=     0.025 Goal=   None    Shift=    0.000
 RMSDP=7.92D-08 MaxDP=4.69D-06 DE= 8.64D-12 OVMax= 2.08D-06

 Cycle  29  Pass 1  IDiag  1:
 E= -1136.07771606145     Delta-E=        0.000000000000 Rises=F Damp=F
 DIIS: error= 3.85D-09 at cycle  29 NSaved=  20.
 NSaved=20 IEnMin= 4 EnMin= -1136.07783585181     IErMin=20 ErrMin= 3.85D-09
 ErrMax= 3.85D-09  0.00D+00 EMaxC= 1.00D-01 BMatC= 6.87D-15 BMatP= 3.91D-14
 IDIUse=1 WtCom= 1.00D+00 WtEn= 0.00D+00
 Large coefficients: NSaved= 20 BigCof=    0.00 CofMax=   10.00 Det=-4.85D-15
 Inversion failed.  Reducing to 19 matrices.
 Large coefficients: NSaved= 19 BigCof=    0.00 CofMax=   10.00 Det=-6.22D-15
 Inversion failed.  Reducing to 18 matrices.
 Large coefficients: NSaved= 18 BigCof=    0.00 CofMax=   10.00 Det=-6.40D-15
 Inversion failed.  Reducing to 17 matrices.
 Large coefficients: NSaved= 17 BigCof=    0.00 CofMax=   10.00 Det=-7.17D-15
 Inversion failed.  Reducing to 16 matrices.
 Large coefficients: NSaved= 16 BigCof=    0.00 CofMax=   10.00 Det=-7.45D-15
 Inversion failed.  Reducing to 15 matrices.
 Coeff-Com: -0.223D-05-0.194D-04-0.254D-04 0.569D-05-0.264D-04 0.791D-04
 Coeff-Com:  0.105D-03-0.530D-02 0.135D-01-0.165D-01 0.294D-01 0.203D-01
 Coeff-Com: -0.190D+00-0.774D-01 0.123D+01
 Coeff:     -0.223D-05-0.194D-04-0.254D-04 0.569D-05-0.264D-04 0.791D-04
 Coeff:      0.105D-03-0.530D-02 0.135D-01-0.165D-01 0.294D-01 0.203D-01
 Coeff:     -0.190D+00-0.774D-01 0.123D+01
 Gap=     0.024 Goal=   None    Shift=    0.000
 Gap=     0.025 Goal=   None    Shift=    0.000
 RMSDP=3.86D-08 MaxDP=3.27D-06 DE= 4.55D-13 OVMax= 7.53D-07

 Cycle  30  Pass 1  IDiag  1:
 E= -1136.07771606145     Delta-E=       -0.000000000006 Rises=F Damp=F
 DIIS: error= 2.86D-09 at cycle  30 NSaved=  16.
 NSaved=16 IEnMin= 4 EnMin= -1136.07783585181     IErMin=16 ErrMin= 2.86D-09
 ErrMax= 2.86D-09  0.00D+00 EMaxC= 1.00D-01 BMatC= 2.76D-15 BMatP= 6.87D-15
 IDIUse=1 WtCom= 1.00D+00 WtEn= 0.00D+00
 Large coefficients: NSaved= 16 BigCof=    0.00 CofMax=   10.00 Det=-2.14D-15
 Inversion failed.  Reducing to 15 matrices.
 Coeff-Com:  0.125D-05-0.745D-05-0.153D-04 0.591D-04-0.627D-04 0.221D-04
 Coeff-Com: -0.130D-02 0.441D-02-0.842D-02 0.178D-01 0.810D-02-0.101D+00
 Coeff-Com: -0.122D+00 0.584D+00 0.618D+00
 Coeff:      0.125D-05-0.745D-05-0.153D-04 0.591D-04-0.627D-04 0.221D-04
 Coeff:     -0.130D-02 0.441D-02-0.842D-02 0.178D-01 0.810D-02-0.101D+00
 Coeff:     -0.122D+00 0.584D+00 0.618D+00
 Gap=     0.024 Goal=   None    Shift=    0.000
 Gap=     0.025 Goal=   None    Shift=    0.000
 RMSDP=1.05D-08 MaxDP=6.47D-07 DE=-6.37D-12 OVMax= 3.36D-07

 Cycle  31  Pass 1  IDiag  1:
 E= -1136.07771606145     Delta-E=        0.000000000008 Rises=F Damp=F
 DIIS: error= 7.36D-10 at cycle  31 NSaved=  16.
 NSaved=16 IEnMin= 4 EnMin= -1136.07783585181     IErMin=16 ErrMin= 7.36D-10
 ErrMax= 7.36D-10  0.00D+00 EMaxC= 1.00D-01 BMatC= 2.05D-16 BMatP= 2.76D-15
 IDIUse=1 WtCom= 1.00D+00 WtEn= 0.00D+00
 Large coefficients: NSaved= 16 BigCof=    0.00 CofMax=   10.00 Det=-6.35D-16
 Inversion failed.  Reducing to 15 matrices.
 Coeff-Com:  0.172D-05 0.294D-05 0.615D-06 0.291D-04-0.277D-04-0.106D-04
 Coeff-Com: -0.114D-02 0.750D-03 0.445D-02 0.244D-02-0.658D-03-0.501D-01
 Coeff-Com: -0.169D-01 0.887D-01 0.972D+00
 Coeff:      0.172D-05 0.294D-05 0.615D-06 0.291D-04-0.277D-04-0.106D-04
 Coeff:     -0.114D-02 0.750D-03 0.445D-02 0.244D-02-0.658D-03-0.501D-01
 Coeff:     -0.169D-01 0.887D-01 0.972D+00
 Gap=     0.024 Goal=   None    Shift=    0.000
 Gap=     0.025 Goal=   None    Shift=    0.000
 RMSDP=6.44D-09 MaxDP=4.12D-07 DE= 7.73D-12 OVMax= 8.96D-08

 SCF Done:  E(UB3LYP) =  -1136.07771606     A.U. after   31 cycles
            NFock= 31  Conv=0.64D-08     -V/T= 2.0025
 <Sx>= 0.0000 <Sy>= 0.0000 <Sz>= 0.5000 <S**2>= 0.7666 S= 0.5083
 <L.S>= 0.000000000000E+00
 KE= 1.133239210131D+03 PE=-3.415477997824D+03 EE= 8.029284553632D+02
 Annihilation of the first spin contaminant:
 S**2 before annihilation     0.7666,   after     0.7501
 Leave Link  502 at Mon Nov 13 12:15:03 2023, MaxMem=  1879048192 cpu:             295.5 elap:              25.5
 (Enter /home/sekinelabo/g16/l601.exe)
 Copying SCF densities to generalized density rwf, IOpCl= 1 IROHF=0.

 **********************************************************************

            Population analysis using the SCF Density.

 **********************************************************************

 Orbital symmetries:
 Alpha Orbitals:
       Occupied  (A) (A) (A) (A) (A) (A) (A) (A) (A) (A) (A) (A)
                 (A) (A) (A) (A) (A) (A) (A) (A) (A) (A) (A) (A)
                 (A) (A) (A) (A) (A) (A) (A) (A) (A) (A) (A) (A)
                 (A) (A) (A)
       Virtual   (A) (A) (A) (A) (A) (A) (A) (A) (A) (A) (A) (A)
                 (A) (A) (A) (A) (A) (A) (A) (A) (A) (A) (A) (A)
                 (A) (A) (A) (A) (A) (A) (A) (A) (A) (A) (A) (A)
                 (A) (A) (A) (A) (A) (A) (A) (A) (A) (A) (A) (A)
                 (A) (A) (A) (A) (A) (A) (A) (A) (A) (A) (A) (A)
                 (A) (A) (A) (A) (A) (A) (A) (A) (A) (A) (A) (A)
                 (A) (A) (A) (A) (A) (A) (A) (A) (A) (A) (A) (A)
                 (A) (A) (A) (A) (A) (A) (A) (A) (A) (A) (A) (A)
                 (A) (A) (A) (A) (A) (A) (A) (A) (A) (A) (A) (A)
                 (A) (A) (A) (A) (A) (A) (A) (A) (A) (A) (A) (A)
                 (A) (A) (A) (A) (A) (A) (A) (A) (A) (A) (A) (A)
                 (A) (A) (A) (A) (A) (A) (A) (A) (A) (A) (A) (A)
                 (A) (A) (A) (A) (A) (A) (A) (A) (A) (A) (A) (A)
                 (A) (A) (A) (A) (A) (A) (A) (A) (A) (A) (A) (A)
                 (A) (A) (A)
 Beta  Orbitals:
       Occupied  (A) (A) (A) (A) (A) (A) (A) (A) (A) (A) (A) (A)
                 (A) (A) (A) (A) (A) (A) (A) (A) (A) (A) (A) (A)
                 (A) (A) (A) (A) (A) (A) (A) (A) (A) (A) (A) (A)
                 (A) (A)
       Virtual   (A) (A) (A) (A) (A) (A) (A) (A) (A) (A) (A) (A)
                 (A) (A) (A) (A) (A) (A) (A) (A) (A) (A) (A) (A)
                 (A) (A) (A) (A) (A) (A) (A) (A) (A) (A) (A) (A)
                 (A) (A) (A) (A) (A) (A) (A) (A) (A) (A) (A) (A)
                 (A) (A) (A) (A) (A) (A) (A) (A) (A) (A) (A) (A)
                 (A) (A) (A) (A) (A) (A) (A) (A) (A) (A) (A) (A)
                 (A) (A) (A) (A) (A) (A) (A) (A) (A) (A) (A) (A)
                 (A) (A) (A) (A) (A) (A) (A) (A) (A) (A) (A) (A)
                 (A) (A) (A) (A) (A) (A) (A) (A) (A) (A) (A) (A)
                 (A) (A) (A) (A) (A) (A) (A) (A) (A) (A) (A) (A)
                 (A) (A) (A) (A) (A) (A) (A) (A) (A) (A) (A) (A)
                 (A) (A) (A) (A) (A) (A) (A) (A) (A) (A) (A) (A)
                 (A) (A) (A) (A) (A) (A) (A) (A) (A) (A) (A) (A)
                 (A) (A) (A) (A) (A) (A) (A) (A) (A) (A) (A) (A)
                 (A) (A) (A) (A)
 The electronic state is 2-A.
 Alpha  occ. eigenvalues --  -38.47084 -38.46201 -38.44690 -38.43294 -38.43257
 Alpha  occ. eigenvalues --  -38.43168 -38.43142  -2.23141  -2.22278  -2.20808
 Alpha  occ. eigenvalues --   -2.19402  -2.19361  -2.18981  -2.18957  -1.16838
 Alpha  occ. eigenvalues --   -1.16798  -1.16794  -1.15979  -1.15939  -1.15903
 Alpha  occ. eigenvalues --   -1.14484  -1.14455  -1.14422  -1.13111  -1.13078
 Alpha  occ. eigenvalues --   -1.13076  -1.13049  -1.13032  -1.13012  -1.12635
 Alpha  occ. eigenvalues --   -1.12624  -1.12615  -1.12611  -1.12602  -1.12586
 Alpha  occ. eigenvalues --   -0.20780  -0.14201  -0.11834  -0.10992
 Alpha virt. eigenvalues --   -0.08602  -0.05663  -0.03683  -0.03232  -0.03090
 Alpha virt. eigenvalues --   -0.02039  -0.01983  -0.01788  -0.01299  -0.00985
 Alpha virt. eigenvalues --   -0.00013   0.00325   0.00362   0.00563   0.00698
 Alpha virt. eigenvalues --    0.00723   0.00882   0.01100   0.01417   0.01451
 Alpha virt. eigenvalues --    0.01566   0.01615   0.01704   0.01810   0.01921
 Alpha virt. eigenvalues --    0.01991   0.02189   0.02419   0.02428   0.02469
 Alpha virt. eigenvalues --    0.02508   0.02585   0.02696   0.02835   0.02898
 Alpha virt. eigenvalues --    0.03236   0.03257   0.03756   0.03823   0.03972
 Alpha virt. eigenvalues --    0.04096   0.04185   0.04245   0.04395   0.04750
 Alpha virt. eigenvalues --    0.05136   0.05298   0.05328   0.05570   0.05749
 Alpha virt. eigenvalues --    0.06022   0.06258   0.06787   0.06982   0.07192
 Alpha virt. eigenvalues --    0.07621   0.07638   0.08245   0.08446   0.08743
 Alpha virt. eigenvalues --    0.09077   0.09455   0.10250   0.10466   0.11123
 Alpha virt. eigenvalues --    0.11237   0.11522   0.12566   0.12751   0.12832
 Alpha virt. eigenvalues --    0.13498   0.13574   0.14181   0.14711   0.15666
 Alpha virt. eigenvalues --    0.15744   0.15889   0.16375   0.17159   0.19206
 Alpha virt. eigenvalues --    0.23196   0.24535   0.26780   0.28447   0.29256
 Alpha virt. eigenvalues --    0.30287   0.32458   0.33074   0.33237   0.33390
 Alpha virt. eigenvalues --    0.34499   0.35250   0.36180   0.36468   0.37039
 Alpha virt. eigenvalues --    0.37237   0.37921   0.39237   0.39658   0.40671
 Alpha virt. eigenvalues --    0.41208   0.41391   0.42659   0.43752   0.44029
 Alpha virt. eigenvalues --    0.44477   0.44828   0.45174   0.45369   0.45652
 Alpha virt. eigenvalues --    0.45762   0.46346   0.47167   0.47717   0.47928
 Alpha virt. eigenvalues --    0.48738   0.49133   0.50895   0.51798   0.51911
 Alpha virt. eigenvalues --    0.53044   0.53826   0.55143   0.55534   0.56550
 Alpha virt. eigenvalues --    0.63760   0.64464   0.66822   0.67879   0.68012
 Alpha virt. eigenvalues --    0.70023   0.70856   0.73424   0.76966   0.78661
 Alpha virt. eigenvalues --    0.82603   2.10533   2.12652   2.15741   2.24796
 Alpha virt. eigenvalues --    2.26716   2.28367   2.30479   4.39755   4.40181
 Alpha virt. eigenvalues --    4.40720   4.41165   4.41417   4.41651   4.46173
 Alpha virt. eigenvalues --    4.46440   4.46597   4.46777   4.47814   4.49606
 Alpha virt. eigenvalues --    4.54290   4.56997   4.62114   4.63280   4.65358
 Alpha virt. eigenvalues --    4.71447   4.74558   4.75795   4.84421  96.31507
 Alpha virt. eigenvalues --   96.34527  96.38195  96.52295  96.54614  96.55522
 Alpha virt. eigenvalues --   96.58483
  Beta  occ. eigenvalues --  -38.47036 -38.46175 -38.44606 -38.43268 -38.43232
  Beta  occ. eigenvalues --  -38.43164 -38.43139  -2.23062  -2.22238  -2.20654
  Beta  occ. eigenvalues --   -2.19360  -2.19322  -2.18973  -2.18951  -1.16791
  Beta  occ. eigenvalues --   -1.16744  -1.16681  -1.15951  -1.15921  -1.15812
  Beta  occ. eigenvalues --   -1.14384  -1.14346  -1.14306  -1.13088  -1.13060
  Beta  occ. eigenvalues --   -1.13052  -1.13020  -1.12973  -1.12937  -1.12627
  Beta  occ. eigenvalues --   -1.12619  -1.12607  -1.12600  -1.12597  -1.12578
  Beta  occ. eigenvalues --   -0.19945  -0.13923  -0.10915
  Beta virt. eigenvalues --   -0.08420  -0.07431  -0.05479  -0.03232  -0.03119
  Beta virt. eigenvalues --   -0.02690  -0.01700  -0.01328  -0.01149  -0.01078
  Beta virt. eigenvalues --   -0.00957   0.00018   0.00385   0.00473   0.00689
  Beta virt. eigenvalues --    0.00705   0.00874   0.00888   0.01138   0.01524
  Beta virt. eigenvalues --    0.01605   0.01631   0.01645   0.01773   0.01830
  Beta virt. eigenvalues --    0.02009   0.02048   0.02270   0.02439   0.02480
  Beta virt. eigenvalues --    0.02537   0.02574   0.02673   0.02731   0.02908
  Beta virt. eigenvalues --    0.02957   0.03273   0.03338   0.03759   0.03896
  Beta virt. eigenvalues --    0.04042   0.04167   0.04266   0.04343   0.04611
  Beta virt. eigenvalues --    0.04904   0.05259   0.05368   0.05605   0.05686
  Beta virt. eigenvalues --    0.05820   0.06159   0.06353   0.07041   0.07123
  Beta virt. eigenvalues --    0.07475   0.07619   0.07716   0.08334   0.08660
  Beta virt. eigenvalues --    0.08831   0.09162   0.09453   0.10406   0.10576
  Beta virt. eigenvalues --    0.11428   0.11748   0.11813   0.12813   0.13022
  Beta virt. eigenvalues --    0.13040   0.13626   0.13738   0.14369   0.14907
  Beta virt. eigenvalues --    0.15966   0.16058   0.16190   0.16494   0.17467
  Beta virt. eigenvalues --    0.19454   0.23480   0.24880   0.27024   0.28765
  Beta virt. eigenvalues --    0.29647   0.30736   0.32707   0.33371   0.33610
  Beta virt. eigenvalues --    0.33643   0.34669   0.35462   0.36306   0.36580
  Beta virt. eigenvalues --    0.37176   0.37367   0.38251   0.39362   0.39784
  Beta virt. eigenvalues --    0.40843   0.41403   0.42073   0.42909   0.43892
  Beta virt. eigenvalues --    0.44121   0.44628   0.45064   0.45294   0.45587
  Beta virt. eigenvalues --    0.45690   0.45859   0.46417   0.47235   0.47779
  Beta virt. eigenvalues --    0.48073   0.48827   0.49386   0.51131   0.52077
  Beta virt. eigenvalues --    0.52201   0.53124   0.54085   0.55422   0.55735
  Beta virt. eigenvalues --    0.56698   0.63900   0.64808   0.66926   0.68202
  Beta virt. eigenvalues --    0.68303   0.70282   0.70882   0.73457   0.77134
  Beta virt. eigenvalues --    0.78811   0.82794   2.10574   2.12675   2.15868
  Beta virt. eigenvalues --    2.24900   2.27007   2.28450   2.30614   4.39851
  Beta virt. eigenvalues --    4.40248   4.40807   4.41217   4.41445   4.41757
  Beta virt. eigenvalues --    4.46184   4.46452   4.46618   4.46794   4.47875
  Beta virt. eigenvalues --    4.49637   4.54431   4.57024   4.62148   4.63332
  Beta virt. eigenvalues --    4.65468   4.71481   4.74597   4.75857   4.84479
  Beta virt. eigenvalues --   96.31525  96.34535  96.38237  96.52339  96.54701
  Beta virt. eigenvalues --   96.55550  96.58530
          Condensed to atoms (all electrons):
               1          2          3          4          5          6
     1  Na  14.319059   0.396711   1.246204  -2.556783   0.092488  -2.169514
     2  Na   0.396711  12.548694   0.648918  -1.180452   0.101436  -1.529422
     3  Na   1.246204   0.648918  12.661968  -3.707239   0.778097  -1.480497
     4  Na  -2.556783  -1.180452  -3.707239  19.332196  -1.385281   1.700351
     5  Na   0.092488   0.101436   0.778097  -1.385281  12.345510  -1.232178
     6  Na  -2.169514  -1.529422  -1.480497   1.700351  -1.232178  17.726953
     7  Na  -0.369379  -0.126572   0.606453  -0.787971   0.057112  -1.518956
               7
     1  Na  -0.369379
     2  Na  -0.126572
     3  Na   0.606453
     4  Na  -0.787971
     5  Na   0.057112
     6  Na  -1.518956
     7  Na  12.898569
          Atomic-Atomic Spin Densities.
               1          2          3          4          5          6
     1  Na   0.367420   0.276436   0.018495   0.231183   0.207903  -0.208445
     2  Na   0.276436   0.463506   0.257996  -0.016855   0.403744  -0.941578
     3  Na   0.018495   0.257996   0.109022   0.122792   0.157044  -0.569406
     4  Na   0.231183  -0.016855   0.122792  -0.698865   0.130201   0.307244
     5  Na   0.207903   0.403744   0.157044   0.130201   0.446502  -0.792182
     6  Na  -0.208445  -0.941578  -0.569406   0.307244  -0.792182   1.779459
     7  Na  -0.497995  -0.242096  -0.158770   0.084263  -0.296111   0.574148
               7
     1  Na  -0.497995
     2  Na  -0.242096
     3  Na  -0.158770
     4  Na   0.084263
     5  Na  -0.296111
     6  Na   0.574148
     7  Na   0.436931
 Mulliken charges and spin densities:
               1          2
     1  Na   0.041214   0.394997
     2  Na   0.140686   0.201153
     3  Na   0.246097  -0.062827
     4  Na  -0.414821   0.159962
     5  Na   0.242817   0.257102
     6  Na  -0.496737   0.149240
     7  Na   0.240743  -0.099628
 Sum of Mulliken charges =  -0.00000   1.00000
 Mulliken charges and spin densities with hydrogens summed into heavy atoms:
               1          2
     1  Na   0.041214   0.394997
     2  Na   0.140686   0.201153
     3  Na   0.246097  -0.062827
     4  Na  -0.414821   0.159962
     5  Na   0.242817   0.257102
     6  Na  -0.496737   0.149240
     7  Na   0.240743  -0.099628
 Electronic spatial extent (au):  <R**2>=           3038.5918
 Charge=             -0.0000 electrons
 Dipole moment (field-independent basis, Debye):
    X=             -0.1032    Y=             -0.2330    Z=              0.6109  Tot=              0.6619
 Quadrupole moment (field-independent basis, Debye-Ang):
   XX=            -81.5566   YY=            -73.3570   ZZ=            -60.3517
   XY=              3.9677   XZ=             -0.3656   YZ=              1.0403
 Traceless Quadrupole moment (field-independent basis, Debye-Ang):
   XX=             -9.8015   YY=             -1.6019   ZZ=             11.4034
   XY=              3.9677   XZ=             -0.3656   YZ=              1.0403
 Octapole moment (field-independent basis, Debye-Ang**2):
  XXX=              2.6985  YYY=              6.5639  ZZZ=             14.2001  XYY=              1.0509
  XXY=              0.6316  XXZ=              9.8735  XZZ=             -4.1917  YZZ=            -11.4962
  YYZ=             -2.5370  XYZ=             -2.9751
 Hexadecapole moment (field-independent basis, Debye-Ang**3):
 XXXX=          -4016.7836 YYYY=           -649.6413 ZZZZ=           -408.4689 XXXY=            137.7648
 XXXZ=             -8.3329 YYYX=             18.1063 YYYZ=              7.3156 ZZZX=             -3.4417
 ZZZY=              4.9486 XXYY=           -886.0318 XXZZ=           -872.3614 YYZZ=           -177.7956
 XXYZ=             -0.5444 YYXZ=              0.0980 ZZXY=              8.6379
 N-N= 3.432326162682D+02 E-N=-3.415477997704D+03  KE= 1.133239210131D+03
                          Isotropic Fermi Contact Couplings
        Atom                 a.u.       MegaHertz       Gauss      10(-4) cm-1
     1  Na(23)             0.34539     408.61089     145.80253     136.29792
     2  Na(23)             0.01962      23.21528       8.28379       7.74379
     3  Na(23)             0.01576      18.64226       6.65202       6.21839
     4  Na(23)             0.03103      36.70464      13.09713      12.24335
     5  Na(23)             0.11660     137.93905      49.22008      46.01152
     6  Na(23)             0.04288      50.73288      18.10275      16.92267
     7  Na(23)             0.01355      16.02911       5.71959       5.34674
 --------------------------------------------------------
       Center         ----  Spin Dipole Couplings  ----
                      3XX-RR        3YY-RR        3ZZ-RR
 --------------------------------------------------------
     1   Atom        0.022723     -0.008565     -0.014158
     2   Atom       -0.033265      0.062087     -0.028822
     3   Atom        0.001285     -0.000101     -0.001183
     4   Atom        0.004011      0.027489     -0.031500
     5   Atom       -0.027600      0.042943     -0.015343
     6   Atom        0.001344      0.029018     -0.030362
     7   Atom        0.000701      0.000405     -0.001106
 --------------------------------------------------------
                        XY            XZ            YZ
 --------------------------------------------------------
     1   Atom       -0.015741      0.001787      0.006270
     2   Atom       -0.016299     -0.004059      0.029640
     3   Atom       -0.002942     -0.000448     -0.000295
     4   Atom        0.054667      0.001121     -0.008758
     5   Atom       -0.017014      0.009445     -0.046079
     6   Atom        0.045831     -0.013134     -0.006082
     7   Atom       -0.001662      0.000949      0.000123
 --------------------------------------------------------


 ---------------------------------------------------------------------------------
              Anisotropic Spin Dipole Couplings in Principal Axis System
 ---------------------------------------------------------------------------------

       Atom             a.u.   MegaHertz   Gauss  10(-4) cm-1        Axes

              Baa    -0.0211    -2.984    -1.065    -0.995 -0.2718 -0.6801  0.6809
     1 Na(23) Bbb    -0.0082    -1.151    -0.411    -0.384  0.2753  0.6230  0.7322
              Bcc     0.0293     4.135     1.476     1.379  0.9221 -0.3865 -0.0179
 
              Baa    -0.0379    -5.353    -1.910    -1.786 -0.3435 -0.3179  0.8837
     2 Na(23) Bbb    -0.0356    -5.031    -1.795    -1.678  0.9262  0.0408  0.3747
              Bcc     0.0735    10.384     3.705     3.464 -0.1552  0.9472  0.2805
 
              Baa    -0.0026    -0.369    -0.132    -0.123  0.5916  0.7326  0.3365
     3 Na(23) Bbb    -0.0010    -0.142    -0.051    -0.047 -0.1822 -0.2852  0.9410
              Bcc     0.0036     0.511     0.182     0.171  0.7854 -0.6180 -0.0353
 
              Baa    -0.0436    -6.159    -2.198    -2.054  0.6681 -0.5722 -0.4756
     4 Na(23) Bbb    -0.0284    -4.012    -1.432    -1.338  0.4041 -0.2577  0.8777
              Bcc     0.0720    10.171     3.629     3.393  0.6248  0.7785 -0.0591
 
              Baa    -0.0407    -5.750    -2.052    -1.918 -0.0068  0.4814  0.8765
     5 Na(23) Bbb    -0.0314    -4.434    -1.582    -1.479  0.9815  0.1711 -0.0864
              Bcc     0.0721    10.184     3.634     3.397 -0.1915  0.8597 -0.4736
 
              Baa    -0.0392    -5.542    -1.978    -1.849  0.6315 -0.3630  0.6852
     6 Na(23) Bbb    -0.0255    -3.603    -1.286    -1.202 -0.4930  0.4941  0.7161
              Bcc     0.0648     9.145     3.263     3.051  0.5985  0.7900 -0.1331
 
              Baa    -0.0019    -0.267    -0.095    -0.089 -0.5409 -0.4303  0.7227
     7 Na(23) Bbb    -0.0004    -0.063    -0.023    -0.021  0.3790  0.6424  0.6661
              Bcc     0.0023     0.330     0.118     0.110  0.7509 -0.6342  0.1844
 

 ---------------------------------------------------------------------------------

 No NMR shielding tensors so no spin-rotation constants.
 Leave Link  601 at Mon Nov 13 12:15:03 2023, MaxMem=  1879048192 cpu:               2.7 elap:               0.2
 (Enter /home/sekinelabo/g16/l701.exe)
 ... and contract with generalized density number  0.
 Compute integral first derivatives.
 Leave Link  701 at Mon Nov 13 12:15:03 2023, MaxMem=  1879048192 cpu:               1.7 elap:               0.1
 (Enter /home/sekinelabo/g16/l702.exe)
 L702 exits ... SP integral derivatives will be done elsewhere.
 Leave Link  702 at Mon Nov 13 12:15:03 2023, MaxMem=  1879048192 cpu:               0.5 elap:               0.0
 (Enter /home/sekinelabo/g16/l703.exe)
 Integral derivatives from FoFJK, PRISM(SPDF).
 Compute integral first derivatives, UseDBF=F ICtDFT=           0.
 Calling FoFJK, ICntrl=      2127 FMM=F ISym2X=0 I1Cent= 0 IOpClX= 1 NMat=1 NMatS=1 NMatT=0.
 FoFJK:  IHMeth= 1 ICntrl=    2127 DoSepK=F KAlg= 0 I1Cent=           0 FoldK=F
 IRaf=         0 NMat=       1 IRICut=       1 DoRegI=T DoRafI=F ISym2E= 0 IDoP0=0 IntGTp=1.
 FoFCou: FMM=F IPFlag=           0 FMFlag=      100000 FMFlg1=         800
         NFxFlg=           0 DoJE=F BraDBF=F KetDBF=F FulRan=T
         wScrn=  0.000000 ICntrl=      2127 IOpCl=  1 I1Cent=           0 NGrid=           0
         NMat0=    1 NMatS0=      1 NMatT0=    0 NMatD0=    1 NMtDS0=    0 NMtDT0=    0
 Symmetry not used in FoFCou.
 Leave Link  703 at Mon Nov 13 12:15:06 2023, MaxMem=  1879048192 cpu:              33.7 elap:               2.2
 (Enter /home/sekinelabo/g16/l716.exe)
 Dipole        =-4.05892934D-02-9.16496579D-02 2.40353855D-01
 ***** Axes restored to original set *****
 -------------------------------------------------------------------
 Center     Atomic                   Forces (Hartrees/Bohr)
 Number     Number              X              Y              Z
 -------------------------------------------------------------------
      1       11           0.009729340    0.020028336   -0.001851356
      2       11          -0.003562152   -0.007685459    0.014323537
      3       11           0.003112177    0.001878609   -0.001258344
      4       11           0.014505526   -0.007880029    0.000247809
      5       11          -0.006606477   -0.012295703   -0.009590811
      6       11          -0.014369879    0.008287165   -0.000683610
      7       11          -0.002808535   -0.002332918   -0.001187226
 -------------------------------------------------------------------
 Cartesian Forces:  Max     0.020028336 RMS     0.008839028
 Z-matrix is all fixed cartesians, so copy forces.
 Force constants in Cartesian coordinates: 
                1             2             3             4             5 
      1  0.104694D+00
      2  0.210348D-01  0.154105D+00
      3 -0.517491D-02 -0.147433D-01  0.660858D-01
      4 -0.137933D-01 -0.847490D-02  0.137376D-01  0.945800D-01
      5 -0.868192D-02 -0.329564D-01  0.383124D-01 -0.231712D-02  0.774539D-01
      6  0.153005D-02  0.514915D-02 -0.273100D-01 -0.108204D-01 -0.292588D-01
      7 -0.219422D-02 -0.151494D-02  0.308212D-03 -0.414324D-03 -0.114621D-02
      8  0.618853D-02  0.428842D-02 -0.741785D-03  0.193029D-02  0.431397D-02
      9 -0.826767D-03 -0.502667D-03  0.669272D-03  0.314894D-02  0.425931D-02
     10 -0.283916D-01 -0.103229D-01  0.257058D-02 -0.374207D-01  0.103664D-01
     11  0.229461D-01 -0.494129D-01  0.530400D-02 -0.735507D-02 -0.185649D-01
     12 -0.279504D-02  0.726751D-02 -0.851413D-02  0.293440D-01 -0.102708D-01
     13 -0.150516D-01 -0.124291D-01 -0.110901D-01 -0.107455D-01  0.967985D-04
     14 -0.120449D-01 -0.450210D-01 -0.316556D-01 -0.231150D-03 -0.978171D-02
     15  0.979867D-03  0.224485D-02 -0.142668D-01 -0.809658D-02 -0.236684D-01
     16 -0.459834D-01  0.145905D-01  0.313773D-03 -0.308516D-01  0.353314D-02
     17 -0.276582D-01 -0.376907D-01  0.327851D-02  0.127222D-01 -0.253402D-01
     18  0.585135D-02 -0.820828D-03 -0.258236D-01 -0.239929D-01  0.236902D-01
     19  0.719675D-03 -0.288344D-02 -0.665106D-03 -0.135454D-02 -0.185113D-02
     20 -0.178448D-02  0.668737D-02  0.245795D-03  0.372576D-02  0.487530D-02
     21  0.435435D-03  0.140526D-02  0.915948D-02 -0.332068D-02 -0.306391D-02
                6             7             8             9            10 
      6  0.146050D+00
      7 -0.468893D-03  0.345677D-01
      8  0.235163D-02  0.710619D-02  0.163114D-01
      9  0.428873D-02 -0.164467D-02 -0.745228D-03  0.131634D-01
     10 -0.372056D-02 -0.314164D-01 -0.161161D-01  0.230187D-02  0.143458D+00
     11  0.538376D-02 -0.318079D-02 -0.277333D-01  0.702159D-03 -0.139572D-02
     12 -0.373404D-01  0.600299D-03  0.117062D-02 -0.244913D-01 -0.164487D-02
     13  0.396813D-02 -0.519511D-03  0.825246D-03 -0.297244D-02 -0.398550D-01
     14  0.952608D-02 -0.120008D-02  0.263736D-02 -0.369463D-02  0.115514D-01
     15 -0.539690D-01  0.119308D-02 -0.200325D-02  0.635764D-02  0.664112D-03
     16  0.936770D-02 -0.231923D-04  0.658278D-04 -0.692983D-05 -0.635878D-02
     17  0.742865D-02 -0.641610D-04  0.182164D-03 -0.189449D-04  0.587820D-02
     18 -0.333298D-01  0.119706D-04 -0.319935D-04  0.121822D-04 -0.161167D-03
     19  0.143951D-03  0.000000D+00  0.000000D+00  0.000000D+00 -0.155507D-04
     20 -0.580507D-03  0.000000D+00  0.000000D+00  0.000000D+00  0.386402D-04
     21  0.161040D-02  0.000000D+00  0.000000D+00  0.000000D+00 -0.996227D-05
               11            12            13            14            15 
     11  0.107774D+00
     12 -0.204845D-02  0.949775D-01
     13 -0.167299D-01 -0.254661D-01  0.977085D-01
     14 -0.193151D-01  0.405291D-02  0.496019D-02  0.999582D-01
     15 -0.948829D-02 -0.346487D-01  0.154754D-01  0.443353D-01  0.120816D+00
     16  0.576111D-02  0.582465D-04 -0.294271D-01 -0.121298D-02 -0.967114D-02
     17  0.713805D-02 -0.430329D-03  0.186865D-01 -0.325265D-01 -0.124875D-01
     18  0.179510D-03  0.102068D-01  0.169940D-01 -0.246651D-01 -0.258901D-01
     19 -0.457704D-04 -0.964970D-04 -0.210980D-02 -0.182250D-02 -0.544711D-03
     20  0.114223D-03  0.258547D-03  0.459034D-02  0.404879D-02  0.106734D-02
     21 -0.326866D-04 -0.189725D-03  0.309120D-02  0.210113D-02  0.160074D-02
               16            17            18            19            20 
     16  0.144090D+00
     17 -0.973685D-02  0.125377D+00
     18  0.109122D-02  0.377780D-02  0.100617D+00
     19 -0.314463D-01  0.172401D-03  0.205481D-03  0.342065D-01
     20 -0.130007D-01 -0.371399D-01 -0.212959D-02  0.643044D-02  0.214142D-01
     21 -0.115287D-02 -0.154820D-02 -0.257922D-01  0.956883D-03  0.113841D-02
               21 
     21  0.136113D-01
 Leave Link  716 at Mon Nov 13 12:15:06 2023, MaxMem=  1879048192 cpu:               0.7 elap:               0.0
 (Enter /home/sekinelabo/g16/l103.exe)

 GradGradGradGradGradGradGradGradGradGradGradGradGradGradGradGradGradGrad
 Berny optimization.
 Search for a local minimum.
 Step number   1 out of a maximum of    2
 All quantities printed in internal units (Hartrees-Bohrs-Radians)
 Second derivative matrix not updated -- first step.
 ITU=  0
     Eigenvalues ---    0.01122   0.01255   0.02553   0.04441   0.05937
     Eigenvalues ---    0.07066   0.12982   0.13788   0.14952   0.15655
     Eigenvalues ---    0.16603   0.20150   0.20287   0.21205   0.22170
 Quadratic step=4.714D-01 exceeds max=3.000D-01 adjusted using Lamda=-2.057D-02.
 Angle between NR and scaled steps=  15.87 degrees.
 Angle between quadratic step and forces=  32.62 degrees.
 Linear search not attempted -- first point.
 B after Tr=    -0.000000    0.000000    0.000000
         Rot=    1.000000   -0.000000   -0.000000   -0.000000 Ang=   0.00 deg.
 Variable       Old X    -DE/DX   Delta X   Delta X   Delta X     New X
                                 (Linear)    (Quad)   (Total)
    X1       10.68192   0.00973   0.00000   0.05512   0.05512  10.73704
    Y1        4.98960   0.02003   0.00000   0.09113   0.09113   5.08073
    Z1        2.00779  -0.00185   0.00000   0.01339   0.01339   2.02118
    X2        9.16985  -0.00356   0.00000  -0.02195  -0.02195   9.14790
    Y2        0.87199  -0.00769   0.00000  -0.03802  -0.03802   0.83398
    Z2        5.59289   0.01432   0.00000   0.08536   0.08536   5.67825
    X3       19.28933   0.00311   0.00000   0.11840   0.11840  19.40773
    Y3        2.21932   0.00188   0.00000   0.02203   0.02203   2.24135
    Z3        2.15188  -0.00126   0.00000  -0.04158  -0.04158   2.11030
    X4       13.94384   0.01451   0.00000   0.11601   0.11601  14.05985
    Y4        0.38062  -0.00788   0.00000  -0.05311  -0.05311   0.32751
    Z4        2.57566   0.00025   0.00000   0.00639   0.00639   2.58205
    X5        8.90795  -0.00661   0.00000  -0.04199  -0.04199   8.86597
    Y5        0.00000  -0.01230   0.00000  -0.06599  -0.06599  -0.06599
    Z5        0.00000  -0.00959   0.00000  -0.02181  -0.02181  -0.02181
    X6        5.22693  -0.01437   0.00000  -0.11089  -0.11089   5.11604
    Y6        3.51613   0.00829   0.00000   0.05722   0.05722   3.57335
    Z6        2.49318  -0.00068   0.00000  -0.00050  -0.00050   2.49268
    X7        0.00000  -0.00281   0.00000  -0.11470  -0.11470  -0.11470
    Y7        1.32983  -0.00233   0.00000  -0.01326  -0.01326   1.31658
    Z7        2.17230  -0.00119   0.00000  -0.04125  -0.04125   2.13105
         Item               Value     Threshold  Converged?
 Maximum Force            0.020028     0.000450     NO 
 RMS     Force            0.008839     0.000300     NO 
 Maximum Displacement     0.118397     0.001800     NO 
 RMS     Displacement     0.065641     0.001200     NO 
 Predicted change in Energy=-6.062090D-03
 GradGradGradGradGradGradGradGradGradGradGradGradGradGradGradGradGradGrad

 Leave Link  103 at Mon Nov 13 12:15:06 2023, MaxMem=  1879048192 cpu:               1.3 elap:               0.1
 (Enter /home/sekinelabo/g16/l9999.exe)
 1\1\GINC-SEKINELABO-XA7R-R37\Force\UB3LYP\6-311+G(d)\Na7(2)\SEKINELABO
 \13-Nov-2023\0\\#P B3LYP/6-311+g(d) force\\Gaussian input prepared by 
 ASE\\0,2\Na,5.6526302,2.6403836852,1.0624764565\Na,4.852477046,0.46143
 93481,2.959628925\Na,10.2074753502,1.1744138386,1.1387260769\Na,7.3787
 607519,0.2014163237,1.3629811123\Na,4.7138855567,0.,0.\Na,2.7659722153
 ,1.8606572022,1.3193327423\Na,0.,0.7037166355,1.1495310281\\Version=ES
 64L-G16RevB.01\State=2-A\HF=-1136.0777161\S2=0.766602\S2-1=0.\S2A=0.75
 0134\RMSD=6.438e-09\RMSF=8.839e-03\Dipole=-0.0405893,-0.0916497,0.2403
 539\Quadrupole=-7.2871881,-1.1909729,8.478161,2.949921,-0.2718235,0.77
 34211\PG=C01 [X(Na7)]\\@


 SIC AS THE CAWSE OF EWERY THING IS, SIC WILBE THE EFFECT.
 -- PROVERBS AND REASONS OF THE YEAR 1585
           AS REPRINTED IN PAISLEY MAGAZINE 1828.
 Job cpu time:       0 days  0 hours  5 minutes 55.3 seconds.
 Elapsed time:       0 days  0 hours  0 minutes 29.5 seconds.
 File lengths (MBytes):  RWF=     32 Int=      0 D2E=      0 Chk=      5 Scr=      1
 Normal termination of Gaussian 16 at Mon Nov 13 12:15:06 2023.
