 Entering Gaussian System, Link 0=g16
 Initial command:
 /home/sekinelabo/g16/l1.exe "/home/sekinelabo/g16temp/Gau-3987260.inp" -scrdir="/home/sekinelabo/g16temp/"
 Entering Link 1 = /home/sekinelabo/g16/l1.exe PID=   3987262.
  
 Copyright (c) 1988-2017, Gaussian, Inc.  All Rights Reserved.
  
 This is part of the Gaussian(R) 16 program.  It is based on
 the Gaussian(R) 09 system (copyright 2009, Gaussian, Inc.),
 the Gaussian(R) 03 system (copyright 2003, Gaussian, Inc.),
 the Gaussian(R) 98 system (copyright 1998, Gaussian, Inc.),
 the Gaussian(R) 94 system (copyright 1995, Gaussian, Inc.),
 the Gaussian 92(TM) system (copyright 1992, Gaussian, Inc.),
 the Gaussian 90(TM) system (copyright 1990, Gaussian, Inc.),
 the Gaussian 88(TM) system (copyright 1988, Gaussian, Inc.),
 the Gaussian 86(TM) system (copyright 1986, Carnegie Mellon
 University), and the Gaussian 82(TM) system (copyright 1983,
 Carnegie Mellon University). Gaussian is a federally registered
 trademark of Gaussian, Inc.
  
 This software contains proprietary and confidential information,
 including trade secrets, belonging to Gaussian, Inc.
  
 This software is provided under written license and may be
 used, copied, transmitted, or stored only in accord with that
 written license.
  
 The following legend is applicable only to US Government
 contracts under FAR:
  
                    RESTRICTED RIGHTS LEGEND
  
 Use, reproduction and disclosure by the US Government is
 subject to restrictions as set forth in subparagraphs (a)
 and (c) of the Commercial Computer Software - Restricted
 Rights clause in FAR 52.227-19.
  
 Gaussian, Inc.
 340 Quinnipiac St., Bldg. 40, Wallingford CT 06492
  
  
 ---------------------------------------------------------------
 Warning -- This program may not be used in any manner that
 competes with the business of Gaussian, Inc. or will provide
 assistance to any competitor of Gaussian, Inc.  The licensee
 of this program is prohibited from giving any competitor of
 Gaussian, Inc. access to this program.  By using this program,
 the user acknowledges that Gaussian, Inc. is engaged in the
 business of creating and licensing software in the field of
 computational chemistry and represents and warrants to the
 licensee that it is not a competitor of Gaussian, Inc. and that
 it will not use this program in any manner prohibited above.
 ---------------------------------------------------------------
  

 Cite this work as:
 Gaussian 16, Revision B.01,
 M. J. Frisch, G. W. Trucks, H. B. Schlegel, G. E. Scuseria, 
 M. A. Robb, J. R. Cheeseman, G. Scalmani, V. Barone, 
 G. A. Petersson, H. Nakatsuji, X. Li, M. Caricato, A. V. Marenich, 
 J. Bloino, B. G. Janesko, R. Gomperts, B. Mennucci, H. P. Hratchian, 
 J. V. Ortiz, A. F. Izmaylov, J. L. Sonnenberg, D. Williams-Young, 
 F. Ding, F. Lipparini, F. Egidi, J. Goings, B. Peng, A. Petrone, 
 T. Henderson, D. Ranasinghe, V. G. Zakrzewski, J. Gao, N. Rega, 
 G. Zheng, W. Liang, M. Hada, M. Ehara, K. Toyota, R. Fukuda, 
 J. Hasegawa, M. Ishida, T. Nakajima, Y. Honda, O. Kitao, H. Nakai, 
 T. Vreven, K. Throssell, J. A. Montgomery, Jr., J. E. Peralta, 
 F. Ogliaro, M. J. Bearpark, J. J. Heyd, E. N. Brothers, K. N. Kudin, 
 V. N. Staroverov, T. A. Keith, R. Kobayashi, J. Normand, 
 K. Raghavachari, A. P. Rendell, J. C. Burant, S. S. Iyengar, 
 J. Tomasi, M. Cossi, J. M. Millam, M. Klene, C. Adamo, R. Cammi, 
 J. W. Ochterski, R. L. Martin, K. Morokuma, O. Farkas, 
 J. B. Foresman, and D. J. Fox, Gaussian, Inc., Wallingford CT, 2016.
 
 ******************************************
 Gaussian 16:  ES64L-G16RevB.01 20-Dec-2017
                13-Nov-2023 
 ******************************************
 %mem=14GB
 %chk=checkpoint.chk
 %nprocshared=16
 Will use up to   16 processors via shared memory.
 -------------------------
 #P B3LYP/6-311+g(d) force
 -------------------------
 1/10=7,30=1,38=1/1,3;
 2/12=2,17=6,18=5,40=1/2;
 3/5=4,6=6,7=11,11=2,25=1,30=1,71=1,74=-5/1,2,3;
 4//1;
 5/5=2,38=5/2;
 6/7=2,8=2,9=2,10=2,28=1/1;
 7/29=1/1,2,3,16;
 1/10=7,30=1/3;
 99//99;
 Leave Link    1 at Mon Nov 13 12:27:53 2023, MaxMem=  1879048192 cpu:               0.3 elap:               0.0
 (Enter /home/sekinelabo/g16/l101.exe)
 ------------------------------
 Gaussian input prepared by ASE
 ------------------------------
 Symbolic Z-matrix:
 Charge =  0 Multiplicity = 2
 Na                    2.87524   0.70039   2.62817 
 Na                    3.03718   2.13748   0. 
 Na                    5.17108   0.17645   0.77127 
 Na                    4.96539   2.80546   2.19552 
 Na                    2.08531   3.59242   2.43618 
 Na                    0.0956    2.52241   0.46061 
 Na                    0.        0.        2.09505 
 
 ITRead=  0  0  0  0  0  0  0
 MicOpt= -1 -1 -1 -1 -1 -1 -1
 NAtoms=      7 NQM=        7 NQMF=       0 NMMI=      0 NMMIF=      0
                NMic=       0 NMicF=      0.
                    Isotopes and Nuclear Properties:
 (Nuclear quadrupole moments (NQMom) in fm**2, nuclear magnetic moments (NMagM)
  in nuclear magnetons)

  Atom         1           2           3           4           5           6           7
 IAtWgt=          23          23          23          23          23          23          23
 AtmWgt=  22.9897697  22.9897697  22.9897697  22.9897697  22.9897697  22.9897697  22.9897697
 NucSpn=           3           3           3           3           3           3           3
 AtZEff=  -0.0000000  -0.0000000  -0.0000000  -0.0000000  -0.0000000  -0.0000000  -0.0000000
 NQMom=   10.4000000  10.4000000  10.4000000  10.4000000  10.4000000  10.4000000  10.4000000
 NMagM=    2.2175200   2.2175200   2.2175200   2.2175200   2.2175200   2.2175200   2.2175200
 AtZNuc=  11.0000000  11.0000000  11.0000000  11.0000000  11.0000000  11.0000000  11.0000000
 Leave Link  101 at Mon Nov 13 12:27:54 2023, MaxMem=  1879048192 cpu:               2.6 elap:               0.2
 (Enter /home/sekinelabo/g16/l103.exe)

 GradGradGradGradGradGradGradGradGradGradGradGradGradGradGradGradGradGrad
 Berny optimization.
 Initialization pass.
 Trust Radius=3.00D-01 FncErr=1.00D-07 GrdErr=1.00D-07 EigMax=2.50D+02 EigMin=1.00D-04
 Number of steps in this run=      2 maximum allowed number of steps=      2.
 GradGradGradGradGradGradGradGradGradGradGradGradGradGradGradGradGradGrad

 Leave Link  103 at Mon Nov 13 12:27:54 2023, MaxMem=  1879048192 cpu:               0.2 elap:               0.0
 (Enter /home/sekinelabo/g16/l202.exe)
                          Input orientation:                          
 ---------------------------------------------------------------------
 Center     Atomic      Atomic             Coordinates (Angstroms)
 Number     Number       Type             X           Y           Z
 ---------------------------------------------------------------------
      1         11           0        2.875239    0.700386    2.628169
      2         11           0        3.037184    2.137484    0.000000
      3         11           0        5.171083    0.176450    0.771273
      4         11           0        4.965391    2.805459    2.195519
      5         11           0        2.085310    3.592420    2.436184
      6         11           0        0.095599    2.522408    0.460612
      7         11           0        0.000000    0.000000    2.095049
 ---------------------------------------------------------------------
                    Distance matrix (angstroms):
                    1          2          3          4          5
     1  Na   0.000000
     2  Na   2.999792   0.000000
     3  Na   2.998912   2.999006   0.000000
     4  Na   2.997874   2.997412   2.997077   0.000000
     5  Na   3.004115   2.992974   4.895179   2.995345   0.000000
     6  Na   3.967930   3.002208   5.600051   5.177344   3.001127
     7  Na   3.006951   4.264101   5.340751   5.704016   4.167778
                    6          7
     6  Na   0.000000
     7  Na   3.007170   0.000000
 Stoichiometry    Na7(2)
 Framework group  C1[X(Na7)]
 Deg. of freedom    15
 Full point group                 C1      NOp   1
 Largest Abelian subgroup         C1      NOp   1
 Largest concise Abelian subgroup C1      NOp   1
                         Standard orientation:                         
 ---------------------------------------------------------------------
 Center     Atomic      Atomic             Coordinates (Angstroms)
 Number     Number       Type             X           Y           Z
 ---------------------------------------------------------------------
      1         11           0        0.270981    1.004558   -1.115768
      2         11           0        0.432926   -0.432540    1.512401
      3         11           0        2.566825    1.528494    0.741128
      4         11           0        2.361133   -1.100515   -0.683119
      5         11           0       -0.518948   -1.887476   -0.923783
      6         11           0       -2.508659   -0.817464    1.051789
      7         11           0       -2.604258    1.704944   -0.582648
 ---------------------------------------------------------------------
 Rotational constants (GHZ):           1.1737524           0.6739759           0.5838637
 Leave Link  202 at Mon Nov 13 12:27:54 2023, MaxMem=  1879048192 cpu:               0.1 elap:               0.0
 (Enter /home/sekinelabo/g16/l301.exe)
 Standard basis: 6-311+G(d) (5D, 7F)
 Ernie: Thresh=  0.10000D-02 Tol=  0.10000D-05 Strict=F.
 There are   217 symmetry adapted cartesian basis functions of A   symmetry.
 There are   210 symmetry adapted basis functions of A   symmetry.
   210 basis functions,   350 primitive gaussians,   217 cartesian basis functions
    39 alpha electrons       38 beta electrons
       nuclear repulsion energy       384.0785574893 Hartrees.
 IExCor=  402 DFT=T Ex+Corr=B3LYP ExCW=0 ScaHFX=  0.200000
 ScaDFX=  0.800000  0.720000  1.000000  0.810000 ScalE2=  1.000000  1.000000
 IRadAn=      5 IRanWt=     -1 IRanGd=            0 ICorTp=0 IEmpDi=  4
 NAtoms=    7 NActive=    7 NUniq=    7 SFac= 1.00D+00 NAtFMM=   60 NAOKFM=F Big=F
 Integral buffers will be    131072 words long.
 Raffenetti 2 integral format.
 Two-electron integral symmetry is turned on.
 Leave Link  301 at Mon Nov 13 12:27:54 2023, MaxMem=  1879048192 cpu:               0.5 elap:               0.0
 (Enter /home/sekinelabo/g16/l302.exe)
 NPDir=0 NMtPBC=     1 NCelOv=     1 NCel=       1 NClECP=     1 NCelD=      1
         NCelK=      1 NCelE2=     1 NClLst=     1 CellRange=     0.0.
 One-electron integrals computed using PRISM.
 One-electron integral symmetry used in STVInt
 NBasis=   210 RedAO= T EigKep=  2.47D-06  NBF=   210
 NBsUse=   210 1.00D-06 EigRej= -1.00D+00 NBFU=   210
 Precomputing XC quadrature grid using
 IXCGrd= 4 IRadAn=           5 IRanWt=          -1 IRanGd=           0 AccXCQ= 0.00D+00.
 Generated NRdTot=       0 NPtTot=           0 NUsed=           0 NTot=          32
 NSgBfM=   210   210   210   210   210 MxSgAt=     7 MxSgA2=     7.
 Leave Link  302 at Mon Nov 13 12:27:54 2023, MaxMem=  1879048192 cpu:               2.1 elap:               0.1
 (Enter /home/sekinelabo/g16/l303.exe)
 DipDrv:  MaxL=1.
 Leave Link  303 at Mon Nov 13 12:27:54 2023, MaxMem=  1879048192 cpu:               0.6 elap:               0.0
 (Enter /home/sekinelabo/g16/l401.exe)
 ExpMin= 7.60D-03 ExpMax= 3.62D+04 ExpMxC= 1.21D+03 IAcc=3 IRadAn=         5 AccDes= 0.00D+00
 Harris functional with IExCor=  402 and IRadAn=       5 diagonalized for initial guess.
 HarFok:  IExCor=  402 AccDes= 0.00D+00 IRadAn=         5 IDoV= 1 UseB2=F ITyADJ=14
 ICtDFT=  3500011 ScaDFX=  1.000000  1.000000  1.000000  1.000000
 FoFCou: FMM=F IPFlag=           0 FMFlag=      100000 FMFlg1=           0
         NFxFlg=           0 DoJE=T BraDBF=F KetDBF=T FulRan=T
         wScrn=  0.000000 ICntrl=       500 IOpCl=  0 I1Cent=   200000004 NGrid=           0
         NMat0=    1 NMatS0=      1 NMatT0=    0 NMatD0=    1 NMtDS0=    0 NMtDT0=    0
 Petite list used in FoFCou.
 Harris En= -1135.87321972579    
 JPrj=0 DoOrth=F DoCkMO=F.
 Initial guess <Sx>= 0.0000 <Sy>= 0.0000 <Sz>= 0.5000 <S**2>= 0.7500 S= 0.5000
 Leave Link  401 at Mon Nov 13 12:27:54 2023, MaxMem=  1879048192 cpu:               4.8 elap:               0.3
 (Enter /home/sekinelabo/g16/l502.exe)
 Keep R1 and R2 ints in memory in canonical form, NReq=507620374.
 FoFCou: FMM=F IPFlag=           0 FMFlag=           0 FMFlg1=           0
         NFxFlg=           0 DoJE=F BraDBF=F KetDBF=F FulRan=T
         wScrn=  0.000000 ICntrl=       600 IOpCl=  0 I1Cent=           0 NGrid=           0
         NMat0=    1 NMatS0=  22155 NMatT0=    0 NMatD0=    1 NMtDS0=    0 NMtDT0=    0
 Symmetry not used in FoFCou.
 Two-electron integral symmetry not used.
 UHF open shell SCF:
 Using DIIS extrapolation, IDIIS=  1040.
 NGot=  1879048192 LenX=  1388082362 LenY=  1388034832
 Requested convergence on RMS density matrix=1.00D-08 within 128 cycles.
 Requested convergence on MAX density matrix=1.00D-06.
 Requested convergence on             energy=1.00D-06.
 No special actions if energy rises.

 Cycle   1  Pass 1  IDiag  1:
 E= -1136.05428642629    
 DIIS: error= 1.37D-02 at cycle   1 NSaved=   1.
 NSaved= 1 IEnMin= 1 EnMin= -1136.05428642629     IErMin= 1 ErrMin= 1.37D-02
 ErrMax= 1.37D-02  0.00D+00 EMaxC= 1.00D-01 BMatC= 2.06D-01 BMatP= 2.06D-01
 IDIUse=3 WtCom= 8.63D-01 WtEn= 1.37D-01
 Coeff-Com:  0.100D+01
 Coeff-En:   0.100D+01
 Coeff:      0.100D+01
 Gap=     0.044 Goal=   None    Shift=    0.000
 Gap=     0.038 Goal=   None    Shift=    0.000
 GapD=    0.038 DampG=0.250 DampE=0.500 DampFc=0.2500 IDamp=-1.
 Damping current iteration by 2.50D-01
 RMSDP=9.05D-02 MaxDP=7.40D+00              OVMax= 2.73D-01

 Cycle   2  Pass 1  IDiag  1:
 E= -1136.07047101015     Delta-E=       -0.016184583867 Rises=F Damp=T
 DIIS: error= 8.46D-03 at cycle   2 NSaved=   2.
 NSaved= 2 IEnMin= 2 EnMin= -1136.07047101015     IErMin= 2 ErrMin= 8.46D-03
 ErrMax= 8.46D-03  0.00D+00 EMaxC= 1.00D-01 BMatC= 7.69D-02 BMatP= 2.06D-01
 IDIUse=3 WtCom= 9.15D-01 WtEn= 8.46D-02
 Coeff-Com: -0.122D+01 0.222D+01
 Coeff-En:   0.000D+00 0.100D+01
 Coeff:     -0.111D+01 0.211D+01
 Gap=     0.060 Goal=   None    Shift=    0.000
 Gap=     0.041 Goal=   None    Shift=    0.000
 RMSDP=3.27D-02 MaxDP=3.42D+00 DE=-1.62D-02 OVMax= 2.43D-01

 Cycle   3  Pass 1  IDiag  1:
 E= -1136.09269484255     Delta-E=       -0.022223832396 Rises=F Damp=F
 DIIS: error= 4.82D-03 at cycle   3 NSaved=   3.
 NSaved= 3 IEnMin= 3 EnMin= -1136.09269484255     IErMin= 3 ErrMin= 4.82D-03
 ErrMax= 4.82D-03  0.00D+00 EMaxC= 1.00D-01 BMatC= 8.78D-03 BMatP= 7.69D-02
 IDIUse=3 WtCom= 9.52D-01 WtEn= 4.82D-02
 Coeff-Com: -0.432D+00 0.767D+00 0.665D+00
 Coeff-En:   0.000D+00 0.000D+00 0.100D+01
 Coeff:     -0.411D+00 0.730D+00 0.681D+00
 Gap=     0.056 Goal=   None    Shift=    0.000
 Gap=     0.040 Goal=   None    Shift=    0.000
 RMSDP=2.13D-02 MaxDP=1.76D+00 DE=-2.22D-02 OVMax= 1.59D-01

 Cycle   4  Pass 1  IDiag  1:
 E= -1136.09289188217     Delta-E=       -0.000197039618 Rises=F Damp=F
 DIIS: error= 4.43D-03 at cycle   4 NSaved=   4.
 NSaved= 4 IEnMin= 4 EnMin= -1136.09289188217     IErMin= 4 ErrMin= 4.43D-03
 ErrMax= 4.43D-03  0.00D+00 EMaxC= 1.00D-01 BMatC= 7.10D-03 BMatP= 8.78D-03
 IDIUse=3 WtCom= 9.56D-01 WtEn= 4.43D-02
 Coeff-Com: -0.338D-01 0.583D-01 0.467D+00 0.509D+00
 Coeff-En:   0.000D+00 0.000D+00 0.495D+00 0.505D+00
 Coeff:     -0.323D-01 0.557D-01 0.468D+00 0.508D+00
 Gap=     0.057 Goal=   None    Shift=    0.000
 Gap=     0.039 Goal=   None    Shift=    0.000
 RMSDP=6.86D-03 MaxDP=5.34D-01 DE=-1.97D-04 OVMax= 1.12D-01

 Cycle   5  Pass 1  IDiag  1:
 E= -1136.09927539309     Delta-E=       -0.006383510917 Rises=F Damp=F
 DIIS: error= 1.53D-03 at cycle   5 NSaved=   5.
 NSaved= 5 IEnMin= 5 EnMin= -1136.09927539309     IErMin= 5 ErrMin= 1.53D-03
 ErrMax= 1.53D-03  0.00D+00 EMaxC= 1.00D-01 BMatC= 7.41D-04 BMatP= 7.10D-03
 IDIUse=3 WtCom= 9.85D-01 WtEn= 1.53D-02
 Coeff-Com: -0.551D-02 0.666D-02 0.269D+00 0.334D+00 0.396D+00
 Coeff-En:   0.000D+00 0.000D+00 0.000D+00 0.861D-01 0.914D+00
 Coeff:     -0.542D-02 0.656D-02 0.265D+00 0.330D+00 0.404D+00
 Gap=     0.056 Goal=   None    Shift=    0.000
 Gap=     0.039 Goal=   None    Shift=    0.000
 RMSDP=1.86D-03 MaxDP=1.42D-01 DE=-6.38D-03 OVMax= 2.92D-02

 Cycle   6  Pass 1  IDiag  1:
 E= -1136.10004422644     Delta-E=       -0.000768833355 Rises=F Damp=F
 DIIS: error= 1.51D-04 at cycle   6 NSaved=   6.
 NSaved= 6 IEnMin= 6 EnMin= -1136.10004422644     IErMin= 6 ErrMin= 1.51D-04
 ErrMax= 1.51D-04  0.00D+00 EMaxC= 1.00D-01 BMatC= 7.49D-06 BMatP= 7.41D-04
 IDIUse=3 WtCom= 9.98D-01 WtEn= 1.51D-03
 Coeff-Com: -0.159D-02 0.166D-02-0.123D-01-0.171D-01 0.557D-01 0.974D+00
 Coeff-En:   0.000D+00 0.000D+00 0.000D+00 0.000D+00 0.000D+00 0.100D+01
 Coeff:     -0.159D-02 0.166D-02-0.123D-01-0.170D-01 0.556D-01 0.974D+00
 Gap=     0.056 Goal=   None    Shift=    0.000
 Gap=     0.039 Goal=   None    Shift=    0.000
 RMSDP=5.61D-04 MaxDP=5.64D-02 DE=-7.69D-04 OVMax= 5.61D-03

 Cycle   7  Pass 1  IDiag  1:
 E= -1136.10005544415     Delta-E=       -0.000011217711 Rises=F Damp=F
 DIIS: error= 9.86D-05 at cycle   7 NSaved=   7.
 NSaved= 7 IEnMin= 7 EnMin= -1136.10005544415     IErMin= 7 ErrMin= 9.86D-05
 ErrMax= 9.86D-05  0.00D+00 EMaxC= 1.00D-01 BMatC= 3.71D-06 BMatP= 7.49D-06
 IDIUse=1 WtCom= 1.00D+00 WtEn= 0.00D+00
 Coeff-Com: -0.342D-03 0.210D-03-0.279D-01-0.356D-01 0.178D-02 0.563D+00
 Coeff-Com:  0.499D+00
 Coeff:     -0.342D-03 0.210D-03-0.279D-01-0.356D-01 0.178D-02 0.563D+00
 Coeff:      0.499D+00
 Gap=     0.056 Goal=   None    Shift=    0.000
 Gap=     0.039 Goal=   None    Shift=    0.000
 RMSDP=2.83D-04 MaxDP=2.80D-02 DE=-1.12D-05 OVMax= 3.04D-03

 Cycle   8  Pass 1  IDiag  1:
 E= -1136.10006039572     Delta-E=       -0.000004951565 Rises=F Damp=F
 DIIS: error= 3.95D-05 at cycle   8 NSaved=   8.
 NSaved= 8 IEnMin= 8 EnMin= -1136.10006039572     IErMin= 8 ErrMin= 3.95D-05
 ErrMax= 3.95D-05  0.00D+00 EMaxC= 1.00D-01 BMatC= 4.16D-07 BMatP= 3.71D-06
 IDIUse=1 WtCom= 1.00D+00 WtEn= 0.00D+00
 Coeff-Com:  0.101D-02-0.132D-02-0.409D-03 0.126D-02-0.209D-01-0.280D+00
 Coeff-Com:  0.100D+00 0.120D+01
 Coeff:      0.101D-02-0.132D-02-0.409D-03 0.126D-02-0.209D-01-0.280D+00
 Coeff:      0.100D+00 0.120D+01
 Gap=     0.056 Goal=   None    Shift=    0.000
 Gap=     0.040 Goal=   None    Shift=    0.000
 RMSDP=2.59D-04 MaxDP=1.74D-02 DE=-4.95D-06 OVMax= 2.70D-03

 Cycle   9  Pass 1  IDiag  1:
 E= -1136.10006230493     Delta-E=       -0.000001909211 Rises=F Damp=F
 DIIS: error= 1.76D-05 at cycle   9 NSaved=   9.
 NSaved= 9 IEnMin= 9 EnMin= -1136.10006230493     IErMin= 9 ErrMin= 1.76D-05
 ErrMax= 1.76D-05  0.00D+00 EMaxC= 1.00D-01 BMatC= 7.82D-08 BMatP= 4.16D-07
 IDIUse=1 WtCom= 1.00D+00 WtEn= 0.00D+00
 Coeff-Com:  0.383D-03-0.467D-03 0.136D-02 0.252D-02-0.889D-02-0.145D+00
 Coeff-Com: -0.167D-01 0.398D+00 0.769D+00
 Coeff:      0.383D-03-0.467D-03 0.136D-02 0.252D-02-0.889D-02-0.145D+00
 Coeff:     -0.167D-01 0.398D+00 0.769D+00
 Gap=     0.056 Goal=   None    Shift=    0.000
 Gap=     0.040 Goal=   None    Shift=    0.000
 RMSDP=8.06D-05 MaxDP=7.24D-03 DE=-1.91D-06 OVMax= 9.54D-04

 Cycle  10  Pass 1  IDiag  1:
 E= -1136.10006258057     Delta-E=       -0.000000275641 Rises=F Damp=F
 DIIS: error= 1.03D-05 at cycle  10 NSaved=  10.
 NSaved=10 IEnMin=10 EnMin= -1136.10006258057     IErMin=10 ErrMin= 1.03D-05
 ErrMax= 1.03D-05  0.00D+00 EMaxC= 1.00D-01 BMatC= 3.74D-08 BMatP= 7.82D-08
 IDIUse=1 WtCom= 1.00D+00 WtEn= 0.00D+00
 Coeff-Com: -0.120D-03 0.176D-03 0.102D-02 0.784D-03 0.284D-02 0.205D-01
 Coeff-Com: -0.506D-01-0.226D+00 0.425D+00 0.826D+00
 Coeff:     -0.120D-03 0.176D-03 0.102D-02 0.784D-03 0.284D-02 0.205D-01
 Coeff:     -0.506D-01-0.226D+00 0.425D+00 0.826D+00
 Gap=     0.056 Goal=   None    Shift=    0.000
 Gap=     0.040 Goal=   None    Shift=    0.000
 RMSDP=7.78D-05 MaxDP=5.99D-03 DE=-2.76D-07 OVMax= 7.28D-04

 Cycle  11  Pass 1  IDiag  1:
 E= -1136.10006272244     Delta-E=       -0.000000141873 Rises=F Damp=F
 DIIS: error= 4.65D-06 at cycle  11 NSaved=  11.
 NSaved=11 IEnMin=11 EnMin= -1136.10006272244     IErMin=11 ErrMin= 4.65D-06
 ErrMax= 4.65D-06  0.00D+00 EMaxC= 1.00D-01 BMatC= 8.71D-09 BMatP= 3.74D-08
 IDIUse=1 WtCom= 1.00D+00 WtEn= 0.00D+00
 Coeff-Com: -0.949D-04 0.129D-03 0.657D-03 0.223D-03 0.331D-02 0.299D-01
 Coeff-Com: -0.211D-01-0.164D+00 0.157D-02 0.339D+00 0.811D+00
 Coeff:     -0.949D-04 0.129D-03 0.657D-03 0.223D-03 0.331D-02 0.299D-01
 Coeff:     -0.211D-01-0.164D+00 0.157D-02 0.339D+00 0.811D+00
 Gap=     0.056 Goal=   None    Shift=    0.000
 Gap=     0.040 Goal=   None    Shift=    0.000
 RMSDP=3.56D-05 MaxDP=3.71D-03 DE=-1.42D-07 OVMax= 4.20D-04

 Cycle  12  Pass 1  IDiag  1:
 E= -1136.10006276057     Delta-E=       -0.000000038125 Rises=F Damp=F
 DIIS: error= 2.01D-06 at cycle  12 NSaved=  12.
 NSaved=12 IEnMin=12 EnMin= -1136.10006276057     IErMin=12 ErrMin= 2.01D-06
 ErrMax= 2.01D-06  0.00D+00 EMaxC= 1.00D-01 BMatC= 1.77D-09 BMatP= 8.71D-09
 IDIUse=1 WtCom= 1.00D+00 WtEn= 0.00D+00
 Coeff-Com: -0.411D-04 0.502D-04-0.155D-03-0.258D-03 0.832D-03 0.142D-01
 Coeff-Com:  0.319D-02-0.267D-01-0.853D-01-0.856D-01 0.208D+00 0.972D+00
 Coeff:     -0.411D-04 0.502D-04-0.155D-03-0.258D-03 0.832D-03 0.142D-01
 Coeff:      0.319D-02-0.267D-01-0.853D-01-0.856D-01 0.208D+00 0.972D+00
 Gap=     0.056 Goal=   None    Shift=    0.000
 Gap=     0.040 Goal=   None    Shift=    0.000
 RMSDP=2.10D-05 MaxDP=2.00D-03 DE=-3.81D-08 OVMax= 2.52D-04

 Cycle  13  Pass 1  IDiag  1:
 E= -1136.10006277224     Delta-E=       -0.000000011673 Rises=F Damp=F
 DIIS: error= 1.18D-06 at cycle  13 NSaved=  13.
 NSaved=13 IEnMin=13 EnMin= -1136.10006277224     IErMin=13 ErrMin= 1.18D-06
 ErrMax= 1.18D-06  0.00D+00 EMaxC= 1.00D-01 BMatC= 4.28D-10 BMatP= 1.77D-09
 IDIUse=1 WtCom= 1.00D+00 WtEn= 0.00D+00
 Coeff-Com:  0.114D-04-0.165D-04-0.224D-03-0.559D-04-0.938D-03-0.578D-02
 Coeff-Com:  0.659D-02 0.410D-01-0.110D-01-0.101D+00-0.216D+00 0.747D-01
 Coeff-Com:  0.121D+01
 Coeff:      0.114D-04-0.165D-04-0.224D-03-0.559D-04-0.938D-03-0.578D-02
 Coeff:      0.659D-02 0.410D-01-0.110D-01-0.101D+00-0.216D+00 0.747D-01
 Coeff:      0.121D+01
 Gap=     0.056 Goal=   None    Shift=    0.000
 Gap=     0.040 Goal=   None    Shift=    0.000
 RMSDP=1.30D-05 MaxDP=1.21D-03 DE=-1.17D-08 OVMax= 1.81D-04

 Cycle  14  Pass 1  IDiag  1:
 E= -1136.10006277600     Delta-E=       -0.000000003756 Rises=F Damp=F
 DIIS: error= 5.38D-07 at cycle  14 NSaved=  14.
 NSaved=14 IEnMin=14 EnMin= -1136.10006277600     IErMin=14 ErrMin= 5.38D-07
 ErrMax= 5.38D-07  0.00D+00 EMaxC= 1.00D-01 BMatC= 6.22D-11 BMatP= 4.28D-10
 IDIUse=1 WtCom= 1.00D+00 WtEn= 0.00D+00
 Coeff-Com:  0.102D-04-0.123D-04 0.718D-04 0.749D-04-0.330D-04-0.229D-02
 Coeff-Com: -0.155D-02-0.398D-02 0.237D-01 0.463D-01-0.305D-02-0.226D+00
 Coeff-Com: -0.270D+00 0.144D+01
 Coeff:      0.102D-04-0.123D-04 0.718D-04 0.749D-04-0.330D-04-0.229D-02
 Coeff:     -0.155D-02-0.398D-02 0.237D-01 0.463D-01-0.305D-02-0.226D+00
 Coeff:     -0.270D+00 0.144D+01
 Gap=     0.056 Goal=   None    Shift=    0.000
 Gap=     0.040 Goal=   None    Shift=    0.000
 RMSDP=5.59D-06 MaxDP=5.04D-04 DE=-3.76D-09 OVMax= 9.78D-05

 Cycle  15  Pass 1  IDiag  1:
 E= -1136.10006277667     Delta-E=       -0.000000000679 Rises=F Damp=F
 DIIS: error= 1.99D-07 at cycle  15 NSaved=  15.
 NSaved=15 IEnMin=15 EnMin= -1136.10006277667     IErMin=15 ErrMin= 1.99D-07
 ErrMax= 1.99D-07  0.00D+00 EMaxC= 1.00D-01 BMatC= 6.61D-12 BMatP= 6.22D-11
 IDIUse=1 WtCom= 1.00D+00 WtEn= 0.00D+00
 Coeff-Com: -0.487D-05 0.646D-05 0.210D-04 0.665D-05 0.119D-03 0.992D-03
 Coeff-Com: -0.456D-03-0.449D-02-0.170D-02 0.724D-02 0.257D-01 0.152D-01
 Coeff-Com: -0.128D+00-0.967D-01 0.118D+01
 Coeff:     -0.487D-05 0.646D-05 0.210D-04 0.665D-05 0.119D-03 0.992D-03
 Coeff:     -0.456D-03-0.449D-02-0.170D-02 0.724D-02 0.257D-01 0.152D-01
 Coeff:     -0.128D+00-0.967D-01 0.118D+01
 Gap=     0.056 Goal=   None    Shift=    0.000
 Gap=     0.040 Goal=   None    Shift=    0.000
 RMSDP=1.28D-06 MaxDP=1.12D-04 DE=-6.79D-10 OVMax= 3.41D-05

 Cycle  16  Pass 1  IDiag  1:
 E= -1136.10006277673     Delta-E=       -0.000000000058 Rises=F Damp=F
 DIIS: error= 1.20D-07 at cycle  16 NSaved=  16.
 NSaved=16 IEnMin=16 EnMin= -1136.10006277673     IErMin=16 ErrMin= 1.20D-07
 ErrMax= 1.20D-07  0.00D+00 EMaxC= 1.00D-01 BMatC= 2.14D-12 BMatP= 6.61D-12
 IDIUse=1 WtCom= 1.00D+00 WtEn= 0.00D+00
 Coeff-Com: -0.186D-05 0.224D-05-0.142D-04-0.109D-04-0.222D-04 0.359D-03
 Coeff-Com:  0.504D-03 0.161D-02-0.499D-02-0.113D-01-0.571D-02 0.499D-01
 Coeff-Com:  0.819D-01-0.326D+00 0.280D-01 0.119D+01
 Coeff:     -0.186D-05 0.224D-05-0.142D-04-0.109D-04-0.222D-04 0.359D-03
 Coeff:      0.504D-03 0.161D-02-0.499D-02-0.113D-01-0.571D-02 0.499D-01
 Coeff:      0.819D-01-0.326D+00 0.280D-01 0.119D+01
 Gap=     0.056 Goal=   None    Shift=    0.000
 Gap=     0.040 Goal=   None    Shift=    0.000
 RMSDP=6.80D-07 MaxDP=4.35D-05 DE=-5.78D-11 OVMax= 1.97D-05

 Cycle  17  Pass 1  IDiag  1:
 E= -1136.10006277676     Delta-E=       -0.000000000027 Rises=F Damp=F
 DIIS: error= 6.67D-08 at cycle  17 NSaved=  17.
 NSaved=17 IEnMin=17 EnMin= -1136.10006277676     IErMin=17 ErrMin= 6.67D-08
 ErrMax= 6.67D-08  0.00D+00 EMaxC= 1.00D-01 BMatC= 6.72D-13 BMatP= 2.14D-12
 IDIUse=1 WtCom= 1.00D+00 WtEn= 0.00D+00
 Coeff-Com:  0.107D-05-0.147D-05-0.113D-04-0.535D-05-0.345D-04-0.136D-03
 Coeff-Com:  0.175D-03 0.801D-03 0.464D-03-0.168D-02-0.785D-02-0.342D-02
 Coeff-Com:  0.433D-01 0.191D-02-0.323D+00 0.315D-01 0.126D+01
 Coeff:      0.107D-05-0.147D-05-0.113D-04-0.535D-05-0.345D-04-0.136D-03
 Coeff:      0.175D-03 0.801D-03 0.464D-03-0.168D-02-0.785D-02-0.342D-02
 Coeff:      0.433D-01 0.191D-02-0.323D+00 0.315D-01 0.126D+01
 Gap=     0.056 Goal=   None    Shift=    0.000
 Gap=     0.040 Goal=   None    Shift=    0.000
 RMSDP=5.24D-07 MaxDP=4.29D-05 DE=-2.68D-11 OVMax= 1.38D-05

 Cycle  18  Pass 1  IDiag  1:
 E= -1136.10006277676     Delta-E=       -0.000000000003 Rises=F Damp=F
 DIIS: error= 3.07D-08 at cycle  18 NSaved=  18.
 NSaved=18 IEnMin=18 EnMin= -1136.10006277676     IErMin=18 ErrMin= 3.07D-08
 ErrMax= 3.07D-08  0.00D+00 EMaxC= 1.00D-01 BMatC= 1.35D-13 BMatP= 6.72D-13
 IDIUse=1 WtCom= 1.00D+00 WtEn= 0.00D+00
 Coeff-Com:  0.329D-06-0.394D-06-0.829D-06-0.100D-06-0.108D-05-0.913D-04
 Coeff-Com: -0.577D-04-0.997D-04 0.990D-03 0.173D-02-0.802D-03-0.986D-02
 Coeff-Com: -0.859D-02 0.656D-01-0.144D-01-0.318D+00 0.134D+00 0.115D+01
 Coeff:      0.329D-06-0.394D-06-0.829D-06-0.100D-06-0.108D-05-0.913D-04
 Coeff:     -0.577D-04-0.997D-04 0.990D-03 0.173D-02-0.802D-03-0.986D-02
 Coeff:     -0.859D-02 0.656D-01-0.144D-01-0.318D+00 0.134D+00 0.115D+01
 Gap=     0.056 Goal=   None    Shift=    0.000
 Gap=     0.040 Goal=   None    Shift=    0.000
 RMSDP=2.54D-07 MaxDP=2.61D-05 DE=-3.18D-12 OVMax= 6.63D-06

 Cycle  19  Pass 1  IDiag  1:
 E= -1136.10006277677     Delta-E=       -0.000000000006 Rises=F Damp=F
 DIIS: error= 1.15D-08 at cycle  19 NSaved=  19.
 NSaved=19 IEnMin=19 EnMin= -1136.10006277677     IErMin=19 ErrMin= 1.15D-08
 ErrMax= 1.15D-08  0.00D+00 EMaxC= 1.00D-01 BMatC= 4.05D-14 BMatP= 1.35D-13
 IDIUse=1 WtCom= 1.00D+00 WtEn= 0.00D+00
 Coeff-Com: -0.402D-06 0.536D-06 0.245D-05 0.126D-05 0.809D-05 0.702D-04
 Coeff-Com: -0.218D-04-0.269D-03-0.265D-03 0.161D-03 0.223D-02 0.308D-02
 Coeff-Com: -0.110D-01-0.127D-01 0.919D-01 0.264D-01-0.354D+00-0.875D-01
 Coeff-Com:  0.134D+01
 Coeff:     -0.402D-06 0.536D-06 0.245D-05 0.126D-05 0.809D-05 0.702D-04
 Coeff:     -0.218D-04-0.269D-03-0.265D-03 0.161D-03 0.223D-02 0.308D-02
 Coeff:     -0.110D-01-0.127D-01 0.919D-01 0.264D-01-0.354D+00-0.875D-01
 Coeff:      0.134D+01
 Gap=     0.056 Goal=   None    Shift=    0.000
 Gap=     0.040 Goal=   None    Shift=    0.000
 RMSDP=1.60D-07 MaxDP=1.47D-05 DE=-6.37D-12 OVMax= 3.40D-06

 Cycle  20  Pass 1  IDiag  1:
 E= -1136.10006277677     Delta-E=       -0.000000000004 Rises=F Damp=F
 DIIS: error= 4.77D-09 at cycle  20 NSaved=  20.
 NSaved=20 IEnMin=20 EnMin= -1136.10006277677     IErMin=20 ErrMin= 4.77D-09
 ErrMax= 4.77D-09  0.00D+00 EMaxC= 1.00D-01 BMatC= 7.13D-15 BMatP= 4.05D-14
 IDIUse=1 WtCom= 1.00D+00 WtEn= 0.00D+00
 Large coefficients: NSaved= 20 BigCof=    0.00 CofMax=   10.00 Det=-4.48D-15
 Inversion failed.  Reducing to 19 matrices.
 Large coefficients: NSaved= 19 BigCof=    0.00 CofMax=   10.00 Det=-4.83D-15
 Inversion failed.  Reducing to 18 matrices.
 Large coefficients: NSaved= 18 BigCof=    0.00 CofMax=   10.00 Det=-4.92D-15
 Inversion failed.  Reducing to 17 matrices.
 Large coefficients: NSaved= 17 BigCof=    0.00 CofMax=   10.00 Det=-5.34D-15
 Inversion failed.  Reducing to 16 matrices.
 Large coefficients: NSaved= 16 BigCof=    0.00 CofMax=   10.00 Det=-5.91D-15
 Inversion failed.  Reducing to 15 matrices.
 Coeff-Com:  0.168D-04 0.129D-04 0.294D-04-0.175D-03-0.238D-03-0.207D-03
 Coeff-Com:  0.135D-02 0.345D-02-0.124D-01-0.670D-03 0.414D-01 0.252D-01
 Coeff-Com: -0.183D+00-0.303D+00 0.143D+01
 Coeff:      0.168D-04 0.129D-04 0.294D-04-0.175D-03-0.238D-03-0.207D-03
 Coeff:      0.135D-02 0.345D-02-0.124D-01-0.670D-03 0.414D-01 0.252D-01
 Coeff:     -0.183D+00-0.303D+00 0.143D+01
 Gap=     0.056 Goal=   None    Shift=    0.000
 Gap=     0.040 Goal=   None    Shift=    0.000
 RMSDP=8.91D-08 MaxDP=7.89D-06 DE=-3.64D-12 OVMax= 1.48D-06

 Cycle  21  Pass 1  IDiag  1:
 E= -1136.10006277675     Delta-E=        0.000000000018 Rises=F Damp=F
 DIIS: error= 2.33D-09 at cycle  21 NSaved=  16.
 NSaved=16 IEnMin=15 EnMin= -1136.10006277677     IErMin=16 ErrMin= 2.33D-09
 ErrMax= 2.33D-09  0.00D+00 EMaxC= 1.00D-01 BMatC= 1.70D-15 BMatP= 7.13D-15
 IDIUse=1 WtCom= 1.00D+00 WtEn= 0.00D+00
 Large coefficients: NSaved= 16 BigCof=    0.00 CofMax=   10.00 Det=-1.76D-15
 Inversion failed.  Reducing to 15 matrices.
 Coeff-Com:  0.104D-05 0.150D-04-0.995D-05-0.740D-04-0.209D-03 0.169D-03
 Coeff-Com:  0.183D-02-0.280D-02-0.748D-02 0.110D-01 0.438D-01-0.254D-01
 Coeff-Com: -0.263D+00 0.266D+00 0.976D+00
 Coeff:      0.104D-05 0.150D-04-0.995D-05-0.740D-04-0.209D-03 0.169D-03
 Coeff:      0.183D-02-0.280D-02-0.748D-02 0.110D-01 0.438D-01-0.254D-01
 Coeff:     -0.263D+00 0.266D+00 0.976D+00
 Gap=     0.056 Goal=   None    Shift=    0.000
 Gap=     0.040 Goal=   None    Shift=    0.000
 RMSDP=3.29D-08 MaxDP=3.13D-06 DE= 1.82D-11 OVMax= 3.66D-07

 Cycle  22  Pass 1  IDiag  1:
 E= -1136.10006277677     Delta-E=       -0.000000000013 Rises=F Damp=F
 DIIS: error= 1.37D-09 at cycle  22 NSaved=  16.
 NSaved=16 IEnMin=14 EnMin= -1136.10006277677     IErMin=16 ErrMin= 1.37D-09
 ErrMax= 1.37D-09  0.00D+00 EMaxC= 1.00D-01 BMatC= 4.73D-16 BMatP= 1.70D-15
 IDIUse=1 WtCom= 1.00D+00 WtEn= 0.00D+00
 Large coefficients: NSaved= 16 BigCof=    0.00 CofMax=   10.00 Det=-1.02D-15
 Inversion failed.  Reducing to 15 matrices.
 Coeff-Com: -0.407D-05 0.225D-04 0.128D-04-0.246D-04-0.148D-03-0.703D-04
 Coeff-Com:  0.137D-02-0.298D-02-0.283D-02 0.791D-02 0.274D-01-0.244D-01
 Coeff-Com: -0.207D+00 0.240D+00 0.961D+00
 Coeff:     -0.407D-05 0.225D-04 0.128D-04-0.246D-04-0.148D-03-0.703D-04
 Coeff:      0.137D-02-0.298D-02-0.283D-02 0.791D-02 0.274D-01-0.244D-01
 Coeff:     -0.207D+00 0.240D+00 0.961D+00
 Gap=     0.056 Goal=   None    Shift=    0.000
 Gap=     0.040 Goal=   None    Shift=    0.000
 RMSDP=1.40D-08 MaxDP=9.81D-07 DE=-1.27D-11 OVMax= 1.69D-07

 Cycle  23  Pass 1  IDiag  1:
 E= -1136.10006277677     Delta-E=       -0.000000000005 Rises=F Damp=F
 DIIS: error= 5.61D-10 at cycle  23 NSaved=  16.
 NSaved=16 IEnMin=13 EnMin= -1136.10006277677     IErMin=16 ErrMin= 5.61D-10
 ErrMax= 5.61D-10  0.00D+00 EMaxC= 1.00D-01 BMatC= 1.28D-16 BMatP= 4.73D-16
 IDIUse=1 WtCom= 1.00D+00 WtEn= 0.00D+00
 Large coefficients: NSaved= 16 BigCof=    0.00 CofMax=   10.00 Det=-2.88D-16
 Inversion failed.  Reducing to 15 matrices.
 Coeff-Com: -0.432D-05-0.476D-05 0.349D-04 0.341D-04-0.334D-03 0.586D-03
 Coeff-Com:  0.152D-02-0.431D-02-0.101D-01 0.235D-01 0.547D-01-0.160D+00
 Coeff-Com: -0.109D+00 0.249D+00 0.955D+00
 Coeff:     -0.432D-05-0.476D-05 0.349D-04 0.341D-04-0.334D-03 0.586D-03
 Coeff:      0.152D-02-0.431D-02-0.101D-01 0.235D-01 0.547D-01-0.160D+00
 Coeff:     -0.109D+00 0.249D+00 0.955D+00
 Gap=     0.056 Goal=   None    Shift=    0.000
 Gap=     0.040 Goal=   None    Shift=    0.000
 RMSDP=9.39D-09 MaxDP=9.98D-07 DE=-5.00D-12 OVMax= 8.71D-08

 SCF Done:  E(UB3LYP) =  -1136.10006278     A.U. after   23 cycles
            NFock= 23  Conv=0.94D-08     -V/T= 2.0025
 <Sx>= 0.0000 <Sy>= 0.0000 <Sz>= 0.5000 <S**2>= 0.7667 S= 0.5083
 <L.S>= 0.000000000000E+00
 KE= 1.133320107678D+03 PE=-3.497715177792D+03 EE= 8.442164498480D+02
 Annihilation of the first spin contaminant:
 S**2 before annihilation     0.7667,   after     0.7502
 Leave Link  502 at Mon Nov 13 12:28:13 2023, MaxMem=  1879048192 cpu:             224.0 elap:              19.1
 (Enter /home/sekinelabo/g16/l601.exe)
 Copying SCF densities to generalized density rwf, IOpCl= 1 IROHF=0.

 **********************************************************************

            Population analysis using the SCF Density.

 **********************************************************************

 Orbital symmetries:
 Alpha Orbitals:
       Occupied  (A) (A) (A) (A) (A) (A) (A) (A) (A) (A) (A) (A)
                 (A) (A) (A) (A) (A) (A) (A) (A) (A) (A) (A) (A)
                 (A) (A) (A) (A) (A) (A) (A) (A) (A) (A) (A) (A)
                 (A) (A) (A)
       Virtual   (A) (A) (A) (A) (A) (A) (A) (A) (A) (A) (A) (A)
                 (A) (A) (A) (A) (A) (A) (A) (A) (A) (A) (A) (A)
                 (A) (A) (A) (A) (A) (A) (A) (A) (A) (A) (A) (A)
                 (A) (A) (A) (A) (A) (A) (A) (A) (A) (A) (A) (A)
                 (A) (A) (A) (A) (A) (A) (A) (A) (A) (A) (A) (A)
                 (A) (A) (A) (A) (A) (A) (A) (A) (A) (A) (A) (A)
                 (A) (A) (A) (A) (A) (A) (A) (A) (A) (A) (A) (A)
                 (A) (A) (A) (A) (A) (A) (A) (A) (A) (A) (A) (A)
                 (A) (A) (A) (A) (A) (A) (A) (A) (A) (A) (A) (A)
                 (A) (A) (A) (A) (A) (A) (A) (A) (A) (A) (A) (A)
                 (A) (A) (A) (A) (A) (A) (A) (A) (A) (A) (A) (A)
                 (A) (A) (A) (A) (A) (A) (A) (A) (A) (A) (A) (A)
                 (A) (A) (A) (A) (A) (A) (A) (A) (A) (A) (A) (A)
                 (A) (A) (A) (A) (A) (A) (A) (A) (A) (A) (A) (A)
                 (A) (A) (A)
 Beta  Orbitals:
       Occupied  (A) (A) (A) (A) (A) (A) (A) (A) (A) (A) (A) (A)
                 (A) (A) (A) (A) (A) (A) (A) (A) (A) (A) (A) (A)
                 (A) (A) (A) (A) (A) (A) (A) (A) (A) (A) (A) (A)
                 (A) (A)
       Virtual   (A) (A) (A) (A) (A) (A) (A) (A) (A) (A) (A) (A)
                 (A) (A) (A) (A) (A) (A) (A) (A) (A) (A) (A) (A)
                 (A) (A) (A) (A) (A) (A) (A) (A) (A) (A) (A) (A)
                 (A) (A) (A) (A) (A) (A) (A) (A) (A) (A) (A) (A)
                 (A) (A) (A) (A) (A) (A) (A) (A) (A) (A) (A) (A)
                 (A) (A) (A) (A) (A) (A) (A) (A) (A) (A) (A) (A)
                 (A) (A) (A) (A) (A) (A) (A) (A) (A) (A) (A) (A)
                 (A) (A) (A) (A) (A) (A) (A) (A) (A) (A) (A) (A)
                 (A) (A) (A) (A) (A) (A) (A) (A) (A) (A) (A) (A)
                 (A) (A) (A) (A) (A) (A) (A) (A) (A) (A) (A) (A)
                 (A) (A) (A) (A) (A) (A) (A) (A) (A) (A) (A) (A)
                 (A) (A) (A) (A) (A) (A) (A) (A) (A) (A) (A) (A)
                 (A) (A) (A) (A) (A) (A) (A) (A) (A) (A) (A) (A)
                 (A) (A) (A) (A) (A) (A) (A) (A) (A) (A) (A) (A)
                 (A) (A) (A) (A)
 The electronic state is 2-A.
 Alpha  occ. eigenvalues --  -38.44298 -38.44080 -38.43909 -38.43849 -38.43762
 Alpha  occ. eigenvalues --  -38.43346 -38.42807  -2.20293  -2.20165  -2.19950
 Alpha  occ. eigenvalues --   -2.19895  -2.19744  -2.19526  -2.18893  -1.14050
 Alpha  occ. eigenvalues --   -1.13998  -1.13958  -1.13938  -1.13864  -1.13818
 Alpha  occ. eigenvalues --   -1.13699  -1.13656  -1.13565  -1.13521  -1.13489
 Alpha  occ. eigenvalues --   -1.13479  -1.13447  -1.13386  -1.13358  -1.13211
 Alpha  occ. eigenvalues --   -1.13145  -1.13097  -1.12594  -1.12534  -1.12481
 Alpha  occ. eigenvalues --   -0.20479  -0.14597  -0.11841  -0.11656
 Alpha virt. eigenvalues --   -0.06034  -0.04951  -0.04301  -0.03348  -0.02584
 Alpha virt. eigenvalues --   -0.02281  -0.01855  -0.00771  -0.00236   0.00251
 Alpha virt. eigenvalues --    0.00443   0.00564   0.00765   0.00852   0.00927
 Alpha virt. eigenvalues --    0.00977   0.01058   0.01208   0.01426   0.01461
 Alpha virt. eigenvalues --    0.01479   0.01787   0.01901   0.01984   0.02086
 Alpha virt. eigenvalues --    0.02501   0.02599   0.02664   0.02743   0.02842
 Alpha virt. eigenvalues --    0.02929   0.02957   0.02984   0.03022   0.03158
 Alpha virt. eigenvalues --    0.03194   0.03262   0.03376   0.03893   0.04043
 Alpha virt. eigenvalues --    0.04306   0.04514   0.04792   0.04979   0.05245
 Alpha virt. eigenvalues --    0.05403   0.05454   0.05664   0.05803   0.06180
 Alpha virt. eigenvalues --    0.06571   0.06801   0.06820   0.07195   0.07702
 Alpha virt. eigenvalues --    0.07868   0.08106   0.08331   0.08503   0.08903
 Alpha virt. eigenvalues --    0.09624   0.10387   0.10658   0.11842   0.12006
 Alpha virt. eigenvalues --    0.12502   0.12844   0.13280   0.13331   0.13496
 Alpha virt. eigenvalues --    0.13851   0.14295   0.14675   0.14866   0.15337
 Alpha virt. eigenvalues --    0.15788   0.16372   0.16652   0.17121   0.19424
 Alpha virt. eigenvalues --    0.23677   0.24826   0.27220   0.27694   0.29376
 Alpha virt. eigenvalues --    0.30339   0.31326   0.31778   0.32450   0.32998
 Alpha virt. eigenvalues --    0.34943   0.35873   0.36310   0.37089   0.38412
 Alpha virt. eigenvalues --    0.39914   0.40223   0.41743   0.42635   0.43807
 Alpha virt. eigenvalues --    0.44231   0.44335   0.44523   0.45490   0.46011
 Alpha virt. eigenvalues --    0.46551   0.46772   0.46979   0.47069   0.48006
 Alpha virt. eigenvalues --    0.48431   0.49147   0.49304   0.50724   0.51103
 Alpha virt. eigenvalues --    0.51914   0.52612   0.53178   0.53779   0.54389
 Alpha virt. eigenvalues --    0.54664   0.55811   0.57943   0.65353   0.66563
 Alpha virt. eigenvalues --    0.67118   0.67694   0.69391   0.71297   0.72304
 Alpha virt. eigenvalues --    0.72558   0.73914   0.75651   0.76213   0.79158
 Alpha virt. eigenvalues --    0.81810   2.11255   2.18391   2.22591   2.25788
 Alpha virt. eigenvalues --    2.28329   2.32082   2.35051   4.40551   4.40969
 Alpha virt. eigenvalues --    4.41448   4.41836   4.42483   4.42951   4.45542
 Alpha virt. eigenvalues --    4.45968   4.46837   4.49879   4.51552   4.56298
 Alpha virt. eigenvalues --    4.59316   4.62556   4.64368   4.67380   4.69186
 Alpha virt. eigenvalues --    4.76139   4.78093   4.81836   4.85638  96.32277
 Alpha virt. eigenvalues --   96.41781  96.48034  96.52703  96.56175  96.60977
 Alpha virt. eigenvalues --   96.65395
  Beta  occ. eigenvalues --  -38.44267 -38.44058 -38.43889 -38.43838 -38.43696
  Beta  occ. eigenvalues --  -38.43292 -38.42779  -2.20239  -2.20129  -2.19866
  Beta  occ. eigenvalues --   -2.19826  -2.19727  -2.19433  -2.18849  -1.14000
  Beta  occ. eigenvalues --   -1.13968  -1.13909  -1.13907  -1.13820  -1.13773
  Beta  occ. eigenvalues --   -1.13645  -1.13583  -1.13527  -1.13469  -1.13452
  Beta  occ. eigenvalues --   -1.13442  -1.13379  -1.13373  -1.13343  -1.13152
  Beta  occ. eigenvalues --   -1.13053  -1.13033  -1.12567  -1.12484  -1.12428
  Beta  occ. eigenvalues --   -0.19728  -0.14317  -0.11511
  Beta virt. eigenvalues --   -0.07554  -0.05959  -0.04893  -0.03605  -0.03056
  Beta virt. eigenvalues --   -0.01979  -0.01738  -0.01324  -0.00651   0.00007
  Beta virt. eigenvalues --    0.00290   0.00432   0.00578   0.00831   0.00899
  Beta virt. eigenvalues --    0.01022   0.01084   0.01155   0.01281   0.01557
  Beta virt. eigenvalues --    0.01569   0.01661   0.01835   0.01956   0.02042
  Beta virt. eigenvalues --    0.02246   0.02521   0.02589   0.02670   0.02790
  Beta virt. eigenvalues --    0.02879   0.02963   0.02990   0.03014   0.03127
  Beta virt. eigenvalues --    0.03250   0.03309   0.03343   0.03414   0.04033
  Beta virt. eigenvalues --    0.04176   0.04491   0.04610   0.04928   0.05153
  Beta virt. eigenvalues --    0.05406   0.05467   0.05619   0.05863   0.05983
  Beta virt. eigenvalues --    0.06191   0.06572   0.06832   0.06888   0.07289
  Beta virt. eigenvalues --    0.07787   0.08082   0.08275   0.08375   0.08621
  Beta virt. eigenvalues --    0.09013   0.09918   0.10619   0.10978   0.12136
  Beta virt. eigenvalues --    0.12278   0.12757   0.13089   0.13465   0.13574
  Beta virt. eigenvalues --    0.13783   0.14129   0.14415   0.14797   0.15102
  Beta virt. eigenvalues --    0.15461   0.15944   0.16952   0.16987   0.17409
  Beta virt. eigenvalues --    0.19628   0.23888   0.25230   0.27424   0.27829
  Beta virt. eigenvalues --    0.29768   0.30647   0.31653   0.31927   0.32860
  Beta virt. eigenvalues --    0.33329   0.35347   0.36331   0.36583   0.37434
  Beta virt. eigenvalues --    0.38757   0.40068   0.40456   0.41957   0.42887
  Beta virt. eigenvalues --    0.44037   0.44386   0.44481   0.44664   0.45608
  Beta virt. eigenvalues --    0.46152   0.46812   0.46864   0.47110   0.47317
  Beta virt. eigenvalues --    0.48222   0.48488   0.49350   0.49502   0.50899
  Beta virt. eigenvalues --    0.51354   0.52116   0.52824   0.53438   0.53993
  Beta virt. eigenvalues --    0.54580   0.54908   0.56083   0.58191   0.65551
  Beta virt. eigenvalues --    0.66789   0.67422   0.68032   0.69610   0.71513
  Beta virt. eigenvalues --    0.72546   0.72711   0.74065   0.75831   0.76361
  Beta virt. eigenvalues --    0.79338   0.81953   2.11336   2.18454   2.22689
  Beta virt. eigenvalues --    2.25875   2.28421   2.32339   2.35261   4.40623
  Beta virt. eigenvalues --    4.41030   4.41533   4.41892   4.42549   4.43003
  Beta virt. eigenvalues --    4.45584   4.45996   4.46897   4.49951   4.51613
  Beta virt. eigenvalues --    4.56355   4.59357   4.62653   4.64405   4.67423
  Beta virt. eigenvalues --    4.69261   4.76188   4.78155   4.81877   4.85706
  Beta virt. eigenvalues --   96.32309  96.41806  96.48068  96.52732  96.56208
  Beta virt. eigenvalues --   96.61053  96.65464
          Condensed to atoms (all electrons):
               1          2          3          4          5          6
     1  Na  14.911229  -0.201318  -1.596670  -2.177452   0.421957   0.370408
     2  Na  -0.201318  16.390063  -3.102610  -0.898460   0.542328  -2.155072
     3  Na  -1.596670  -3.102610  16.728207   2.286052  -2.299730  -0.467037
     4  Na  -2.177452  -0.898460   2.286052  16.686329  -1.786883  -2.844078
     5  Na   0.421957   0.542328  -2.299730  -1.786883  12.944144   0.525109
     6  Na   0.370408  -2.155072  -0.467037  -2.844078   0.525109  15.162326
     7  Na  -0.087103   1.755179  -1.777603  -1.141191   1.118532  -0.748218
               7
     1  Na  -0.087103
     2  Na   1.755179
     3  Na  -1.777603
     4  Na  -1.141191
     5  Na   1.118532
     6  Na  -0.748218
     7  Na  12.705421
          Atomic-Atomic Spin Densities.
               1          2          3          4          5          6
     1  Na   0.481105  -0.762261   0.718207  -0.544282   0.211875   0.075878
     2  Na  -0.762261   1.647379  -0.919628   0.483034  -0.100606  -0.048014
     3  Na   0.718207  -0.919628   0.328188  -0.276500   0.011093   0.237581
     4  Na  -0.544282   0.483034  -0.276500   0.151773   0.270181  -0.297127
     5  Na   0.211875  -0.100606   0.011093   0.270181  -0.083005  -0.120325
     6  Na   0.075878  -0.048014   0.237581  -0.297127  -0.120325   0.260288
     7  Na   0.320911  -0.067060  -0.079130   0.290184  -0.175931   0.149790
               7
     1  Na   0.320911
     2  Na  -0.067060
     3  Na  -0.079130
     4  Na   0.290184
     5  Na  -0.175931
     6  Na   0.149790
     7  Na  -0.541466
 Mulliken charges and spin densities:
               1          2
     1  Na  -0.641050   0.501433
     2  Na  -1.330109   0.232845
     3  Na   1.229391   0.019810
     4  Na   0.875682   0.077263
     5  Na  -0.465458   0.013281
     6  Na   1.156561   0.258071
     7  Na  -0.825017  -0.102702
 Sum of Mulliken charges =  -0.00000   1.00000
 Mulliken charges and spin densities with hydrogens summed into heavy atoms:
               1          2
     1  Na  -0.641050   0.501433
     2  Na  -1.330109   0.232845
     3  Na   1.229391   0.019810
     4  Na   0.875682   0.077263
     5  Na  -0.465458   0.013281
     6  Na   1.156561   0.258071
     7  Na  -0.825017  -0.102702
 Electronic spatial extent (au):  <R**2>=           1892.8038
 Charge=              0.0000 electrons
 Dipole moment (field-independent basis, Debye):
    X=              0.0888    Y=             -0.0489    Z=              0.1545  Tot=              0.1848
 Quadrupole moment (field-independent basis, Debye-Ang):
   XX=            -52.2607   YY=            -72.6541   ZZ=            -69.9153
   XY=              0.6439   XZ=             -0.8852   YZ=              1.2880
 Traceless Quadrupole moment (field-independent basis, Debye-Ang):
   XX=             12.6827   YY=             -7.7107   ZZ=             -4.9720
   XY=              0.6439   XZ=             -0.8852   YZ=              1.2880
 Octapole moment (field-independent basis, Debye-Ang**2):
  XXX=              3.5814  YYY=              3.1820  ZZZ=              5.7180  XYY=             -0.3021
  XXY=              0.5540  XXZ=              3.8380  XZZ=             -0.7177  YZZ=             -2.8882
  YYZ=             -5.2462  XYZ=              9.6102
 Hexadecapole moment (field-independent basis, Debye-Ang**3):
 XXXX=          -1478.8679 YYYY=          -1067.7520 ZZZZ=           -704.0350 XXXY=             -7.5429
 XXXZ=            -31.9440 YYYX=              7.8140 YYYZ=             27.3603 ZZZX=             -6.9756
 ZZZY=              1.3243 XXYY=           -381.9239 XXZZ=           -382.9256 YYZZ=           -290.5207
 XXYZ=              6.0256 YYXZ=             16.6597 ZZXY=             10.7543
 N-N= 3.840785574893D+02 E-N=-3.497715177983D+03  KE= 1.133320107678D+03
                          Isotropic Fermi Contact Couplings
        Atom                 a.u.       MegaHertz       Gauss      10(-4) cm-1
     1  Na(23)             0.16865     199.52164      71.19428      66.55326
     2  Na(23)             0.24880     294.33318     105.02540      98.17898
     3  Na(23)             0.05442      64.38372      22.97371      21.47610
     4  Na(23)             0.03766      44.55752      15.89923      14.86279
     5  Na(23)             0.04645      54.94618      19.60616      18.32807
     6  Na(23)             0.10791     127.66147      45.55279      42.58328
     7  Na(23)             0.02076      24.55526       8.76193       8.19075
 --------------------------------------------------------
       Center         ----  Spin Dipole Couplings  ----
                      3XX-RR        3YY-RR        3ZZ-RR
 --------------------------------------------------------
     1   Atom       -0.019790     -0.001347      0.021137
     2   Atom        0.006746     -0.009497      0.002751
     3   Atom       -0.007522     -0.007109      0.014631
     4   Atom       -0.005624     -0.030566      0.036190
     5   Atom       -0.012936     -0.010854      0.023790
     6   Atom        0.003030     -0.014886      0.011856
     7   Atom        0.000377     -0.012775      0.012398
 --------------------------------------------------------
                        XY            XZ            YZ
 --------------------------------------------------------
     1   Atom       -0.005749      0.006898      0.030616
     2   Atom        0.012609     -0.003915      0.002739
     3   Atom        0.005020     -0.011785     -0.015208
     4   Atom       -0.003560      0.036944      0.003489
     5   Atom        0.014831     -0.029554     -0.030046
     6   Atom        0.002089      0.021077     -0.002702
     7   Atom       -0.002469     -0.013491      0.002102
 --------------------------------------------------------


 ---------------------------------------------------------------------------------
              Anisotropic Spin Dipole Couplings in Principal Axis System
 ---------------------------------------------------------------------------------

       Atom             a.u.   MegaHertz   Gauss  10(-4) cm-1        Axes

              Baa    -0.0301    -4.247    -1.515    -1.417  0.6470  0.6129 -0.4536
     1 Na(23) Bbb    -0.0125    -1.769    -0.631    -0.590  0.7615 -0.5495  0.3437
              Bcc     0.0426     6.016     2.147     2.007  0.0386  0.5678  0.8223
 
              Baa    -0.0173    -2.442    -0.871    -0.815 -0.4807  0.8513 -0.2102
     2 Na(23) Bbb     0.0032     0.459     0.164     0.153  0.0723  0.2774  0.9580
              Bcc     0.0140     1.983     0.708     0.662  0.8739  0.4454 -0.1949
 
              Baa    -0.0152    -2.145    -0.765    -0.716  0.2670  0.8117  0.5194
     3 Na(23) Bbb    -0.0120    -1.691    -0.603    -0.564  0.8995 -0.4033  0.1679
              Bcc     0.0272     3.836     1.369     1.279 -0.3458 -0.4224  0.8378
 
              Baa    -0.0340    -4.801    -1.713    -1.602  0.4933  0.8164 -0.3002
     4 Na(23) Bbb    -0.0237    -3.354    -1.197    -1.119  0.7097 -0.5773 -0.4038
              Bcc     0.0577     8.155     2.910     2.720  0.5030  0.0139  0.8642
 
              Baa    -0.0302    -4.259    -1.520    -1.421  0.6722  0.4260  0.6055
     5 Na(23) Bbb    -0.0266    -3.760    -1.342    -1.254 -0.6040  0.7885  0.1158
              Bcc     0.0568     8.019     2.861     2.675 -0.4281 -0.4436  0.7874
 
              Baa    -0.0178    -2.520    -0.899    -0.841 -0.5068  0.7485  0.4277
     6 Na(23) Bbb    -0.0111    -1.574    -0.562    -0.525  0.5892  0.6629 -0.4620
              Bcc     0.0290     4.094     1.461     1.366  0.6293 -0.0179  0.7769
 
              Baa    -0.0132    -1.869    -0.667    -0.623  0.2048  0.9784  0.0276
     7 Na(23) Bbb    -0.0082    -1.159    -0.414    -0.387  0.8133 -0.1858  0.5514
              Bcc     0.0214     3.028     1.080     1.010 -0.5447  0.0905  0.8338
 

 ---------------------------------------------------------------------------------

 No NMR shielding tensors so no spin-rotation constants.
 Leave Link  601 at Mon Nov 13 12:28:14 2023, MaxMem=  1879048192 cpu:               2.6 elap:               0.2
 (Enter /home/sekinelabo/g16/l701.exe)
 ... and contract with generalized density number  0.
 Compute integral first derivatives.
 Leave Link  701 at Mon Nov 13 12:28:14 2023, MaxMem=  1879048192 cpu:               1.7 elap:               0.1
 (Enter /home/sekinelabo/g16/l702.exe)
 L702 exits ... SP integral derivatives will be done elsewhere.
 Leave Link  702 at Mon Nov 13 12:28:14 2023, MaxMem=  1879048192 cpu:               0.4 elap:               0.0
 (Enter /home/sekinelabo/g16/l703.exe)
 Integral derivatives from FoFJK, PRISM(SPDF).
 Compute integral first derivatives, UseDBF=F ICtDFT=           0.
 Calling FoFJK, ICntrl=      2127 FMM=F ISym2X=0 I1Cent= 0 IOpClX= 1 NMat=1 NMatS=1 NMatT=0.
 FoFJK:  IHMeth= 1 ICntrl=    2127 DoSepK=F KAlg= 0 I1Cent=           0 FoldK=F
 IRaf=         0 NMat=       1 IRICut=       1 DoRegI=T DoRafI=F ISym2E= 0 IDoP0=0 IntGTp=1.
 FoFCou: FMM=F IPFlag=           0 FMFlag=      100000 FMFlg1=         800
         NFxFlg=           0 DoJE=F BraDBF=F KetDBF=F FulRan=T
         wScrn=  0.000000 ICntrl=      2127 IOpCl=  1 I1Cent=           0 NGrid=           0
         NMat0=    1 NMatS0=      1 NMatT0=    0 NMatD0=    1 NMtDS0=    0 NMtDT0=    0
 Symmetry not used in FoFCou.
 Leave Link  703 at Mon Nov 13 12:28:16 2023, MaxMem=  1879048192 cpu:              37.3 elap:               2.4
 (Enter /home/sekinelabo/g16/l716.exe)
 Dipole        = 3.49548034D-02-1.92201826D-02 6.07788386D-02
 ***** Axes restored to original set *****
 -------------------------------------------------------------------
 Center     Atomic                   Forces (Hartrees/Bohr)
 Number     Number              X              Y              Z
 -------------------------------------------------------------------
      1       11          -0.003025288   -0.011979306    0.011220070
      2       11          -0.000933240    0.002400603   -0.016909426
      3       11           0.008831618   -0.013439603   -0.005717903
      4       11           0.012642685    0.011247286    0.006352704
      5       11          -0.005679347    0.015232777    0.009309561
      6       11          -0.008397314    0.003863047   -0.006178632
      7       11          -0.003439114   -0.007324803    0.001923625
 -------------------------------------------------------------------
 Cartesian Forces:  Max     0.016909426 RMS     0.009083931
 Z-matrix is all fixed cartesians, so copy forces.
 Force constants in Cartesian coordinates: 
                1             2             3             4             5 
      1  0.179096D+00
      2 -0.309148D-02  0.197426D+00
      3 -0.229301D-03 -0.395210D-01  0.199981D+00
      4 -0.286732D-01 -0.133146D-02  0.207267D-02  0.158309D+00
      5 -0.113818D-02 -0.284731D-01  0.269544D-01 -0.144715D-01  0.128483D+00
      6 -0.883028D-03  0.354271D-02 -0.523335D-01 -0.346271D-04 -0.134070D-01
      7 -0.338034D-01  0.145576D-01  0.180469D-02 -0.317967D-01  0.136621D-01
      8 -0.136477D-01 -0.241481D-01  0.143564D-01  0.125846D-01 -0.318057D-01
      9  0.231253D-01 -0.152198D-01 -0.435890D-01 -0.214265D-01  0.261651D-01
     10 -0.387824D-01  0.792020D-03 -0.157335D-01 -0.324749D-01 -0.970203D-02
     11 -0.220766D-01 -0.473553D-01 -0.200486D-02  0.534411D-03 -0.161947D-01
     12  0.147998D-01  0.247768D-01 -0.262503D-01 -0.306023D-01 -0.203633D-01
     13 -0.281036D-01 -0.188863D-03  0.713097D-02 -0.200920D-01  0.115938D-01
     14  0.105995D-01 -0.522076D-01 -0.164291D-01  0.665334D-02 -0.249068D-01
     15 -0.481960D-02  0.244432D-01 -0.218379D-01  0.109102D-01 -0.272581D-01
     16 -0.983752D-02  0.553849D-03  0.112995D-02 -0.446892D-01  0.722331D-02
     17  0.142385D-01 -0.111973D-01  0.722792D-02 -0.318401D-03 -0.287764D-01
     18 -0.113890D-01  0.362818D-02 -0.190768D-01  0.320094D-01  0.345061D-02
     19 -0.398955D-01 -0.112916D-01  0.382450D-02 -0.583053D-03 -0.716747D-02
     20  0.151160D-01 -0.340447D-01  0.941620D-02 -0.365100D-02  0.167364D-02
     21 -0.206041D-01 -0.165006D-02 -0.368935D-01  0.707119D-02  0.445834D-02
                6             7             8             9            10 
      6  0.207372D+00
      7  0.107411D-01  0.849310D-01
      8 -0.512445D-02 -0.247515D-01  0.876899D-01
      9 -0.292084D-01 -0.979501D-02  0.139361D-01  0.679870D-01
     10  0.961512D-03 -0.189676D-01  0.166709D-01  0.825484D-02  0.142913D+00
     11  0.246787D-02 -0.197375D-01 -0.394689D-01 -0.199526D-01  0.178342D-01
     12 -0.429097D-01 -0.115465D-01 -0.177879D-01 -0.153902D-01  0.210173D-01
     13 -0.294006D-03  0.258257D-02  0.820631D-02  0.388487D-02 -0.486532D-01
     14  0.306553D-02  0.817507D-02  0.959631D-03 -0.470073D-02 -0.159675D-01
     15 -0.497454D-01  0.386507D-02 -0.456838D-02  0.788573D-02 -0.116756D-01
     16 -0.142249D-01 -0.156372D-02  0.189087D-02 -0.258839D-02 -0.502270D-02
     17  0.987896D-02  0.614107D-02  0.506003D-02 -0.211883D-02 -0.393458D-02
     18 -0.347799D-01  0.975611D-04 -0.355495D-02  0.717715D-02 -0.491978D-02
     19  0.373391D-02 -0.138208D-02 -0.953471D-03 -0.145507D-02  0.988069D-03
     20 -0.423617D-03  0.195323D-02  0.171318D-02  0.189083D-02 -0.569300D-02
     21  0.160438D-02  0.483305D-02  0.274323D-02  0.513774D-02  0.209523D-02
               11            12            13            14            15 
     11  0.113392D+00
     12  0.273228D-01  0.863311D-01
     13  0.252018D-01  0.131643D-01  0.119781D+00
     14 -0.242867D-01 -0.121583D-01 -0.188954D-01  0.133306D+00
     15 -0.885090D-02 -0.167101D-01  0.102673D-02  0.360004D-01  0.109258D+00
     16 -0.641895D-03 -0.658915D-02 -0.272608D-01  0.132037D-01 -0.178330D-02
     17  0.881429D-02  0.838562D-03 -0.178525D-01 -0.279803D-01 -0.205095D-01
     18  0.209820D-02  0.994424D-02 -0.239779D-01 -0.135982D-02 -0.335254D-01
     19 -0.111443D-02 -0.243477D-03  0.174571D-02 -0.376866D-02  0.247655D-02
     20  0.509957D-02 -0.262863D-02 -0.806518D-02 -0.488476D-02  0.743329D-03
     21 -0.108051D-02  0.498488D-02 -0.934884D-03 -0.441797D-02  0.467474D-02
               16            17            18            19            20 
     16  0.108576D+00
     17 -0.101976D-01  0.843191D-01
     18  0.209854D-01 -0.155667D-01  0.893219D-01
     19 -0.202022D-01  0.119235D-01 -0.128056D-01  0.593290D-01
     20 -0.120322D-01 -0.302394D-01  0.113044D-01  0.123722D-01  0.606826D-01
     21  0.307041D-02  0.202495D-01 -0.190612D-01  0.446915D-02 -0.203026D-01
               21 
     21  0.395530D-01
 Leave Link  716 at Mon Nov 13 12:28:16 2023, MaxMem=  1879048192 cpu:               0.5 elap:               0.0
 (Enter /home/sekinelabo/g16/l103.exe)

 GradGradGradGradGradGradGradGradGradGradGradGradGradGradGradGradGradGrad
 Berny optimization.
 Search for a local minimum.
 Step number   1 out of a maximum of    2
 All quantities printed in internal units (Hartrees-Bohrs-Radians)
 Second derivative matrix not updated -- first step.
 ITU=  0
     Eigenvalues ---    0.04279   0.05910   0.08166   0.09849   0.11697
     Eigenvalues ---    0.12168   0.14829   0.16963   0.18173   0.19197
     Eigenvalues ---    0.21529   0.22776   0.23602   0.25405   0.29189
 Quadratic step=3.429D-01 exceeds max=3.000D-01 adjusted using Lamda=-1.383D-02.
 Angle between NR and scaled steps=   2.66 degrees.
 Angle between quadratic step and forces=  22.07 degrees.
 Linear search not attempted -- first point.
 B after Tr=     0.000000   -0.000000   -0.000000
         Rot=    1.000000   -0.000000    0.000000   -0.000000 Ang=   0.00 deg.
 Variable       Old X    -DE/DX   Delta X   Delta X   Delta X     New X
                                 (Linear)    (Quad)   (Total)
    X1        5.43341  -0.00303   0.00000  -0.00327  -0.00327   5.43015
    Y1        1.32354  -0.01198   0.00000  -0.04609  -0.04609   1.27744
    Z1        4.96652   0.01122   0.00000   0.05227   0.05227   5.01879
    X2        5.73945  -0.00093   0.00000   0.00958   0.00958   5.74902
    Y2        4.03926   0.00240   0.00000   0.02677   0.02677   4.06603
    Z2        0.00000  -0.01691   0.00000  -0.07239  -0.07239  -0.07239
    X3        9.77193   0.00883   0.00000   0.09350   0.09350   9.86543
    Y3        0.33344  -0.01344   0.00000  -0.10420  -0.10420   0.22924
    Z3        1.45749  -0.00572   0.00000  -0.03493  -0.03493   1.42257
    X4        9.38323   0.01264   0.00000   0.10100   0.10100   9.48423
    Y4        5.30155   0.01125   0.00000   0.06307   0.06307   5.36462
    Z4        4.14893   0.00635   0.00000   0.03429   0.03429   4.18322
    X5        3.94066  -0.00568   0.00000  -0.03040  -0.03040   3.91027
    Y5        6.78869   0.01523   0.00000   0.11385   0.11385   6.90254
    Z5        4.60372   0.00931   0.00000   0.04620   0.04620   4.64992
    X6        0.18066  -0.00840   0.00000  -0.09693  -0.09693   0.08373
    Y6        4.76666   0.00386   0.00000   0.03996   0.03996   4.80662
    Z6        0.87043  -0.00618   0.00000  -0.03993  -0.03993   0.83050
    X7        0.00000  -0.00344   0.00000  -0.07349  -0.07349  -0.07349
    Y7        0.00000  -0.00732   0.00000  -0.09335  -0.09335  -0.09335
    Z7        3.95907   0.00192   0.00000   0.01449   0.01449   3.97356
         Item               Value     Threshold  Converged?
 Maximum Force            0.016909     0.000450     NO 
 RMS     Force            0.009084     0.000300     NO 
 Maximum Displacement     0.113846     0.001800     NO 
 RMS     Displacement     0.065473     0.001200     NO 
 Predicted change in Energy=-6.409598D-03
 GradGradGradGradGradGradGradGradGradGradGradGradGradGradGradGradGradGrad

 Leave Link  103 at Mon Nov 13 12:28:16 2023, MaxMem=  1879048192 cpu:               0.2 elap:               0.0
 (Enter /home/sekinelabo/g16/l9999.exe)
 1\1\GINC-SEKINELABO-XA7R-R37\Force\UB3LYP\6-311+G(d)\Na7(2)\SEKINELABO
 \13-Nov-2023\0\\#P B3LYP/6-311+g(d) force\\Gaussian input prepared by 
 ASE\\0,2\Na,2.8752386858,0.700386257,2.6281693168\Na,3.0371841503,2.13
 74839367,0.\Na,5.1710830788,0.1764502296,0.7712726425\Na,4.9653907856,
 2.8054585337,2.1955193629\Na,2.0853101102,3.5924201627,2.4361839864\Na
 ,0.0955988489,2.5224082564,0.4606115909\Na,0.,0.,2.0950490802\\Version
 =ES64L-G16RevB.01\State=2-A\HF=-1136.1000628\S2=0.766706\S2-1=0.\S2A=0
 .750197\RMSD=9.392e-09\RMSF=9.084e-03\Dipole=0.0349548,0.0192202,-0.06
 07788\Quadrupole=9.4292681,-5.7327426,-3.6965255,-0.4787567,0.658105,0
 .9575617\PG=C01 [X(Na7)]\\@


 Standing in the middle of the road is very dangerous;
 you get knocked down by the traffic from both sides.
                                -- Margaret Thatcher
 Job cpu time:       0 days  0 hours  4 minutes 38.8 seconds.
 Elapsed time:       0 days  0 hours  0 minutes 22.6 seconds.
 File lengths (MBytes):  RWF=     32 Int=      0 D2E=      0 Chk=      5 Scr=      1
 Normal termination of Gaussian 16 at Mon Nov 13 12:28:16 2023.
