 Entering Gaussian System, Link 0=g16
 Initial command:
 /home/sekinelabo/g16/l1.exe "/home/sekinelabo/g16temp/Gau-3985207.inp" -scrdir="/home/sekinelabo/g16temp/"
 Entering Link 1 = /home/sekinelabo/g16/l1.exe PID=   3985209.
  
 Copyright (c) 1988-2017, Gaussian, Inc.  All Rights Reserved.
  
 This is part of the Gaussian(R) 16 program.  It is based on
 the Gaussian(R) 09 system (copyright 2009, Gaussian, Inc.),
 the Gaussian(R) 03 system (copyright 2003, Gaussian, Inc.),
 the Gaussian(R) 98 system (copyright 1998, Gaussian, Inc.),
 the Gaussian(R) 94 system (copyright 1995, Gaussian, Inc.),
 the Gaussian 92(TM) system (copyright 1992, Gaussian, Inc.),
 the Gaussian 90(TM) system (copyright 1990, Gaussian, Inc.),
 the Gaussian 88(TM) system (copyright 1988, Gaussian, Inc.),
 the Gaussian 86(TM) system (copyright 1986, Carnegie Mellon
 University), and the Gaussian 82(TM) system (copyright 1983,
 Carnegie Mellon University). Gaussian is a federally registered
 trademark of Gaussian, Inc.
  
 This software contains proprietary and confidential information,
 including trade secrets, belonging to Gaussian, Inc.
  
 This software is provided under written license and may be
 used, copied, transmitted, or stored only in accord with that
 written license.
  
 The following legend is applicable only to US Government
 contracts under FAR:
  
                    RESTRICTED RIGHTS LEGEND
  
 Use, reproduction and disclosure by the US Government is
 subject to restrictions as set forth in subparagraphs (a)
 and (c) of the Commercial Computer Software - Restricted
 Rights clause in FAR 52.227-19.
  
 Gaussian, Inc.
 340 Quinnipiac St., Bldg. 40, Wallingford CT 06492
  
  
 ---------------------------------------------------------------
 Warning -- This program may not be used in any manner that
 competes with the business of Gaussian, Inc. or will provide
 assistance to any competitor of Gaussian, Inc.  The licensee
 of this program is prohibited from giving any competitor of
 Gaussian, Inc. access to this program.  By using this program,
 the user acknowledges that Gaussian, Inc. is engaged in the
 business of creating and licensing software in the field of
 computational chemistry and represents and warrants to the
 licensee that it is not a competitor of Gaussian, Inc. and that
 it will not use this program in any manner prohibited above.
 ---------------------------------------------------------------
  

 Cite this work as:
 Gaussian 16, Revision B.01,
 M. J. Frisch, G. W. Trucks, H. B. Schlegel, G. E. Scuseria, 
 M. A. Robb, J. R. Cheeseman, G. Scalmani, V. Barone, 
 G. A. Petersson, H. Nakatsuji, X. Li, M. Caricato, A. V. Marenich, 
 J. Bloino, B. G. Janesko, R. Gomperts, B. Mennucci, H. P. Hratchian, 
 J. V. Ortiz, A. F. Izmaylov, J. L. Sonnenberg, D. Williams-Young, 
 F. Ding, F. Lipparini, F. Egidi, J. Goings, B. Peng, A. Petrone, 
 T. Henderson, D. Ranasinghe, V. G. Zakrzewski, J. Gao, N. Rega, 
 G. Zheng, W. Liang, M. Hada, M. Ehara, K. Toyota, R. Fukuda, 
 J. Hasegawa, M. Ishida, T. Nakajima, Y. Honda, O. Kitao, H. Nakai, 
 T. Vreven, K. Throssell, J. A. Montgomery, Jr., J. E. Peralta, 
 F. Ogliaro, M. J. Bearpark, J. J. Heyd, E. N. Brothers, K. N. Kudin, 
 V. N. Staroverov, T. A. Keith, R. Kobayashi, J. Normand, 
 K. Raghavachari, A. P. Rendell, J. C. Burant, S. S. Iyengar, 
 J. Tomasi, M. Cossi, J. M. Millam, M. Klene, C. Adamo, R. Cammi, 
 J. W. Ochterski, R. L. Martin, K. Morokuma, O. Farkas, 
 J. B. Foresman, and D. J. Fox, Gaussian, Inc., Wallingford CT, 2016.
 
 ******************************************
 Gaussian 16:  ES64L-G16RevB.01 20-Dec-2017
                13-Nov-2023 
 ******************************************
 %mem=14GB
 %chk=checkpoint.chk
 %nprocshared=16
 Will use up to   16 processors via shared memory.
 -------------------------
 #P B3LYP/6-311+g(d) force
 -------------------------
 1/10=7,30=1,38=1/1,3;
 2/12=2,17=6,18=5,40=1/2;
 3/5=4,6=6,7=11,11=2,25=1,30=1,71=1,74=-5/1,2,3;
 4//1;
 5/5=2,38=5/2;
 6/7=2,8=2,9=2,10=2,28=1/1;
 7/29=1/1,2,3,16;
 1/10=7,30=1/3;
 99//99;
 Leave Link    1 at Mon Nov 13 12:24:44 2023, MaxMem=  1879048192 cpu:               0.3 elap:               0.0
 (Enter /home/sekinelabo/g16/l101.exe)
 ------------------------------
 Gaussian input prepared by ASE
 ------------------------------
 Symbolic Z-matrix:
 Charge =  0 Multiplicity = 2
 Na                    4.89571   0.94279   1.15928 
 Na                    7.71387   0.        0.76776 
 Na                    7.1887    2.72486   1.89252 
 Na                    5.08233   3.70797   0. 
 Na                    2.41821   4.40367   1.20139 
 Na                    2.14423   1.57888   2.18382 
 Na                    0.        0.21325   0.59107 
 
 ITRead=  0  0  0  0  0  0  0
 MicOpt= -1 -1 -1 -1 -1 -1 -1
 NAtoms=      7 NQM=        7 NQMF=       0 NMMI=      0 NMMIF=      0
                NMic=       0 NMicF=      0.
                    Isotopes and Nuclear Properties:
 (Nuclear quadrupole moments (NQMom) in fm**2, nuclear magnetic moments (NMagM)
  in nuclear magnetons)

  Atom         1           2           3           4           5           6           7
 IAtWgt=          23          23          23          23          23          23          23
 AtmWgt=  22.9897697  22.9897697  22.9897697  22.9897697  22.9897697  22.9897697  22.9897697
 NucSpn=           3           3           3           3           3           3           3
 AtZEff=  -0.0000000  -0.0000000  -0.0000000  -0.0000000  -0.0000000  -0.0000000  -0.0000000
 NQMom=   10.4000000  10.4000000  10.4000000  10.4000000  10.4000000  10.4000000  10.4000000
 NMagM=    2.2175200   2.2175200   2.2175200   2.2175200   2.2175200   2.2175200   2.2175200
 AtZNuc=  11.0000000  11.0000000  11.0000000  11.0000000  11.0000000  11.0000000  11.0000000
 Leave Link  101 at Mon Nov 13 12:24:44 2023, MaxMem=  1879048192 cpu:               3.3 elap:               0.2
 (Enter /home/sekinelabo/g16/l103.exe)

 GradGradGradGradGradGradGradGradGradGradGradGradGradGradGradGradGradGrad
 Berny optimization.
 Initialization pass.
 Trust Radius=3.00D-01 FncErr=1.00D-07 GrdErr=1.00D-07 EigMax=2.50D+02 EigMin=1.00D-04
 Number of steps in this run=      2 maximum allowed number of steps=      2.
 GradGradGradGradGradGradGradGradGradGradGradGradGradGradGradGradGradGrad

 Leave Link  103 at Mon Nov 13 12:24:44 2023, MaxMem=  1879048192 cpu:               0.2 elap:               0.0
 (Enter /home/sekinelabo/g16/l202.exe)
                          Input orientation:                          
 ---------------------------------------------------------------------
 Center     Atomic      Atomic             Coordinates (Angstroms)
 Number     Number       Type             X           Y           Z
 ---------------------------------------------------------------------
      1         11           0        4.895707    0.942791    1.159282
      2         11           0        7.713866    0.000000    0.767762
      3         11           0        7.188697    2.724858    1.892515
      4         11           0        5.082333    3.707971    0.000000
      5         11           0        2.418209    4.403671    1.201393
      6         11           0        2.144227    1.578884    2.183823
      7         11           0        0.000000    0.213252    0.591066
 ---------------------------------------------------------------------
                    Distance matrix (angstroms):
                    1          2          3          4          5
     1  Na   0.000000
     2  Na   2.997359   0.000000
     3  Na   2.995196   2.994282   0.000000
     4  Na   3.004161   4.611233   2.997481   0.000000
     5  Na   4.256461   6.901039   5.104275   3.004147   0.000000
     6  Na   3.004154   5.959780   5.181196   4.234922   3.003275
     7  Na   4.982273   7.718836   7.725238   6.196171   4.876458
                    6          7
     6  Na   0.000000
     7  Na   2.999923   0.000000
 Stoichiometry    Na7(2)
 Framework group  C1[X(Na7)]
 Deg. of freedom    15
 Full point group                 C1      NOp   1
 Largest Abelian subgroup         C1      NOp   1
 Largest concise Abelian subgroup C1      NOp   1
                         Standard orientation:                         
 ---------------------------------------------------------------------
 Center     Atomic      Atomic             Coordinates (Angstroms)
 Number     Number       Type             X           Y           Z
 ---------------------------------------------------------------------
      1         11           0        0.689559   -0.995984    0.045590
      2         11           0        3.507717   -1.938775   -0.345930
      3         11           0        2.982549    0.786083    0.778824
      4         11           0        0.876185    1.769196   -1.113692
      5         11           0       -1.787940    2.464895    0.087701
      6         11           0       -2.061921   -0.359892    1.070132
      7         11           0       -4.206149   -1.725524   -0.522625
 ---------------------------------------------------------------------
 Rotational constants (GHZ):           1.0430187           0.4312257           0.3368271
 Leave Link  202 at Mon Nov 13 12:24:44 2023, MaxMem=  1879048192 cpu:               0.1 elap:               0.0
 (Enter /home/sekinelabo/g16/l301.exe)
 Standard basis: 6-311+G(d) (5D, 7F)
 Ernie: Thresh=  0.10000D-02 Tol=  0.10000D-05 Strict=F.
 There are   217 symmetry adapted cartesian basis functions of A   symmetry.
 There are   210 symmetry adapted basis functions of A   symmetry.
   210 basis functions,   350 primitive gaussians,   217 cartesian basis functions
    39 alpha electrons       38 beta electrons
       nuclear repulsion energy       333.9650091145 Hartrees.
 IExCor=  402 DFT=T Ex+Corr=B3LYP ExCW=0 ScaHFX=  0.200000
 ScaDFX=  0.800000  0.720000  1.000000  0.810000 ScalE2=  1.000000  1.000000
 IRadAn=      5 IRanWt=     -1 IRanGd=            0 ICorTp=0 IEmpDi=  4
 NAtoms=    7 NActive=    7 NUniq=    7 SFac= 1.00D+00 NAtFMM=   60 NAOKFM=F Big=F
 Integral buffers will be    131072 words long.
 Raffenetti 2 integral format.
 Two-electron integral symmetry is turned on.
 Leave Link  301 at Mon Nov 13 12:24:44 2023, MaxMem=  1879048192 cpu:               0.5 elap:               0.0
 (Enter /home/sekinelabo/g16/l302.exe)
 NPDir=0 NMtPBC=     1 NCelOv=     1 NCel=       1 NClECP=     1 NCelD=      1
         NCelK=      1 NCelE2=     1 NClLst=     1 CellRange=     0.0.
 One-electron integrals computed using PRISM.
 One-electron integral symmetry used in STVInt
 NBasis=   210 RedAO= T EigKep=  1.78D-06  NBF=   210
 NBsUse=   209 1.00D-06 EigRej=  9.49D-07 NBFU=   209
 Precomputing XC quadrature grid using
 IXCGrd= 4 IRadAn=           5 IRanWt=          -1 IRanGd=           0 AccXCQ= 0.00D+00.
 Generated NRdTot=       0 NPtTot=           0 NUsed=           0 NTot=          32
 NSgBfM=   209   209   209   209   209 MxSgAt=     7 MxSgA2=     7.
 Leave Link  302 at Mon Nov 13 12:24:44 2023, MaxMem=  1879048192 cpu:               2.2 elap:               0.1
 (Enter /home/sekinelabo/g16/l303.exe)
 DipDrv:  MaxL=1.
 Leave Link  303 at Mon Nov 13 12:24:44 2023, MaxMem=  1879048192 cpu:               0.6 elap:               0.0
 (Enter /home/sekinelabo/g16/l401.exe)
 ExpMin= 7.60D-03 ExpMax= 3.62D+04 ExpMxC= 1.21D+03 IAcc=3 IRadAn=         5 AccDes= 0.00D+00
 Harris functional with IExCor=  402 and IRadAn=       5 diagonalized for initial guess.
 HarFok:  IExCor=  402 AccDes= 0.00D+00 IRadAn=         5 IDoV= 1 UseB2=F ITyADJ=14
 ICtDFT=  3500011 ScaDFX=  1.000000  1.000000  1.000000  1.000000
 FoFCou: FMM=F IPFlag=           0 FMFlag=      100000 FMFlg1=           0
         NFxFlg=           0 DoJE=T BraDBF=F KetDBF=T FulRan=T
         wScrn=  0.000000 ICntrl=       500 IOpCl=  0 I1Cent=   200000004 NGrid=           0
         NMat0=    1 NMatS0=      1 NMatT0=    0 NMatD0=    1 NMtDS0=    0 NMtDT0=    0
 Petite list used in FoFCou.
 Harris En= -1135.86476235807    
 JPrj=0 DoOrth=F DoCkMO=F.
 Initial guess <Sx>= 0.0000 <Sy>= 0.0000 <Sz>= 0.5000 <S**2>= 0.7500 S= 0.5000
 Leave Link  401 at Mon Nov 13 12:24:44 2023, MaxMem=  1879048192 cpu:               4.8 elap:               0.3
 (Enter /home/sekinelabo/g16/l502.exe)
 Keep R1 and R2 ints in memory in canonical form, NReq=507620360.
 FoFCou: FMM=F IPFlag=           0 FMFlag=           0 FMFlg1=           0
         NFxFlg=           0 DoJE=F BraDBF=F KetDBF=F FulRan=T
         wScrn=  0.000000 ICntrl=       600 IOpCl=  0 I1Cent=           0 NGrid=           0
         NMat0=    1 NMatS0=  22155 NMatT0=    0 NMatD0=    1 NMtDS0=    0 NMtDT0=    0
 Symmetry not used in FoFCou.
 Two-electron integral symmetry not used.
 UHF open shell SCF:
 Using DIIS extrapolation, IDIIS=  1040.
 NGot=  1879048192 LenX=  1388082376 LenY=  1388034846
 Requested convergence on RMS density matrix=1.00D-08 within 128 cycles.
 Requested convergence on MAX density matrix=1.00D-06.
 Requested convergence on             energy=1.00D-06.
 No special actions if energy rises.

 Cycle   1  Pass 1  IDiag  1:
 E= -1136.06178772755    
 DIIS: error= 1.06D-02 at cycle   1 NSaved=   1.
 NSaved= 1 IEnMin= 1 EnMin= -1136.06178772755     IErMin= 1 ErrMin= 1.06D-02
 ErrMax= 1.06D-02  0.00D+00 EMaxC= 1.00D-01 BMatC= 1.89D-01 BMatP= 1.89D-01
 IDIUse=3 WtCom= 8.94D-01 WtEn= 1.06D-01
 Coeff-Com:  0.100D+01
 Coeff-En:   0.100D+01
 Coeff:      0.100D+01
 Gap=     0.026 Goal=   None    Shift=    0.000
 Gap=     0.052 Goal=   None    Shift=    0.000
 GapD=    0.026 DampG=0.250 DampE=0.500 DampFc=0.2500 IDamp=-1.
 Damping current iteration by 2.50D-01
 RMSDP=2.33D-02 MaxDP=1.78D+00              OVMax= 2.23D-01

 Cycle   2  Pass 1  IDiag  1:
 E= -1136.07225556958     Delta-E=       -0.010467842025 Rises=F Damp=T
 DIIS: error= 7.40D-03 at cycle   2 NSaved=   2.
 NSaved= 2 IEnMin= 2 EnMin= -1136.07225556958     IErMin= 2 ErrMin= 7.40D-03
 ErrMax= 7.40D-03  0.00D+00 EMaxC= 1.00D-01 BMatC= 7.30D-02 BMatP= 1.89D-01
 IDIUse=3 WtCom= 9.26D-01 WtEn= 7.40D-02
 Coeff-Com: -0.129D+01 0.229D+01
 Coeff-En:   0.000D+00 0.100D+01
 Coeff:     -0.120D+01 0.220D+01
 Gap=     0.028 Goal=   None    Shift=    0.000
 Gap=     0.053 Goal=   None    Shift=    0.000
 RMSDP=1.51D-02 MaxDP=1.43D+00 DE=-1.05D-02 OVMax= 1.85D-01

 Cycle   3  Pass 1  IDiag  1:
 E= -1136.08930100163     Delta-E=       -0.017045432059 Rises=F Damp=F
 DIIS: error= 2.76D-03 at cycle   3 NSaved=   3.
 NSaved= 3 IEnMin= 3 EnMin= -1136.08930100163     IErMin= 3 ErrMin= 2.76D-03
 ErrMax= 2.76D-03  0.00D+00 EMaxC= 1.00D-01 BMatC= 3.44D-03 BMatP= 7.30D-02
 IDIUse=3 WtCom= 9.72D-01 WtEn= 2.76D-02
 Coeff-Com: -0.265D+00 0.461D+00 0.805D+00
 Coeff-En:   0.000D+00 0.000D+00 0.100D+01
 Coeff:     -0.258D+00 0.448D+00 0.810D+00
 Gap=     0.028 Goal=   None    Shift=    0.000
 Gap=     0.046 Goal=   None    Shift=    0.000
 RMSDP=6.27D-03 MaxDP=4.22D-01 DE=-1.70D-02 OVMax= 1.45D-01

 Cycle   4  Pass 1  IDiag  1:
 E= -1136.08547150096     Delta-E=        0.003829500673 Rises=F Damp=F
 DIIS: error= 4.48D-03 at cycle   4 NSaved=   4.
 NSaved= 4 IEnMin= 3 EnMin= -1136.08930100163     IErMin= 3 ErrMin= 2.76D-03
 ErrMax= 4.48D-03  0.00D+00 EMaxC= 1.00D-01 BMatC= 6.22D-03 BMatP= 3.44D-03
 IDIUse=3 WtCom= 1.30D-01 WtEn= 8.70D-01
 Coeff-Com: -0.204D-01 0.327D-01 0.571D+00 0.416D+00
 Coeff-En:   0.000D+00 0.000D+00 0.634D+00 0.366D+00
 Coeff:     -0.265D-02 0.425D-02 0.626D+00 0.372D+00
 Gap=     0.028 Goal=   None    Shift=    0.000
 Gap=     0.049 Goal=   None    Shift=    0.000
 RMSDP=3.13D-03 MaxDP=2.28D-01 DE= 3.83D-03 OVMax= 9.50D-02

 Cycle   5  Pass 1  IDiag  1:
 E= -1136.09281036439     Delta-E=       -0.007338863425 Rises=F Damp=F
 DIIS: error= 8.42D-04 at cycle   5 NSaved=   5.
 NSaved= 5 IEnMin= 5 EnMin= -1136.09281036439     IErMin= 5 ErrMin= 8.42D-04
 ErrMax= 8.42D-04  0.00D+00 EMaxC= 1.00D-01 BMatC= 2.80D-04 BMatP= 3.44D-03
 IDIUse=3 WtCom= 9.92D-01 WtEn= 8.42D-03
 Coeff-Com: -0.124D-02 0.106D-02 0.341D+00 0.196D+00 0.463D+00
 Coeff-En:   0.000D+00 0.000D+00 0.000D+00 0.000D+00 0.100D+01
 Coeff:     -0.123D-02 0.105D-02 0.339D+00 0.194D+00 0.467D+00
 Gap=     0.027 Goal=   None    Shift=    0.000
 Gap=     0.048 Goal=   None    Shift=    0.000
 RMSDP=9.44D-04 MaxDP=4.32D-02 DE=-7.34D-03 OVMax= 1.70D-02

 Cycle   6  Pass 1  IDiag  1:
 E= -1136.09303388268     Delta-E=       -0.000223518291 Rises=F Damp=F
 DIIS: error= 1.19D-04 at cycle   6 NSaved=   6.
 NSaved= 6 IEnMin= 6 EnMin= -1136.09303388268     IErMin= 6 ErrMin= 1.19D-04
 ErrMax= 1.19D-04  0.00D+00 EMaxC= 1.00D-01 BMatC= 6.93D-06 BMatP= 2.80D-04
 IDIUse=3 WtCom= 9.99D-01 WtEn= 1.19D-03
 Coeff-Com:  0.426D-03-0.127D-02 0.208D-02-0.184D-01 0.121D+00 0.896D+00
 Coeff-En:   0.000D+00 0.000D+00 0.000D+00 0.000D+00 0.000D+00 0.100D+01
 Coeff:      0.425D-03-0.127D-02 0.208D-02-0.184D-01 0.121D+00 0.896D+00
 Gap=     0.028 Goal=   None    Shift=    0.000
 Gap=     0.049 Goal=   None    Shift=    0.000
 RMSDP=4.20D-04 MaxDP=4.61D-02 DE=-2.24D-04 OVMax= 4.61D-03

 Cycle   7  Pass 1  IDiag  1:
 E= -1136.09304560697     Delta-E=       -0.000011724292 Rises=F Damp=F
 DIIS: error= 5.67D-05 at cycle   7 NSaved=   7.
 NSaved= 7 IEnMin= 7 EnMin= -1136.09304560697     IErMin= 7 ErrMin= 5.67D-05
 ErrMax= 5.67D-05  0.00D+00 EMaxC= 1.00D-01 BMatC= 1.38D-06 BMatP= 6.93D-06
 IDIUse=1 WtCom= 1.00D+00 WtEn= 0.00D+00
 Coeff-Com: -0.626D-04-0.130D-03-0.315D-01-0.271D-01 0.755D-02 0.358D+00
 Coeff-Com:  0.693D+00
 Coeff:     -0.626D-04-0.130D-03-0.315D-01-0.271D-01 0.755D-02 0.358D+00
 Coeff:      0.693D+00
 Gap=     0.028 Goal=   None    Shift=    0.000
 Gap=     0.049 Goal=   None    Shift=    0.000
 RMSDP=1.40D-04 MaxDP=8.94D-03 DE=-1.17D-05 OVMax= 3.18D-03

 Cycle   8  Pass 1  IDiag  1:
 E= -1136.09304793363     Delta-E=       -0.000002326658 Rises=F Damp=F
 DIIS: error= 4.03D-05 at cycle   8 NSaved=   8.
 NSaved= 8 IEnMin= 8 EnMin= -1136.09304793363     IErMin= 8 ErrMin= 4.03D-05
 ErrMax= 4.03D-05  0.00D+00 EMaxC= 1.00D-01 BMatC= 5.32D-07 BMatP= 1.38D-06
 IDIUse=1 WtCom= 1.00D+00 WtEn= 0.00D+00
 Coeff-Com:  0.118D-03-0.136D-03-0.172D-01-0.947D-02-0.265D-01-0.331D-01
 Coeff-Com:  0.393D+00 0.693D+00
 Coeff:      0.118D-03-0.136D-03-0.172D-01-0.947D-02-0.265D-01-0.331D-01
 Coeff:      0.393D+00 0.693D+00
 Gap=     0.028 Goal=   None    Shift=    0.000
 Gap=     0.049 Goal=   None    Shift=    0.000
 RMSDP=1.32D-04 MaxDP=1.06D-02 DE=-2.33D-06 OVMax= 1.80D-03

 Cycle   9  Pass 1  IDiag  1:
 E= -1136.09304922138     Delta-E=       -0.000001287756 Rises=F Damp=F
 DIIS: error= 1.28D-05 at cycle   9 NSaved=   9.
 NSaved= 9 IEnMin= 9 EnMin= -1136.09304922138     IErMin= 9 ErrMin= 1.28D-05
 ErrMax= 1.28D-05  0.00D+00 EMaxC= 1.00D-01 BMatC= 7.56D-08 BMatP= 5.32D-07
 IDIUse=1 WtCom= 1.00D+00 WtEn= 0.00D+00
 Coeff-Com:  0.364D-03-0.426D-03-0.792D-04 0.237D-02-0.142D-01-0.906D-01
 Coeff-Com: -0.279D-01 0.222D+00 0.909D+00
 Coeff:      0.364D-03-0.426D-03-0.792D-04 0.237D-02-0.142D-01-0.906D-01
 Coeff:     -0.279D-01 0.222D+00 0.909D+00
 Gap=     0.028 Goal=   None    Shift=    0.000
 Gap=     0.049 Goal=   None    Shift=    0.000
 RMSDP=8.63D-05 MaxDP=7.46D-03 DE=-1.29D-06 OVMax= 1.49D-03

 Cycle  10  Pass 1  IDiag  1:
 E= -1136.09304968703     Delta-E=       -0.000000465645 Rises=F Damp=F
 DIIS: error= 6.89D-06 at cycle  10 NSaved=  10.
 NSaved=10 IEnMin=10 EnMin= -1136.09304968703     IErMin=10 ErrMin= 6.89D-06
 ErrMax= 6.89D-06  0.00D+00 EMaxC= 1.00D-01 BMatC= 2.38D-08 BMatP= 7.56D-08
 IDIUse=1 WtCom= 1.00D+00 WtEn= 0.00D+00
 Coeff-Com:  0.127D-03-0.151D-03 0.289D-02 0.133D-02 0.213D-02-0.740D-02
 Coeff-Com: -0.633D-01-0.954D-01 0.152D+00 0.101D+01
 Coeff:      0.127D-03-0.151D-03 0.289D-02 0.133D-02 0.213D-02-0.740D-02
 Coeff:     -0.633D-01-0.954D-01 0.152D+00 0.101D+01
 Gap=     0.028 Goal=   None    Shift=    0.000
 Gap=     0.049 Goal=   None    Shift=    0.000
 RMSDP=6.58D-05 MaxDP=7.00D-03 DE=-4.66D-07 OVMax= 1.32D-03

 Cycle  11  Pass 1  IDiag  1:
 E= -1136.09304990846     Delta-E=       -0.000000221432 Rises=F Damp=F
 DIIS: error= 5.48D-06 at cycle  11 NSaved=  11.
 NSaved=11 IEnMin=11 EnMin= -1136.09304990846     IErMin=11 ErrMin= 5.48D-06
 ErrMax= 5.48D-06  0.00D+00 EMaxC= 1.00D-01 BMatC= 1.23D-08 BMatP= 2.38D-08
 IDIUse=1 WtCom= 1.00D+00 WtEn= 0.00D+00
 Coeff-Com: -0.679D-04 0.851D-04 0.156D-02-0.521D-03 0.608D-02 0.280D-01
 Coeff-Com: -0.907D-02-0.121D+00-0.255D+00 0.342D+00 0.101D+01
 Coeff:     -0.679D-04 0.851D-04 0.156D-02-0.521D-03 0.608D-02 0.280D-01
 Coeff:     -0.907D-02-0.121D+00-0.255D+00 0.342D+00 0.101D+01
 Gap=     0.028 Goal=   None    Shift=    0.000
 Gap=     0.049 Goal=   None    Shift=    0.000
 RMSDP=5.90D-05 MaxDP=5.76D-03 DE=-2.21D-07 OVMax= 1.45D-03

 Cycle  12  Pass 1  IDiag  1:
 E= -1136.09305006208     Delta-E=       -0.000000153620 Rises=F Damp=F
 DIIS: error= 4.59D-06 at cycle  12 NSaved=  12.
 NSaved=12 IEnMin=12 EnMin= -1136.09305006208     IErMin=12 ErrMin= 4.59D-06
 ErrMax= 4.59D-06  0.00D+00 EMaxC= 1.00D-01 BMatC= 6.24D-09 BMatP= 1.23D-08
 IDIUse=1 WtCom= 1.00D+00 WtEn= 0.00D+00
 Coeff-Com: -0.243D-04 0.243D-04-0.752D-03-0.903D-03 0.850D-04 0.113D-01
 Coeff-Com:  0.320D-01 0.183D-01-0.111D+00-0.546D+00 0.271D+00 0.133D+01
 Coeff:     -0.243D-04 0.243D-04-0.752D-03-0.903D-03 0.850D-04 0.113D-01
 Coeff:      0.320D-01 0.183D-01-0.111D+00-0.546D+00 0.271D+00 0.133D+01
 Gap=     0.028 Goal=   None    Shift=    0.000
 Gap=     0.049 Goal=   None    Shift=    0.000
 RMSDP=6.56D-05 MaxDP=6.61D-03 DE=-1.54D-07 OVMax= 1.83D-03

 Cycle  13  Pass 1  IDiag  1:
 E= -1136.09305018598     Delta-E=       -0.000000123898 Rises=F Damp=F
 DIIS: error= 2.87D-06 at cycle  13 NSaved=  13.
 NSaved=13 IEnMin=13 EnMin= -1136.09305018598     IErMin=13 ErrMin= 2.87D-06
 ErrMax= 2.87D-06  0.00D+00 EMaxC= 1.00D-01 BMatC= 2.52D-09 BMatP= 6.24D-09
 IDIUse=1 WtCom= 1.00D+00 WtEn= 0.00D+00
 Coeff-Com:  0.121D-03-0.158D-03-0.447D-03 0.203D-03-0.351D-02-0.150D-01
 Coeff-Com:  0.448D-02 0.526D-01 0.131D+00-0.155D+00-0.341D+00-0.199D+00
 Coeff-Com:  0.153D+01
 Coeff:      0.121D-03-0.158D-03-0.447D-03 0.203D-03-0.351D-02-0.150D-01
 Coeff:      0.448D-02 0.526D-01 0.131D+00-0.155D+00-0.341D+00-0.199D+00
 Coeff:      0.153D+01
 Gap=     0.028 Goal=   None    Shift=    0.000
 Gap=     0.049 Goal=   None    Shift=    0.000
 RMSDP=4.86D-05 MaxDP=4.62D-03 DE=-1.24D-07 OVMax= 1.55D-03

 Cycle  14  Pass 1  IDiag  1:
 E= -1136.09305025017     Delta-E=       -0.000000064194 Rises=F Damp=F
 DIIS: error= 1.66D-06 at cycle  14 NSaved=  14.
 NSaved=14 IEnMin=14 EnMin= -1136.09305025017     IErMin=14 ErrMin= 1.66D-06
 ErrMax= 1.66D-06  0.00D+00 EMaxC= 1.00D-01 BMatC= 1.09D-09 BMatP= 2.52D-09
 IDIUse=1 WtCom= 1.00D+00 WtEn= 0.00D+00
 Coeff-Com:  0.138D-04-0.161D-04 0.473D-03 0.291D-03 0.209D-03-0.299D-02
 Coeff-Com: -0.118D-01-0.217D-01 0.271D-01 0.302D+00-0.496D-02-0.771D+00
 Coeff-Com: -0.240D+00 0.172D+01
 Coeff:      0.138D-04-0.161D-04 0.473D-03 0.291D-03 0.209D-03-0.299D-02
 Coeff:     -0.118D-01-0.217D-01 0.271D-01 0.302D+00-0.496D-02-0.771D+00
 Coeff:     -0.240D+00 0.172D+01
 Gap=     0.028 Goal=   None    Shift=    0.000
 Gap=     0.049 Goal=   None    Shift=    0.000
 RMSDP=3.87D-05 MaxDP=3.25D-03 DE=-6.42D-08 OVMax= 1.43D-03

 Cycle  15  Pass 1  IDiag  1:
 E= -1136.09305028488     Delta-E=       -0.000000034711 Rises=F Damp=F
 DIIS: error= 1.11D-06 at cycle  15 NSaved=  15.
 NSaved=15 IEnMin=15 EnMin= -1136.09305028488     IErMin=15 ErrMin= 1.11D-06
 ErrMax= 1.11D-06  0.00D+00 EMaxC= 1.00D-01 BMatC= 4.10D-10 BMatP= 1.09D-09
 IDIUse=1 WtCom= 1.00D+00 WtEn= 0.00D+00
 Coeff-Com: -0.613D-04 0.795D-04 0.388D-03-0.116D-03 0.165D-02 0.739D-02
 Coeff-Com: -0.144D-02-0.248D-01-0.691D-01 0.700D-01 0.185D+00 0.699D-01
 Coeff-Com: -0.731D+00 0.123D+00 0.137D+01
 Coeff:     -0.613D-04 0.795D-04 0.388D-03-0.116D-03 0.165D-02 0.739D-02
 Coeff:     -0.144D-02-0.248D-01-0.691D-01 0.700D-01 0.185D+00 0.699D-01
 Coeff:     -0.731D+00 0.123D+00 0.137D+01
 Gap=     0.028 Goal=   None    Shift=    0.000
 Gap=     0.049 Goal=   None    Shift=    0.000
 RMSDP=1.87D-05 MaxDP=1.26D-03 DE=-3.47D-08 OVMax= 7.94D-04

 Cycle  16  Pass 1  IDiag  1:
 E= -1136.09305029517     Delta-E=       -0.000000010283 Rises=F Damp=F
 DIIS: error= 8.29D-07 at cycle  16 NSaved=  16.
 NSaved=16 IEnMin=16 EnMin= -1136.09305029517     IErMin=16 ErrMin= 8.29D-07
 ErrMax= 8.29D-07  0.00D+00 EMaxC= 1.00D-01 BMatC= 1.10D-10 BMatP= 4.10D-10
 IDIUse=1 WtCom= 1.00D+00 WtEn= 0.00D+00
 Coeff-Com:  0.524D-05-0.869D-05-0.208D-03-0.942D-04-0.232D-03 0.866D-03
 Coeff-Com:  0.451D-02 0.806D-02-0.475D-02-0.119D+00-0.316D-02 0.282D+00
 Coeff-Com:  0.161D+00-0.635D+00-0.822D-01 0.139D+01
 Coeff:      0.524D-05-0.869D-05-0.208D-03-0.942D-04-0.232D-03 0.866D-03
 Coeff:      0.451D-02 0.806D-02-0.475D-02-0.119D+00-0.316D-02 0.282D+00
 Coeff:      0.161D+00-0.635D+00-0.822D-01 0.139D+01
 Gap=     0.028 Goal=   None    Shift=    0.000
 Gap=     0.049 Goal=   None    Shift=    0.000
 RMSDP=4.95D-06 MaxDP=3.57D-04 DE=-1.03D-08 OVMax= 2.64D-04

 Cycle  17  Pass 1  IDiag  1:
 E= -1136.09305029777     Delta-E=       -0.000000002605 Rises=F Damp=F
 DIIS: error= 4.46D-07 at cycle  17 NSaved=  17.
 NSaved=17 IEnMin=17 EnMin= -1136.09305029777     IErMin=17 ErrMin= 4.46D-07
 ErrMax= 4.46D-07  0.00D+00 EMaxC= 1.00D-01 BMatC= 4.37D-11 BMatP= 1.10D-10
 IDIUse=1 WtCom= 1.00D+00 WtEn= 0.00D+00
 Coeff-Com:  0.223D-04-0.293D-04-0.140D-03 0.358D-04-0.616D-03-0.268D-02
 Coeff-Com:  0.686D-03 0.885D-02 0.222D-01-0.219D-01-0.566D-01-0.400D-01
 Coeff-Com:  0.233D+00-0.220D-01-0.458D+00-0.868D-01 0.142D+01
 Coeff:      0.223D-04-0.293D-04-0.140D-03 0.358D-04-0.616D-03-0.268D-02
 Coeff:      0.686D-03 0.885D-02 0.222D-01-0.219D-01-0.566D-01-0.400D-01
 Coeff:      0.233D+00-0.220D-01-0.458D+00-0.868D-01 0.142D+01
 Gap=     0.028 Goal=   None    Shift=    0.000
 Gap=     0.049 Goal=   None    Shift=    0.000
 RMSDP=3.68D-06 MaxDP=1.81D-04 DE=-2.61D-09 OVMax= 1.98D-04

 Cycle  18  Pass 1  IDiag  1:
 E= -1136.09305029890     Delta-E=       -0.000000001123 Rises=F Damp=F
 DIIS: error= 2.90D-07 at cycle  18 NSaved=  18.
 NSaved=18 IEnMin=18 EnMin= -1136.09305029890     IErMin=18 ErrMin= 2.90D-07
 ErrMax= 2.90D-07  0.00D+00 EMaxC= 1.00D-01 BMatC= 1.37D-11 BMatP= 4.37D-11
 IDIUse=1 WtCom= 1.00D+00 WtEn= 0.00D+00
 Coeff-Com:  0.174D-05-0.180D-05 0.336D-04 0.419D-04-0.980D-04-0.817D-03
 Coeff-Com: -0.806D-03-0.768D-03 0.426D-02 0.363D-01-0.167D-01-0.913D-01
 Coeff-Com:  0.159D-02 0.171D+00 0.124D-01-0.486D+00-0.458D-01 0.142D+01
 Coeff:      0.174D-05-0.180D-05 0.336D-04 0.419D-04-0.980D-04-0.817D-03
 Coeff:     -0.806D-03-0.768D-03 0.426D-02 0.363D-01-0.167D-01-0.913D-01
 Coeff:      0.159D-02 0.171D+00 0.124D-01-0.486D+00-0.458D-01 0.142D+01
 Gap=     0.028 Goal=   None    Shift=    0.000
 Gap=     0.049 Goal=   None    Shift=    0.000
 RMSDP=2.57D-06 MaxDP=1.35D-04 DE=-1.12D-09 OVMax= 1.19D-04

 Cycle  19  Pass 1  IDiag  1:
 E= -1136.09305029925     Delta-E=       -0.000000000353 Rises=F Damp=F
 DIIS: error= 1.46D-07 at cycle  19 NSaved=  19.
 NSaved=19 IEnMin=19 EnMin= -1136.09305029925     IErMin=19 ErrMin= 1.46D-07
 ErrMax= 1.46D-07  0.00D+00 EMaxC= 1.00D-01 BMatC= 3.84D-12 BMatP= 1.37D-11
 IDIUse=1 WtCom= 1.00D+00 WtEn= 0.00D+00
 Coeff-Com: -0.101D-04 0.132D-04 0.414D-04-0.164D-04 0.236D-03 0.121D-02
 Coeff-Com: -0.171D-03-0.395D-02-0.889D-02 0.866D-02 0.228D-01 0.134D-01
 Coeff-Com: -0.830D-01 0.823D-02 0.148D+00 0.262D-01-0.434D+00 0.304D-01
 Coeff-Com:  0.127D+01
 Coeff:     -0.101D-04 0.132D-04 0.414D-04-0.164D-04 0.236D-03 0.121D-02
 Coeff:     -0.171D-03-0.395D-02-0.889D-02 0.866D-02 0.228D-01 0.134D-01
 Coeff:     -0.830D-01 0.823D-02 0.148D+00 0.262D-01-0.434D+00 0.304D-01
 Coeff:      0.127D+01
 Gap=     0.028 Goal=   None    Shift=    0.000
 Gap=     0.049 Goal=   None    Shift=    0.000
 RMSDP=1.41D-06 MaxDP=1.06D-04 DE=-3.53D-10 OVMax= 5.27D-05

 Cycle  20  Pass 1  IDiag  1:
 E= -1136.09305029932     Delta-E=       -0.000000000070 Rises=F Damp=F
 DIIS: error= 8.27D-08 at cycle  20 NSaved=  20.
 NSaved=20 IEnMin=20 EnMin= -1136.09305029932     IErMin=20 ErrMin= 8.27D-08
 ErrMax= 8.27D-08  0.00D+00 EMaxC= 1.00D-01 BMatC= 9.02D-13 BMatP= 3.84D-12
 IDIUse=1 WtCom= 1.00D+00 WtEn= 0.00D+00
 Coeff-Com: -0.461D-07-0.871D-07-0.592D-05-0.645D-05 0.158D-04 0.143D-03
 Coeff-Com:  0.266D-03 0.279D-03-0.632D-03-0.107D-01 0.269D-02 0.271D-01
 Coeff-Com:  0.815D-02-0.564D-01-0.571D-02 0.171D+00-0.682D-01-0.340D+00
 Coeff-Com:  0.161D+00 0.111D+01
 Coeff:     -0.461D-07-0.871D-07-0.592D-05-0.645D-05 0.158D-04 0.143D-03
 Coeff:      0.266D-03 0.279D-03-0.632D-03-0.107D-01 0.269D-02 0.271D-01
 Coeff:      0.815D-02-0.564D-01-0.571D-02 0.171D+00-0.682D-01-0.340D+00
 Coeff:      0.161D+00 0.111D+01
 Gap=     0.028 Goal=   None    Shift=    0.000
 Gap=     0.049 Goal=   None    Shift=    0.000
 RMSDP=6.73D-07 MaxDP=6.31D-05 DE=-7.03D-11 OVMax= 2.21D-05

 Cycle  21  Pass 1  IDiag  1:
 E= -1136.09305029931     Delta-E=        0.000000000004 Rises=F Damp=F
 DIIS: error= 4.12D-08 at cycle  21 NSaved=  20.
 NSaved=20 IEnMin=19 EnMin= -1136.09305029932     IErMin=20 ErrMin= 4.12D-08
 ErrMax= 4.12D-08  0.00D+00 EMaxC= 1.00D-01 BMatC= 3.61D-13 BMatP= 9.02D-13
 IDIUse=1 WtCom= 1.00D+00 WtEn= 0.00D+00
 Coeff-Com:  0.225D-06-0.434D-05-0.133D-05-0.128D-04-0.263D-04-0.824D-06
 Coeff-Com:  0.118D-03 0.243D-03 0.185D-03-0.136D-02-0.111D-02 0.373D-02
 Coeff-Com:  0.152D-03-0.130D-01-0.731D-02 0.573D-01 0.891D-02-0.291D+00
 Coeff-Com:  0.116D+00 0.113D+01
 Coeff:      0.225D-06-0.434D-05-0.133D-05-0.128D-04-0.263D-04-0.824D-06
 Coeff:      0.118D-03 0.243D-03 0.185D-03-0.136D-02-0.111D-02 0.373D-02
 Coeff:      0.152D-03-0.130D-01-0.731D-02 0.573D-01 0.891D-02-0.291D+00
 Coeff:      0.116D+00 0.113D+01
 Gap=     0.028 Goal=   None    Shift=    0.000
 Gap=     0.049 Goal=   None    Shift=    0.000
 RMSDP=3.12D-07 MaxDP=2.33D-05 DE= 3.87D-12 OVMax= 1.43D-05

 Cycle  22  Pass 1  IDiag  1:
 E= -1136.09305029933     Delta-E=       -0.000000000013 Rises=F Damp=F
 DIIS: error= 2.63D-08 at cycle  22 NSaved=  20.
 NSaved=20 IEnMin=20 EnMin= -1136.09305029933     IErMin=20 ErrMin= 2.63D-08
 ErrMax= 2.63D-08  0.00D+00 EMaxC= 1.00D-01 BMatC= 1.41D-13 BMatP= 3.61D-13
 IDIUse=1 WtCom= 1.00D+00 WtEn= 0.00D+00
 Coeff-Com: -0.487D-05 0.122D-05-0.252D-04-0.121D-03 0.806D-04 0.184D-03
 Coeff-Com:  0.637D-03 0.158D-02-0.206D-02-0.793D-02 0.663D-02 0.115D-01
 Coeff-Com: -0.522D-02-0.480D-01 0.216D-01 0.137D+00-0.101D+00-0.382D+00
 Coeff-Com: -0.976D-01 0.146D+01
 Coeff:     -0.487D-05 0.122D-05-0.252D-04-0.121D-03 0.806D-04 0.184D-03
 Coeff:      0.637D-03 0.158D-02-0.206D-02-0.793D-02 0.663D-02 0.115D-01
 Coeff:     -0.522D-02-0.480D-01 0.216D-01 0.137D+00-0.101D+00-0.382D+00
 Coeff:     -0.976D-01 0.146D+01
 Gap=     0.028 Goal=   None    Shift=    0.000
 Gap=     0.049 Goal=   None    Shift=    0.000
 RMSDP=2.88D-07 MaxDP=2.80D-05 DE=-1.25D-11 OVMax= 1.05D-05

 Cycle  23  Pass 1  IDiag  1:
 E= -1136.09305029934     Delta-E=       -0.000000000013 Rises=F Damp=F
 DIIS: error= 1.52D-08 at cycle  23 NSaved=  20.
 NSaved=20 IEnMin=20 EnMin= -1136.09305029934     IErMin=20 ErrMin= 1.52D-08
 ErrMax= 1.52D-08  0.00D+00 EMaxC= 1.00D-01 BMatC= 4.57D-14 BMatP= 1.41D-13
 IDIUse=1 WtCom= 1.00D+00 WtEn= 0.00D+00
 Coeff-Com:  0.132D-05 0.434D-05 0.337D-04 0.344D-04-0.440D-04-0.154D-03
 Coeff-Com: -0.110D-02 0.644D-03 0.370D-02-0.175D-02-0.599D-02 0.600D-02
 Coeff-Com:  0.161D-01-0.372D-01-0.418D-02 0.100D+00 0.574D-01-0.509D+00
 Coeff-Com: -0.102D+00 0.148D+01
 Coeff:      0.132D-05 0.434D-05 0.337D-04 0.344D-04-0.440D-04-0.154D-03
 Coeff:     -0.110D-02 0.644D-03 0.370D-02-0.175D-02-0.599D-02 0.600D-02
 Coeff:      0.161D-01-0.372D-01-0.418D-02 0.100D+00 0.574D-01-0.509D+00
 Coeff:     -0.102D+00 0.148D+01
 Gap=     0.028 Goal=   None    Shift=    0.000
 Gap=     0.049 Goal=   None    Shift=    0.000
 RMSDP=1.47D-07 MaxDP=1.35D-05 DE=-1.25D-11 OVMax= 7.46D-06

 Cycle  24  Pass 1  IDiag  1:
 E= -1136.09305029934     Delta-E=       -0.000000000002 Rises=F Damp=F
 DIIS: error= 6.94D-09 at cycle  24 NSaved=  20.
 NSaved=20 IEnMin=20 EnMin= -1136.09305029934     IErMin=20 ErrMin= 6.94D-09
 ErrMax= 6.94D-09  0.00D+00 EMaxC= 1.00D-01 BMatC= 1.04D-14 BMatP= 4.57D-14
 IDIUse=1 WtCom= 1.00D+00 WtEn= 0.00D+00
 Large coefficients: NSaved= 20 BigCof=    0.00 CofMax=   10.00 Det=-5.55D-15
 Inversion failed.  Reducing to 19 matrices.
 Large coefficients: NSaved= 19 BigCof=    0.00 CofMax=   10.00 Det=-5.62D-15
 Inversion failed.  Reducing to 18 matrices.
 Large coefficients: NSaved= 18 BigCof=    0.00 CofMax=   10.00 Det=-5.83D-15
 Inversion failed.  Reducing to 17 matrices.
 Large coefficients: NSaved= 17 BigCof=    0.00 CofMax=   10.00 Det=-6.04D-15
 Inversion failed.  Reducing to 16 matrices.
 Large coefficients: NSaved= 16 BigCof=    0.00 CofMax=   10.00 Det=-6.09D-15
 Inversion failed.  Reducing to 15 matrices.
 Coeff-Com: -0.109D-03 0.143D-03 0.272D-03-0.114D-03-0.992D-03-0.251D-03
 Coeff-Com:  0.945D-02-0.924D-02-0.178D-01 0.251D-01 0.746D-01-0.664D-01
 Coeff-Com: -0.186D+00-0.597D-01 0.123D+01
 Coeff:     -0.109D-03 0.143D-03 0.272D-03-0.114D-03-0.992D-03-0.251D-03
 Coeff:      0.945D-02-0.924D-02-0.178D-01 0.251D-01 0.746D-01-0.664D-01
 Coeff:     -0.186D+00-0.597D-01 0.123D+01
 Gap=     0.028 Goal=   None    Shift=    0.000
 Gap=     0.049 Goal=   None    Shift=    0.000
 RMSDP=4.89D-08 MaxDP=3.42D-06 DE=-1.59D-12 OVMax= 3.09D-06

 Cycle  25  Pass 1  IDiag  1:
 E= -1136.09305029934     Delta-E=        0.000000000006 Rises=F Damp=F
 DIIS: error= 2.96D-09 at cycle  25 NSaved=  16.
 NSaved=16 IEnMin=15 EnMin= -1136.09305029934     IErMin=16 ErrMin= 2.96D-09
 ErrMax= 2.96D-09  0.00D+00 EMaxC= 1.00D-01 BMatC= 4.48D-15 BMatP= 1.04D-14
 IDIUse=1 WtCom= 1.00D+00 WtEn= 0.00D+00
 Large coefficients: NSaved= 16 BigCof=    0.00 CofMax=   10.00 Det=-5.53D-15
 Inversion failed.  Reducing to 15 matrices.
 Coeff-Com: -0.532D-04-0.959D-04 0.476D-03 0.128D-03-0.174D-02 0.192D-02
 Coeff-Com:  0.440D-02-0.756D-02-0.183D-01 0.336D-01 0.952D-01-0.959D-01
 Coeff-Com: -0.413D+00 0.565D+00 0.837D+00
 Coeff:     -0.532D-04-0.959D-04 0.476D-03 0.128D-03-0.174D-02 0.192D-02
 Coeff:      0.440D-02-0.756D-02-0.183D-01 0.336D-01 0.952D-01-0.959D-01
 Coeff:     -0.413D+00 0.565D+00 0.837D+00
 Gap=     0.028 Goal=   None    Shift=    0.000
 Gap=     0.049 Goal=   None    Shift=    0.000
 RMSDP=3.90D-08 MaxDP=4.11D-06 DE= 5.91D-12 OVMax= 1.40D-06

 Cycle  26  Pass 1  IDiag  1:
 E= -1136.09305029934     Delta-E=       -0.000000000006 Rises=F Damp=F
 DIIS: error= 1.46D-09 at cycle  26 NSaved=  16.
 NSaved=16 IEnMin=14 EnMin= -1136.09305029934     IErMin=16 ErrMin= 1.46D-09
 ErrMax= 1.46D-09  0.00D+00 EMaxC= 1.00D-01 BMatC= 9.91D-16 BMatP= 4.48D-15
 IDIUse=1 WtCom= 1.00D+00 WtEn= 0.00D+00
 Large coefficients: NSaved= 16 BigCof=    0.00 CofMax=   10.00 Det=-2.40D-15
 Inversion failed.  Reducing to 15 matrices.
 Coeff-Com: -0.386D-04 0.225D-03-0.483D-04-0.110D-02 0.788D-03 0.428D-02
 Coeff-Com: -0.499D-02-0.131D-01 0.899D-02 0.633D-01-0.199D-02-0.218D+00
 Coeff-Com:  0.917D-02 0.298D+00 0.854D+00
 Coeff:     -0.386D-04 0.225D-03-0.483D-04-0.110D-02 0.788D-03 0.428D-02
 Coeff:     -0.499D-02-0.131D-01 0.899D-02 0.633D-01-0.199D-02-0.218D+00
 Coeff:      0.917D-02 0.298D+00 0.854D+00
 Gap=     0.028 Goal=   None    Shift=    0.000
 Gap=     0.049 Goal=   None    Shift=    0.000
 RMSDP=1.74D-08 MaxDP=1.78D-06 DE=-5.91D-12 OVMax= 6.54D-07

 Cycle  27  Pass 1  IDiag  1:
 E= -1136.09305029934     Delta-E=       -0.000000000003 Rises=F Damp=F
 DIIS: error= 1.02D-09 at cycle  27 NSaved=  16.
 NSaved=16 IEnMin=16 EnMin= -1136.09305029934     IErMin=16 ErrMin= 1.02D-09
 ErrMax= 1.02D-09  0.00D+00 EMaxC= 1.00D-01 BMatC= 3.79D-16 BMatP= 9.91D-16
 IDIUse=1 WtCom= 1.00D+00 WtEn= 0.00D+00
 Large coefficients: NSaved= 16 BigCof=    0.00 CofMax=   10.00 Det=-8.60D-16
 Inversion failed.  Reducing to 15 matrices.
 Coeff-Com:  0.239D-04-0.583D-04-0.103D-03-0.200D-03 0.187D-03 0.136D-02
 Coeff-Com:  0.953D-03-0.896D-02-0.110D-02 0.327D-01 0.175D-01-0.151D+00
 Coeff-Com: -0.506D-01 0.420D+00 0.739D+00
 Coeff:      0.239D-04-0.583D-04-0.103D-03-0.200D-03 0.187D-03 0.136D-02
 Coeff:      0.953D-03-0.896D-02-0.110D-02 0.327D-01 0.175D-01-0.151D+00
 Coeff:     -0.506D-01 0.420D+00 0.739D+00
 Gap=     0.028 Goal=   None    Shift=    0.000
 Gap=     0.049 Goal=   None    Shift=    0.000
 RMSDP=6.68D-09 MaxDP=4.99D-07 DE=-3.18D-12 OVMax= 1.51D-07

 SCF Done:  E(UB3LYP) =  -1136.09305030     A.U. after   27 cycles
            NFock= 27  Conv=0.67D-08     -V/T= 2.0026
 <Sx>= 0.0000 <Sy>= 0.0000 <Sz>= 0.5000 <S**2>= 0.7718 S= 0.5109
 <L.S>= 0.000000000000E+00
 KE= 1.133144454298D+03 PE=-3.397091130549D+03 EE= 7.938886168366D+02
 Annihilation of the first spin contaminant:
 S**2 before annihilation     0.7718,   after     0.7502
 Leave Link  502 at Mon Nov 13 12:25:08 2023, MaxMem=  1879048192 cpu:             276.9 elap:              23.9
 (Enter /home/sekinelabo/g16/l601.exe)
 Copying SCF densities to generalized density rwf, IOpCl= 1 IROHF=0.

 **********************************************************************

            Population analysis using the SCF Density.

 **********************************************************************

 Orbital symmetries:
 Alpha Orbitals:
       Occupied  (A) (A) (A) (A) (A) (A) (A) (A) (A) (A) (A) (A)
                 (A) (A) (A) (A) (A) (A) (A) (A) (A) (A) (A) (A)
                 (A) (A) (A) (A) (A) (A) (A) (A) (A) (A) (A) (A)
                 (A) (A) (A)
       Virtual   (A) (A) (A) (A) (A) (A) (A) (A) (A) (A) (A) (A)
                 (A) (A) (A) (A) (A) (A) (A) (A) (A) (A) (A) (A)
                 (A) (A) (A) (A) (A) (A) (A) (A) (A) (A) (A) (A)
                 (A) (A) (A) (A) (A) (A) (A) (A) (A) (A) (A) (A)
                 (A) (A) (A) (A) (A) (A) (A) (A) (A) (A) (A) (A)
                 (A) (A) (A) (A) (A) (A) (A) (A) (A) (A) (A) (A)
                 (A) (A) (A) (A) (A) (A) (A) (A) (A) (A) (A) (A)
                 (A) (A) (A) (A) (A) (A) (A) (A) (A) (A) (A) (A)
                 (A) (A) (A) (A) (A) (A) (A) (A) (A) (A) (A) (A)
                 (A) (A) (A) (A) (A) (A) (A) (A) (A) (A) (A) (A)
                 (A) (A) (A) (A) (A) (A) (A) (A) (A) (A) (A) (A)
                 (A) (A) (A) (A) (A) (A) (A) (A) (A) (A) (A) (A)
                 (A) (A) (A) (A) (A) (A) (A) (A) (A) (A) (A) (A)
                 (A) (A) (A) (A) (A) (A) (A) (A) (A) (A) (A) (A)
                 (A) (A)
 Beta  Orbitals:
       Occupied  (A) (A) (A) (A) (A) (A) (A) (A) (A) (A) (A) (A)
                 (A) (A) (A) (A) (A) (A) (A) (A) (A) (A) (A) (A)
                 (A) (A) (A) (A) (A) (A) (A) (A) (A) (A) (A) (A)
                 (A) (A)
       Virtual   (A) (A) (A) (A) (A) (A) (A) (A) (A) (A) (A) (A)
                 (A) (A) (A) (A) (A) (A) (A) (A) (A) (A) (A) (A)
                 (A) (A) (A) (A) (A) (A) (A) (A) (A) (A) (A) (A)
                 (A) (A) (A) (A) (A) (A) (A) (A) (A) (A) (A) (A)
                 (A) (A) (A) (A) (A) (A) (A) (A) (A) (A) (A) (A)
                 (A) (A) (A) (A) (A) (A) (A) (A) (A) (A) (A) (A)
                 (A) (A) (A) (A) (A) (A) (A) (A) (A) (A) (A) (A)
                 (A) (A) (A) (A) (A) (A) (A) (A) (A) (A) (A) (A)
                 (A) (A) (A) (A) (A) (A) (A) (A) (A) (A) (A) (A)
                 (A) (A) (A) (A) (A) (A) (A) (A) (A) (A) (A) (A)
                 (A) (A) (A) (A) (A) (A) (A) (A) (A) (A) (A) (A)
                 (A) (A) (A) (A) (A) (A) (A) (A) (A) (A) (A) (A)
                 (A) (A) (A) (A) (A) (A) (A) (A) (A) (A) (A) (A)
                 (A) (A) (A) (A) (A) (A) (A) (A) (A) (A) (A) (A)
                 (A) (A) (A)
 The electronic state is 2-A.
 Alpha  occ. eigenvalues --  -38.45326 -38.45217 -38.44849 -38.43921 -38.43542
 Alpha  occ. eigenvalues --  -38.43353 -38.43239  -2.21194  -2.21107  -2.20839
 Alpha  occ. eigenvalues --   -2.19894  -2.19646  -2.19230  -2.19190  -1.14895
 Alpha  occ. eigenvalues --   -1.14873  -1.14847  -1.14814  -1.14786  -1.14734
 Alpha  occ. eigenvalues --   -1.14563  -1.14479  -1.14422  -1.13640  -1.13554
 Alpha  occ. eigenvalues --   -1.13508  -1.13337  -1.13289  -1.13245  -1.13004
 Alpha  occ. eigenvalues --   -1.12906  -1.12868  -1.12815  -1.12809  -1.12742
 Alpha  occ. eigenvalues --   -0.18960  -0.14848  -0.12136  -0.09723
 Alpha virt. eigenvalues --   -0.06946  -0.06586  -0.03971  -0.03348  -0.03102
 Alpha virt. eigenvalues --   -0.02376  -0.01809  -0.01076  -0.00777  -0.00273
 Alpha virt. eigenvalues --   -0.00006   0.00134   0.00344   0.00381   0.00478
 Alpha virt. eigenvalues --    0.00790   0.01051   0.01150   0.01301   0.01432
 Alpha virt. eigenvalues --    0.01517   0.01665   0.01781   0.01798   0.02044
 Alpha virt. eigenvalues --    0.02095   0.02258   0.02299   0.02424   0.02506
 Alpha virt. eigenvalues --    0.02546   0.02637   0.02774   0.02899   0.02954
 Alpha virt. eigenvalues --    0.03229   0.03293   0.03426   0.03641   0.03756
 Alpha virt. eigenvalues --    0.04024   0.04100   0.04647   0.04746   0.05092
 Alpha virt. eigenvalues --    0.05317   0.05502   0.05573   0.06014   0.06233
 Alpha virt. eigenvalues --    0.06524   0.06566   0.07028   0.07479   0.07544
 Alpha virt. eigenvalues --    0.07687   0.08177   0.08285   0.08639   0.08771
 Alpha virt. eigenvalues --    0.09224   0.09296   0.10125   0.10982   0.11188
 Alpha virt. eigenvalues --    0.11561   0.12159   0.12771   0.13507   0.13657
 Alpha virt. eigenvalues --    0.14019   0.14272   0.14465   0.15122   0.15341
 Alpha virt. eigenvalues --    0.15799   0.16786   0.17699   0.20413   0.24078
 Alpha virt. eigenvalues --    0.25711   0.27393   0.28221   0.29140   0.30111
 Alpha virt. eigenvalues --    0.30652   0.31065   0.32117   0.33328   0.34725
 Alpha virt. eigenvalues --    0.35242   0.35859   0.36245   0.37429   0.38181
 Alpha virt. eigenvalues --    0.38722   0.39710   0.40208   0.40913   0.42471
 Alpha virt. eigenvalues --    0.42584   0.43478   0.43585   0.43722   0.44386
 Alpha virt. eigenvalues --    0.44515   0.45139   0.45509   0.45962   0.46136
 Alpha virt. eigenvalues --    0.46744   0.47104   0.47535   0.48170   0.48803
 Alpha virt. eigenvalues --    0.49085   0.49998   0.50505   0.52235   0.52618
 Alpha virt. eigenvalues --    0.53406   0.54145   0.54685   0.56545   0.58220
 Alpha virt. eigenvalues --    0.59982   0.63971   0.65955   0.69586   0.69879
 Alpha virt. eigenvalues --    0.71804   0.73183   0.76057   0.78605   0.84107
 Alpha virt. eigenvalues --    2.07456   2.11476   2.12836   2.18634   2.22426
 Alpha virt. eigenvalues --    2.24578   2.33022   4.40512   4.41100   4.41610
 Alpha virt. eigenvalues --    4.42171   4.42703   4.43052   4.43975   4.44378
 Alpha virt. eigenvalues --    4.45122   4.45739   4.46514   4.47160   4.51976
 Alpha virt. eigenvalues --    4.58641   4.60237   4.62642   4.65755   4.69526
 Alpha virt. eigenvalues --    4.72410   4.74379   4.77546  96.27831  96.33167
 Alpha virt. eigenvalues --   96.35058  96.43018  96.47850  96.50761  96.61652
  Beta  occ. eigenvalues --  -38.45330 -38.45211 -38.44809 -38.43916 -38.43474
  Beta  occ. eigenvalues --  -38.43280 -38.43224  -2.21201  -2.21099  -2.20767
  Beta  occ. eigenvalues --   -2.19889  -2.19524  -2.19214  -2.19054  -1.14905
  Beta  occ. eigenvalues --   -1.14871  -1.14840  -1.14819  -1.14762  -1.14717
  Beta  occ. eigenvalues --   -1.14516  -1.14407  -1.14378  -1.13624  -1.13538
  Beta  occ. eigenvalues --   -1.13497  -1.13244  -1.13210  -1.13165  -1.12955
  Beta  occ. eigenvalues --   -1.12889  -1.12830  -1.12724  -1.12714  -1.12666
  Beta  occ. eigenvalues --   -0.18408  -0.14493  -0.11645
  Beta virt. eigenvalues --   -0.06789  -0.06333  -0.06231  -0.03625  -0.03168
  Beta virt. eigenvalues --   -0.02793  -0.02060  -0.01521  -0.00748  -0.00550
  Beta virt. eigenvalues --   -0.00022   0.00170   0.00264   0.00468   0.00502
  Beta virt. eigenvalues --    0.00625   0.00926   0.01129   0.01254   0.01357
  Beta virt. eigenvalues --    0.01511   0.01607   0.01777   0.01821   0.01950
  Beta virt. eigenvalues --    0.02122   0.02208   0.02383   0.02464   0.02546
  Beta virt. eigenvalues --    0.02635   0.02681   0.02706   0.02847   0.02951
  Beta virt. eigenvalues --    0.03019   0.03361   0.03428   0.03479   0.03750
  Beta virt. eigenvalues --    0.03843   0.04104   0.04156   0.04687   0.04874
  Beta virt. eigenvalues --    0.05136   0.05391   0.05582   0.05704   0.06080
  Beta virt. eigenvalues --    0.06297   0.06581   0.06649   0.07131   0.07599
  Beta virt. eigenvalues --    0.07690   0.07866   0.08226   0.08460   0.08795
  Beta virt. eigenvalues --    0.08862   0.09404   0.09558   0.10267   0.11130
  Beta virt. eigenvalues --    0.11506   0.11759   0.12414   0.13019   0.13751
  Beta virt. eigenvalues --    0.13802   0.14203   0.14391   0.14591   0.15292
  Beta virt. eigenvalues --    0.15564   0.15904   0.17084   0.17760   0.20622
  Beta virt. eigenvalues --    0.24408   0.25923   0.27643   0.28427   0.29329
  Beta virt. eigenvalues --    0.30156   0.30874   0.31202   0.32310   0.33611
  Beta virt. eigenvalues --    0.34960   0.35705   0.36358   0.36769   0.37584
  Beta virt. eigenvalues --    0.38529   0.38997   0.40008   0.40494   0.41291
  Beta virt. eigenvalues --    0.42617   0.42750   0.43539   0.43629   0.43925
  Beta virt. eigenvalues --    0.44623   0.44652   0.45394   0.45706   0.46118
  Beta virt. eigenvalues --    0.46244   0.46935   0.47366   0.47689   0.48310
  Beta virt. eigenvalues --    0.48963   0.49238   0.50094   0.50640   0.52448
  Beta virt. eigenvalues --    0.52813   0.53582   0.54262   0.54842   0.56668
  Beta virt. eigenvalues --    0.58522   0.60059   0.64221   0.66025   0.69770
  Beta virt. eigenvalues --    0.70066   0.71962   0.73272   0.76148   0.78677
  Beta virt. eigenvalues --    0.84285   2.07516   2.11733   2.12858   2.18707
  Beta virt. eigenvalues --    2.22562   2.24644   2.33189   4.40557   4.41117
  Beta virt. eigenvalues --    4.41664   4.42191   4.42781   4.43113   4.44007
  Beta virt. eigenvalues --    4.44396   4.45133   4.45802   4.46633   4.47260
  Beta virt. eigenvalues --    4.52053   4.58675   4.60281   4.62661   4.65803
  Beta virt. eigenvalues --    4.69546   4.72442   4.74418   4.77636  96.27856
  Beta virt. eigenvalues --   96.33253  96.35067  96.43042  96.47891  96.50786
  Beta virt. eigenvalues --   96.61707
          Condensed to atoms (all electrons):
               1          2          3          4          5          6
     1  Na  18.976950  -5.308736  -2.034605  -1.416585   1.375657   0.641098
     2  Na  -5.308736  14.339569   1.284275   0.953042  -0.995377  -0.025115
     3  Na  -2.034605   1.284275  11.664495   0.308072  -0.307093  -0.394854
     4  Na  -1.416585   0.953042   0.308072  12.133820  -0.587255  -0.601060
     5  Na   1.375657  -0.995377  -0.307093  -0.587255  11.066519   0.291115
     6  Na   0.641098  -0.025115  -0.394854  -0.601060   0.291115  11.440000
     7  Na   0.045696  -0.060298  -0.017636   0.486806  -0.186753  -0.299687
               7
     1  Na   0.045696
     2  Na  -0.060298
     3  Na  -0.017636
     4  Na   0.486806
     5  Na  -0.186753
     6  Na  -0.299687
     7  Na  11.077228
          Atomic-Atomic Spin Densities.
               1          2          3          4          5          6
     1  Na   0.459429  -0.413854   0.345289  -0.101960  -0.270515  -0.237168
     2  Na  -0.413854   0.338336  -0.079057   0.101071   0.182919   0.136382
     3  Na   0.345289  -0.079057  -0.253879   0.044611   0.169477   0.176792
     4  Na  -0.101960   0.101071   0.044611   0.076798   0.009731  -0.015193
     5  Na  -0.270515   0.182919   0.169477   0.009731   0.007247   0.008263
     6  Na  -0.237168   0.136382   0.176792  -0.015193   0.008263  -0.026215
     7  Na   0.191624  -0.135409  -0.001701   0.076071  -0.076103  -0.159943
               7
     1  Na   0.191624
     2  Na  -0.135409
     3  Na  -0.001701
     4  Na   0.076071
     5  Na  -0.076103
     6  Na  -0.159943
     7  Na   0.495635
 Mulliken charges and spin densities:
               1          2
     1  Na  -1.279476  -0.027156
     2  Na   0.812639   0.130388
     3  Na   0.497345   0.401531
     4  Na  -0.276840   0.191128
     5  Na   0.343186   0.031018
     6  Na  -0.051497  -0.117082
     7  Na  -0.045358   0.390172
 Sum of Mulliken charges =  -0.00000   1.00000
 Mulliken charges and spin densities with hydrogens summed into heavy atoms:
               1          2
     1  Na  -1.279476  -0.027156
     2  Na   0.812639   0.130388
     3  Na   0.497345   0.401531
     4  Na  -0.276840   0.191128
     5  Na   0.343186   0.031018
     6  Na  -0.051497  -0.117082
     7  Na  -0.045358   0.390172
 Electronic spatial extent (au):  <R**2>=           2848.9881
 Charge=             -0.0000 electrons
 Dipole moment (field-independent basis, Debye):
    X=              1.7691    Y=              0.2641    Z=             -0.1279  Tot=              1.7933
 Quadrupole moment (field-independent basis, Debye-Ang):
   XX=            -70.0531   YY=            -68.9588   ZZ=            -65.3639
   XY=            -12.4656   XZ=              1.0256   YZ=              5.7392
 Traceless Quadrupole moment (field-independent basis, Debye-Ang):
   XX=             -1.9279   YY=             -0.8335   ZZ=              2.7614
   XY=            -12.4656   XZ=              1.0256   YZ=              5.7392
 Octapole moment (field-independent basis, Debye-Ang**2):
  XXX=             63.1928  YYY=             -3.3501  ZZZ=              2.6001  XYY=             -1.2802
  XXY=            -16.9151  XXZ=             -2.9339  XZZ=             11.1805  YZZ=              5.7236
  YYZ=             -3.7996  XYZ=              3.5787
 Hexadecapole moment (field-independent basis, Debye-Ang**3):
 XXXX=          -3397.0382 YYYY=          -1386.4501 ZZZZ=           -417.0022 XXXY=           -219.2423
 XXXZ=             47.1143 YYYX=           -184.6892 YYYZ=             54.9017 ZZZX=             -6.2932
 ZZZY=             24.4005 XXYY=           -639.4587 XXZZ=           -599.8254 YYZZ=           -301.0237
 XXYZ=             77.4090 YYXZ=             -8.9397 ZZXY=            -15.9512
 N-N= 3.339650091145D+02 E-N=-3.397091130464D+03  KE= 1.133144454298D+03
                          Isotropic Fermi Contact Couplings
        Atom                 a.u.       MegaHertz       Gauss      10(-4) cm-1
     1  Na(23)             0.27758     328.38486     117.17588     109.53740
     2  Na(23)            -0.01390     -16.44500      -5.86798      -5.48546
     3  Na(23)             0.13691     161.96705      57.79387      54.02639
     4  Na(23)            -0.02502     -29.59448     -10.56005      -9.87166
     5  Na(23)            -0.01874     -22.16610      -7.90942      -7.39382
     6  Na(23)            -0.04967     -58.76543     -20.96897     -19.60204
     7  Na(23)             0.32119     379.97475     135.58444     126.74593
 --------------------------------------------------------
       Center         ----  Spin Dipole Couplings  ----
                      3XX-RR        3YY-RR        3ZZ-RR
 --------------------------------------------------------
     1   Atom        0.004613     -0.002460     -0.002152
     2   Atom        0.014210      0.002720     -0.016930
     3   Atom        0.013055     -0.005467     -0.007588
     4   Atom        0.011531      0.003021     -0.014552
     5   Atom       -0.001588      0.003615     -0.002027
     6   Atom        0.080523     -0.040306     -0.040217
     7   Atom       -0.001266      0.001852     -0.000586
 --------------------------------------------------------
                        XY            XZ            YZ
 --------------------------------------------------------
     1   Atom       -0.008470     -0.008448      0.000535
     2   Atom        0.025482     -0.000803      0.000387
     3   Atom        0.014222     -0.019984     -0.011043
     4   Atom        0.028261     -0.006394     -0.006409
     5   Atom       -0.014126      0.008395     -0.001326
     6   Atom        0.007365      0.007196      0.002570
     7   Atom       -0.005405     -0.005581     -0.001401
 --------------------------------------------------------


 ---------------------------------------------------------------------------------
              Anisotropic Spin Dipole Couplings in Principal Axis System
 ---------------------------------------------------------------------------------

       Atom             a.u.   MegaHertz   Gauss  10(-4) cm-1        Axes

              Baa    -0.0110    -1.548    -0.552    -0.516  0.6090  0.5722  0.5493
     1 Na(23) Bbb    -0.0028    -0.401    -0.143    -0.134  0.0138 -0.7000  0.7140
              Bcc     0.0138     1.949     0.695     0.650  0.7930 -0.4273 -0.4342
 
              Baa    -0.0182    -2.567    -0.916    -0.856 -0.5275  0.6534 -0.5430
     2 Na(23) Bbb    -0.0164    -2.318    -0.827    -0.773 -0.3341  0.4280  0.8397
              Bcc     0.0346     4.884     1.743     1.629  0.7811  0.6244 -0.0075
 
              Baa    -0.0203    -2.865    -1.022    -0.956  0.4164  0.2514  0.8737
     3 Na(23) Bbb    -0.0132    -1.860    -0.664    -0.621 -0.4876  0.8729 -0.0188
              Bcc     0.0335     4.726     1.686     1.576  0.7674  0.4182 -0.4861
 
              Baa    -0.0214    -3.021    -1.078    -1.008 -0.6320  0.7647  0.1257
     4 Na(23) Bbb    -0.0160    -2.264    -0.808    -0.755  0.2118  0.0145  0.9772
              Bcc     0.0374     5.285     1.886     1.763  0.7454  0.6442 -0.1711
 
              Baa    -0.0159    -2.239    -0.799    -0.747  0.7523  0.5181 -0.4070
     5 Na(23) Bbb    -0.0017    -0.242    -0.087    -0.081  0.1118  0.5084  0.8538
              Bcc     0.0176     2.482     0.886     0.828 -0.6492  0.6878 -0.3246
 
              Baa    -0.0428    -6.048    -2.158    -2.018 -0.0020  0.7160 -0.6981
     6 Na(23) Bbb    -0.0386    -5.448    -1.944    -1.817 -0.0861  0.6954  0.7135
              Bcc     0.0814    11.497     4.102     3.835  0.9963  0.0616  0.0602
 
              Baa    -0.0089    -1.253    -0.447    -0.418  0.7127  0.4315  0.5531
     7 Na(23) Bbb     0.0020     0.280     0.100     0.094 -0.1746 -0.6545  0.7356
              Bcc     0.0069     0.972     0.347     0.324  0.6794 -0.6208 -0.3911
 

 ---------------------------------------------------------------------------------

 No NMR shielding tensors so no spin-rotation constants.
 Leave Link  601 at Mon Nov 13 12:25:09 2023, MaxMem=  1879048192 cpu:               2.5 elap:               0.2
 (Enter /home/sekinelabo/g16/l701.exe)
 ... and contract with generalized density number  0.
 Compute integral first derivatives.
 Leave Link  701 at Mon Nov 13 12:25:09 2023, MaxMem=  1879048192 cpu:               1.7 elap:               0.1
 (Enter /home/sekinelabo/g16/l702.exe)
 L702 exits ... SP integral derivatives will be done elsewhere.
 Leave Link  702 at Mon Nov 13 12:25:09 2023, MaxMem=  1879048192 cpu:               0.5 elap:               0.0
 (Enter /home/sekinelabo/g16/l703.exe)
 Integral derivatives from FoFJK, PRISM(SPDF).
 Compute integral first derivatives, UseDBF=F ICtDFT=           0.
 Calling FoFJK, ICntrl=      2127 FMM=F ISym2X=0 I1Cent= 0 IOpClX= 1 NMat=1 NMatS=1 NMatT=0.
 FoFJK:  IHMeth= 1 ICntrl=    2127 DoSepK=F KAlg= 0 I1Cent=           0 FoldK=F
 IRaf=         0 NMat=       1 IRICut=       1 DoRegI=T DoRafI=F ISym2E= 0 IDoP0=0 IntGTp=1.
 FoFCou: FMM=F IPFlag=           0 FMFlag=      100000 FMFlg1=         800
         NFxFlg=           0 DoJE=F BraDBF=F KetDBF=F FulRan=T
         wScrn=  0.000000 ICntrl=      2127 IOpCl=  1 I1Cent=           0 NGrid=           0
         NMat0=    1 NMatS0=      1 NMatT0=    0 NMatD0=    1 NMtDS0=    0 NMtDT0=    0
 Symmetry not used in FoFCou.
 Leave Link  703 at Mon Nov 13 12:25:11 2023, MaxMem=  1879048192 cpu:              34.3 elap:               2.2
 (Enter /home/sekinelabo/g16/l716.exe)
 Dipole        = 6.96023360D-01 1.03898964D-01-5.03064708D-02
 ***** Axes restored to original set *****
 -------------------------------------------------------------------
 Center     Atomic                   Forces (Hartrees/Bohr)
 Number     Number              X              Y              Z
 -------------------------------------------------------------------
      1       11          -0.007839817   -0.010755891    0.000836496
      2       11           0.005810319   -0.006137004   -0.002440111
      3       11           0.008619602    0.008404358    0.006033744
      4       11           0.001652518    0.009031160   -0.007442765
      5       11          -0.001792451    0.005058353   -0.000918326
      6       11          -0.002853371   -0.004429038    0.005865402
      7       11          -0.003596799   -0.001171937   -0.001934441
 -------------------------------------------------------------------
 Cartesian Forces:  Max     0.010755891 RMS     0.005715931
 Z-matrix is all fixed cartesians, so copy forces.
 Force constants in Cartesian coordinates: 
                1             2             3             4             5 
      1  0.135067D+00
      2  0.500466D-02  0.130125D+00
      3 -0.474486D-02 -0.487175D-03  0.835679D-01
      4 -0.424238D-01  0.162974D-01  0.779507D-02  0.506088D-01
      5 -0.904447D-02 -0.236324D-01  0.331659D-02 -0.147957D-01  0.559713D-01
      6  0.908013D-03  0.275126D-02 -0.239094D-01 -0.328001D-02  0.128460D-01
      7 -0.333857D-01 -0.128529D-01 -0.121491D-01 -0.104643D-01  0.160873D-01
      8 -0.149453D-01 -0.301514D-01 -0.144144D-01 -0.729151D-02 -0.351370D-01
      9 -0.105763D-02 -0.544869D-02 -0.139495D-01 -0.792027D-02 -0.132271D-01
     10 -0.267677D-01 -0.732502D-02  0.892651D-02  0.164537D-02  0.704686D-02
     11  0.211627D-02 -0.366761D-01  0.204063D-01  0.440762D-02 -0.209499D-02
     12  0.351927D-02  0.449181D-02 -0.147347D-01  0.257183D-02 -0.178413D-02
     13  0.111961D-02  0.634939D-02 -0.254321D-02  0.703665D-04  0.126186D-03
     14  0.621599D-02 -0.333594D-02 -0.243086D-02  0.989894D-04  0.114051D-03
     15 -0.297889D-02 -0.227584D-02  0.212109D-02  0.116570D-03  0.258854D-03
     16 -0.314550D-01 -0.436669D-02  0.657206D-02  0.568777D-03  0.592921D-03
     17  0.950720D-02 -0.377660D-01 -0.857476D-02  0.119443D-02  0.455494D-02
     18  0.243627D-02 -0.198154D-02 -0.364143D-01  0.785925D-03 -0.123563D-02
     19 -0.215424D-02 -0.310681D-02 -0.385649D-02 -0.520890D-05 -0.131519D-04
     20  0.114565D-02  0.143729D-02  0.218439D-02  0.887831D-04  0.224168D-03
     21  0.191783D-02  0.295017D-02  0.331885D-02 -0.691103D-04 -0.174496D-03
                6             7             8             9            10 
      6  0.227896D-01
      7  0.305113D-02  0.713874D-01
      8 -0.193242D-01  0.482797D-02  0.755724D-01
      9 -0.124843D-01  0.251480D-01  0.207555D-01  0.503871D-01
     10 -0.339699D-02 -0.240100D-01  0.156401D-01 -0.202403D-01  0.782748D-01
     11  0.600111D-02 -0.530074D-02 -0.139519D-01 -0.394853D-02 -0.830217D-02
     12  0.490012D-02 -0.916476D-02  0.106537D-01 -0.326779D-01 -0.668917D-02
     13  0.573941D-04 -0.175414D-02  0.351169D-03  0.209325D-02 -0.282479D-01
     14 -0.245412D-05  0.118482D-02 -0.480694D-04 -0.137226D-02 -0.867684D-03
     15  0.148653D-03 -0.457840D-02  0.814416D-03  0.542505D-02  0.178075D-01
     16  0.266629D-02 -0.177391D-02  0.141990D-02  0.197370D-02 -0.872677D-03
     17 -0.237093D-02 -0.393434D-02  0.367701D-02  0.329800D-02 -0.617814D-02
     18  0.863251D-02 -0.231631D-02  0.154545D-02  0.325522D-02  0.355104D-02
     19 -0.582343D-05  0.000000D+00 -0.229094D-05  0.333766D-05 -0.219092D-04
     20  0.992575D-04 -0.121559D-04  0.390480D-04 -0.568888D-04 -0.139118D-04
     21 -0.772638D-04  0.946238D-05 -0.303957D-04  0.442832D-04  0.414229D-04
               11            12            13            14            15 
     11  0.654025D-01
     12 -0.242060D-01  0.638451D-01
     13  0.131759D-01  0.675286D-02  0.458872D-01
     14 -0.160716D-01  0.834204D-02 -0.121535D-01  0.530575D-01
     15 -0.104806D-02 -0.203115D-01 -0.107818D-01 -0.102119D-01  0.223766D-01
     16 -0.608502D-02  0.305106D-02 -0.179249D-01  0.533068D-02 -0.370286D-03
     17  0.340659D-02  0.253548D-02 -0.311649D-02 -0.326488D-01  0.168510D-01
     18  0.276675D-02 -0.110463D-02  0.150773D-02  0.501714D-02 -0.124654D-01
     19 -0.119024D-04 -0.410806D-04  0.849825D-03  0.190675D-03  0.785250D-03
     20 -0.145121D-04 -0.328652D-04 -0.473271D-02 -0.106720D-02 -0.438840D-02
     21  0.284662D-04  0.834829D-04  0.291376D-02  0.658327D-03  0.270548D-02
               16            17            18            19            20 
     16  0.730882D-01
     17  0.844838D-02  0.740634D-01
     18  0.239952D-02 -0.978584D-03  0.595686D-01
     19 -0.216304D-01 -0.592104D-02 -0.836416D-02  0.229613D-01
     20 -0.534017D-02 -0.152871D-01 -0.513359D-02  0.886451D-02  0.146683D-01
     21 -0.162923D-01 -0.107602D-01 -0.214720D-01  0.114790D-01  0.732810D-02
               21 
     21  0.153971D-01
 Leave Link  716 at Mon Nov 13 12:25:11 2023, MaxMem=  1879048192 cpu:               0.5 elap:               0.0
 (Enter /home/sekinelabo/g16/l103.exe)

 GradGradGradGradGradGradGradGradGradGradGradGradGradGradGradGradGradGrad
 Berny optimization.
 Search for a local minimum.
 Step number   1 out of a maximum of    2
 All quantities printed in internal units (Hartrees-Bohrs-Radians)
 Second derivative matrix not updated -- first step.
 ITU=  0
     Eigenvalues ---    0.00539   0.01154   0.02264   0.03092   0.03940
     Eigenvalues ---    0.04706   0.08238   0.08861   0.09280   0.10112
     Eigenvalues ---    0.11502   0.12483   0.14351   0.17291   0.18504
 Quadratic step=4.320D-01 exceeds max=3.000D-01 adjusted using Lamda=-1.264D-02.
 Angle between NR and scaled steps=  12.81 degrees.
 Angle between quadratic step and forces=  33.77 degrees.
 Linear search not attempted -- first point.
 B after Tr=    -0.000000    0.000000   -0.000000
         Rot=    1.000000    0.000000   -0.000000    0.000000 Ang=   0.00 deg.
 Variable       Old X    -DE/DX   Delta X   Delta X   Delta X     New X
                                 (Linear)    (Quad)   (Total)
    X1        9.25155  -0.00784   0.00000  -0.00399  -0.00399   9.24755
    Y1        1.78162  -0.01076   0.00000  -0.06363  -0.06363   1.71799
    Z1        2.19072   0.00084   0.00000   0.01396   0.01396   2.20468
    X2       14.57709   0.00581   0.00000   0.11028   0.11028  14.68738
    Y2        0.00000  -0.00614   0.00000  -0.07552  -0.07552  -0.07552
    Z2        1.45086  -0.00244   0.00000  -0.00413  -0.00413   1.44673
    X3       13.58467   0.00862   0.00000   0.11596   0.11596  13.70063
    Y3        5.14924   0.00840   0.00000   0.06243   0.06243   5.21166
    Z3        3.57634   0.00603   0.00000   0.01771   0.01771   3.59404
    X4        9.60422   0.00165   0.00000   0.02640   0.02640   9.63062
    Y4        7.00705   0.00903   0.00000   0.09658   0.09658   7.10363
    Z4        0.00000  -0.00744   0.00000  -0.05049  -0.05049  -0.05049
    X5        4.56975  -0.00179   0.00000  -0.03798  -0.03798   4.53177
    Y5        8.32173   0.00506   0.00000   0.06956   0.06956   8.39129
    Z5        2.27030  -0.00092   0.00000  -0.00577  -0.00577   2.26453
    X6        4.05200  -0.00285   0.00000  -0.07754  -0.07754   3.97447
    Y6        2.98366  -0.00443   0.00000  -0.05680  -0.05680   2.92686
    Z6        4.12683   0.00587   0.00000   0.05254   0.05254   4.17937
    X7        0.00000  -0.00360   0.00000  -0.13313  -0.13313  -0.13313
    Y7        0.40299  -0.00117   0.00000  -0.03263  -0.03263   0.37036
    Z7        1.11695  -0.00193   0.00000  -0.02381  -0.02381   1.09314
         Item               Value     Threshold  Converged?
 Maximum Force            0.010756     0.000450     NO 
 RMS     Force            0.005716     0.000300     NO 
 Maximum Displacement     0.133134     0.001800     NO 
 RMS     Displacement     0.065481     0.001200     NO 
 Predicted change in Energy=-3.835811D-03
 GradGradGradGradGradGradGradGradGradGradGradGradGradGradGradGradGradGrad

 Leave Link  103 at Mon Nov 13 12:25:11 2023, MaxMem=  1879048192 cpu:               0.3 elap:               0.0
 (Enter /home/sekinelabo/g16/l9999.exe)
 1\1\GINC-SEKINELABO-XA7R-R37\Force\UB3LYP\6-311+G(d)\Na7(2)\SEKINELABO
 \13-Nov-2023\0\\#P B3LYP/6-311+g(d) force\\Gaussian input prepared by 
 ASE\\0,2\Na,4.8957073372,0.9427912512,1.1592816182\Na,7.7138659839,0.,
 0.7677615255\Na,7.1886973092,2.7248579467,1.8925153199\Na,5.0823333887
 ,3.7079714048,0.\Na,2.4182088434,4.4036706853,1.2013928469\Na,2.144227
 4321,1.5788836001,2.1838234619\Na,0.,0.21325163,0.5910662264\\Version=
 ES64L-G16RevB.01\State=2-A\HF=-1136.0930503\S2=0.771837\S2-1=0.\S2A=0.
 750178\RMSD=6.676e-09\RMSF=5.716e-03\Dipole=0.6960234,0.103899,-0.0503
 065\Quadrupole=-1.4333234,-0.6196949,2.0530183,-9.2678539,0.7624987,4.
 2669887\PG=C01 [X(Na7)]\\@


 THOSE WHO ARE UNABLE TO LEARN FROM PAST MEETINGS
 ARE CONDEMNED TO REPEAT THEM.
 Job cpu time:       0 days  0 hours  5 minutes 29.6 seconds.
 Elapsed time:       0 days  0 hours  0 minutes 27.3 seconds.
 File lengths (MBytes):  RWF=     32 Int=      0 D2E=      0 Chk=      5 Scr=      1
 Normal termination of Gaussian 16 at Mon Nov 13 12:25:11 2023.
