 Entering Gaussian System, Link 0=g16
 Initial command:
 /home/sekinelabo/g16/l1.exe "/home/sekinelabo/g16temp/Gau-3987992.inp" -scrdir="/home/sekinelabo/g16temp/"
 Entering Link 1 = /home/sekinelabo/g16/l1.exe PID=   3987994.
  
 Copyright (c) 1988-2017, Gaussian, Inc.  All Rights Reserved.
  
 This is part of the Gaussian(R) 16 program.  It is based on
 the Gaussian(R) 09 system (copyright 2009, Gaussian, Inc.),
 the Gaussian(R) 03 system (copyright 2003, Gaussian, Inc.),
 the Gaussian(R) 98 system (copyright 1998, Gaussian, Inc.),
 the Gaussian(R) 94 system (copyright 1995, Gaussian, Inc.),
 the Gaussian 92(TM) system (copyright 1992, Gaussian, Inc.),
 the Gaussian 90(TM) system (copyright 1990, Gaussian, Inc.),
 the Gaussian 88(TM) system (copyright 1988, Gaussian, Inc.),
 the Gaussian 86(TM) system (copyright 1986, Carnegie Mellon
 University), and the Gaussian 82(TM) system (copyright 1983,
 Carnegie Mellon University). Gaussian is a federally registered
 trademark of Gaussian, Inc.
  
 This software contains proprietary and confidential information,
 including trade secrets, belonging to Gaussian, Inc.
  
 This software is provided under written license and may be
 used, copied, transmitted, or stored only in accord with that
 written license.
  
 The following legend is applicable only to US Government
 contracts under FAR:
  
                    RESTRICTED RIGHTS LEGEND
  
 Use, reproduction and disclosure by the US Government is
 subject to restrictions as set forth in subparagraphs (a)
 and (c) of the Commercial Computer Software - Restricted
 Rights clause in FAR 52.227-19.
  
 Gaussian, Inc.
 340 Quinnipiac St., Bldg. 40, Wallingford CT 06492
  
  
 ---------------------------------------------------------------
 Warning -- This program may not be used in any manner that
 competes with the business of Gaussian, Inc. or will provide
 assistance to any competitor of Gaussian, Inc.  The licensee
 of this program is prohibited from giving any competitor of
 Gaussian, Inc. access to this program.  By using this program,
 the user acknowledges that Gaussian, Inc. is engaged in the
 business of creating and licensing software in the field of
 computational chemistry and represents and warrants to the
 licensee that it is not a competitor of Gaussian, Inc. and that
 it will not use this program in any manner prohibited above.
 ---------------------------------------------------------------
  

 Cite this work as:
 Gaussian 16, Revision B.01,
 M. J. Frisch, G. W. Trucks, H. B. Schlegel, G. E. Scuseria, 
 M. A. Robb, J. R. Cheeseman, G. Scalmani, V. Barone, 
 G. A. Petersson, H. Nakatsuji, X. Li, M. Caricato, A. V. Marenich, 
 J. Bloino, B. G. Janesko, R. Gomperts, B. Mennucci, H. P. Hratchian, 
 J. V. Ortiz, A. F. Izmaylov, J. L. Sonnenberg, D. Williams-Young, 
 F. Ding, F. Lipparini, F. Egidi, J. Goings, B. Peng, A. Petrone, 
 T. Henderson, D. Ranasinghe, V. G. Zakrzewski, J. Gao, N. Rega, 
 G. Zheng, W. Liang, M. Hada, M. Ehara, K. Toyota, R. Fukuda, 
 J. Hasegawa, M. Ishida, T. Nakajima, Y. Honda, O. Kitao, H. Nakai, 
 T. Vreven, K. Throssell, J. A. Montgomery, Jr., J. E. Peralta, 
 F. Ogliaro, M. J. Bearpark, J. J. Heyd, E. N. Brothers, K. N. Kudin, 
 V. N. Staroverov, T. A. Keith, R. Kobayashi, J. Normand, 
 K. Raghavachari, A. P. Rendell, J. C. Burant, S. S. Iyengar, 
 J. Tomasi, M. Cossi, J. M. Millam, M. Klene, C. Adamo, R. Cammi, 
 J. W. Ochterski, R. L. Martin, K. Morokuma, O. Farkas, 
 J. B. Foresman, and D. J. Fox, Gaussian, Inc., Wallingford CT, 2016.
 
 ******************************************
 Gaussian 16:  ES64L-G16RevB.01 20-Dec-2017
                13-Nov-2023 
 ******************************************
 %mem=14GB
 %chk=checkpoint.chk
 %nprocshared=16
 Will use up to   16 processors via shared memory.
 -------------------------
 #P B3LYP/6-311+g(d) force
 -------------------------
 1/10=7,30=1,38=1/1,3;
 2/12=2,17=6,18=5,40=1/2;
 3/5=4,6=6,7=11,11=2,25=1,30=1,71=1,74=-5/1,2,3;
 4//1;
 5/5=2,38=5/2;
 6/7=2,8=2,9=2,10=2,28=1/1;
 7/29=1/1,2,3,16;
 1/10=7,30=1/3;
 99//99;
 Leave Link    1 at Mon Nov 13 12:29:02 2023, MaxMem=  1879048192 cpu:               0.3 elap:               0.0
 (Enter /home/sekinelabo/g16/l101.exe)
 ------------------------------
 Gaussian input prepared by ASE
 ------------------------------
 Symbolic Z-matrix:
 Charge =  0 Multiplicity = 2
 Na                    2.72108   1.12804   2.98818 
 Na                    3.02434   1.24823   0. 
 Na                    5.33725   0.43048   1.71323 
 Na                    4.3889    3.26933   1.7365 
 Na                    1.55709   3.86018   2.5293 
 Na                    0.20822   2.23333   0.38767 
 Na                    0.        0.        2.38783 
 
 ITRead=  0  0  0  0  0  0  0
 MicOpt= -1 -1 -1 -1 -1 -1 -1
 NAtoms=      7 NQM=        7 NQMF=       0 NMMI=      0 NMMIF=      0
                NMic=       0 NMicF=      0.
                    Isotopes and Nuclear Properties:
 (Nuclear quadrupole moments (NQMom) in fm**2, nuclear magnetic moments (NMagM)
  in nuclear magnetons)

  Atom         1           2           3           4           5           6           7
 IAtWgt=          23          23          23          23          23          23          23
 AtmWgt=  22.9897697  22.9897697  22.9897697  22.9897697  22.9897697  22.9897697  22.9897697
 NucSpn=           3           3           3           3           3           3           3
 AtZEff=  -0.0000000  -0.0000000  -0.0000000  -0.0000000  -0.0000000  -0.0000000  -0.0000000
 NQMom=   10.4000000  10.4000000  10.4000000  10.4000000  10.4000000  10.4000000  10.4000000
 NMagM=    2.2175200   2.2175200   2.2175200   2.2175200   2.2175200   2.2175200   2.2175200
 AtZNuc=  11.0000000  11.0000000  11.0000000  11.0000000  11.0000000  11.0000000  11.0000000
 Leave Link  101 at Mon Nov 13 12:29:02 2023, MaxMem=  1879048192 cpu:               2.6 elap:               0.2
 (Enter /home/sekinelabo/g16/l103.exe)

 GradGradGradGradGradGradGradGradGradGradGradGradGradGradGradGradGradGrad
 Berny optimization.
 Initialization pass.
 Trust Radius=3.00D-01 FncErr=1.00D-07 GrdErr=1.00D-07 EigMax=2.50D+02 EigMin=1.00D-04
 Number of steps in this run=      2 maximum allowed number of steps=      2.
 GradGradGradGradGradGradGradGradGradGradGradGradGradGradGradGradGradGrad

 Leave Link  103 at Mon Nov 13 12:29:02 2023, MaxMem=  1879048192 cpu:               0.3 elap:               0.0
 (Enter /home/sekinelabo/g16/l202.exe)
                          Input orientation:                          
 ---------------------------------------------------------------------
 Center     Atomic      Atomic             Coordinates (Angstroms)
 Number     Number       Type             X           Y           Z
 ---------------------------------------------------------------------
      1         11           0        2.721082    1.128044    2.988178
      2         11           0        3.024343    1.248228    0.000000
      3         11           0        5.337254    0.430476    1.713227
      4         11           0        4.388901    3.269327    1.736496
      5         11           0        1.557092    3.860185    2.529305
      6         11           0        0.208216    2.233333    0.387670
      7         11           0        0.000000    0.000000    2.387832
 ---------------------------------------------------------------------
                    Distance matrix (angstroms):
                    1          2          3          4          5
     1  Na   0.000000
     2  Na   3.005931   0.000000
     3  Na   2.992734   2.992227   0.000000
     4  Na   2.988883   2.993707   2.993158   0.000000
     5  Na   3.005001   3.920782   5.168996   2.999467   0.000000
     6  Na   3.781376   3.008537   5.595929   4.513395   3.008772
     7  Na   3.006192   4.050490   5.396914   5.511369   4.164802
                    6          7
     6  Na   0.000000
     7  Na   3.005292   0.000000
 Stoichiometry    Na7(2)
 Framework group  C1[X(Na7)]
 Deg. of freedom    15
 Full point group                 C1      NOp   1
 Largest Abelian subgroup         C1      NOp   1
 Largest concise Abelian subgroup C1      NOp   1
                         Standard orientation:                         
 ---------------------------------------------------------------------
 Center     Atomic      Atomic             Coordinates (Angstroms)
 Number     Number       Type             X           Y           Z
 ---------------------------------------------------------------------
      1         11           0       -0.258670   -0.610469   -1.310649
      2         11           0       -0.561931   -0.490286    1.677530
      3         11           0       -2.874842   -1.308038   -0.035697
      4         11           0       -1.926488    1.530814   -0.058966
      5         11           0        0.905321    2.121672   -0.851775
      6         11           0        2.254196    0.494820    1.289860
      7         11           0        2.462413   -1.738513   -0.710302
 ---------------------------------------------------------------------
 Rotational constants (GHZ):           1.1065184           0.6922908           0.5980178
 Leave Link  202 at Mon Nov 13 12:29:02 2023, MaxMem=  1879048192 cpu:               0.0 elap:               0.0
 (Enter /home/sekinelabo/g16/l301.exe)
 Standard basis: 6-311+G(d) (5D, 7F)
 Ernie: Thresh=  0.10000D-02 Tol=  0.10000D-05 Strict=F.
 There are   217 symmetry adapted cartesian basis functions of A   symmetry.
 There are   210 symmetry adapted basis functions of A   symmetry.
   210 basis functions,   350 primitive gaussians,   217 cartesian basis functions
    39 alpha electrons       38 beta electrons
       nuclear repulsion energy       382.0689498494 Hartrees.
 IExCor=  402 DFT=T Ex+Corr=B3LYP ExCW=0 ScaHFX=  0.200000
 ScaDFX=  0.800000  0.720000  1.000000  0.810000 ScalE2=  1.000000  1.000000
 IRadAn=      5 IRanWt=     -1 IRanGd=            0 ICorTp=0 IEmpDi=  4
 NAtoms=    7 NActive=    7 NUniq=    7 SFac= 1.00D+00 NAtFMM=   60 NAOKFM=F Big=F
 Integral buffers will be    131072 words long.
 Raffenetti 2 integral format.
 Two-electron integral symmetry is turned on.
 Leave Link  301 at Mon Nov 13 12:29:02 2023, MaxMem=  1879048192 cpu:               0.5 elap:               0.0
 (Enter /home/sekinelabo/g16/l302.exe)
 NPDir=0 NMtPBC=     1 NCelOv=     1 NCel=       1 NClECP=     1 NCelD=      1
         NCelK=      1 NCelE2=     1 NClLst=     1 CellRange=     0.0.
 One-electron integrals computed using PRISM.
 One-electron integral symmetry used in STVInt
 NBasis=   210 RedAO= T EigKep=  3.06D-06  NBF=   210
 NBsUse=   209 1.00D-06 EigRej=  9.25D-07 NBFU=   209
 Precomputing XC quadrature grid using
 IXCGrd= 4 IRadAn=           5 IRanWt=          -1 IRanGd=           0 AccXCQ= 0.00D+00.
 Generated NRdTot=       0 NPtTot=           0 NUsed=           0 NTot=          32
 NSgBfM=   211   211   211   211   211 MxSgAt=     7 MxSgA2=     7.
 Leave Link  302 at Mon Nov 13 12:29:02 2023, MaxMem=  1879048192 cpu:               2.2 elap:               0.1
 (Enter /home/sekinelabo/g16/l303.exe)
 DipDrv:  MaxL=1.
 Leave Link  303 at Mon Nov 13 12:29:02 2023, MaxMem=  1879048192 cpu:               0.6 elap:               0.0
 (Enter /home/sekinelabo/g16/l401.exe)
 ExpMin= 7.60D-03 ExpMax= 3.62D+04 ExpMxC= 1.21D+03 IAcc=3 IRadAn=         5 AccDes= 0.00D+00
 Harris functional with IExCor=  402 and IRadAn=       5 diagonalized for initial guess.
 HarFok:  IExCor=  402 AccDes= 0.00D+00 IRadAn=         5 IDoV= 1 UseB2=F ITyADJ=14
 ICtDFT=  3500011 ScaDFX=  1.000000  1.000000  1.000000  1.000000
 FoFCou: FMM=F IPFlag=           0 FMFlag=      100000 FMFlg1=           0
         NFxFlg=           0 DoJE=T BraDBF=F KetDBF=T FulRan=T
         wScrn=  0.000000 ICntrl=       500 IOpCl=  0 I1Cent=   200000004 NGrid=           0
         NMat0=    1 NMatS0=      1 NMatT0=    0 NMatD0=    1 NMtDS0=    0 NMtDT0=    0
 Petite list used in FoFCou.
 Harris En= -1135.87729535759    
 JPrj=0 DoOrth=F DoCkMO=F.
 Initial guess <Sx>= 0.0000 <Sy>= 0.0000 <Sz>= 0.5000 <S**2>= 0.7500 S= 0.5000
 Leave Link  401 at Mon Nov 13 12:29:02 2023, MaxMem=  1879048192 cpu:               5.2 elap:               0.3
 (Enter /home/sekinelabo/g16/l502.exe)
 Keep R1 and R2 ints in memory in canonical form, NReq=507620388.
 FoFCou: FMM=F IPFlag=           0 FMFlag=           0 FMFlg1=           0
         NFxFlg=           0 DoJE=F BraDBF=F KetDBF=F FulRan=T
         wScrn=  0.000000 ICntrl=       600 IOpCl=  0 I1Cent=           0 NGrid=           0
         NMat0=    1 NMatS0=  22155 NMatT0=    0 NMatD0=    1 NMtDS0=    0 NMtDT0=    0
 Symmetry not used in FoFCou.
 Two-electron integral symmetry not used.
 UHF open shell SCF:
 Using DIIS extrapolation, IDIIS=  1040.
 NGot=  1879048192 LenX=  1388082348 LenY=  1388034818
 Requested convergence on RMS density matrix=1.00D-08 within 128 cycles.
 Requested convergence on MAX density matrix=1.00D-06.
 Requested convergence on             energy=1.00D-06.
 No special actions if energy rises.

 Cycle   1  Pass 1  IDiag  1:
 E= -1136.05999223012    
 DIIS: error= 1.38D-02 at cycle   1 NSaved=   1.
 NSaved= 1 IEnMin= 1 EnMin= -1136.05999223012     IErMin= 1 ErrMin= 1.38D-02
 ErrMax= 1.38D-02  0.00D+00 EMaxC= 1.00D-01 BMatC= 2.05D-01 BMatP= 2.05D-01
 IDIUse=3 WtCom= 8.62D-01 WtEn= 1.38D-01
 Coeff-Com:  0.100D+01
 Coeff-En:   0.100D+01
 Coeff:      0.100D+01
 Gap=     0.049 Goal=   None    Shift=    0.000
 Gap=     0.036 Goal=   None    Shift=    0.000
 GapD=    0.036 DampG=0.250 DampE=0.500 DampFc=0.2500 IDamp=-1.
 Damping current iteration by 2.50D-01
 RMSDP=5.30D-02 MaxDP=5.83D+00              OVMax= 2.64D-01

 Cycle   2  Pass 1  IDiag  1:
 E= -1136.07576806990     Delta-E=       -0.015775839776 Rises=F Damp=T
 DIIS: error= 7.63D-03 at cycle   2 NSaved=   2.
 NSaved= 2 IEnMin= 2 EnMin= -1136.07576806990     IErMin= 2 ErrMin= 7.63D-03
 ErrMax= 7.63D-03  0.00D+00 EMaxC= 1.00D-01 BMatC= 7.68D-02 BMatP= 2.05D-01
 IDIUse=3 WtCom= 9.24D-01 WtEn= 7.63D-02
 Coeff-Com: -0.123D+01 0.223D+01
 Coeff-En:   0.000D+00 0.100D+01
 Coeff:     -0.114D+01 0.214D+01
 Gap=     0.062 Goal=   None    Shift=    0.000
 Gap=     0.041 Goal=   None    Shift=    0.000
 RMSDP=2.15D-02 MaxDP=2.79D+00 DE=-1.58D-02 OVMax= 2.12D-01

 Cycle   3  Pass 1  IDiag  1:
 E= -1136.09901290717     Delta-E=       -0.023244837266 Rises=F Damp=F
 DIIS: error= 4.21D-03 at cycle   3 NSaved=   3.
 NSaved= 3 IEnMin= 3 EnMin= -1136.09901290717     IErMin= 3 ErrMin= 4.21D-03
 ErrMax= 4.21D-03  0.00D+00 EMaxC= 1.00D-01 BMatC= 6.81D-03 BMatP= 7.68D-02
 IDIUse=3 WtCom= 9.58D-01 WtEn= 4.21D-02
 Coeff-Com: -0.383D+00 0.678D+00 0.705D+00
 Coeff-En:   0.000D+00 0.000D+00 0.100D+01
 Coeff:     -0.367D+00 0.649D+00 0.718D+00
 Gap=     0.058 Goal=   None    Shift=    0.000
 Gap=     0.039 Goal=   None    Shift=    0.000
 RMSDP=1.14D-02 MaxDP=8.66D-01 DE=-2.32D-02 OVMax= 1.30D-01

 Cycle   4  Pass 1  IDiag  1:
 E= -1136.09841686102     Delta-E=        0.000596046148 Rises=F Damp=F
 DIIS: error= 4.85D-03 at cycle   4 NSaved=   4.
 NSaved= 4 IEnMin= 3 EnMin= -1136.09901290717     IErMin= 3 ErrMin= 4.21D-03
 ErrMax= 4.85D-03  0.00D+00 EMaxC= 1.00D-01 BMatC= 6.30D-03 BMatP= 6.81D-03
 IDIUse=3 WtCom= 9.51D-01 WtEn= 4.85D-02
 Coeff-Com: -0.271D-01 0.460D-01 0.485D+00 0.496D+00
 Coeff-En:   0.000D+00 0.000D+00 0.520D+00 0.480D+00
 Coeff:     -0.258D-01 0.438D-01 0.487D+00 0.495D+00
 Gap=     0.059 Goal=   None    Shift=    0.000
 Gap=     0.040 Goal=   None    Shift=    0.000
 RMSDP=4.09D-03 MaxDP=3.68D-01 DE= 5.96D-04 OVMax= 9.04D-02

 Cycle   5  Pass 1  IDiag  1:
 E= -1136.10403050588     Delta-E=       -0.005613644864 Rises=F Damp=F
 DIIS: error= 1.04D-03 at cycle   5 NSaved=   5.
 NSaved= 5 IEnMin= 5 EnMin= -1136.10403050588     IErMin= 5 ErrMin= 1.04D-03
 ErrMax= 1.04D-03  0.00D+00 EMaxC= 1.00D-01 BMatC= 5.52D-04 BMatP= 6.30D-03
 IDIUse=3 WtCom= 9.90D-01 WtEn= 1.04D-02
 Coeff-Com: -0.622D-02 0.777D-02 0.281D+00 0.323D+00 0.394D+00
 Coeff-En:   0.000D+00 0.000D+00 0.000D+00 0.608D-01 0.939D+00
 Coeff:     -0.615D-02 0.769D-02 0.278D+00 0.320D+00 0.400D+00
 Gap=     0.059 Goal=   None    Shift=    0.000
 Gap=     0.039 Goal=   None    Shift=    0.000
 RMSDP=9.49D-04 MaxDP=4.71D-02 DE=-5.61D-03 OVMax= 2.27D-02

 Cycle   6  Pass 1  IDiag  1:
 E= -1136.10460792074     Delta-E=       -0.000577414859 Rises=F Damp=F
 DIIS: error= 9.13D-05 at cycle   6 NSaved=   6.
 NSaved= 6 IEnMin= 6 EnMin= -1136.10460792074     IErMin= 6 ErrMin= 9.13D-05
 ErrMax= 9.13D-05  0.00D+00 EMaxC= 1.00D-01 BMatC= 3.46D-06 BMatP= 5.52D-04
 IDIUse=1 WtCom= 1.00D+00 WtEn= 0.00D+00
 Coeff-Com: -0.165D-02 0.187D-02-0.295D-01-0.355D-01 0.227D-01 0.104D+01
 Coeff:     -0.165D-02 0.187D-02-0.295D-01-0.355D-01 0.227D-01 0.104D+01
 Gap=     0.059 Goal=   None    Shift=    0.000
 Gap=     0.039 Goal=   None    Shift=    0.000
 RMSDP=3.39D-04 MaxDP=3.72D-02 DE=-5.77D-04 OVMax= 4.46D-03

 Cycle   7  Pass 1  IDiag  1:
 E= -1136.10461497908     Delta-E=       -0.000007058339 Rises=F Damp=F
 DIIS: error= 4.72D-05 at cycle   7 NSaved=   7.
 NSaved= 7 IEnMin= 7 EnMin= -1136.10461497908     IErMin= 7 ErrMin= 4.72D-05
 ErrMax= 4.72D-05  0.00D+00 EMaxC= 1.00D-01 BMatC= 7.76D-07 BMatP= 3.46D-06
 IDIUse=1 WtCom= 1.00D+00 WtEn= 0.00D+00
 Coeff-Com: -0.156D-03 0.354D-04-0.222D-01-0.261D-01-0.257D-02 0.417D+00
 Coeff-Com:  0.634D+00
 Coeff:     -0.156D-03 0.354D-04-0.222D-01-0.261D-01-0.257D-02 0.417D+00
 Coeff:      0.634D+00
 Gap=     0.059 Goal=   None    Shift=    0.000
 Gap=     0.039 Goal=   None    Shift=    0.000
 RMSDP=1.16D-04 MaxDP=1.61D-02 DE=-7.06D-06 OVMax= 1.91D-03

 Cycle   8  Pass 1  IDiag  1:
 E= -1136.10461626174     Delta-E=       -0.000001282662 Rises=F Damp=F
 DIIS: error= 2.93D-05 at cycle   8 NSaved=   8.
 NSaved= 8 IEnMin= 8 EnMin= -1136.10461626174     IErMin= 8 ErrMin= 2.93D-05
 ErrMax= 2.93D-05  0.00D+00 EMaxC= 1.00D-01 BMatC= 3.25D-07 BMatP= 7.76D-07
 IDIUse=1 WtCom= 1.00D+00 WtEn= 0.00D+00
 Coeff-Com:  0.896D-03-0.116D-02-0.132D-02-0.775D-03-0.123D-01-0.233D+00
 Coeff-Com:  0.385D+00 0.863D+00
 Coeff:      0.896D-03-0.116D-02-0.132D-02-0.775D-03-0.123D-01-0.233D+00
 Coeff:      0.385D+00 0.863D+00
 Gap=     0.060 Goal=   None    Shift=    0.000
 Gap=     0.039 Goal=   None    Shift=    0.000
 RMSDP=9.77D-05 MaxDP=1.02D-02 DE=-1.28D-06 OVMax= 2.48D-03

 Cycle   9  Pass 1  IDiag  1:
 E= -1136.10461730005     Delta-E=       -0.000001038312 Rises=F Damp=F
 DIIS: error= 1.35D-05 at cycle   9 NSaved=   9.
 NSaved= 9 IEnMin= 9 EnMin= -1136.10461730005     IErMin= 9 ErrMin= 1.35D-05
 ErrMax= 1.35D-05  0.00D+00 EMaxC= 1.00D-01 BMatC= 3.79D-08 BMatP= 3.25D-07
 IDIUse=1 WtCom= 1.00D+00 WtEn= 0.00D+00
 Coeff-Com:  0.186D-03-0.216D-03 0.110D-02 0.145D-02-0.311D-02-0.743D-01
 Coeff-Com: -0.481D-01 0.111D+00 0.101D+01
 Coeff:      0.186D-03-0.216D-03 0.110D-02 0.145D-02-0.311D-02-0.743D-01
 Coeff:     -0.481D-01 0.111D+00 0.101D+01
 Gap=     0.060 Goal=   None    Shift=    0.000
 Gap=     0.039 Goal=   None    Shift=    0.000
 RMSDP=4.61D-05 MaxDP=5.74D-03 DE=-1.04D-06 OVMax= 1.60D-03

 Cycle  10  Pass 1  IDiag  1:
 E= -1136.10461755889     Delta-E=       -0.000000258839 Rises=F Damp=F
 DIIS: error= 8.82D-06 at cycle  10 NSaved=  10.
 NSaved=10 IEnMin=10 EnMin= -1136.10461755889     IErMin=10 ErrMin= 8.82D-06
 ErrMax= 8.82D-06  0.00D+00 EMaxC= 1.00D-01 BMatC= 1.52D-08 BMatP= 3.79D-08
 IDIUse=1 WtCom= 1.00D+00 WtEn= 0.00D+00
 Coeff-Com: -0.123D-03 0.177D-03 0.154D-02 0.113D-02 0.296D-02 0.266D-01
 Coeff-Com: -0.126D+00-0.186D+00 0.270D+00 0.101D+01
 Coeff:     -0.123D-03 0.177D-03 0.154D-02 0.113D-02 0.296D-02 0.266D-01
 Coeff:     -0.126D+00-0.186D+00 0.270D+00 0.101D+01
 Gap=     0.060 Goal=   None    Shift=    0.000
 Gap=     0.039 Goal=   None    Shift=    0.000
 RMSDP=3.62D-05 MaxDP=3.48D-03 DE=-2.59D-07 OVMax= 1.30D-03

 Cycle  11  Pass 1  IDiag  1:
 E= -1136.10461767426     Delta-E=       -0.000000115371 Rises=F Damp=F
 DIIS: error= 5.14D-06 at cycle  11 NSaved=  11.
 NSaved=11 IEnMin=11 EnMin= -1136.10461767426     IErMin=11 ErrMin= 5.14D-06
 ErrMax= 5.14D-06  0.00D+00 EMaxC= 1.00D-01 BMatC= 3.85D-09 BMatP= 1.52D-08
 IDIUse=1 WtCom= 1.00D+00 WtEn= 0.00D+00
 Coeff-Com: -0.116D-03 0.150D-03 0.193D-03-0.599D-04 0.221D-02 0.342D-01
 Coeff-Com: -0.462D-01-0.886D-01-0.119D+00 0.199D+00 0.102D+01
 Coeff:     -0.116D-03 0.150D-03 0.193D-03-0.599D-04 0.221D-02 0.342D-01
 Coeff:     -0.462D-01-0.886D-01-0.119D+00 0.199D+00 0.102D+01
 Gap=     0.060 Goal=   None    Shift=    0.000
 Gap=     0.039 Goal=   None    Shift=    0.000
 RMSDP=1.99D-05 MaxDP=1.77D-03 DE=-1.15D-07 OVMax= 8.39D-04

 Cycle  12  Pass 1  IDiag  1:
 E= -1136.10461771065     Delta-E=       -0.000000036383 Rises=F Damp=F
 DIIS: error= 2.87D-06 at cycle  12 NSaved=  12.
 NSaved=12 IEnMin=12 EnMin= -1136.10461771065     IErMin=12 ErrMin= 2.87D-06
 ErrMax= 2.87D-06  0.00D+00 EMaxC= 1.00D-01 BMatC= 1.76D-09 BMatP= 3.85D-09
 IDIUse=1 WtCom= 1.00D+00 WtEn= 0.00D+00
 Coeff-Com: -0.445D-04 0.536D-04-0.322D-03-0.355D-03 0.465D-03 0.137D-01
 Coeff-Com:  0.130D-02-0.456D-02-0.102D+00-0.147D+00 0.441D+00 0.797D+00
 Coeff:     -0.445D-04 0.536D-04-0.322D-03-0.355D-03 0.465D-03 0.137D-01
 Coeff:      0.130D-02-0.456D-02-0.102D+00-0.147D+00 0.441D+00 0.797D+00
 Gap=     0.060 Goal=   None    Shift=    0.000
 Gap=     0.039 Goal=   None    Shift=    0.000
 RMSDP=1.09D-05 MaxDP=1.28D-03 DE=-3.64D-08 OVMax= 4.14D-04

 Cycle  13  Pass 1  IDiag  1:
 E= -1136.10461772199     Delta-E=       -0.000000011340 Rises=F Damp=F
 DIIS: error= 1.83D-06 at cycle  13 NSaved=  13.
 NSaved=13 IEnMin=13 EnMin= -1136.10461772199     IErMin=13 ErrMin= 1.83D-06
 ErrMax= 1.83D-06  0.00D+00 EMaxC= 1.00D-01 BMatC= 8.96D-10 BMatP= 1.76D-09
 IDIUse=1 WtCom= 1.00D+00 WtEn= 0.00D+00
 Coeff-Com:  0.354D-04-0.482D-04-0.280D-03-0.148D-03-0.908D-03-0.100D-01
 Coeff-Com:  0.231D-01 0.449D-01 0.170D-01-0.212D+00-0.311D+00 0.549D+00
 Coeff-Com:  0.900D+00
 Coeff:      0.354D-04-0.482D-04-0.280D-03-0.148D-03-0.908D-03-0.100D-01
 Coeff:      0.231D-01 0.449D-01 0.170D-01-0.212D+00-0.311D+00 0.549D+00
 Coeff:      0.900D+00
 Gap=     0.060 Goal=   None    Shift=    0.000
 Gap=     0.039 Goal=   None    Shift=    0.000
 RMSDP=8.45D-06 MaxDP=6.85D-04 DE=-1.13D-08 OVMax= 4.08D-04

 Cycle  14  Pass 1  IDiag  1:
 E= -1136.10461772860     Delta-E=       -0.000000006612 Rises=F Damp=F
 DIIS: error= 7.91D-07 at cycle  14 NSaved=  14.
 NSaved=14 IEnMin=14 EnMin= -1136.10461772860     IErMin=14 ErrMin= 7.91D-07
 ErrMax= 7.91D-07  0.00D+00 EMaxC= 1.00D-01 BMatC= 1.28D-10 BMatP= 8.96D-10
 IDIUse=1 WtCom= 1.00D+00 WtEn= 0.00D+00
 Coeff-Com:  0.215D-04-0.266D-04 0.923D-04 0.633D-04-0.646D-04-0.330D-02
 Coeff-Com: -0.301D-02-0.294D-02 0.306D-01 0.869D-01-0.137D+00-0.324D+00
 Coeff-Com: -0.902D-01 0.144D+01
 Coeff:      0.215D-04-0.266D-04 0.923D-04 0.633D-04-0.646D-04-0.330D-02
 Coeff:     -0.301D-02-0.294D-02 0.306D-01 0.869D-01-0.137D+00-0.324D+00
 Coeff:     -0.902D-01 0.144D+01
 Gap=     0.060 Goal=   None    Shift=    0.000
 Gap=     0.039 Goal=   None    Shift=    0.000
 RMSDP=5.37D-06 MaxDP=3.88D-04 DE=-6.61D-09 OVMax= 2.46D-04

 Cycle  15  Pass 1  IDiag  1:
 E= -1136.10461773040     Delta-E=       -0.000000001799 Rises=F Damp=F
 DIIS: error= 2.16D-07 at cycle  15 NSaved=  15.
 NSaved=15 IEnMin=15 EnMin= -1136.10461773040     IErMin=15 ErrMin= 2.16D-07
 ErrMax= 2.16D-07  0.00D+00 EMaxC= 1.00D-01 BMatC= 1.86D-11 BMatP= 1.28D-10
 IDIUse=1 WtCom= 1.00D+00 WtEn= 0.00D+00
 Coeff-Com: -0.881D-05 0.120D-04 0.515D-04 0.225D-04 0.213D-03 0.182D-02
 Coeff-Com: -0.383D-02-0.707D-02-0.855D-02 0.380D-01 0.706D-01-0.118D+00
 Coeff-Com: -0.179D+00 0.396D-01 0.117D+01
 Coeff:     -0.881D-05 0.120D-04 0.515D-04 0.225D-04 0.213D-03 0.182D-02
 Coeff:     -0.383D-02-0.707D-02-0.855D-02 0.380D-01 0.706D-01-0.118D+00
 Coeff:     -0.179D+00 0.396D-01 0.117D+01
 Gap=     0.060 Goal=   None    Shift=    0.000
 Gap=     0.039 Goal=   None    Shift=    0.000
 RMSDP=1.66D-06 MaxDP=1.59D-04 DE=-1.80D-09 OVMax= 7.67D-05

 Cycle  16  Pass 1  IDiag  1:
 E= -1136.10461773057     Delta-E=       -0.000000000171 Rises=F Damp=F
 DIIS: error= 9.30D-08 at cycle  16 NSaved=  16.
 NSaved=16 IEnMin=16 EnMin= -1136.10461773057     IErMin=16 ErrMin= 9.30D-08
 ErrMax= 9.30D-08  0.00D+00 EMaxC= 1.00D-01 BMatC= 2.91D-12 BMatP= 1.86D-11
 IDIUse=1 WtCom= 1.00D+00 WtEn= 0.00D+00
 Coeff-Com: -0.328D-05 0.400D-05-0.180D-04-0.118D-04-0.134D-04 0.324D-03
 Coeff-Com:  0.109D-02 0.215D-02-0.528D-02-0.238D-01 0.212D-01 0.805D-01
 Coeff-Com:  0.473D-01-0.282D+00-0.160D+00 0.132D+01
 Coeff:     -0.328D-05 0.400D-05-0.180D-04-0.118D-04-0.134D-04 0.324D-03
 Coeff:      0.109D-02 0.215D-02-0.528D-02-0.238D-01 0.212D-01 0.805D-01
 Coeff:      0.473D-01-0.282D+00-0.160D+00 0.132D+01
 Gap=     0.060 Goal=   None    Shift=    0.000
 Gap=     0.039 Goal=   None    Shift=    0.000
 RMSDP=8.18D-07 MaxDP=8.39D-05 DE=-1.71D-10 OVMax= 1.34D-05

 Cycle  17  Pass 1  IDiag  1:
 E= -1136.10461773061     Delta-E=       -0.000000000040 Rises=F Damp=F
 DIIS: error= 3.59D-08 at cycle  17 NSaved=  17.
 NSaved=17 IEnMin=17 EnMin= -1136.10461773061     IErMin=17 ErrMin= 3.59D-08
 ErrMax= 3.59D-08  0.00D+00 EMaxC= 1.00D-01 BMatC= 6.13D-13 BMatP= 2.91D-12
 IDIUse=1 WtCom= 1.00D+00 WtEn= 0.00D+00
 Coeff-Com:  0.129D-05-0.183D-05-0.114D-04-0.624D-05-0.362D-04-0.142D-03
 Coeff-Com:  0.564D-03 0.114D-02 0.479D-03-0.775D-02-0.858D-02 0.296D-01
 Coeff-Com:  0.357D-01-0.497D-01-0.236D+00 0.317D+00 0.917D+00
 Coeff:      0.129D-05-0.183D-05-0.114D-04-0.624D-05-0.362D-04-0.142D-03
 Coeff:      0.564D-03 0.114D-02 0.479D-03-0.775D-02-0.858D-02 0.296D-01
 Coeff:      0.357D-01-0.497D-01-0.236D+00 0.317D+00 0.917D+00
 Gap=     0.060 Goal=   None    Shift=    0.000
 Gap=     0.039 Goal=   None    Shift=    0.000
 RMSDP=2.55D-07 MaxDP=3.37D-05 DE=-4.00D-11 OVMax= 4.62D-06

 Cycle  18  Pass 1  IDiag  1:
 E= -1136.10461773060     Delta-E=        0.000000000014 Rises=F Damp=F
 DIIS: error= 2.00D-08 at cycle  18 NSaved=  18.
 NSaved=18 IEnMin=17 EnMin= -1136.10461773061     IErMin=18 ErrMin= 2.00D-08
 ErrMax= 2.00D-08  0.00D+00 EMaxC= 1.00D-01 BMatC= 1.18D-13 BMatP= 6.13D-13
 IDIUse=1 WtCom= 1.00D+00 WtEn= 0.00D+00
 Coeff-Com:  0.112D-05-0.143D-05 0.669D-06 0.624D-06-0.477D-05-0.153D-03
 Coeff-Com: -0.293D-04-0.779D-04 0.130D-02 0.282D-02-0.739D-02-0.107D-01
 Coeff-Com:  0.900D-03 0.467D-01-0.163D-01-0.214D+00 0.124D+00 0.107D+01
 Coeff:      0.112D-05-0.143D-05 0.669D-06 0.624D-06-0.477D-05-0.153D-03
 Coeff:     -0.293D-04-0.779D-04 0.130D-02 0.282D-02-0.739D-02-0.107D-01
 Coeff:      0.900D-03 0.467D-01-0.163D-01-0.214D+00 0.124D+00 0.107D+01
 Gap=     0.060 Goal=   None    Shift=    0.000
 Gap=     0.039 Goal=   None    Shift=    0.000
 RMSDP=1.23D-07 MaxDP=1.17D-05 DE= 1.36D-11 OVMax= 2.62D-06

 Cycle  19  Pass 1  IDiag  1:
 E= -1136.10461773061     Delta-E=       -0.000000000018 Rises=F Damp=F
 DIIS: error= 1.07D-08 at cycle  19 NSaved=  19.
 NSaved=19 IEnMin=19 EnMin= -1136.10461773061     IErMin=19 ErrMin= 1.07D-08
 ErrMax= 1.07D-08  0.00D+00 EMaxC= 1.00D-01 BMatC= 2.12D-14 BMatP= 1.18D-13
 IDIUse=1 WtCom= 1.00D+00 WtEn= 0.00D+00
 Coeff-Com: -0.708D-06 0.943D-06 0.148D-05 0.101D-05 0.739D-05 0.780D-04
 Coeff-Com: -0.976D-04-0.186D-03-0.520D-03 0.584D-03 0.446D-02-0.218D-02
 Coeff-Com: -0.796D-02-0.239D-02 0.448D-01 0.558D-02-0.191D+00-0.303D+00
 Coeff-Com:  0.145D+01
 Coeff:     -0.708D-06 0.943D-06 0.148D-05 0.101D-05 0.739D-05 0.780D-04
 Coeff:     -0.976D-04-0.186D-03-0.520D-03 0.584D-03 0.446D-02-0.218D-02
 Coeff:     -0.796D-02-0.239D-02 0.448D-01 0.558D-02-0.191D+00-0.303D+00
 Coeff:      0.145D+01
 Gap=     0.060 Goal=   None    Shift=    0.000
 Gap=     0.039 Goal=   None    Shift=    0.000
 RMSDP=5.58D-08 MaxDP=7.05D-06 DE=-1.77D-11 OVMax= 1.38D-06

 Cycle  20  Pass 1  IDiag  1:
 E= -1136.10461773059     Delta-E=        0.000000000025 Rises=F Damp=F
 DIIS: error= 4.03D-09 at cycle  20 NSaved=  20.
 NSaved=20 IEnMin=19 EnMin= -1136.10461773061     IErMin=20 ErrMin= 4.03D-09
 ErrMax= 4.03D-09  0.00D+00 EMaxC= 1.00D-01 BMatC= 3.43D-15 BMatP= 2.12D-14
 IDIUse=1 WtCom= 1.00D+00 WtEn= 0.00D+00
 Large coefficients: NSaved= 20 BigCof=    0.00 CofMax=   10.00 Det=-3.35D-15
 Inversion failed.  Reducing to 19 matrices.
 Large coefficients: NSaved= 19 BigCof=    0.00 CofMax=   10.00 Det=-4.56D-15
 Inversion failed.  Reducing to 18 matrices.
 Large coefficients: NSaved= 18 BigCof=    0.00 CofMax=   10.00 Det=-4.74D-15
 Inversion failed.  Reducing to 17 matrices.
 Large coefficients: NSaved= 17 BigCof=    0.00 CofMax=   10.00 Det=-4.76D-15
 Inversion failed.  Reducing to 16 matrices.
 Large coefficients: NSaved= 16 BigCof=    0.00 CofMax=   10.00 Det=-4.77D-15
 Inversion failed.  Reducing to 15 matrices.
 Coeff-Com:  0.172D-04 0.135D-04 0.744D-05-0.109D-03-0.378D-03 0.516D-03
 Coeff-Com:  0.149D-02 0.489D-03-0.685D-02 0.254D-02 0.266D-01-0.841D-02
 Coeff-Com: -0.146D+00-0.106D+00 0.124D+01
 Coeff:      0.172D-04 0.135D-04 0.744D-05-0.109D-03-0.378D-03 0.516D-03
 Coeff:      0.149D-02 0.489D-03-0.685D-02 0.254D-02 0.266D-01-0.841D-02
 Coeff:     -0.146D+00-0.106D+00 0.124D+01
 Gap=     0.060 Goal=   None    Shift=    0.000
 Gap=     0.039 Goal=   None    Shift=    0.000
 RMSDP=3.14D-08 MaxDP=5.07D-06 DE= 2.55D-11 OVMax= 5.17D-07

 Cycle  21  Pass 1  IDiag  1:
 E= -1136.10461773061     Delta-E=       -0.000000000022 Rises=F Damp=F
 DIIS: error= 1.47D-09 at cycle  21 NSaved=  16.
 NSaved=16 IEnMin=14 EnMin= -1136.10461773061     IErMin=16 ErrMin= 1.47D-09
 ErrMax= 1.47D-09  0.00D+00 EMaxC= 1.00D-01 BMatC= 1.04D-15 BMatP= 3.43D-15
 IDIUse=1 WtCom= 1.00D+00 WtEn= 0.00D+00
 Large coefficients: NSaved= 16 BigCof=    0.00 CofMax=   10.00 Det=-1.74D-15
 Inversion failed.  Reducing to 15 matrices.
 Coeff-Com:  0.795D-05 0.173D-04-0.148D-04-0.249D-03 0.736D-05 0.994D-03
 Coeff-Com:  0.772D-03-0.367D-02-0.212D-02 0.140D-01 0.934D-02-0.371D-01
 Coeff-Com: -0.174D+00 0.396D+00 0.797D+00
 Coeff:      0.795D-05 0.173D-04-0.148D-04-0.249D-03 0.736D-05 0.994D-03
 Coeff:      0.772D-03-0.367D-02-0.212D-02 0.140D-01 0.934D-02-0.371D-01
 Coeff:     -0.174D+00 0.396D+00 0.797D+00
 Gap=     0.060 Goal=   None    Shift=    0.000
 Gap=     0.039 Goal=   None    Shift=    0.000
 RMSDP=1.08D-08 MaxDP=1.55D-06 DE=-2.23D-11 OVMax= 1.42D-07

 Cycle  22  Pass 1  IDiag  1:
 E= -1136.10461773059     Delta-E=        0.000000000016 Rises=F Damp=F
 DIIS: error= 6.27D-10 at cycle  22 NSaved=  16.
 NSaved=16 IEnMin=13 EnMin= -1136.10461773061     IErMin=16 ErrMin= 6.27D-10
 ErrMax= 6.27D-10  0.00D+00 EMaxC= 1.00D-01 BMatC= 1.46D-16 BMatP= 1.04D-15
 IDIUse=1 WtCom= 1.00D+00 WtEn= 0.00D+00
 Large coefficients: NSaved= 16 BigCof=    0.00 CofMax=   10.00 Det=-5.51D-16
 Inversion failed.  Reducing to 15 matrices.
 Coeff-Com:  0.123D-05 0.273D-04-0.237D-04-0.197D-03 0.139D-03 0.383D-03
 Coeff-Com: -0.203D-04-0.234D-02-0.276D-05 0.892D-02 0.212D-01-0.707D-01
 Coeff-Com: -0.475D-01 0.144D+00 0.947D+00
 Coeff:      0.123D-05 0.273D-04-0.237D-04-0.197D-03 0.139D-03 0.383D-03
 Coeff:     -0.203D-04-0.234D-02-0.276D-05 0.892D-02 0.212D-01-0.707D-01
 Coeff:     -0.475D-01 0.144D+00 0.947D+00
 Gap=     0.060 Goal=   None    Shift=    0.000
 Gap=     0.039 Goal=   None    Shift=    0.000
 RMSDP=4.96D-09 MaxDP=5.18D-07 DE= 1.57D-11 OVMax= 6.57D-08

 SCF Done:  E(UB3LYP) =  -1136.10461773     A.U. after   22 cycles
            NFock= 22  Conv=0.50D-08     -V/T= 2.0025
 <Sx>= 0.0000 <Sy>= 0.0000 <Sz>= 0.5000 <S**2>= 0.7613 S= 0.5056
 <L.S>= 0.000000000000E+00
 KE= 1.133279499565D+03 PE=-3.493692012028D+03 EE= 8.422389448832D+02
 Annihilation of the first spin contaminant:
 S**2 before annihilation     0.7613,   after     0.7501
 Leave Link  502 at Mon Nov 13 12:29:21 2023, MaxMem=  1879048192 cpu:             215.8 elap:              18.3
 (Enter /home/sekinelabo/g16/l601.exe)
 Copying SCF densities to generalized density rwf, IOpCl= 1 IROHF=0.

 **********************************************************************

            Population analysis using the SCF Density.

 **********************************************************************

 Orbital symmetries:
 Alpha Orbitals:
       Occupied  (A) (A) (A) (A) (A) (A) (A) (A) (A) (A) (A) (A)
                 (A) (A) (A) (A) (A) (A) (A) (A) (A) (A) (A) (A)
                 (A) (A) (A) (A) (A) (A) (A) (A) (A) (A) (A) (A)
                 (A) (A) (A)
       Virtual   (A) (A) (A) (A) (A) (A) (A) (A) (A) (A) (A) (A)
                 (A) (A) (A) (A) (A) (A) (A) (A) (A) (A) (A) (A)
                 (A) (A) (A) (A) (A) (A) (A) (A) (A) (A) (A) (A)
                 (A) (A) (A) (A) (A) (A) (A) (A) (A) (A) (A) (A)
                 (A) (A) (A) (A) (A) (A) (A) (A) (A) (A) (A) (A)
                 (A) (A) (A) (A) (A) (A) (A) (A) (A) (A) (A) (A)
                 (A) (A) (A) (A) (A) (A) (A) (A) (A) (A) (A) (A)
                 (A) (A) (A) (A) (A) (A) (A) (A) (A) (A) (A) (A)
                 (A) (A) (A) (A) (A) (A) (A) (A) (A) (A) (A) (A)
                 (A) (A) (A) (A) (A) (A) (A) (A) (A) (A) (A) (A)
                 (A) (A) (A) (A) (A) (A) (A) (A) (A) (A) (A) (A)
                 (A) (A) (A) (A) (A) (A) (A) (A) (A) (A) (A) (A)
                 (A) (A) (A) (A) (A) (A) (A) (A) (A) (A) (A) (A)
                 (A) (A) (A) (A) (A) (A) (A) (A) (A) (A) (A) (A)
                 (A) (A)
 Beta  Orbitals:
       Occupied  (A) (A) (A) (A) (A) (A) (A) (A) (A) (A) (A) (A)
                 (A) (A) (A) (A) (A) (A) (A) (A) (A) (A) (A) (A)
                 (A) (A) (A) (A) (A) (A) (A) (A) (A) (A) (A) (A)
                 (A) (A)
       Virtual   (A) (A) (A) (A) (A) (A) (A) (A) (A) (A) (A) (A)
                 (A) (A) (A) (A) (A) (A) (A) (A) (A) (A) (A) (A)
                 (A) (A) (A) (A) (A) (A) (A) (A) (A) (A) (A) (A)
                 (A) (A) (A) (A) (A) (A) (A) (A) (A) (A) (A) (A)
                 (A) (A) (A) (A) (A) (A) (A) (A) (A) (A) (A) (A)
                 (A) (A) (A) (A) (A) (A) (A) (A) (A) (A) (A) (A)
                 (A) (A) (A) (A) (A) (A) (A) (A) (A) (A) (A) (A)
                 (A) (A) (A) (A) (A) (A) (A) (A) (A) (A) (A) (A)
                 (A) (A) (A) (A) (A) (A) (A) (A) (A) (A) (A) (A)
                 (A) (A) (A) (A) (A) (A) (A) (A) (A) (A) (A) (A)
                 (A) (A) (A) (A) (A) (A) (A) (A) (A) (A) (A) (A)
                 (A) (A) (A) (A) (A) (A) (A) (A) (A) (A) (A) (A)
                 (A) (A) (A) (A) (A) (A) (A) (A) (A) (A) (A) (A)
                 (A) (A) (A) (A) (A) (A) (A) (A) (A) (A) (A) (A)
                 (A) (A) (A)
 The electronic state is 2-A.
 Alpha  occ. eigenvalues --  -38.44228 -38.44107 -38.44019 -38.43909 -38.43511
 Alpha  occ. eigenvalues --  -38.43489 -38.42730  -2.20233  -2.20123  -2.20088
 Alpha  occ. eigenvalues --   -2.19812  -2.19697  -2.19588  -2.18732  -1.14028
 Alpha  occ. eigenvalues --   -1.13974  -1.13908  -1.13878  -1.13792  -1.13780
 Alpha  occ. eigenvalues --   -1.13758  -1.13709  -1.13621  -1.13579  -1.13453
 Alpha  occ. eigenvalues --   -1.13441  -1.13416  -1.13313  -1.13296  -1.13234
 Alpha  occ. eigenvalues --   -1.13202  -1.13168  -1.12423  -1.12382  -1.12335
 Alpha  occ. eigenvalues --   -0.20347  -0.14389  -0.11814  -0.11775
 Alpha virt. eigenvalues --   -0.05823  -0.04966  -0.04253  -0.03417  -0.02643
 Alpha virt. eigenvalues --   -0.02552  -0.01686  -0.00809  -0.00205   0.00299
 Alpha virt. eigenvalues --    0.00465   0.00559   0.00792   0.00892   0.00922
 Alpha virt. eigenvalues --    0.01082   0.01111   0.01214   0.01405   0.01466
 Alpha virt. eigenvalues --    0.01504   0.01756   0.01850   0.01935   0.02058
 Alpha virt. eigenvalues --    0.02552   0.02631   0.02726   0.02815   0.02881
 Alpha virt. eigenvalues --    0.02911   0.02942   0.03007   0.03115   0.03145
 Alpha virt. eigenvalues --    0.03206   0.03283   0.03839   0.03951   0.04327
 Alpha virt. eigenvalues --    0.04348   0.04628   0.04815   0.05060   0.05165
 Alpha virt. eigenvalues --    0.05340   0.05566   0.05867   0.06123   0.06439
 Alpha virt. eigenvalues --    0.06679   0.06996   0.07155   0.07715   0.07736
 Alpha virt. eigenvalues --    0.07843   0.08252   0.08639   0.08895   0.09518
 Alpha virt. eigenvalues --    0.10170   0.10794   0.11622   0.12451   0.12555
 Alpha virt. eigenvalues --    0.12730   0.13344   0.13567   0.13799   0.13892
 Alpha virt. eigenvalues --    0.14337   0.14572   0.14907   0.15188   0.15363
 Alpha virt. eigenvalues --    0.15993   0.16487   0.17497   0.21637   0.23735
 Alpha virt. eigenvalues --    0.24290   0.25708   0.27662   0.28313   0.29851
 Alpha virt. eigenvalues --    0.31742   0.32014   0.32295   0.34097   0.35147
 Alpha virt. eigenvalues --    0.35650   0.36270   0.37563   0.38879   0.39343
 Alpha virt. eigenvalues --    0.40963   0.41695   0.42418   0.43231   0.44001
 Alpha virt. eigenvalues --    0.44532   0.45007   0.45244   0.45760   0.46294
 Alpha virt. eigenvalues --    0.46611   0.46709   0.47315   0.48201   0.49648
 Alpha virt. eigenvalues --    0.50198   0.50399   0.51137   0.51444   0.52066
 Alpha virt. eigenvalues --    0.52669   0.52775   0.52984   0.53889   0.53994
 Alpha virt. eigenvalues --    0.55142   0.57162   0.57468   0.65678   0.67193
 Alpha virt. eigenvalues --    0.70263   0.70310   0.71113   0.72379   0.73645
 Alpha virt. eigenvalues --    0.73731   0.75090   0.76160   0.76876   0.80849
 Alpha virt. eigenvalues --    2.10171   2.17958   2.21619   2.25298   2.26848
 Alpha virt. eigenvalues --    2.31707   2.35270   4.40524   4.41293   4.41667
 Alpha virt. eigenvalues --    4.42487   4.42711   4.43186   4.43852   4.46152
 Alpha virt. eigenvalues --    4.48977   4.49663   4.51211   4.54921   4.58611
 Alpha virt. eigenvalues --    4.62564   4.64304   4.67106   4.69530   4.74144
 Alpha virt. eigenvalues --    4.77617   4.77945   4.82559  96.30857  96.41324
 Alpha virt. eigenvalues --   96.46555  96.51570  96.53745  96.60631  96.65673
  Beta  occ. eigenvalues --  -38.44188 -38.44103 -38.43945 -38.43891 -38.43500
  Beta  occ. eigenvalues --  -38.43423 -38.42715  -2.20162  -2.20088  -2.19985
  Beta  occ. eigenvalues --   -2.19781  -2.19589  -2.19566  -2.18709  -1.13961
  Beta  occ. eigenvalues --   -1.13921  -1.13851  -1.13835  -1.13756  -1.13740
  Beta  occ. eigenvalues --   -1.13722  -1.13633  -1.13547  -1.13532  -1.13423
  Beta  occ. eigenvalues --   -1.13393  -1.13389  -1.13237  -1.13223  -1.13198
  Beta  occ. eigenvalues --   -1.13186  -1.13115  -1.12400  -1.12360  -1.12306
  Beta  occ. eigenvalues --   -0.19592  -0.14129  -0.11553
  Beta virt. eigenvalues --   -0.07629  -0.05765  -0.04863  -0.03580  -0.03124
  Beta virt. eigenvalues --   -0.01954  -0.01637  -0.01551  -0.00716   0.00016
  Beta virt. eigenvalues --    0.00326   0.00471   0.00595   0.00877   0.00904
  Beta virt. eigenvalues --    0.01030   0.01170   0.01204   0.01309   0.01557
  Beta virt. eigenvalues --    0.01590   0.01604   0.01788   0.01917   0.01966
  Beta virt. eigenvalues --    0.02227   0.02544   0.02631   0.02806   0.02820
  Beta virt. eigenvalues --    0.02907   0.02935   0.03000   0.03117   0.03222
  Beta virt. eigenvalues --    0.03226   0.03273   0.03364   0.03945   0.04090
  Beta virt. eigenvalues --    0.04425   0.04540   0.04759   0.04973   0.05177
  Beta virt. eigenvalues --    0.05277   0.05482   0.05703   0.05993   0.06166
  Beta virt. eigenvalues --    0.06509   0.06810   0.07116   0.07248   0.07785
  Beta virt. eigenvalues --    0.07821   0.07959   0.08323   0.08846   0.09049
  Beta virt. eigenvalues --    0.09841   0.10331   0.11164   0.12000   0.12737
  Beta virt. eigenvalues --    0.12820   0.12964   0.13527   0.13760   0.13936
  Beta virt. eigenvalues --    0.14087   0.14495   0.14818   0.15035   0.15341
  Beta virt. eigenvalues --    0.15512   0.16515   0.16846   0.17893   0.21884
  Beta virt. eigenvalues --    0.24082   0.24453   0.26115   0.27864   0.28613
  Beta virt. eigenvalues --    0.30152   0.31968   0.32528   0.32720   0.34495
  Beta virt. eigenvalues --    0.35468   0.35949   0.36537   0.37844   0.39044
  Beta virt. eigenvalues --    0.39617   0.41115   0.41952   0.42610   0.43486
  Beta virt. eigenvalues --    0.44169   0.44610   0.45188   0.45417   0.45913
  Beta virt. eigenvalues --    0.46464   0.46743   0.46836   0.47551   0.48392
  Beta virt. eigenvalues --    0.49819   0.50386   0.50618   0.51370   0.51551
  Beta virt. eigenvalues --    0.52234   0.52921   0.52975   0.53226   0.54205
  Beta virt. eigenvalues --    0.54359   0.55410   0.57397   0.57677   0.65902
  Beta virt. eigenvalues --    0.67308   0.70491   0.70541   0.71308   0.72686
  Beta virt. eigenvalues --    0.73889   0.73958   0.75210   0.76240   0.77191
  Beta virt. eigenvalues --    0.80965   2.10281   2.17997   2.21670   2.25406
  Beta virt. eigenvalues --    2.27002   2.31876   2.35531   4.40610   4.41369
  Beta virt. eigenvalues --    4.41715   4.42550   4.42771   4.43237   4.43920
  Beta virt. eigenvalues --    4.46175   4.49026   4.49709   4.51280   4.54986
  Beta virt. eigenvalues --    4.58673   4.62617   4.64374   4.67158   4.69570
  Beta virt. eigenvalues --    4.74238   4.77675   4.77989   4.82595  96.30897
  Beta virt. eigenvalues --   96.41341  96.46575  96.51611  96.53790  96.60685
  Beta virt. eigenvalues --   96.65752
          Condensed to atoms (all electrons):
               1          2          3          4          5          6
     1  Na  14.489361   0.587209  -2.942380  -0.207066   0.166373  -0.436930
     2  Na   0.587209  11.887001  -1.097129   0.186780  -0.362363   0.478465
     3  Na  -2.942380  -1.097129  16.676378  -0.273220  -0.803635  -1.140617
     4  Na  -0.207066   0.186780  -0.273220  12.175600   0.024933  -0.858651
     5  Na   0.166373  -0.362363  -0.803635   0.024933  11.240141   0.257344
     6  Na  -0.436930   0.478465  -1.140617  -0.858651   0.257344  12.537241
     7  Na   0.361112  -0.427568  -0.777010   0.222888   0.232453  -0.047559
               7
     1  Na   0.361112
     2  Na  -0.427568
     3  Na  -0.777010
     4  Na   0.222888
     5  Na   0.232453
     6  Na  -0.047559
     7  Na  11.707421
          Atomic-Atomic Spin Densities.
               1          2          3          4          5          6
     1  Na  -0.268429  -0.547953   0.847083   0.115208   0.128362  -0.385077
     2  Na  -0.547953   0.544834   0.141180   0.033075  -0.173861   0.433391
     3  Na   0.847083   0.141180  -0.567340  -0.203174   0.088612  -0.081471
     4  Na   0.115208   0.033075  -0.203174  -0.031749   0.075713   0.065443
     5  Na   0.128362  -0.173861   0.088612   0.075713   0.042511  -0.192767
     6  Na  -0.385077   0.433391  -0.081471   0.065443  -0.192767   0.463054
     7  Na   0.299490  -0.130638  -0.058485   0.030664   0.137022  -0.239184
               7
     1  Na   0.299490
     2  Na  -0.130638
     3  Na  -0.058485
     4  Na   0.030664
     5  Na   0.137022
     6  Na  -0.239184
     7  Na   0.051860
 Mulliken charges and spin densities:
               1          2
     1  Na  -1.017678   0.188683
     2  Na  -0.252396   0.300027
     3  Na   1.357613   0.166404
     4  Na  -0.271264   0.085179
     5  Na   0.244754   0.105591
     6  Na   0.210707   0.063388
     7  Na  -0.271737   0.090728
 Sum of Mulliken charges =  -0.00000   1.00000
 Mulliken charges and spin densities with hydrogens summed into heavy atoms:
               1          2
     1  Na  -1.017678   0.188683
     2  Na  -0.252396   0.300027
     3  Na   1.357613   0.166404
     4  Na  -0.271264   0.085179
     5  Na   0.244754   0.105591
     6  Na   0.210707   0.063388
     7  Na  -0.271737   0.090728
 Electronic spatial extent (au):  <R**2>=           1880.8812
 Charge=             -0.0000 electrons
 Dipole moment (field-independent basis, Debye):
    X=             -0.1278    Y=             -0.2045    Z=              0.1464  Tot=              0.2822
 Quadrupole moment (field-independent basis, Debye-Ang):
   XX=            -53.5257   YY=            -71.7866   ZZ=            -69.7557
   XY=              1.0728   XZ=              0.2699   YZ=              1.4464
 Traceless Quadrupole moment (field-independent basis, Debye-Ang):
   XX=             11.4970   YY=             -6.7639   ZZ=             -4.7330
   XY=              1.0728   XZ=              0.2699   YZ=              1.4464
 Octapole moment (field-independent basis, Debye-Ang**2):
  XXX=            -11.9373  YYY=              0.3818  ZZZ=              6.5444  XYY=              0.2314
  XXY=             -8.2257  XXZ=              0.6795  XZZ=              5.1557  YZZ=             -1.7344
  YYZ=             -6.6767  XYZ=              3.0401
 Hexadecapole moment (field-independent basis, Debye-Ang**3):
 XXXX=          -1417.8553 YYYY=          -1083.9136 ZZZZ=           -730.6282 XXXY=             17.6833
 XXXZ=             23.5038 YYYX=             -2.9793 YYYZ=             -1.5777 ZZZX=              4.1895
 ZZZY=              4.8258 XXYY=           -366.8273 XXZZ=           -383.5820 YYZZ=           -306.3074
 XXYZ=             30.6765 YYXZ=            -20.2659 ZZXY=             12.7965
 N-N= 3.820689498494D+02 E-N=-3.493692011962D+03  KE= 1.133279499565D+03
                          Isotropic Fermi Contact Couplings
        Atom                 a.u.       MegaHertz       Gauss      10(-4) cm-1
     1  Na(23)             0.23552     278.63114      99.42252      92.94134
     2  Na(23)             0.28609     338.44758     120.76651     112.89396
     3  Na(23)            -0.01517     -17.94228      -6.40225      -5.98490
     4  Na(23)            -0.01350     -15.96709      -5.69746      -5.32605
     5  Na(23)             0.01854      21.93290       7.82621       7.31603
     6  Na(23)             0.13439     158.98368      56.72933      53.03125
     7  Na(23)             0.04570      54.06044      19.29011      18.03262
 --------------------------------------------------------
       Center         ----  Spin Dipole Couplings  ----
                      3XX-RR        3YY-RR        3ZZ-RR
 --------------------------------------------------------
     1   Atom       -0.006734     -0.000120      0.006854
     2   Atom        0.003401     -0.000226     -0.003175
     3   Atom       -0.012053     -0.013721      0.025774
     4   Atom       -0.020520     -0.024993      0.045513
     5   Atom       -0.015333     -0.008350      0.023683
     6   Atom        0.007783     -0.019048      0.011266
     7   Atom       -0.002034     -0.013488      0.015521
 --------------------------------------------------------
                        XY            XZ            YZ
 --------------------------------------------------------
     1   Atom       -0.003957     -0.009746     -0.008634
     2   Atom        0.010446      0.010599      0.012389
     3   Atom        0.001047     -0.002653      0.001659
     4   Atom       -0.002849     -0.005419     -0.001594
     5   Atom        0.008394      0.012401      0.020080
     6   Atom        0.003691     -0.025664     -0.004049
     7   Atom       -0.004203      0.016058     -0.008349
 --------------------------------------------------------


 ---------------------------------------------------------------------------------
              Anisotropic Spin Dipole Couplings in Principal Axis System
 ---------------------------------------------------------------------------------

       Atom             a.u.   MegaHertz   Gauss  10(-4) cm-1        Axes

              Baa    -0.0157    -2.222    -0.793    -0.741  0.7376  0.4602  0.4942
     1 Na(23) Bbb     0.0011     0.156     0.056     0.052 -0.5986  0.7843  0.1631
              Bcc     0.0146     2.066     0.737     0.689 -0.3125 -0.4161  0.8539
 
              Baa    -0.0143    -2.018    -0.720    -0.673 -0.1103 -0.6097  0.7849
     2 Na(23) Bbb    -0.0081    -1.145    -0.409    -0.382  0.7798 -0.5428 -0.3120
              Bcc     0.0224     3.163     1.129     1.055  0.6163  0.5777  0.5353
 
              Baa    -0.0144    -2.034    -0.726    -0.679 -0.4682  0.8811 -0.0673
     3 Na(23) Bbb    -0.0116    -1.641    -0.585    -0.547  0.8810  0.4713  0.0416
              Bcc     0.0260     3.675     1.311     1.226 -0.0684  0.0398  0.9969
 
              Baa    -0.0266    -3.754    -1.340    -1.252  0.4640  0.8842  0.0544
     4 Na(23) Bbb    -0.0194    -2.739    -0.977    -0.914  0.8822 -0.4667  0.0622
              Bcc     0.0460     6.493     2.317     2.166 -0.0804 -0.0191  0.9966
 
              Baa    -0.0210    -2.963    -1.057    -0.988  0.7863 -0.6150  0.0582
     5 Na(23) Bbb    -0.0165    -2.334    -0.833    -0.779  0.5555  0.6627 -0.5022
              Bcc     0.0375     5.297     1.890     1.767  0.2703  0.4272  0.8628
 
              Baa    -0.0196    -2.767    -0.987    -0.923 -0.0534  0.9949  0.0861
     6 Na(23) Bbb    -0.0162    -2.287    -0.816    -0.763  0.7319 -0.0196  0.6811
              Bcc     0.0358     5.055     1.804     1.686 -0.6793 -0.0994  0.7271
 
              Baa    -0.0157    -2.220    -0.792    -0.740 -0.0157  0.9639  0.2657
     7 Na(23) Bbb    -0.0115    -1.619    -0.578    -0.540  0.8693  0.1444 -0.4727
              Bcc     0.0272     3.839     1.370     1.280  0.4940 -0.2235  0.8402
 

 ---------------------------------------------------------------------------------

 No NMR shielding tensors so no spin-rotation constants.
 Leave Link  601 at Mon Nov 13 12:29:21 2023, MaxMem=  1879048192 cpu:               2.6 elap:               0.2
 (Enter /home/sekinelabo/g16/l701.exe)
 ... and contract with generalized density number  0.
 Compute integral first derivatives.
 Leave Link  701 at Mon Nov 13 12:29:21 2023, MaxMem=  1879048192 cpu:               1.7 elap:               0.1
 (Enter /home/sekinelabo/g16/l702.exe)
 L702 exits ... SP integral derivatives will be done elsewhere.
 Leave Link  702 at Mon Nov 13 12:29:21 2023, MaxMem=  1879048192 cpu:               0.5 elap:               0.0
 (Enter /home/sekinelabo/g16/l703.exe)
 Integral derivatives from FoFJK, PRISM(SPDF).
 Compute integral first derivatives, UseDBF=F ICtDFT=           0.
 Calling FoFJK, ICntrl=      2127 FMM=F ISym2X=0 I1Cent= 0 IOpClX= 1 NMat=1 NMatS=1 NMatT=0.
 FoFJK:  IHMeth= 1 ICntrl=    2127 DoSepK=F KAlg= 0 I1Cent=           0 FoldK=F
 IRaf=         0 NMat=       1 IRICut=       1 DoRegI=T DoRafI=F ISym2E= 0 IDoP0=0 IntGTp=1.
 FoFCou: FMM=F IPFlag=           0 FMFlag=      100000 FMFlg1=         800
         NFxFlg=           0 DoJE=F BraDBF=F KetDBF=F FulRan=T
         wScrn=  0.000000 ICntrl=      2127 IOpCl=  1 I1Cent=           0 NGrid=           0
         NMat0=    1 NMatS0=      1 NMatT0=    0 NMatD0=    1 NMtDS0=    0 NMtDT0=    0
 Symmetry not used in FoFCou.
 Leave Link  703 at Mon Nov 13 12:29:24 2023, MaxMem=  1879048192 cpu:              37.0 elap:               2.4
 (Enter /home/sekinelabo/g16/l716.exe)
 Dipole        =-5.02940399D-02-8.04719077D-02 5.75991942D-02
 ***** Axes restored to original set *****
 -------------------------------------------------------------------
 Center     Atomic                   Forces (Hartrees/Bohr)
 Number     Number              X              Y              Z
 -------------------------------------------------------------------
      1       11          -0.002576769   -0.006726632    0.012702423
      2       11          -0.002997413   -0.005435255   -0.012603709
      3       11           0.011940208   -0.011487992    0.000497207
      4       11           0.008162016    0.016040933   -0.000324307
      5       11          -0.004702648    0.011667424    0.004970622
      6       11          -0.006187116    0.003333208   -0.007035353
      7       11          -0.003638278   -0.007391686    0.001793118
 -------------------------------------------------------------------
 Cartesian Forces:  Max     0.016040933 RMS     0.008054489
 Z-matrix is all fixed cartesians, so copy forces.
 Force constants in Cartesian coordinates: 
                1             2             3             4             5 
      1  0.187306D+00
      2 -0.103209D-02  0.185324D+00
      3  0.140201D-02 -0.297483D-01  0.230775D+00
      4 -0.299703D-01  0.150796D-02 -0.202137D-02  0.154765D+00
      5 -0.110822D-02 -0.294543D-01  0.156936D-01 -0.119899D-01  0.136711D+00
      6  0.479249D-02 -0.121072D-01 -0.624601D-01 -0.710198D-02  0.240321D-01
      7 -0.401611D-01  0.130634D-01 -0.617974D-02 -0.347207D-01  0.129380D-01
      8 -0.797923D-02 -0.282033D-01  0.797838D-02 -0.345687D-03 -0.214272D-01
      9  0.305133D-01 -0.131680D-01 -0.389477D-01 -0.292262D-01  0.152609D-01
     10 -0.327456D-01 -0.663792D-02 -0.106962D-01 -0.327956D-01 -0.341427D-02
     11 -0.145114D-01 -0.404868D-01  0.242118D-02 -0.108687D-01 -0.349278D-01
     12  0.142416D-01  0.294992D-01 -0.376391D-01 -0.178816D-01 -0.350727D-01
     13 -0.300562D-01  0.416168D-02  0.850575D-02 -0.460937D-02  0.522721D-02
     14  0.114996D-01 -0.474420D-01 -0.120946D-01  0.383355D-02 -0.125508D-01
     15 -0.107441D-01  0.296273D-01 -0.279333D-01  0.104688D-01 -0.168393D-01
     16 -0.126860D-01  0.186655D-02 -0.184058D-03 -0.446800D-01  0.701280D-02
     17  0.754478D-02 -0.818415D-02  0.666857D-02  0.116230D-01 -0.321627D-01
     18 -0.132097D-01  0.671689D-02 -0.237104D-01  0.290898D-01 -0.128233D-01
     19 -0.416872D-01 -0.129296D-01  0.917356D-02 -0.798949D-02 -0.866556D-02
     20  0.558656D-02 -0.315537D-01  0.908116D-02  0.623978D-02 -0.618818D-02
     21 -0.269956D-01 -0.108200D-01 -0.400843D-01  0.166726D-01  0.974868D-02
                6             7             8             9            10 
      6  0.227864D+00
      7  0.116960D-01  0.100723D+00
      8 -0.105771D-01 -0.264824D-01  0.854291D-01
      9 -0.496152D-01 -0.216363D-02 -0.874866D-03  0.690197D-01
     10  0.113689D-01 -0.205801D-01  0.261572D-01  0.177723D-02  0.140122D+00
     11  0.755532D-03 -0.139260D-01 -0.488726D-01  0.175646D-03  0.227552D-01
     12 -0.356612D-01  0.772197D-03  0.197281D-02 -0.778101D-02 -0.452546D-02
     13  0.781203D-03  0.794599D-03  0.991230D-02  0.134025D-02 -0.462274D-01
     14  0.258709D-02  0.850061D-02  0.381215D-02 -0.366141D-02 -0.225129D-01
     15 -0.196636D-01 -0.125011D-02 -0.163383D-02  0.870679D-02  0.269915D-02
     16 -0.212067D-01 -0.174356D-02  0.272708D-02 -0.307306D-02 -0.777701D-02
     17  0.489366D-02  0.216538D-02  0.409003D-02  0.678983D-03 -0.839534D-02
     18 -0.428253D-01 -0.309549D-02  0.794939D-03  0.116513D-01 -0.188248D-02
     19 -0.329914D-03 -0.431208D-02 -0.398922D-02  0.832105D-03  0.409945D-05
     20 -0.958411D-02  0.374097D-02  0.517180D-02  0.158871D-02 -0.795197D-02
     21 -0.176388D-01  0.220732D-03  0.233962D-02  0.696613D-02  0.125882D-02
               11            12            13            14            15 
     11  0.142679D+00
     12  0.596044D-02  0.835333D-01
     13  0.200042D-01  0.140971D-01  0.102382D+00
     14 -0.268127D-01 -0.825271D-03 -0.132009D-01  0.119740D+00
     15 -0.105723D-01 -0.186376D-01 -0.473266D-02  0.199665D-01  0.866626D-01
     16 -0.185797D-02 -0.817597D-02 -0.251172D-01  0.132001D-01  0.988819D-03
     17  0.661526D-02 -0.161521D-02 -0.157812D-01 -0.270992D-01 -0.236899D-01
     18  0.211931D-02  0.687364D-02 -0.188004D-01 -0.687353D-03 -0.346580D-01
     19 -0.159550D-02  0.147210D-02  0.283337D-02 -0.132009D-02  0.257020D-02
     20  0.180516D-02  0.806336D-04 -0.103233D-01 -0.964706D-02  0.314146D-02
     21 -0.859836D-03  0.931200D-02 -0.119132D-02 -0.528501D-02  0.552317D-02
               16            17            18            19            20 
     16  0.110724D+00
     17 -0.859511D-02  0.855121D-01
     18  0.224095D-01 -0.970713D-02  0.110118D+00
     19 -0.187205D-01  0.114385D-01 -0.145113D-01  0.698718D-01
     20 -0.143535D-01 -0.287713D-01  0.135867D-01  0.170615D-01  0.691833D-01
     21  0.924151D-02  0.227711D-01 -0.274490D-01  0.793234D-03 -0.178945D-01
               21 
     21  0.633708D-01
 Leave Link  716 at Mon Nov 13 12:29:24 2023, MaxMem=  1879048192 cpu:               0.5 elap:               0.0
 (Enter /home/sekinelabo/g16/l103.exe)

 GradGradGradGradGradGradGradGradGradGradGradGradGradGradGradGradGradGrad
 Berny optimization.
 Search for a local minimum.
 Step number   1 out of a maximum of    2
 All quantities printed in internal units (Hartrees-Bohrs-Radians)
 Second derivative matrix not updated -- first step.
 ITU=  0
     Eigenvalues ---    0.06464   0.07261   0.08441   0.11194   0.12987
     Eigenvalues ---    0.13432   0.14729   0.15673   0.17823   0.20298
     Eigenvalues ---    0.20984   0.21900   0.24296   0.27594   0.30390
 Quadratic step=3.106D-01 exceeds max=3.000D-01 adjusted using Lamda=-3.502D-03.
 Angle between NR and scaled steps=   0.54 degrees.
 Angle between quadratic step and forces=  21.87 degrees.
 Linear search not attempted -- first point.
 B after Tr=    -0.000000    0.000000   -0.000000
         Rot=    1.000000    0.000000    0.000000    0.000000 Ang=   0.00 deg.
 Variable       Old X    -DE/DX   Delta X   Delta X   Delta X     New X
                                 (Linear)    (Quad)   (Total)
    X1        5.14210  -0.00258   0.00000  -0.00313  -0.00313   5.13897
    Y1        2.13169  -0.00673   0.00000  -0.02478  -0.02478   2.10691
    Z1        5.64684   0.01270   0.00000   0.06004   0.06004   5.70688
    X2        5.71518  -0.00300   0.00000   0.00109   0.00109   5.71627
    Y2        2.35881  -0.00544   0.00000  -0.02797  -0.02797   2.33084
    Z2        0.00000  -0.01260   0.00000  -0.06816  -0.06816  -0.06816
    X3       10.08595   0.01194   0.00000   0.12486   0.12486  10.21081
    Y3        0.81348  -0.01149   0.00000  -0.08969  -0.08969   0.72379
    Z3        3.23753   0.00050   0.00000   0.00552   0.00552   3.24305
    X4        8.29382   0.00816   0.00000   0.08012   0.08012   8.37394
    Y4        6.17813   0.01604   0.00000   0.09267   0.09267   6.27081
    Z4        3.28150  -0.00032   0.00000   0.00057   0.00057   3.28207
    X5        2.94248  -0.00470   0.00000  -0.03862  -0.03862   2.90385
    Y5        7.29469   0.01167   0.00000   0.11741   0.11741   7.41210
    Z5        4.77969   0.00497   0.00000   0.03421   0.03421   4.81390
    X6        0.39347  -0.00619   0.00000  -0.08966  -0.08966   0.30381
    Y6        4.22039   0.00333   0.00000   0.02568   0.02568   4.24607
    Z6        0.73259  -0.00704   0.00000  -0.04552  -0.04552   0.68708
    X7        0.00000  -0.00364   0.00000  -0.07465  -0.07465  -0.07465
    Y7        0.00000  -0.00739   0.00000  -0.09333  -0.09333  -0.09333
    Z7        4.51235   0.00179   0.00000   0.01333   0.01333   4.52568
         Item               Value     Threshold  Converged?
 Maximum Force            0.016041     0.000450     NO 
 RMS     Force            0.008054     0.000300     NO 
 Maximum Displacement     0.124858     0.001800     NO 
 RMS     Displacement     0.065468     0.001200     NO 
 Predicted change in Energy=-5.296075D-03
 GradGradGradGradGradGradGradGradGradGradGradGradGradGradGradGradGradGrad

 Leave Link  103 at Mon Nov 13 12:29:24 2023, MaxMem=  1879048192 cpu:               0.3 elap:               0.0
 (Enter /home/sekinelabo/g16/l9999.exe)
 1\1\GINC-SEKINELABO-XA7R-R37\Force\UB3LYP\6-311+G(d)\Na7(2)\SEKINELABO
 \13-Nov-2023\0\\#P B3LYP/6-311+g(d) force\\Gaussian input prepared by 
 ASE\\0,2\Na,2.7210822497,1.1280441377,2.9881781898\Na,3.0243432629,1.2
 482276598,0.\Na,5.337254205,0.4304757739,1.7132267767\Na,4.388900736,3
 .269327465,1.7364956984\Na,1.5570917125,3.860184994,2.5293049\Na,0.208
 21625,2.2333333724,0.3876700677\Na,0.,0.,2.3878320036\\Version=ES64L-G
 16RevB.01\State=2-A\HF=-1136.1046177\S2=0.761315\S2-1=0.\S2A=0.750076\
 RMSD=4.955e-09\RMSF=8.054e-03\Dipole=0.050294,-0.0804719,-0.0575992\Qu
 adrupole=8.5477046,-5.0288276,-3.518877,-0.7975748,0.2006828,-1.075363
 7\PG=C01 [X(Na7)]\\@


 KEEP CLOSE TO NATURES HEART, YOURSELF;
 AND BREAK CLEAR AWAY, ONCE IN A WHILE, AND
 CLIMB A MOUNTAIN OR SPEND A WEEK IN THE
 WOODS.  WASH YOUR SPIRIT CLEAN...
                                         -- JOHN MUIR
 Job cpu time:       0 days  0 hours  4 minutes 30.9 seconds.
 Elapsed time:       0 days  0 hours  0 minutes 21.9 seconds.
 File lengths (MBytes):  RWF=     32 Int=      0 D2E=      0 Chk=      5 Scr=      1
 Normal termination of Gaussian 16 at Mon Nov 13 12:29:24 2023.
