 Entering Gaussian System, Link 0=g16
 Initial command:
 /home/sekinelabo/g16/l1.exe "/home/sekinelabo/g16temp/Gau-3988239.inp" -scrdir="/home/sekinelabo/g16temp/"
 Entering Link 1 = /home/sekinelabo/g16/l1.exe PID=   3988241.
  
 Copyright (c) 1988-2017, Gaussian, Inc.  All Rights Reserved.
  
 This is part of the Gaussian(R) 16 program.  It is based on
 the Gaussian(R) 09 system (copyright 2009, Gaussian, Inc.),
 the Gaussian(R) 03 system (copyright 2003, Gaussian, Inc.),
 the Gaussian(R) 98 system (copyright 1998, Gaussian, Inc.),
 the Gaussian(R) 94 system (copyright 1995, Gaussian, Inc.),
 the Gaussian 92(TM) system (copyright 1992, Gaussian, Inc.),
 the Gaussian 90(TM) system (copyright 1990, Gaussian, Inc.),
 the Gaussian 88(TM) system (copyright 1988, Gaussian, Inc.),
 the Gaussian 86(TM) system (copyright 1986, Carnegie Mellon
 University), and the Gaussian 82(TM) system (copyright 1983,
 Carnegie Mellon University). Gaussian is a federally registered
 trademark of Gaussian, Inc.
  
 This software contains proprietary and confidential information,
 including trade secrets, belonging to Gaussian, Inc.
  
 This software is provided under written license and may be
 used, copied, transmitted, or stored only in accord with that
 written license.
  
 The following legend is applicable only to US Government
 contracts under FAR:
  
                    RESTRICTED RIGHTS LEGEND
  
 Use, reproduction and disclosure by the US Government is
 subject to restrictions as set forth in subparagraphs (a)
 and (c) of the Commercial Computer Software - Restricted
 Rights clause in FAR 52.227-19.
  
 Gaussian, Inc.
 340 Quinnipiac St., Bldg. 40, Wallingford CT 06492
  
  
 ---------------------------------------------------------------
 Warning -- This program may not be used in any manner that
 competes with the business of Gaussian, Inc. or will provide
 assistance to any competitor of Gaussian, Inc.  The licensee
 of this program is prohibited from giving any competitor of
 Gaussian, Inc. access to this program.  By using this program,
 the user acknowledges that Gaussian, Inc. is engaged in the
 business of creating and licensing software in the field of
 computational chemistry and represents and warrants to the
 licensee that it is not a competitor of Gaussian, Inc. and that
 it will not use this program in any manner prohibited above.
 ---------------------------------------------------------------
  

 Cite this work as:
 Gaussian 16, Revision B.01,
 M. J. Frisch, G. W. Trucks, H. B. Schlegel, G. E. Scuseria, 
 M. A. Robb, J. R. Cheeseman, G. Scalmani, V. Barone, 
 G. A. Petersson, H. Nakatsuji, X. Li, M. Caricato, A. V. Marenich, 
 J. Bloino, B. G. Janesko, R. Gomperts, B. Mennucci, H. P. Hratchian, 
 J. V. Ortiz, A. F. Izmaylov, J. L. Sonnenberg, D. Williams-Young, 
 F. Ding, F. Lipparini, F. Egidi, J. Goings, B. Peng, A. Petrone, 
 T. Henderson, D. Ranasinghe, V. G. Zakrzewski, J. Gao, N. Rega, 
 G. Zheng, W. Liang, M. Hada, M. Ehara, K. Toyota, R. Fukuda, 
 J. Hasegawa, M. Ishida, T. Nakajima, Y. Honda, O. Kitao, H. Nakai, 
 T. Vreven, K. Throssell, J. A. Montgomery, Jr., J. E. Peralta, 
 F. Ogliaro, M. J. Bearpark, J. J. Heyd, E. N. Brothers, K. N. Kudin, 
 V. N. Staroverov, T. A. Keith, R. Kobayashi, J. Normand, 
 K. Raghavachari, A. P. Rendell, J. C. Burant, S. S. Iyengar, 
 J. Tomasi, M. Cossi, J. M. Millam, M. Klene, C. Adamo, R. Cammi, 
 J. W. Ochterski, R. L. Martin, K. Morokuma, O. Farkas, 
 J. B. Foresman, and D. J. Fox, Gaussian, Inc., Wallingford CT, 2016.
 
 ******************************************
 Gaussian 16:  ES64L-G16RevB.01 20-Dec-2017
                13-Nov-2023 
 ******************************************
 %mem=14GB
 %chk=checkpoint.chk
 %nprocshared=16
 Will use up to   16 processors via shared memory.
 -------------------------
 #P B3LYP/6-311+g(d) force
 -------------------------
 1/10=7,30=1,38=1/1,3;
 2/12=2,17=6,18=5,40=1/2;
 3/5=4,6=6,7=11,11=2,25=1,30=1,71=1,74=-5/1,2,3;
 4//1;
 5/5=2,38=5/2;
 6/7=2,8=2,9=2,10=2,28=1/1;
 7/29=1/1,2,3,16;
 1/10=7,30=1/3;
 99//99;
 Leave Link    1 at Mon Nov 13 12:29:24 2023, MaxMem=  1879048192 cpu:               0.3 elap:               0.0
 (Enter /home/sekinelabo/g16/l101.exe)
 ------------------------------
 Gaussian input prepared by ASE
 ------------------------------
 Symbolic Z-matrix:
 Charge =  0 Multiplicity = 2
 Na                    0.90343   2.95135   0. 
 Na                    1.04688   4.74177   2.40222 
 Na                    0.        0.13891   0.53555 
 Na                    1.92236   0.        2.8381 
 Na                    3.12173   2.61946   1.99353 
 Na                    5.85707   3.16973   0.89349 
 Na                    8.13429   1.25828   1.27404 
 
 ITRead=  0  0  0  0  0  0  0
 MicOpt= -1 -1 -1 -1 -1 -1 -1
 NAtoms=      7 NQM=        7 NQMF=       0 NMMI=      0 NMMIF=      0
                NMic=       0 NMicF=      0.
                    Isotopes and Nuclear Properties:
 (Nuclear quadrupole moments (NQMom) in fm**2, nuclear magnetic moments (NMagM)
  in nuclear magnetons)

  Atom         1           2           3           4           5           6           7
 IAtWgt=          23          23          23          23          23          23          23
 AtmWgt=  22.9897697  22.9897697  22.9897697  22.9897697  22.9897697  22.9897697  22.9897697
 NucSpn=           3           3           3           3           3           3           3
 AtZEff=  -0.0000000  -0.0000000  -0.0000000  -0.0000000  -0.0000000  -0.0000000  -0.0000000
 NQMom=   10.4000000  10.4000000  10.4000000  10.4000000  10.4000000  10.4000000  10.4000000
 NMagM=    2.2175200   2.2175200   2.2175200   2.2175200   2.2175200   2.2175200   2.2175200
 AtZNuc=  11.0000000  11.0000000  11.0000000  11.0000000  11.0000000  11.0000000  11.0000000
 Leave Link  101 at Mon Nov 13 12:29:24 2023, MaxMem=  1879048192 cpu:               2.7 elap:               0.2
 (Enter /home/sekinelabo/g16/l103.exe)

 GradGradGradGradGradGradGradGradGradGradGradGradGradGradGradGradGradGrad
 Berny optimization.
 Initialization pass.
 Trust Radius=3.00D-01 FncErr=1.00D-07 GrdErr=1.00D-07 EigMax=2.50D+02 EigMin=1.00D-04
 Number of steps in this run=      2 maximum allowed number of steps=      2.
 GradGradGradGradGradGradGradGradGradGradGradGradGradGradGradGradGradGrad

 Leave Link  103 at Mon Nov 13 12:29:24 2023, MaxMem=  1879048192 cpu:               0.2 elap:               0.0
 (Enter /home/sekinelabo/g16/l202.exe)
                          Input orientation:                          
 ---------------------------------------------------------------------
 Center     Atomic      Atomic             Coordinates (Angstroms)
 Number     Number       Type             X           Y           Z
 ---------------------------------------------------------------------
      1         11           0        0.903428    2.951353    0.000000
      2         11           0        1.046883    4.741765    2.402221
      3         11           0        0.000000    0.138907    0.535549
      4         11           0        1.922364    0.000000    2.838095
      5         11           0        3.121727    2.619458    1.993527
      6         11           0        5.857070    3.169732    0.893486
      7         11           0        8.134286    1.258284    1.274036
 ---------------------------------------------------------------------
                    Distance matrix (angstroms):
                    1          2          3          4          5
     1  Na   0.000000
     2  Na   2.999470   0.000000
     3  Na   3.002140   5.076094   0.000000
     4  Na   4.219419   4.841569   3.002748   0.000000
     5  Na   3.000859   2.996030   4.245470   3.002221   0.000000
     6  Na   5.038310   5.280669   6.604490   5.413928   2.999165
     7  Na   7.534915   7.977389   8.244087   6.528211   5.243683
                    6          7
     6  Na   0.000000
     7  Na   2.997360   0.000000
 Stoichiometry    Na7(2)
 Framework group  C1[X(Na7)]
 Deg. of freedom    15
 Full point group                 C1      NOp   1
 Largest Abelian subgroup         C1      NOp   1
 Largest concise Abelian subgroup C1      NOp   1
                         Standard orientation:                         
 ---------------------------------------------------------------------
 Center     Atomic      Atomic             Coordinates (Angstroms)
 Number     Number       Type             X           Y           Z
 ---------------------------------------------------------------------
      1         11           0       -2.094537    0.825710   -1.419559
      2         11           0       -1.951083    2.616123    0.982661
      3         11           0       -2.997966   -1.986735   -0.884010
      4         11           0       -1.075602   -2.125643    1.418536
      5         11           0        0.123762    0.493816    0.573968
      6         11           0        2.859104    1.044089   -0.526073
      7         11           0        5.136321   -0.867359   -0.145523
 ---------------------------------------------------------------------
 Rotational constants (GHZ):           0.8980070           0.3706297           0.3096700
 Leave Link  202 at Mon Nov 13 12:29:24 2023, MaxMem=  1879048192 cpu:               0.1 elap:               0.0
 (Enter /home/sekinelabo/g16/l301.exe)
 Standard basis: 6-311+G(d) (5D, 7F)
 Ernie: Thresh=  0.10000D-02 Tol=  0.10000D-05 Strict=F.
 There are   217 symmetry adapted cartesian basis functions of A   symmetry.
 There are   210 symmetry adapted basis functions of A   symmetry.
   210 basis functions,   350 primitive gaussians,   217 cartesian basis functions
    39 alpha electrons       38 beta electrons
       nuclear repulsion energy       319.5110128237 Hartrees.
 IExCor=  402 DFT=T Ex+Corr=B3LYP ExCW=0 ScaHFX=  0.200000
 ScaDFX=  0.800000  0.720000  1.000000  0.810000 ScalE2=  1.000000  1.000000
 IRadAn=      5 IRanWt=     -1 IRanGd=            0 ICorTp=0 IEmpDi=  4
 NAtoms=    7 NActive=    7 NUniq=    7 SFac= 1.00D+00 NAtFMM=   60 NAOKFM=F Big=F
 Integral buffers will be    131072 words long.
 Raffenetti 2 integral format.
 Two-electron integral symmetry is turned on.
 Leave Link  301 at Mon Nov 13 12:29:24 2023, MaxMem=  1879048192 cpu:               0.5 elap:               0.0
 (Enter /home/sekinelabo/g16/l302.exe)
 NPDir=0 NMtPBC=     1 NCelOv=     1 NCel=       1 NClECP=     1 NCelD=      1
         NCelK=      1 NCelE2=     1 NClLst=     1 CellRange=     0.0.
 One-electron integrals computed using PRISM.
 One-electron integral symmetry used in STVInt
 NBasis=   210 RedAO= T EigKep=  1.74D-06  NBF=   210
 NBsUse=   210 1.00D-06 EigRej= -1.00D+00 NBFU=   210
 Precomputing XC quadrature grid using
 IXCGrd= 4 IRadAn=           5 IRanWt=          -1 IRanGd=           0 AccXCQ= 0.00D+00.
 Generated NRdTot=       0 NPtTot=           0 NUsed=           0 NTot=          32
 NSgBfM=   208   208   208   208   208 MxSgAt=     7 MxSgA2=     7.
 Leave Link  302 at Mon Nov 13 12:29:24 2023, MaxMem=  1879048192 cpu:               2.1 elap:               0.1
 (Enter /home/sekinelabo/g16/l303.exe)
 DipDrv:  MaxL=1.
 Leave Link  303 at Mon Nov 13 12:29:24 2023, MaxMem=  1879048192 cpu:               0.6 elap:               0.0
 (Enter /home/sekinelabo/g16/l401.exe)
 ExpMin= 7.60D-03 ExpMax= 3.62D+04 ExpMxC= 1.21D+03 IAcc=3 IRadAn=         5 AccDes= 0.00D+00
 Harris functional with IExCor=  402 and IRadAn=       5 diagonalized for initial guess.
 HarFok:  IExCor=  402 AccDes= 0.00D+00 IRadAn=         5 IDoV= 1 UseB2=F ITyADJ=14
 ICtDFT=  3500011 ScaDFX=  1.000000  1.000000  1.000000  1.000000
 FoFCou: FMM=F IPFlag=           0 FMFlag=      100000 FMFlg1=           0
         NFxFlg=           0 DoJE=T BraDBF=F KetDBF=T FulRan=T
         wScrn=  0.000000 ICntrl=       500 IOpCl=  0 I1Cent=   200000004 NGrid=           0
         NMat0=    1 NMatS0=      1 NMatT0=    0 NMatD0=    1 NMtDS0=    0 NMtDT0=    0
 Petite list used in FoFCou.
 Harris En= -1135.86948212160    
 JPrj=0 DoOrth=F DoCkMO=F.
 Initial guess <Sx>= 0.0000 <Sy>= 0.0000 <Sz>= 0.5000 <S**2>= 0.7500 S= 0.5000
 Leave Link  401 at Mon Nov 13 12:29:25 2023, MaxMem=  1879048192 cpu:               4.6 elap:               0.3
 (Enter /home/sekinelabo/g16/l502.exe)
 Keep R1 and R2 ints in memory in canonical form, NReq=507620360.
 FoFCou: FMM=F IPFlag=           0 FMFlag=           0 FMFlg1=           0
         NFxFlg=           0 DoJE=F BraDBF=F KetDBF=F FulRan=T
         wScrn=  0.000000 ICntrl=       600 IOpCl=  0 I1Cent=           0 NGrid=           0
         NMat0=    1 NMatS0=  22155 NMatT0=    0 NMatD0=    1 NMtDS0=    0 NMtDT0=    0
 Symmetry not used in FoFCou.
 Two-electron integral symmetry not used.
 UHF open shell SCF:
 Using DIIS extrapolation, IDIIS=  1040.
 NGot=  1879048192 LenX=  1388082376 LenY=  1388034846
 Requested convergence on RMS density matrix=1.00D-08 within 128 cycles.
 Requested convergence on MAX density matrix=1.00D-06.
 Requested convergence on             energy=1.00D-06.
 No special actions if energy rises.

 Cycle   1  Pass 1  IDiag  1:
 E= -1136.06866267650    
 DIIS: error= 9.93D-03 at cycle   1 NSaved=   1.
 NSaved= 1 IEnMin= 1 EnMin= -1136.06866267650     IErMin= 1 ErrMin= 9.93D-03
 ErrMax= 9.93D-03  0.00D+00 EMaxC= 1.00D-01 BMatC= 1.88D-01 BMatP= 1.88D-01
 IDIUse=3 WtCom= 9.01D-01 WtEn= 9.93D-02
 Coeff-Com:  0.100D+01
 Coeff-En:   0.100D+01
 Coeff:      0.100D+01
 Gap=     0.036 Goal=   None    Shift=    0.000
 Gap=     0.041 Goal=   None    Shift=    0.000
 GapD=    0.036 DampG=0.250 DampE=1.000 DampFc=0.2500 IDamp=-1.
 Damping current iteration by 2.50D-01
 RMSDP=2.42D-02 MaxDP=1.63D+00              OVMax= 2.40D-01

 Cycle   2  Pass 1  IDiag  1:
 E= -1136.07899132653     Delta-E=       -0.010328650034 Rises=F Damp=T
 DIIS: error= 6.93D-03 at cycle   2 NSaved=   2.
 NSaved= 2 IEnMin= 2 EnMin= -1136.07899132653     IErMin= 2 ErrMin= 6.93D-03
 ErrMax= 6.93D-03  0.00D+00 EMaxC= 1.00D-01 BMatC= 7.24D-02 BMatP= 1.88D-01
 IDIUse=3 WtCom= 9.31D-01 WtEn= 6.93D-02
 Coeff-Com: -0.129D+01 0.229D+01
 Coeff-En:   0.000D+00 0.100D+01
 Coeff:     -0.120D+01 0.220D+01
 Gap=     0.046 Goal=   None    Shift=    0.000
 Gap=     0.051 Goal=   None    Shift=    0.000
 RMSDP=1.54D-02 MaxDP=1.84D+00 DE=-1.03D-02 OVMax= 2.09D-01

 Cycle   3  Pass 1  IDiag  1:
 E= -1136.09545807175     Delta-E=       -0.016466745220 Rises=F Damp=F
 DIIS: error= 2.65D-03 at cycle   3 NSaved=   3.
 NSaved= 3 IEnMin= 3 EnMin= -1136.09545807175     IErMin= 3 ErrMin= 2.65D-03
 ErrMax= 2.65D-03  0.00D+00 EMaxC= 1.00D-01 BMatC= 3.50D-03 BMatP= 7.24D-02
 IDIUse=3 WtCom= 9.73D-01 WtEn= 2.65D-02
 Coeff-Com: -0.279D+00 0.479D+00 0.800D+00
 Coeff-En:   0.000D+00 0.000D+00 0.100D+01
 Coeff:     -0.271D+00 0.466D+00 0.805D+00
 Gap=     0.041 Goal=   None    Shift=    0.000
 Gap=     0.045 Goal=   None    Shift=    0.000
 RMSDP=7.49D-03 MaxDP=4.76D-01 DE=-1.65D-02 OVMax= 1.53D-01

 Cycle   4  Pass 1  IDiag  1:
 E= -1136.09465543472     Delta-E=        0.000802637028 Rises=F Damp=F
 DIIS: error= 2.52D-03 at cycle   4 NSaved=   4.
 NSaved= 4 IEnMin= 3 EnMin= -1136.09545807175     IErMin= 4 ErrMin= 2.52D-03
 ErrMax= 2.52D-03  0.00D+00 EMaxC= 1.00D-01 BMatC= 4.37D-03 BMatP= 3.50D-03
 IDIUse=3 WtCom= 1.66D-01 WtEn= 8.34D-01
 Coeff-Com: -0.173D-01 0.238D-01 0.527D+00 0.467D+00
 Coeff-En:   0.000D+00 0.000D+00 0.538D+00 0.462D+00
 Coeff:     -0.287D-02 0.396D-02 0.536D+00 0.463D+00
 Gap=     0.040 Goal=   None    Shift=    0.000
 Gap=     0.046 Goal=   None    Shift=    0.000
 RMSDP=3.72D-03 MaxDP=2.24D-01 DE= 8.03D-04 OVMax= 7.44D-02

 Cycle   5  Pass 1  IDiag  1:
 E= -1136.09934065312     Delta-E=       -0.004685218402 Rises=F Damp=F
 DIIS: error= 2.77D-04 at cycle   5 NSaved=   5.
 NSaved= 5 IEnMin= 5 EnMin= -1136.09934065312     IErMin= 5 ErrMin= 2.77D-04
 ErrMax= 2.77D-04  0.00D+00 EMaxC= 1.00D-01 BMatC= 3.69D-05 BMatP= 3.50D-03
 IDIUse=3 WtCom= 9.97D-01 WtEn= 2.77D-03
 Coeff-Com:  0.159D-02-0.324D-02 0.210D+00 0.172D+00 0.620D+00
 Coeff-En:   0.000D+00 0.000D+00 0.000D+00 0.000D+00 0.100D+01
 Coeff:      0.159D-02-0.323D-02 0.209D+00 0.171D+00 0.621D+00
 Gap=     0.040 Goal=   None    Shift=    0.000
 Gap=     0.046 Goal=   None    Shift=    0.000
 RMSDP=6.92D-04 MaxDP=5.41D-02 DE=-4.69D-03 OVMax= 1.05D-02

 Cycle   6  Pass 1  IDiag  1:
 E= -1136.09938011157     Delta-E=       -0.000039458449 Rises=F Damp=F
 DIIS: error= 1.01D-04 at cycle   6 NSaved=   6.
 NSaved= 6 IEnMin= 6 EnMin= -1136.09938011157     IErMin= 6 ErrMin= 1.01D-04
 ErrMax= 1.01D-04  0.00D+00 EMaxC= 1.00D-01 BMatC= 8.03D-06 BMatP= 3.69D-05
 IDIUse=3 WtCom= 9.99D-01 WtEn= 1.01D-03
 Coeff-Com:  0.338D-02-0.515D-02-0.378D-01-0.441D-01 0.281D+00 0.802D+00
 Coeff-En:   0.000D+00 0.000D+00 0.000D+00 0.000D+00 0.000D+00 0.100D+01
 Coeff:      0.338D-02-0.514D-02-0.378D-01-0.440D-01 0.281D+00 0.802D+00
 Gap=     0.040 Goal=   None    Shift=    0.000
 Gap=     0.046 Goal=   None    Shift=    0.000
 RMSDP=2.99D-04 MaxDP=1.68D-02 DE=-3.95D-05 OVMax= 5.50D-03

 Cycle   7  Pass 1  IDiag  1:
 E= -1136.09939474671     Delta-E=       -0.000014635134 Rises=F Damp=F
 DIIS: error= 3.90D-05 at cycle   7 NSaved=   7.
 NSaved= 7 IEnMin= 7 EnMin= -1136.09939474671     IErMin= 7 ErrMin= 3.90D-05
 ErrMax= 3.90D-05  0.00D+00 EMaxC= 1.00D-01 BMatC= 8.06D-07 BMatP= 8.03D-06
 IDIUse=1 WtCom= 1.00D+00 WtEn= 0.00D+00
 Coeff-Com: -0.889D-05-0.341D-04-0.360D-01-0.313D-01-0.443D-02 0.198D+00
 Coeff-Com:  0.874D+00
 Coeff:     -0.889D-05-0.341D-04-0.360D-01-0.313D-01-0.443D-02 0.198D+00
 Coeff:      0.874D+00
 Gap=     0.040 Goal=   None    Shift=    0.000
 Gap=     0.046 Goal=   None    Shift=    0.000
 RMSDP=1.04D-04 MaxDP=1.05D-02 DE=-1.46D-05 OVMax= 2.54D-03

 Cycle   8  Pass 1  IDiag  1:
 E= -1136.09939746912     Delta-E=       -0.000002722408 Rises=F Damp=F
 DIIS: error= 2.61D-05 at cycle   8 NSaved=   8.
 NSaved= 8 IEnMin= 8 EnMin= -1136.09939746912     IErMin= 8 ErrMin= 2.61D-05
 ErrMax= 2.61D-05  0.00D+00 EMaxC= 1.00D-01 BMatC= 2.49D-07 BMatP= 8.06D-07
 IDIUse=1 WtCom= 1.00D+00 WtEn= 0.00D+00
 Coeff-Com:  0.190D-03-0.199D-03-0.111D-01-0.826D-02-0.369D-01-0.372D-01
 Coeff-Com:  0.297D+00 0.796D+00
 Coeff:      0.190D-03-0.199D-03-0.111D-01-0.826D-02-0.369D-01-0.372D-01
 Coeff:      0.297D+00 0.796D+00
 Gap=     0.040 Goal=   None    Shift=    0.000
 Gap=     0.046 Goal=   None    Shift=    0.000
 RMSDP=6.83D-05 MaxDP=6.71D-03 DE=-2.72D-06 OVMax= 1.41D-03

 Cycle   9  Pass 1  IDiag  1:
 E= -1136.09939825859     Delta-E=       -0.000000789475 Rises=F Damp=F
 DIIS: error= 2.25D-05 at cycle   9 NSaved=   9.
 NSaved= 9 IEnMin= 9 EnMin= -1136.09939825859     IErMin= 9 ErrMin= 2.25D-05
 ErrMax= 2.25D-05  0.00D+00 EMaxC= 1.00D-01 BMatC= 1.30D-07 BMatP= 2.49D-07
 IDIUse=1 WtCom= 1.00D+00 WtEn= 0.00D+00
 Coeff-Com:  0.364D-03-0.440D-03 0.367D-02 0.418D-02-0.208D-01-0.868D-01
 Coeff-Com: -0.132D+00 0.493D+00 0.739D+00
 Coeff:      0.364D-03-0.440D-03 0.367D-02 0.418D-02-0.208D-01-0.868D-01
 Coeff:     -0.132D+00 0.493D+00 0.739D+00
 Gap=     0.040 Goal=   None    Shift=    0.000
 Gap=     0.046 Goal=   None    Shift=    0.000
 RMSDP=5.94D-05 MaxDP=5.31D-03 DE=-7.89D-07 OVMax= 1.13D-03

 Cycle  10  Pass 1  IDiag  1:
 E= -1136.09939864571     Delta-E=       -0.000000387119 Rises=F Damp=F
 DIIS: error= 5.00D-06 at cycle  10 NSaved=  10.
 NSaved=10 IEnMin=10 EnMin= -1136.09939864571     IErMin=10 ErrMin= 5.00D-06
 ErrMax= 5.00D-06  0.00D+00 EMaxC= 1.00D-01 BMatC= 1.47D-08 BMatP= 1.30D-07
 IDIUse=1 WtCom= 1.00D+00 WtEn= 0.00D+00
 Coeff-Com: -0.662D-04 0.880D-04 0.245D-02 0.237D-02 0.772D-02-0.423D-02
 Coeff-Com: -0.974D-01-0.566D-01 0.107D+00 0.104D+01
 Coeff:     -0.662D-04 0.880D-04 0.245D-02 0.237D-02 0.772D-02-0.423D-02
 Coeff:     -0.974D-01-0.566D-01 0.107D+00 0.104D+01
 Gap=     0.040 Goal=   None    Shift=    0.000
 Gap=     0.046 Goal=   None    Shift=    0.000
 RMSDP=4.33D-05 MaxDP=3.98D-03 DE=-3.87D-07 OVMax= 5.50D-04

 Cycle  11  Pass 1  IDiag  1:
 E= -1136.09939873557     Delta-E=       -0.000000089861 Rises=F Damp=F
 DIIS: error= 3.09D-06 at cycle  11 NSaved=  11.
 NSaved=11 IEnMin=11 EnMin= -1136.09939873557     IErMin=11 ErrMin= 3.09D-06
 ErrMax= 3.09D-06  0.00D+00 EMaxC= 1.00D-01 BMatC= 3.13D-09 BMatP= 1.47D-08
 IDIUse=1 WtCom= 1.00D+00 WtEn= 0.00D+00
 Coeff-Com: -0.134D-03 0.168D-03-0.280D-03-0.532D-03 0.852D-02 0.224D-01
 Coeff-Com:  0.900D-02-0.147D+00-0.165D+00 0.140D+00 0.113D+01
 Coeff:     -0.134D-03 0.168D-03-0.280D-03-0.532D-03 0.852D-02 0.224D-01
 Coeff:      0.900D-02-0.147D+00-0.165D+00 0.140D+00 0.113D+01
 Gap=     0.040 Goal=   None    Shift=    0.000
 Gap=     0.046 Goal=   None    Shift=    0.000
 RMSDP=3.12D-05 MaxDP=2.93D-03 DE=-8.99D-08 OVMax= 3.64D-04

 Cycle  12  Pass 1  IDiag  1:
 E= -1136.09939876375     Delta-E=       -0.000000028177 Rises=F Damp=F
 DIIS: error= 1.27D-06 at cycle  12 NSaved=  12.
 NSaved=12 IEnMin=12 EnMin= -1136.09939876375     IErMin=12 ErrMin= 1.27D-06
 ErrMax= 1.27D-06  0.00D+00 EMaxC= 1.00D-01 BMatC= 6.05D-10 BMatP= 3.13D-09
 IDIUse=1 WtCom= 1.00D+00 WtEn= 0.00D+00
 Coeff-Com: -0.166D-04 0.204D-04-0.466D-03-0.506D-03-0.130D-03 0.581D-02
 Coeff-Com:  0.209D-01-0.263D-01-0.525D-01-0.123D+00 0.185D+00 0.992D+00
 Coeff:     -0.166D-04 0.204D-04-0.466D-03-0.506D-03-0.130D-03 0.581D-02
 Coeff:      0.209D-01-0.263D-01-0.525D-01-0.123D+00 0.185D+00 0.992D+00
 Gap=     0.040 Goal=   None    Shift=    0.000
 Gap=     0.046 Goal=   None    Shift=    0.000
 RMSDP=9.68D-06 MaxDP=9.50D-04 DE=-2.82D-08 OVMax= 1.49D-04

 Cycle  13  Pass 1  IDiag  1:
 E= -1136.09939876853     Delta-E=       -0.000000004784 Rises=F Damp=F
 DIIS: error= 7.16D-07 at cycle  13 NSaved=  13.
 NSaved=13 IEnMin=13 EnMin= -1136.09939876853     IErMin=13 ErrMin= 7.16D-07
 ErrMax= 7.16D-07  0.00D+00 EMaxC= 1.00D-01 BMatC= 2.20D-10 BMatP= 6.05D-10
 IDIUse=1 WtCom= 1.00D+00 WtEn= 0.00D+00
 Coeff-Com:  0.362D-04-0.468D-04-0.184D-03-0.128D-03-0.203D-02-0.254D-02
 Coeff-Com:  0.510D-02 0.248D-01 0.203D-01-0.732D-01-0.211D+00 0.359D+00
 Coeff-Com:  0.880D+00
 Coeff:      0.362D-04-0.468D-04-0.184D-03-0.128D-03-0.203D-02-0.254D-02
 Coeff:      0.510D-02 0.248D-01 0.203D-01-0.732D-01-0.211D+00 0.359D+00
 Coeff:      0.880D+00
 Gap=     0.040 Goal=   None    Shift=    0.000
 Gap=     0.046 Goal=   None    Shift=    0.000
 RMSDP=4.33D-06 MaxDP=4.77D-04 DE=-4.78D-09 OVMax= 8.51D-05

 Cycle  14  Pass 1  IDiag  1:
 E= -1136.09939876984     Delta-E=       -0.000000001307 Rises=F Damp=F
 DIIS: error= 4.11D-07 at cycle  14 NSaved=  14.
 NSaved=14 IEnMin=14 EnMin= -1136.09939876984     IErMin=14 ErrMin= 4.11D-07
 ErrMax= 4.11D-07  0.00D+00 EMaxC= 1.00D-01 BMatC= 5.76D-11 BMatP= 2.20D-10
 IDIUse=1 WtCom= 1.00D+00 WtEn= 0.00D+00
 Coeff-Com:  0.715D-05-0.893D-05 0.809D-04 0.104D-03-0.121D-03-0.178D-02
 Coeff-Com: -0.598D-02 0.989D-02 0.163D-01 0.329D-01-0.760D-01-0.316D+00
 Coeff-Com:  0.229D+00 0.111D+01
 Coeff:      0.715D-05-0.893D-05 0.809D-04 0.104D-03-0.121D-03-0.178D-02
 Coeff:     -0.598D-02 0.989D-02 0.163D-01 0.329D-01-0.760D-01-0.316D+00
 Coeff:      0.229D+00 0.111D+01
 Gap=     0.040 Goal=   None    Shift=    0.000
 Gap=     0.046 Goal=   None    Shift=    0.000
 RMSDP=2.05D-06 MaxDP=1.86D-04 DE=-1.31D-09 OVMax= 6.93D-05

 Cycle  15  Pass 1  IDiag  1:
 E= -1136.09939877032     Delta-E=       -0.000000000478 Rises=F Damp=F
 DIIS: error= 2.13D-07 at cycle  15 NSaved=  15.
 NSaved=15 IEnMin=15 EnMin= -1136.09939877032     IErMin=15 ErrMin= 2.13D-07
 ErrMax= 2.13D-07  0.00D+00 EMaxC= 1.00D-01 BMatC= 1.15D-11 BMatP= 5.76D-11
 IDIUse=1 WtCom= 1.00D+00 WtEn= 0.00D+00
 Coeff-Com: -0.856D-05 0.113D-04 0.487D-04 0.293D-04 0.495D-03 0.408D-03
 Coeff-Com: -0.168D-02-0.498D-02-0.194D-02 0.143D-01 0.477D-01-0.105D+00
 Coeff-Com: -0.188D+00 0.222D+00 0.102D+01
 Coeff:     -0.856D-05 0.113D-04 0.487D-04 0.293D-04 0.495D-03 0.408D-03
 Coeff:     -0.168D-02-0.498D-02-0.194D-02 0.143D-01 0.477D-01-0.105D+00
 Coeff:     -0.188D+00 0.222D+00 0.102D+01
 Gap=     0.040 Goal=   None    Shift=    0.000
 Gap=     0.046 Goal=   None    Shift=    0.000
 RMSDP=8.94D-07 MaxDP=7.77D-05 DE=-4.78D-10 OVMax= 2.33D-05

 Cycle  16  Pass 1  IDiag  1:
 E= -1136.09939877041     Delta-E=       -0.000000000088 Rises=F Damp=F
 DIIS: error= 8.02D-08 at cycle  16 NSaved=  16.
 NSaved=16 IEnMin=16 EnMin= -1136.09939877041     IErMin=16 ErrMin= 8.02D-08
 ErrMax= 8.02D-08  0.00D+00 EMaxC= 1.00D-01 BMatC= 2.95D-12 BMatP= 1.15D-11
 IDIUse=1 WtCom= 1.00D+00 WtEn= 0.00D+00
 Coeff-Com: -0.310D-05 0.387D-05-0.111D-04-0.120D-04 0.189D-03 0.619D-03
 Coeff-Com:  0.769D-03-0.381D-02-0.374D-02-0.170D-02 0.214D-01 0.457D-01
 Coeff-Com: -0.701D-01-0.209D+00 0.883D-01 0.113D+01
 Coeff:     -0.310D-05 0.387D-05-0.111D-04-0.120D-04 0.189D-03 0.619D-03
 Coeff:      0.769D-03-0.381D-02-0.374D-02-0.170D-02 0.214D-01 0.457D-01
 Coeff:     -0.701D-01-0.209D+00 0.883D-01 0.113D+01
 Gap=     0.040 Goal=   None    Shift=    0.000
 Gap=     0.046 Goal=   None    Shift=    0.000
 RMSDP=6.00D-07 MaxDP=5.67D-05 DE=-8.82D-11 OVMax= 1.42D-05

 Cycle  17  Pass 1  IDiag  1:
 E= -1136.09939877044     Delta-E=       -0.000000000037 Rises=F Damp=F
 DIIS: error= 4.78D-08 at cycle  17 NSaved=  17.
 NSaved=17 IEnMin=17 EnMin= -1136.09939877044     IErMin=17 ErrMin= 4.78D-08
 ErrMax= 4.78D-08  0.00D+00 EMaxC= 1.00D-01 BMatC= 9.14D-13 BMatP= 2.95D-12
 IDIUse=1 WtCom= 1.00D+00 WtEn= 0.00D+00
 Coeff-Com:  0.271D-05-0.356D-05-0.184D-04-0.146D-04-0.164D-03-0.256D-04
 Coeff-Com:  0.586D-03 0.147D-02-0.389D-04-0.504D-02-0.140D-01 0.396D-01
 Coeff-Com:  0.590D-01-0.101D+00-0.333D+00 0.779D-01 0.128D+01
 Coeff:      0.271D-05-0.356D-05-0.184D-04-0.146D-04-0.164D-03-0.256D-04
 Coeff:      0.586D-03 0.147D-02-0.389D-04-0.504D-02-0.140D-01 0.396D-01
 Coeff:      0.590D-01-0.101D+00-0.333D+00 0.779D-01 0.128D+01
 Gap=     0.040 Goal=   None    Shift=    0.000
 Gap=     0.046 Goal=   None    Shift=    0.000
 RMSDP=4.42D-07 MaxDP=3.44D-05 DE=-3.66D-11 OVMax= 1.04D-05

 Cycle  18  Pass 1  IDiag  1:
 E= -1136.09939877044     Delta-E=        0.000000000002 Rises=F Damp=F
 DIIS: error= 2.18D-08 at cycle  18 NSaved=  18.
 NSaved=18 IEnMin=17 EnMin= -1136.09939877044     IErMin=18 ErrMin= 2.18D-08
 ErrMax= 2.18D-08  0.00D+00 EMaxC= 1.00D-01 BMatC= 2.21D-13 BMatP= 9.14D-13
 IDIUse=1 WtCom= 1.00D+00 WtEn= 0.00D+00
 Coeff-Com:  0.999D-06-0.126D-05 0.771D-06 0.165D-05-0.379D-04-0.206D-03
 Coeff-Com: -0.264D-03 0.106D-02 0.112D-02 0.107D-02-0.619D-02-0.150D-01
 Coeff-Com:  0.148D-01 0.812D-01-0.203D-02-0.311D+00-0.170D+00 0.140D+01
 Coeff:      0.999D-06-0.126D-05 0.771D-06 0.165D-05-0.379D-04-0.206D-03
 Coeff:     -0.264D-03 0.106D-02 0.112D-02 0.107D-02-0.619D-02-0.150D-01
 Coeff:      0.148D-01 0.812D-01-0.203D-02-0.311D+00-0.170D+00 0.140D+01
 Gap=     0.040 Goal=   None    Shift=    0.000
 Gap=     0.046 Goal=   None    Shift=    0.000
 RMSDP=2.32D-07 MaxDP=1.91D-05 DE= 1.82D-12 OVMax= 6.48D-06

 Cycle  19  Pass 1  IDiag  1:
 E= -1136.09939877046     Delta-E=       -0.000000000019 Rises=F Damp=F
 DIIS: error= 1.12D-08 at cycle  19 NSaved=  19.
 NSaved=19 IEnMin=19 EnMin= -1136.09939877046     IErMin=19 ErrMin= 1.12D-08
 ErrMax= 1.12D-08  0.00D+00 EMaxC= 1.00D-01 BMatC= 4.44D-14 BMatP= 2.21D-13
 IDIUse=1 WtCom= 1.00D+00 WtEn= 0.00D+00
 Coeff-Com: -0.812D-06 0.107D-05 0.283D-05 0.188D-05 0.376D-04 0.619D-04
 Coeff-Com: -0.362D-04-0.490D-03-0.173D-03 0.253D-03 0.451D-02-0.477D-02
 Coeff-Com: -0.148D-01 0.179D-02 0.618D-01 0.422D-01-0.229D+00-0.273D+00
 Coeff-Com:  0.141D+01
 Coeff:     -0.812D-06 0.107D-05 0.283D-05 0.188D-05 0.376D-04 0.619D-04
 Coeff:     -0.362D-04-0.490D-03-0.173D-03 0.253D-03 0.451D-02-0.477D-02
 Coeff:     -0.148D-01 0.179D-02 0.618D-01 0.422D-01-0.229D+00-0.273D+00
 Coeff:      0.141D+01
 Gap=     0.040 Goal=   None    Shift=    0.000
 Gap=     0.046 Goal=   None    Shift=    0.000
 RMSDP=1.18D-07 MaxDP=1.04D-05 DE=-1.93D-11 OVMax= 3.32D-06

 Cycle  20  Pass 1  IDiag  1:
 E= -1136.09939877046     Delta-E=        0.000000000001 Rises=F Damp=F
 DIIS: error= 3.82D-09 at cycle  20 NSaved=  20.
 NSaved=20 IEnMin=19 EnMin= -1136.09939877046     IErMin=20 ErrMin= 3.82D-09
 ErrMax= 3.82D-09  0.00D+00 EMaxC= 1.00D-01 BMatC= 9.31D-15 BMatP= 4.44D-14
 IDIUse=1 WtCom= 1.00D+00 WtEn= 0.00D+00
 Coeff-Com: -0.253D-06 0.322D-06 0.756D-06 0.687D-06 0.122D-04 0.450D-04
 Coeff-Com:  0.328D-04-0.243D-03-0.205D-03 0.841D-06 0.113D-02 0.257D-02
 Coeff-Com: -0.302D-02-0.163D-01 0.476D-02 0.714D-01 0.124D-01-0.337D+00
 Coeff-Com:  0.196D+00 0.107D+01
 Coeff:     -0.253D-06 0.322D-06 0.756D-06 0.687D-06 0.122D-04 0.450D-04
 Coeff:      0.328D-04-0.243D-03-0.205D-03 0.841D-06 0.113D-02 0.257D-02
 Coeff:     -0.302D-02-0.163D-01 0.476D-02 0.714D-01 0.124D-01-0.337D+00
 Coeff:      0.196D+00 0.107D+01
 Gap=     0.040 Goal=   None    Shift=    0.000
 Gap=     0.046 Goal=   None    Shift=    0.000
 RMSDP=4.34D-08 MaxDP=2.74D-06 DE= 9.09D-13 OVMax= 1.06D-06

 Cycle  21  Pass 1  IDiag  1:
 E= -1136.09939877046     Delta-E=       -0.000000000006 Rises=F Damp=F
 DIIS: error= 1.73D-09 at cycle  21 NSaved=  20.
 NSaved=20 IEnMin=20 EnMin= -1136.09939877046     IErMin=20 ErrMin= 1.73D-09
 ErrMax= 1.73D-09  0.00D+00 EMaxC= 1.00D-01 BMatC= 1.89D-15 BMatP= 9.31D-15
 IDIUse=1 WtCom= 1.00D+00 WtEn= 0.00D+00
 Large coefficients: NSaved= 20 BigCof=    0.00 CofMax=   10.00 Det=-4.07D-15
 Inversion failed.  Reducing to 19 matrices.
 Large coefficients: NSaved= 19 BigCof=    0.00 CofMax=   10.00 Det=-4.13D-15
 Inversion failed.  Reducing to 18 matrices.
 Large coefficients: NSaved= 18 BigCof=    0.00 CofMax=   10.00 Det=-4.13D-15
 Inversion failed.  Reducing to 17 matrices.
 Large coefficients: NSaved= 17 BigCof=    0.00 CofMax=   10.00 Det=-4.23D-15
 Inversion failed.  Reducing to 16 matrices.
 Large coefficients: NSaved= 16 BigCof=    0.00 CofMax=   10.00 Det=-4.35D-15
 Inversion failed.  Reducing to 15 matrices.
 Coeff-Com: -0.125D-05 0.138D-05-0.180D-04 0.876D-05-0.433D-04 0.463D-03
 Coeff-Com:  0.667D-03-0.240D-02-0.342D-02 0.100D-01 0.335D-01-0.611D-01
 Coeff-Com: -0.142D+00 0.231D+00 0.934D+00
 Coeff:     -0.125D-05 0.138D-05-0.180D-04 0.876D-05-0.433D-04 0.463D-03
 Coeff:      0.667D-03-0.240D-02-0.342D-02 0.100D-01 0.335D-01-0.611D-01
 Coeff:     -0.142D+00 0.231D+00 0.934D+00
 Gap=     0.040 Goal=   None    Shift=    0.000
 Gap=     0.046 Goal=   None    Shift=    0.000
 RMSDP=1.88D-08 MaxDP=1.30D-06 DE=-5.91D-12 OVMax= 3.34D-07

 Cycle  22  Pass 1  IDiag  1:
 E= -1136.09939877046     Delta-E=        0.000000000002 Rises=F Damp=F
 DIIS: error= 8.44D-10 at cycle  22 NSaved=  16.
 NSaved=16 IEnMin=15 EnMin= -1136.09939877046     IErMin=16 ErrMin= 8.44D-10
 ErrMax= 8.44D-10  0.00D+00 EMaxC= 1.00D-01 BMatC= 4.39D-16 BMatP= 1.89D-15
 IDIUse=1 WtCom= 1.00D+00 WtEn= 0.00D+00
 Large coefficients: NSaved= 16 BigCof=    0.00 CofMax=   10.00 Det=-1.28D-15
 Inversion failed.  Reducing to 15 matrices.
 Coeff-Com:  0.317D-06-0.723D-05 0.151D-04-0.117D-03 0.214D-03 0.406D-03
 Coeff-Com:  0.235D-04-0.286D-02-0.253D-02 0.786D-02 0.279D-01-0.578D-01
 Coeff-Com: -0.149D+00 0.190D+00 0.986D+00
 Coeff:      0.317D-06-0.723D-05 0.151D-04-0.117D-03 0.214D-03 0.406D-03
 Coeff:      0.235D-04-0.286D-02-0.253D-02 0.786D-02 0.279D-01-0.578D-01
 Coeff:     -0.149D+00 0.190D+00 0.986D+00
 Gap=     0.040 Goal=   None    Shift=    0.000
 Gap=     0.046 Goal=   None    Shift=    0.000
 RMSDP=8.01D-09 MaxDP=5.41D-07 DE= 2.27D-12 OVMax= 1.58D-07

 SCF Done:  E(UB3LYP) =  -1136.09939877     A.U. after   22 cycles
            NFock= 22  Conv=0.80D-08     -V/T= 2.0026
 <Sx>= 0.0000 <Sy>= 0.0000 <Sz>= 0.5000 <S**2>= 0.7710 S= 0.5104
 <L.S>= 0.000000000000E+00
 KE= 1.133106053496D+03 PE=-3.368268077827D+03 EE= 7.795516127365D+02
 Annihilation of the first spin contaminant:
 S**2 before annihilation     0.7710,   after     0.7503
 Leave Link  502 at Mon Nov 13 12:29:43 2023, MaxMem=  1879048192 cpu:             207.4 elap:              17.8
 (Enter /home/sekinelabo/g16/l601.exe)
 Copying SCF densities to generalized density rwf, IOpCl= 1 IROHF=0.

 **********************************************************************

            Population analysis using the SCF Density.

 **********************************************************************

 Orbital symmetries:
 Alpha Orbitals:
       Occupied  (A) (A) (A) (A) (A) (A) (A) (A) (A) (A) (A) (A)
                 (A) (A) (A) (A) (A) (A) (A) (A) (A) (A) (A) (A)
                 (A) (A) (A) (A) (A) (A) (A) (A) (A) (A) (A) (A)
                 (A) (A) (A)
       Virtual   (A) (A) (A) (A) (A) (A) (A) (A) (A) (A) (A) (A)
                 (A) (A) (A) (A) (A) (A) (A) (A) (A) (A) (A) (A)
                 (A) (A) (A) (A) (A) (A) (A) (A) (A) (A) (A) (A)
                 (A) (A) (A) (A) (A) (A) (A) (A) (A) (A) (A) (A)
                 (A) (A) (A) (A) (A) (A) (A) (A) (A) (A) (A) (A)
                 (A) (A) (A) (A) (A) (A) (A) (A) (A) (A) (A) (A)
                 (A) (A) (A) (A) (A) (A) (A) (A) (A) (A) (A) (A)
                 (A) (A) (A) (A) (A) (A) (A) (A) (A) (A) (A) (A)
                 (A) (A) (A) (A) (A) (A) (A) (A) (A) (A) (A) (A)
                 (A) (A) (A) (A) (A) (A) (A) (A) (A) (A) (A) (A)
                 (A) (A) (A) (A) (A) (A) (A) (A) (A) (A) (A) (A)
                 (A) (A) (A) (A) (A) (A) (A) (A) (A) (A) (A) (A)
                 (A) (A) (A) (A) (A) (A) (A) (A) (A) (A) (A) (A)
                 (A) (A) (A) (A) (A) (A) (A) (A) (A) (A) (A) (A)
                 (A) (A) (A)
 Beta  Orbitals:
       Occupied  (A) (A) (A) (A) (A) (A) (A) (A) (A) (A) (A) (A)
                 (A) (A) (A) (A) (A) (A) (A) (A) (A) (A) (A) (A)
                 (A) (A) (A) (A) (A) (A) (A) (A) (A) (A) (A) (A)
                 (A) (A)
       Virtual   (A) (A) (A) (A) (A) (A) (A) (A) (A) (A) (A) (A)
                 (A) (A) (A) (A) (A) (A) (A) (A) (A) (A) (A) (A)
                 (A) (A) (A) (A) (A) (A) (A) (A) (A) (A) (A) (A)
                 (A) (A) (A) (A) (A) (A) (A) (A) (A) (A) (A) (A)
                 (A) (A) (A) (A) (A) (A) (A) (A) (A) (A) (A) (A)
                 (A) (A) (A) (A) (A) (A) (A) (A) (A) (A) (A) (A)
                 (A) (A) (A) (A) (A) (A) (A) (A) (A) (A) (A) (A)
                 (A) (A) (A) (A) (A) (A) (A) (A) (A) (A) (A) (A)
                 (A) (A) (A) (A) (A) (A) (A) (A) (A) (A) (A) (A)
                 (A) (A) (A) (A) (A) (A) (A) (A) (A) (A) (A) (A)
                 (A) (A) (A) (A) (A) (A) (A) (A) (A) (A) (A) (A)
                 (A) (A) (A) (A) (A) (A) (A) (A) (A) (A) (A) (A)
                 (A) (A) (A) (A) (A) (A) (A) (A) (A) (A) (A) (A)
                 (A) (A) (A) (A) (A) (A) (A) (A) (A) (A) (A) (A)
                 (A) (A) (A) (A)
 The electronic state is 2-A.
 Alpha  occ. eigenvalues --  -38.44980 -38.44327 -38.44282 -38.44137 -38.43898
 Alpha  occ. eigenvalues --  -38.43634 -38.43450  -2.20784  -2.20190  -2.20171
 Alpha  occ. eigenvalues --   -2.20142  -2.19977  -2.19549  -2.19361  -1.14479
 Alpha  occ. eigenvalues --   -1.14424  -1.14418  -1.14017  -1.13953  -1.13883
 Alpha  occ. eigenvalues --   -1.13856  -1.13826  -1.13811  -1.13807  -1.13775
 Alpha  occ. eigenvalues --   -1.13694  -1.13653  -1.13591  -1.13536  -1.13251
 Alpha  occ. eigenvalues --   -1.13200  -1.13167  -1.13031  -1.12989  -1.12939
 Alpha  occ. eigenvalues --   -0.18349  -0.14062  -0.12152  -0.11085
 Alpha virt. eigenvalues --   -0.07045  -0.04895  -0.03792  -0.03391  -0.03202
 Alpha virt. eigenvalues --   -0.02601  -0.01939  -0.01697  -0.00456  -0.00361
 Alpha virt. eigenvalues --   -0.00048   0.00043   0.00434   0.00689   0.00792
 Alpha virt. eigenvalues --    0.00899   0.01124   0.01157   0.01224   0.01297
 Alpha virt. eigenvalues --    0.01466   0.01599   0.01663   0.01727   0.01859
 Alpha virt. eigenvalues --    0.02075   0.02187   0.02283   0.02434   0.02611
 Alpha virt. eigenvalues --    0.02619   0.02731   0.02902   0.02979   0.03227
 Alpha virt. eigenvalues --    0.03283   0.03298   0.03446   0.03491   0.03643
 Alpha virt. eigenvalues --    0.03728   0.03832   0.04119   0.04521   0.04663
 Alpha virt. eigenvalues --    0.04947   0.05165   0.05377   0.05627   0.05762
 Alpha virt. eigenvalues --    0.06205   0.06670   0.06830   0.07068   0.07553
 Alpha virt. eigenvalues --    0.07689   0.07746   0.07996   0.08495   0.08693
 Alpha virt. eigenvalues --    0.08992   0.09544   0.09728   0.10149   0.10556
 Alpha virt. eigenvalues --    0.10657   0.11818   0.12027   0.12481   0.13188
 Alpha virt. eigenvalues --    0.13633   0.13664   0.14071   0.14266   0.14455
 Alpha virt. eigenvalues --    0.15012   0.15660   0.16380   0.17227   0.19165
 Alpha virt. eigenvalues --    0.23847   0.26741   0.27765   0.29319   0.30003
 Alpha virt. eigenvalues --    0.30571   0.31067   0.31597   0.31709   0.32938
 Alpha virt. eigenvalues --    0.33797   0.34147   0.35140   0.36084   0.36733
 Alpha virt. eigenvalues --    0.38109   0.38579   0.39959   0.41149   0.41569
 Alpha virt. eigenvalues --    0.42841   0.42997   0.43212   0.43656   0.44031
 Alpha virt. eigenvalues --    0.44453   0.44510   0.44813   0.45177   0.45347
 Alpha virt. eigenvalues --    0.45704   0.46470   0.46648   0.46823   0.47453
 Alpha virt. eigenvalues --    0.48486   0.49087   0.49494   0.49566   0.50603
 Alpha virt. eigenvalues --    0.51122   0.52518   0.53779   0.54145   0.55013
 Alpha virt. eigenvalues --    0.55809   0.56302   0.57545   0.65935   0.67922
 Alpha virt. eigenvalues --    0.68430   0.71210   0.74341   0.75772   0.77689
 Alpha virt. eigenvalues --    0.81045   2.07549   2.09733   2.14096   2.16062
 Alpha virt. eigenvalues --    2.18238   2.22921   2.30536   4.40653   4.41640
 Alpha virt. eigenvalues --    4.42445   4.42855   4.43036   4.43561   4.44024
 Alpha virt. eigenvalues --    4.44831   4.45647   4.45841   4.46609   4.47267
 Alpha virt. eigenvalues --    4.47620   4.53079   4.56162   4.61541   4.63741
 Alpha virt. eigenvalues --    4.69510   4.71710   4.72746   4.78617  96.27979
 Alpha virt. eigenvalues --   96.30935  96.36553  96.39509  96.42267  96.48498
 Alpha virt. eigenvalues --   96.58634
  Beta  occ. eigenvalues --  -38.44949 -38.44332 -38.44280 -38.44072 -38.43848
  Beta  occ. eigenvalues --  -38.43581 -38.43420  -2.20727  -2.20202  -2.20169
  Beta  occ. eigenvalues --   -2.20027  -2.19890  -2.19453  -2.19309  -1.14443
  Beta  occ. eigenvalues --   -1.14385  -1.14379  -1.13992  -1.13931  -1.13848
  Beta  occ. eigenvalues --   -1.13838  -1.13814  -1.13795  -1.13787  -1.13708
  Beta  occ. eigenvalues --   -1.13632  -1.13585  -1.13527  -1.13474  -1.13195
  Beta  occ. eigenvalues --   -1.13125  -1.13104  -1.12979  -1.12957  -1.12890
  Beta  occ. eigenvalues --   -0.17699  -0.13679  -0.11962
  Beta virt. eigenvalues --   -0.07352  -0.06673  -0.04734  -0.03406  -0.03023
  Beta virt. eigenvalues --   -0.02628  -0.02471  -0.01586  -0.01313  -0.00334
  Beta virt. eigenvalues --   -0.00098   0.00040   0.00183   0.00584   0.00704
  Beta virt. eigenvalues --    0.00842   0.01018   0.01185   0.01212   0.01271
  Beta virt. eigenvalues --    0.01458   0.01532   0.01712   0.01740   0.01776
  Beta virt. eigenvalues --    0.01967   0.02227   0.02293   0.02377   0.02457
  Beta virt. eigenvalues --    0.02667   0.02726   0.02820   0.02932   0.03064
  Beta virt. eigenvalues --    0.03265   0.03316   0.03433   0.03523   0.03623
  Beta virt. eigenvalues --    0.03700   0.03813   0.03887   0.04186   0.04641
  Beta virt. eigenvalues --    0.04812   0.05048   0.05342   0.05454   0.05657
  Beta virt. eigenvalues --    0.05884   0.06273   0.06776   0.06956   0.07162
  Beta virt. eigenvalues --    0.07632   0.07870   0.07912   0.08140   0.08576
  Beta virt. eigenvalues --    0.08952   0.09165   0.09737   0.09793   0.10287
  Beta virt. eigenvalues --    0.10655   0.10861   0.11949   0.12205   0.12856
  Beta virt. eigenvalues --    0.13392   0.13848   0.13879   0.14415   0.14461
  Beta virt. eigenvalues --    0.14735   0.15158   0.15924   0.16567   0.17399
  Beta virt. eigenvalues --    0.19448   0.24383   0.27042   0.28085   0.29713
  Beta virt. eigenvalues --    0.30275   0.30814   0.31320   0.31898   0.32016
  Beta virt. eigenvalues --    0.33055   0.33928   0.34436   0.35420   0.36320
  Beta virt. eigenvalues --    0.37026   0.38389   0.38875   0.40144   0.41470
  Beta virt. eigenvalues --    0.41822   0.43016   0.43134   0.43349   0.43844
  Beta virt. eigenvalues --    0.44206   0.44622   0.44687   0.44893   0.45286
  Beta virt. eigenvalues --    0.45466   0.45944   0.46618   0.46814   0.47009
  Beta virt. eigenvalues --    0.47564   0.48697   0.49295   0.49726   0.49758
  Beta virt. eigenvalues --    0.50740   0.51239   0.52752   0.53929   0.54471
  Beta virt. eigenvalues --    0.55241   0.56030   0.56496   0.57877   0.66183
  Beta virt. eigenvalues --    0.68192   0.68632   0.71397   0.74518   0.75946
  Beta virt. eigenvalues --    0.77809   0.81289   2.07666   2.09874   2.14140
  Beta virt. eigenvalues --    2.16126   2.18411   2.23059   2.30742   4.40723
  Beta virt. eigenvalues --    4.41733   4.42494   4.42896   4.43082   4.43624
  Beta virt. eigenvalues --    4.44080   4.44895   4.45682   4.45883   4.46618
  Beta virt. eigenvalues --    4.47290   4.47666   4.53123   4.56234   4.61597
  Beta virt. eigenvalues --    4.63791   4.69560   4.71749   4.72856   4.78653
  Beta virt. eigenvalues --   96.28019  96.30983  96.36577  96.39533  96.42318
  Beta virt. eigenvalues --   96.48548  96.58700
          Condensed to atoms (all electrons):
               1          2          3          4          5          6
     1  Na  13.539449   0.586686  -2.033453   1.335545  -3.552942   0.478216
     2  Na   0.586686  12.459644  -0.694811   0.164686  -2.386530   0.458187
     3  Na  -2.033453  -0.694811  12.609887  -1.199301   2.780493  -0.186056
     4  Na   1.335545   0.164686  -1.199301  11.705250  -1.928298  -0.019313
     5  Na  -3.552942  -2.386530   2.780493  -1.928298  19.165757  -1.040167
     6  Na   0.478216   0.458187  -0.186056  -0.019313  -1.040167  10.972335
     7  Na   0.002110  -0.338670   0.056390  -0.073427   0.429744   0.091440
               7
     1  Na   0.002110
     2  Na  -0.338670
     3  Na   0.056390
     4  Na  -0.073427
     5  Na   0.429744
     6  Na   0.091440
     7  Na  10.686619
          Atomic-Atomic Spin Densities.
               1          2          3          4          5          6
     1  Na  -0.289638  -0.058094   0.574204  -0.235782   0.368305   0.084922
     2  Na  -0.058094   0.175050  -0.028428   0.030149  -0.374371   0.216573
     3  Na   0.574204  -0.028428  -0.252001   0.014105  -0.249689  -0.075606
     4  Na  -0.235782   0.030149   0.014105   0.424416  -0.061658  -0.043328
     5  Na   0.368305  -0.374371  -0.249689  -0.061658   1.004552  -0.321307
     6  Na   0.084922   0.216573  -0.075606  -0.043328  -0.321307   0.132113
     7  Na  -0.015193  -0.047106   0.036110  -0.067913   0.060376   0.017486
               7
     1  Na  -0.015193
     2  Na  -0.047106
     3  Na   0.036110
     4  Na  -0.067913
     5  Na   0.060376
     6  Na   0.017486
     7  Na   0.158001
 Mulliken charges and spin densities:
               1          2
     1  Na   0.644389   0.428723
     2  Na   0.750807  -0.086227
     3  Na  -0.333150   0.018695
     4  Na   1.014857   0.059988
     5  Na  -2.468057   0.426208
     6  Na   0.245358   0.010854
     7  Na   0.145795   0.141760
 Sum of Mulliken charges =  -0.00000   1.00000
 Mulliken charges and spin densities with hydrogens summed into heavy atoms:
               1          2
     1  Na   0.644389   0.428723
     2  Na   0.750807  -0.086227
     3  Na  -0.333150   0.018695
     4  Na   1.014857   0.059988
     5  Na  -2.468057   0.426208
     6  Na   0.245358   0.010854
     7  Na   0.145795   0.141760
 Electronic spatial extent (au):  <R**2>=           3184.8895
 Charge=             -0.0000 electrons
 Dipole moment (field-independent basis, Debye):
    X=              0.6066    Y=             -0.0012    Z=              0.5627  Tot=              0.8274
 Quadrupole moment (field-independent basis, Debye-Ang):
   XX=            -58.6991   YY=            -67.5860   ZZ=            -68.6002
   XY=             -6.3345   XZ=             -1.9713   YZ=              0.8225
 Traceless Quadrupole moment (field-independent basis, Debye-Ang):
   XX=              6.2627   YY=             -2.6242   ZZ=             -3.6384
   XY=             -6.3345   XZ=             -1.9713   YZ=              0.8225
 Octapole moment (field-independent basis, Debye-Ang**2):
  XXX=             66.7500  YYY=              6.3190  ZZZ=              4.7110  XYY=             -1.1612
  XXY=            -33.4399  XXZ=             13.5603  XZZ=            -10.9714  YZZ=              3.9001
  YYZ=             12.5179  XYZ=            -13.1518
 Hexadecapole moment (field-independent basis, Debye-Ang**3):
 XXXX=          -2940.8406 YYYY=          -1357.6968 ZZZZ=           -655.5492 XXXY=           -234.0506
 XXXZ=              8.8381 YYYX=            -50.1305 YYYZ=             37.5440 ZZZX=            -21.9585
 ZZZY=             -7.2333 XXYY=           -704.0760 XXZZ=           -701.1501 YYZZ=           -309.1601
 XXYZ=             35.8073 YYXZ=            -24.6604 ZZXY=            -15.8772
 N-N= 3.195110128237D+02 E-N=-3.368268077844D+03  KE= 1.133106053496D+03
                          Isotropic Fermi Contact Couplings
        Atom                 a.u.       MegaHertz       Gauss      10(-4) cm-1
     1  Na(23)             0.24994     295.69061     105.50976      98.63177
     2  Na(23)            -0.02474     -29.26790     -10.44351      -9.76272
     3  Na(23)             0.08857     104.77578      37.38660      34.94944
     4  Na(23)             0.20791     245.96462      87.76629      82.04496
     5  Na(23)             0.17637     208.64710      74.45047      69.59718
     6  Na(23)            -0.05129     -60.68131     -21.65260     -20.24110
     7  Na(23)             0.13356     158.00768      56.38107      52.70569
 --------------------------------------------------------
       Center         ----  Spin Dipole Couplings  ----
                      3XX-RR        3YY-RR        3ZZ-RR
 --------------------------------------------------------
     1   Atom        0.009403      0.001956     -0.011360
     2   Atom        0.003140     -0.011034      0.007895
     3   Atom       -0.015792      0.013196      0.002596
     4   Atom        0.003134      0.007947     -0.011081
     5   Atom       -0.030588      0.010323      0.020265
     6   Atom        0.018285     -0.011580     -0.006705
     7   Atom       -0.003198      0.001499      0.001700
 --------------------------------------------------------
                        XY            XZ            YZ
 --------------------------------------------------------
     1   Atom        0.016237      0.011969      0.010034
     2   Atom       -0.004790      0.016857     -0.005049
     3   Atom       -0.008206      0.004501     -0.025417
     4   Atom        0.015961      0.001737      0.007720
     5   Atom       -0.001969      0.007256     -0.024848
     6   Atom       -0.005335     -0.012619      0.001430
     7   Atom        0.002503     -0.000180     -0.001759
 --------------------------------------------------------


 ---------------------------------------------------------------------------------
              Anisotropic Spin Dipole Couplings in Principal Axis System
 ---------------------------------------------------------------------------------

       Atom             a.u.   MegaHertz   Gauss  10(-4) cm-1        Axes

              Baa    -0.0175    -2.471    -0.882    -0.824 -0.2503 -0.2705  0.9296
     1 Na(23) Bbb    -0.0110    -1.547    -0.552    -0.516 -0.6406  0.7662  0.0505
              Bcc     0.0285     4.019     1.434     1.341  0.7259  0.5829  0.3651
 
              Baa    -0.0125    -1.766    -0.630    -0.589  0.3384  0.9398 -0.0470
     2 Na(23) Bbb    -0.0114    -1.612    -0.575    -0.538  0.6856 -0.2805 -0.6718
              Bcc     0.0239     3.378     1.205     1.127  0.6445 -0.1951  0.7393
 
              Baa    -0.0194    -2.746    -0.980    -0.916  0.6289  0.5699  0.5288
     3 Na(23) Bbb    -0.0161    -2.269    -0.810    -0.757  0.7571 -0.2943 -0.5833
              Bcc     0.0355     5.015     1.789     1.673 -0.1768  0.7672 -0.6166
 
              Baa    -0.0153    -2.164    -0.772    -0.722  0.3681 -0.5103  0.7773
     4 Na(23) Bbb    -0.0078    -1.101    -0.393    -0.367  0.6914 -0.4088 -0.5957
              Bcc     0.0231     3.266     1.165     1.089  0.6217  0.7567  0.2023
 
              Baa    -0.0317    -4.473    -1.596    -1.492  0.9857 -0.0492 -0.1612
     5 Na(23) Bbb    -0.0096    -1.358    -0.484    -0.453  0.1391  0.7777  0.6130
              Bcc     0.0413     5.831     2.081     1.945  0.0952 -0.6267  0.7735
 
              Baa    -0.0129    -1.829    -0.653    -0.610  0.3389  0.7952  0.5028
     6 Na(23) Bbb    -0.0114    -1.614    -0.576    -0.539  0.2247 -0.5874  0.7775
              Bcc     0.0244     3.443     1.229     1.149  0.9136 -0.1506 -0.3778
 
              Baa    -0.0043    -0.612    -0.218    -0.204  0.9042 -0.4165 -0.0944
     7 Na(23) Bbb     0.0004     0.062     0.022     0.021  0.3257  0.5294  0.7834
              Bcc     0.0039     0.550     0.196     0.184  0.2763  0.7391 -0.6144
 

 ---------------------------------------------------------------------------------

 No NMR shielding tensors so no spin-rotation constants.
 Leave Link  601 at Mon Nov 13 12:29:43 2023, MaxMem=  1879048192 cpu:               2.6 elap:               0.2
 (Enter /home/sekinelabo/g16/l701.exe)
 ... and contract with generalized density number  0.
 Compute integral first derivatives.
 Leave Link  701 at Mon Nov 13 12:29:43 2023, MaxMem=  1879048192 cpu:               1.7 elap:               0.1
 (Enter /home/sekinelabo/g16/l702.exe)
 L702 exits ... SP integral derivatives will be done elsewhere.
 Leave Link  702 at Mon Nov 13 12:29:43 2023, MaxMem=  1879048192 cpu:               0.5 elap:               0.0
 (Enter /home/sekinelabo/g16/l703.exe)
 Integral derivatives from FoFJK, PRISM(SPDF).
 Compute integral first derivatives, UseDBF=F ICtDFT=           0.
 Calling FoFJK, ICntrl=      2127 FMM=F ISym2X=0 I1Cent= 0 IOpClX= 1 NMat=1 NMatS=1 NMatT=0.
 FoFJK:  IHMeth= 1 ICntrl=    2127 DoSepK=F KAlg= 0 I1Cent=           0 FoldK=F
 IRaf=         0 NMat=       1 IRICut=       1 DoRegI=T DoRafI=F ISym2E= 0 IDoP0=0 IntGTp=1.
 FoFCou: FMM=F IPFlag=           0 FMFlag=      100000 FMFlg1=         800
         NFxFlg=           0 DoJE=F BraDBF=F KetDBF=F FulRan=T
         wScrn=  0.000000 ICntrl=      2127 IOpCl=  1 I1Cent=           0 NGrid=           0
         NMat0=    1 NMatS0=      1 NMatT0=    0 NMatD0=    1 NMtDS0=    0 NMtDT0=    0
 Symmetry not used in FoFCou.
 Leave Link  703 at Mon Nov 13 12:29:45 2023, MaxMem=  1879048192 cpu:              32.7 elap:               2.1
 (Enter /home/sekinelabo/g16/l716.exe)
 Dipole        = 2.38640754D-01-4.71856437D-04 2.21371735D-01
 ***** Axes restored to original set *****
 -------------------------------------------------------------------
 Center     Atomic                   Forces (Hartrees/Bohr)
 Number     Number              X              Y              Z
 -------------------------------------------------------------------
      1       11          -0.003744969    0.003123337   -0.009148413
      2       11          -0.001916539    0.008437299    0.003968539
      3       11          -0.004677117   -0.006021553   -0.002895086
      4       11           0.000990000   -0.006305085    0.005004856
      5       11           0.004994143   -0.001397170    0.005216192
      6       11           0.003254855    0.003853981   -0.002469155
      7       11           0.001099626   -0.001690809    0.000323068
 -------------------------------------------------------------------
 Cartesian Forces:  Max     0.009148413 RMS     0.004473208
 Z-matrix is all fixed cartesians, so copy forces.
 Force constants in Cartesian coordinates: 
                1             2             3             4             5 
      1  0.428848D-01
      2  0.594645D-02  0.706708D-01
      3  0.179417D-01 -0.442668D-02  0.839051D-01
      4 -0.534010D-02 -0.542183D-02 -0.581693D-02  0.335527D-01
      5  0.380265D-02 -0.198620D-01 -0.476181D-02 -0.125857D-01  0.508785D-01
      6  0.535060D-02 -0.229589D-01 -0.352365D-01 -0.316822D-02  0.182553D-01
      7 -0.111467D-01 -0.420963D-02 -0.717467D-02  0.414066D-03  0.565225D-03
      8 -0.135452D-01 -0.321470D-01 -0.104072D-02 -0.601485D-03 -0.128101D-02
      9  0.159122D-03  0.159121D-01 -0.210506D-01 -0.243836D-02 -0.576410D-02
     10  0.390144D-02  0.475249D-02 -0.560562D-04  0.437240D-02  0.469953D-02
     11  0.414389D-02 -0.112535D-02  0.597051D-02 -0.224184D-02 -0.251029D-02
     12  0.953392D-03  0.487023D-02 -0.251753D-02 -0.702392D-03 -0.112409D-02
     13 -0.281772D-01 -0.226569D-03 -0.711555D-02 -0.320431D-01  0.466660D-02
     14 -0.139850D-02 -0.180734D-01  0.533843D-02  0.158945D-01 -0.325628D-01
     15 -0.196534D-01  0.842561D-02 -0.300843D-01  0.120237D-01 -0.641991D-02
     16 -0.211993D-02 -0.865351D-03  0.221488D-02 -0.965495D-03 -0.115264D-02
     17  0.105491D-02  0.491197D-03 -0.109207D-02  0.493860D-02  0.532955D-02
     18 -0.474368D-02 -0.190605D-02  0.496120D-02  0.696510D-04 -0.200138D-03
     19 -0.226530D-05  0.244307D-04  0.658808D-05  0.950198D-05  0.432310D-05
     20 -0.424277D-05  0.457571D-04  0.123390D-04  0.177966D-04  0.809688D-05
     21 -0.775522D-05  0.836379D-04  0.225541D-04  0.325298D-04  0.148000D-04
                6             7             8             9            10 
      6  0.391479D-01
      7 -0.393723D-03  0.311817D-01
      8  0.951912D-03  0.173947D-01  0.450391D-01
      9  0.439571D-02  0.223474D-01 -0.421868D-02  0.372369D-01
     10 -0.186294D-02 -0.167694D-01  0.869726D-03 -0.197935D-01  0.381028D-01
     11  0.148748D-02 -0.836610D-02 -0.127938D-01 -0.104593D-02  0.524482D-02
     12  0.197447D-02 -0.133402D-01  0.958404D-02 -0.233393D-01  0.164628D-01
     13 -0.103546D-02 -0.366312D-02 -0.413082D-02 -0.287818D-03 -0.312766D-01
     14  0.481962D-02 -0.532983D-02  0.115114D-02 -0.494612D-02 -0.920913D-02
     15 -0.117628D-01 -0.137050D-02 -0.532483D-02  0.269321D-02  0.427886D-02
     16  0.108395D-02 -0.165272D-04  0.130658D-04  0.131572D-04  0.167964D-02
     17 -0.260369D-02 -0.543540D-04  0.315519D-04  0.626980D-04 -0.633822D-02
     18  0.139290D-02 -0.682856D-04  0.482724D-04  0.640798D-04  0.100600D-02
     19  0.257900D-04  0.000000D+00  0.000000D+00  0.000000D+00 -0.102553D-04
     20  0.483030D-04  0.000000D+00  0.000000D+00  0.000000D+00 -0.192075D-04
     21  0.882915D-04  0.000000D+00  0.000000D+00  0.000000D+00 -0.351087D-04
               11            12            13            14            15 
     11  0.452912D-01
     12 -0.177208D-01  0.395464D-01
     13  0.195654D-02 -0.345741D-02  0.127748D+00
     14 -0.324715D-01  0.222286D-02 -0.261446D-02  0.113927D+00
     15  0.113364D-01 -0.169570D-01  0.308121D-03 -0.166480D-01  0.779977D-01
     16 -0.733105D-03  0.111497D-03 -0.310760D-01 -0.138200D-02  0.615207D-02
     17  0.361765D-02  0.221941D-02  0.188018D-02 -0.360859D-01  0.103800D-01
     18 -0.132709D-04  0.138746D-02  0.102331D-01  0.127119D-01 -0.235059D-01
     19 -0.420448D-05 -0.276038D-04 -0.151192D-02  0.403946D-02 -0.173886D-02
     20 -0.787472D-05 -0.517001D-04 -0.153148D-02  0.411588D-02 -0.174926D-02
     21 -0.143940D-04 -0.945009D-04  0.135498D-02 -0.349872D-02  0.161909D-02
               16            17            18            19            20 
     16  0.553386D-01
     17 -0.125668D-01  0.489506D-01
     18 -0.696038D-02 -0.177171D-01  0.202143D-01
     19 -0.228403D-01  0.110857D-01  0.463539D-03  0.243552D-01
     20  0.166869D-01 -0.223347D-01  0.707639D-02 -0.151497D-01  0.181728D-01
     21 -0.261519D-02  0.875075D-02 -0.451401D-02  0.127055D-02 -0.533608D-02
               21 
     21  0.287857D-02
 Leave Link  716 at Mon Nov 13 12:29:45 2023, MaxMem=  1879048192 cpu:               0.5 elap:               0.0
 (Enter /home/sekinelabo/g16/l103.exe)

 GradGradGradGradGradGradGradGradGradGradGradGradGradGradGradGradGradGrad
 Berny optimization.
 Search for a local minimum.
 Step number   1 out of a maximum of    2
 All quantities printed in internal units (Hartrees-Bohrs-Radians)
 Second derivative matrix not updated -- first step.
 ITU=  0
     Eigenvalues ---    0.00078   0.00584   0.00983   0.02033   0.02806
     Eigenvalues ---    0.03625   0.04683   0.06726   0.08234   0.08404
     Eigenvalues ---    0.08814   0.11600   0.12875   0.16002   0.17253
 Quadratic step=5.663D-01 exceeds max=3.000D-01 adjusted using Lamda=-1.066D-02.
 Angle between NR and scaled steps=  40.40 degrees.
 Angle between quadratic step and forces=  28.26 degrees.
 Linear search not attempted -- first point.
 B after Tr=     0.000000   -0.000000    0.000000
         Rot=    1.000000   -0.000000    0.000000   -0.000000 Ang=   0.00 deg.
 Variable       Old X    -DE/DX   Delta X   Delta X   Delta X     New X
                                 (Linear)    (Quad)   (Total)
    X1        1.70723  -0.00374   0.00000  -0.06975  -0.06975   1.63749
    Y1        5.57725   0.00312   0.00000   0.03604   0.03604   5.61328
    Z1        0.00000  -0.00915   0.00000  -0.06262  -0.06262  -0.06262
    X2        1.97832  -0.00192   0.00000  -0.03008  -0.03008   1.94824
    Y2        8.96064   0.00844   0.00000   0.13990   0.13990   9.10054
    Z2        4.53954   0.00397   0.00000   0.02247   0.02247   4.56201
    X3        0.00000  -0.00468   0.00000  -0.07110  -0.07110  -0.07110
    Y3        0.26250  -0.00602   0.00000  -0.11374  -0.11374   0.14876
    Z3        1.01204  -0.00290   0.00000  -0.04398  -0.04398   0.96806
    X4        3.63274   0.00099   0.00000  -0.01416  -0.01416   3.61858
    Y4        0.00000  -0.00631   0.00000  -0.11216  -0.11216  -0.11216
    Z4        5.36322   0.00500   0.00000   0.05675   0.05675   5.41998
    X5        5.89921   0.00499   0.00000   0.02401   0.02401   5.92322
    Y5        4.95006  -0.00140   0.00000   0.02530   0.02530   4.97536
    Z5        3.76722   0.00522   0.00000   0.04644   0.04644   3.81366
    X6       11.06826   0.00325   0.00000   0.10011   0.10011  11.16836
    Y6        5.98992   0.00385   0.00000   0.06344   0.06344   6.05337
    Z6        1.68844  -0.00247   0.00000   0.00066   0.00066   1.68911
    X7       15.37157   0.00110   0.00000   0.06097   0.06097  15.43254
    Y7        2.37781  -0.00169   0.00000  -0.03877  -0.03877   2.33904
    Z7        2.40758   0.00032   0.00000  -0.01972  -0.01972   2.38786
         Item               Value     Threshold  Converged?
 Maximum Force            0.009148     0.000450     NO 
 RMS     Force            0.004473     0.000300     NO 
 Maximum Displacement     0.139898     0.001800     NO 
 RMS     Displacement     0.065473     0.001200     NO 
 Predicted change in Energy=-3.188485D-03
 GradGradGradGradGradGradGradGradGradGradGradGradGradGradGradGradGradGrad

 Leave Link  103 at Mon Nov 13 12:29:45 2023, MaxMem=  1879048192 cpu:               0.3 elap:               0.0
 (Enter /home/sekinelabo/g16/l9999.exe)
 1\1\GINC-SEKINELABO-XA7R-R37\Force\UB3LYP\6-311+G(d)\Na7(2)\SEKINELABO
 \13-Nov-2023\0\\#P B3LYP/6-311+g(d) force\\Gaussian input prepared by 
 ASE\\0,2\Na,0.9034284764,2.9513525762,0.\Na,1.0468830168,4.7417654961,
 2.4022205057\Na,0.,0.1389074107,0.5355490856\Na,1.9223638898,0.,2.8380
 954142\Na,3.1217274642,2.6194584426,1.9935274535\Na,5.8570698401,3.169
 7317455,0.8934860723\Na,8.1342862001,1.2582840038,1.2740356727\\Versio
 n=ES64L-G16RevB.01\State=2-A\HF=-1136.0993988\S2=0.770997\S2-1=0.\S2A=
 0.750252\RMSD=8.014e-09\RMSF=4.473e-03\Dipole=0.2386408,-0.0004719,0.2
 213717\Quadrupole=4.656127,-1.9510426,-2.7050844,-4.7095171,-1.4656479
 ,0.6114735\PG=C01 [X(Na7)]\\@


 SIGN SEEN IN A RESTAURANT-
 WE RESERVE THE RIGHT TO SERVE REFUSE TO ANYONE.
 Job cpu time:       0 days  0 hours  4 minutes 17.5 seconds.
 Elapsed time:       0 days  0 hours  0 minutes 21.0 seconds.
 File lengths (MBytes):  RWF=     32 Int=      0 D2E=      0 Chk=      5 Scr=      1
 Normal termination of Gaussian 16 at Mon Nov 13 12:29:45 2023.
