 Entering Gaussian System, Link 0=g16
 Initial command:
 /home/sekinelabo/g16/l1.exe "/home/sekinelabo/g16temp/Gau-3977286.inp" -scrdir="/home/sekinelabo/g16temp/"
 Entering Link 1 = /home/sekinelabo/g16/l1.exe PID=   3977288.
  
 Copyright (c) 1988-2017, Gaussian, Inc.  All Rights Reserved.
  
 This is part of the Gaussian(R) 16 program.  It is based on
 the Gaussian(R) 09 system (copyright 2009, Gaussian, Inc.),
 the Gaussian(R) 03 system (copyright 2003, Gaussian, Inc.),
 the Gaussian(R) 98 system (copyright 1998, Gaussian, Inc.),
 the Gaussian(R) 94 system (copyright 1995, Gaussian, Inc.),
 the Gaussian 92(TM) system (copyright 1992, Gaussian, Inc.),
 the Gaussian 90(TM) system (copyright 1990, Gaussian, Inc.),
 the Gaussian 88(TM) system (copyright 1988, Gaussian, Inc.),
 the Gaussian 86(TM) system (copyright 1986, Carnegie Mellon
 University), and the Gaussian 82(TM) system (copyright 1983,
 Carnegie Mellon University). Gaussian is a federally registered
 trademark of Gaussian, Inc.
  
 This software contains proprietary and confidential information,
 including trade secrets, belonging to Gaussian, Inc.
  
 This software is provided under written license and may be
 used, copied, transmitted, or stored only in accord with that
 written license.
  
 The following legend is applicable only to US Government
 contracts under FAR:
  
                    RESTRICTED RIGHTS LEGEND
  
 Use, reproduction and disclosure by the US Government is
 subject to restrictions as set forth in subparagraphs (a)
 and (c) of the Commercial Computer Software - Restricted
 Rights clause in FAR 52.227-19.
  
 Gaussian, Inc.
 340 Quinnipiac St., Bldg. 40, Wallingford CT 06492
  
  
 ---------------------------------------------------------------
 Warning -- This program may not be used in any manner that
 competes with the business of Gaussian, Inc. or will provide
 assistance to any competitor of Gaussian, Inc.  The licensee
 of this program is prohibited from giving any competitor of
 Gaussian, Inc. access to this program.  By using this program,
 the user acknowledges that Gaussian, Inc. is engaged in the
 business of creating and licensing software in the field of
 computational chemistry and represents and warrants to the
 licensee that it is not a competitor of Gaussian, Inc. and that
 it will not use this program in any manner prohibited above.
 ---------------------------------------------------------------
  

 Cite this work as:
 Gaussian 16, Revision B.01,
 M. J. Frisch, G. W. Trucks, H. B. Schlegel, G. E. Scuseria, 
 M. A. Robb, J. R. Cheeseman, G. Scalmani, V. Barone, 
 G. A. Petersson, H. Nakatsuji, X. Li, M. Caricato, A. V. Marenich, 
 J. Bloino, B. G. Janesko, R. Gomperts, B. Mennucci, H. P. Hratchian, 
 J. V. Ortiz, A. F. Izmaylov, J. L. Sonnenberg, D. Williams-Young, 
 F. Ding, F. Lipparini, F. Egidi, J. Goings, B. Peng, A. Petrone, 
 T. Henderson, D. Ranasinghe, V. G. Zakrzewski, J. Gao, N. Rega, 
 G. Zheng, W. Liang, M. Hada, M. Ehara, K. Toyota, R. Fukuda, 
 J. Hasegawa, M. Ishida, T. Nakajima, Y. Honda, O. Kitao, H. Nakai, 
 T. Vreven, K. Throssell, J. A. Montgomery, Jr., J. E. Peralta, 
 F. Ogliaro, M. J. Bearpark, J. J. Heyd, E. N. Brothers, K. N. Kudin, 
 V. N. Staroverov, T. A. Keith, R. Kobayashi, J. Normand, 
 K. Raghavachari, A. P. Rendell, J. C. Burant, S. S. Iyengar, 
 J. Tomasi, M. Cossi, J. M. Millam, M. Klene, C. Adamo, R. Cammi, 
 J. W. Ochterski, R. L. Martin, K. Morokuma, O. Farkas, 
 J. B. Foresman, and D. J. Fox, Gaussian, Inc., Wallingford CT, 2016.
 
 ******************************************
 Gaussian 16:  ES64L-G16RevB.01 20-Dec-2017
                13-Nov-2023 
 ******************************************
 %mem=14GB
 %chk=checkpoint.chk
 %nprocshared=16
 Will use up to   16 processors via shared memory.
 -------------------------
 #P B3LYP/6-311+g(d) force
 -------------------------
 1/10=7,30=1,38=1/1,3;
 2/12=2,17=6,18=5,40=1/2;
 3/5=4,6=6,7=11,11=2,25=1,30=1,71=1,74=-5/1,2,3;
 4//1;
 5/5=2,38=5/2;
 6/7=2,8=2,9=2,10=2,28=1/1;
 7/29=1/1,2,3,16;
 1/10=7,30=1/3;
 99//99;
 Leave Link    1 at Mon Nov 13 12:12:42 2023, MaxMem=  1879048192 cpu:               0.3 elap:               0.0
 (Enter /home/sekinelabo/g16/l101.exe)
 ------------------------------
 Gaussian input prepared by ASE
 ------------------------------
 Symbolic Z-matrix:
 Charge =  0 Multiplicity = 2
 Na                    2.91388   0.51437   2.78594 
 Na                    5.63678   0.43217   4.04163 
 Na                    4.02707   0.33484   0. 
 Na                    5.03776   2.43171   1.88913 
 Na                    3.06365   4.68904   2.05184 
 Na                    0.93904   2.76877   2.95086 
 Na                    0.        0.        2.30028 
 
 ITRead=  0  0  0  0  0  0  0
 MicOpt= -1 -1 -1 -1 -1 -1 -1
 NAtoms=      7 NQM=        7 NQMF=       0 NMMI=      0 NMMIF=      0
                NMic=       0 NMicF=      0.
                    Isotopes and Nuclear Properties:
 (Nuclear quadrupole moments (NQMom) in fm**2, nuclear magnetic moments (NMagM)
  in nuclear magnetons)

  Atom         1           2           3           4           5           6           7
 IAtWgt=          23          23          23          23          23          23          23
 AtmWgt=  22.9897697  22.9897697  22.9897697  22.9897697  22.9897697  22.9897697  22.9897697
 NucSpn=           3           3           3           3           3           3           3
 AtZEff=  -0.0000000  -0.0000000  -0.0000000  -0.0000000  -0.0000000  -0.0000000  -0.0000000
 NQMom=   10.4000000  10.4000000  10.4000000  10.4000000  10.4000000  10.4000000  10.4000000
 NMagM=    2.2175200   2.2175200   2.2175200   2.2175200   2.2175200   2.2175200   2.2175200
 AtZNuc=  11.0000000  11.0000000  11.0000000  11.0000000  11.0000000  11.0000000  11.0000000
 Leave Link  101 at Mon Nov 13 12:12:42 2023, MaxMem=  1879048192 cpu:               2.7 elap:               0.2
 (Enter /home/sekinelabo/g16/l103.exe)

 GradGradGradGradGradGradGradGradGradGradGradGradGradGradGradGradGradGrad
 Berny optimization.
 Initialization pass.
 Trust Radius=3.00D-01 FncErr=1.00D-07 GrdErr=1.00D-07 EigMax=2.50D+02 EigMin=1.00D-04
 Number of steps in this run=      2 maximum allowed number of steps=      2.
 GradGradGradGradGradGradGradGradGradGradGradGradGradGradGradGradGradGrad

 Leave Link  103 at Mon Nov 13 12:12:42 2023, MaxMem=  1879048192 cpu:               0.2 elap:               0.0
 (Enter /home/sekinelabo/g16/l202.exe)
                          Input orientation:                          
 ---------------------------------------------------------------------
 Center     Atomic      Atomic             Coordinates (Angstroms)
 Number     Number       Type             X           Y           Z
 ---------------------------------------------------------------------
      1         11           0        2.913877    0.514368    2.785937
      2         11           0        5.636785    0.432168    4.041627
      3         11           0        4.027072    0.334844    0.000000
      4         11           0        5.037759    2.431714    1.889132
      5         11           0        3.063654    4.689045    2.051836
      6         11           0        0.939035    2.768774    2.950858
      7         11           0        0.000000    0.000000    2.300276
 ---------------------------------------------------------------------
                    Distance matrix (angstroms):
                    1          2          3          4          5
     1  Na   0.000000
     2  Na   2.999623   0.000000
     3  Na   3.005475   4.351482   0.000000
     4  Na   2.998558   2.998374   2.997861   0.000000
     5  Na   4.241375   5.357356   4.908897   3.003183   0.000000
     6  Na   3.001590   5.358951   4.916051   4.247401   3.001614
     7  Na   2.998519   5.915439   4.649807   5.609036   5.606678
                    6          7
     6  Na   0.000000
     7  Na   2.995188   0.000000
 Stoichiometry    Na7(2)
 Framework group  C1[X(Na7)]
 Deg. of freedom    15
 Full point group                 C1      NOp   1
 Largest Abelian subgroup         C1      NOp   1
 Largest concise Abelian subgroup C1      NOp   1
                         Standard orientation:                         
 ---------------------------------------------------------------------
 Center     Atomic      Atomic             Coordinates (Angstroms)
 Number     Number       Type             X           Y           Z
 ---------------------------------------------------------------------
      1         11           0        0.174435   -1.081477   -0.497413
      2         11           0       -2.548473   -1.163676   -1.753103
      3         11           0       -0.938760   -1.261001    2.288524
      4         11           0       -1.949447    0.835869    0.399392
      5         11           0        0.024658    3.093200    0.236687
      6         11           0        2.149277    1.172929   -0.662335
      7         11           0        3.088312   -1.595845   -0.011753
 ---------------------------------------------------------------------
 Rotational constants (GHZ):           0.7989265           0.6357645           0.5034147
 Leave Link  202 at Mon Nov 13 12:12:42 2023, MaxMem=  1879048192 cpu:               0.1 elap:               0.0
 (Enter /home/sekinelabo/g16/l301.exe)
 Standard basis: 6-311+G(d) (5D, 7F)
 Ernie: Thresh=  0.10000D-02 Tol=  0.10000D-05 Strict=F.
 There are   217 symmetry adapted cartesian basis functions of A   symmetry.
 There are   210 symmetry adapted basis functions of A   symmetry.
   210 basis functions,   350 primitive gaussians,   217 cartesian basis functions
    39 alpha electrons       38 beta electrons
       nuclear repulsion energy       355.7210972494 Hartrees.
 IExCor=  402 DFT=T Ex+Corr=B3LYP ExCW=0 ScaHFX=  0.200000
 ScaDFX=  0.800000  0.720000  1.000000  0.810000 ScalE2=  1.000000  1.000000
 IRadAn=      5 IRanWt=     -1 IRanGd=            0 ICorTp=0 IEmpDi=  4
 NAtoms=    7 NActive=    7 NUniq=    7 SFac= 1.00D+00 NAtFMM=   60 NAOKFM=F Big=F
 Integral buffers will be    131072 words long.
 Raffenetti 2 integral format.
 Two-electron integral symmetry is turned on.
 Leave Link  301 at Mon Nov 13 12:12:42 2023, MaxMem=  1879048192 cpu:               0.5 elap:               0.0
 (Enter /home/sekinelabo/g16/l302.exe)
 NPDir=0 NMtPBC=     1 NCelOv=     1 NCel=       1 NClECP=     1 NCelD=      1
         NCelK=      1 NCelE2=     1 NClLst=     1 CellRange=     0.0.
 One-electron integrals computed using PRISM.
 One-electron integral symmetry used in STVInt
 NBasis=   210 RedAO= T EigKep=  1.64D-06  NBF=   210
 NBsUse=   209 1.00D-06 EigRej=  8.93D-07 NBFU=   209
 Precomputing XC quadrature grid using
 IXCGrd= 4 IRadAn=           5 IRanWt=          -1 IRanGd=           0 AccXCQ= 0.00D+00.
 Generated NRdTot=       0 NPtTot=           0 NUsed=           0 NTot=          32
 NSgBfM=   210   210   210   210   210 MxSgAt=     7 MxSgA2=     7.
 Leave Link  302 at Mon Nov 13 12:12:42 2023, MaxMem=  1879048192 cpu:               2.2 elap:               0.1
 (Enter /home/sekinelabo/g16/l303.exe)
 DipDrv:  MaxL=1.
 Leave Link  303 at Mon Nov 13 12:12:42 2023, MaxMem=  1879048192 cpu:               0.6 elap:               0.0
 (Enter /home/sekinelabo/g16/l401.exe)
 ExpMin= 7.60D-03 ExpMax= 3.62D+04 ExpMxC= 1.21D+03 IAcc=3 IRadAn=         5 AccDes= 0.00D+00
 Harris functional with IExCor=  402 and IRadAn=       5 diagonalized for initial guess.
 HarFok:  IExCor=  402 AccDes= 0.00D+00 IRadAn=         5 IDoV= 1 UseB2=F ITyADJ=14
 ICtDFT=  3500011 ScaDFX=  1.000000  1.000000  1.000000  1.000000
 FoFCou: FMM=F IPFlag=           0 FMFlag=      100000 FMFlg1=           0
         NFxFlg=           0 DoJE=T BraDBF=F KetDBF=T FulRan=T
         wScrn=  0.000000 ICntrl=       500 IOpCl=  0 I1Cent=   200000004 NGrid=           0
         NMat0=    1 NMatS0=      1 NMatT0=    0 NMatD0=    1 NMtDS0=    0 NMtDT0=    0
 Petite list used in FoFCou.
 Harris En= -1135.87792083920    
 JPrj=0 DoOrth=F DoCkMO=F.
 Initial guess <Sx>= 0.0000 <Sy>= 0.0000 <Sz>= 0.5000 <S**2>= 0.7500 S= 0.5000
 Leave Link  401 at Mon Nov 13 12:12:43 2023, MaxMem=  1879048192 cpu:               5.6 elap:               0.4
 (Enter /home/sekinelabo/g16/l502.exe)
 Keep R1 and R2 ints in memory in canonical form, NReq=507620374.
 FoFCou: FMM=F IPFlag=           0 FMFlag=           0 FMFlg1=           0
         NFxFlg=           0 DoJE=F BraDBF=F KetDBF=F FulRan=T
         wScrn=  0.000000 ICntrl=       600 IOpCl=  0 I1Cent=           0 NGrid=           0
         NMat0=    1 NMatS0=  22155 NMatT0=    0 NMatD0=    1 NMtDS0=    0 NMtDT0=    0
 Symmetry not used in FoFCou.
 Two-electron integral symmetry not used.
 UHF open shell SCF:
 Using DIIS extrapolation, IDIIS=  1040.
 NGot=  1879048192 LenX=  1388082362 LenY=  1388034832
 Requested convergence on RMS density matrix=1.00D-08 within 128 cycles.
 Requested convergence on MAX density matrix=1.00D-06.
 Requested convergence on             energy=1.00D-06.
 No special actions if energy rises.

 Cycle   1  Pass 1  IDiag  1:
 E= -1136.06905050664    
 DIIS: error= 1.10D-02 at cycle   1 NSaved=   1.
 NSaved= 1 IEnMin= 1 EnMin= -1136.06905050664     IErMin= 1 ErrMin= 1.10D-02
 ErrMax= 1.10D-02  0.00D+00 EMaxC= 1.00D-01 BMatC= 1.96D-01 BMatP= 1.96D-01
 IDIUse=3 WtCom= 8.90D-01 WtEn= 1.10D-01
 Coeff-Com:  0.100D+01
 Coeff-En:   0.100D+01
 Coeff:      0.100D+01
 Gap=     0.056 Goal=   None    Shift=    0.000
 Gap=     0.041 Goal=   None    Shift=    0.000
 GapD=    0.041 DampG=0.250 DampE=0.500 DampFc=0.2500 IDamp=-1.
 Damping current iteration by 2.50D-01
 RMSDP=7.04D-02 MaxDP=7.32D+00              OVMax= 2.32D-01

 Cycle   2  Pass 1  IDiag  1:
 E= -1136.08239770542     Delta-E=       -0.013347198780 Rises=F Damp=T
 DIIS: error= 7.18D-03 at cycle   2 NSaved=   2.
 NSaved= 2 IEnMin= 2 EnMin= -1136.08239770542     IErMin= 2 ErrMin= 7.18D-03
 ErrMax= 7.18D-03  0.00D+00 EMaxC= 1.00D-01 BMatC= 7.43D-02 BMatP= 1.96D-01
 IDIUse=3 WtCom= 9.28D-01 WtEn= 7.18D-02
 Coeff-Com: -0.127D+01 0.227D+01
 Coeff-En:   0.000D+00 0.100D+01
 Coeff:     -0.117D+01 0.217D+01
 Gap=     0.063 Goal=   None    Shift=    0.000
 Gap=     0.045 Goal=   None    Shift=    0.000
 RMSDP=4.12D-02 MaxDP=4.12D+00 DE=-1.33D-02 OVMax= 1.59D-01

 Cycle   3  Pass 1  IDiag  1:
 E= -1136.10511023440     Delta-E=       -0.022712528983 Rises=F Damp=F
 DIIS: error= 3.29D-03 at cycle   3 NSaved=   3.
 NSaved= 3 IEnMin= 3 EnMin= -1136.10511023440     IErMin= 3 ErrMin= 3.29D-03
 ErrMax= 3.29D-03  0.00D+00 EMaxC= 1.00D-01 BMatC= 3.05D-03 BMatP= 7.43D-02
 IDIUse=3 WtCom= 9.67D-01 WtEn= 3.29D-02
 Coeff-Com: -0.231D+00 0.409D+00 0.821D+00
 Coeff-En:   0.000D+00 0.000D+00 0.100D+01
 Coeff:     -0.223D+00 0.396D+00 0.827D+00
 Gap=     0.060 Goal=   None    Shift=    0.000
 Gap=     0.045 Goal=   None    Shift=    0.000
 RMSDP=8.39D-03 MaxDP=8.49D-01 DE=-2.27D-02 OVMax= 5.93D-02

 Cycle   4  Pass 1  IDiag  1:
 E= -1136.10547953974     Delta-E=       -0.000369305332 Rises=F Damp=F
 DIIS: error= 3.04D-03 at cycle   4 NSaved=   4.
 NSaved= 4 IEnMin= 4 EnMin= -1136.10547953974     IErMin= 4 ErrMin= 3.04D-03
 ErrMax= 3.04D-03  0.00D+00 EMaxC= 1.00D-01 BMatC= 2.52D-03 BMatP= 3.05D-03
 IDIUse=3 WtCom= 9.70D-01 WtEn= 3.04D-02
 Coeff-Com: -0.853D-02 0.115D-01 0.475D+00 0.522D+00
 Coeff-En:   0.000D+00 0.000D+00 0.456D+00 0.544D+00
 Coeff:     -0.827D-02 0.112D-01 0.475D+00 0.522D+00
 Gap=     0.062 Goal=   None    Shift=    0.000
 Gap=     0.044 Goal=   None    Shift=    0.000
 RMSDP=2.72D-03 MaxDP=2.10D-01 DE=-3.69D-04 OVMax= 3.16D-02

 Cycle   5  Pass 1  IDiag  1:
 E= -1136.10713152535     Delta-E=       -0.001651985613 Rises=F Damp=F
 DIIS: error= 3.06D-04 at cycle   5 NSaved=   5.
 NSaved= 5 IEnMin= 5 EnMin= -1136.10713152535     IErMin= 5 ErrMin= 3.06D-04
 ErrMax= 3.06D-04  0.00D+00 EMaxC= 1.00D-01 BMatC= 1.75D-05 BMatP= 2.52D-03
 IDIUse=3 WtCom= 9.97D-01 WtEn= 3.06D-03
 Coeff-Com: -0.527D-02 0.650D-02 0.213D+00 0.241D+00 0.545D+00
 Coeff-En:   0.000D+00 0.000D+00 0.000D+00 0.000D+00 0.100D+01
 Coeff:     -0.526D-02 0.648D-02 0.213D+00 0.240D+00 0.546D+00
 Gap=     0.062 Goal=   None    Shift=    0.000
 Gap=     0.045 Goal=   None    Shift=    0.000
 RMSDP=3.05D-04 MaxDP=1.51D-02 DE=-1.65D-03 OVMax= 7.12D-03

 Cycle   6  Pass 1  IDiag  1:
 E= -1136.10714914334     Delta-E=       -0.000017617986 Rises=F Damp=F
 DIIS: error= 1.35D-04 at cycle   6 NSaved=   6.
 NSaved= 6 IEnMin= 6 EnMin= -1136.10714914334     IErMin= 6 ErrMin= 1.35D-04
 ErrMax= 1.35D-04  0.00D+00 EMaxC= 1.00D-01 BMatC= 3.77D-06 BMatP= 1.75D-05
 IDIUse=3 WtCom= 9.99D-01 WtEn= 1.35D-03
 Coeff-Com: -0.136D-02 0.154D-02-0.564D-01-0.593D-01 0.286D+00 0.829D+00
 Coeff-En:   0.000D+00 0.000D+00 0.000D+00 0.000D+00 0.113D+00 0.887D+00
 Coeff:     -0.136D-02 0.154D-02-0.563D-01-0.592D-01 0.286D+00 0.829D+00
 Gap=     0.062 Goal=   None    Shift=    0.000
 Gap=     0.045 Goal=   None    Shift=    0.000
 RMSDP=3.02D-04 MaxDP=3.11D-02 DE=-1.76D-05 OVMax= 3.44D-03

 Cycle   7  Pass 1  IDiag  1:
 E= -1136.10715544799     Delta-E=       -0.000006304657 Rises=F Damp=F
 DIIS: error= 2.83D-05 at cycle   7 NSaved=   7.
 NSaved= 7 IEnMin= 7 EnMin= -1136.10715544799     IErMin= 7 ErrMin= 2.83D-05
 ErrMax= 2.83D-05  0.00D+00 EMaxC= 1.00D-01 BMatC= 2.81D-07 BMatP= 3.77D-06
 IDIUse=1 WtCom= 1.00D+00 WtEn= 0.00D+00
 Coeff-Com:  0.431D-03-0.625D-03-0.290D-01-0.311D-01 0.202D-01 0.201D+00
 Coeff-Com:  0.839D+00
 Coeff:      0.431D-03-0.625D-03-0.290D-01-0.311D-01 0.202D-01 0.201D+00
 Coeff:      0.839D+00
 Gap=     0.062 Goal=   None    Shift=    0.000
 Gap=     0.045 Goal=   None    Shift=    0.000
 RMSDP=9.00D-05 MaxDP=6.71D-03 DE=-6.30D-06 OVMax= 1.56D-03

 Cycle   8  Pass 1  IDiag  1:
 E= -1136.10715597230     Delta-E=       -0.000000524304 Rises=F Damp=F
 DIIS: error= 2.68D-05 at cycle   8 NSaved=   8.
 NSaved= 8 IEnMin= 8 EnMin= -1136.10715597230     IErMin= 8 ErrMin= 2.68D-05
 ErrMax= 2.68D-05  0.00D+00 EMaxC= 1.00D-01 BMatC= 2.50D-07 BMatP= 2.81D-07
 IDIUse=1 WtCom= 1.00D+00 WtEn= 0.00D+00
 Coeff-Com:  0.970D-03-0.124D-02-0.368D-02-0.427D-02-0.820D-01-0.130D+00
 Coeff-Com:  0.608D+00 0.612D+00
 Coeff:      0.970D-03-0.124D-02-0.368D-02-0.427D-02-0.820D-01-0.130D+00
 Coeff:      0.608D+00 0.612D+00
 Gap=     0.062 Goal=   None    Shift=    0.000
 Gap=     0.045 Goal=   None    Shift=    0.000
 RMSDP=5.29D-05 MaxDP=6.38D-03 DE=-5.24D-07 OVMax= 9.65D-04

 Cycle   9  Pass 1  IDiag  1:
 E= -1136.10715641499     Delta-E=       -0.000000442693 Rises=F Damp=F
 DIIS: error= 8.88D-06 at cycle   9 NSaved=   9.
 NSaved= 9 IEnMin= 9 EnMin= -1136.10715641499     IErMin= 9 ErrMin= 8.88D-06
 ErrMax= 8.88D-06  0.00D+00 EMaxC= 1.00D-01 BMatC= 1.42D-08 BMatP= 2.50D-07
 IDIUse=1 WtCom= 1.00D+00 WtEn= 0.00D+00
 Coeff-Com:  0.180D-03-0.219D-03 0.256D-02 0.248D-02-0.914D-02-0.423D-01
 Coeff-Com: -0.592D-01 0.884D-01 0.102D+01
 Coeff:      0.180D-03-0.219D-03 0.256D-02 0.248D-02-0.914D-02-0.423D-01
 Coeff:     -0.592D-01 0.884D-01 0.102D+01
 Gap=     0.062 Goal=   None    Shift=    0.000
 Gap=     0.045 Goal=   None    Shift=    0.000
 RMSDP=1.80D-05 MaxDP=1.16D-03 DE=-4.43D-07 OVMax= 5.89D-04

 Cycle  10  Pass 1  IDiag  1:
 E= -1136.10715648617     Delta-E=       -0.000000071184 Rises=F Damp=F
 DIIS: error= 4.71D-06 at cycle  10 NSaved=  10.
 NSaved=10 IEnMin=10 EnMin= -1136.10715648617     IErMin=10 ErrMin= 4.71D-06
 ErrMax= 4.71D-06  0.00D+00 EMaxC= 1.00D-01 BMatC= 7.71D-09 BMatP= 1.42D-08
 IDIUse=1 WtCom= 1.00D+00 WtEn= 0.00D+00
 Coeff-Com: -0.108D-03 0.148D-03 0.281D-02 0.285D-02 0.860D-02-0.320D-02
 Coeff-Com: -0.139D+00-0.661D-01 0.543D+00 0.651D+00
 Coeff:     -0.108D-03 0.148D-03 0.281D-02 0.285D-02 0.860D-02-0.320D-02
 Coeff:     -0.139D+00-0.661D-01 0.543D+00 0.651D+00
 Gap=     0.062 Goal=   None    Shift=    0.000
 Gap=     0.045 Goal=   None    Shift=    0.000
 RMSDP=8.45D-06 MaxDP=7.53D-04 DE=-7.12D-08 OVMax= 2.46D-04

 Cycle  11  Pass 1  IDiag  1:
 E= -1136.10715650932     Delta-E=       -0.000000023150 Rises=F Damp=F
 DIIS: error= 2.45D-06 at cycle  11 NSaved=  11.
 NSaved=11 IEnMin=11 EnMin= -1136.10715650932     IErMin=11 ErrMin= 2.45D-06
 ErrMax= 2.45D-06  0.00D+00 EMaxC= 1.00D-01 BMatC= 1.63D-09 BMatP= 7.71D-09
 IDIUse=1 WtCom= 1.00D+00 WtEn= 0.00D+00
 Coeff-Com: -0.187D-03 0.242D-03-0.250D-04 0.428D-04 0.916D-02 0.214D-01
 Coeff-Com: -0.462D-01-0.765D-01-0.183D+00 0.171D+00 0.110D+01
 Coeff:     -0.187D-03 0.242D-03-0.250D-04 0.428D-04 0.916D-02 0.214D-01
 Coeff:     -0.462D-01-0.765D-01-0.183D+00 0.171D+00 0.110D+01
 Gap=     0.062 Goal=   None    Shift=    0.000
 Gap=     0.045 Goal=   None    Shift=    0.000
 RMSDP=9.34D-06 MaxDP=7.20D-04 DE=-2.31D-08 OVMax= 3.12D-04

 Cycle  12  Pass 1  IDiag  1:
 E= -1136.10715652235     Delta-E=       -0.000000013024 Rises=F Damp=F
 DIIS: error= 1.30D-06 at cycle  12 NSaved=  12.
 NSaved=12 IEnMin=12 EnMin= -1136.10715652235     IErMin=12 ErrMin= 1.30D-06
 ErrMax= 1.30D-06  0.00D+00 EMaxC= 1.00D-01 BMatC= 4.96D-10 BMatP= 1.63D-09
 IDIUse=1 WtCom= 1.00D+00 WtEn= 0.00D+00
 Coeff-Com: -0.541D-04 0.671D-04-0.647D-03-0.570D-03 0.247D-02 0.107D-01
 Coeff-Com:  0.791D-02-0.188D-01-0.189D+00-0.942D-01 0.427D+00 0.855D+00
 Coeff:     -0.541D-04 0.671D-04-0.647D-03-0.570D-03 0.247D-02 0.107D-01
 Coeff:      0.791D-02-0.188D-01-0.189D+00-0.942D-01 0.427D+00 0.855D+00
 Gap=     0.062 Goal=   None    Shift=    0.000
 Gap=     0.045 Goal=   None    Shift=    0.000
 RMSDP=5.21D-06 MaxDP=3.57D-04 DE=-1.30D-08 OVMax= 1.45D-04

 Cycle  13  Pass 1  IDiag  1:
 E= -1136.10715652526     Delta-E=       -0.000000002912 Rises=F Damp=F
 DIIS: error= 7.49D-07 at cycle  13 NSaved=  13.
 NSaved=13 IEnMin=13 EnMin= -1136.10715652526     IErMin=13 ErrMin= 7.49D-07
 ErrMax= 7.49D-07  0.00D+00 EMaxC= 1.00D-01 BMatC= 9.31D-11 BMatP= 4.96D-10
 IDIUse=1 WtCom= 1.00D+00 WtEn= 0.00D+00
 Coeff-Com:  0.562D-04-0.738D-04-0.750D-04-0.675D-04-0.281D-02-0.551D-02
 Coeff-Com:  0.208D-01 0.200D-01 0.193D-02-0.605D-01-0.241D+00 0.136D+00
 Coeff-Com:  0.113D+01
 Coeff:      0.562D-04-0.738D-04-0.750D-04-0.675D-04-0.281D-02-0.551D-02
 Coeff:      0.208D-01 0.200D-01 0.193D-02-0.605D-01-0.241D+00 0.136D+00
 Coeff:      0.113D+01
 Gap=     0.062 Goal=   None    Shift=    0.000
 Gap=     0.045 Goal=   None    Shift=    0.000
 RMSDP=3.31D-06 MaxDP=2.65D-04 DE=-2.91D-09 OVMax= 8.97D-05

 Cycle  14  Pass 1  IDiag  1:
 E= -1136.10715652604     Delta-E=       -0.000000000779 Rises=F Damp=F
 DIIS: error= 2.49D-07 at cycle  14 NSaved=  14.
 NSaved=14 IEnMin=14 EnMin= -1136.10715652604     IErMin=14 ErrMin= 2.49D-07
 ErrMax= 2.49D-07  0.00D+00 EMaxC= 1.00D-01 BMatC= 1.44D-11 BMatP= 9.31D-11
 IDIUse=1 WtCom= 1.00D+00 WtEn= 0.00D+00
 Coeff-Com:  0.105D-04-0.131D-04 0.525D-04 0.361D-04-0.167D-03-0.176D-02
 Coeff-Com: -0.206D-02 0.415D-02 0.364D-01 0.134D-01-0.841D-01-0.151D+00
 Coeff-Com:  0.214D-01 0.116D+01
 Coeff:      0.105D-04-0.131D-04 0.525D-04 0.361D-04-0.167D-03-0.176D-02
 Coeff:     -0.206D-02 0.415D-02 0.364D-01 0.134D-01-0.841D-01-0.151D+00
 Coeff:      0.214D-01 0.116D+01
 Gap=     0.062 Goal=   None    Shift=    0.000
 Gap=     0.045 Goal=   None    Shift=    0.000
 RMSDP=1.39D-06 MaxDP=1.03D-04 DE=-7.79D-10 OVMax= 3.16D-05

 Cycle  15  Pass 1  IDiag  1:
 E= -1136.10715652614     Delta-E=       -0.000000000101 Rises=F Damp=F
 DIIS: error= 8.74D-08 at cycle  15 NSaved=  15.
 NSaved=15 IEnMin=15 EnMin= -1136.10715652614     IErMin=15 ErrMin= 8.74D-08
 ErrMax= 8.74D-08  0.00D+00 EMaxC= 1.00D-01 BMatC= 2.79D-12 BMatP= 1.44D-11
 IDIUse=1 WtCom= 1.00D+00 WtEn= 0.00D+00
 Coeff-Com: -0.130D-04 0.170D-04 0.119D-04 0.623D-05 0.448D-03 0.137D-02
 Coeff-Com: -0.339D-02-0.448D-02-0.584D-02 0.809D-02 0.604D-01 0.567D-02
 Coeff-Com: -0.231D+00-0.172D+00 0.134D+01
 Coeff:     -0.130D-04 0.170D-04 0.119D-04 0.623D-05 0.448D-03 0.137D-02
 Coeff:     -0.339D-02-0.448D-02-0.584D-02 0.809D-02 0.604D-01 0.567D-02
 Coeff:     -0.231D+00-0.172D+00 0.134D+01
 Gap=     0.062 Goal=   None    Shift=    0.000
 Gap=     0.045 Goal=   None    Shift=    0.000
 RMSDP=6.06D-07 MaxDP=3.62D-05 DE=-1.01D-10 OVMax= 1.15D-05

 Cycle  16  Pass 1  IDiag  1:
 E= -1136.10715652617     Delta-E=       -0.000000000027 Rises=F Damp=F
 DIIS: error= 3.71D-08 at cycle  16 NSaved=  16.
 NSaved=16 IEnMin=16 EnMin= -1136.10715652617     IErMin=16 ErrMin= 3.71D-08
 ErrMax= 3.71D-08  0.00D+00 EMaxC= 1.00D-01 BMatC= 4.58D-13 BMatP= 2.79D-12
 IDIUse=1 WtCom= 1.00D+00 WtEn= 0.00D+00
 Coeff-Com: -0.151D-05 0.185D-05-0.476D-05-0.163D-05 0.305D-04 0.292D-03
 Coeff-Com:  0.417D-03-0.101D-02-0.622D-02-0.229D-03 0.123D-01 0.302D-01
 Coeff-Com: -0.509D-02-0.230D+00 0.302D-01 0.117D+01
 Coeff:     -0.151D-05 0.185D-05-0.476D-05-0.163D-05 0.305D-04 0.292D-03
 Coeff:      0.417D-03-0.101D-02-0.622D-02-0.229D-03 0.123D-01 0.302D-01
 Coeff:     -0.509D-02-0.230D+00 0.302D-01 0.117D+01
 Gap=     0.062 Goal=   None    Shift=    0.000
 Gap=     0.045 Goal=   None    Shift=    0.000
 RMSDP=3.28D-07 MaxDP=1.74D-05 DE=-2.73D-11 OVMax= 4.14D-06

 Cycle  17  Pass 1  IDiag  1:
 E= -1136.10715652617     Delta-E=       -0.000000000005 Rises=F Damp=F
 DIIS: error= 1.46D-08 at cycle  17 NSaved=  17.
 NSaved=17 IEnMin=17 EnMin= -1136.10715652617     IErMin=17 ErrMin= 1.46D-08
 ErrMax= 1.46D-08  0.00D+00 EMaxC= 1.00D-01 BMatC= 7.90D-14 BMatP= 4.58D-13
 IDIUse=1 WtCom= 1.00D+00 WtEn= 0.00D+00
 Coeff-Com:  0.126D-05-0.171D-05-0.358D-05-0.897D-06-0.512D-04-0.916D-04
 Coeff-Com:  0.555D-03 0.404D-03-0.134D-02-0.151D-02-0.296D-02 0.711D-02
 Coeff-Com:  0.267D-01-0.399D-01-0.157D+00 0.290D+00 0.879D+00
 Coeff:      0.126D-05-0.171D-05-0.358D-05-0.897D-06-0.512D-04-0.916D-04
 Coeff:      0.555D-03 0.404D-03-0.134D-02-0.151D-02-0.296D-02 0.711D-02
 Coeff:      0.267D-01-0.399D-01-0.157D+00 0.290D+00 0.879D+00
 Gap=     0.062 Goal=   None    Shift=    0.000
 Gap=     0.045 Goal=   None    Shift=    0.000
 RMSDP=1.14D-07 MaxDP=6.79D-06 DE=-5.00D-12 OVMax= 1.12D-06

 Cycle  18  Pass 1  IDiag  1:
 E= -1136.10715652616     Delta-E=        0.000000000011 Rises=F Damp=F
 DIIS: error= 6.26D-09 at cycle  18 NSaved=  18.
 NSaved=18 IEnMin=17 EnMin= -1136.10715652617     IErMin=18 ErrMin= 6.26D-09
 ErrMax= 6.26D-09  0.00D+00 EMaxC= 1.00D-01 BMatC= 1.05D-14 BMatP= 7.90D-14
 IDIUse=1 WtCom= 1.00D+00 WtEn= 0.00D+00
 Coeff-Com:  0.537D-06-0.684D-06-0.816D-06-0.125D-05-0.167D-04-0.651D-04
 Coeff-Com:  0.396D-04 0.224D-03 0.950D-03-0.410D-03-0.268D-02-0.432D-02
 Coeff-Com:  0.640D-02 0.330D-01-0.290D-01-0.167D+00 0.113D+00 0.105D+01
 Coeff:      0.537D-06-0.684D-06-0.816D-06-0.125D-05-0.167D-04-0.651D-04
 Coeff:      0.396D-04 0.224D-03 0.950D-03-0.410D-03-0.268D-02-0.432D-02
 Coeff:      0.640D-02 0.330D-01-0.290D-01-0.167D+00 0.113D+00 0.105D+01
 Gap=     0.062 Goal=   None    Shift=    0.000
 Gap=     0.045 Goal=   None    Shift=    0.000
 RMSDP=5.18D-08 MaxDP=3.66D-06 DE= 1.14D-11 OVMax= 4.70D-07

 Cycle  19  Pass 1  IDiag  1:
 E= -1136.10715652617     Delta-E=       -0.000000000012 Rises=F Damp=F
 DIIS: error= 1.42D-09 at cycle  19 NSaved=  19.
 NSaved=19 IEnMin=19 EnMin= -1136.10715652617     IErMin=19 ErrMin= 1.42D-09
 ErrMax= 1.42D-09  0.00D+00 EMaxC= 1.00D-01 BMatC= 9.24D-16 BMatP= 1.05D-14
 IDIUse=1 WtCom= 1.00D+00 WtEn= 0.00D+00
 Large coefficients: NSaved= 19 BigCof=    0.00 CofMax=   10.00 Det=-2.78D-15
 Inversion failed.  Reducing to 18 matrices.
 Large coefficients: NSaved= 18 BigCof=    0.00 CofMax=   10.00 Det=-3.25D-15
 Inversion failed.  Reducing to 17 matrices.
 Large coefficients: NSaved= 17 BigCof=    0.00 CofMax=   10.00 Det=-3.33D-15
 Inversion failed.  Reducing to 16 matrices.
 Large coefficients: NSaved= 16 BigCof=    0.00 CofMax=   10.00 Det=-3.36D-15
 Inversion failed.  Reducing to 15 matrices.
 Coeff-Com: -0.277D-06 0.330D-06-0.566D-05-0.131D-05 0.326D-04 0.297D-04
 Coeff-Com: -0.511D-04-0.942D-05-0.487D-03 0.770D-03 0.487D-02-0.352D-02
 Coeff-Com: -0.702D-01-0.708D-01 0.114D+01
 Coeff:     -0.277D-06 0.330D-06-0.566D-05-0.131D-05 0.326D-04 0.297D-04
 Coeff:     -0.511D-04-0.942D-05-0.487D-03 0.770D-03 0.487D-02-0.352D-02
 Coeff:     -0.702D-01-0.708D-01 0.114D+01
 Gap=     0.062 Goal=   None    Shift=    0.000
 Gap=     0.045 Goal=   None    Shift=    0.000
 RMSDP=9.70D-09 MaxDP=1.01D-06 DE=-1.18D-11 OVMax= 1.80D-07

 Cycle  20  Pass 1  IDiag  1:
 E= -1136.10715652618     Delta-E=       -0.000000000006 Rises=F Damp=F
 DIIS: error= 6.50D-10 at cycle  20 NSaved=  16.
 NSaved=16 IEnMin=16 EnMin= -1136.10715652618     IErMin=16 ErrMin= 6.50D-10
 ErrMax= 6.50D-10  0.00D+00 EMaxC= 1.00D-01 BMatC= 2.47D-16 BMatP= 9.24D-16
 IDIUse=1 WtCom= 1.00D+00 WtEn= 0.00D+00
 Large coefficients: NSaved= 16 BigCof=    0.00 CofMax=   10.00 Det=-4.71D-16
 Inversion failed.  Reducing to 15 matrices.
 Coeff-Com: -0.710D-06-0.866D-05-0.361D-05 0.513D-04 0.248D-04 0.543D-04
 Coeff-Com: -0.961D-04-0.803D-03-0.583D-03 0.552D-02 0.712D-02-0.280D-01
 Coeff-Com: -0.111D+00 0.158D+00 0.970D+00
 Coeff:     -0.710D-06-0.866D-05-0.361D-05 0.513D-04 0.248D-04 0.543D-04
 Coeff:     -0.961D-04-0.803D-03-0.583D-03 0.552D-02 0.712D-02-0.280D-01
 Coeff:     -0.111D+00 0.158D+00 0.970D+00
 Gap=     0.062 Goal=   None    Shift=    0.000
 Gap=     0.045 Goal=   None    Shift=    0.000
 RMSDP=6.97D-09 MaxDP=6.55D-07 DE=-5.91D-12 OVMax= 8.79D-08

 SCF Done:  E(UB3LYP) =  -1136.10715653     A.U. after   20 cycles
            NFock= 20  Conv=0.70D-08     -V/T= 2.0026
 <Sx>= 0.0000 <Sy>= 0.0000 <Sz>= 0.5000 <S**2>= 0.7639 S= 0.5069
 <L.S>= 0.000000000000E+00
 KE= 1.133193294046D+03 PE=-3.440938853800D+03 EE= 8.159173059787D+02
 Annihilation of the first spin contaminant:
 S**2 before annihilation     0.7639,   after     0.7501
 Leave Link  502 at Mon Nov 13 12:13:00 2023, MaxMem=  1879048192 cpu:             205.8 elap:              17.4
 (Enter /home/sekinelabo/g16/l601.exe)
 Copying SCF densities to generalized density rwf, IOpCl= 1 IROHF=0.

 **********************************************************************

            Population analysis using the SCF Density.

 **********************************************************************

 Orbital symmetries:
 Alpha Orbitals:
       Occupied  (A) (A) (A) (A) (A) (A) (A) (A) (A) (A) (A) (A)
                 (A) (A) (A) (A) (A) (A) (A) (A) (A) (A) (A) (A)
                 (A) (A) (A) (A) (A) (A) (A) (A) (A) (A) (A) (A)
                 (A) (A) (A)
       Virtual   (A) (A) (A) (A) (A) (A) (A) (A) (A) (A) (A) (A)
                 (A) (A) (A) (A) (A) (A) (A) (A) (A) (A) (A) (A)
                 (A) (A) (A) (A) (A) (A) (A) (A) (A) (A) (A) (A)
                 (A) (A) (A) (A) (A) (A) (A) (A) (A) (A) (A) (A)
                 (A) (A) (A) (A) (A) (A) (A) (A) (A) (A) (A) (A)
                 (A) (A) (A) (A) (A) (A) (A) (A) (A) (A) (A) (A)
                 (A) (A) (A) (A) (A) (A) (A) (A) (A) (A) (A) (A)
                 (A) (A) (A) (A) (A) (A) (A) (A) (A) (A) (A) (A)
                 (A) (A) (A) (A) (A) (A) (A) (A) (A) (A) (A) (A)
                 (A) (A) (A) (A) (A) (A) (A) (A) (A) (A) (A) (A)
                 (A) (A) (A) (A) (A) (A) (A) (A) (A) (A) (A) (A)
                 (A) (A) (A) (A) (A) (A) (A) (A) (A) (A) (A) (A)
                 (A) (A) (A) (A) (A) (A) (A) (A) (A) (A) (A) (A)
                 (A) (A) (A) (A) (A) (A) (A) (A) (A) (A) (A) (A)
                 (A) (A)
 Beta  Orbitals:
       Occupied  (A) (A) (A) (A) (A) (A) (A) (A) (A) (A) (A) (A)
                 (A) (A) (A) (A) (A) (A) (A) (A) (A) (A) (A) (A)
                 (A) (A) (A) (A) (A) (A) (A) (A) (A) (A) (A) (A)
                 (A) (A)
       Virtual   (A) (A) (A) (A) (A) (A) (A) (A) (A) (A) (A) (A)
                 (A) (A) (A) (A) (A) (A) (A) (A) (A) (A) (A) (A)
                 (A) (A) (A) (A) (A) (A) (A) (A) (A) (A) (A) (A)
                 (A) (A) (A) (A) (A) (A) (A) (A) (A) (A) (A) (A)
                 (A) (A) (A) (A) (A) (A) (A) (A) (A) (A) (A) (A)
                 (A) (A) (A) (A) (A) (A) (A) (A) (A) (A) (A) (A)
                 (A) (A) (A) (A) (A) (A) (A) (A) (A) (A) (A) (A)
                 (A) (A) (A) (A) (A) (A) (A) (A) (A) (A) (A) (A)
                 (A) (A) (A) (A) (A) (A) (A) (A) (A) (A) (A) (A)
                 (A) (A) (A) (A) (A) (A) (A) (A) (A) (A) (A) (A)
                 (A) (A) (A) (A) (A) (A) (A) (A) (A) (A) (A) (A)
                 (A) (A) (A) (A) (A) (A) (A) (A) (A) (A) (A) (A)
                 (A) (A) (A) (A) (A) (A) (A) (A) (A) (A) (A) (A)
                 (A) (A) (A) (A) (A) (A) (A) (A) (A) (A) (A) (A)
                 (A) (A) (A)
 The electronic state is 2-A.
 Alpha  occ. eigenvalues --  -38.44813 -38.44554 -38.43917 -38.43601 -38.43540
 Alpha  occ. eigenvalues --  -38.43233 -38.42868  -2.20726  -2.20470  -2.19810
 Alpha  occ. eigenvalues --   -2.19619  -2.19576  -2.19405  -2.18762  -1.14443
 Alpha  occ. eigenvalues --   -1.14360  -1.14300  -1.14181  -1.14130  -1.14048
 Alpha  occ. eigenvalues --   -1.13587  -1.13495  -1.13432  -1.13372  -1.13324
 Alpha  occ. eigenvalues --   -1.13297  -1.13248  -1.13221  -1.13184  -1.13096
 Alpha  occ. eigenvalues --   -1.13013  -1.12979  -1.12434  -1.12415  -1.12383
 Alpha  occ. eigenvalues --   -0.19223  -0.13791  -0.12278  -0.11736
 Alpha virt. eigenvalues --   -0.05555  -0.04922  -0.04437  -0.03490  -0.02941
 Alpha virt. eigenvalues --   -0.02645  -0.01508  -0.00768  -0.00418   0.00083
 Alpha virt. eigenvalues --    0.00290   0.00424   0.00677   0.00871   0.00951
 Alpha virt. eigenvalues --    0.01015   0.01116   0.01291   0.01343   0.01369
 Alpha virt. eigenvalues --    0.01532   0.01569   0.01635   0.01868   0.01970
 Alpha virt. eigenvalues --    0.02397   0.02530   0.02644   0.02784   0.02808
 Alpha virt. eigenvalues --    0.02906   0.02977   0.03045   0.03097   0.03246
 Alpha virt. eigenvalues --    0.03295   0.03495   0.03544   0.03680   0.03708
 Alpha virt. eigenvalues --    0.04135   0.04400   0.04551   0.04843   0.05098
 Alpha virt. eigenvalues --    0.05428   0.05613   0.05770   0.05928   0.06346
 Alpha virt. eigenvalues --    0.06635   0.06926   0.07026   0.07498   0.07918
 Alpha virt. eigenvalues --    0.08050   0.08328   0.08401   0.08985   0.09090
 Alpha virt. eigenvalues --    0.09720   0.09918   0.10902   0.11648   0.12035
 Alpha virt. eigenvalues --    0.12159   0.12497   0.13195   0.13583   0.13729
 Alpha virt. eigenvalues --    0.14272   0.14508   0.14980   0.15480   0.15703
 Alpha virt. eigenvalues --    0.16557   0.17299   0.18601   0.19706   0.25476
 Alpha virt. eigenvalues --    0.25842   0.27234   0.28575   0.29462   0.29877
 Alpha virt. eigenvalues --    0.30126   0.31599   0.33975   0.34511   0.34731
 Alpha virt. eigenvalues --    0.35525   0.36428   0.36914   0.38160   0.38656
 Alpha virt. eigenvalues --    0.40021   0.40124   0.40473   0.41160   0.43056
 Alpha virt. eigenvalues --    0.43709   0.43868   0.44114   0.44483   0.44558
 Alpha virt. eigenvalues --    0.45769   0.45935   0.46268   0.46509   0.47398
 Alpha virt. eigenvalues --    0.47620   0.48619   0.48780   0.49377   0.50754
 Alpha virt. eigenvalues --    0.51132   0.52082   0.52651   0.53380   0.54417
 Alpha virt. eigenvalues --    0.55473   0.55627   0.56198   0.58008   0.59152
 Alpha virt. eigenvalues --    0.64302   0.67260   0.68713   0.71172   0.73117
 Alpha virt. eigenvalues --    0.74239   0.74986   0.75618   0.80715   0.81242
 Alpha virt. eigenvalues --    2.09602   2.14065   2.15671   2.17803   2.22861
 Alpha virt. eigenvalues --    2.28810   2.35716   4.40726   4.41769   4.42185
 Alpha virt. eigenvalues --    4.42978   4.43415   4.44343   4.44876   4.45904
 Alpha virt. eigenvalues --    4.46528   4.47228   4.47820   4.49102   4.54383
 Alpha virt. eigenvalues --    4.58684   4.60900   4.62818   4.71041   4.73159
 Alpha virt. eigenvalues --    4.74363   4.74724   4.77945  96.30472  96.36568
 Alpha virt. eigenvalues --   96.38743  96.41591  96.48314  96.56267  96.65373
  Beta  occ. eigenvalues --  -38.44708 -38.44476 -38.43921 -38.43597 -38.43520
  Beta  occ. eigenvalues --  -38.43210 -38.42871  -2.20534  -2.20326  -2.19818
  Beta  occ. eigenvalues --   -2.19590  -2.19569  -2.19373  -2.18768  -1.14315
  Beta  occ. eigenvalues --   -1.14221  -1.14170  -1.14086  -1.14030  -1.13948
  Beta  occ. eigenvalues --   -1.13590  -1.13501  -1.13431  -1.13362  -1.13317
  Beta  occ. eigenvalues --   -1.13241  -1.13211  -1.13201  -1.13183  -1.13011
  Beta  occ. eigenvalues --   -1.12992  -1.12967  -1.12439  -1.12419  -1.12380
  Beta  occ. eigenvalues --   -0.18494  -0.13508  -0.12135
  Beta virt. eigenvalues --   -0.07623  -0.05366  -0.04649  -0.04253  -0.03008
  Beta virt. eigenvalues --   -0.02192  -0.02041  -0.01280  -0.00649  -0.00104
  Beta virt. eigenvalues --    0.00138   0.00369   0.00467   0.00852   0.00918
  Beta virt. eigenvalues --    0.01016   0.01102   0.01221   0.01371   0.01425
  Beta virt. eigenvalues --    0.01478   0.01625   0.01687   0.01786   0.01939
  Beta virt. eigenvalues --    0.02138   0.02424   0.02559   0.02750   0.02782
  Beta virt. eigenvalues --    0.02851   0.02973   0.03057   0.03095   0.03163
  Beta virt. eigenvalues --    0.03292   0.03316   0.03557   0.03681   0.03729
  Beta virt. eigenvalues --    0.03919   0.04249   0.04540   0.04708   0.04942
  Beta virt. eigenvalues --    0.05195   0.05566   0.05746   0.05813   0.05989
  Beta virt. eigenvalues --    0.06409   0.06670   0.07036   0.07184   0.07635
  Beta virt. eigenvalues --    0.08023   0.08256   0.08383   0.08625   0.09096
  Beta virt. eigenvalues --    0.09299   0.10028   0.10325   0.11061   0.11811
  Beta virt. eigenvalues --    0.12128   0.12452   0.12576   0.13362   0.13805
  Beta virt. eigenvalues --    0.13955   0.14421   0.14819   0.15091   0.15600
  Beta virt. eigenvalues --    0.15961   0.16711   0.17495   0.18818   0.20060
  Beta virt. eigenvalues --    0.26014   0.26071   0.27499   0.28765   0.30004
  Beta virt. eigenvalues --    0.30132   0.30503   0.31888   0.34060   0.34941
  Beta virt. eigenvalues --    0.35177   0.35789   0.36636   0.37383   0.38566
  Beta virt. eigenvalues --    0.38954   0.40203   0.40351   0.40892   0.41435
  Beta virt. eigenvalues --    0.43309   0.43954   0.44021   0.44288   0.44668
  Beta virt. eigenvalues --    0.44795   0.45812   0.46008   0.46367   0.46664
  Beta virt. eigenvalues --    0.47608   0.47844   0.48735   0.48946   0.49579
  Beta virt. eigenvalues --    0.50870   0.51372   0.52232   0.52942   0.53458
  Beta virt. eigenvalues --    0.54629   0.55726   0.55787   0.56428   0.58219
  Beta virt. eigenvalues --    0.59290   0.64552   0.67447   0.68842   0.71143
  Beta virt. eigenvalues --    0.73129   0.74393   0.75022   0.75781   0.80719
  Beta virt. eigenvalues --    0.81342   2.09787   2.14211   2.15679   2.18177
  Beta virt. eigenvalues --    2.22879   2.28888   2.35759   4.40775   4.41818
  Beta virt. eigenvalues --    4.42228   4.43113   4.43490   4.44400   4.44893
  Beta virt. eigenvalues --    4.46004   4.46579   4.47308   4.47831   4.49187
  Beta virt. eigenvalues --    4.54394   4.58747   4.60917   4.62930   4.71169
  Beta virt. eigenvalues --    4.73160   4.74389   4.74736   4.77958  96.30531
  Beta virt. eigenvalues --   96.36619  96.38745  96.41715  96.48319  96.56303
  Beta virt. eigenvalues --   96.65393
          Condensed to atoms (all electrons):
               1          2          3          4          5          6
     1  Na  16.181963   1.611109  -0.737971  -3.263430   2.165113  -2.326170
     2  Na   1.611109  11.505010  -0.132309  -1.907634   1.053371  -1.137982
     3  Na  -0.737971  -0.132309  11.017546   0.293048  -0.114717   0.506813
     4  Na  -3.263430  -1.907634   0.293048  14.396405  -2.056124   2.091592
     5  Na   2.165113   1.053371  -0.114717  -2.056124  11.936334  -1.299628
     6  Na  -2.326170  -1.137982   0.506813   2.091592  -1.299628  12.613258
     7  Na  -1.744366  -0.340309   0.248628   0.943392  -0.505426   0.772268
               7
     1  Na  -1.744366
     2  Na  -0.340309
     3  Na   0.248628
     4  Na   0.943392
     5  Na  -0.505426
     6  Na   0.772268
     7  Na  11.110948
          Atomic-Atomic Spin Densities.
               1          2          3          4          5          6
     1  Na  -0.685496  -0.117345   0.398711   0.280168  -0.165325   0.626372
     2  Na  -0.117345   0.066605   0.088534   0.080633   0.021547   0.054539
     3  Na   0.398711   0.088534   0.111878  -0.087103   0.088607  -0.217107
     4  Na   0.280168   0.080633  -0.087103   0.066209  -0.027187  -0.073073
     5  Na  -0.165325   0.021547   0.088607  -0.027187   0.021344   0.037165
     6  Na   0.626372   0.054539  -0.217107  -0.073073   0.037165  -0.338324
     7  Na   0.225728   0.031258  -0.106460  -0.019820   0.015959  -0.210682
               7
     1  Na   0.225728
     2  Na   0.031258
     3  Na  -0.106460
     4  Na  -0.019820
     5  Na   0.015959
     6  Na  -0.210682
     7  Na  -0.092452
 Mulliken charges and spin densities:
               1          2
     1  Na  -0.886248   0.562813
     2  Na   0.348744   0.225770
     3  Na  -0.081037   0.277060
     4  Na   0.502751   0.219828
     5  Na  -0.178924  -0.007889
     6  Na  -0.220152  -0.121111
     7  Na   0.514866  -0.156471
 Sum of Mulliken charges =  -0.00000   1.00000
 Mulliken charges and spin densities with hydrogens summed into heavy atoms:
               1          2
     1  Na  -0.886248   0.562813
     2  Na   0.348744   0.225770
     3  Na  -0.081037   0.277060
     4  Na   0.502751   0.219828
     5  Na  -0.178924  -0.007889
     6  Na  -0.220152  -0.121111
     7  Na   0.514866  -0.156471
 Electronic spatial extent (au):  <R**2>=           2221.7526
 Charge=             -0.0000 electrons
 Dipole moment (field-independent basis, Debye):
    X=             -0.0468    Y=             -0.7779    Z=              0.3378  Tot=              0.8494
 Quadrupole moment (field-independent basis, Debye-Ang):
   XX=            -58.8231   YY=            -68.3564   ZZ=            -67.2352
   XY=             -0.8635   XZ=              1.8469   YZ=             -0.6130
 Traceless Quadrupole moment (field-independent basis, Debye-Ang):
   XX=              5.9818   YY=             -3.5514   ZZ=             -2.4303
   XY=             -0.8635   XZ=              1.8469   YZ=             -0.6130
 Octapole moment (field-independent basis, Debye-Ang**2):
  XXX=             13.2902  YYY=              5.6964  ZZZ=              8.3784  XYY=              6.3156
  XXY=            -17.2792  XXZ=             -9.2665  XZZ=            -11.6769  YZZ=            -13.3802
  YYZ=              4.5976  XYZ=             -8.2889
 Hexadecapole moment (field-independent basis, Debye-Ang**3):
 XXXX=          -1558.7088 YYYY=          -1352.0241 ZZZZ=           -785.7857 XXXY=            -47.9549
 XXXZ=             47.6049 YYYX=            -18.4060 YYYZ=              9.8311 ZZZX=             12.4222
 ZZZY=            -23.2150 XXYY=           -472.8383 XXZZ=           -403.7084 YYZZ=           -362.0783
 XXYZ=              8.7197 YYXZ=              5.6128 ZZXY=             30.3890
 N-N= 3.557210972494D+02 E-N=-3.440938853618D+03  KE= 1.133193294046D+03
                          Isotropic Fermi Contact Couplings
        Atom                 a.u.       MegaHertz       Gauss      10(-4) cm-1
     1  Na(23)            -0.00312      -3.69004      -1.31670      -1.23087
     2  Na(23)             0.33297     393.91367     140.55819     131.39546
     3  Na(23)             0.44463     526.00899     187.69309     175.45771
     4  Na(23)            -0.01107     -13.09693      -4.67331      -4.36867
     5  Na(23)            -0.02233     -26.42061      -9.42753      -8.81297
     6  Na(23)             0.01551      18.34779       6.54695       6.12016
     7  Na(23)            -0.02894     -34.23908     -12.21736     -11.42093
 --------------------------------------------------------
       Center         ----  Spin Dipole Couplings  ----
                      3XX-RR        3YY-RR        3ZZ-RR
 --------------------------------------------------------
     1   Atom       -0.040570     -0.034848      0.075419
     2   Atom        0.005619      0.004515     -0.010134
     3   Atom        0.000633      0.012787     -0.013420
     4   Atom       -0.029060     -0.046233      0.075294
     5   Atom       -0.005593     -0.000838      0.006432
     6   Atom       -0.001677     -0.006620      0.008297
     7   Atom       -0.001303     -0.004526      0.005829
 --------------------------------------------------------
                        XY            XZ            YZ
 --------------------------------------------------------
     1   Atom       -0.000906      0.025529     -0.010205
     2   Atom        0.004670     -0.009219     -0.005160
     3   Atom       -0.000135     -0.004059      0.001533
     4   Atom       -0.002348      0.030383     -0.006082
     5   Atom        0.001749     -0.002516     -0.002542
     6   Atom        0.004998      0.001181      0.002649
     7   Atom       -0.001002     -0.002091     -0.003483
 --------------------------------------------------------


 ---------------------------------------------------------------------------------
              Anisotropic Spin Dipole Couplings in Principal Axis System
 ---------------------------------------------------------------------------------

       Atom             a.u.   MegaHertz   Gauss  10(-4) cm-1        Axes

              Baa    -0.0461    -6.507    -2.322    -2.171  0.9700 -0.1158 -0.2135
     1 Na(23) Bbb    -0.0356    -5.026    -1.794    -1.677  0.1315  0.9895  0.0607
              Bcc     0.0817    11.534     4.116     3.847  0.2043 -0.0870  0.9750
 
              Baa    -0.0148    -2.091    -0.746    -0.697  0.3773  0.1528  0.9134
     2 Na(23) Bbb     0.0006     0.084     0.030     0.028 -0.5723  0.8138  0.1003
              Bcc     0.0142     2.007     0.716     0.669  0.7280  0.5606 -0.3945
 
              Baa    -0.0146    -2.060    -0.735    -0.687  0.2569 -0.0528  0.9650
     3 Na(23) Bbb     0.0017     0.240     0.085     0.080  0.9659  0.0470 -0.2546
              Bcc     0.0129     1.820     0.649     0.607 -0.0319  0.9975  0.0630
 
              Baa    -0.0466    -6.581    -2.348    -2.195  0.0831  0.9961  0.0290
     4 Na(23) Bbb    -0.0372    -5.255    -1.875    -1.753  0.9619 -0.0726 -0.2637
              Bcc     0.0838    11.836     4.223     3.948  0.2606 -0.0498  0.9642
 
              Baa    -0.0064    -0.903    -0.322    -0.301  0.9610 -0.2378  0.1414
     5 Na(23) Bbb    -0.0015    -0.208    -0.074    -0.070  0.1758  0.9195  0.3515
              Bcc     0.0079     1.112     0.397     0.371 -0.2136 -0.3129  0.9255
 
              Baa    -0.0099    -1.394    -0.498    -0.465 -0.5087  0.8560 -0.0917
     6 Na(23) Bbb     0.0007     0.098     0.035     0.033  0.8356  0.4653 -0.2919
              Bcc     0.0092     1.296     0.463     0.432  0.2072  0.2252  0.9520
 
              Baa    -0.0061    -0.865    -0.309    -0.288  0.3227  0.8921  0.3164
     7 Na(23) Bbb    -0.0011    -0.158    -0.056    -0.053  0.9251 -0.3680  0.0940
              Bcc     0.0072     1.022     0.365     0.341 -0.2003 -0.2624  0.9440
 

 ---------------------------------------------------------------------------------

 No NMR shielding tensors so no spin-rotation constants.
 Leave Link  601 at Mon Nov 13 12:13:00 2023, MaxMem=  1879048192 cpu:               2.6 elap:               0.2
 (Enter /home/sekinelabo/g16/l701.exe)
 ... and contract with generalized density number  0.
 Compute integral first derivatives.
 Leave Link  701 at Mon Nov 13 12:13:01 2023, MaxMem=  1879048192 cpu:               1.8 elap:               0.1
 (Enter /home/sekinelabo/g16/l702.exe)
 L702 exits ... SP integral derivatives will be done elsewhere.
 Leave Link  702 at Mon Nov 13 12:13:01 2023, MaxMem=  1879048192 cpu:               0.5 elap:               0.0
 (Enter /home/sekinelabo/g16/l703.exe)
 Integral derivatives from FoFJK, PRISM(SPDF).
 Compute integral first derivatives, UseDBF=F ICtDFT=           0.
 Calling FoFJK, ICntrl=      2127 FMM=F ISym2X=0 I1Cent= 0 IOpClX= 1 NMat=1 NMatS=1 NMatT=0.
 FoFJK:  IHMeth= 1 ICntrl=    2127 DoSepK=F KAlg= 0 I1Cent=           0 FoldK=F
 IRaf=         0 NMat=       1 IRICut=       1 DoRegI=T DoRafI=F ISym2E= 0 IDoP0=0 IntGTp=1.
 FoFCou: FMM=F IPFlag=           0 FMFlag=      100000 FMFlg1=         800
         NFxFlg=           0 DoJE=F BraDBF=F KetDBF=F FulRan=T
         wScrn=  0.000000 ICntrl=      2127 IOpCl=  1 I1Cent=           0 NGrid=           0
         NMat0=    1 NMatS0=      1 NMatT0=    0 NMatD0=    1 NMtDS0=    0 NMtDT0=    0
 Symmetry not used in FoFCou.
 Leave Link  703 at Mon Nov 13 12:13:03 2023, MaxMem=  1879048192 cpu:              36.6 elap:               2.4
 (Enter /home/sekinelabo/g16/l716.exe)
 Dipole        =-1.84272041D-02-3.06061330D-01 1.32919586D-01
 ***** Axes restored to original set *****
 -------------------------------------------------------------------
 Center     Atomic                   Forces (Hartrees/Bohr)
 Number     Number              X              Y              Z
 -------------------------------------------------------------------
      1       11          -0.002708246   -0.006928314    0.005531474
      2       11           0.006267226   -0.005077575    0.005679924
      3       11          -0.000516306   -0.005092827   -0.007618711
      4       11           0.007953298    0.009032227   -0.002282879
      5       11           0.000266389    0.008345181   -0.001369879
      6       11          -0.004887758    0.006860680    0.002676340
      7       11          -0.006374602   -0.007139371   -0.002616270
 -------------------------------------------------------------------
 Cartesian Forces:  Max     0.009032227 RMS     0.005630331
 Z-matrix is all fixed cartesians, so copy forces.
 Force constants in Cartesian coordinates: 
                1             2             3             4             5 
      1  0.170946D+00
      2  0.524252D-02  0.157112D+00
      3  0.425293D-02 -0.223917D-01  0.152755D+00
      4 -0.418584D-01  0.667001D-02 -0.122193D-01  0.503009D-01
      5 -0.105766D-01 -0.270858D-01 -0.293815D-02 -0.410967D-02  0.416979D-01
      6  0.380906D-02  0.485775D-02 -0.310762D-01  0.137976D-01 -0.168073D-01
      7 -0.254431D-01  0.505142D-02  0.881756D-02  0.273632D-02 -0.169235D-02
      8 -0.274160D-02 -0.144894D-01  0.100666D-01  0.166408D-02  0.550082D-02
      9  0.494312D-03 -0.829552D-02 -0.419312D-01 -0.560340D-03 -0.430963D-02
     10 -0.382629D-01 -0.726638D-02  0.132179D-02 -0.122380D-01  0.128415D-01
     11 -0.615863D-02 -0.388007D-01  0.773937D-02 -0.641506D-02 -0.285112D-01
     12  0.691424D-02  0.129752D-01 -0.227709D-01  0.833924D-02  0.192684D-01
     13  0.731165D-02 -0.903925D-03 -0.183003D-02  0.137817D-02 -0.689852D-03
     14 -0.795233D-03 -0.758635D-02  0.180696D-02  0.155719D-02 -0.854297D-03
     15 -0.182582D-02  0.175657D-02  0.127788D-02 -0.488300D-02  0.348199D-02
     16 -0.319376D-01  0.483224D-02  0.448648D-02 -0.646568D-03  0.471350D-02
     17  0.720504D-02 -0.408912D-01 -0.424433D-02 -0.468231D-03  0.382668D-02
     18 -0.395456D-02  0.549207D-02 -0.226601D-01 -0.134233D-02  0.413199D-02
     19 -0.407555D-01 -0.136259D-01 -0.482940D-02  0.327513D-03 -0.486537D-03
     20  0.782445D-02 -0.282582D-01  0.996123D-02  0.110168D-02  0.542580D-02
     21 -0.969017D-02  0.560566D-02 -0.355948D-01 -0.313182D-02 -0.282738D-02
                6             7             8             9            10 
      6  0.514872D-01
      7 -0.765312D-02  0.371196D-01
      8  0.369345D-02  0.592907D-02  0.385387D-01
      9 -0.591158D-02  0.127551D-02  0.146943D-01  0.636664D-01
     10 -0.982922D-02 -0.163986D-01 -0.288639D-02 -0.115173D-02  0.106272D+00
     11  0.102927D-01 -0.120832D-01 -0.303266D-01 -0.236688D-02  0.501011D-02
     12 -0.286293D-01 -0.181836D-01 -0.208269D-01 -0.216886D-01 -0.109957D-02
     13 -0.104965D-02  0.383861D-02 -0.253864D-02  0.737610D-03 -0.324189D-01
     14 -0.124232D-02  0.306044D-02 -0.200696D-02  0.574188D-03 -0.371009D-02
     15  0.450090D-02  0.411457D-02 -0.295677D-02  0.983464D-03  0.522359D-02
     16  0.166740D-02 -0.554224D-03  0.104157D-02 -0.306619D-03 -0.723171D-02
     17  0.123947D-02 -0.808263D-03  0.134837D-02 -0.420863D-03  0.770347D-03
     18  0.302283D-02  0.441241D-02 -0.595915D-02  0.208093D-02  0.227812D-02
     19 -0.742047D-03 -0.129865D-02 -0.468089D-03 -0.488745D-03  0.278310D-03
     20 -0.203377D-02  0.542832D-03  0.143515D-02  0.124423D-03 -0.475906D-02
     21  0.660613D-02  0.721672D-02  0.128847D-02  0.280060D-02  0.325703D-02
               11            12            13            14            15 
     11  0.112776D+00
     12 -0.110012D-01  0.858861D-01
     13  0.190741D-01  0.223728D-02  0.461648D-01
     14 -0.267425D-01  0.376247D-02 -0.149015D-03  0.647773D-01
     15 -0.172392D-02 -0.181398D-01 -0.111222D-01 -0.528948D-02  0.200624D-01
     16  0.105041D-02  0.215462D-02 -0.282054D-01  0.389085D-02  0.121617D-01
     17  0.762558D-02 -0.141389D-02 -0.144817D-01 -0.279930D-01  0.460001D-02
     18 -0.152306D-02  0.658451D-03  0.125875D-01 -0.338921D-02 -0.130651D-01
     19 -0.477739D-03 -0.362168D-03  0.193101D-02 -0.385414D-02 -0.366878D-02
     20  0.397888D-02 -0.276411D-02 -0.310949D-03  0.405706D-03  0.131596D-03
     21 -0.141700D-02  0.468414D-02 -0.156051D-02  0.377740D-02  0.438032D-02
               16            17            18            19            20 
     16  0.840618D-01
     17  0.425773D-02  0.942104D-01
     18 -0.202732D-01  0.117500D-01  0.400569D-01
     19 -0.154863D-01  0.352506D-02  0.629206D-02  0.550036D-01
     20 -0.197863D-01 -0.381268D-01 -0.105027D-01  0.153873D-01  0.551395D-01
     21  0.109675D-03 -0.115104D-01 -0.100940D-01  0.379907D-02  0.508330D-02
               21 
     21  0.272176D-01
 Leave Link  716 at Mon Nov 13 12:13:03 2023, MaxMem=  1879048192 cpu:               0.8 elap:               0.1
 (Enter /home/sekinelabo/g16/l103.exe)

 GradGradGradGradGradGradGradGradGradGradGradGradGradGradGradGradGradGrad
 Berny optimization.
 Search for a local minimum.
 Step number   1 out of a maximum of    2
 All quantities printed in internal units (Hartrees-Bohrs-Radians)
 Second derivative matrix not updated -- first step.
 ITU=  0
     Eigenvalues ---    0.02262   0.03067   0.03811   0.04438   0.04984
     Eigenvalues ---    0.06388   0.06686   0.10264   0.11388   0.12755
     Eigenvalues ---    0.13694   0.14062   0.17769   0.21676   0.22123
 Quadratic step=3.637D-01 exceeds max=3.000D-01 adjusted using Lamda=-1.256D-02.
 Angle between NR and scaled steps=   3.05 degrees.
 Angle between quadratic step and forces=  21.42 degrees.
 Linear search not attempted -- first point.
 B after Tr=     0.000000    0.000000    0.000000
         Rot=    1.000000    0.000000    0.000000    0.000000 Ang=   0.00 deg.
 Variable       Old X    -DE/DX   Delta X   Delta X   Delta X     New X
                                 (Linear)    (Quad)   (Total)
    X1        5.50643  -0.00271   0.00000  -0.01162  -0.01162   5.49481
    Y1        0.97201  -0.00693   0.00000  -0.04555  -0.04555   0.92647
    Z1        5.26466   0.00553   0.00000   0.02875   0.02875   5.29341
    X2       10.65198   0.00627   0.00000   0.10357   0.10357  10.75555
    Y2        0.81668  -0.00508   0.00000  -0.06344  -0.06344   0.75324
    Z2        7.63757   0.00568   0.00000   0.06450   0.06450   7.70207
    X3        7.61006  -0.00052   0.00000   0.01741   0.01741   7.62747
    Y3        0.63276  -0.00509   0.00000  -0.06226  -0.06226   0.57050
    Z3        0.00000  -0.00762   0.00000  -0.07792  -0.07792  -0.07792
    X4        9.51999   0.00795   0.00000   0.07742   0.07742   9.59740
    Y4        4.59527   0.00903   0.00000   0.05147   0.05147   4.64675
    Z4        3.56994  -0.00228   0.00000  -0.01471  -0.01471   3.55524
    X5        5.78947   0.00027   0.00000   0.00070   0.00070   5.79016
    Y5        8.86101   0.00835   0.00000   0.14275   0.14275   9.00376
    Z5        3.87741  -0.00137   0.00000  -0.00927  -0.00927   3.86814
    X6        1.77452  -0.00489   0.00000  -0.08131  -0.08131   1.69321
    Y6        5.23222   0.00686   0.00000   0.05903   0.05903   5.29126
    Z6        5.57631   0.00268   0.00000   0.01989   0.01989   5.59621
    X7        0.00000  -0.00637   0.00000  -0.10616  -0.10616  -0.10616
    Y7        0.00000  -0.00714   0.00000  -0.08200  -0.08200  -0.08200
    Z7        4.34689  -0.00262   0.00000  -0.01125  -0.01125   4.33565
         Item               Value     Threshold  Converged?
 Maximum Force            0.009032     0.000450     NO 
 RMS     Force            0.005630     0.000300     NO 
 Maximum Displacement     0.142746     0.001800     NO 
 RMS     Displacement     0.065515     0.001200     NO 
 Predicted change in Energy=-4.171632D-03
 GradGradGradGradGradGradGradGradGradGradGradGradGradGradGradGradGradGrad

 Leave Link  103 at Mon Nov 13 12:13:03 2023, MaxMem=  1879048192 cpu:               0.2 elap:               0.0
 (Enter /home/sekinelabo/g16/l9999.exe)
 1\1\GINC-SEKINELABO-XA7R-R37\Force\UB3LYP\6-311+G(d)\Na7(2)\SEKINELABO
 \13-Nov-2023\0\\#P B3LYP/6-311+g(d) force\\Gaussian input prepared by 
 ASE\\0,2\Na,2.9138768058,0.5143679981,2.7859373024\Na,5.6367848195,0.4
 321681142,4.0416267143\Na,4.0270721204,0.3348437541,0.\Na,5.0377591827
 ,2.4317136537,1.88913161\Na,3.0636541432,4.6890447781,2.051836399\Na,0
 .9390350981,2.76877364,2.9508584539\Na,0.,0.,2.30027633\\Version=ES64L
 -G16RevB.01\State=2-A\HF=-1136.1071565\S2=0.763882\S2-1=0.\S2A=0.75009
 1\RMSD=6.968e-09\RMSF=5.630e-03\Dipole=0.0184272,-0.3060613,-0.1329196
 \Quadrupole=4.4472977,-2.6404153,-1.8068824,0.6419893,1.3731012,0.4557
 188\PG=C01 [X(Na7)]\\@


 This summer one third of the nation will be ill-housed
 ill-nourished and ill-clad. Only they call it a vacation.
 -- Jonas Salk
 Job cpu time:       0 days  0 hours  4 minutes 21.3 seconds.
 Elapsed time:       0 days  0 hours  0 minutes 21.0 seconds.
 File lengths (MBytes):  RWF=     32 Int=      0 D2E=      0 Chk=      5 Scr=      1
 Normal termination of Gaussian 16 at Mon Nov 13 12:13:03 2023.
