 Entering Gaussian System, Link 0=g16
 Initial command:
 /home/sekinelabo/g16/l1.exe "/home/sekinelabo/g16temp/Gau-3982176.inp" -scrdir="/home/sekinelabo/g16temp/"
 Entering Link 1 = /home/sekinelabo/g16/l1.exe PID=   3982178.
  
 Copyright (c) 1988-2017, Gaussian, Inc.  All Rights Reserved.
  
 This is part of the Gaussian(R) 16 program.  It is based on
 the Gaussian(R) 09 system (copyright 2009, Gaussian, Inc.),
 the Gaussian(R) 03 system (copyright 2003, Gaussian, Inc.),
 the Gaussian(R) 98 system (copyright 1998, Gaussian, Inc.),
 the Gaussian(R) 94 system (copyright 1995, Gaussian, Inc.),
 the Gaussian 92(TM) system (copyright 1992, Gaussian, Inc.),
 the Gaussian 90(TM) system (copyright 1990, Gaussian, Inc.),
 the Gaussian 88(TM) system (copyright 1988, Gaussian, Inc.),
 the Gaussian 86(TM) system (copyright 1986, Carnegie Mellon
 University), and the Gaussian 82(TM) system (copyright 1983,
 Carnegie Mellon University). Gaussian is a federally registered
 trademark of Gaussian, Inc.
  
 This software contains proprietary and confidential information,
 including trade secrets, belonging to Gaussian, Inc.
  
 This software is provided under written license and may be
 used, copied, transmitted, or stored only in accord with that
 written license.
  
 The following legend is applicable only to US Government
 contracts under FAR:
  
                    RESTRICTED RIGHTS LEGEND
  
 Use, reproduction and disclosure by the US Government is
 subject to restrictions as set forth in subparagraphs (a)
 and (c) of the Commercial Computer Software - Restricted
 Rights clause in FAR 52.227-19.
  
 Gaussian, Inc.
 340 Quinnipiac St., Bldg. 40, Wallingford CT 06492
  
  
 ---------------------------------------------------------------
 Warning -- This program may not be used in any manner that
 competes with the business of Gaussian, Inc. or will provide
 assistance to any competitor of Gaussian, Inc.  The licensee
 of this program is prohibited from giving any competitor of
 Gaussian, Inc. access to this program.  By using this program,
 the user acknowledges that Gaussian, Inc. is engaged in the
 business of creating and licensing software in the field of
 computational chemistry and represents and warrants to the
 licensee that it is not a competitor of Gaussian, Inc. and that
 it will not use this program in any manner prohibited above.
 ---------------------------------------------------------------
  

 Cite this work as:
 Gaussian 16, Revision B.01,
 M. J. Frisch, G. W. Trucks, H. B. Schlegel, G. E. Scuseria, 
 M. A. Robb, J. R. Cheeseman, G. Scalmani, V. Barone, 
 G. A. Petersson, H. Nakatsuji, X. Li, M. Caricato, A. V. Marenich, 
 J. Bloino, B. G. Janesko, R. Gomperts, B. Mennucci, H. P. Hratchian, 
 J. V. Ortiz, A. F. Izmaylov, J. L. Sonnenberg, D. Williams-Young, 
 F. Ding, F. Lipparini, F. Egidi, J. Goings, B. Peng, A. Petrone, 
 T. Henderson, D. Ranasinghe, V. G. Zakrzewski, J. Gao, N. Rega, 
 G. Zheng, W. Liang, M. Hada, M. Ehara, K. Toyota, R. Fukuda, 
 J. Hasegawa, M. Ishida, T. Nakajima, Y. Honda, O. Kitao, H. Nakai, 
 T. Vreven, K. Throssell, J. A. Montgomery, Jr., J. E. Peralta, 
 F. Ogliaro, M. J. Bearpark, J. J. Heyd, E. N. Brothers, K. N. Kudin, 
 V. N. Staroverov, T. A. Keith, R. Kobayashi, J. Normand, 
 K. Raghavachari, A. P. Rendell, J. C. Burant, S. S. Iyengar, 
 J. Tomasi, M. Cossi, J. M. Millam, M. Klene, C. Adamo, R. Cammi, 
 J. W. Ochterski, R. L. Martin, K. Morokuma, O. Farkas, 
 J. B. Foresman, and D. J. Fox, Gaussian, Inc., Wallingford CT, 2016.
 
 ******************************************
 Gaussian 16:  ES64L-G16RevB.01 20-Dec-2017
                13-Nov-2023 
 ******************************************
 %mem=14GB
 %chk=checkpoint.chk
 %nprocshared=16
 Will use up to   16 processors via shared memory.
 -------------------------
 #P B3LYP/6-311+g(d) force
 -------------------------
 1/10=7,30=1,38=1/1,3;
 2/12=2,17=6,18=5,40=1/2;
 3/5=4,6=6,7=11,11=2,25=1,30=1,71=1,74=-5/1,2,3;
 4//1;
 5/5=2,38=5/2;
 6/7=2,8=2,9=2,10=2,28=1/1;
 7/29=1/1,2,3,16;
 1/10=7,30=1/3;
 99//99;
 Leave Link    1 at Mon Nov 13 12:20:06 2023, MaxMem=  1879048192 cpu:               0.3 elap:               0.0
 (Enter /home/sekinelabo/g16/l101.exe)
 ------------------------------
 Gaussian input prepared by ASE
 ------------------------------
 Symbolic Z-matrix:
 Charge =  0 Multiplicity = 2
 Na                    1.46619   1.92088   2.68557 
 Na                    0.        3.83255   1.0269 
 Na                    0.00568   0.        1.02917 
 Na                    1.95259   1.91919   0. 
 Na                    4.69298   1.91766   0.10257 
 Na                    3.67876   0.37332   2.14003 
 Na                    3.68119   3.4646    2.13934 
 
 ITRead=  0  0  0  0  0  0  0
 MicOpt= -1 -1 -1 -1 -1 -1 -1
 NAtoms=      7 NQM=        7 NQMF=       0 NMMI=      0 NMMIF=      0
                NMic=       0 NMicF=      0.
                    Isotopes and Nuclear Properties:
 (Nuclear quadrupole moments (NQMom) in fm**2, nuclear magnetic moments (NMagM)
  in nuclear magnetons)

  Atom         1           2           3           4           5           6           7
 IAtWgt=          23          23          23          23          23          23          23
 AtmWgt=  22.9897697  22.9897697  22.9897697  22.9897697  22.9897697  22.9897697  22.9897697
 NucSpn=           3           3           3           3           3           3           3
 AtZEff=  -0.0000000  -0.0000000  -0.0000000  -0.0000000  -0.0000000  -0.0000000  -0.0000000
 NQMom=   10.4000000  10.4000000  10.4000000  10.4000000  10.4000000  10.4000000  10.4000000
 NMagM=    2.2175200   2.2175200   2.2175200   2.2175200   2.2175200   2.2175200   2.2175200
 AtZNuc=  11.0000000  11.0000000  11.0000000  11.0000000  11.0000000  11.0000000  11.0000000
 Leave Link  101 at Mon Nov 13 12:20:06 2023, MaxMem=  1879048192 cpu:               2.6 elap:               0.2
 (Enter /home/sekinelabo/g16/l103.exe)

 GradGradGradGradGradGradGradGradGradGradGradGradGradGradGradGradGradGrad
 Berny optimization.
 Initialization pass.
 Trust Radius=3.00D-01 FncErr=1.00D-07 GrdErr=1.00D-07 EigMax=2.50D+02 EigMin=1.00D-04
 Number of steps in this run=      2 maximum allowed number of steps=      2.
 GradGradGradGradGradGradGradGradGradGradGradGradGradGradGradGradGradGrad

 Leave Link  103 at Mon Nov 13 12:20:06 2023, MaxMem=  1879048192 cpu:               0.3 elap:               0.0
 (Enter /home/sekinelabo/g16/l202.exe)
                          Input orientation:                          
 ---------------------------------------------------------------------
 Center     Atomic      Atomic             Coordinates (Angstroms)
 Number     Number       Type             X           Y           Z
 ---------------------------------------------------------------------
      1         11           0        1.466191    1.920881    2.685571
      2         11           0        0.000000    3.832552    1.026905
      3         11           0        0.005681    0.000000    1.029169
      4         11           0        1.952587    1.919191    0.000000
      5         11           0        4.692978    1.917660    0.102572
      6         11           0        3.678764    0.373322    2.140025
      7         11           0        3.681194    3.464595    2.139344
 ---------------------------------------------------------------------
                    Distance matrix (angstroms):
                    1          2          3          4          5
     1  Na   0.000000
     2  Na   2.924957   0.000000
     3  Na   2.926865   3.832557   0.000000
     4  Na   2.729263   2.920287   2.921117   0.000000
     5  Na   4.133285   5.152207   5.148470   2.742310   0.000000
     6  Na   2.754640   5.170939   3.855504   3.154221   2.750422
     7  Na   2.754570   3.863172   5.171586   3.154860   2.750482
                    6          7
     6  Na   0.000000
     7  Na   3.091274   0.000000
 Stoichiometry    Na7(2)
 Framework group  C1[X(Na7)]
 Deg. of freedom    15
 Full point group                 C1      NOp   1
 Largest Abelian subgroup         C1      NOp   1
 Largest concise Abelian subgroup C1      NOp   1
                         Standard orientation:                         
 ---------------------------------------------------------------------
 Center     Atomic      Atomic             Coordinates (Angstroms)
 Number     Number       Type             X           Y           Z
 ---------------------------------------------------------------------
      1         11           0       -0.744866   -0.002567   -1.382202
      2         11           0       -2.211056   -1.914237    0.276464
      3         11           0       -2.205375    1.918314    0.274201
      4         11           0       -0.258469   -0.000877    1.303369
      5         11           0        2.481921    0.000655    1.200797
      6         11           0        1.467708    1.544992   -0.836656
      7         11           0        1.470138   -1.546281   -0.835974
 ---------------------------------------------------------------------
 Rotational constants (GHZ):           1.1740518           0.8007973           0.6667163
 Leave Link  202 at Mon Nov 13 12:20:06 2023, MaxMem=  1879048192 cpu:               0.0 elap:               0.0
 (Enter /home/sekinelabo/g16/l301.exe)
 Standard basis: 6-311+G(d) (5D, 7F)
 Ernie: Thresh=  0.10000D-02 Tol=  0.10000D-05 Strict=F.
 There are   217 symmetry adapted cartesian basis functions of A   symmetry.
 There are   210 symmetry adapted basis functions of A   symmetry.
   210 basis functions,   350 primitive gaussians,   217 cartesian basis functions
    39 alpha electrons       38 beta electrons
       nuclear repulsion energy       403.7913211707 Hartrees.
 IExCor=  402 DFT=T Ex+Corr=B3LYP ExCW=0 ScaHFX=  0.200000
 ScaDFX=  0.800000  0.720000  1.000000  0.810000 ScalE2=  1.000000  1.000000
 IRadAn=      5 IRanWt=     -1 IRanGd=            0 ICorTp=0 IEmpDi=  4
 NAtoms=    7 NActive=    7 NUniq=    7 SFac= 1.00D+00 NAtFMM=   60 NAOKFM=F Big=F
 Integral buffers will be    131072 words long.
 Raffenetti 2 integral format.
 Two-electron integral symmetry is turned on.
 Leave Link  301 at Mon Nov 13 12:20:06 2023, MaxMem=  1879048192 cpu:               0.5 elap:               0.0
 (Enter /home/sekinelabo/g16/l302.exe)
 NPDir=0 NMtPBC=     1 NCelOv=     1 NCel=       1 NClECP=     1 NCelD=      1
         NCelK=      1 NCelE2=     1 NClLst=     1 CellRange=     0.0.
 One-electron integrals computed using PRISM.
 One-electron integral symmetry used in STVInt
 NBasis=   210 RedAO= T EigKep=  1.70D-06  NBF=   210
 NBsUse=   210 1.00D-06 EigRej= -1.00D+00 NBFU=   210
 Precomputing XC quadrature grid using
 IXCGrd= 4 IRadAn=           5 IRanWt=          -1 IRanGd=           0 AccXCQ= 0.00D+00.
 Generated NRdTot=       0 NPtTot=           0 NUsed=           0 NTot=          32
 NSgBfM=   211   211   211   211   211 MxSgAt=     7 MxSgA2=     7.
 Leave Link  302 at Mon Nov 13 12:20:06 2023, MaxMem=  1879048192 cpu:               2.8 elap:               0.2
 (Enter /home/sekinelabo/g16/l303.exe)
 DipDrv:  MaxL=1.
 Leave Link  303 at Mon Nov 13 12:20:06 2023, MaxMem=  1879048192 cpu:               0.6 elap:               0.0
 (Enter /home/sekinelabo/g16/l401.exe)
 ExpMin= 7.60D-03 ExpMax= 3.62D+04 ExpMxC= 1.21D+03 IAcc=3 IRadAn=         5 AccDes= 0.00D+00
 Harris functional with IExCor=  402 and IRadAn=       5 diagonalized for initial guess.
 HarFok:  IExCor=  402 AccDes= 0.00D+00 IRadAn=         5 IDoV= 1 UseB2=F ITyADJ=14
 ICtDFT=  3500011 ScaDFX=  1.000000  1.000000  1.000000  1.000000
 FoFCou: FMM=F IPFlag=           0 FMFlag=      100000 FMFlg1=           0
         NFxFlg=           0 DoJE=T BraDBF=F KetDBF=T FulRan=T
         wScrn=  0.000000 ICntrl=       500 IOpCl=  0 I1Cent=   200000004 NGrid=           0
         NMat0=    1 NMatS0=      1 NMatT0=    0 NMatD0=    1 NMtDS0=    0 NMtDT0=    0
 Petite list used in FoFCou.
 Harris En= -1135.85341225283    
 JPrj=0 DoOrth=F DoCkMO=F.
 Initial guess <Sx>= 0.0000 <Sy>= 0.0000 <Sz>= 0.5000 <S**2>= 0.7500 S= 0.5000
 Leave Link  401 at Mon Nov 13 12:20:06 2023, MaxMem=  1879048192 cpu:               4.7 elap:               0.3
 (Enter /home/sekinelabo/g16/l502.exe)
 Keep R1 and R2 ints in memory in canonical form, NReq=507620388.
 FoFCou: FMM=F IPFlag=           0 FMFlag=           0 FMFlg1=           0
         NFxFlg=           0 DoJE=F BraDBF=F KetDBF=F FulRan=T
         wScrn=  0.000000 ICntrl=       600 IOpCl=  0 I1Cent=           0 NGrid=           0
         NMat0=    1 NMatS0=  22155 NMatT0=    0 NMatD0=    1 NMtDS0=    0 NMtDT0=    0
 Symmetry not used in FoFCou.
 Two-electron integral symmetry not used.
 UHF open shell SCF:
 Using DIIS extrapolation, IDIIS=  1040.
 NGot=  1879048192 LenX=  1388082348 LenY=  1388034818
 Requested convergence on RMS density matrix=1.00D-08 within 128 cycles.
 Requested convergence on MAX density matrix=1.00D-06.
 Requested convergence on             energy=1.00D-06.
 No special actions if energy rises.

 Cycle   1  Pass 1  IDiag  1:
 E= -1136.02696144181    
 DIIS: error= 1.57D-02 at cycle   1 NSaved=   1.
 NSaved= 1 IEnMin= 1 EnMin= -1136.02696144181     IErMin= 1 ErrMin= 1.57D-02
 ErrMax= 1.57D-02  0.00D+00 EMaxC= 1.00D-01 BMatC= 2.17D-01 BMatP= 2.17D-01
 IDIUse=3 WtCom= 8.43D-01 WtEn= 1.57D-01
 Coeff-Com:  0.100D+01
 Coeff-En:   0.100D+01
 Coeff:      0.100D+01
 Gap=     0.057 Goal=   None    Shift=    0.000
 Gap=     0.035 Goal=   None    Shift=    0.000
 GapD=    0.035 DampG=0.250 DampE=0.500 DampFc=0.2500 IDamp=-1.
 Damping current iteration by 2.50D-01
 RMSDP=9.29D-02 MaxDP=5.13D+00              OVMax= 2.85D-01

 Cycle   2  Pass 1  IDiag  1:
 E= -1136.04528495327     Delta-E=       -0.018323511467 Rises=F Damp=T
 DIIS: error= 8.33D-03 at cycle   2 NSaved=   2.
 NSaved= 2 IEnMin= 2 EnMin= -1136.04528495327     IErMin= 2 ErrMin= 8.33D-03
 ErrMax= 8.33D-03  0.00D+00 EMaxC= 1.00D-01 BMatC= 8.05D-02 BMatP= 2.17D-01
 IDIUse=3 WtCom= 9.17D-01 WtEn= 8.33D-02
 Coeff-Com: -0.122D+01 0.222D+01
 Coeff-En:   0.000D+00 0.100D+01
 Coeff:     -0.112D+01 0.212D+01
 Gap=     0.067 Goal=   None    Shift=    0.000
 Gap=     0.041 Goal=   None    Shift=    0.000
 RMSDP=3.55D-02 MaxDP=2.31D+00 DE=-1.83D-02 OVMax= 2.00D-01

 Cycle   3  Pass 1  IDiag  1:
 E= -1136.07429238647     Delta-E=       -0.029007433197 Rises=F Damp=F
 DIIS: error= 4.54D-03 at cycle   3 NSaved=   3.
 NSaved= 3 IEnMin= 3 EnMin= -1136.07429238647     IErMin= 3 ErrMin= 4.54D-03
 ErrMax= 4.54D-03  0.00D+00 EMaxC= 1.00D-01 BMatC= 6.81D-03 BMatP= 8.05D-02
 IDIUse=3 WtCom= 9.55D-01 WtEn= 4.54D-02
 Coeff-Com: -0.364D+00 0.655D+00 0.709D+00
 Coeff-En:   0.000D+00 0.000D+00 0.100D+01
 Coeff:     -0.348D+00 0.625D+00 0.722D+00
 Gap=     0.063 Goal=   None    Shift=    0.000
 Gap=     0.039 Goal=   None    Shift=    0.000
 RMSDP=2.03D-02 MaxDP=1.04D+00 DE=-2.90D-02 OVMax= 6.49D-02

 Cycle   4  Pass 1  IDiag  1:
 E= -1136.07623656224     Delta-E=       -0.001944175765 Rises=F Damp=F
 DIIS: error= 3.05D-03 at cycle   4 NSaved=   4.
 NSaved= 4 IEnMin= 4 EnMin= -1136.07623656224     IErMin= 4 ErrMin= 3.05D-03
 ErrMax= 3.05D-03  0.00D+00 EMaxC= 1.00D-01 BMatC= 3.21D-03 BMatP= 6.81D-03
 IDIUse=3 WtCom= 9.69D-01 WtEn= 3.05D-02
 Coeff-Com: -0.761D-02 0.114D-01 0.406D+00 0.591D+00
 Coeff-En:   0.000D+00 0.000D+00 0.344D+00 0.656D+00
 Coeff:     -0.738D-02 0.111D-01 0.404D+00 0.593D+00
 Gap=     0.065 Goal=   None    Shift=    0.000
 Gap=     0.041 Goal=   None    Shift=    0.000
 RMSDP=5.84D-03 MaxDP=3.09D-01 DE=-1.94D-03 OVMax= 3.36D-02

 Cycle   5  Pass 1  IDiag  1:
 E= -1136.07794779853     Delta-E=       -0.001711236291 Rises=F Damp=F
 DIIS: error= 6.66D-04 at cycle   5 NSaved=   5.
 NSaved= 5 IEnMin= 5 EnMin= -1136.07794779853     IErMin= 5 ErrMin= 6.66D-04
 ErrMax= 6.66D-04  0.00D+00 EMaxC= 1.00D-01 BMatC= 1.08D-04 BMatP= 3.21D-03
 IDIUse=3 WtCom= 9.93D-01 WtEn= 6.66D-03
 Coeff-Com: -0.436D-02 0.550D-02 0.248D+00 0.369D+00 0.383D+00
 Coeff-En:   0.000D+00 0.000D+00 0.000D+00 0.000D+00 0.100D+01
 Coeff:     -0.434D-02 0.546D-02 0.246D+00 0.366D+00 0.387D+00
 Gap=     0.065 Goal=   None    Shift=    0.000
 Gap=     0.040 Goal=   None    Shift=    0.000
 RMSDP=9.52D-04 MaxDP=4.77D-02 DE=-1.71D-03 OVMax= 1.07D-02

 Cycle   6  Pass 1  IDiag  1:
 E= -1136.07805835559     Delta-E=       -0.000110557065 Rises=F Damp=F
 DIIS: error= 1.62D-04 at cycle   6 NSaved=   6.
 NSaved= 6 IEnMin= 6 EnMin= -1136.07805835559     IErMin= 6 ErrMin= 1.62D-04
 ErrMax= 1.62D-04  0.00D+00 EMaxC= 1.00D-01 BMatC= 5.30D-06 BMatP= 1.08D-04
 IDIUse=3 WtCom= 9.98D-01 WtEn= 1.62D-03
 Coeff-Com: -0.126D-02 0.127D-02-0.122D-01-0.189D-01 0.151D+00 0.880D+00
 Coeff-En:   0.000D+00 0.000D+00 0.000D+00 0.000D+00 0.000D+00 0.100D+01
 Coeff:     -0.125D-02 0.126D-02-0.122D-01-0.189D-01 0.151D+00 0.880D+00
 Gap=     0.065 Goal=   None    Shift=    0.000
 Gap=     0.041 Goal=   None    Shift=    0.000
 RMSDP=4.23D-04 MaxDP=2.78D-02 DE=-1.11D-04 OVMax= 3.89D-03

 Cycle   7  Pass 1  IDiag  1:
 E= -1136.07806439931     Delta-E=       -0.000006043714 Rises=F Damp=F
 DIIS: error= 8.70D-05 at cycle   7 NSaved=   7.
 NSaved= 7 IEnMin= 7 EnMin= -1136.07806439931     IErMin= 7 ErrMin= 8.70D-05
 ErrMax= 8.70D-05  0.00D+00 EMaxC= 1.00D-01 BMatC= 1.91D-06 BMatP= 5.30D-06
 IDIUse=1 WtCom= 1.00D+00 WtEn= 0.00D+00
 Coeff-Com: -0.366D-03 0.250D-03-0.326D-01-0.486D-01 0.555D-01 0.529D+00
 Coeff-Com:  0.497D+00
 Coeff:     -0.366D-03 0.250D-03-0.326D-01-0.486D-01 0.555D-01 0.529D+00
 Coeff:      0.497D+00
 Gap=     0.065 Goal=   None    Shift=    0.000
 Gap=     0.041 Goal=   None    Shift=    0.000
 RMSDP=2.62D-04 MaxDP=2.21D-02 DE=-6.04D-06 OVMax= 1.84D-03

 Cycle   8  Pass 1  IDiag  1:
 E= -1136.07806644659     Delta-E=       -0.000002047279 Rises=F Damp=F
 DIIS: error= 3.30D-05 at cycle   8 NSaved=   8.
 NSaved= 8 IEnMin= 8 EnMin= -1136.07806644659     IErMin= 8 ErrMin= 3.30D-05
 ErrMax= 3.30D-05  0.00D+00 EMaxC= 1.00D-01 BMatC= 1.92D-07 BMatP= 1.91D-06
 IDIUse=1 WtCom= 1.00D+00 WtEn= 0.00D+00
 Coeff-Com:  0.567D-03-0.737D-03-0.659D-02-0.836D-02-0.287D-01-0.135D+00
 Coeff-Com:  0.174D+00 0.100D+01
 Coeff:      0.567D-03-0.737D-03-0.659D-02-0.836D-02-0.287D-01-0.135D+00
 Coeff:      0.174D+00 0.100D+01
 Gap=     0.065 Goal=   None    Shift=    0.000
 Gap=     0.041 Goal=   None    Shift=    0.000
 RMSDP=1.60D-04 MaxDP=9.71D-03 DE=-2.05D-06 OVMax= 1.10D-03

 Cycle   9  Pass 1  IDiag  1:
 E= -1136.07806688111     Delta-E=       -0.000000434520 Rises=F Damp=F
 DIIS: error= 8.17D-06 at cycle   9 NSaved=   9.
 NSaved= 9 IEnMin= 9 EnMin= -1136.07806688111     IErMin= 9 ErrMin= 8.17D-06
 ErrMax= 8.17D-06  0.00D+00 EMaxC= 1.00D-01 BMatC= 1.16D-08 BMatP= 1.92D-07
 IDIUse=1 WtCom= 1.00D+00 WtEn= 0.00D+00
 Coeff-Com:  0.259D-03-0.319D-03 0.238D-02 0.377D-02-0.106D-01-0.687D-01
 Coeff-Com: -0.301D-01 0.117D+00 0.986D+00
 Coeff:      0.259D-03-0.319D-03 0.238D-02 0.377D-02-0.106D-01-0.687D-01
 Coeff:     -0.301D-01 0.117D+00 0.986D+00
 Gap=     0.065 Goal=   None    Shift=    0.000
 Gap=     0.041 Goal=   None    Shift=    0.000
 RMSDP=7.14D-05 MaxDP=3.85D-03 DE=-4.35D-07 OVMax= 3.70D-04

 Cycle  10  Pass 1  IDiag  1:
 E= -1136.07806692784     Delta-E=       -0.000000046734 Rises=F Damp=F
 DIIS: error= 3.93D-06 at cycle  10 NSaved=  10.
 NSaved=10 IEnMin=10 EnMin= -1136.07806692784     IErMin=10 ErrMin= 3.93D-06
 ErrMax= 3.93D-06  0.00D+00 EMaxC= 1.00D-01 BMatC= 2.32D-09 BMatP= 1.16D-08
 IDIUse=1 WtCom= 1.00D+00 WtEn= 0.00D+00
 Coeff-Com: -0.704D-04 0.100D-03 0.113D-02 0.142D-02 0.201D-02 0.665D-02
 Coeff-Com: -0.237D-01-0.113D+00 0.136D+00 0.989D+00
 Coeff:     -0.704D-04 0.100D-03 0.113D-02 0.142D-02 0.201D-02 0.665D-02
 Coeff:     -0.237D-01-0.113D+00 0.136D+00 0.989D+00
 Gap=     0.065 Goal=   None    Shift=    0.000
 Gap=     0.041 Goal=   None    Shift=    0.000
 RMSDP=3.84D-05 MaxDP=2.76D-03 DE=-4.67D-08 OVMax= 1.69D-04

 Cycle  11  Pass 1  IDiag  1:
 E= -1136.07806693712     Delta-E=       -0.000000009280 Rises=F Damp=F
 DIIS: error= 1.69D-06 at cycle  11 NSaved=  11.
 NSaved=11 IEnMin=11 EnMin= -1136.07806693712     IErMin=11 ErrMin= 1.69D-06
 ErrMax= 1.69D-06  0.00D+00 EMaxC= 1.00D-01 BMatC= 5.29D-10 BMatP= 2.32D-09
 IDIUse=1 WtCom= 1.00D+00 WtEn= 0.00D+00
 Coeff-Com: -0.934D-04 0.120D-03-0.217D-03-0.430D-03 0.291D-02 0.179D-01
 Coeff-Com:  0.455D-04-0.582D-01-0.197D+00 0.223D+00 0.101D+01
 Coeff:     -0.934D-04 0.120D-03-0.217D-03-0.430D-03 0.291D-02 0.179D-01
 Coeff:      0.455D-04-0.582D-01-0.197D+00 0.223D+00 0.101D+01
 Gap=     0.065 Goal=   None    Shift=    0.000
 Gap=     0.041 Goal=   None    Shift=    0.000
 RMSDP=2.18D-05 MaxDP=1.42D-03 DE=-9.28D-09 OVMax= 9.54D-05

 Cycle  12  Pass 1  IDiag  1:
 E= -1136.07806693939     Delta-E=       -0.000000002269 Rises=F Damp=F
 DIIS: error= 4.56D-07 at cycle  12 NSaved=  12.
 NSaved=12 IEnMin=12 EnMin= -1136.07806693939     IErMin=12 ErrMin= 4.56D-07
 ErrMax= 4.56D-07  0.00D+00 EMaxC= 1.00D-01 BMatC= 5.36D-11 BMatP= 5.29D-10
 IDIUse=1 WtCom= 1.00D+00 WtEn= 0.00D+00
 Coeff-Com:  0.176D-04-0.246D-04-0.757D-04-0.919D-04-0.227D-03-0.118D-02
 Coeff-Com:  0.232D-02 0.148D-01-0.188D-01-0.132D+00 0.235D-01 0.111D+01
 Coeff:      0.176D-04-0.246D-04-0.757D-04-0.919D-04-0.227D-03-0.118D-02
 Coeff:      0.232D-02 0.148D-01-0.188D-01-0.132D+00 0.235D-01 0.111D+01
 Gap=     0.065 Goal=   None    Shift=    0.000
 Gap=     0.041 Goal=   None    Shift=    0.000
 RMSDP=6.87D-06 MaxDP=4.83D-04 DE=-2.27D-09 OVMax= 3.12D-05

 Cycle  13  Pass 1  IDiag  1:
 E= -1136.07806693969     Delta-E=       -0.000000000297 Rises=F Damp=F
 DIIS: error= 2.03D-07 at cycle  13 NSaved=  13.
 NSaved=13 IEnMin=13 EnMin= -1136.07806693969     IErMin=13 ErrMin= 2.03D-07
 ErrMax= 2.03D-07  0.00D+00 EMaxC= 1.00D-01 BMatC= 6.91D-12 BMatP= 5.36D-11
 IDIUse=1 WtCom= 1.00D+00 WtEn= 0.00D+00
 Coeff-Com:  0.116D-04-0.149D-04-0.523D-05 0.146D-04-0.407D-03-0.219D-02
 Coeff-Com:  0.192D-03 0.805D-02 0.273D-01-0.290D-01-0.143D+00-0.557D-01
 Coeff-Com:  0.119D+01
 Coeff:      0.116D-04-0.149D-04-0.523D-05 0.146D-04-0.407D-03-0.219D-02
 Coeff:      0.192D-03 0.805D-02 0.273D-01-0.290D-01-0.143D+00-0.557D-01
 Coeff:      0.119D+01
 Gap=     0.065 Goal=   None    Shift=    0.000
 Gap=     0.041 Goal=   None    Shift=    0.000
 RMSDP=2.33D-06 MaxDP=1.86D-04 DE=-2.97D-10 OVMax= 1.31D-05

 Cycle  14  Pass 1  IDiag  1:
 E= -1136.07806693969     Delta-E=       -0.000000000008 Rises=F Damp=F
 DIIS: error= 5.64D-08 at cycle  14 NSaved=  14.
 NSaved=14 IEnMin=14 EnMin= -1136.07806693969     IErMin=14 ErrMin= 5.64D-08
 ErrMax= 5.64D-08  0.00D+00 EMaxC= 1.00D-01 BMatC= 1.10D-12 BMatP= 6.91D-12
 IDIUse=1 WtCom= 1.00D+00 WtEn= 0.00D+00
 Coeff-Com:  0.749D-06-0.748D-06 0.156D-05 0.743D-05-0.706D-04-0.398D-03
 Coeff-Com: -0.135D-03 0.579D-03 0.824D-02 0.681D-02-0.374D-01-0.121D+00
 Coeff-Com:  0.251D+00 0.893D+00
 Coeff:      0.749D-06-0.748D-06 0.156D-05 0.743D-05-0.706D-04-0.398D-03
 Coeff:     -0.135D-03 0.579D-03 0.824D-02 0.681D-02-0.374D-01-0.121D+00
 Coeff:      0.251D+00 0.893D+00
 Gap=     0.065 Goal=   None    Shift=    0.000
 Gap=     0.041 Goal=   None    Shift=    0.000
 RMSDP=4.86D-07 MaxDP=4.70D-05 DE=-8.19D-12 OVMax= 3.67D-06

 Cycle  15  Pass 1  IDiag  1:
 E= -1136.07806693972     Delta-E=       -0.000000000029 Rises=F Damp=F
 DIIS: error= 4.65D-08 at cycle  15 NSaved=  15.
 NSaved=15 IEnMin=15 EnMin= -1136.07806693972     IErMin=15 ErrMin= 4.65D-08
 ErrMax= 4.65D-08  0.00D+00 EMaxC= 1.00D-01 BMatC= 8.03D-13 BMatP= 1.10D-12
 IDIUse=1 WtCom= 1.00D+00 WtEn= 0.00D+00
 Coeff-Com: -0.165D-05 0.226D-05 0.179D-05 0.769D-06 0.371D-04 0.146D-03
 Coeff-Com: -0.850D-04-0.101D-02-0.791D-03 0.918D-02 0.586D-02-0.568D-01
 Coeff-Com: -0.996D-01 0.563D+00 0.580D+00
 Coeff:     -0.165D-05 0.226D-05 0.179D-05 0.769D-06 0.371D-04 0.146D-03
 Coeff:     -0.850D-04-0.101D-02-0.791D-03 0.918D-02 0.586D-02-0.568D-01
 Coeff:     -0.996D-01 0.563D+00 0.580D+00
 Gap=     0.065 Goal=   None    Shift=    0.000
 Gap=     0.041 Goal=   None    Shift=    0.000
 RMSDP=1.78D-07 MaxDP=1.58D-05 DE=-2.91D-11 OVMax= 1.59D-06

 Cycle  16  Pass 1  IDiag  1:
 E= -1136.07806693972     Delta-E=       -0.000000000001 Rises=F Damp=F
 DIIS: error= 1.50D-08 at cycle  16 NSaved=  16.
 NSaved=16 IEnMin=16 EnMin= -1136.07806693972     IErMin=16 ErrMin= 1.50D-08
 ErrMax= 1.50D-08  0.00D+00 EMaxC= 1.00D-01 BMatC= 6.12D-14 BMatP= 8.03D-13
 IDIUse=1 WtCom= 1.00D+00 WtEn= 0.00D+00
 Coeff-Com: -0.352D-06 0.443D-06 0.655D-06-0.158D-05 0.225D-04 0.908D-04
 Coeff-Com:  0.210D-04-0.220D-03-0.219D-02 0.343D-03 0.963D-02 0.135D-01
 Coeff-Com: -0.826D-01-0.189D-01 0.162D+00 0.918D+00
 Coeff:     -0.352D-06 0.443D-06 0.655D-06-0.158D-05 0.225D-04 0.908D-04
 Coeff:      0.210D-04-0.220D-03-0.219D-02 0.343D-03 0.963D-02 0.135D-01
 Coeff:     -0.826D-01-0.189D-01 0.162D+00 0.918D+00
 Gap=     0.065 Goal=   None    Shift=    0.000
 Gap=     0.041 Goal=   None    Shift=    0.000
 RMSDP=1.04D-07 MaxDP=7.10D-06 DE=-9.09D-13 OVMax= 7.90D-07

 Cycle  17  Pass 1  IDiag  1:
 E= -1136.07806693973     Delta-E=       -0.000000000002 Rises=F Damp=F
 DIIS: error= 7.08D-09 at cycle  17 NSaved=  17.
 NSaved=17 IEnMin=17 EnMin= -1136.07806693973     IErMin=17 ErrMin= 7.08D-09
 ErrMax= 7.08D-09  0.00D+00 EMaxC= 1.00D-01 BMatC= 1.19D-14 BMatP= 6.12D-14
 IDIUse=1 WtCom= 1.00D+00 WtEn= 0.00D+00
 Coeff-Com:  0.202D-06-0.296D-06 0.636D-07-0.277D-06-0.107D-05 0.181D-04
 Coeff-Com:  0.428D-05 0.520D-04-0.295D-03-0.150D-02 0.142D-02 0.123D-01
 Coeff-Com:  0.370D-02-0.125D+00-0.805D-01 0.253D+00 0.937D+00
 Coeff:      0.202D-06-0.296D-06 0.636D-07-0.277D-06-0.107D-05 0.181D-04
 Coeff:      0.428D-05 0.520D-04-0.295D-03-0.150D-02 0.142D-02 0.123D-01
 Coeff:      0.370D-02-0.125D+00-0.805D-01 0.253D+00 0.937D+00
 Gap=     0.065 Goal=   None    Shift=    0.000
 Gap=     0.041 Goal=   None    Shift=    0.000
 RMSDP=3.83D-08 MaxDP=2.26D-06 DE=-1.82D-12 OVMax= 3.94D-07

 Cycle  18  Pass 1  IDiag  1:
 E= -1136.07806693973     Delta-E=       -0.000000000007 Rises=F Damp=F
 DIIS: error= 2.69D-09 at cycle  18 NSaved=  18.
 NSaved=18 IEnMin=18 EnMin= -1136.07806693973     IErMin=18 ErrMin= 2.69D-09
 ErrMax= 2.69D-09  0.00D+00 EMaxC= 1.00D-01 BMatC= 1.34D-15 BMatP= 1.19D-14
 IDIUse=1 WtCom= 1.00D+00 WtEn= 0.00D+00
 Large coefficients: NSaved= 18 BigCof=    0.00 CofMax=   10.00 Det=-3.76D-15
 Inversion failed.  Reducing to 17 matrices.
 Large coefficients: NSaved= 17 BigCof=    0.00 CofMax=   10.00 Det=-3.95D-15
 Inversion failed.  Reducing to 16 matrices.
 Large coefficients: NSaved= 16 BigCof=    0.00 CofMax=   10.00 Det=-3.96D-15
 Inversion failed.  Reducing to 15 matrices.
 Coeff-Com:  0.558D-06-0.186D-05-0.145D-04-0.686D-06 0.291D-04 0.316D-03
 Coeff-Com: -0.483D-04-0.123D-02-0.253D-02 0.135D-01-0.891D-03-0.284D-01
 Coeff-Com: -0.140D+00 0.266D-01 0.113D+01
 Coeff:      0.558D-06-0.186D-05-0.145D-04-0.686D-06 0.291D-04 0.316D-03
 Coeff:     -0.483D-04-0.123D-02-0.253D-02 0.135D-01-0.891D-03-0.284D-01
 Coeff:     -0.140D+00 0.266D-01 0.113D+01
 Gap=     0.065 Goal=   None    Shift=    0.000
 Gap=     0.041 Goal=   None    Shift=    0.000
 RMSDP=2.42D-08 MaxDP=1.80D-06 DE=-6.82D-12 OVMax= 1.77D-07

 Cycle  19  Pass 1  IDiag  1:
 E= -1136.07806693972     Delta-E=        0.000000000014 Rises=F Damp=F
 DIIS: error= 6.99D-10 at cycle  19 NSaved=  16.
 NSaved=16 IEnMin=15 EnMin= -1136.07806693973     IErMin=16 ErrMin= 6.99D-10
 ErrMax= 6.99D-10  0.00D+00 EMaxC= 1.00D-01 BMatC= 1.28D-16 BMatP= 1.34D-15
 IDIUse=1 WtCom= 1.00D+00 WtEn= 0.00D+00
 Large coefficients: NSaved= 16 BigCof=    0.00 CofMax=   10.00 Det=-3.07D-16
 Inversion failed.  Reducing to 15 matrices.
 Coeff-Com: -0.512D-06-0.309D-05-0.321D-06 0.383D-05 0.417D-05 0.119D-03
 Coeff-Com: -0.266D-03-0.286D-03-0.772D-03 0.862D-02 0.785D-02-0.497D-02
 Coeff-Com: -0.715D-01-0.141D+00 0.120D+01
 Coeff:     -0.512D-06-0.309D-05-0.321D-06 0.383D-05 0.417D-05 0.119D-03
 Coeff:     -0.266D-03-0.286D-03-0.772D-03 0.862D-02 0.785D-02-0.497D-02
 Coeff:     -0.715D-01-0.141D+00 0.120D+01
 Gap=     0.065 Goal=   None    Shift=    0.000
 Gap=     0.041 Goal=   None    Shift=    0.000
 RMSDP=1.43D-08 MaxDP=7.03D-07 DE= 1.36D-11 OVMax= 5.06D-08

 Cycle  20  Pass 1  IDiag  1:
 E= -1136.07806693972     Delta-E=       -0.000000000004 Rises=F Damp=F
 DIIS: error= 3.40D-10 at cycle  20 NSaved=  16.
 NSaved=16 IEnMin=14 EnMin= -1136.07806693973     IErMin=16 ErrMin= 3.40D-10
 ErrMax= 3.40D-10  0.00D+00 EMaxC= 1.00D-01 BMatC= 3.60D-17 BMatP= 1.28D-16
 IDIUse=1 WtCom= 1.00D+00 WtEn= 0.00D+00
 Large coefficients: NSaved= 16 BigCof=    0.00 CofMax=   10.00 Det=-6.12D-17
 Inversion failed.  Reducing to 15 matrices.
 Coeff-Com:  0.392D-07 0.761D-07-0.243D-05 0.110D-04 0.472D-04-0.734D-04
 Coeff-Com: -0.470D-03 0.291D-03 0.417D-02 0.268D-02-0.781D-02-0.355D-01
 Coeff-Com: -0.398D-01 0.280D+00 0.796D+00
 Coeff:      0.392D-07 0.761D-07-0.243D-05 0.110D-04 0.472D-04-0.734D-04
 Coeff:     -0.470D-03 0.291D-03 0.417D-02 0.268D-02-0.781D-02-0.355D-01
 Coeff:     -0.398D-01 0.280D+00 0.796D+00
 Gap=     0.065 Goal=   None    Shift=    0.000
 Gap=     0.041 Goal=   None    Shift=    0.000
 RMSDP=7.06D-09 MaxDP=6.42D-07 DE=-4.09D-12 OVMax= 1.68D-08

 SCF Done:  E(UB3LYP) =  -1136.07806694     A.U. after   20 cycles
            NFock= 20  Conv=0.71D-08     -V/T= 2.0023
 <Sx>= 0.0000 <Sy>= 0.0000 <Sz>= 0.5000 <S**2>= 0.7605 S= 0.5052
 <L.S>= 0.000000000000E+00
 KE= 1.133460053630D+03 PE=-3.537086216699D+03 EE= 8.637567749582D+02
 Annihilation of the first spin contaminant:
 S**2 before annihilation     0.7605,   after     0.7501
 Leave Link  502 at Mon Nov 13 12:20:25 2023, MaxMem=  1879048192 cpu:             217.3 elap:              18.1
 (Enter /home/sekinelabo/g16/l601.exe)
 Copying SCF densities to generalized density rwf, IOpCl= 1 IROHF=0.

 **********************************************************************

            Population analysis using the SCF Density.

 **********************************************************************

 Orbital symmetries:
 Alpha Orbitals:
       Occupied  (A) (A) (A) (A) (A) (A) (A) (A) (A) (A) (A) (A)
                 (A) (A) (A) (A) (A) (A) (A) (A) (A) (A) (A) (A)
                 (A) (A) (A) (A) (A) (A) (A) (A) (A) (A) (A) (A)
                 (A) (A) (A)
       Virtual   (A) (A) (A) (A) (A) (A) (A) (A) (A) (A) (A) (A)
                 (A) (A) (A) (A) (A) (A) (A) (A) (A) (A) (A) (A)
                 (A) (A) (A) (A) (A) (A) (A) (A) (A) (A) (A) (A)
                 (A) (A) (A) (A) (A) (A) (A) (A) (A) (A) (A) (A)
                 (A) (A) (A) (A) (A) (A) (A) (A) (A) (A) (A) (A)
                 (A) (A) (A) (A) (A) (A) (A) (A) (A) (A) (A) (A)
                 (A) (A) (A) (A) (A) (A) (A) (A) (A) (A) (A) (A)
                 (A) (A) (A) (A) (A) (A) (A) (A) (A) (A) (A) (A)
                 (A) (A) (A) (A) (A) (A) (A) (A) (A) (A) (A) (A)
                 (A) (A) (A) (A) (A) (A) (A) (A) (A) (A) (A) (A)
                 (A) (A) (A) (A) (A) (A) (A) (A) (A) (A) (A) (A)
                 (A) (A) (A) (A) (A) (A) (A) (A) (A) (A) (A) (A)
                 (A) (A) (A) (A) (A) (A) (A) (A) (A) (A) (A) (A)
                 (A) (A) (A) (A) (A) (A) (A) (A) (A) (A) (A) (A)
                 (A) (A) (A)
 Beta  Orbitals:
       Occupied  (A) (A) (A) (A) (A) (A) (A) (A) (A) (A) (A) (A)
                 (A) (A) (A) (A) (A) (A) (A) (A) (A) (A) (A) (A)
                 (A) (A) (A) (A) (A) (A) (A) (A) (A) (A) (A) (A)
                 (A) (A)
       Virtual   (A) (A) (A) (A) (A) (A) (A) (A) (A) (A) (A) (A)
                 (A) (A) (A) (A) (A) (A) (A) (A) (A) (A) (A) (A)
                 (A) (A) (A) (A) (A) (A) (A) (A) (A) (A) (A) (A)
                 (A) (A) (A) (A) (A) (A) (A) (A) (A) (A) (A) (A)
                 (A) (A) (A) (A) (A) (A) (A) (A) (A) (A) (A) (A)
                 (A) (A) (A) (A) (A) (A) (A) (A) (A) (A) (A) (A)
                 (A) (A) (A) (A) (A) (A) (A) (A) (A) (A) (A) (A)
                 (A) (A) (A) (A) (A) (A) (A) (A) (A) (A) (A) (A)
                 (A) (A) (A) (A) (A) (A) (A) (A) (A) (A) (A) (A)
                 (A) (A) (A) (A) (A) (A) (A) (A) (A) (A) (A) (A)
                 (A) (A) (A) (A) (A) (A) (A) (A) (A) (A) (A) (A)
                 (A) (A) (A) (A) (A) (A) (A) (A) (A) (A) (A) (A)
                 (A) (A) (A) (A) (A) (A) (A) (A) (A) (A) (A) (A)
                 (A) (A) (A) (A) (A) (A) (A) (A) (A) (A) (A) (A)
                 (A) (A) (A) (A)
 The electronic state is 2-A.
 Alpha  occ. eigenvalues --  -38.44799 -38.43796 -38.43654 -38.43651 -38.43636
 Alpha  occ. eigenvalues --  -38.43630 -38.43614  -2.20915  -2.20177  -2.19970
 Alpha  occ. eigenvalues --   -2.19790  -2.19782  -2.19578  -2.19568  -1.14778
 Alpha  occ. eigenvalues --   -1.14605  -1.14559  -1.14221  -1.14042  -1.13912
 Alpha  occ. eigenvalues --   -1.13662  -1.13584  -1.13508  -1.13467  -1.13417
 Alpha  occ. eigenvalues --   -1.13408  -1.13406  -1.13333  -1.13260  -1.13228
 Alpha  occ. eigenvalues --   -1.13221  -1.13213  -1.13202  -1.13146  -1.13131
 Alpha  occ. eigenvalues --   -0.21015  -0.14237  -0.12017  -0.11956
 Alpha virt. eigenvalues --   -0.05460  -0.04792  -0.03978  -0.03235  -0.02577
 Alpha virt. eigenvalues --   -0.02498  -0.01374  -0.00813  -0.00239   0.00341
 Alpha virt. eigenvalues --    0.00683   0.00775   0.00912   0.00929   0.01090
 Alpha virt. eigenvalues --    0.01115   0.01116   0.01330   0.01419   0.01435
 Alpha virt. eigenvalues --    0.01585   0.01684   0.01944   0.01977   0.02037
 Alpha virt. eigenvalues --    0.02682   0.02750   0.02806   0.02833   0.02932
 Alpha virt. eigenvalues --    0.03037   0.03073   0.03078   0.03166   0.03172
 Alpha virt. eigenvalues --    0.03209   0.03280   0.03302   0.04045   0.04105
 Alpha virt. eigenvalues --    0.04553   0.04820   0.04916   0.05111   0.05322
 Alpha virt. eigenvalues --    0.05373   0.05590   0.05600   0.06042   0.06053
 Alpha virt. eigenvalues --    0.06596   0.06966   0.07096   0.07681   0.07758
 Alpha virt. eigenvalues --    0.08078   0.08091   0.08589   0.08866   0.08942
 Alpha virt. eigenvalues --    0.09963   0.10468   0.11866   0.12164   0.12762
 Alpha virt. eigenvalues --    0.13106   0.13123   0.13333   0.13840   0.13991
 Alpha virt. eigenvalues --    0.13995   0.14748   0.14819   0.15332   0.15550
 Alpha virt. eigenvalues --    0.16246   0.16522   0.17336   0.18190   0.19832
 Alpha virt. eigenvalues --    0.23977   0.25246   0.26827   0.26835   0.29827
 Alpha virt. eigenvalues --    0.30630   0.31937   0.33094   0.34064   0.35343
 Alpha virt. eigenvalues --    0.35943   0.36999   0.37445   0.38358   0.38547
 Alpha virt. eigenvalues --    0.40509   0.41856   0.42646   0.42903   0.43860
 Alpha virt. eigenvalues --    0.44430   0.44614   0.44933   0.45715   0.45862
 Alpha virt. eigenvalues --    0.46970   0.47004   0.47090   0.48883   0.49294
 Alpha virt. eigenvalues --    0.50199   0.50695   0.51609   0.52215   0.52410
 Alpha virt. eigenvalues --    0.52861   0.53787   0.54499   0.54972   0.55278
 Alpha virt. eigenvalues --    0.55874   0.56166   0.58080   0.62695   0.64549
 Alpha virt. eigenvalues --    0.66563   0.70902   0.74803   0.75102   0.77482
 Alpha virt. eigenvalues --    0.78557   0.81164   0.81809   0.84349   0.85383
 Alpha virt. eigenvalues --    0.88131   2.12007   2.20972   2.22045   2.23334
 Alpha virt. eigenvalues --    2.27980   2.34681   2.44076   4.41582   4.42500
 Alpha virt. eigenvalues --    4.42948   4.43476   4.43755   4.47136   4.47468
 Alpha virt. eigenvalues --    4.47620   4.48372   4.50011   4.52239   4.56385
 Alpha virt. eigenvalues --    4.61299   4.67795   4.70195   4.76921   4.79971
 Alpha virt. eigenvalues --    4.83253   4.84575   4.85156   4.94602  96.33435
 Alpha virt. eigenvalues --   96.45466  96.48186  96.50148  96.56118  96.66140
 Alpha virt. eigenvalues --   96.78387
  Beta  occ. eigenvalues --  -38.44753 -38.43724 -38.43633 -38.43627 -38.43621
  Beta  occ. eigenvalues --  -38.43617 -38.43550  -2.20834  -2.20054  -2.19858
  Beta  occ. eigenvalues --   -2.19735  -2.19728  -2.19574  -2.19564  -1.14728
  Beta  occ. eigenvalues --   -1.14522  -1.14503  -1.14146  -1.13930  -1.13834
  Beta  occ. eigenvalues --   -1.13585  -1.13518  -1.13435  -1.13415  -1.13391
  Beta  occ. eigenvalues --   -1.13334  -1.13328  -1.13292  -1.13217  -1.13203
  Beta  occ. eigenvalues --   -1.13193  -1.13189  -1.13175  -1.13143  -1.13128
  Beta  occ. eigenvalues --   -0.20215  -0.13986  -0.11714
  Beta virt. eigenvalues --   -0.07651  -0.05399  -0.04753  -0.03242  -0.03052
  Beta virt. eigenvalues --   -0.01805  -0.01576  -0.01189  -0.00797   0.00007
  Beta virt. eigenvalues --    0.00374   0.00667   0.00825   0.00901   0.00997
  Beta virt. eigenvalues --    0.01131   0.01211   0.01212   0.01437   0.01534
  Beta virt. eigenvalues --    0.01605   0.01687   0.01722   0.01964   0.02056
  Beta virt. eigenvalues --    0.02166   0.02685   0.02737   0.02817   0.02827
  Beta virt. eigenvalues --    0.02978   0.03053   0.03115   0.03117   0.03194
  Beta virt. eigenvalues --    0.03286   0.03293   0.03381   0.03471   0.04207
  Beta virt. eigenvalues --    0.04228   0.04603   0.04990   0.05114   0.05191
  Beta virt. eigenvalues --    0.05444   0.05457   0.05681   0.05855   0.06045
  Beta virt. eigenvalues --    0.06332   0.06646   0.06947   0.07286   0.07817
  Beta virt. eigenvalues --    0.07825   0.08139   0.08190   0.08719   0.08987
  Beta virt. eigenvalues --    0.09122   0.10340   0.10704   0.12249   0.12467
  Beta virt. eigenvalues --    0.12777   0.13146   0.13439   0.13455   0.14154
  Beta virt. eigenvalues --    0.14223   0.14336   0.14843   0.15119   0.15560
  Beta virt. eigenvalues --    0.16064   0.16421   0.16708   0.17717   0.18663
  Beta virt. eigenvalues --    0.20137   0.24379   0.25311   0.26871   0.27299
  Beta virt. eigenvalues --    0.30337   0.31138   0.32332   0.33366   0.34526
  Beta virt. eigenvalues --    0.35436   0.36127   0.37550   0.37918   0.38475
  Beta virt. eigenvalues --    0.38892   0.40826   0.42053   0.42758   0.43005
  Beta virt. eigenvalues --    0.43884   0.44663   0.44829   0.45151   0.45997
  Beta virt. eigenvalues --    0.46084   0.47057   0.47154   0.47303   0.49083
  Beta virt. eigenvalues --    0.49498   0.50387   0.50870   0.51757   0.52488
  Beta virt. eigenvalues --    0.52531   0.53013   0.54116   0.54536   0.55223
  Beta virt. eigenvalues --    0.55555   0.56377   0.56421   0.58431   0.62937
  Beta virt. eigenvalues --    0.64931   0.66777   0.71118   0.75055   0.75375
  Beta virt. eigenvalues --    0.77876   0.78760   0.81263   0.82002   0.84573
  Beta virt. eigenvalues --    0.85645   0.88343   2.12035   2.20977   2.22225
  Beta virt. eigenvalues --    2.23419   2.28062   2.35000   2.44319   4.41656
  Beta virt. eigenvalues --    4.42624   4.43008   4.43550   4.43832   4.47133
  Beta virt. eigenvalues --    4.47481   4.47678   4.48423   4.50085   4.52282
  Beta virt. eigenvalues --    4.56474   4.61385   4.67856   4.70221   4.76983
  Beta virt. eigenvalues --    4.80059   4.83355   4.84631   4.85208   4.94694
  Beta virt. eigenvalues --   96.33449  96.45469  96.48230  96.50199  96.56155
  Beta virt. eigenvalues --   96.66227  96.78476
          Condensed to atoms (all electrons):
               1          2          3          4          5          6
     1  Na  15.162079   1.052863   1.064557  -0.822145  -2.032678  -1.337303
     2  Na   1.052863  13.922942  -0.873184  -0.573205  -1.346819  -1.732771
     3  Na   1.064557  -0.873184  13.925423  -0.562894  -1.379474   0.298471
     4  Na  -0.822145  -0.573205  -0.562894  15.661299  -2.028298   0.026891
     5  Na  -2.032678  -1.346819  -1.379474  -2.028298  16.513418  -0.038887
     6  Na  -1.337303  -1.732771   0.298471   0.026891  -0.038887  13.985449
     7  Na  -1.337444   0.291341  -1.729435   0.019697  -0.014640  -0.016241
               7
     1  Na  -1.337444
     2  Na   0.291341
     3  Na  -1.729435
     4  Na   0.019697
     5  Na  -0.014640
     6  Na  -0.016241
     7  Na  13.972586
          Atomic-Atomic Spin Densities.
               1          2          3          4          5          6
     1  Na   0.418491  -0.074698  -0.077812  -0.242843  -0.504789   0.264434
     2  Na  -0.074698   0.113455  -0.351932  -0.257556  -0.090718   0.244914
     3  Na  -0.077812  -0.351932   0.108385  -0.250987  -0.093015   0.429991
     4  Na  -0.242843  -0.257556  -0.250987   1.780476  -0.004257  -0.309329
     5  Na  -0.504789  -0.090718  -0.093015  -0.004257   1.281199  -0.216244
     6  Na   0.264434   0.244914   0.429991  -0.309329  -0.216244  -0.097411
     7  Na   0.264457   0.427796   0.245769  -0.310350  -0.211450  -0.133863
               7
     1  Na   0.264457
     2  Na   0.427796
     3  Na   0.245769
     4  Na  -0.310350
     5  Na  -0.211450
     6  Na  -0.133863
     7  Na  -0.099634
 Mulliken charges and spin densities:
               1          2
     1  Na  -0.749929   0.047240
     2  Na   0.258833   0.011262
     3  Na   0.256536   0.010400
     4  Na  -0.721345   0.405154
     5  Na   1.327378   0.160728
     6  Na  -0.185610   0.182492
     7  Na  -0.185864   0.182725
 Sum of Mulliken charges =  -0.00000   1.00000
 Mulliken charges and spin densities with hydrogens summed into heavy atoms:
               1          2
     1  Na  -0.749929   0.047240
     2  Na   0.258833   0.011262
     3  Na   0.256536   0.010400
     4  Na  -0.721345   0.405154
     5  Na   1.327378   0.160728
     6  Na  -0.185610   0.182492
     7  Na  -0.185864   0.182725
 Electronic spatial extent (au):  <R**2>=           1698.4699
 Charge=             -0.0000 electrons
 Dipole moment (field-independent basis, Debye):
    X=             -0.2181    Y=              0.0007    Z=              0.2135  Tot=              0.3052
 Quadrupole moment (field-independent basis, Debye-Ang):
   XX=            -55.3526   YY=            -69.1782   ZZ=            -69.1019
   XY=             -0.0043   XZ=             -0.4434   YZ=              0.0023
 Traceless Quadrupole moment (field-independent basis, Debye-Ang):
   XX=              9.1916   YY=             -4.6340   ZZ=             -4.5577
   XY=             -0.0043   XZ=             -0.4434   YZ=              0.0023
 Octapole moment (field-independent basis, Debye-Ang**2):
  XXX=             -6.2841  YYY=              0.0409  ZZZ=              2.1763  XYY=            -11.8720
  XXY=             -0.0265  XXZ=              9.1804  XZZ=              3.8744  YZZ=             -0.0041
  YYZ=             -3.7155  XYZ=              0.0183
 Hexadecapole moment (field-independent basis, Debye-Ang**3):
 XXXX=          -1291.6629 YYYY=          -1006.9977 ZZZZ=           -671.5847 XXXY=              0.2031
 XXXZ=             18.6874 YYYX=             -0.2851 YYYZ=              0.0298 ZZZX=              9.9180
 ZZZY=              0.0194 XXYY=           -314.4788 XXZZ=           -328.9975 YYZZ=           -290.1893
 XXYZ=             -0.0198 YYXZ=            -37.1618 ZZXY=              0.0280
 N-N= 4.037913211707D+02 E-N=-3.537086216818D+03  KE= 1.133460053630D+03
                          Isotropic Fermi Contact Couplings
        Atom                 a.u.       MegaHertz       Gauss      10(-4) cm-1
     1  Na(23)             0.24196     286.24735     102.14017      95.48184
     2  Na(23)            -0.01198     -14.16770      -5.05539      -4.72584
     3  Na(23)            -0.01217     -14.39506      -5.13652      -4.80168
     4  Na(23)             0.22000     260.26131      92.86771      86.81383
     5  Na(23)             0.16328     193.16561      68.92629      64.43311
     6  Na(23)             0.06270      74.17008      26.46573      24.74047
     7  Na(23)             0.06266      74.12930      26.45118      24.72687
 --------------------------------------------------------
       Center         ----  Spin Dipole Couplings  ----
                      3XX-RR        3YY-RR        3ZZ-RR
 --------------------------------------------------------
     1   Atom        0.015657     -0.014335     -0.001322
     2   Atom       -0.009650     -0.008724      0.018374
     3   Atom       -0.009676     -0.008757      0.018434
     4   Atom        0.002027     -0.015207      0.013179
     5   Atom        0.006987     -0.010986      0.003999
     6   Atom       -0.024025     -0.017333      0.041358
     7   Atom       -0.023979     -0.017381      0.041360
 --------------------------------------------------------
                        XY            XZ            YZ
 --------------------------------------------------------
     1   Atom        0.000021     -0.036861     -0.000044
     2   Atom        0.001880      0.001109      0.008608
     3   Atom       -0.001872      0.001032     -0.008580
     4   Atom        0.000034      0.018412      0.000019
     5   Atom       -0.000002     -0.027085     -0.000016
     6   Atom        0.015902      0.026511      0.038555
     7   Atom       -0.015892      0.026532     -0.038487
 --------------------------------------------------------


 ---------------------------------------------------------------------------------
              Anisotropic Spin Dipole Couplings in Principal Axis System
 ---------------------------------------------------------------------------------

       Atom             a.u.   MegaHertz   Gauss  10(-4) cm-1        Axes

              Baa    -0.0307    -4.329    -1.545    -1.444  0.6227  0.0013  0.7824
     1 Na(23) Bbb    -0.0143    -2.024    -0.722    -0.675 -0.0014  1.0000 -0.0006
              Bcc     0.0450     6.354     2.267     2.119  0.7824  0.0007 -0.6227
 
              Baa    -0.0122    -1.716    -0.612    -0.572 -0.5249  0.8240 -0.2133
     2 Na(23) Bbb    -0.0088    -1.244    -0.444    -0.415  0.8495  0.4919 -0.1904
              Bcc     0.0210     2.960     1.056     0.987  0.0520  0.2812  0.9583
 
              Baa    -0.0122    -1.720    -0.614    -0.574  0.5277  0.8224  0.2127
     3 Na(23) Bbb    -0.0088    -1.244    -0.444    -0.415  0.8480 -0.4954 -0.1881
              Bcc     0.0210     2.964     1.058     0.989  0.0493 -0.2797  0.9588
 
              Baa    -0.0152    -2.147    -0.766    -0.716 -0.0042  1.0000  0.0020
     4 Na(23) Bbb    -0.0116    -1.643    -0.586    -0.548  0.8031  0.0046 -0.5959
              Bcc     0.0268     3.790     1.352     1.264  0.5959  0.0008  0.8031
 
              Baa    -0.0216    -3.055    -1.090    -1.019  0.6874  0.0012  0.7263
     5 Na(23) Bbb    -0.0110    -1.551    -0.554    -0.518 -0.0010  1.0000 -0.0007
              Bcc     0.0326     4.606     1.644     1.536  0.7263  0.0002 -0.6874
 
              Baa    -0.0379    -5.351    -1.909    -1.785 -0.5003  0.8326 -0.2377
     6 Na(23) Bbb    -0.0326    -4.606    -1.644    -1.537  0.8084  0.3509 -0.4726
              Bcc     0.0705     9.958     3.553     3.322  0.3101  0.4286  0.8486
 
              Baa    -0.0379    -5.349    -1.909    -1.784  0.4994  0.8332  0.2375
     7 Na(23) Bbb    -0.0326    -4.603    -1.642    -1.535  0.8088 -0.3501 -0.4724
              Bcc     0.0705     9.952     3.551     3.319  0.3104 -0.4280  0.8488
 

 ---------------------------------------------------------------------------------

 No NMR shielding tensors so no spin-rotation constants.
 Leave Link  601 at Mon Nov 13 12:20:25 2023, MaxMem=  1879048192 cpu:               2.7 elap:               0.2
 (Enter /home/sekinelabo/g16/l701.exe)
 ... and contract with generalized density number  0.
 Compute integral first derivatives.
 Leave Link  701 at Mon Nov 13 12:20:25 2023, MaxMem=  1879048192 cpu:               1.7 elap:               0.1
 (Enter /home/sekinelabo/g16/l702.exe)
 L702 exits ... SP integral derivatives will be done elsewhere.
 Leave Link  702 at Mon Nov 13 12:20:25 2023, MaxMem=  1879048192 cpu:               0.4 elap:               0.0
 (Enter /home/sekinelabo/g16/l703.exe)
 Integral derivatives from FoFJK, PRISM(SPDF).
 Compute integral first derivatives, UseDBF=F ICtDFT=           0.
 Calling FoFJK, ICntrl=      2127 FMM=F ISym2X=0 I1Cent= 0 IOpClX= 1 NMat=1 NMatS=1 NMatT=0.
 FoFJK:  IHMeth= 1 ICntrl=    2127 DoSepK=F KAlg= 0 I1Cent=           0 FoldK=F
 IRaf=         0 NMat=       1 IRICut=       1 DoRegI=T DoRafI=F ISym2E= 0 IDoP0=0 IntGTp=1.
 FoFCou: FMM=F IPFlag=           0 FMFlag=      100000 FMFlg1=         800
         NFxFlg=           0 DoJE=F BraDBF=F KetDBF=F FulRan=T
         wScrn=  0.000000 ICntrl=      2127 IOpCl=  1 I1Cent=           0 NGrid=           0
         NMat0=    1 NMatS0=      1 NMatT0=    0 NMatD0=    1 NMtDS0=    0 NMtDT0=    0
 Symmetry not used in FoFCou.
 Leave Link  703 at Mon Nov 13 12:20:28 2023, MaxMem=  1879048192 cpu:              38.4 elap:               2.6
 (Enter /home/sekinelabo/g16/l716.exe)
 Dipole        =-8.57931076D-02 2.87714667D-04 8.39992728D-02
 ***** Axes restored to original set *****
 -------------------------------------------------------------------
 Center     Atomic                   Forces (Hartrees/Bohr)
 Number     Number              X              Y              Z
 -------------------------------------------------------------------
      1       11          -0.013739889    0.000015111    0.024577302
      2       11          -0.006669744    0.011046421   -0.001121300
      3       11          -0.006612370   -0.011040188   -0.001093421
      4       11          -0.004250229    0.000007903   -0.022124705
      5       11           0.021213962   -0.000021000   -0.018569612
      6       11           0.005018534   -0.023630519    0.009176425
      7       11           0.005039737    0.023622271    0.009155311
 -------------------------------------------------------------------
 Cartesian Forces:  Max     0.024577302 RMS     0.013389502
 Z-matrix is all fixed cartesians, so copy forces.
 Force constants in Cartesian coordinates: 
                1             2             3             4             5 
      1  0.269957D+00
      2  0.322575D-04  0.271706D+00
      3 -0.186370D-01  0.131326D-03  0.329013D+00
      4 -0.418271D-01 -0.125846D-01  0.131900D-01  0.115203D+00
      5  0.326503D-03 -0.509633D-01 -0.845678D-02 -0.189131D-01  0.121216D+00
      6 -0.269401D-01  0.340356D-01 -0.583795D-01  0.747711D-02 -0.356832D-03
      7 -0.417135D-01  0.126270D-01  0.132015D-01 -0.622421D-02  0.210379D-01
      8 -0.452187D-03 -0.507953D-01  0.842290D-02 -0.209865D-01 -0.246885D-01
      9 -0.268341D-01 -0.341198D-01 -0.582332D-01 -0.125256D-02  0.558470D-02
     10 -0.419382D-01 -0.650900D-05  0.191280D-01 -0.480186D-01  0.303572D-02
     11 -0.248218D-04 -0.381982D-01 -0.626806D-04 -0.190776D-03 -0.524667D-01
     12 -0.881228D-02 -0.943393D-05 -0.921069D-01 -0.124820D-01  0.778470D-02
     13 -0.256838D-02  0.201483D-04  0.116503D-01 -0.429208D-02  0.342196D-02
     14  0.371648D-04  0.127651D-01 -0.250570D-04  0.128837D-01  0.104297D-01
     15  0.250260D-01  0.000000D+00 -0.859994D-02 -0.145189D-02  0.229892D-03
     16 -0.709576D-01  0.183825D-01 -0.192784D-01  0.639233D-02  0.160705D-01
     17 -0.555107D-02 -0.722921D-01  0.106623D-01  0.174762D-01  0.735015D-02
     18  0.280490D-01 -0.371632D-01 -0.557899D-01 -0.119485D-02  0.745682D-02
     19 -0.709523D-01 -0.184708D-01 -0.192543D-01 -0.212330D-01 -0.249794D-01
     20  0.563216D-02 -0.722223D-01 -0.106720D-01  0.223151D-01 -0.108773D-01
     21  0.281485D-01  0.371247D-01 -0.559040D-01 -0.428576D-02 -0.122425D-01
                6             7             8             9            10 
      6  0.858355D-01
      7 -0.127107D-02  0.115127D+00
      8 -0.554462D-02  0.189469D-01  0.121197D+00
      9  0.189930D-02  0.745347D-02  0.276497D-03  0.857603D-01
     10  0.248991D-01 -0.479022D-01 -0.310932D-02  0.248075D-01  0.264558D+00
     11 -0.366817D-01  0.176462D-03 -0.523246D-01  0.368260D-01  0.545090D-04
     12 -0.505422D-01 -0.124986D-01 -0.773336D-02 -0.504283D-01  0.151816D-01
     13  0.791504D-02 -0.429906D-02 -0.340603D-02  0.792458D-02 -0.756693D-01
     14 -0.620343D-02 -0.129171D-01  0.103726D-01  0.618695D-02  0.120258D-04
     15  0.147537D-01 -0.143186D-02 -0.262237D-03  0.146848D-01 -0.406445D-01
     16 -0.148313D-02 -0.213708D-01  0.250040D-01 -0.106451D-01 -0.255326D-01
     17  0.738944D-02 -0.223897D-01 -0.110298D-01 -0.735932D-02 -0.162378D-02
     18  0.180220D-01 -0.427647D-02  0.122863D-01 -0.117350D-01 -0.216541D-01
     19 -0.105970D-01  0.638277D-02 -0.159968D-01 -0.145368D-02 -0.254972D-01
     20  0.736154D-02 -0.174814D-01  0.726883D-02 -0.739504D-02  0.163735D-02
     21 -0.115889D-01 -0.117699D-02 -0.744544D-02  0.180522D-01 -0.217174D-01
               11            12            13            14            15 
     11  0.269948D+00
     12 -0.140931D-03  0.338812D+00
     13  0.842030D-05  0.256652D-01  0.168851D+00
     14 -0.710796D-01  0.527583D-04 -0.163591D-05  0.139910D+00
     15  0.547272D-04 -0.599026D-01 -0.260631D-01 -0.766894D-05  0.162378D+00
     16  0.176197D-01 -0.353635D-02 -0.410187D-01 -0.274605D-01  0.222921D-01
     17 -0.279415D-01 -0.768156D-02  0.121298D-01 -0.511697D-01  0.263189D-02
     18  0.354391D-01 -0.429327D-01 -0.135343D-01  0.327367D-01 -0.616740D-01
     19 -0.176435D-01 -0.351752D-02 -0.410034D-01  0.274463D-01  0.222732D-01
     20 -0.279370D-01  0.772783D-02 -0.121727D-01 -0.512278D-01 -0.264735D-02
     21 -0.354345D-01 -0.428991D-01 -0.135577D-01 -0.327402D-01 -0.616396D-01
               16            17            18            19            20 
     16  0.175377D+00
     17 -0.248056D-01  0.210905D+00
     18  0.171560D-01 -0.282176D-01  0.163840D+00
     19 -0.228891D-01  0.247641D-01 -0.454520D-02  0.175192D+00
     20 -0.248105D-01 -0.558218D-01 -0.225381D-01  0.248800D-01  0.210817D+00
     21 -0.450508D-02  0.225749D-01 -0.973074D-02  0.170944D-01  0.281631D-01
               21 
     21  0.163710D+00
 Leave Link  716 at Mon Nov 13 12:20:28 2023, MaxMem=  1879048192 cpu:               0.5 elap:               0.0
 (Enter /home/sekinelabo/g16/l103.exe)

 GradGradGradGradGradGradGradGradGradGradGradGradGradGradGradGradGradGrad
 Berny optimization.
 Search for a local minimum.
 Step number   1 out of a maximum of    2
 All quantities printed in internal units (Hartrees-Bohrs-Radians)
 Second derivative matrix not updated -- first step.
 ITU=  0
     Eigenvalues ---    0.11520   0.12249   0.14176   0.16218   0.19892
     Eigenvalues ---    0.21783   0.23950   0.26974   0.27006   0.31688
     Eigenvalues ---    0.34278   0.34724   0.37025   0.37059   0.43928
 Quadratic step=3.511D-01 exceeds max=3.000D-01 adjusted using Lamda=-2.419D-02.
 Angle between NR and scaled steps=   2.62 degrees.
 Angle between quadratic step and forces=  21.62 degrees.
 Linear search not attempted -- first point.
 B after Tr=    -0.000000    0.000000   -0.000000
         Rot=    1.000000   -0.000000    0.000000    0.000000 Ang=   0.00 deg.
 Variable       Old X    -DE/DX   Delta X   Delta X   Delta X     New X
                                 (Linear)    (Quad)   (Total)
    X1        2.77070  -0.01374   0.00000  -0.05089  -0.05089   2.71981
    Y1        3.62994   0.00002   0.00000   0.00008   0.00008   3.63002
    Z1        5.07499   0.02458   0.00000   0.07577   0.07577   5.15076
    X2        0.00000  -0.00667   0.00000  -0.07946  -0.07946  -0.07946
    Y2        7.24247   0.01105   0.00000   0.08494   0.08494   7.32741
    Z2        1.94057  -0.00112   0.00000  -0.00599  -0.00599   1.93457
    X3        0.01074  -0.00661   0.00000  -0.07910  -0.07910  -0.06837
    Y3        0.00000  -0.01104   0.00000  -0.08500  -0.08500  -0.08500
    Z3        1.94485  -0.00109   0.00000  -0.00584  -0.00584   1.93901
    X4        3.68985  -0.00425   0.00000  -0.01430  -0.01430   3.67555
    Y4        3.62675   0.00001   0.00000   0.00003   0.00003   3.62678
    Z4        0.00000  -0.02212   0.00000  -0.06857  -0.06857  -0.06857
    X5        8.86844   0.02121   0.00000   0.12957   0.12957   8.99801
    Y5        3.62385  -0.00002   0.00000  -0.00007  -0.00007   3.62378
    Z5        0.19383  -0.01857   0.00000  -0.07807  -0.07807   0.11576
    X6        6.95186   0.00502   0.00000   0.04703   0.04703   6.99888
    Y6        0.70548  -0.02363   0.00000  -0.09743  -0.09743   0.60805
    Z6        4.04406   0.00918   0.00000   0.04136   0.04136   4.08542
    X7        6.95645   0.00504   0.00000   0.04715   0.04715   7.00360
    Y7        6.54714   0.02362   0.00000   0.09744   0.09744   6.64458
    Z7        4.04277   0.00916   0.00000   0.04134   0.04134   4.08412
         Item               Value     Threshold  Converged?
 Maximum Force            0.024577     0.000450     NO 
 RMS     Force            0.013390     0.000300     NO 
 Maximum Displacement     0.129572     0.001800     NO 
 RMS     Displacement     0.065481     0.001200     NO 
 Predicted change in Energy=-9.647350D-03
 GradGradGradGradGradGradGradGradGradGradGradGradGradGradGradGradGradGrad

 Leave Link  103 at Mon Nov 13 12:20:28 2023, MaxMem=  1879048192 cpu:               0.2 elap:               0.0
 (Enter /home/sekinelabo/g16/l9999.exe)
 1\1\GINC-SEKINELABO-XA7R-R37\Force\UB3LYP\6-311+G(d)\Na7(2)\SEKINELABO
 \13-Nov-2023\0\\#P B3LYP/6-311+g(d) force\\Gaussian input prepared by 
 ASE\\0,2\Na,1.4661905984,1.9208811548,2.685570865\Na,0.,3.8325516393,1
 .0269049621\Na,0.0056813175,0.,1.029168518\Na,1.952587081,1.919191472,
 0.\Na,4.6929775646,1.9176595792,0.1025722577\Na,3.6787644705,0.3733220
 614,2.140025037\Na,3.6811939349,3.4645950635,2.1393435354\\Version=ES6
 4L-G16RevB.01\State=2-A\HF=-1136.0780669\S2=0.760525\S2-1=0.\S2A=0.750
 062\RMSD=7.061e-09\RMSF=1.339e-02\Dipole=-0.0857931,-0.0002877,-0.0839
 993\Quadrupole=6.8337649,-3.4452458,-3.3885191,0.0032098,0.329685,0.00
 1723\PG=C01 [X(Na7)]\\@


 ALL OUR THINKING ABOUT NATURE MUST NECESSARILY MOVE IN CIRCLES OR SPIRALS;
 FOR WE CAN ONLY UNDERSTAND NATURE IF WE THINK ABOUT HER, AND WE CAN ONLY
 THINK BECAUSE OUR BRAIN IS BUILT IN ACCORDANCE WITH NATURE'S LAWS.

                                             -- TIMOTHY FERRIS, "GALAXIES"
 Job cpu time:       0 days  0 hours  4 minutes 34.1 seconds.
 Elapsed time:       0 days  0 hours  0 minutes 21.9 seconds.
 File lengths (MBytes):  RWF=     32 Int=      0 D2E=      0 Chk=      5 Scr=      1
 Normal termination of Gaussian 16 at Mon Nov 13 12:20:28 2023.
