 Entering Gaussian System, Link 0=g16
 Initial command:
 /home/sekinelabo/g16/l1.exe "/home/sekinelabo/g16temp/Gau-3974054.inp" -scrdir="/home/sekinelabo/g16temp/"
 Entering Link 1 = /home/sekinelabo/g16/l1.exe PID=   3974056.
  
 Copyright (c) 1988-2017, Gaussian, Inc.  All Rights Reserved.
  
 This is part of the Gaussian(R) 16 program.  It is based on
 the Gaussian(R) 09 system (copyright 2009, Gaussian, Inc.),
 the Gaussian(R) 03 system (copyright 2003, Gaussian, Inc.),
 the Gaussian(R) 98 system (copyright 1998, Gaussian, Inc.),
 the Gaussian(R) 94 system (copyright 1995, Gaussian, Inc.),
 the Gaussian 92(TM) system (copyright 1992, Gaussian, Inc.),
 the Gaussian 90(TM) system (copyright 1990, Gaussian, Inc.),
 the Gaussian 88(TM) system (copyright 1988, Gaussian, Inc.),
 the Gaussian 86(TM) system (copyright 1986, Carnegie Mellon
 University), and the Gaussian 82(TM) system (copyright 1983,
 Carnegie Mellon University). Gaussian is a federally registered
 trademark of Gaussian, Inc.
  
 This software contains proprietary and confidential information,
 including trade secrets, belonging to Gaussian, Inc.
  
 This software is provided under written license and may be
 used, copied, transmitted, or stored only in accord with that
 written license.
  
 The following legend is applicable only to US Government
 contracts under FAR:
  
                    RESTRICTED RIGHTS LEGEND
  
 Use, reproduction and disclosure by the US Government is
 subject to restrictions as set forth in subparagraphs (a)
 and (c) of the Commercial Computer Software - Restricted
 Rights clause in FAR 52.227-19.
  
 Gaussian, Inc.
 340 Quinnipiac St., Bldg. 40, Wallingford CT 06492
  
  
 ---------------------------------------------------------------
 Warning -- This program may not be used in any manner that
 competes with the business of Gaussian, Inc. or will provide
 assistance to any competitor of Gaussian, Inc.  The licensee
 of this program is prohibited from giving any competitor of
 Gaussian, Inc. access to this program.  By using this program,
 the user acknowledges that Gaussian, Inc. is engaged in the
 business of creating and licensing software in the field of
 computational chemistry and represents and warrants to the
 licensee that it is not a competitor of Gaussian, Inc. and that
 it will not use this program in any manner prohibited above.
 ---------------------------------------------------------------
  

 Cite this work as:
 Gaussian 16, Revision B.01,
 M. J. Frisch, G. W. Trucks, H. B. Schlegel, G. E. Scuseria, 
 M. A. Robb, J. R. Cheeseman, G. Scalmani, V. Barone, 
 G. A. Petersson, H. Nakatsuji, X. Li, M. Caricato, A. V. Marenich, 
 J. Bloino, B. G. Janesko, R. Gomperts, B. Mennucci, H. P. Hratchian, 
 J. V. Ortiz, A. F. Izmaylov, J. L. Sonnenberg, D. Williams-Young, 
 F. Ding, F. Lipparini, F. Egidi, J. Goings, B. Peng, A. Petrone, 
 T. Henderson, D. Ranasinghe, V. G. Zakrzewski, J. Gao, N. Rega, 
 G. Zheng, W. Liang, M. Hada, M. Ehara, K. Toyota, R. Fukuda, 
 J. Hasegawa, M. Ishida, T. Nakajima, Y. Honda, O. Kitao, H. Nakai, 
 T. Vreven, K. Throssell, J. A. Montgomery, Jr., J. E. Peralta, 
 F. Ogliaro, M. J. Bearpark, J. J. Heyd, E. N. Brothers, K. N. Kudin, 
 V. N. Staroverov, T. A. Keith, R. Kobayashi, J. Normand, 
 K. Raghavachari, A. P. Rendell, J. C. Burant, S. S. Iyengar, 
 J. Tomasi, M. Cossi, J. M. Millam, M. Klene, C. Adamo, R. Cammi, 
 J. W. Ochterski, R. L. Martin, K. Morokuma, O. Farkas, 
 J. B. Foresman, and D. J. Fox, Gaussian, Inc., Wallingford CT, 2016.
 
 ******************************************
 Gaussian 16:  ES64L-G16RevB.01 20-Dec-2017
                13-Nov-2023 
 ******************************************
 %mem=14GB
 %chk=checkpoint.chk
 %nprocshared=16
 Will use up to   16 processors via shared memory.
 -------------------------
 #P B3LYP/6-311+g(d) force
 -------------------------
 1/10=7,30=1,38=1/1,3;
 2/12=2,17=6,18=5,40=1/2;
 3/5=4,6=6,7=11,11=2,25=1,30=1,71=1,74=-5/1,2,3;
 4//1;
 5/5=2,38=5/2;
 6/7=2,8=2,9=2,10=2,28=1/1;
 7/29=1/1,2,3,16;
 1/10=7,30=1/3;
 99//99;
 Leave Link    1 at Mon Nov 13 12:08:01 2023, MaxMem=  1879048192 cpu:               0.3 elap:               0.0
 (Enter /home/sekinelabo/g16/l101.exe)
 ------------------------------
 Gaussian input prepared by ASE
 ------------------------------
 Symbolic Z-matrix:
 Charge =  0 Multiplicity = 2
 Na                    5.32238   1.28398   0. 
 Na                    4.6204    0.        2.61539 
 Na                    7.39059   1.0567    2.16206 
 Na                    7.08559   3.99099   2.73408 
 Na                    4.64075   4.03556   0.98947 
 Na                    2.65237   1.80404   1.24729 
 Na                    0.        2.49333   2.46631 
 
 ITRead=  0  0  0  0  0  0  0
 MicOpt= -1 -1 -1 -1 -1 -1 -1
 NAtoms=      7 NQM=        7 NQMF=       0 NMMI=      0 NMMIF=      0
                NMic=       0 NMicF=      0.
                    Isotopes and Nuclear Properties:
 (Nuclear quadrupole moments (NQMom) in fm**2, nuclear magnetic moments (NMagM)
  in nuclear magnetons)

  Atom         1           2           3           4           5           6           7
 IAtWgt=          23          23          23          23          23          23          23
 AtmWgt=  22.9897697  22.9897697  22.9897697  22.9897697  22.9897697  22.9897697  22.9897697
 NucSpn=           3           3           3           3           3           3           3
 AtZEff=  -0.0000000  -0.0000000  -0.0000000  -0.0000000  -0.0000000  -0.0000000  -0.0000000
 NQMom=   10.4000000  10.4000000  10.4000000  10.4000000  10.4000000  10.4000000  10.4000000
 NMagM=    2.2175200   2.2175200   2.2175200   2.2175200   2.2175200   2.2175200   2.2175200
 AtZNuc=  11.0000000  11.0000000  11.0000000  11.0000000  11.0000000  11.0000000  11.0000000
 Leave Link  101 at Mon Nov 13 12:08:01 2023, MaxMem=  1879048192 cpu:               2.5 elap:               0.2
 (Enter /home/sekinelabo/g16/l103.exe)

 GradGradGradGradGradGradGradGradGradGradGradGradGradGradGradGradGradGrad
 Berny optimization.
 Initialization pass.
 Trust Radius=3.00D-01 FncErr=1.00D-07 GrdErr=1.00D-07 EigMax=2.50D+02 EigMin=1.00D-04
 Number of steps in this run=      2 maximum allowed number of steps=      2.
 GradGradGradGradGradGradGradGradGradGradGradGradGradGradGradGradGradGrad

 Leave Link  103 at Mon Nov 13 12:08:02 2023, MaxMem=  1879048192 cpu:               0.3 elap:               0.0
 (Enter /home/sekinelabo/g16/l202.exe)
                          Input orientation:                          
 ---------------------------------------------------------------------
 Center     Atomic      Atomic             Coordinates (Angstroms)
 Number     Number       Type             X           Y           Z
 ---------------------------------------------------------------------
      1         11           0        5.322376    1.283979    0.000000
      2         11           0        4.620395    0.000000    2.615391
      3         11           0        7.390592    1.056696    2.162056
      4         11           0        7.085594    3.990994    2.734076
      5         11           0        4.640752    4.035558    0.989471
      6         11           0        2.652370    1.804044    1.247287
      7         11           0        0.000000    2.493331    2.466309
 ---------------------------------------------------------------------
                    Distance matrix (angstroms):
                    1          2          3          4          5
     1  Na   0.000000
     2  Na   2.996940   0.000000
     3  Na   3.000609   2.999351   0.000000
     4  Na   4.232262   4.692475   3.005052   0.000000
     5  Na   3.002474   4.350834   4.220212   3.003812   0.000000
     6  Na   2.992511   2.999901   4.883244   5.162050   2.999964
     7  Na   5.989399   5.252331   7.535074   7.247091   5.108433
                    6          7
     6  Na   0.000000
     7  Na   2.999367   0.000000
 Stoichiometry    Na7(2)
 Framework group  C1[X(Na7)]
 Deg. of freedom    15
 Full point group                 C1      NOp   1
 Largest Abelian subgroup         C1      NOp   1
 Largest concise Abelian subgroup C1      NOp   1
                         Standard orientation:                         
 ---------------------------------------------------------------------
 Center     Atomic      Atomic             Coordinates (Angstroms)
 Number     Number       Type             X           Y           Z
 ---------------------------------------------------------------------
      1         11           0       -0.792079   -0.810965    1.744941
      2         11           0       -0.090098   -2.094943   -0.870449
      3         11           0       -2.860295   -1.038247   -0.417114
      4         11           0       -2.555297    1.896051   -0.989135
      5         11           0       -0.110455    1.940615    0.755470
      6         11           0        1.877927   -0.290899    0.497655
      7         11           0        4.530297    0.398388   -0.721368
 ---------------------------------------------------------------------
 Rotational constants (GHZ):           1.0979104           0.4809986           0.4136964
 Leave Link  202 at Mon Nov 13 12:08:02 2023, MaxMem=  1879048192 cpu:               0.1 elap:               0.0
 (Enter /home/sekinelabo/g16/l301.exe)
 Standard basis: 6-311+G(d) (5D, 7F)
 Ernie: Thresh=  0.10000D-02 Tol=  0.10000D-05 Strict=F.
 There are   217 symmetry adapted cartesian basis functions of A   symmetry.
 There are   210 symmetry adapted basis functions of A   symmetry.
   210 basis functions,   350 primitive gaussians,   217 cartesian basis functions
    39 alpha electrons       38 beta electrons
       nuclear repulsion energy       350.3639176653 Hartrees.
 IExCor=  402 DFT=T Ex+Corr=B3LYP ExCW=0 ScaHFX=  0.200000
 ScaDFX=  0.800000  0.720000  1.000000  0.810000 ScalE2=  1.000000  1.000000
 IRadAn=      5 IRanWt=     -1 IRanGd=            0 ICorTp=0 IEmpDi=  4
 NAtoms=    7 NActive=    7 NUniq=    7 SFac= 1.00D+00 NAtFMM=   60 NAOKFM=F Big=F
 Integral buffers will be    131072 words long.
 Raffenetti 2 integral format.
 Two-electron integral symmetry is turned on.
 Leave Link  301 at Mon Nov 13 12:08:02 2023, MaxMem=  1879048192 cpu:               0.5 elap:               0.0
 (Enter /home/sekinelabo/g16/l302.exe)
 NPDir=0 NMtPBC=     1 NCelOv=     1 NCel=       1 NClECP=     1 NCelD=      1
         NCelK=      1 NCelE2=     1 NClLst=     1 CellRange=     0.0.
 One-electron integrals computed using PRISM.
 One-electron integral symmetry used in STVInt
 NBasis=   210 RedAO= T EigKep=  2.38D-06  NBF=   210
 NBsUse=   209 1.00D-06 EigRej=  9.22D-07 NBFU=   209
 Precomputing XC quadrature grid using
 IXCGrd= 4 IRadAn=           5 IRanWt=          -1 IRanGd=           0 AccXCQ= 0.00D+00.
 Generated NRdTot=       0 NPtTot=           0 NUsed=           0 NTot=          32
 NSgBfM=   208   208   208   208   208 MxSgAt=     7 MxSgA2=     7.
 Leave Link  302 at Mon Nov 13 12:08:02 2023, MaxMem=  1879048192 cpu:               2.3 elap:               0.1
 (Enter /home/sekinelabo/g16/l303.exe)
 DipDrv:  MaxL=1.
 Leave Link  303 at Mon Nov 13 12:08:02 2023, MaxMem=  1879048192 cpu:               0.6 elap:               0.0
 (Enter /home/sekinelabo/g16/l401.exe)
 ExpMin= 7.60D-03 ExpMax= 3.62D+04 ExpMxC= 1.21D+03 IAcc=3 IRadAn=         5 AccDes= 0.00D+00
 Harris functional with IExCor=  402 and IRadAn=       5 diagonalized for initial guess.
 HarFok:  IExCor=  402 AccDes= 0.00D+00 IRadAn=         5 IDoV= 1 UseB2=F ITyADJ=14
 ICtDFT=  3500011 ScaDFX=  1.000000  1.000000  1.000000  1.000000
 FoFCou: FMM=F IPFlag=           0 FMFlag=      100000 FMFlg1=           0
         NFxFlg=           0 DoJE=T BraDBF=F KetDBF=T FulRan=T
         wScrn=  0.000000 ICntrl=       500 IOpCl=  0 I1Cent=   200000004 NGrid=           0
         NMat0=    1 NMatS0=      1 NMatT0=    0 NMatD0=    1 NMtDS0=    0 NMtDT0=    0
 Petite list used in FoFCou.
 Harris En= -1135.87019426155    
 JPrj=0 DoOrth=F DoCkMO=F.
 Initial guess <Sx>= 0.0000 <Sy>= 0.0000 <Sz>= 0.5000 <S**2>= 0.7500 S= 0.5000
 Leave Link  401 at Mon Nov 13 12:08:02 2023, MaxMem=  1879048192 cpu:               4.6 elap:               0.3
 (Enter /home/sekinelabo/g16/l502.exe)
 Keep R1 and R2 ints in memory in canonical form, NReq=507620360.
 FoFCou: FMM=F IPFlag=           0 FMFlag=           0 FMFlg1=           0
         NFxFlg=           0 DoJE=F BraDBF=F KetDBF=F FulRan=T
         wScrn=  0.000000 ICntrl=       600 IOpCl=  0 I1Cent=           0 NGrid=           0
         NMat0=    1 NMatS0=  22155 NMatT0=    0 NMatD0=    1 NMtDS0=    0 NMtDT0=    0
 Symmetry not used in FoFCou.
 Two-electron integral symmetry not used.
 UHF open shell SCF:
 Using DIIS extrapolation, IDIIS=  1040.
 NGot=  1879048192 LenX=  1388082376 LenY=  1388034846
 Requested convergence on RMS density matrix=1.00D-08 within 128 cycles.
 Requested convergence on MAX density matrix=1.00D-06.
 Requested convergence on             energy=1.00D-06.
 No special actions if energy rises.

 Cycle   1  Pass 1  IDiag  1:
 E= -1136.06158560503    
 DIIS: error= 1.10D-02 at cycle   1 NSaved=   1.
 NSaved= 1 IEnMin= 1 EnMin= -1136.06158560503     IErMin= 1 ErrMin= 1.10D-02
 ErrMax= 1.10D-02  0.00D+00 EMaxC= 1.00D-01 BMatC= 1.94D-01 BMatP= 1.94D-01
 IDIUse=3 WtCom= 8.90D-01 WtEn= 1.10D-01
 Coeff-Com:  0.100D+01
 Coeff-En:   0.100D+01
 Coeff:      0.100D+01
 Gap=     0.046 Goal=   None    Shift=    0.000
 Gap=     0.026 Goal=   None    Shift=    0.000
 GapD=    0.026 DampG=0.250 DampE=0.500 DampFc=0.2500 IDamp=-1.
 Damping current iteration by 2.50D-01
 RMSDP=4.26D-02 MaxDP=3.06D+00              OVMax= 3.31D-01

 Cycle   2  Pass 1  IDiag  1:
 E= -1136.07444528083     Delta-E=       -0.012859675802 Rises=F Damp=T
 DIIS: error= 7.86D-03 at cycle   2 NSaved=   2.
 NSaved= 2 IEnMin= 2 EnMin= -1136.07444528083     IErMin= 2 ErrMin= 7.86D-03
 ErrMax= 7.86D-03  0.00D+00 EMaxC= 1.00D-01 BMatC= 7.36D-02 BMatP= 1.94D-01
 IDIUse=3 WtCom= 9.21D-01 WtEn= 7.86D-02
 Coeff-Com: -0.122D+01 0.222D+01
 Coeff-En:   0.000D+00 0.100D+01
 Coeff:     -0.113D+01 0.213D+01
 Gap=     0.056 Goal=   None    Shift=    0.000
 Gap=     0.044 Goal=   None    Shift=    0.000
 RMSDP=2.60D-02 MaxDP=1.74D+00 DE=-1.29D-02 OVMax= 3.19D-01

 Cycle   3  Pass 1  IDiag  1:
 E= -1136.08847739384     Delta-E=       -0.014032113000 Rises=F Damp=F
 DIIS: error= 5.49D-03 at cycle   3 NSaved=   3.
 NSaved= 3 IEnMin= 3 EnMin= -1136.08847739384     IErMin= 3 ErrMin= 5.49D-03
 ErrMax= 5.49D-03  0.00D+00 EMaxC= 1.00D-01 BMatC= 9.93D-03 BMatP= 7.36D-02
 IDIUse=3 WtCom= 9.45D-01 WtEn= 5.49D-02
 Coeff-Com: -0.483D+00 0.841D+00 0.641D+00
 Coeff-En:   0.000D+00 0.000D+00 0.100D+01
 Coeff:     -0.456D+00 0.795D+00 0.661D+00
 Gap=     0.049 Goal=   None    Shift=    0.000
 Gap=     0.038 Goal=   None    Shift=    0.000
 RMSDP=7.02D-03 MaxDP=5.21D-01 DE=-1.40D-02 OVMax= 2.19D-01

 Cycle   4  Pass 1  IDiag  1:
 E= -1136.09181206199     Delta-E=       -0.003334668160 Rises=F Damp=F
 DIIS: error= 4.60D-03 at cycle   4 NSaved=   4.
 NSaved= 4 IEnMin= 4 EnMin= -1136.09181206199     IErMin= 4 ErrMin= 4.60D-03
 ErrMax= 4.60D-03  0.00D+00 EMaxC= 1.00D-01 BMatC= 6.77D-03 BMatP= 9.93D-03
 IDIUse=3 WtCom= 9.54D-01 WtEn= 4.60D-02
 Coeff-Com: -0.314D-01 0.473D-01 0.449D+00 0.535D+00
 Coeff-En:   0.000D+00 0.000D+00 0.425D+00 0.575D+00
 Coeff:     -0.299D-01 0.451D-01 0.448D+00 0.537D+00
 Gap=     0.048 Goal=   None    Shift=    0.000
 Gap=     0.040 Goal=   None    Shift=    0.000
 RMSDP=3.52D-03 MaxDP=2.51D-01 DE=-3.33D-03 OVMax= 1.17D-01

 Cycle   5  Pass 1  IDiag  1:
 E= -1136.09872315900     Delta-E=       -0.006911097001 Rises=F Damp=F
 DIIS: error= 8.64D-04 at cycle   5 NSaved=   5.
 NSaved= 5 IEnMin= 5 EnMin= -1136.09872315900     IErMin= 5 ErrMin= 8.64D-04
 ErrMax= 8.64D-04  0.00D+00 EMaxC= 1.00D-01 BMatC= 2.68D-04 BMatP= 6.77D-03
 IDIUse=3 WtCom= 9.91D-01 WtEn= 8.64D-03
 Coeff-Com: -0.936D-02 0.114D-01 0.238D+00 0.294D+00 0.466D+00
 Coeff-En:   0.000D+00 0.000D+00 0.000D+00 0.000D+00 0.100D+01
 Coeff:     -0.928D-02 0.113D-01 0.236D+00 0.291D+00 0.471D+00
 Gap=     0.046 Goal=   None    Shift=    0.000
 Gap=     0.039 Goal=   None    Shift=    0.000
 RMSDP=8.16D-04 MaxDP=2.96D-02 DE=-6.91D-03 OVMax= 2.40D-02

 Cycle   6  Pass 1  IDiag  1:
 E= -1136.09899601844     Delta-E=       -0.000272859447 Rises=F Damp=F
 DIIS: error= 4.29D-04 at cycle   6 NSaved=   6.
 NSaved= 6 IEnMin= 6 EnMin= -1136.09899601844     IErMin= 6 ErrMin= 4.29D-04
 ErrMax= 4.29D-04  0.00D+00 EMaxC= 1.00D-01 BMatC= 4.22D-05 BMatP= 2.68D-04
 IDIUse=3 WtCom= 9.96D-01 WtEn= 4.29D-03
 Coeff-Com:  0.871D-03-0.197D-02-0.280D-01-0.433D-01 0.247D+00 0.825D+00
 Coeff-En:   0.000D+00 0.000D+00 0.000D+00 0.000D+00 0.116D+00 0.884D+00
 Coeff:      0.867D-03-0.196D-02-0.279D-01-0.432D-01 0.247D+00 0.826D+00
 Gap=     0.047 Goal=   None    Shift=    0.000
 Gap=     0.040 Goal=   None    Shift=    0.000
 RMSDP=7.47D-04 MaxDP=4.29D-02 DE=-2.73D-04 OVMax= 1.33D-02

 Cycle   7  Pass 1  IDiag  1:
 E= -1136.09907539100     Delta-E=       -0.000079372554 Rises=F Damp=F
 DIIS: error= 1.18D-04 at cycle   7 NSaved=   7.
 NSaved= 7 IEnMin= 7 EnMin= -1136.09907539100     IErMin= 7 ErrMin= 1.18D-04
 ErrMax= 1.18D-04  0.00D+00 EMaxC= 1.00D-01 BMatC= 6.98D-06 BMatP= 4.22D-05
 IDIUse=3 WtCom= 9.99D-01 WtEn= 1.18D-03
 Coeff-Com:  0.940D-03-0.146D-02-0.392D-01-0.521D-01 0.618D-01 0.399D+00
 Coeff-Com:  0.631D+00
 Coeff-En:   0.000D+00 0.000D+00 0.000D+00 0.000D+00 0.000D+00 0.000D+00
 Coeff-En:   0.100D+01
 Coeff:      0.939D-03-0.146D-02-0.391D-01-0.521D-01 0.617D-01 0.398D+00
 Coeff:      0.632D+00
 Gap=     0.047 Goal=   None    Shift=    0.000
 Gap=     0.040 Goal=   None    Shift=    0.000
 RMSDP=2.50D-04 MaxDP=1.37D-02 DE=-7.94D-05 OVMax= 5.13D-03

 Cycle   8  Pass 1  IDiag  1:
 E= -1136.09909202492     Delta-E=       -0.000016633920 Rises=F Damp=F
 DIIS: error= 6.89D-05 at cycle   8 NSaved=   8.
 NSaved= 8 IEnMin= 8 EnMin= -1136.09909202492     IErMin= 8 ErrMin= 6.89D-05
 ErrMax= 6.89D-05  0.00D+00 EMaxC= 1.00D-01 BMatC= 1.53D-06 BMatP= 6.98D-06
 IDIUse=1 WtCom= 1.00D+00 WtEn= 0.00D+00
 Coeff-Com: -0.154D-03 0.340D-03-0.579D-02-0.283D-02-0.632D-01-0.138D+00
 Coeff-Com:  0.174D+00 0.104D+01
 Coeff:     -0.154D-03 0.340D-03-0.579D-02-0.283D-02-0.632D-01-0.138D+00
 Coeff:      0.174D+00 0.104D+01
 Gap=     0.047 Goal=   None    Shift=    0.000
 Gap=     0.040 Goal=   None    Shift=    0.000
 RMSDP=2.13D-04 MaxDP=1.03D-02 DE=-1.66D-05 OVMax= 6.70D-03

 Cycle   9  Pass 1  IDiag  1:
 E= -1136.09910251235     Delta-E=       -0.000010487438 Rises=F Damp=F
 DIIS: error= 3.85D-05 at cycle   9 NSaved=   9.
 NSaved= 9 IEnMin= 9 EnMin= -1136.09910251235     IErMin= 9 ErrMin= 3.85D-05
 ErrMax= 3.85D-05  0.00D+00 EMaxC= 1.00D-01 BMatC= 4.80D-07 BMatP= 1.53D-06
 IDIUse=1 WtCom= 1.00D+00 WtEn= 0.00D+00
 Coeff-Com:  0.578D-04 0.371D-04 0.457D-02 0.848D-02-0.352D-01-0.122D+00
 Coeff-Com: -0.107D+00 0.319D+00 0.932D+00
 Coeff:      0.578D-04 0.371D-04 0.457D-02 0.848D-02-0.352D-01-0.122D+00
 Coeff:     -0.107D+00 0.319D+00 0.932D+00
 Gap=     0.047 Goal=   None    Shift=    0.000
 Gap=     0.041 Goal=   None    Shift=    0.000
 RMSDP=1.84D-04 MaxDP=1.15D-02 DE=-1.05D-05 OVMax= 4.44D-03

 Cycle  10  Pass 1  IDiag  1:
 E= -1136.09910618599     Delta-E=       -0.000003673633 Rises=F Damp=F
 DIIS: error= 2.81D-05 at cycle  10 NSaved=  10.
 NSaved=10 IEnMin=10 EnMin= -1136.09910618599     IErMin=10 ErrMin= 2.81D-05
 ErrMax= 2.81D-05  0.00D+00 EMaxC= 1.00D-01 BMatC= 2.89D-07 BMatP= 4.80D-07
 IDIUse=1 WtCom= 1.00D+00 WtEn= 0.00D+00
 Coeff-Com:  0.152D-04 0.126D-04 0.449D-02 0.597D-02 0.162D-02-0.185D-01
 Coeff-Com: -0.130D+00-0.179D+00 0.589D+00 0.726D+00
 Coeff:      0.152D-04 0.126D-04 0.449D-02 0.597D-02 0.162D-02-0.185D-01
 Coeff:     -0.130D+00-0.179D+00 0.589D+00 0.726D+00
 Gap=     0.047 Goal=   None    Shift=    0.000
 Gap=     0.041 Goal=   None    Shift=    0.000
 RMSDP=1.28D-04 MaxDP=9.15D-03 DE=-3.67D-06 OVMax= 3.07D-03

 Cycle  11  Pass 1  IDiag  1:
 E= -1136.09910771362     Delta-E=       -0.000001527633 Rises=F Damp=F
 DIIS: error= 1.38D-05 at cycle  11 NSaved=  11.
 NSaved=11 IEnMin=11 EnMin= -1136.09910771362     IErMin=11 ErrMin= 1.38D-05
 ErrMax= 1.38D-05  0.00D+00 EMaxC= 1.00D-01 BMatC= 5.76D-08 BMatP= 2.89D-07
 IDIUse=1 WtCom= 1.00D+00 WtEn= 0.00D+00
 Coeff-Com: -0.389D-03 0.490D-03-0.560D-03-0.193D-02 0.194D-01 0.631D-01
 Coeff-Com:  0.300D-01-0.207D+00-0.352D+00 0.117D+00 0.133D+01
 Coeff:     -0.389D-03 0.490D-03-0.560D-03-0.193D-02 0.194D-01 0.631D-01
 Coeff:      0.300D-01-0.207D+00-0.352D+00 0.117D+00 0.133D+01
 Gap=     0.048 Goal=   None    Shift=    0.000
 Gap=     0.041 Goal=   None    Shift=    0.000
 RMSDP=1.27D-04 MaxDP=7.43D-03 DE=-1.53D-06 OVMax= 2.92D-03

 Cycle  12  Pass 1  IDiag  1:
 E= -1136.09910842888     Delta-E=       -0.000000715258 Rises=F Damp=F
 DIIS: error= 4.64D-06 at cycle  12 NSaved=  12.
 NSaved=12 IEnMin=12 EnMin= -1136.09910842888     IErMin=12 ErrMin= 4.64D-06
 ErrMax= 4.64D-06  0.00D+00 EMaxC= 1.00D-01 BMatC= 9.44D-09 BMatP= 5.76D-08
 IDIUse=1 WtCom= 1.00D+00 WtEn= 0.00D+00
 Coeff-Com:  0.224D-04-0.406D-04-0.807D-03-0.121D-02 0.231D-02 0.118D-01
 Coeff-Com:  0.211D-01-0.753D-02-0.129D+00-0.114D+00 0.200D+00 0.102D+01
 Coeff:      0.224D-04-0.406D-04-0.807D-03-0.121D-02 0.231D-02 0.118D-01
 Coeff:      0.211D-01-0.753D-02-0.129D+00-0.114D+00 0.200D+00 0.102D+01
 Gap=     0.048 Goal=   None    Shift=    0.000
 Gap=     0.041 Goal=   None    Shift=    0.000
 RMSDP=4.56D-05 MaxDP=2.46D-03 DE=-7.15D-07 OVMax= 1.00D-03

 Cycle  13  Pass 1  IDiag  1:
 E= -1136.09910852685     Delta-E=       -0.000000097976 Rises=F Damp=F
 DIIS: error= 2.56D-06 at cycle  13 NSaved=  13.
 NSaved=13 IEnMin=13 EnMin= -1136.09910852685     IErMin=13 ErrMin= 2.56D-06
 ErrMax= 2.56D-06  0.00D+00 EMaxC= 1.00D-01 BMatC= 3.06D-09 BMatP= 9.44D-09
 IDIUse=1 WtCom= 1.00D+00 WtEn= 0.00D+00
 Coeff-Com:  0.100D-03-0.130D-03-0.180D-03 0.625D-04-0.492D-02-0.138D-01
 Coeff-Com:  0.312D-02 0.595D-01 0.354D-01-0.790D-01-0.277D+00 0.318D+00
 Coeff-Com:  0.959D+00
 Coeff:      0.100D-03-0.130D-03-0.180D-03 0.625D-04-0.492D-02-0.138D-01
 Coeff:      0.312D-02 0.595D-01 0.354D-01-0.790D-01-0.277D+00 0.318D+00
 Coeff:      0.959D+00
 Gap=     0.048 Goal=   None    Shift=    0.000
 Gap=     0.041 Goal=   None    Shift=    0.000
 RMSDP=2.16D-05 MaxDP=1.00D-03 DE=-9.80D-08 OVMax= 5.55D-04

 Cycle  14  Pass 1  IDiag  1:
 E= -1136.09910855380     Delta-E=       -0.000000026949 Rises=F Damp=F
 DIIS: error= 1.54D-06 at cycle  14 NSaved=  14.
 NSaved=14 IEnMin=14 EnMin= -1136.09910855380     IErMin=14 ErrMin= 1.54D-06
 ErrMax= 1.54D-06  0.00D+00 EMaxC= 1.00D-01 BMatC= 6.93D-10 BMatP= 3.06D-09
 IDIUse=1 WtCom= 1.00D+00 WtEn= 0.00D+00
 Coeff-Com:  0.524D-05-0.623D-05 0.207D-03 0.324D-03-0.541D-03-0.387D-02
 Coeff-Com: -0.687D-02 0.393D-02 0.417D-01 0.323D-01-0.633D-01-0.277D+00
 Coeff-Com: -0.595D-01 0.133D+01
 Coeff:      0.524D-05-0.623D-05 0.207D-03 0.324D-03-0.541D-03-0.387D-02
 Coeff:     -0.687D-02 0.393D-02 0.417D-01 0.323D-01-0.633D-01-0.277D+00
 Coeff:     -0.595D-01 0.133D+01
 Gap=     0.048 Goal=   None    Shift=    0.000
 Gap=     0.041 Goal=   None    Shift=    0.000
 RMSDP=1.06D-05 MaxDP=4.79D-04 DE=-2.69D-08 OVMax= 2.95D-04

 Cycle  15  Pass 1  IDiag  1:
 E= -1136.09910856250     Delta-E=       -0.000000008692 Rises=F Damp=F
 DIIS: error= 6.02D-07 at cycle  15 NSaved=  15.
 NSaved=15 IEnMin=15 EnMin= -1136.09910856250     IErMin=15 ErrMin= 6.02D-07
 ErrMax= 6.02D-07  0.00D+00 EMaxC= 1.00D-01 BMatC= 1.76D-10 BMatP= 6.93D-10
 IDIUse=1 WtCom= 1.00D+00 WtEn= 0.00D+00
 Coeff-Com: -0.135D-04 0.170D-04 0.120D-03 0.931D-05 0.938D-03 0.246D-02
 Coeff-Com:  0.579D-03-0.138D-01-0.787D-02 0.185D-01 0.661D-01-0.960D-01
 Coeff-Com: -0.201D+00-0.176D-02 0.123D+01
 Coeff:     -0.135D-04 0.170D-04 0.120D-03 0.931D-05 0.938D-03 0.246D-02
 Coeff:      0.579D-03-0.138D-01-0.787D-02 0.185D-01 0.661D-01-0.960D-01
 Coeff:     -0.201D+00-0.176D-02 0.123D+01
 Gap=     0.048 Goal=   None    Shift=    0.000
 Gap=     0.041 Goal=   None    Shift=    0.000
 RMSDP=4.05D-06 MaxDP=2.81D-04 DE=-8.69D-09 OVMax= 1.37D-04

 Cycle  16  Pass 1  IDiag  1:
 E= -1136.09910856423     Delta-E=       -0.000000001731 Rises=F Damp=F
 DIIS: error= 1.91D-07 at cycle  16 NSaved=  16.
 NSaved=16 IEnMin=16 EnMin= -1136.09910856423     IErMin=16 ErrMin= 1.91D-07
 ErrMax= 1.91D-07  0.00D+00 EMaxC= 1.00D-01 BMatC= 2.05D-11 BMatP= 1.76D-10
 IDIUse=1 WtCom= 1.00D+00 WtEn= 0.00D+00
 Coeff-Com:  0.533D-05-0.723D-05-0.444D-04-0.311D-04-0.214D-03-0.373D-03
 Coeff-Com:  0.692D-03 0.422D-02-0.374D-02-0.103D-01-0.829D-02 0.633D-01
 Coeff-Com:  0.668D-01-0.168D+00-0.450D+00 0.151D+01
 Coeff:      0.533D-05-0.723D-05-0.444D-04-0.311D-04-0.214D-03-0.373D-03
 Coeff:      0.692D-03 0.422D-02-0.374D-02-0.103D-01-0.829D-02 0.633D-01
 Coeff:      0.668D-01-0.168D+00-0.450D+00 0.151D+01
 Gap=     0.048 Goal=   None    Shift=    0.000
 Gap=     0.041 Goal=   None    Shift=    0.000
 RMSDP=1.41D-06 MaxDP=1.23D-04 DE=-1.73D-09 OVMax= 5.40D-05

 Cycle  17  Pass 1  IDiag  1:
 E= -1136.09910856447     Delta-E=       -0.000000000240 Rises=F Damp=F
 DIIS: error= 8.50D-08 at cycle  17 NSaved=  17.
 NSaved=17 IEnMin=17 EnMin= -1136.09910856447     IErMin=17 ErrMin= 8.50D-08
 ErrMax= 8.50D-08  0.00D+00 EMaxC= 1.00D-01 BMatC= 2.77D-12 BMatP= 2.05D-11
 IDIUse=1 WtCom= 1.00D+00 WtEn= 0.00D+00
 Coeff-Com:  0.157D-05-0.214D-05-0.100D-04-0.312D-05-0.868D-04-0.199D-03
 Coeff-Com:  0.268D-04 0.959D-03 0.505D-03-0.129D-02-0.347D-02 0.346D-03
 Coeff-Com:  0.125D-01 0.270D-01-0.108D+00-0.752D-01 0.115D+01
 Coeff:      0.157D-05-0.214D-05-0.100D-04-0.312D-05-0.868D-04-0.199D-03
 Coeff:      0.268D-04 0.959D-03 0.505D-03-0.129D-02-0.347D-02 0.346D-03
 Coeff:      0.125D-01 0.270D-01-0.108D+00-0.752D-01 0.115D+01
 Gap=     0.048 Goal=   None    Shift=    0.000
 Gap=     0.041 Goal=   None    Shift=    0.000
 RMSDP=3.96D-07 MaxDP=2.30D-05 DE=-2.40D-10 OVMax= 1.65D-05

 Cycle  18  Pass 1  IDiag  1:
 E= -1136.09910856450     Delta-E=       -0.000000000029 Rises=F Damp=F
 DIIS: error= 5.30D-08 at cycle  18 NSaved=  18.
 NSaved=18 IEnMin=18 EnMin= -1136.09910856450     IErMin=18 ErrMin= 5.30D-08
 ErrMax= 5.30D-08  0.00D+00 EMaxC= 1.00D-01 BMatC= 1.16D-12 BMatP= 2.77D-12
 IDIUse=1 WtCom= 1.00D+00 WtEn= 0.00D+00
 Coeff-Com:  0.849D-06-0.106D-05 0.427D-05 0.488D-05-0.369D-04-0.146D-03
 Coeff-Com: -0.129D-03 0.253D-04 0.136D-02 0.118D-02-0.224D-02-0.107D-01
 Coeff-Com: -0.642D-03 0.403D-01 0.217D-01-0.307D+00 0.440D+00 0.817D+00
 Coeff:      0.849D-06-0.106D-05 0.427D-05 0.488D-05-0.369D-04-0.146D-03
 Coeff:     -0.129D-03 0.253D-04 0.136D-02 0.118D-02-0.224D-02-0.107D-01
 Coeff:     -0.642D-03 0.403D-01 0.217D-01-0.307D+00 0.440D+00 0.817D+00
 Gap=     0.048 Goal=   None    Shift=    0.000
 Gap=     0.041 Goal=   None    Shift=    0.000
 RMSDP=2.14D-07 MaxDP=1.22D-05 DE=-2.91D-11 OVMax= 7.15D-06

 Cycle  19  Pass 1  IDiag  1:
 E= -1136.09910856448     Delta-E=        0.000000000012 Rises=F Damp=F
 DIIS: error= 1.93D-08 at cycle  19 NSaved=  19.
 NSaved=19 IEnMin=18 EnMin= -1136.09910856450     IErMin=19 ErrMin= 1.93D-08
 ErrMax= 1.93D-08  0.00D+00 EMaxC= 1.00D-01 BMatC= 1.14D-13 BMatP= 1.16D-12
 IDIUse=1 WtCom= 1.00D+00 WtEn= 0.00D+00
 Coeff-Com: -0.710D-06 0.915D-06 0.323D-05 0.102D-05 0.308D-04 0.812D-04
 Coeff-Com:  0.184D-04-0.361D-03-0.306D-03 0.436D-03 0.181D-02-0.182D-02
 Coeff-Com: -0.462D-02-0.322D-02 0.330D-01-0.800D-02-0.205D+00-0.121D+00
 Coeff-Com:  0.131D+01
 Coeff:     -0.710D-06 0.915D-06 0.323D-05 0.102D-05 0.308D-04 0.812D-04
 Coeff:      0.184D-04-0.361D-03-0.306D-03 0.436D-03 0.181D-02-0.182D-02
 Coeff:     -0.462D-02-0.322D-02 0.330D-01-0.800D-02-0.205D+00-0.121D+00
 Coeff:      0.131D+01
 Gap=     0.048 Goal=   None    Shift=    0.000
 Gap=     0.041 Goal=   None    Shift=    0.000
 RMSDP=1.04D-07 MaxDP=6.27D-06 DE= 1.23D-11 OVMax= 4.39D-06

 Cycle  20  Pass 1  IDiag  1:
 E= -1136.09910856449     Delta-E=       -0.000000000006 Rises=F Damp=F
 DIIS: error= 6.26D-09 at cycle  20 NSaved=  20.
 NSaved=20 IEnMin=18 EnMin= -1136.09910856450     IErMin=20 ErrMin= 6.26D-09
 ErrMax= 6.26D-09  0.00D+00 EMaxC= 1.00D-01 BMatC= 1.85D-14 BMatP= 1.14D-13
 IDIUse=1 WtCom= 1.00D+00 WtEn= 0.00D+00
 Coeff-Com: -0.641D-07 0.818D-07-0.483D-06-0.331D-07 0.186D-05 0.617D-05
 Coeff-Com:  0.802D-05 0.516D-04-0.102D-03-0.246D-03 0.113D-03 0.164D-02
 Coeff-Com:  0.173D-03-0.454D-02-0.737D-02 0.507D-01-0.471D-01-0.139D+00
 Coeff-Com: -0.698D-01 0.122D+01
 Coeff:     -0.641D-07 0.818D-07-0.483D-06-0.331D-07 0.186D-05 0.617D-05
 Coeff:      0.802D-05 0.516D-04-0.102D-03-0.246D-03 0.113D-03 0.164D-02
 Coeff:      0.173D-03-0.454D-02-0.737D-02 0.507D-01-0.471D-01-0.139D+00
 Coeff:     -0.698D-01 0.122D+01
 Gap=     0.048 Goal=   None    Shift=    0.000
 Gap=     0.041 Goal=   None    Shift=    0.000
 RMSDP=3.53D-08 MaxDP=2.78D-06 DE=-6.37D-12 OVMax= 1.52D-06

 Cycle  21  Pass 1  IDiag  1:
 E= -1136.09910856448     Delta-E=        0.000000000008 Rises=F Damp=F
 DIIS: error= 2.71D-09 at cycle  21 NSaved=  20.
 NSaved=20 IEnMin=17 EnMin= -1136.09910856450     IErMin=20 ErrMin= 2.71D-09
 ErrMax= 2.71D-09  0.00D+00 EMaxC= 1.00D-01 BMatC= 3.85D-15 BMatP= 1.85D-14
 IDIUse=1 WtCom= 1.00D+00 WtEn= 0.00D+00
 Large coefficients: NSaved= 20 BigCof=    0.00 CofMax=   10.00 Det=-6.13D-15
 Inversion failed.  Reducing to 19 matrices.
 Large coefficients: NSaved= 19 BigCof=    0.00 CofMax=   10.00 Det=-6.13D-15
 Inversion failed.  Reducing to 18 matrices.
 Large coefficients: NSaved= 18 BigCof=    0.00 CofMax=   10.00 Det=-6.20D-15
 Inversion failed.  Reducing to 17 matrices.
 Large coefficients: NSaved= 17 BigCof=    0.00 CofMax=   10.00 Det=-6.67D-15
 Inversion failed.  Reducing to 16 matrices.
 Large coefficients: NSaved= 16 BigCof=    0.00 CofMax=   10.00 Det=-7.10D-15
 Inversion failed.  Reducing to 15 matrices.
 Coeff-Com: -0.219D-05-0.680D-05 0.844D-05 0.127D-04 0.710D-06-0.770D-04
 Coeff-Com: -0.369D-04 0.664D-03-0.169D-02-0.166D-02 0.279D-01 0.140D-01
 Coeff-Com: -0.224D+00 0.148D+00 0.104D+01
 Coeff:     -0.219D-05-0.680D-05 0.844D-05 0.127D-04 0.710D-06-0.770D-04
 Coeff:     -0.369D-04 0.664D-03-0.169D-02-0.166D-02 0.279D-01 0.140D-01
 Coeff:     -0.224D+00 0.148D+00 0.104D+01
 Gap=     0.048 Goal=   None    Shift=    0.000
 Gap=     0.041 Goal=   None    Shift=    0.000
 RMSDP=1.39D-08 MaxDP=1.32D-06 DE= 7.73D-12 OVMax= 5.72D-07

 Cycle  22  Pass 1  IDiag  1:
 E= -1136.09910856451     Delta-E=       -0.000000000023 Rises=F Damp=F
 DIIS: error= 2.07D-09 at cycle  22 NSaved=  16.
 NSaved=16 IEnMin=16 EnMin= -1136.09910856451     IErMin=16 ErrMin= 2.07D-09
 ErrMax= 2.07D-09  0.00D+00 EMaxC= 1.00D-01 BMatC= 1.06D-15 BMatP= 3.85D-15
 IDIUse=1 WtCom= 1.00D+00 WtEn= 0.00D+00
 Large coefficients: NSaved= 16 BigCof=    0.00 CofMax=   10.00 Det=-1.88D-15
 Inversion failed.  Reducing to 15 matrices.
 Coeff-Com: -0.833D-05 0.110D-04 0.289D-04-0.266D-04-0.203D-03 0.721D-04
 Coeff-Com:  0.733D-03-0.802D-05-0.555D-02 0.118D-01 0.176D-01-0.534D-01
 Coeff-Com: -0.107D+00 0.273D+00 0.863D+00
 Coeff:     -0.833D-05 0.110D-04 0.289D-04-0.266D-04-0.203D-03 0.721D-04
 Coeff:      0.733D-03-0.802D-05-0.555D-02 0.118D-01 0.176D-01-0.534D-01
 Coeff:     -0.107D+00 0.273D+00 0.863D+00
 Gap=     0.048 Goal=   None    Shift=    0.000
 Gap=     0.041 Goal=   None    Shift=    0.000
 RMSDP=7.30D-09 MaxDP=7.30D-07 DE=-2.32D-11 OVMax= 2.32D-07

 SCF Done:  E(UB3LYP) =  -1136.09910856     A.U. after   22 cycles
            NFock= 22  Conv=0.73D-08     -V/T= 2.0026
 <Sx>= 0.0000 <Sy>= 0.0000 <Sz>= 0.5000 <S**2>= 0.7886 S= 0.5191
 <L.S>= 0.000000000000E+00
 KE= 1.133200889555D+03 PE=-3.430048604427D+03 EE= 8.103846886426D+02
 Annihilation of the first spin contaminant:
 S**2 before annihilation     0.7886,   after     0.7507
 Leave Link  502 at Mon Nov 13 12:08:21 2023, MaxMem=  1879048192 cpu:             223.2 elap:              18.7
 (Enter /home/sekinelabo/g16/l601.exe)
 Copying SCF densities to generalized density rwf, IOpCl= 1 IROHF=0.

 **********************************************************************

            Population analysis using the SCF Density.

 **********************************************************************

 Orbital symmetries:
 Alpha Orbitals:
       Occupied  (A) (A) (A) (A) (A) (A) (A) (A) (A) (A) (A) (A)
                 (A) (A) (A) (A) (A) (A) (A) (A) (A) (A) (A) (A)
                 (A) (A) (A) (A) (A) (A) (A) (A) (A) (A) (A) (A)
                 (A) (A) (A)
       Virtual   (A) (A) (A) (A) (A) (A) (A) (A) (A) (A) (A) (A)
                 (A) (A) (A) (A) (A) (A) (A) (A) (A) (A) (A) (A)
                 (A) (A) (A) (A) (A) (A) (A) (A) (A) (A) (A) (A)
                 (A) (A) (A) (A) (A) (A) (A) (A) (A) (A) (A) (A)
                 (A) (A) (A) (A) (A) (A) (A) (A) (A) (A) (A) (A)
                 (A) (A) (A) (A) (A) (A) (A) (A) (A) (A) (A) (A)
                 (A) (A) (A) (A) (A) (A) (A) (A) (A) (A) (A) (A)
                 (A) (A) (A) (A) (A) (A) (A) (A) (A) (A) (A) (A)
                 (A) (A) (A) (A) (A) (A) (A) (A) (A) (A) (A) (A)
                 (A) (A) (A) (A) (A) (A) (A) (A) (A) (A) (A) (A)
                 (A) (A) (A) (A) (A) (A) (A) (A) (A) (A) (A) (A)
                 (A) (A) (A) (A) (A) (A) (A) (A) (A) (A) (A) (A)
                 (A) (A) (A) (A) (A) (A) (A) (A) (A) (A) (A) (A)
                 (A) (A) (A) (A) (A) (A) (A) (A) (A) (A) (A) (A)
                 (A) (A)
 Beta  Orbitals:
       Occupied  (A) (A) (A) (A) (A) (A) (A) (A) (A) (A) (A) (A)
                 (A) (A) (A) (A) (A) (A) (A) (A) (A) (A) (A) (A)
                 (A) (A) (A) (A) (A) (A) (A) (A) (A) (A) (A) (A)
                 (A) (A)
       Virtual   (A) (A) (A) (A) (A) (A) (A) (A) (A) (A) (A) (A)
                 (A) (A) (A) (A) (A) (A) (A) (A) (A) (A) (A) (A)
                 (A) (A) (A) (A) (A) (A) (A) (A) (A) (A) (A) (A)
                 (A) (A) (A) (A) (A) (A) (A) (A) (A) (A) (A) (A)
                 (A) (A) (A) (A) (A) (A) (A) (A) (A) (A) (A) (A)
                 (A) (A) (A) (A) (A) (A) (A) (A) (A) (A) (A) (A)
                 (A) (A) (A) (A) (A) (A) (A) (A) (A) (A) (A) (A)
                 (A) (A) (A) (A) (A) (A) (A) (A) (A) (A) (A) (A)
                 (A) (A) (A) (A) (A) (A) (A) (A) (A) (A) (A) (A)
                 (A) (A) (A) (A) (A) (A) (A) (A) (A) (A) (A) (A)
                 (A) (A) (A) (A) (A) (A) (A) (A) (A) (A) (A) (A)
                 (A) (A) (A) (A) (A) (A) (A) (A) (A) (A) (A) (A)
                 (A) (A) (A) (A) (A) (A) (A) (A) (A) (A) (A) (A)
                 (A) (A) (A) (A) (A) (A) (A) (A) (A) (A) (A) (A)
                 (A) (A) (A)
 The electronic state is 2-A.
 Alpha  occ. eigenvalues --  -38.44971 -38.44576 -38.44196 -38.44030 -38.43641
 Alpha  occ. eigenvalues --  -38.43509 -38.43235  -2.20796  -2.20682  -2.20189
 Alpha  occ. eigenvalues --   -2.20004  -2.19545  -2.19490  -2.19301  -1.14476
 Alpha  occ. eigenvalues --   -1.14421  -1.14416  -1.14410  -1.14382  -1.14300
 Alpha  occ. eigenvalues --   -1.13910  -1.13852  -1.13840  -1.13709  -1.13617
 Alpha  occ. eigenvalues --   -1.13591  -1.13312  -1.13239  -1.13195  -1.13173
 Alpha  occ. eigenvalues --   -1.13132  -1.13045  -1.12986  -1.12944  -1.12888
 Alpha  occ. eigenvalues --   -0.19526  -0.14208  -0.12092  -0.11611
 Alpha virt. eigenvalues --   -0.06860  -0.04650  -0.04178  -0.03744  -0.02698
 Alpha virt. eigenvalues --   -0.02459  -0.02040  -0.00922  -0.00617  -0.00073
 Alpha virt. eigenvalues --    0.00042   0.00111   0.00425   0.00795   0.00899
 Alpha virt. eigenvalues --    0.01053   0.01238   0.01281   0.01389   0.01443
 Alpha virt. eigenvalues --    0.01514   0.01754   0.01833   0.01917   0.02010
 Alpha virt. eigenvalues --    0.02237   0.02310   0.02397   0.02587   0.02651
 Alpha virt. eigenvalues --    0.02726   0.02932   0.02974   0.03052   0.03092
 Alpha virt. eigenvalues --    0.03121   0.03389   0.03658   0.03732   0.03938
 Alpha virt. eigenvalues --    0.04140   0.04257   0.04570   0.05092   0.05128
 Alpha virt. eigenvalues --    0.05257   0.05732   0.05882   0.06155   0.06258
 Alpha virt. eigenvalues --    0.06541   0.06876   0.07073   0.07375   0.07632
 Alpha virt. eigenvalues --    0.08213   0.08375   0.08522   0.08595   0.08882
 Alpha virt. eigenvalues --    0.09134   0.09659   0.09995   0.11655   0.11916
 Alpha virt. eigenvalues --    0.12438   0.12962   0.13239   0.13391   0.13572
 Alpha virt. eigenvalues --    0.13952   0.14223   0.14667   0.15224   0.15653
 Alpha virt. eigenvalues --    0.16031   0.17461   0.18221   0.20049   0.23196
 Alpha virt. eigenvalues --    0.24688   0.27417   0.29018   0.29129   0.29944
 Alpha virt. eigenvalues --    0.30583   0.32013   0.32662   0.33716   0.34526
 Alpha virt. eigenvalues --    0.34706   0.35773   0.36445   0.37079   0.37749
 Alpha virt. eigenvalues --    0.38374   0.39087   0.40797   0.42035   0.43319
 Alpha virt. eigenvalues --    0.43520   0.43782   0.44246   0.44449   0.44976
 Alpha virt. eigenvalues --    0.45439   0.45755   0.46186   0.46379   0.46770
 Alpha virt. eigenvalues --    0.48127   0.48161   0.48571   0.49440   0.49839
 Alpha virt. eigenvalues --    0.50461   0.51343   0.51980   0.52206   0.53385
 Alpha virt. eigenvalues --    0.54336   0.55922   0.56178   0.58377   0.59011
 Alpha virt. eigenvalues --    0.63234   0.65533   0.67296   0.68451   0.72063
 Alpha virt. eigenvalues --    0.73498   0.75830   0.76083   0.80036   0.83351
 Alpha virt. eigenvalues --    2.07925   2.11749   2.16908   2.20051   2.24187
 Alpha virt. eigenvalues --    2.30714   2.31439   4.40414   4.40781   4.41294
 Alpha virt. eigenvalues --    4.42160   4.42823   4.43591   4.44143   4.45154
 Alpha virt. eigenvalues --    4.45566   4.46470   4.47457   4.48974   4.56573
 Alpha virt. eigenvalues --    4.58319   4.62948   4.65217   4.66870   4.71038
 Alpha virt. eigenvalues --    4.74802   4.75571   4.78300  96.28324  96.33754
 Alpha virt. eigenvalues --   96.40136  96.44339  96.50528  96.58327  96.60445
  Beta  occ. eigenvalues --  -38.44894 -38.44515 -38.44165 -38.44017 -38.43619
  Beta  occ. eigenvalues --  -38.43480 -38.43216  -2.20652  -2.20577  -2.20136
  Beta  occ. eigenvalues --   -2.19980  -2.19506  -2.19442  -2.19282  -1.14383
  Beta  occ. eigenvalues --   -1.14343  -1.14318  -1.14311  -1.14308  -1.14214
  Beta  occ. eigenvalues --   -1.13873  -1.13806  -1.13799  -1.13688  -1.13591
  Beta  occ. eigenvalues --   -1.13576  -1.13282  -1.13202  -1.13163  -1.13141
  Beta  occ. eigenvalues --   -1.13085  -1.13015  -1.12956  -1.12894  -1.12861
  Beta  occ. eigenvalues --   -0.18910  -0.13402  -0.11989
  Beta virt. eigenvalues --   -0.07921  -0.06544  -0.04376  -0.03666  -0.03577
  Beta virt. eigenvalues --   -0.02356  -0.02029  -0.01497  -0.00685  -0.00305
  Beta virt. eigenvalues --    0.00069   0.00132   0.00267   0.00514   0.00841
  Beta virt. eigenvalues --    0.00937   0.01115   0.01274   0.01364   0.01495
  Beta virt. eigenvalues --    0.01568   0.01614   0.01857   0.01887   0.01988
  Beta virt. eigenvalues --    0.02059   0.02360   0.02380   0.02501   0.02637
  Beta virt. eigenvalues --    0.02711   0.02753   0.02970   0.02992   0.03107
  Beta virt. eigenvalues --    0.03166   0.03238   0.03448   0.03740   0.03872
  Beta virt. eigenvalues --    0.04057   0.04194   0.04315   0.04644   0.05147
  Beta virt. eigenvalues --    0.05176   0.05398   0.05791   0.05969   0.06228
  Beta virt. eigenvalues --    0.06369   0.06674   0.06968   0.07189   0.07494
  Beta virt. eigenvalues --    0.07785   0.08287   0.08431   0.08711   0.08845
  Beta virt. eigenvalues --    0.09009   0.09348   0.09920   0.10120   0.11706
  Beta virt. eigenvalues --    0.12008   0.12644   0.13169   0.13359   0.13562
  Beta virt. eigenvalues --    0.13762   0.14182   0.14495   0.14722   0.15395
  Beta virt. eigenvalues --    0.15826   0.16174   0.17647   0.18493   0.20241
  Beta virt. eigenvalues --    0.23670   0.24987   0.27780   0.29163   0.29492
  Beta virt. eigenvalues --    0.30320   0.30818   0.32172   0.32871   0.34167
  Beta virt. eigenvalues --    0.35046   0.35201   0.36173   0.36625   0.37413
  Beta virt. eigenvalues --    0.38035   0.38722   0.39478   0.41137   0.42176
  Beta virt. eigenvalues --    0.43579   0.43755   0.44000   0.44415   0.44668
  Beta virt. eigenvalues --    0.45118   0.45544   0.45932   0.46297   0.46453
  Beta virt. eigenvalues --    0.46930   0.48211   0.48237   0.48833   0.49644
  Beta virt. eigenvalues --    0.49959   0.50579   0.51461   0.52103   0.52327
  Beta virt. eigenvalues --    0.53528   0.54485   0.56137   0.56302   0.58584
  Beta virt. eigenvalues --    0.59016   0.63429   0.65604   0.67537   0.68634
  Beta virt. eigenvalues --    0.72225   0.73668   0.75924   0.76181   0.80135
  Beta virt. eigenvalues --    0.83463   2.08066   2.12034   2.16998   2.20154
  Beta virt. eigenvalues --    2.24285   2.30746   2.31616   4.40538   4.40845
  Beta virt. eigenvalues --    4.41335   4.42220   4.42891   4.43655   4.44213
  Beta virt. eigenvalues --    4.45229   4.45617   4.46510   4.47480   4.49028
  Beta virt. eigenvalues --    4.56610   4.58379   4.62995   4.65268   4.66950
  Beta virt. eigenvalues --    4.71082   4.74877   4.75628   4.78358  96.28372
  Beta virt. eigenvalues --   96.33849  96.40168  96.44374  96.50564  96.58345
  Beta virt. eigenvalues --   96.60509
          Condensed to atoms (all electrons):
               1          2          3          4          5          6
     1  Na  11.084380   0.369802  -0.693798   0.472999   0.104229  -0.163489
     2  Na   0.369802  11.670704  -0.225399  -0.266368   0.912890  -1.677640
     3  Na  -0.693798  -0.225399  13.298642  -1.727244   1.530936  -0.821543
     4  Na   0.472999  -0.266368  -1.727244  12.270493  -1.730594   1.650380
     5  Na   0.104229   0.912890   1.530936  -1.730594  13.354711  -2.713056
     6  Na  -0.163489  -1.677640  -0.821543   1.650380  -2.713056  15.334092
     7  Na   0.208873  -0.168924  -0.861930   0.647014  -0.854492   0.324435
               7
     1  Na   0.208873
     2  Na  -0.168924
     3  Na  -0.861930
     4  Na   0.647014
     5  Na  -0.854492
     6  Na   0.324435
     7  Na  11.352818
          Atomic-Atomic Spin Densities.
               1          2          3          4          5          6
     1  Na   0.076849   0.051950   0.082684  -0.212812   0.311309  -0.233291
     2  Na   0.051950   0.001799  -0.100713   0.008491   0.016854  -0.080639
     3  Na   0.082684  -0.100713  -0.050920   0.434294  -0.403485   0.363641
     4  Na  -0.212812   0.008491   0.434294  -0.252700   0.114690  -0.051012
     5  Na   0.311309   0.016854  -0.403485   0.114690   0.286466  -0.310510
     6  Na  -0.233291  -0.080639   0.363641  -0.051012  -0.310510   0.445299
     7  Na  -0.024489   0.052583   0.168829  -0.139582   0.131888   0.024688
               7
     1  Na  -0.024489
     2  Na   0.052583
     3  Na   0.168829
     4  Na  -0.139582
     5  Na   0.131888
     6  Na   0.024688
     7  Na   0.082470
 Mulliken charges and spin densities:
               1          2
     1  Na  -0.382995   0.052200
     2  Na   0.384937  -0.049674
     3  Na   0.500336   0.494331
     4  Na  -0.316681  -0.098631
     5  Na   0.395376   0.147211
     6  Na  -0.933178   0.158175
     7  Na   0.352205   0.296387
 Sum of Mulliken charges =  -0.00000   1.00000
 Mulliken charges and spin densities with hydrogens summed into heavy atoms:
               1          2
     1  Na  -0.382995   0.052200
     2  Na   0.384937  -0.049674
     3  Na   0.500336   0.494331
     4  Na  -0.316681  -0.098631
     5  Na   0.395376   0.147211
     6  Na  -0.933178   0.158175
     7  Na   0.352205   0.296387
 Electronic spatial extent (au):  <R**2>=           2481.8075
 Charge=             -0.0000 electrons
 Dipole moment (field-independent basis, Debye):
    X=              0.0527    Y=             -0.2238    Z=             -0.1666  Tot=              0.2840
 Quadrupole moment (field-independent basis, Debye-Ang):
   XX=            -58.8205   YY=            -73.4668   ZZ=            -65.7712
   XY=              2.0946   XZ=             -3.0383   YZ=             -1.2156
 Traceless Quadrupole moment (field-independent basis, Debye-Ang):
   XX=              7.1990   YY=             -7.4473   ZZ=              0.2483
   XY=              2.0946   XZ=             -3.0383   YZ=             -1.2156
 Octapole moment (field-independent basis, Debye-Ang**2):
  XXX=             35.7046  YYY=              4.9471  ZZZ=             12.0031  XYY=             -0.8907
  XXY=              4.2887  XXZ=            -12.9971  XZZ=             -7.3750  YZZ=             -7.4427
  YYZ=             -7.4012  XYZ=              6.6269
 Hexadecapole moment (field-independent basis, Debye-Ang**3):
 XXXX=          -2204.2389 YYYY=          -1178.2103 ZZZZ=           -594.3418 XXXY=             90.5256
 XXXZ=            -78.4379 YYYX=            -15.4557 YYYZ=             12.2125 ZZZX=            -29.0972
 ZZZY=            -24.5570 XXYY=           -629.4574 XXZZ=           -533.6995 YYZZ=           -279.7524
 XXYZ=            -37.5015 YYXZ=             10.8685 ZZXY=              0.2996
 N-N= 3.503639176653D+02 E-N=-3.430048604689D+03  KE= 1.133200889555D+03
                          Isotropic Fermi Contact Couplings
        Atom                 a.u.       MegaHertz       Gauss      10(-4) cm-1
     1  Na(23)             0.21246     251.35028      89.68803      83.84143
     2  Na(23)             0.04563      53.98288      19.26243      18.00675
     3  Na(23)             0.10398     123.00840      43.89245      41.03118
     4  Na(23)             0.08034      95.04478      33.91434      31.70353
     5  Na(23)             0.08610     101.85527      36.34449      33.97526
     6  Na(23)            -0.06117     -72.36101     -25.82021     -24.13703
     7  Na(23)             0.33829     400.20117     142.80173     133.49274
 --------------------------------------------------------
       Center         ----  Spin Dipole Couplings  ----
                      3XX-RR        3YY-RR        3ZZ-RR
 --------------------------------------------------------
     1   Atom        0.003812      0.014180     -0.017992
     2   Atom       -0.009268     -0.006269      0.015536
     3   Atom       -0.008379      0.000214      0.008165
     4   Atom       -0.006989      0.009808     -0.002819
     5   Atom       -0.027094      0.016701      0.010392
     6   Atom        0.052603     -0.051776     -0.000827
     7   Atom       -0.004572      0.003614      0.000958
 --------------------------------------------------------
                        XY            XZ            YZ
 --------------------------------------------------------
     1   Atom        0.025178      0.003406      0.011191
     2   Atom       -0.002804      0.014653      0.003011
     3   Atom       -0.008129     -0.001287     -0.007692
     4   Atom        0.006961      0.002261      0.010396
     5   Atom       -0.006101      0.006261     -0.030085
     6   Atom       -0.007139     -0.073375      0.011674
     7   Atom        0.000651      0.003754      0.000656
 --------------------------------------------------------


 ---------------------------------------------------------------------------------
              Anisotropic Spin Dipole Couplings in Principal Axis System
 ---------------------------------------------------------------------------------

       Atom             a.u.   MegaHertz   Gauss  10(-4) cm-1        Axes

              Baa    -0.0231    -3.261    -1.164    -1.088  0.3407 -0.4739  0.8120
     1 Na(23) Bbb    -0.0138    -1.943    -0.693    -0.648  0.7179 -0.4266 -0.5501
              Bcc     0.0369     5.204     1.857     1.736  0.6071  0.7704  0.1949
 
              Baa    -0.0174    -2.454    -0.876    -0.819  0.8522  0.3260 -0.4092
     2 Na(23) Bbb    -0.0050    -0.712    -0.254    -0.237 -0.3185  0.9438  0.0887
              Bcc     0.0224     3.166     1.130     1.056  0.4151  0.0548  0.9081
 
              Baa    -0.0145    -2.049    -0.731    -0.683  0.7936  0.5611  0.2354
     3 Na(23) Bbb     0.0011     0.160     0.057     0.053 -0.5854  0.5983  0.5472
              Bcc     0.0134     1.889     0.674     0.630  0.1662 -0.5720  0.8032
 
              Baa    -0.0103    -1.451    -0.518    -0.484  0.7282 -0.4968  0.4721
     4 Na(23) Bbb    -0.0075    -1.055    -0.377    -0.352 -0.6258 -0.2012  0.7536
              Bcc     0.0177     2.506     0.894     0.836  0.2794  0.8442  0.4575
 
              Baa    -0.0282    -3.979    -1.420    -1.327  0.9915  0.0564 -0.1170
     5 Na(23) Bbb    -0.0167    -2.355    -0.840    -0.785  0.0487  0.6736  0.7375
              Bcc     0.0449     6.334     2.260     2.113 -0.1204  0.7369 -0.6652
 
              Baa    -0.0579    -8.183    -2.920    -2.730 -0.3487  0.7235 -0.5958
     6 Na(23) Bbb    -0.0470    -6.641    -2.370    -2.215  0.4628  0.6857  0.5618
              Bcc     0.1050    14.825     5.290     4.945  0.8150 -0.0799 -0.5740
 
              Baa    -0.0065    -0.915    -0.326    -0.305  0.8933 -0.0285 -0.4485
     7 Na(23) Bbb     0.0023     0.322     0.115     0.107  0.3614 -0.5476  0.7547
              Bcc     0.0042     0.593     0.211     0.198  0.2671  0.8363  0.4789
 

 ---------------------------------------------------------------------------------

 No NMR shielding tensors so no spin-rotation constants.
 Leave Link  601 at Mon Nov 13 12:08:21 2023, MaxMem=  1879048192 cpu:               2.7 elap:               0.2
 (Enter /home/sekinelabo/g16/l701.exe)
 ... and contract with generalized density number  0.
 Compute integral first derivatives.
 Leave Link  701 at Mon Nov 13 12:08:21 2023, MaxMem=  1879048192 cpu:               1.7 elap:               0.1
 (Enter /home/sekinelabo/g16/l702.exe)
 L702 exits ... SP integral derivatives will be done elsewhere.
 Leave Link  702 at Mon Nov 13 12:08:21 2023, MaxMem=  1879048192 cpu:               0.5 elap:               0.0
 (Enter /home/sekinelabo/g16/l703.exe)
 Integral derivatives from FoFJK, PRISM(SPDF).
 Compute integral first derivatives, UseDBF=F ICtDFT=           0.
 Calling FoFJK, ICntrl=      2127 FMM=F ISym2X=0 I1Cent= 0 IOpClX= 1 NMat=1 NMatS=1 NMatT=0.
 FoFJK:  IHMeth= 1 ICntrl=    2127 DoSepK=F KAlg= 0 I1Cent=           0 FoldK=F
 IRaf=         0 NMat=       1 IRICut=       1 DoRegI=T DoRafI=F ISym2E= 0 IDoP0=0 IntGTp=1.
 FoFCou: FMM=F IPFlag=           0 FMFlag=      100000 FMFlg1=         800
         NFxFlg=           0 DoJE=F BraDBF=F KetDBF=F FulRan=T
         wScrn=  0.000000 ICntrl=      2127 IOpCl=  1 I1Cent=           0 NGrid=           0
         NMat0=    1 NMatS0=      1 NMatT0=    0 NMatD0=    1 NMtDS0=    0 NMtDT0=    0
 Symmetry not used in FoFCou.
 Leave Link  703 at Mon Nov 13 12:08:24 2023, MaxMem=  1879048192 cpu:              34.8 elap:               2.2
 (Enter /home/sekinelabo/g16/l716.exe)
 Dipole        = 2.07493728D-02-8.80518357D-02-6.55606756D-02
 ***** Axes restored to original set *****
 -------------------------------------------------------------------
 Center     Atomic                   Forces (Hartrees/Bohr)
 Number     Number              X              Y              Z
 -------------------------------------------------------------------
      1       11           0.004042996   -0.004246186   -0.012881488
      2       11          -0.002355006   -0.010448638    0.008091711
      3       11           0.009602634   -0.004428220    0.003398938
      4       11           0.003657826    0.006566291    0.003318120
      5       11          -0.001889199    0.012189860   -0.001454620
      6       11          -0.010716443   -0.000887175   -0.002683792
      7       11          -0.002342808    0.001254067    0.002211131
 -------------------------------------------------------------------
 Cartesian Forces:  Max     0.012881488 RMS     0.006401053
 Z-matrix is all fixed cartesians, so copy forces.
 Force constants in Cartesian coordinates: 
                1             2             3             4             5 
      1  0.110843D+00
      2 -0.713280D-02  0.850453D-01
      3  0.264709D-01  0.141368D-01  0.206544D+00
      4 -0.130230D-01 -0.348768D-02  0.103708D-01  0.803042D-01
      5  0.230541D-02 -0.147954D-01  0.285819D-02  0.591240D-02  0.683614D-01
      6  0.112042D-01  0.232488D-01 -0.411621D-01 -0.101609D-01 -0.375062D-01
      7 -0.243142D-01  0.533663D-02  0.274318D-02 -0.391253D-01  0.358852D-02
      8  0.263143D-02 -0.164836D-01 -0.297063D-02 -0.175801D-01 -0.207312D-01
      9 -0.280101D-01  0.175733D-02 -0.355547D-01  0.163034D-01  0.899480D-02
     10  0.210335D-02 -0.510265D-02 -0.104544D-03  0.232671D-02 -0.696895D-02
     11 -0.577298D-02  0.684593D-03 -0.416791D-02  0.329290D-03 -0.104692D-02
     12 -0.176514D-02 -0.568621D-02 -0.258344D-02 -0.427613D-03  0.153342D-02
     13 -0.173703D-01  0.126215D-01 -0.106216D-02  0.443766D-02  0.213902D-02
     14  0.286354D-02 -0.344637D-01  0.557349D-03 -0.238414D-02 -0.588374D-02
     15  0.124553D-02 -0.251167D-01 -0.221733D-01  0.848986D-03  0.929360D-02
     16 -0.771477D-01 -0.663419D-02 -0.770601D-01 -0.344448D-01 -0.800851D-02
     17 -0.394966D-03 -0.290221D-01 -0.184210D-01  0.138987D-01 -0.273962D-01
     18 -0.471764D-01 -0.128031D-01 -0.184620D+00 -0.140274D-01  0.134242D-01
     19  0.189083D-01  0.439918D-02  0.386419D-01 -0.475555D-03  0.103211D-02
     20  0.550037D-02  0.903488D-02  0.800722D-02  0.331157D-02  0.149203D-02
     21  0.380309D-01  0.446310D-02  0.795501D-01 -0.290723D-02  0.140202D-02
                6             7             8             9            10 
      6  0.693947D-01
      7 -0.454623D-02  0.891548D-01
      8  0.411867D-02 -0.100737D-01  0.684485D-01
      9 -0.107049D-01  0.130625D-01 -0.241014D-02  0.455464D-01
     10 -0.172920D-02 -0.189354D-01  0.152386D-01 -0.178045D-02  0.411475D-01
     11 -0.344956D-03 -0.337560D-02 -0.346637D-01 -0.102344D-01  0.228735D-02
     12  0.547012D-03 -0.632688D-02 -0.187366D-02 -0.891145D-02  0.212377D-01
     13 -0.104340D-02 -0.186099D-02  0.519641D-02  0.106919D-02 -0.253144D-01
     14 -0.771623D-03  0.634887D-02 -0.839479D-03  0.411612D-02 -0.634497D-02
     15  0.281212D-02 -0.291716D-03  0.509521D-02  0.281221D-02 -0.157038D-01
     16  0.423042D-02 -0.505845D-02  0.372115D-02 -0.629746D-03 -0.131064D-02
     17  0.140516D-01 -0.185289D-02  0.402794D-02 -0.227509D-02  0.880366D-03
     18 -0.269176D-01 -0.492836D-02 -0.370766D-02  0.687358D-02 -0.187669D-02
     19  0.204507D-02  0.139473D-03  0.866226D-03 -0.147387D-04 -0.170969D-04
     20 -0.279626D-02  0.281593D-04  0.241487D-03  0.514341D-04  0.102657D-04
     21  0.603083D-02  0.287546D-03  0.174820D-02 -0.611518D-04 -0.430045D-04
               11            12            13            14            15 
     11  0.546872D-01
     12  0.110743D-01  0.255916D-01
     13  0.103957D-01 -0.144837D-01  0.738118D-01
     14 -0.225518D-01 -0.378847D-02 -0.603943D-02  0.968080D-01
     15  0.834269D-02 -0.171262D-01  0.154461D-01 -0.432987D-02  0.456108D-01
     16 -0.388181D-02  0.174120D-02 -0.320527D-01  0.401792D-02 -0.212489D-02
     17  0.290150D-02 -0.124471D-02 -0.192468D-01 -0.378834D-01  0.412095D-02
     18 -0.471509D-02  0.242103D-02  0.801654D-03  0.359178D-02 -0.117302D-01
     19  0.180555D-04  0.244204D-04 -0.165112D-02  0.153821D-02  0.579754D-03
     20 -0.108413D-04 -0.146630D-04 -0.506647D-02  0.481417D-02  0.259413D-02
     21  0.454157D-04  0.614254D-04 -0.727740D-03  0.624720D-03 -0.205390D-03
               16            17            18            19            20 
     16  0.216256D+00
     17  0.142603D-01  0.123784D+00
     18  0.135141D+00  0.206109D-01  0.389677D+00
     19 -0.662416D-01 -0.754470D-02 -0.679337D-01  0.493375D-01
     20 -0.347482D-02 -0.364113D-01 -0.164011D-01 -0.309079D-03  0.208396D-01
     21 -0.612978D-01 -0.168427D-01 -0.175704D+00  0.266573D-01  0.855926D-02
               21 
     21  0.903279D-01
 Leave Link  716 at Mon Nov 13 12:08:24 2023, MaxMem=  1879048192 cpu:               0.5 elap:               0.0
 (Enter /home/sekinelabo/g16/l103.exe)

 GradGradGradGradGradGradGradGradGradGradGradGradGradGradGradGradGradGrad
 Berny optimization.
 Search for a local minimum.
 Step number   1 out of a maximum of    2
 All quantities printed in internal units (Hartrees-Bohrs-Radians)
 Second derivative matrix not updated -- first step.
 ITU=  0
     Eigenvalues ---    0.01198   0.02722   0.03348   0.03582   0.06487
     Eigenvalues ---    0.08165   0.09117   0.10093   0.11805   0.13036
     Eigenvalues ---    0.14866   0.14947   0.18077   0.19357   0.68142
 Quadratic step=3.967D-01 exceeds max=3.000D-01 adjusted using Lamda=-1.558D-02.
 Angle between NR and scaled steps=   8.53 degrees.
 Angle between quadratic step and forces=  25.80 degrees.
 Linear search not attempted -- first point.
 B after Tr=    -0.000000    0.000000    0.000000
         Rot=    1.000000    0.000000   -0.000000   -0.000000 Ang=   0.00 deg.
 Variable       Old X    -DE/DX   Delta X   Delta X   Delta X     New X
                                 (Linear)    (Quad)   (Total)
    X1       10.05783   0.00404   0.00000   0.02702   0.02702  10.08485
    Y1        2.42637  -0.00425   0.00000  -0.04220  -0.04220   2.38417
    Z1        0.00000  -0.01288   0.00000  -0.08093  -0.08093  -0.08093
    X2        8.73128  -0.00236   0.00000  -0.00753  -0.00753   8.72375
    Y2        0.00000  -0.01045   0.00000  -0.13001  -0.13001  -0.13001
    Z2        4.94237   0.00809   0.00000   0.02516   0.02516   4.96754
    X3       13.96619   0.00960   0.00000   0.10232   0.10232  14.06851
    Y3        1.99687  -0.00443   0.00000  -0.04960  -0.04960   1.94726
    Z3        4.08569   0.00340   0.00000   0.04196   0.04196   4.12766
    X4       13.38983   0.00366   0.00000   0.07548   0.07548  13.46531
    Y4        7.54189   0.00657   0.00000   0.10217   0.10217   7.64405
    Z4        5.16665   0.00332   0.00000   0.03037   0.03037   5.19703
    X5        8.76975  -0.00189   0.00000  -0.00824  -0.00824   8.76151
    Y5        7.62610   0.01219   0.00000   0.10561   0.10561   7.73170
    Z5        1.86983  -0.00145   0.00000  -0.03029  -0.03029   1.83954
    X6        5.01225  -0.01072   0.00000  -0.08410  -0.08410   4.92815
    Y6        3.40915  -0.00089   0.00000  -0.00929  -0.00929   3.39986
    Z6        2.35703  -0.00268   0.00000  -0.01291  -0.01291   2.34412
    X7        0.00000  -0.00234   0.00000  -0.10495  -0.10495  -0.10495
    Y7        4.71171   0.00125   0.00000   0.02334   0.02334   4.73505
    Z7        4.66065   0.00221   0.00000   0.02664   0.02664   4.68729
         Item               Value     Threshold  Converged?
 Maximum Force            0.012881     0.000450     NO 
 RMS     Force            0.006401     0.000300     NO 
 Maximum Displacement     0.130014     0.001800     NO 
 RMS     Displacement     0.065514     0.001200     NO 
 Predicted change in Energy=-4.666373D-03
 GradGradGradGradGradGradGradGradGradGradGradGradGradGradGradGradGradGrad

 Leave Link  103 at Mon Nov 13 12:08:24 2023, MaxMem=  1879048192 cpu:               0.3 elap:               0.0
 (Enter /home/sekinelabo/g16/l9999.exe)
 1\1\GINC-SEKINELABO-XA7R-R37\Force\UB3LYP\6-311+G(d)\Na7(2)\SEKINELABO
 \13-Nov-2023\0\\#P B3LYP/6-311+g(d) force\\Gaussian input prepared by 
 ASE\\0,2\Na,5.3223762854,1.2839786269,0.\Na,4.6203953512,0.,2.61539080
 96\Na,7.3905916892,1.0566960754,2.162055747\Na,7.0855936488,3.99099409
 13,2.7340759702\Na,4.6407515128,4.0355577943,0.9894709902\Na,2.6523702
 793,1.804044345,1.2472867032\Na,0.,2.4933314198,2.4663091735\\Version=
 ES64L-G16RevB.01\State=2-A\HF=-1136.0991086\S2=0.78859\S2-1=0.\S2A=0.7
 50728\RMSD=7.300e-09\RMSF=6.401e-03\Dipole=-0.0207494,-0.0880518,0.065
 5607\Quadrupole=5.3522934,-5.5368631,0.1845697,-1.5572968,-2.2588999,0
 .903777\PG=C01 [X(Na7)]\\@


 Statistics are no substitute for judgment.
                            -- Henry Clay
 Job cpu time:       0 days  0 hours  4 minutes 35.5 seconds.
 Elapsed time:       0 days  0 hours  0 minutes 22.1 seconds.
 File lengths (MBytes):  RWF=     32 Int=      0 D2E=      0 Chk=      5 Scr=      1
 Normal termination of Gaussian 16 at Mon Nov 13 12:08:24 2023.
