 Entering Gaussian System, Link 0=g16
 Initial command:
 /home/sekinelabo/g16/l1.exe "/home/sekinelabo/g16temp/Gau-3975928.inp" -scrdir="/home/sekinelabo/g16temp/"
 Entering Link 1 = /home/sekinelabo/g16/l1.exe PID=   3975930.
  
 Copyright (c) 1988-2017, Gaussian, Inc.  All Rights Reserved.
  
 This is part of the Gaussian(R) 16 program.  It is based on
 the Gaussian(R) 09 system (copyright 2009, Gaussian, Inc.),
 the Gaussian(R) 03 system (copyright 2003, Gaussian, Inc.),
 the Gaussian(R) 98 system (copyright 1998, Gaussian, Inc.),
 the Gaussian(R) 94 system (copyright 1995, Gaussian, Inc.),
 the Gaussian 92(TM) system (copyright 1992, Gaussian, Inc.),
 the Gaussian 90(TM) system (copyright 1990, Gaussian, Inc.),
 the Gaussian 88(TM) system (copyright 1988, Gaussian, Inc.),
 the Gaussian 86(TM) system (copyright 1986, Carnegie Mellon
 University), and the Gaussian 82(TM) system (copyright 1983,
 Carnegie Mellon University). Gaussian is a federally registered
 trademark of Gaussian, Inc.
  
 This software contains proprietary and confidential information,
 including trade secrets, belonging to Gaussian, Inc.
  
 This software is provided under written license and may be
 used, copied, transmitted, or stored only in accord with that
 written license.
  
 The following legend is applicable only to US Government
 contracts under FAR:
  
                    RESTRICTED RIGHTS LEGEND
  
 Use, reproduction and disclosure by the US Government is
 subject to restrictions as set forth in subparagraphs (a)
 and (c) of the Commercial Computer Software - Restricted
 Rights clause in FAR 52.227-19.
  
 Gaussian, Inc.
 340 Quinnipiac St., Bldg. 40, Wallingford CT 06492
  
  
 ---------------------------------------------------------------
 Warning -- This program may not be used in any manner that
 competes with the business of Gaussian, Inc. or will provide
 assistance to any competitor of Gaussian, Inc.  The licensee
 of this program is prohibited from giving any competitor of
 Gaussian, Inc. access to this program.  By using this program,
 the user acknowledges that Gaussian, Inc. is engaged in the
 business of creating and licensing software in the field of
 computational chemistry and represents and warrants to the
 licensee that it is not a competitor of Gaussian, Inc. and that
 it will not use this program in any manner prohibited above.
 ---------------------------------------------------------------
  

 Cite this work as:
 Gaussian 16, Revision B.01,
 M. J. Frisch, G. W. Trucks, H. B. Schlegel, G. E. Scuseria, 
 M. A. Robb, J. R. Cheeseman, G. Scalmani, V. Barone, 
 G. A. Petersson, H. Nakatsuji, X. Li, M. Caricato, A. V. Marenich, 
 J. Bloino, B. G. Janesko, R. Gomperts, B. Mennucci, H. P. Hratchian, 
 J. V. Ortiz, A. F. Izmaylov, J. L. Sonnenberg, D. Williams-Young, 
 F. Ding, F. Lipparini, F. Egidi, J. Goings, B. Peng, A. Petrone, 
 T. Henderson, D. Ranasinghe, V. G. Zakrzewski, J. Gao, N. Rega, 
 G. Zheng, W. Liang, M. Hada, M. Ehara, K. Toyota, R. Fukuda, 
 J. Hasegawa, M. Ishida, T. Nakajima, Y. Honda, O. Kitao, H. Nakai, 
 T. Vreven, K. Throssell, J. A. Montgomery, Jr., J. E. Peralta, 
 F. Ogliaro, M. J. Bearpark, J. J. Heyd, E. N. Brothers, K. N. Kudin, 
 V. N. Staroverov, T. A. Keith, R. Kobayashi, J. Normand, 
 K. Raghavachari, A. P. Rendell, J. C. Burant, S. S. Iyengar, 
 J. Tomasi, M. Cossi, J. M. Millam, M. Klene, C. Adamo, R. Cammi, 
 J. W. Ochterski, R. L. Martin, K. Morokuma, O. Farkas, 
 J. B. Foresman, and D. J. Fox, Gaussian, Inc., Wallingford CT, 2016.
 
 ******************************************
 Gaussian 16:  ES64L-G16RevB.01 20-Dec-2017
                13-Nov-2023 
 ******************************************
 %mem=14GB
 %chk=checkpoint.chk
 %nprocshared=16
 Will use up to   16 processors via shared memory.
 -------------------------
 #P B3LYP/6-311+g(d) force
 -------------------------
 1/10=7,30=1,38=1/1,3;
 2/12=2,17=6,18=5,40=1/2;
 3/5=4,6=6,7=11,11=2,25=1,30=1,71=1,74=-5/1,2,3;
 4//1;
 5/5=2,38=5/2;
 6/7=2,8=2,9=2,10=2,28=1/1;
 7/29=1/1,2,3,16;
 1/10=7,30=1/3;
 99//99;
 Leave Link    1 at Mon Nov 13 12:10:45 2023, MaxMem=  1879048192 cpu:               0.7 elap:               0.1
 (Enter /home/sekinelabo/g16/l101.exe)
 ------------------------------
 Gaussian input prepared by ASE
 ------------------------------
 Symbolic Z-matrix:
 Charge =  0 Multiplicity = 2
 Na                    5.22889   3.04104   2.22325 
 Na                    2.48242   3.06601   1.00508 
 Na                    0.        1.6349    0.12831 
 Na                    2.27841   0.08849   1.30139 
 Na                    5.14196   0.03504   2.19176 
 Na                    7.19207   0.        0. 
 Na                    7.49091   2.97269   0.25365 
 
 ITRead=  0  0  0  0  0  0  0
 MicOpt= -1 -1 -1 -1 -1 -1 -1
 NAtoms=      7 NQM=        7 NQMF=       0 NMMI=      0 NMMIF=      0
                NMic=       0 NMicF=      0.
                    Isotopes and Nuclear Properties:
 (Nuclear quadrupole moments (NQMom) in fm**2, nuclear magnetic moments (NMagM)
  in nuclear magnetons)

  Atom         1           2           3           4           5           6           7
 IAtWgt=          23          23          23          23          23          23          23
 AtmWgt=  22.9897697  22.9897697  22.9897697  22.9897697  22.9897697  22.9897697  22.9897697
 NucSpn=           3           3           3           3           3           3           3
 AtZEff=  -0.0000000  -0.0000000  -0.0000000  -0.0000000  -0.0000000  -0.0000000  -0.0000000
 NQMom=   10.4000000  10.4000000  10.4000000  10.4000000  10.4000000  10.4000000  10.4000000
 NMagM=    2.2175200   2.2175200   2.2175200   2.2175200   2.2175200   2.2175200   2.2175200
 AtZNuc=  11.0000000  11.0000000  11.0000000  11.0000000  11.0000000  11.0000000  11.0000000
 Leave Link  101 at Mon Nov 13 12:10:45 2023, MaxMem=  1879048192 cpu:               2.8 elap:               0.2
 (Enter /home/sekinelabo/g16/l103.exe)

 GradGradGradGradGradGradGradGradGradGradGradGradGradGradGradGradGradGrad
 Berny optimization.
 Initialization pass.
 Trust Radius=3.00D-01 FncErr=1.00D-07 GrdErr=1.00D-07 EigMax=2.50D+02 EigMin=1.00D-04
 Number of steps in this run=      2 maximum allowed number of steps=      2.
 GradGradGradGradGradGradGradGradGradGradGradGradGradGradGradGradGradGrad

 Leave Link  103 at Mon Nov 13 12:10:45 2023, MaxMem=  1879048192 cpu:               0.2 elap:               0.0
 (Enter /home/sekinelabo/g16/l202.exe)
                          Input orientation:                          
 ---------------------------------------------------------------------
 Center     Atomic      Atomic             Coordinates (Angstroms)
 Number     Number       Type             X           Y           Z
 ---------------------------------------------------------------------
      1         11           0        5.228886    3.041044    2.223246
      2         11           0        2.482417    3.066013    1.005076
      3         11           0        0.000000    1.634895    0.128315
      4         11           0        2.278405    0.088486    1.301392
      5         11           0        5.141960    0.035036    2.191757
      6         11           0        7.192075    0.000000    0.000000
      7         11           0        7.490912    2.972687    0.253650
 ---------------------------------------------------------------------
                    Distance matrix (angstroms):
                    1          2          3          4          5
     1  Na   0.000000
     2  Na   3.004605   0.000000
     3  Na   5.805793   2.996532   0.000000
     4  Na   4.274663   2.999182   2.993096   0.000000
     5  Na   3.007429   4.203356   5.766897   2.999259   0.000000
     6  Na   4.247926   5.708895   7.376672   5.083857   3.001332
     7  Na   3.000124   5.065409   7.610464   6.048686   4.231268
                    6          7
     6  Na   0.000000
     7  Na   2.998418   0.000000
 Stoichiometry    Na7(2)
 Framework group  C1[X(Na7)]
 Deg. of freedom    15
 Full point group                 C1      NOp   1
 Largest Abelian subgroup         C1      NOp   1
 Largest concise Abelian subgroup C1      NOp   1
                         Standard orientation:                         
 ---------------------------------------------------------------------
 Center     Atomic      Atomic             Coordinates (Angstroms)
 Number     Number       Type             X           Y           Z
 ---------------------------------------------------------------------
      1         11           0       -0.969649   -1.492735    1.208469
      2         11           0        1.776819   -1.517704   -0.009701
      3         11           0        4.259237   -0.086587   -0.886462
      4         11           0        1.980831    1.459823    0.286616
      5         11           0       -0.882724    1.513273    1.176980
      6         11           0       -2.932838    1.548309   -1.014776
      7         11           0       -3.231675   -1.424378   -0.761127
 ---------------------------------------------------------------------
 Rotational constants (GHZ):           1.1749719           0.4284358           0.3702492
 Leave Link  202 at Mon Nov 13 12:10:45 2023, MaxMem=  1879048192 cpu:               0.0 elap:               0.0
 (Enter /home/sekinelabo/g16/l301.exe)
 Standard basis: 6-311+G(d) (5D, 7F)
 Ernie: Thresh=  0.10000D-02 Tol=  0.10000D-05 Strict=F.
 There are   217 symmetry adapted cartesian basis functions of A   symmetry.
 There are   210 symmetry adapted basis functions of A   symmetry.
   210 basis functions,   350 primitive gaussians,   217 cartesian basis functions
    39 alpha electrons       38 beta electrons
       nuclear repulsion energy       338.7728393110 Hartrees.
 IExCor=  402 DFT=T Ex+Corr=B3LYP ExCW=0 ScaHFX=  0.200000
 ScaDFX=  0.800000  0.720000  1.000000  0.810000 ScalE2=  1.000000  1.000000
 IRadAn=      5 IRanWt=     -1 IRanGd=            0 ICorTp=0 IEmpDi=  4
 NAtoms=    7 NActive=    7 NUniq=    7 SFac= 1.00D+00 NAtFMM=   60 NAOKFM=F Big=F
 Integral buffers will be    131072 words long.
 Raffenetti 2 integral format.
 Two-electron integral symmetry is turned on.
 Leave Link  301 at Mon Nov 13 12:10:45 2023, MaxMem=  1879048192 cpu:               0.5 elap:               0.0
 (Enter /home/sekinelabo/g16/l302.exe)
 NPDir=0 NMtPBC=     1 NCelOv=     1 NCel=       1 NClECP=     1 NCelD=      1
         NCelK=      1 NCelE2=     1 NClLst=     1 CellRange=     0.0.
 One-electron integrals computed using PRISM.
 One-electron integral symmetry used in STVInt
 NBasis=   210 RedAO= T EigKep=  1.13D-06  NBF=   210
 NBsUse=   210 1.00D-06 EigRej= -1.00D+00 NBFU=   210
 Precomputing XC quadrature grid using
 IXCGrd= 4 IRadAn=           5 IRanWt=          -1 IRanGd=           0 AccXCQ= 0.00D+00.
 Generated NRdTot=       0 NPtTot=           0 NUsed=           0 NTot=          32
 NSgBfM=   206   206   206   206   206 MxSgAt=     7 MxSgA2=     7.
 Leave Link  302 at Mon Nov 13 12:10:45 2023, MaxMem=  1879048192 cpu:               2.4 elap:               0.2
 (Enter /home/sekinelabo/g16/l303.exe)
 DipDrv:  MaxL=1.
 Leave Link  303 at Mon Nov 13 12:10:45 2023, MaxMem=  1879048192 cpu:               0.6 elap:               0.0
 (Enter /home/sekinelabo/g16/l401.exe)
 ExpMin= 7.60D-03 ExpMax= 3.62D+04 ExpMxC= 1.21D+03 IAcc=3 IRadAn=         5 AccDes= 0.00D+00
 Harris functional with IExCor=  402 and IRadAn=       5 diagonalized for initial guess.
 HarFok:  IExCor=  402 AccDes= 0.00D+00 IRadAn=         5 IDoV= 1 UseB2=F ITyADJ=14
 ICtDFT=  3500011 ScaDFX=  1.000000  1.000000  1.000000  1.000000
 FoFCou: FMM=F IPFlag=           0 FMFlag=      100000 FMFlg1=           0
         NFxFlg=           0 DoJE=T BraDBF=F KetDBF=T FulRan=T
         wScrn=  0.000000 ICntrl=       500 IOpCl=  0 I1Cent=   200000004 NGrid=           0
         NMat0=    1 NMatS0=      1 NMatT0=    0 NMatD0=    1 NMtDS0=    0 NMtDT0=    0
 Petite list used in FoFCou.
 Harris En= -1135.87126598447    
 JPrj=0 DoOrth=F DoCkMO=F.
 Initial guess <Sx>= 0.0000 <Sy>= 0.0000 <Sz>= 0.5000 <S**2>= 0.7500 S= 0.5000
 Leave Link  401 at Mon Nov 13 12:10:46 2023, MaxMem=  1879048192 cpu:               4.7 elap:               0.3
 (Enter /home/sekinelabo/g16/l502.exe)
 Keep R1 and R2 ints in memory in canonical form, NReq=507620346.
 FoFCou: FMM=F IPFlag=           0 FMFlag=           0 FMFlg1=           0
         NFxFlg=           0 DoJE=F BraDBF=F KetDBF=F FulRan=T
         wScrn=  0.000000 ICntrl=       600 IOpCl=  0 I1Cent=           0 NGrid=           0
         NMat0=    1 NMatS0=  22155 NMatT0=    0 NMatD0=    1 NMtDS0=    0 NMtDT0=    0
 Symmetry not used in FoFCou.
 Two-electron integral symmetry not used.
 UHF open shell SCF:
 Using DIIS extrapolation, IDIIS=  1040.
 NGot=  1879048192 LenX=  1388082390 LenY=  1388034860
 Requested convergence on RMS density matrix=1.00D-08 within 128 cycles.
 Requested convergence on MAX density matrix=1.00D-06.
 Requested convergence on             energy=1.00D-06.
 No special actions if energy rises.

 Cycle   1  Pass 1  IDiag  1:
 E= -1136.06917877985    
 DIIS: error= 1.06D-02 at cycle   1 NSaved=   1.
 NSaved= 1 IEnMin= 1 EnMin= -1136.06917877985     IErMin= 1 ErrMin= 1.06D-02
 ErrMax= 1.06D-02  0.00D+00 EMaxC= 1.00D-01 BMatC= 1.90D-01 BMatP= 1.90D-01
 IDIUse=3 WtCom= 8.94D-01 WtEn= 1.06D-01
 Coeff-Com:  0.100D+01
 Coeff-En:   0.100D+01
 Coeff:      0.100D+01
 Gap=     0.058 Goal=   None    Shift=    0.000
 Gap=     0.020 Goal=   None    Shift=    0.000
 GapD=    0.020 DampG=0.250 DampE=0.500 DampFc=0.2500 IDamp=-1.
 Damping current iteration by 2.50D-01
 RMSDP=9.38D-02 MaxDP=8.21D+00              OVMax= 2.48D-01

 Cycle   2  Pass 1  IDiag  1:
 E= -1136.08023022383     Delta-E=       -0.011051443976 Rises=F Damp=T
 DIIS: error= 7.34D-03 at cycle   2 NSaved=   2.
 NSaved= 2 IEnMin= 2 EnMin= -1136.08023022383     IErMin= 2 ErrMin= 7.34D-03
 ErrMax= 7.34D-03  0.00D+00 EMaxC= 1.00D-01 BMatC= 7.26D-02 BMatP= 1.90D-01
 IDIUse=3 WtCom= 9.27D-01 WtEn= 7.34D-02
 Coeff-Com: -0.127D+01 0.227D+01
 Coeff-En:   0.000D+00 0.100D+01
 Coeff:     -0.117D+01 0.217D+01
 Gap=     0.057 Goal=   None    Shift=    0.000
 Gap=     0.031 Goal=   None    Shift=    0.000
 RMSDP=5.16D-02 MaxDP=4.53D+00 DE=-1.11D-02 OVMax= 1.82D-01

 Cycle   3  Pass 1  IDiag  1:
 E= -1136.09825566228     Delta-E=       -0.018025438449 Rises=F Damp=F
 DIIS: error= 3.60D-03 at cycle   3 NSaved=   3.
 NSaved= 3 IEnMin= 3 EnMin= -1136.09825566228     IErMin= 3 ErrMin= 3.60D-03
 ErrMax= 3.60D-03  0.00D+00 EMaxC= 1.00D-01 BMatC= 3.78D-03 BMatP= 7.26D-02
 IDIUse=3 WtCom= 9.64D-01 WtEn= 3.60D-02
 Coeff-Com: -0.281D+00 0.490D+00 0.791D+00
 Coeff-En:   0.000D+00 0.000D+00 0.100D+01
 Coeff:     -0.271D+00 0.472D+00 0.799D+00
 Gap=     0.051 Goal=   None    Shift=    0.000
 Gap=     0.026 Goal=   None    Shift=    0.000
 RMSDP=2.04D-02 MaxDP=1.74D+00 DE=-1.80D-02 OVMax= 1.04D-01

 Cycle   4  Pass 1  IDiag  1:
 E= -1136.09776593111     Delta-E=        0.000489731170 Rises=F Damp=F
 DIIS: error= 3.71D-03 at cycle   4 NSaved=   4.
 NSaved= 4 IEnMin= 3 EnMin= -1136.09825566228     IErMin= 3 ErrMin= 3.60D-03
 ErrMax= 3.71D-03  0.00D+00 EMaxC= 1.00D-01 BMatC= 4.24D-03 BMatP= 3.78D-03
 IDIUse=3 WtCom= 1.41D-01 WtEn= 8.59D-01
 Coeff-Com: -0.126D-01 0.183D-01 0.513D+00 0.481D+00
 Coeff-En:   0.000D+00 0.000D+00 0.527D+00 0.473D+00
 Coeff:     -0.177D-02 0.257D-02 0.525D+00 0.474D+00
 Gap=     0.052 Goal=   None    Shift=    0.000
 Gap=     0.029 Goal=   None    Shift=    0.000
 RMSDP=4.72D-03 MaxDP=4.20D-01 DE= 4.90D-04 OVMax= 7.37D-02

 Cycle   5  Pass 1  IDiag  1:
 E= -1136.10154605276     Delta-E=       -0.003780121656 Rises=F Damp=F
 DIIS: error= 1.11D-03 at cycle   5 NSaved=   5.
 NSaved= 5 IEnMin= 5 EnMin= -1136.10154605276     IErMin= 5 ErrMin= 1.11D-03
 ErrMax= 1.11D-03  0.00D+00 EMaxC= 1.00D-01 BMatC= 2.03D-04 BMatP= 3.78D-03
 IDIUse=3 WtCom= 9.89D-01 WtEn= 1.11D-02
 Coeff-Com: -0.244D-02 0.206D-02 0.327D+00 0.310D+00 0.363D+00
 Coeff-En:   0.000D+00 0.000D+00 0.000D+00 0.000D+00 0.100D+01
 Coeff:     -0.241D-02 0.204D-02 0.324D+00 0.307D+00 0.370D+00
 Gap=     0.053 Goal=   None    Shift=    0.000
 Gap=     0.029 Goal=   None    Shift=    0.000
 RMSDP=1.47D-03 MaxDP=1.30D-01 DE=-3.78D-03 OVMax= 2.44D-02

 Cycle   6  Pass 1  IDiag  1:
 E= -1136.10182162199     Delta-E=       -0.000275569223 Rises=F Damp=F
 DIIS: error= 2.47D-04 at cycle   6 NSaved=   6.
 NSaved= 6 IEnMin= 6 EnMin= -1136.10182162199     IErMin= 6 ErrMin= 2.47D-04
 ErrMax= 2.47D-04  0.00D+00 EMaxC= 1.00D-01 BMatC= 1.15D-05 BMatP= 2.03D-04
 IDIUse=3 WtCom= 9.98D-01 WtEn= 2.47D-03
 Coeff-Com: -0.190D-03-0.432D-03-0.400D-01-0.421D-01 0.134D+00 0.949D+00
 Coeff-En:   0.000D+00 0.000D+00 0.000D+00 0.000D+00 0.000D+00 0.100D+01
 Coeff:     -0.189D-03-0.431D-03-0.399D-01-0.420D-01 0.134D+00 0.949D+00
 Gap=     0.053 Goal=   None    Shift=    0.000
 Gap=     0.030 Goal=   None    Shift=    0.000
 RMSDP=8.44D-04 MaxDP=8.34D-02 DE=-2.76D-04 OVMax= 8.75D-03

 Cycle   7  Pass 1  IDiag  1:
 E= -1136.10185110482     Delta-E=       -0.000029482834 Rises=F Damp=F
 DIIS: error= 7.53D-05 at cycle   7 NSaved=   7.
 NSaved= 7 IEnMin= 7 EnMin= -1136.10185110482     IErMin= 7 ErrMin= 7.53D-05
 ErrMax= 7.53D-05  0.00D+00 EMaxC= 1.00D-01 BMatC= 2.32D-06 BMatP= 1.15D-05
 IDIUse=1 WtCom= 1.00D+00 WtEn= 0.00D+00
 Coeff-Com:  0.687D-03-0.107D-02-0.720D-01-0.699D-01-0.109D-02 0.349D+00
 Coeff-Com:  0.795D+00
 Coeff:      0.687D-03-0.107D-02-0.720D-01-0.699D-01-0.109D-02 0.349D+00
 Coeff:      0.795D+00
 Gap=     0.053 Goal=   None    Shift=    0.000
 Gap=     0.030 Goal=   None    Shift=    0.000
 RMSDP=2.83D-04 MaxDP=2.64D-02 DE=-2.95D-05 OVMax= 5.09D-03

 Cycle   8  Pass 1  IDiag  1:
 E= -1136.10185993884     Delta-E=       -0.000008834018 Rises=F Damp=F
 DIIS: error= 5.79D-05 at cycle   8 NSaved=   8.
 NSaved= 8 IEnMin= 8 EnMin= -1136.10185993884     IErMin= 8 ErrMin= 5.79D-05
 ErrMax= 5.79D-05  0.00D+00 EMaxC= 1.00D-01 BMatC= 6.32D-07 BMatP= 2.32D-06
 IDIUse=1 WtCom= 1.00D+00 WtEn= 0.00D+00
 Coeff-Com:  0.859D-03-0.105D-02-0.128D-01-0.114D-01-0.349D-01-0.120D+00
 Coeff-Com:  0.217D+00 0.963D+00
 Coeff:      0.859D-03-0.105D-02-0.128D-01-0.114D-01-0.349D-01-0.120D+00
 Coeff:      0.217D+00 0.963D+00
 Gap=     0.053 Goal=   None    Shift=    0.000
 Gap=     0.030 Goal=   None    Shift=    0.000
 RMSDP=1.90D-04 MaxDP=1.34D-02 DE=-8.83D-06 OVMax= 4.92D-03

 Cycle   9  Pass 1  IDiag  1:
 E= -1136.10186492168     Delta-E=       -0.000004982838 Rises=F Damp=F
 DIIS: error= 5.48D-05 at cycle   9 NSaved=   9.
 NSaved= 9 IEnMin= 9 EnMin= -1136.10186492168     IErMin= 9 ErrMin= 5.48D-05
 ErrMax= 5.48D-05  0.00D+00 EMaxC= 1.00D-01 BMatC= 2.69D-07 BMatP= 6.32D-07
 IDIUse=1 WtCom= 1.00D+00 WtEn= 0.00D+00
 Coeff-Com:  0.522D-03-0.634D-03 0.131D-01 0.130D-01-0.176D-01-0.127D+00
 Coeff-Com: -0.137D+00 0.287D+00 0.968D+00
 Coeff:      0.522D-03-0.634D-03 0.131D-01 0.130D-01-0.176D-01-0.127D+00
 Coeff:     -0.137D+00 0.287D+00 0.968D+00
 Gap=     0.053 Goal=   None    Shift=    0.000
 Gap=     0.030 Goal=   None    Shift=    0.000
 RMSDP=1.44D-04 MaxDP=1.19D-02 DE=-4.98D-06 OVMax= 4.39D-03

 Cycle  10  Pass 1  IDiag  1:
 E= -1136.10186776246     Delta-E=       -0.000002840784 Rises=F Damp=F
 DIIS: error= 3.52D-05 at cycle  10 NSaved=  10.
 NSaved=10 IEnMin=10 EnMin= -1136.10186776246     IErMin=10 ErrMin= 3.52D-05
 ErrMax= 3.52D-05  0.00D+00 EMaxC= 1.00D-01 BMatC= 1.51D-07 BMatP= 2.69D-07
 IDIUse=1 WtCom= 1.00D+00 WtEn= 0.00D+00
 Coeff-Com: -0.177D-03 0.229D-03 0.135D-01 0.127D-01 0.540D-02-0.256D-01
 Coeff-Com: -0.168D+00-0.253D+00 0.518D+00 0.898D+00
 Coeff:     -0.177D-03 0.229D-03 0.135D-01 0.127D-01 0.540D-02-0.256D-01
 Coeff:     -0.168D+00-0.253D+00 0.518D+00 0.898D+00
 Gap=     0.053 Goal=   None    Shift=    0.000
 Gap=     0.030 Goal=   None    Shift=    0.000
 RMSDP=1.17D-04 MaxDP=1.08D-02 DE=-2.84D-06 OVMax= 3.87D-03

 Cycle  11  Pass 1  IDiag  1:
 E= -1136.10186946319     Delta-E=       -0.000001700726 Rises=F Damp=F
 DIIS: error= 2.25D-05 at cycle  11 NSaved=  11.
 NSaved=11 IEnMin=11 EnMin= -1136.10186946319     IErMin=11 ErrMin= 2.25D-05
 ErrMax= 2.25D-05  0.00D+00 EMaxC= 1.00D-01 BMatC= 6.28D-08 BMatP= 1.51D-07
 IDIUse=1 WtCom= 1.00D+00 WtEn= 0.00D+00
 Coeff-Com: -0.765D-03 0.973D-03-0.659D-03-0.138D-02 0.192D-01 0.716D-01
 Coeff-Com:  0.969D-02-0.355D+00-0.484D+00 0.487D+00 0.125D+01
 Coeff:     -0.765D-03 0.973D-03-0.659D-03-0.138D-02 0.192D-01 0.716D-01
 Coeff:      0.969D-02-0.355D+00-0.484D+00 0.487D+00 0.125D+01
 Gap=     0.053 Goal=   None    Shift=    0.000
 Gap=     0.030 Goal=   None    Shift=    0.000
 RMSDP=1.33D-04 MaxDP=1.02D-02 DE=-1.70D-06 OVMax= 4.77D-03

 Cycle  12  Pass 1  IDiag  1:
 E= -1136.10187051137     Delta-E=       -0.000001048184 Rises=F Damp=F
 DIIS: error= 5.81D-06 at cycle  12 NSaved=  12.
 NSaved=12 IEnMin=12 EnMin= -1136.10187051137     IErMin=12 ErrMin= 5.81D-06
 ErrMax= 5.81D-06  0.00D+00 EMaxC= 1.00D-01 BMatC= 5.68D-09 BMatP= 6.28D-08
 IDIUse=1 WtCom= 1.00D+00 WtEn= 0.00D+00
 Coeff-Com:  0.511D-04-0.763D-04-0.172D-02-0.177D-02 0.392D-03 0.104D-01
 Coeff-Com:  0.191D-01-0.492D-02-0.105D+00-0.927D-01 0.113D+00 0.106D+01
 Coeff:      0.511D-04-0.763D-04-0.172D-02-0.177D-02 0.392D-03 0.104D-01
 Coeff:      0.191D-01-0.492D-02-0.105D+00-0.927D-01 0.113D+00 0.106D+01
 Gap=     0.053 Goal=   None    Shift=    0.000
 Gap=     0.030 Goal=   None    Shift=    0.000
 RMSDP=3.77D-05 MaxDP=2.60D-03 DE=-1.05D-06 OVMax= 1.20D-03

 Cycle  13  Pass 1  IDiag  1:
 E= -1136.10187058843     Delta-E=       -0.000000077057 Rises=F Damp=F
 DIIS: error= 2.26D-06 at cycle  13 NSaved=  13.
 NSaved=13 IEnMin=13 EnMin= -1136.10187058843     IErMin=13 ErrMin= 2.26D-06
 ErrMax= 2.26D-06  0.00D+00 EMaxC= 1.00D-01 BMatC= 1.55D-09 BMatP= 5.68D-09
 IDIUse=1 WtCom= 1.00D+00 WtEn= 0.00D+00
 Coeff-Com:  0.155D-03-0.202D-03-0.621D-03-0.409D-03-0.331D-02-0.875D-02
 Coeff-Com:  0.379D-02 0.623D-01 0.591D-01-0.126D+00-0.197D+00 0.337D+00
 Coeff-Com:  0.874D+00
 Coeff:      0.155D-03-0.202D-03-0.621D-03-0.409D-03-0.331D-02-0.875D-02
 Coeff:      0.379D-02 0.623D-01 0.591D-01-0.126D+00-0.197D+00 0.337D+00
 Coeff:      0.874D+00
 Gap=     0.053 Goal=   None    Shift=    0.000
 Gap=     0.030 Goal=   None    Shift=    0.000
 RMSDP=1.47D-05 MaxDP=1.09D-03 DE=-7.71D-08 OVMax= 3.55D-04

 Cycle  14  Pass 1  IDiag  1:
 E= -1136.10187059767     Delta-E=       -0.000000009240 Rises=F Damp=F
 DIIS: error= 1.08D-06 at cycle  14 NSaved=  14.
 NSaved=14 IEnMin=14 EnMin= -1136.10187059767     IErMin=14 ErrMin= 1.08D-06
 ErrMax= 1.08D-06  0.00D+00 EMaxC= 1.00D-01 BMatC= 2.73D-10 BMatP= 1.55D-09
 IDIUse=1 WtCom= 1.00D+00 WtEn= 0.00D+00
 Coeff-Com:  0.396D-04-0.505D-04 0.427D-04 0.169D-03-0.107D-02-0.468D-02
 Coeff-Com: -0.406D-02 0.254D-01 0.421D-01-0.321D-01-0.807D-01-0.101D+00
 Coeff-Com:  0.191D+00 0.965D+00
 Coeff:      0.396D-04-0.505D-04 0.427D-04 0.169D-03-0.107D-02-0.468D-02
 Coeff:     -0.406D-02 0.254D-01 0.421D-01-0.321D-01-0.807D-01-0.101D+00
 Coeff:      0.191D+00 0.965D+00
 Gap=     0.053 Goal=   None    Shift=    0.000
 Gap=     0.030 Goal=   None    Shift=    0.000
 RMSDP=7.40D-06 MaxDP=6.63D-04 DE=-9.24D-09 OVMax= 1.39D-04

 Cycle  15  Pass 1  IDiag  1:
 E= -1136.10187059948     Delta-E=       -0.000000001810 Rises=F Damp=F
 DIIS: error= 4.87D-07 at cycle  15 NSaved=  15.
 NSaved=15 IEnMin=15 EnMin= -1136.10187059948     IErMin=15 ErrMin= 4.87D-07
 ErrMax= 4.87D-07  0.00D+00 EMaxC= 1.00D-01 BMatC= 4.82D-11 BMatP= 2.73D-10
 IDIUse=1 WtCom= 1.00D+00 WtEn= 0.00D+00
 Coeff-Com: -0.300D-04 0.394D-04 0.824D-04 0.849D-05 0.575D-03 0.162D-02
 Coeff-Com:  0.153D-02-0.134D-01-0.156D-01 0.158D-01 0.487D-01-0.124D-01
 Coeff-Com: -0.144D+00-0.310D+00 0.143D+01
 Coeff:     -0.300D-04 0.394D-04 0.824D-04 0.849D-05 0.575D-03 0.162D-02
 Coeff:      0.153D-02-0.134D-01-0.156D-01 0.158D-01 0.487D-01-0.124D-01
 Coeff:     -0.144D+00-0.310D+00 0.143D+01
 Gap=     0.053 Goal=   None    Shift=    0.000
 Gap=     0.030 Goal=   None    Shift=    0.000
 RMSDP=4.06D-06 MaxDP=3.85D-04 DE=-1.81D-09 OVMax= 1.14D-04

 Cycle  16  Pass 1  IDiag  1:
 E= -1136.10187060016     Delta-E=       -0.000000000680 Rises=F Damp=F
 DIIS: error= 3.32D-07 at cycle  16 NSaved=  16.
 NSaved=16 IEnMin=16 EnMin= -1136.10187060016     IErMin=16 ErrMin= 3.32D-07
 ErrMax= 3.32D-07  0.00D+00 EMaxC= 1.00D-01 BMatC= 2.31D-11 BMatP= 4.82D-11
 IDIUse=1 WtCom= 1.00D+00 WtEn= 0.00D+00
 Coeff-Com:  0.274D-05-0.388D-05-0.157D-04-0.297D-04 0.108D-03 0.425D-03
 Coeff-Com:  0.986D-04-0.174D-02-0.125D-02-0.348D-02 0.798D-02 0.215D-01
 Coeff-Com: -0.136D-02-0.119D+00-0.313D+00 0.141D+01
 Coeff:      0.274D-05-0.388D-05-0.157D-04-0.297D-04 0.108D-03 0.425D-03
 Coeff:      0.986D-04-0.174D-02-0.125D-02-0.348D-02 0.798D-02 0.215D-01
 Coeff:     -0.136D-02-0.119D+00-0.313D+00 0.141D+01
 Gap=     0.053 Goal=   None    Shift=    0.000
 Gap=     0.030 Goal=   None    Shift=    0.000
 RMSDP=1.75D-06 MaxDP=9.95D-05 DE=-6.80D-10 OVMax= 9.58D-05

 Cycle  17  Pass 1  IDiag  1:
 E= -1136.10187060053     Delta-E=       -0.000000000371 Rises=F Damp=F
 DIIS: error= 2.78D-07 at cycle  17 NSaved=  17.
 NSaved=17 IEnMin=17 EnMin= -1136.10187060053     IErMin=17 ErrMin= 2.78D-07
 ErrMax= 2.78D-07  0.00D+00 EMaxC= 1.00D-01 BMatC= 1.19D-11 BMatP= 2.31D-11
 IDIUse=1 WtCom= 1.00D+00 WtEn= 0.00D+00
 Coeff-Com:  0.125D-04-0.164D-04-0.532D-04-0.879D-05-0.260D-03-0.672D-03
 Coeff-Com: -0.866D-03 0.591D-02 0.947D-02-0.113D-01-0.207D-01 0.557D-02
 Coeff-Com:  0.685D-01 0.158D+00-0.666D+00-0.307D+00 0.176D+01
 Coeff:      0.125D-04-0.164D-04-0.532D-04-0.879D-05-0.260D-03-0.672D-03
 Coeff:     -0.866D-03 0.591D-02 0.947D-02-0.113D-01-0.207D-01 0.557D-02
 Coeff:      0.685D-01 0.158D+00-0.666D+00-0.307D+00 0.176D+01
 Gap=     0.053 Goal=   None    Shift=    0.000
 Gap=     0.030 Goal=   None    Shift=    0.000
 RMSDP=1.87D-06 MaxDP=8.34D-05 DE=-3.71D-10 OVMax= 1.24D-04

 Cycle  18  Pass 1  IDiag  1:
 E= -1136.10187060086     Delta-E=       -0.000000000334 Rises=F Damp=F
 DIIS: error= 1.74D-07 at cycle  18 NSaved=  18.
 NSaved=18 IEnMin=18 EnMin= -1136.10187060086     IErMin=18 ErrMin= 1.74D-07
 ErrMax= 1.74D-07  0.00D+00 EMaxC= 1.00D-01 BMatC= 4.53D-12 BMatP= 1.19D-11
 IDIUse=1 WtCom= 1.00D+00 WtEn= 0.00D+00
 Coeff-Com: -0.377D-05 0.509D-05 0.629D-05 0.975D-05-0.107D-04-0.795D-04
 Coeff-Com:  0.519D-04-0.158D-03 0.885D-04 0.942D-03 0.162D-02-0.117D-01
 Coeff-Com: -0.957D-02 0.273D-01 0.298D+00-0.849D+00-0.832D-01 0.163D+01
 Coeff:     -0.377D-05 0.509D-05 0.629D-05 0.975D-05-0.107D-04-0.795D-04
 Coeff:      0.519D-04-0.158D-03 0.885D-04 0.942D-03 0.162D-02-0.117D-01
 Coeff:     -0.957D-02 0.273D-01 0.298D+00-0.849D+00-0.832D-01 0.163D+01
 Gap=     0.053 Goal=   None    Shift=    0.000
 Gap=     0.030 Goal=   None    Shift=    0.000
 RMSDP=1.80D-06 MaxDP=1.09D-04 DE=-3.34D-10 OVMax= 1.05D-04

 Cycle  19  Pass 1  IDiag  1:
 E= -1136.10187060100     Delta-E=       -0.000000000136 Rises=F Damp=F
 DIIS: error= 7.70D-08 at cycle  19 NSaved=  19.
 NSaved=19 IEnMin=19 EnMin= -1136.10187060100     IErMin=19 ErrMin= 7.70D-08
 ErrMax= 7.70D-08  0.00D+00 EMaxC= 1.00D-01 BMatC= 8.75D-13 BMatP= 4.53D-12
 IDIUse=1 WtCom= 1.00D+00 WtEn= 0.00D+00
 Coeff-Com: -0.216D-05 0.285D-05 0.195D-04 0.257D-05 0.722D-04 0.899D-04
 Coeff-Com:  0.303D-03-0.137D-02-0.237D-02 0.236D-02 0.559D-02-0.545D-03
 Coeff-Com: -0.164D-01-0.469D-01 0.171D+00 0.127D+00-0.466D+00-0.151D+00
 Coeff-Com:  0.138D+01
 Coeff:     -0.216D-05 0.285D-05 0.195D-04 0.257D-05 0.722D-04 0.899D-04
 Coeff:      0.303D-03-0.137D-02-0.237D-02 0.236D-02 0.559D-02-0.545D-03
 Coeff:     -0.164D-01-0.469D-01 0.171D+00 0.127D+00-0.466D+00-0.151D+00
 Coeff:      0.138D+01
 Gap=     0.053 Goal=   None    Shift=    0.000
 Gap=     0.030 Goal=   None    Shift=    0.000
 RMSDP=7.89D-07 MaxDP=5.24D-05 DE=-1.36D-10 OVMax= 4.00D-05

 Cycle  20  Pass 1  IDiag  1:
 E= -1136.10187060101     Delta-E=       -0.000000000006 Rises=F Damp=F
 DIIS: error= 2.56D-08 at cycle  20 NSaved=  20.
 NSaved=20 IEnMin=20 EnMin= -1136.10187060101     IErMin=20 ErrMin= 2.56D-08
 ErrMax= 2.56D-08  0.00D+00 EMaxC= 1.00D-01 BMatC= 1.65D-13 BMatP= 8.75D-13
 IDIUse=1 WtCom= 1.00D+00 WtEn= 0.00D+00
 Coeff-Com:  0.309D-06-0.437D-06-0.293D-05-0.288D-05 0.324D-05 0.512D-04
 Coeff-Com:  0.318D-04-0.135D-03-0.216D-03-0.136D-03 0.364D-03 0.241D-02
 Coeff-Com:  0.542D-03-0.772D-02-0.521D-01 0.166D+00 0.292D-01-0.337D+00
 Coeff-Com:  0.186D-01 0.118D+01
 Coeff:      0.309D-06-0.437D-06-0.293D-05-0.288D-05 0.324D-05 0.512D-04
 Coeff:      0.318D-04-0.135D-03-0.216D-03-0.136D-03 0.364D-03 0.241D-02
 Coeff:      0.542D-03-0.772D-02-0.521D-01 0.166D+00 0.292D-01-0.337D+00
 Coeff:      0.186D-01 0.118D+01
 Gap=     0.053 Goal=   None    Shift=    0.000
 Gap=     0.030 Goal=   None    Shift=    0.000
 RMSDP=1.95D-07 MaxDP=1.23D-05 DE=-5.68D-12 OVMax= 7.42D-06

 Cycle  21  Pass 1  IDiag  1:
 E= -1136.10187060101     Delta-E=       -0.000000000007 Rises=F Damp=F
 DIIS: error= 1.09D-08 at cycle  21 NSaved=  20.
 NSaved=20 IEnMin=20 EnMin= -1136.10187060101     IErMin=20 ErrMin= 1.09D-08
 ErrMax= 1.09D-08  0.00D+00 EMaxC= 1.00D-01 BMatC= 4.08D-14 BMatP= 1.65D-13
 IDIUse=1 WtCom= 1.00D+00 WtEn= 0.00D+00
 Coeff-Com:  0.512D-07-0.347D-05-0.202D-06-0.110D-04-0.150D-05-0.904D-04
 Coeff-Com:  0.222D-03 0.436D-03-0.333D-03-0.976D-03-0.344D-03 0.248D-02
 Coeff-Com:  0.111D-01-0.337D-01-0.372D-01 0.105D+00 0.462D-01-0.345D+00
 Coeff-Com:  0.337D-01 0.122D+01
 Coeff:      0.512D-07-0.347D-05-0.202D-06-0.110D-04-0.150D-05-0.904D-04
 Coeff:      0.222D-03 0.436D-03-0.333D-03-0.976D-03-0.344D-03 0.248D-02
 Coeff:      0.111D-01-0.337D-01-0.372D-01 0.105D+00 0.462D-01-0.345D+00
 Coeff:      0.337D-01 0.122D+01
 Gap=     0.053 Goal=   None    Shift=    0.000
 Gap=     0.030 Goal=   None    Shift=    0.000
 RMSDP=8.96D-08 MaxDP=5.15D-06 DE=-6.59D-12 OVMax= 3.17D-06

 Cycle  22  Pass 1  IDiag  1:
 E= -1136.10187060102     Delta-E=       -0.000000000004 Rises=F Damp=F
 DIIS: error= 4.07D-09 at cycle  22 NSaved=  20.
 NSaved=20 IEnMin=20 EnMin= -1136.10187060102     IErMin=20 ErrMin= 4.07D-09
 ErrMax= 4.07D-09  0.00D+00 EMaxC= 1.00D-01 BMatC= 8.03D-15 BMatP= 4.08D-14
 IDIUse=1 WtCom= 1.00D+00 WtEn= 0.00D+00
 Coeff-Com:  0.108D-06 0.487D-06-0.304D-05-0.190D-04-0.147D-04 0.691D-04
 Coeff-Com:  0.152D-03-0.308D-04-0.333D-03-0.532D-03 0.481D-03 0.235D-02
 Coeff-Com:  0.123D-01-0.496D-01 0.133D-02 0.928D-01-0.176D-01-0.353D+00
 Coeff-Com:  0.121D+00 0.119D+01
 Coeff:      0.108D-06 0.487D-06-0.304D-05-0.190D-04-0.147D-04 0.691D-04
 Coeff:      0.152D-03-0.308D-04-0.333D-03-0.532D-03 0.481D-03 0.235D-02
 Coeff:      0.123D-01-0.496D-01 0.133D-02 0.928D-01-0.176D-01-0.353D+00
 Coeff:      0.121D+00 0.119D+01
 Gap=     0.053 Goal=   None    Shift=    0.000
 Gap=     0.030 Goal=   None    Shift=    0.000
 RMSDP=4.92D-08 MaxDP=4.59D-06 DE=-3.64D-12 OVMax= 1.10D-06

 Cycle  23  Pass 1  IDiag  1:
 E= -1136.10187060100     Delta-E=        0.000000000012 Rises=F Damp=F
 DIIS: error= 1.26D-09 at cycle  23 NSaved=  20.
 NSaved=20 IEnMin=19 EnMin= -1136.10187060102     IErMin=20 ErrMin= 1.26D-09
 ErrMax= 1.26D-09  0.00D+00 EMaxC= 1.00D-01 BMatC= 7.32D-16 BMatP= 8.03D-15
 IDIUse=1 WtCom= 1.00D+00 WtEn= 0.00D+00
 Large coefficients: NSaved= 20 BigCof=    0.00 CofMax=   10.00 Det=-1.67D-15
 Inversion failed.  Reducing to 19 matrices.
 Large coefficients: NSaved= 19 BigCof=    0.00 CofMax=   10.00 Det=-1.72D-15
 Inversion failed.  Reducing to 18 matrices.
 Large coefficients: NSaved= 18 BigCof=    0.00 CofMax=   10.00 Det=-1.82D-15
 Inversion failed.  Reducing to 17 matrices.
 Large coefficients: NSaved= 17 BigCof=    0.00 CofMax=   10.00 Det=-2.06D-15
 Inversion failed.  Reducing to 16 matrices.
 Large coefficients: NSaved= 16 BigCof=    0.00 CofMax=   10.00 Det=-2.13D-15
 Inversion failed.  Reducing to 15 matrices.
 Coeff-Com:  0.509D-06-0.497D-05-0.131D-04 0.540D-04 0.642D-04-0.274D-03
 Coeff-Com:  0.112D-02-0.266D-02-0.169D-02 0.992D-02-0.137D-02-0.149D-01
 Coeff-Com: -0.669D-01 0.709D-01 0.101D+01
 Coeff:      0.509D-06-0.497D-05-0.131D-04 0.540D-04 0.642D-04-0.274D-03
 Coeff:      0.112D-02-0.266D-02-0.169D-02 0.992D-02-0.137D-02-0.149D-01
 Coeff:     -0.669D-01 0.709D-01 0.101D+01
 Gap=     0.053 Goal=   None    Shift=    0.000
 Gap=     0.030 Goal=   None    Shift=    0.000
 RMSDP=9.70D-09 MaxDP=8.92D-07 DE= 1.18D-11 OVMax= 2.24D-07

 SCF Done:  E(UB3LYP) =  -1136.10187060     A.U. after   23 cycles
            NFock= 23  Conv=0.97D-08     -V/T= 2.0026
 <Sx>= 0.0000 <Sy>= 0.0000 <Sz>= 0.5000 <S**2>= 0.7827 S= 0.5162
 <L.S>= 0.000000000000E+00
 KE= 1.133159877002D+03 PE=-3.406776296802D+03 EE= 7.987417098871D+02
 Annihilation of the first spin contaminant:
 S**2 before annihilation     0.7827,   after     0.7507
 Leave Link  502 at Mon Nov 13 12:11:05 2023, MaxMem=  1879048192 cpu:             235.1 elap:              19.7
 (Enter /home/sekinelabo/g16/l601.exe)
 Copying SCF densities to generalized density rwf, IOpCl= 1 IROHF=0.

 **********************************************************************

            Population analysis using the SCF Density.

 **********************************************************************

 Orbital symmetries:
 Alpha Orbitals:
       Occupied  (A) (A) (A) (A) (A) (A) (A) (A) (A) (A) (A) (A)
                 (A) (A) (A) (A) (A) (A) (A) (A) (A) (A) (A) (A)
                 (A) (A) (A) (A) (A) (A) (A) (A) (A) (A) (A) (A)
                 (A) (A) (A)
       Virtual   (A) (A) (A) (A) (A) (A) (A) (A) (A) (A) (A) (A)
                 (A) (A) (A) (A) (A) (A) (A) (A) (A) (A) (A) (A)
                 (A) (A) (A) (A) (A) (A) (A) (A) (A) (A) (A) (A)
                 (A) (A) (A) (A) (A) (A) (A) (A) (A) (A) (A) (A)
                 (A) (A) (A) (A) (A) (A) (A) (A) (A) (A) (A) (A)
                 (A) (A) (A) (A) (A) (A) (A) (A) (A) (A) (A) (A)
                 (A) (A) (A) (A) (A) (A) (A) (A) (A) (A) (A) (A)
                 (A) (A) (A) (A) (A) (A) (A) (A) (A) (A) (A) (A)
                 (A) (A) (A) (A) (A) (A) (A) (A) (A) (A) (A) (A)
                 (A) (A) (A) (A) (A) (A) (A) (A) (A) (A) (A) (A)
                 (A) (A) (A) (A) (A) (A) (A) (A) (A) (A) (A) (A)
                 (A) (A) (A) (A) (A) (A) (A) (A) (A) (A) (A) (A)
                 (A) (A) (A) (A) (A) (A) (A) (A) (A) (A) (A) (A)
                 (A) (A) (A) (A) (A) (A) (A) (A) (A) (A) (A) (A)
                 (A) (A) (A)
 Beta  Orbitals:
       Occupied  (A) (A) (A) (A) (A) (A) (A) (A) (A) (A) (A) (A)
                 (A) (A) (A) (A) (A) (A) (A) (A) (A) (A) (A) (A)
                 (A) (A) (A) (A) (A) (A) (A) (A) (A) (A) (A) (A)
                 (A) (A)
       Virtual   (A) (A) (A) (A) (A) (A) (A) (A) (A) (A) (A) (A)
                 (A) (A) (A) (A) (A) (A) (A) (A) (A) (A) (A) (A)
                 (A) (A) (A) (A) (A) (A) (A) (A) (A) (A) (A) (A)
                 (A) (A) (A) (A) (A) (A) (A) (A) (A) (A) (A) (A)
                 (A) (A) (A) (A) (A) (A) (A) (A) (A) (A) (A) (A)
                 (A) (A) (A) (A) (A) (A) (A) (A) (A) (A) (A) (A)
                 (A) (A) (A) (A) (A) (A) (A) (A) (A) (A) (A) (A)
                 (A) (A) (A) (A) (A) (A) (A) (A) (A) (A) (A) (A)
                 (A) (A) (A) (A) (A) (A) (A) (A) (A) (A) (A) (A)
                 (A) (A) (A) (A) (A) (A) (A) (A) (A) (A) (A) (A)
                 (A) (A) (A) (A) (A) (A) (A) (A) (A) (A) (A) (A)
                 (A) (A) (A) (A) (A) (A) (A) (A) (A) (A) (A) (A)
                 (A) (A) (A) (A) (A) (A) (A) (A) (A) (A) (A) (A)
                 (A) (A) (A) (A) (A) (A) (A) (A) (A) (A) (A) (A)
                 (A) (A) (A) (A)
 The electronic state is 2-A.
 Alpha  occ. eigenvalues --  -38.44932 -38.44586 -38.44495 -38.44194 -38.44106
 Alpha  occ. eigenvalues --  -38.43422 -38.43209  -2.20850  -2.20488  -2.20396
 Alpha  occ. eigenvalues --   -2.20166  -2.20082  -2.19418  -2.19205  -1.14559
 Alpha  occ. eigenvalues --   -1.14508  -1.14460  -1.14252  -1.14164  -1.14118
 Alpha  occ. eigenvalues --   -1.14073  -1.14023  -1.13968  -1.13942  -1.13863
 Alpha  occ. eigenvalues --   -1.13800  -1.13786  -1.13712  -1.13656  -1.13136
 Alpha  occ. eigenvalues --   -1.13077  -1.13040  -1.12864  -1.12837  -1.12800
 Alpha  occ. eigenvalues --   -0.18836  -0.15474  -0.11929  -0.11297
 Alpha virt. eigenvalues --   -0.05992  -0.05639  -0.04612  -0.03281  -0.03017
 Alpha virt. eigenvalues --   -0.02584  -0.02131  -0.00725  -0.00584  -0.00413
 Alpha virt. eigenvalues --    0.00158   0.00265   0.00468   0.00562   0.00726
 Alpha virt. eigenvalues --    0.00908   0.01138   0.01227   0.01275   0.01368
 Alpha virt. eigenvalues --    0.01552   0.01816   0.01847   0.01899   0.02101
 Alpha virt. eigenvalues --    0.02158   0.02226   0.02513   0.02693   0.02826
 Alpha virt. eigenvalues --    0.02838   0.02892   0.02937   0.02977   0.02998
 Alpha virt. eigenvalues --    0.03200   0.03370   0.03372   0.03463   0.03727
 Alpha virt. eigenvalues --    0.03983   0.04123   0.04429   0.04792   0.04899
 Alpha virt. eigenvalues --    0.05074   0.05514   0.05619   0.05891   0.06062
 Alpha virt. eigenvalues --    0.06354   0.06556   0.06779   0.07015   0.07247
 Alpha virt. eigenvalues --    0.07524   0.07549   0.07926   0.08738   0.09095
 Alpha virt. eigenvalues --    0.09255   0.09554   0.10188   0.10387   0.10650
 Alpha virt. eigenvalues --    0.11069   0.11692   0.12104   0.13131   0.13379
 Alpha virt. eigenvalues --    0.13720   0.14093   0.14270   0.14485   0.14633
 Alpha virt. eigenvalues --    0.15023   0.16393   0.17083   0.17893   0.21323
 Alpha virt. eigenvalues --    0.22941   0.25195   0.27552   0.28261   0.29150
 Alpha virt. eigenvalues --    0.29514   0.30347   0.31020   0.32113   0.32608
 Alpha virt. eigenvalues --    0.32928   0.34731   0.35158   0.35322   0.36246
 Alpha virt. eigenvalues --    0.38445   0.39925   0.40515   0.40791   0.42143
 Alpha virt. eigenvalues --    0.42744   0.42908   0.43064   0.43666   0.44239
 Alpha virt. eigenvalues --    0.44879   0.45122   0.45462   0.45855   0.45940
 Alpha virt. eigenvalues --    0.46728   0.47122   0.47370   0.47924   0.48949
 Alpha virt. eigenvalues --    0.49315   0.50313   0.50393   0.50947   0.51577
 Alpha virt. eigenvalues --    0.52146   0.52870   0.52909   0.54423   0.57051
 Alpha virt. eigenvalues --    0.59236   0.60351   0.67240   0.68096   0.69188
 Alpha virt. eigenvalues --    0.71923   0.72315   0.73257   0.76780   0.79909
 Alpha virt. eigenvalues --    0.81333   2.06912   2.11011   2.16795   2.17070
 Alpha virt. eigenvalues --    2.22452   2.23804   2.33462   4.39661   4.40894
 Alpha virt. eigenvalues --    4.41111   4.42271   4.42956   4.43110   4.43503
 Alpha virt. eigenvalues --    4.44425   4.45190   4.46484   4.47015   4.47570
 Alpha virt. eigenvalues --    4.52603   4.56966   4.61892   4.64474   4.65682
 Alpha virt. eigenvalues --    4.69796   4.72229   4.74686   4.77730  96.27191
 Alpha virt. eigenvalues --   96.32559  96.40548  96.40582  96.47836  96.49305
 Alpha virt. eigenvalues --   96.62669
  Beta  occ. eigenvalues --  -38.44873 -38.44541 -38.44458 -38.44174 -38.44087
  Beta  occ. eigenvalues --  -38.43381 -38.43175  -2.20741  -2.20407  -2.20330
  Beta  occ. eigenvalues --   -2.20138  -2.20055  -2.19346  -2.19147  -1.14494
  Beta  occ. eigenvalues --   -1.14429  -1.14385  -1.14184  -1.14110  -1.14064
  Beta  occ. eigenvalues --   -1.14032  -1.13980  -1.13925  -1.13904  -1.13791
  Beta  occ. eigenvalues --   -1.13787  -1.13716  -1.13694  -1.13646  -1.13080
  Beta  occ. eigenvalues --   -1.13018  -1.12987  -1.12812  -1.12798  -1.12751
  Beta  occ. eigenvalues --   -0.18069  -0.14799  -0.11160
  Beta virt. eigenvalues --   -0.08149  -0.05785  -0.05269  -0.04079  -0.03145
  Beta virt. eigenvalues --   -0.02503  -0.02247  -0.01490  -0.00656  -0.00246
  Beta virt. eigenvalues --   -0.00162   0.00164   0.00371   0.00550   0.00622
  Beta virt. eigenvalues --    0.00813   0.00981   0.01212   0.01323   0.01339
  Beta virt. eigenvalues --    0.01458   0.01655   0.01844   0.01914   0.02021
  Beta virt. eigenvalues --    0.02196   0.02251   0.02288   0.02491   0.02733
  Beta virt. eigenvalues --    0.02849   0.02905   0.02935   0.02962   0.03019
  Beta virt. eigenvalues --    0.03069   0.03235   0.03423   0.03511   0.03594
  Beta virt. eigenvalues --    0.03809   0.04085   0.04209   0.04472   0.04839
  Beta virt. eigenvalues --    0.05045   0.05147   0.05553   0.05627   0.05927
  Beta virt. eigenvalues --    0.06181   0.06452   0.06724   0.06852   0.07069
  Beta virt. eigenvalues --    0.07368   0.07576   0.07685   0.08131   0.08846
  Beta virt. eigenvalues --    0.09319   0.09494   0.09676   0.10343   0.10522
  Beta virt. eigenvalues --    0.10668   0.11169   0.12027   0.12288   0.13390
  Beta virt. eigenvalues --    0.13659   0.13752   0.14293   0.14425   0.14703
  Beta virt. eigenvalues --    0.14784   0.15192   0.16487   0.17255   0.18033
  Beta virt. eigenvalues --    0.21478   0.23326   0.25576   0.27814   0.28668
  Beta virt. eigenvalues --    0.29566   0.29615   0.30763   0.31252   0.32503
  Beta virt. eigenvalues --    0.33034   0.33302   0.34947   0.35429   0.35547
  Beta virt. eigenvalues --    0.36559   0.38987   0.40230   0.40806   0.41078
  Beta virt. eigenvalues --    0.42351   0.42829   0.43072   0.43285   0.43724
  Beta virt. eigenvalues --    0.44473   0.45089   0.45334   0.45584   0.45984
  Beta virt. eigenvalues --    0.46095   0.46865   0.47347   0.47562   0.48094
  Beta virt. eigenvalues --    0.49137   0.49443   0.50351   0.50602   0.51069
  Beta virt. eigenvalues --    0.51630   0.52306   0.52981   0.53095   0.54580
  Beta virt. eigenvalues --    0.57215   0.59445   0.60519   0.67447   0.68194
  Beta virt. eigenvalues --    0.69351   0.71935   0.72521   0.73424   0.76887
  Beta virt. eigenvalues --    0.80103   0.81368   2.07061   2.11182   2.17003
  Beta virt. eigenvalues --    2.17182   2.22543   2.23903   2.33561   4.39706
  Beta virt. eigenvalues --    4.41006   4.41204   4.42326   4.43007   4.43152
  Beta virt. eigenvalues --    4.43569   4.44485   4.45262   4.46537   4.47023
  Beta virt. eigenvalues --    4.47600   4.52696   4.57018   4.61955   4.64536
  Beta virt. eigenvalues --    4.65757   4.69823   4.72297   4.74734   4.77791
  Beta virt. eigenvalues --   96.27242  96.32615  96.40606  96.40637  96.47868
  Beta virt. eigenvalues --   96.49343  96.62711
          Condensed to atoms (all electrons):
               1          2          3          4          5          6
     1  Na  16.639190  -2.575077  -0.458008   2.428373  -4.519296   1.251166
     2  Na  -2.575077  13.673814  -0.512508  -1.776333   3.035534  -0.191294
     3  Na  -0.458008  -0.512508  11.257138  -0.206032  -0.524036   0.080390
     4  Na   2.428373  -1.776333  -0.206032  13.271805  -2.856283   0.282042
     5  Na  -4.519296   3.035534  -0.524036  -2.856283  16.752166  -1.311686
     6  Na   1.251166  -0.191294   0.080390   0.282042  -1.311686  11.565244
     7  Na  -1.864173   0.113734   0.280975  -0.056055   1.099349  -0.860973
               7
     1  Na  -1.864173
     2  Na   0.113734
     3  Na   0.280975
     4  Na  -0.056055
     5  Na   1.099349
     6  Na  -0.860973
     7  Na  12.121026
          Atomic-Atomic Spin Densities.
               1          2          3          4          5          6
     1  Na   0.511556  -0.384033   0.097030   0.275593  -0.556728   0.303247
     2  Na  -0.384033   0.147755   0.085490  -0.072297   0.262272  -0.154581
     3  Na   0.097030   0.085490   0.101703   0.007907   0.030249  -0.007385
     4  Na   0.275593  -0.072297   0.007907   0.604965  -0.714304   0.100368
     5  Na  -0.556728   0.262272   0.030249  -0.714304   1.036054  -0.221794
     6  Na   0.303247  -0.154581  -0.007385   0.100368  -0.221794   0.211082
     7  Na  -0.135472   0.156116  -0.068264  -0.100417   0.317280  -0.076504
               7
     1  Na  -0.135472
     2  Na   0.156116
     3  Na  -0.068264
     4  Na  -0.100417
     5  Na   0.317280
     6  Na  -0.076504
     7  Na   0.099340
 Mulliken charges and spin densities:
               1          2
     1  Na   0.097826   0.111193
     2  Na  -0.767870   0.040721
     3  Na   1.082081   0.246730
     4  Na  -0.087518   0.101814
     5  Na  -0.675746   0.153030
     6  Na   0.185112   0.154433
     7  Na   0.166116   0.192079
 Sum of Mulliken charges =  -0.00000   1.00000
 Mulliken charges and spin densities with hydrogens summed into heavy atoms:
               1          2
     1  Na   0.097826   0.111193
     2  Na  -0.767870   0.040721
     3  Na   1.082081   0.246730
     4  Na  -0.087518   0.101814
     5  Na  -0.675746   0.153030
     6  Na   0.185112   0.154433
     7  Na   0.166116   0.192079
 Electronic spatial extent (au):  <R**2>=           2687.7324
 Charge=              0.0000 electrons
 Dipole moment (field-independent basis, Debye):
    X=              0.8396    Y=              0.0040    Z=             -0.8925  Tot=              1.2254
 Quadrupole moment (field-independent basis, Debye-Ang):
   XX=            -53.0971   YY=            -76.9483   ZZ=            -66.8304
   XY=              0.3648   XZ=             -0.7527   YZ=             -0.2980
 Traceless Quadrupole moment (field-independent basis, Debye-Ang):
   XX=             12.5282   YY=            -11.3231   ZZ=             -1.2051
   XY=              0.3648   XZ=             -0.7527   YZ=             -0.2980
 Octapole moment (field-independent basis, Debye-Ang**2):
  XXX=             50.4266  YYY=              0.6505  ZZZ=              0.2987  XYY=             -0.9802
  XXY=             -1.5036  XXZ=            -28.1443  XZZ=             -4.1151  YZZ=              1.3064
  YYZ=             -7.9796  XYZ=              2.5286
 Hexadecapole moment (field-independent basis, Debye-Ang**3):
 XXXX=          -2538.0521 YYYY=          -1277.3311 ZZZZ=           -553.9930 XXXY=             23.6495
 XXXZ=            -56.5310 YYYX=             -3.6856 YYYZ=             -3.9695 ZZZX=            -16.5448
 ZZZY=             -5.8021 XXYY=           -643.1337 XXZZ=           -553.3204 YYZZ=           -282.5263
 XXYZ=              2.2956 YYXZ=             24.8842 ZZXY=             -3.6273
 N-N= 3.387728393110D+02 E-N=-3.406776296811D+03  KE= 1.133159877002D+03
                          Isotropic Fermi Contact Couplings
        Atom                 a.u.       MegaHertz       Gauss      10(-4) cm-1
     1  Na(23)             0.13664     161.65475      57.68243      53.92222
     2  Na(23)             0.00032       0.38109       0.13598       0.12712
     3  Na(23)             0.26019     307.81392     109.83566     102.67567
     4  Na(23)             0.00237       2.80707       1.00163       0.93634
     5  Na(23)             0.09835     116.34875      41.51613      38.80977
     6  Na(23)             0.17149     202.87353      72.39032      67.67133
     7  Na(23)             0.13367     158.13994      56.42826      52.74981
 --------------------------------------------------------
       Center         ----  Spin Dipole Couplings  ----
                      3XX-RR        3YY-RR        3ZZ-RR
 --------------------------------------------------------
     1   Atom        0.016136     -0.000502     -0.015633
     2   Atom        0.035123     -0.032653     -0.002470
     3   Atom       -0.006480      0.006551     -0.000071
     4   Atom        0.038343     -0.033134     -0.005209
     5   Atom        0.014766      0.002080     -0.016847
     6   Atom       -0.000693      0.013311     -0.012618
     7   Atom       -0.008009      0.017296     -0.009287
 --------------------------------------------------------
                        XY            XZ            YZ
 --------------------------------------------------------
     1   Atom        0.021767      0.005849      0.008104
     2   Atom       -0.005254     -0.046984      0.001275
     3   Atom       -0.000511      0.005454      0.000531
     4   Atom        0.006640     -0.043952     -0.001997
     5   Atom       -0.025805      0.011020     -0.009996
     6   Atom        0.016504      0.000315      0.008681
     7   Atom       -0.014294      0.001581     -0.014909
 --------------------------------------------------------


 ---------------------------------------------------------------------------------
              Anisotropic Spin Dipole Couplings in Principal Axis System
 ---------------------------------------------------------------------------------

       Atom             a.u.   MegaHertz   Gauss  10(-4) cm-1        Axes

              Baa    -0.0199    -2.812    -1.004    -0.938  0.2191 -0.5748  0.7884
     1 Na(23) Bbb    -0.0130    -1.841    -0.657    -0.614 -0.5572  0.5896  0.5847
              Bcc     0.0330     4.653     1.660     1.552  0.8009  0.5674  0.1911
 
              Baa    -0.0356    -5.027    -1.794    -1.677  0.4825  0.5734  0.6621
     2 Na(23) Bbb    -0.0316    -4.461    -1.592    -1.488 -0.2871  0.8177 -0.4990
              Bcc     0.0672     9.488     3.386     3.165  0.8275 -0.0507 -0.5591
 
              Baa    -0.0096    -1.360    -0.485    -0.454  0.8667  0.0437 -0.4968
     3 Na(23) Bbb     0.0030     0.429     0.153     0.143  0.4987 -0.0582  0.8648
              Bcc     0.0066     0.931     0.332     0.311 -0.0089  0.9973  0.0722
 
              Baa    -0.0349    -4.931    -1.759    -1.645 -0.3590  0.8021 -0.4772
     4 Na(23) Bbb    -0.0312    -4.399    -1.570    -1.467  0.3890  0.5933  0.7047
              Bcc     0.0661     9.330     3.329     3.112  0.8484  0.0674 -0.5250
 
              Baa    -0.0211    -2.986    -1.066    -0.996  0.0106  0.4051  0.9142
     5 Na(23) Bbb    -0.0178    -2.513    -0.897    -0.838  0.6527  0.6898 -0.3132
              Bcc     0.0389     5.500     1.962     1.834  0.7576 -0.6000  0.2571
 
              Baa    -0.0175    -2.465    -0.879    -0.822  0.4296 -0.4512  0.7822
     6 Na(23) Bbb    -0.0082    -1.164    -0.415    -0.388  0.7368 -0.3256 -0.5925
              Bcc     0.0257     3.628     1.295     1.210  0.5220  0.8309  0.1926
 
              Baa    -0.0189    -2.673    -0.954    -0.892  0.5492  0.4941  0.6740
     7 Na(23) Bbb    -0.0102    -1.435    -0.512    -0.479  0.7591  0.0424 -0.6496
              Bcc     0.0291     4.108     1.466     1.370 -0.3496  0.8684 -0.3517
 

 ---------------------------------------------------------------------------------

 No NMR shielding tensors so no spin-rotation constants.
 Leave Link  601 at Mon Nov 13 12:11:06 2023, MaxMem=  1879048192 cpu:               2.6 elap:               0.2
 (Enter /home/sekinelabo/g16/l701.exe)
 ... and contract with generalized density number  0.
 Compute integral first derivatives.
 Leave Link  701 at Mon Nov 13 12:11:06 2023, MaxMem=  1879048192 cpu:               2.2 elap:               0.1
 (Enter /home/sekinelabo/g16/l702.exe)
 L702 exits ... SP integral derivatives will be done elsewhere.
 Leave Link  702 at Mon Nov 13 12:11:06 2023, MaxMem=  1879048192 cpu:               0.4 elap:               0.0
 (Enter /home/sekinelabo/g16/l703.exe)
 Integral derivatives from FoFJK, PRISM(SPDF).
 Compute integral first derivatives, UseDBF=F ICtDFT=           0.
 Calling FoFJK, ICntrl=      2127 FMM=F ISym2X=0 I1Cent= 0 IOpClX= 1 NMat=1 NMatS=1 NMatT=0.
 FoFJK:  IHMeth= 1 ICntrl=    2127 DoSepK=F KAlg= 0 I1Cent=           0 FoldK=F
 IRaf=         0 NMat=       1 IRICut=       1 DoRegI=T DoRafI=F ISym2E= 0 IDoP0=0 IntGTp=1.
 FoFCou: FMM=F IPFlag=           0 FMFlag=      100000 FMFlg1=         800
         NFxFlg=           0 DoJE=F BraDBF=F KetDBF=F FulRan=T
         wScrn=  0.000000 ICntrl=      2127 IOpCl=  1 I1Cent=           0 NGrid=           0
         NMat0=    1 NMatS0=      1 NMatT0=    0 NMatD0=    1 NMtDS0=    0 NMtDT0=    0
 Symmetry not used in FoFCou.
 Leave Link  703 at Mon Nov 13 12:11:08 2023, MaxMem=  1879048192 cpu:              34.4 elap:               2.2
 (Enter /home/sekinelabo/g16/l716.exe)
 Dipole        = 3.30325047D-01 1.57693899D-03-3.51145798D-01
 ***** Axes restored to original set *****
 -------------------------------------------------------------------
 Center     Atomic                   Forces (Hartrees/Bohr)
 Number     Number              X              Y              Z
 -------------------------------------------------------------------
      1       11           0.001347896    0.008642027    0.005208272
      2       11           0.001895865    0.010268412   -0.001047820
      3       11          -0.009787934    0.000543451   -0.004336698
      4       11           0.000735236   -0.010527887    0.001237411
      5       11           0.001635968   -0.008837116    0.004943109
      6       11           0.001261804   -0.007033126   -0.003473393
      7       11           0.002911165    0.006944240   -0.002530882
 -------------------------------------------------------------------
 Cartesian Forces:  Max     0.010527887 RMS     0.005661077
 Z-matrix is all fixed cartesians, so copy forces.
 Force constants in Cartesian coordinates: 
                1             2             3             4             5 
      1  0.744651D-01
      2  0.281942D-02  0.753990D-01
      3 -0.485224D-02  0.832420D-02  0.561644D-01
      4 -0.305728D-01  0.948812D-02 -0.710463D-02  0.841585D-01
      5 -0.798208D-02 -0.298608D-01 -0.133742D-02  0.498144D-02  0.995850D-01
      6 -0.126413D-01  0.706743D-02 -0.241301D-01  0.240881D-01 -0.822984D-02
      7  0.202108D-03 -0.304064D-02 -0.505966D-03 -0.323968D-01  0.102050D-03
      8  0.316212D-03  0.668325D-02 -0.588117D-03 -0.217785D-01 -0.268780D-01
      9 -0.106213D-02 -0.229968D-02  0.230810D-02 -0.883043D-02  0.329366D-02
     10 -0.259976D-03 -0.704622D-02  0.143539D-03 -0.197537D-01 -0.421369D-02
     11 -0.748471D-02  0.410408D-03 -0.209950D-02 -0.199969D-03 -0.423996D-01
     12 -0.870436D-03 -0.312012D-02  0.171791D-02 -0.446717D-02  0.279928D-02
     13 -0.217049D-01 -0.167414D-02  0.293564D-02  0.649772D-03  0.700263D-02
     14  0.167082D-02 -0.367064D-01  0.757170D-02  0.733251D-02 -0.497913D-03
     15  0.253096D-02 -0.860931D-02 -0.100475D-01 -0.129009D-02  0.335033D-02
     16  0.911267D-03  0.572808D-02  0.433948D-03 -0.197957D-04  0.537158D-04
     17  0.525733D-02 -0.229572D-03 -0.569656D-02  0.262738D-04 -0.207329D-04
     18 -0.305311D-03 -0.516408D-02 -0.370787D-03 -0.187473D-04  0.622382D-04
     19 -0.230408D-01 -0.627461D-02  0.894970D-02 -0.206520D-02  0.559423D-04
     20  0.540300D-02 -0.156960D-01 -0.617430D-02  0.150140D-03  0.720917D-04
     21  0.172005D-01  0.380155D-02 -0.256420D-01 -0.237704D-02  0.617461D-04
                6             7             8             9            10 
      6  0.370820D-01
      7 -0.118793D-01  0.619388D-01
      8 -0.625837D-02  0.134005D-02  0.411638D-01
      9 -0.943336D-02  0.232726D-01 -0.548635D-02  0.159772D-01
     10 -0.386566D-02 -0.304418D-01  0.195990D-01 -0.127113D-01  0.864664D-01
     11  0.540685D-02 -0.258144D-02 -0.271298D-01  0.449852D-02  0.383246D-02
     12 -0.100897D-01 -0.887311D-02  0.136386D-01 -0.110505D-01  0.205361D-01
     13 -0.404379D-03  0.697901D-03  0.523791D-03 -0.668339D-03 -0.343086D-01
     14  0.243566D-02  0.419773D-02  0.618573D-02  0.133265D-05 -0.120636D-01
     15  0.116717D-02 -0.201536D-02 -0.130530D-02  0.220112D-02 -0.250967D-02
     16  0.452737D-04  0.000000D+00  0.000000D+00 -0.281420D-05 -0.168672D-02
     17 -0.847019D-04  0.469015D-04 -0.474865D-04 -0.153694D-03 -0.769775D-04
     18  0.435144D-04  0.000000D+00  0.000000D+00  0.000000D+00 -0.157649D-02
     19  0.465732D-02 -0.104864D-05  0.000000D+00  0.237175D-05 -0.155114D-04
     20 -0.337027D-03 -0.646441D-04  0.225587D-04  0.146208D-03 -0.309711D-04
     21  0.536050D-02  0.103920D-05  0.000000D+00 -0.235041D-05 -0.165116D-04
               11            12            13            14            15 
     11  0.980698D-01
     12 -0.137504D-01  0.358370D-01
     13  0.640575D-02 -0.118012D-01  0.748873D-01
     14 -0.291810D-01  0.102531D-03 -0.474667D-03  0.757740D-01
     15  0.592223D-02 -0.215399D-01 -0.607709D-02 -0.914483D-02  0.567232D-01
     16  0.853372D-04  0.542989D-02 -0.196254D-01  0.453347D-02  0.951877D-02
     17  0.210517D-03  0.260209D-03 -0.591720D-02 -0.157270D-01  0.471214D-02
     18  0.764571D-04  0.507483D-02  0.152874D-01 -0.666067D-02 -0.290912D-01
     19 -0.574318D-04  0.459386D-04 -0.595966D-03 -0.519630D-02 -0.157513D-03
     20  0.197025D-04  0.699096D-04 -0.586615D-02  0.152549D-03  0.507474D-02
     21 -0.541916D-04  0.503471D-04  0.727968D-03  0.569428D-02  0.587178D-03
               16            17            18            19            20 
     16  0.291182D-01
     17 -0.110618D-02  0.523065D-01
     18 -0.215516D-01  0.982474D-02  0.323768D-01
     19 -0.869834D-02  0.176986D-02  0.816471D-02  0.344168D-01
     20 -0.929355D-02 -0.364922D-01  0.186137D-02  0.970218D-02  0.519213D-01
     21  0.612656D-02 -0.886213D-02 -0.803296D-02 -0.216625D-01 -0.640899D-03
               21 
     21  0.276793D-01
 Leave Link  716 at Mon Nov 13 12:11:08 2023, MaxMem=  1879048192 cpu:               0.7 elap:               0.0
 (Enter /home/sekinelabo/g16/l103.exe)

 GradGradGradGradGradGradGradGradGradGradGradGradGradGradGradGradGradGrad
 Berny optimization.
 Search for a local minimum.
 Step number   1 out of a maximum of    2
 All quantities printed in internal units (Hartrees-Bohrs-Radians)
 Second derivative matrix not updated -- first step.
 ITU=  0
     Eigenvalues ---    0.00723   0.00849   0.02619   0.03112   0.05509
     Eigenvalues ---    0.06175   0.07082   0.07807   0.08324   0.10449
     Eigenvalues ---    0.10585   0.11465   0.13241   0.15565   0.16378
 Quadratic step=3.638D-01 exceeds max=3.000D-01 adjusted using Lamda=-1.130D-02.
 Angle between NR and scaled steps=   7.60 degrees.
 Angle between quadratic step and forces=  17.99 degrees.
 Linear search not attempted -- first point.
 B after Tr=     0.000000    0.000000    0.000000
         Rot=    1.000000    0.000000    0.000000    0.000000 Ang=   0.00 deg.
 Variable       Old X    -DE/DX   Delta X   Delta X   Delta X     New X
                                 (Linear)    (Quad)   (Total)
    X1        9.88116   0.00135   0.00000   0.04115   0.04115   9.92231
    Y1        5.74674   0.00864   0.00000   0.09527   0.09527   5.84201
    Z1        4.20133   0.00521   0.00000   0.06426   0.06426   4.26558
    X2        4.69109   0.00190   0.00000  -0.02162  -0.02162   4.66947
    Y2        5.79392   0.01027   0.00000   0.08729   0.08729   5.88121
    Z2        1.89932  -0.00105   0.00000   0.00445   0.00445   1.90377
    X3        0.00000  -0.00979   0.00000  -0.12581  -0.12581  -0.12581
    Y3        3.08950   0.00054   0.00000   0.00823   0.00823   3.09773
    Z3        0.24248  -0.00434   0.00000  -0.06271  -0.06271   0.17977
    X4        4.30556   0.00074   0.00000  -0.03049  -0.03049   4.27507
    Y4        0.16721  -0.01053   0.00000  -0.08791  -0.08791   0.07931
    Z4        2.45927   0.00124   0.00000   0.00958   0.00958   2.46886
    X5        9.71690   0.00164   0.00000   0.03952   0.03952   9.75642
    Y5        0.06621  -0.00884   0.00000  -0.10187  -0.10187  -0.03566
    Z5        4.14182   0.00494   0.00000   0.06356   0.06356   4.20538
    X6       13.59105   0.00126   0.00000   0.04445   0.04445  13.63550
    Y6        0.00000  -0.00703   0.00000  -0.08583  -0.08583  -0.08583
    Z6        0.00000  -0.00347   0.00000  -0.03704  -0.03704  -0.03704
    X7       14.15577   0.00291   0.00000   0.05281   0.05281  14.20858
    Y7        5.61756   0.00694   0.00000   0.08481   0.08481   5.70238
    Z7        0.47933  -0.00253   0.00000  -0.04210  -0.04210   0.43722
         Item               Value     Threshold  Converged?
 Maximum Force            0.010528     0.000450     NO 
 RMS     Force            0.005661     0.000300     NO 
 Maximum Displacement     0.125815     0.001800     NO 
 RMS     Displacement     0.065477     0.001200     NO 
 Predicted change in Energy=-4.210424D-03
 GradGradGradGradGradGradGradGradGradGradGradGradGradGradGradGradGradGrad

 Leave Link  103 at Mon Nov 13 12:11:08 2023, MaxMem=  1879048192 cpu:               1.3 elap:               0.1
 (Enter /home/sekinelabo/g16/l9999.exe)
 1\1\GINC-SEKINELABO-XA7R-R37\Force\UB3LYP\6-311+G(d)\Na7(2)\SEKINELABO
 \13-Nov-2023\0\\#P B3LYP/6-311+g(d) force\\Gaussian input prepared by 
 ASE\\0,2\Na,5.2288858804,3.0410435391,2.2232455753\Na,2.4824172007,3.0
 660129763,1.0050756165\Na,0.,1.6348952417,0.1283146945\Na,2.278405449,
 0.0884856402,1.3013918722\Na,5.1419603415,0.0350359099,2.1917567776\Na
 ,7.1920748159,0.,0.\Na,7.4909118389,2.9726868067,0.253649608\\Version=
 ES64L-G16RevB.01\State=2-A\HF=-1136.1018706\S2=0.782684\S2-1=0.\S2A=0.
 750719\RMSD=9.701e-09\RMSF=5.661e-03\Dipole=-0.330325,-0.0015769,-0.35
 11458\Quadrupole=9.3143924,-8.4184161,-0.8959763,0.2712249,0.5595938,0
 .2215254\PG=C01 [X(Na7)]\\@


 EDUCATION IS NOT TRAINING BUT RATHER THE PROCESS THAT EQUIPS YOU TO
 ENTERTAIN YOURSELF, A FRIEND, OR AN IDEA.  -- WALLACE STERLING
 Job cpu time:       0 days  0 hours  4 minutes 49.8 seconds.
 Elapsed time:       0 days  0 hours  0 minutes 23.2 seconds.
 File lengths (MBytes):  RWF=     32 Int=      0 D2E=      0 Chk=      5 Scr=      1
 Normal termination of Gaussian 16 at Mon Nov 13 12:11:08 2023.
