 Entering Gaussian System, Link 0=g16
 Initial command:
 /home/sekinelabo/g16/l1.exe "/home/sekinelabo/g16temp/Gau-3982994.inp" -scrdir="/home/sekinelabo/g16temp/"
 Entering Link 1 = /home/sekinelabo/g16/l1.exe PID=   3982996.
  
 Copyright (c) 1988-2017, Gaussian, Inc.  All Rights Reserved.
  
 This is part of the Gaussian(R) 16 program.  It is based on
 the Gaussian(R) 09 system (copyright 2009, Gaussian, Inc.),
 the Gaussian(R) 03 system (copyright 2003, Gaussian, Inc.),
 the Gaussian(R) 98 system (copyright 1998, Gaussian, Inc.),
 the Gaussian(R) 94 system (copyright 1995, Gaussian, Inc.),
 the Gaussian 92(TM) system (copyright 1992, Gaussian, Inc.),
 the Gaussian 90(TM) system (copyright 1990, Gaussian, Inc.),
 the Gaussian 88(TM) system (copyright 1988, Gaussian, Inc.),
 the Gaussian 86(TM) system (copyright 1986, Carnegie Mellon
 University), and the Gaussian 82(TM) system (copyright 1983,
 Carnegie Mellon University). Gaussian is a federally registered
 trademark of Gaussian, Inc.
  
 This software contains proprietary and confidential information,
 including trade secrets, belonging to Gaussian, Inc.
  
 This software is provided under written license and may be
 used, copied, transmitted, or stored only in accord with that
 written license.
  
 The following legend is applicable only to US Government
 contracts under FAR:
  
                    RESTRICTED RIGHTS LEGEND
  
 Use, reproduction and disclosure by the US Government is
 subject to restrictions as set forth in subparagraphs (a)
 and (c) of the Commercial Computer Software - Restricted
 Rights clause in FAR 52.227-19.
  
 Gaussian, Inc.
 340 Quinnipiac St., Bldg. 40, Wallingford CT 06492
  
  
 ---------------------------------------------------------------
 Warning -- This program may not be used in any manner that
 competes with the business of Gaussian, Inc. or will provide
 assistance to any competitor of Gaussian, Inc.  The licensee
 of this program is prohibited from giving any competitor of
 Gaussian, Inc. access to this program.  By using this program,
 the user acknowledges that Gaussian, Inc. is engaged in the
 business of creating and licensing software in the field of
 computational chemistry and represents and warrants to the
 licensee that it is not a competitor of Gaussian, Inc. and that
 it will not use this program in any manner prohibited above.
 ---------------------------------------------------------------
  

 Cite this work as:
 Gaussian 16, Revision B.01,
 M. J. Frisch, G. W. Trucks, H. B. Schlegel, G. E. Scuseria, 
 M. A. Robb, J. R. Cheeseman, G. Scalmani, V. Barone, 
 G. A. Petersson, H. Nakatsuji, X. Li, M. Caricato, A. V. Marenich, 
 J. Bloino, B. G. Janesko, R. Gomperts, B. Mennucci, H. P. Hratchian, 
 J. V. Ortiz, A. F. Izmaylov, J. L. Sonnenberg, D. Williams-Young, 
 F. Ding, F. Lipparini, F. Egidi, J. Goings, B. Peng, A. Petrone, 
 T. Henderson, D. Ranasinghe, V. G. Zakrzewski, J. Gao, N. Rega, 
 G. Zheng, W. Liang, M. Hada, M. Ehara, K. Toyota, R. Fukuda, 
 J. Hasegawa, M. Ishida, T. Nakajima, Y. Honda, O. Kitao, H. Nakai, 
 T. Vreven, K. Throssell, J. A. Montgomery, Jr., J. E. Peralta, 
 F. Ogliaro, M. J. Bearpark, J. J. Heyd, E. N. Brothers, K. N. Kudin, 
 V. N. Staroverov, T. A. Keith, R. Kobayashi, J. Normand, 
 K. Raghavachari, A. P. Rendell, J. C. Burant, S. S. Iyengar, 
 J. Tomasi, M. Cossi, J. M. Millam, M. Klene, C. Adamo, R. Cammi, 
 J. W. Ochterski, R. L. Martin, K. Morokuma, O. Farkas, 
 J. B. Foresman, and D. J. Fox, Gaussian, Inc., Wallingford CT, 2016.
 
 ******************************************
 Gaussian 16:  ES64L-G16RevB.01 20-Dec-2017
                13-Nov-2023 
 ******************************************
 %mem=14GB
 %chk=checkpoint.chk
 %nprocshared=16
 Will use up to   16 processors via shared memory.
 -------------------------
 #P B3LYP/6-311+g(d) force
 -------------------------
 1/10=7,30=1,38=1/1,3;
 2/12=2,17=6,18=5,40=1/2;
 3/5=4,6=6,7=11,11=2,25=1,30=1,71=1,74=-5/1,2,3;
 4//1;
 5/5=2,38=5/2;
 6/7=2,8=2,9=2,10=2,28=1/1;
 7/29=1/1,2,3,16;
 1/10=7,30=1/3;
 99//99;
 Leave Link    1 at Mon Nov 13 12:21:20 2023, MaxMem=  1879048192 cpu:               0.3 elap:               0.0
 (Enter /home/sekinelabo/g16/l101.exe)
 ------------------------------
 Gaussian input prepared by ASE
 ------------------------------
 Symbolic Z-matrix:
 Charge =  0 Multiplicity = 2
 Na                    2.57028   0.96362   2.75686 
 Na                    4.31381   2.67755   0.95394 
 Na                    5.27043   0.23047   2.10987 
 Na                    3.32949   0.1588    0. 
 Na                    2.05754   3.5716    2.11902 
 Na                    1.29228   1.90642   0.16332 
 Na                    0.        0.        1.89197 
 
 ITRead=  0  0  0  0  0  0  0
 MicOpt= -1 -1 -1 -1 -1 -1 -1
 NAtoms=      7 NQM=        7 NQMF=       0 NMMI=      0 NMMIF=      0
                NMic=       0 NMicF=      0.
                    Isotopes and Nuclear Properties:
 (Nuclear quadrupole moments (NQMom) in fm**2, nuclear magnetic moments (NMagM)
  in nuclear magnetons)

  Atom         1           2           3           4           5           6           7
 IAtWgt=          23          23          23          23          23          23          23
 AtmWgt=  22.9897697  22.9897697  22.9897697  22.9897697  22.9897697  22.9897697  22.9897697
 NucSpn=           3           3           3           3           3           3           3
 AtZEff=  -0.0000000  -0.0000000  -0.0000000  -0.0000000  -0.0000000  -0.0000000  -0.0000000
 NQMom=   10.4000000  10.4000000  10.4000000  10.4000000  10.4000000  10.4000000  10.4000000
 NMagM=    2.2175200   2.2175200   2.2175200   2.2175200   2.2175200   2.2175200   2.2175200
 AtZNuc=  11.0000000  11.0000000  11.0000000  11.0000000  11.0000000  11.0000000  11.0000000
 Leave Link  101 at Mon Nov 13 12:21:20 2023, MaxMem=  1879048192 cpu:               2.6 elap:               0.2
 (Enter /home/sekinelabo/g16/l103.exe)

 GradGradGradGradGradGradGradGradGradGradGradGradGradGradGradGradGradGrad
 Berny optimization.
 Initialization pass.
 Trust Radius=3.00D-01 FncErr=1.00D-07 GrdErr=1.00D-07 EigMax=2.50D+02 EigMin=1.00D-04
 Number of steps in this run=      2 maximum allowed number of steps=      2.
 GradGradGradGradGradGradGradGradGradGradGradGradGradGradGradGradGradGrad

 Leave Link  103 at Mon Nov 13 12:21:20 2023, MaxMem=  1879048192 cpu:               0.2 elap:               0.0
 (Enter /home/sekinelabo/g16/l202.exe)
                          Input orientation:                          
 ---------------------------------------------------------------------
 Center     Atomic      Atomic             Coordinates (Angstroms)
 Number     Number       Type             X           Y           Z
 ---------------------------------------------------------------------
      1         11           0        2.570277    0.963620    2.756857
      2         11           0        4.313807    2.677548    0.953943
      3         11           0        5.270427    0.230473    2.109872
      4         11           0        3.329487    0.158801    0.000000
      5         11           0        2.057540    3.571597    2.119020
      6         11           0        1.292282    1.906423    0.163323
      7         11           0        0.000000    0.000000    1.891971
 ---------------------------------------------------------------------
                    Distance matrix (angstroms):
                    1          2          3          4          5
     1  Na   0.000000
     2  Na   3.037754   0.000000
     3  Na   2.871742   2.870448   0.000000
     4  Na   2.970588   2.867574   2.867742   0.000000
     5  Na   2.733365   2.692113   4.635282   4.213700   0.000000
     6  Na   3.041146   3.217037   4.735345   2.689063   2.680144
     7  Na   2.878006   5.163148   5.279962   3.832787   4.128114
                    6          7
     6  Na   0.000000
     7  Na   2.879698   0.000000
 Stoichiometry    Na7(2)
 Framework group  C1[X(Na7)]
 Deg. of freedom    15
 Full point group                 C1      NOp   1
 Largest Abelian subgroup         C1      NOp   1
 Largest concise Abelian subgroup C1      NOp   1
                         Standard orientation:                         
 ---------------------------------------------------------------------
 Center     Atomic      Atomic             Coordinates (Angstroms)
 Number     Number       Type             X           Y           Z
 ---------------------------------------------------------------------
      1         11           0        0.120268   -0.394732   -1.329002
      2         11           0       -1.623261    1.319197    0.473912
      3         11           0       -2.579881   -1.127879   -0.682017
      4         11           0       -0.638941   -1.199550    1.427855
      5         11           0        0.633006    2.213245   -0.691165
      6         11           0        1.398264    0.548071    1.264532
      7         11           0        2.690546   -1.358352   -0.464115
 ---------------------------------------------------------------------
 Rotational constants (GHZ):           1.1922545           0.8424051           0.7100511
 Leave Link  202 at Mon Nov 13 12:21:20 2023, MaxMem=  1879048192 cpu:               0.0 elap:               0.0
 (Enter /home/sekinelabo/g16/l301.exe)
 Standard basis: 6-311+G(d) (5D, 7F)
 Ernie: Thresh=  0.10000D-02 Tol=  0.10000D-05 Strict=F.
 There are   217 symmetry adapted cartesian basis functions of A   symmetry.
 There are   210 symmetry adapted basis functions of A   symmetry.
   210 basis functions,   350 primitive gaussians,   217 cartesian basis functions
    39 alpha electrons       38 beta electrons
       nuclear repulsion energy       411.5237131783 Hartrees.
 IExCor=  402 DFT=T Ex+Corr=B3LYP ExCW=0 ScaHFX=  0.200000
 ScaDFX=  0.800000  0.720000  1.000000  0.810000 ScalE2=  1.000000  1.000000
 IRadAn=      5 IRanWt=     -1 IRanGd=            0 ICorTp=0 IEmpDi=  4
 NAtoms=    7 NActive=    7 NUniq=    7 SFac= 1.00D+00 NAtFMM=   60 NAOKFM=F Big=F
 Integral buffers will be    131072 words long.
 Raffenetti 2 integral format.
 Two-electron integral symmetry is turned on.
 Leave Link  301 at Mon Nov 13 12:21:20 2023, MaxMem=  1879048192 cpu:               0.5 elap:               0.0
 (Enter /home/sekinelabo/g16/l302.exe)
 NPDir=0 NMtPBC=     1 NCelOv=     1 NCel=       1 NClECP=     1 NCelD=      1
         NCelK=      1 NCelE2=     1 NClLst=     1 CellRange=     0.0.
 One-electron integrals computed using PRISM.
 One-electron integral symmetry used in STVInt
 NBasis=   210 RedAO= T EigKep=  1.78D-06  NBF=   210
 NBsUse=   209 1.00D-06 EigRej=  9.48D-07 NBFU=   209
 Precomputing XC quadrature grid using
 IXCGrd= 4 IRadAn=           5 IRanWt=          -1 IRanGd=           0 AccXCQ= 0.00D+00.
 Generated NRdTot=       0 NPtTot=           0 NUsed=           0 NTot=          32
 NSgBfM=   212   212   212   212   212 MxSgAt=     7 MxSgA2=     7.
 Leave Link  302 at Mon Nov 13 12:21:20 2023, MaxMem=  1879048192 cpu:               2.1 elap:               0.1
 (Enter /home/sekinelabo/g16/l303.exe)
 DipDrv:  MaxL=1.
 Leave Link  303 at Mon Nov 13 12:21:20 2023, MaxMem=  1879048192 cpu:               0.6 elap:               0.0
 (Enter /home/sekinelabo/g16/l401.exe)
 ExpMin= 7.60D-03 ExpMax= 3.62D+04 ExpMxC= 1.21D+03 IAcc=3 IRadAn=         5 AccDes= 0.00D+00
 Harris functional with IExCor=  402 and IRadAn=       5 diagonalized for initial guess.
 HarFok:  IExCor=  402 AccDes= 0.00D+00 IRadAn=         5 IDoV= 1 UseB2=F ITyADJ=14
 ICtDFT=  3500011 ScaDFX=  1.000000  1.000000  1.000000  1.000000
 FoFCou: FMM=F IPFlag=           0 FMFlag=      100000 FMFlg1=           0
         NFxFlg=           0 DoJE=T BraDBF=F KetDBF=T FulRan=T
         wScrn=  0.000000 ICntrl=       500 IOpCl=  0 I1Cent=   200000004 NGrid=           0
         NMat0=    1 NMatS0=      1 NMatT0=    0 NMatD0=    1 NMtDS0=    0 NMtDT0=    0
 Petite list used in FoFCou.
 Harris En= -1135.84542769397    
 JPrj=0 DoOrth=F DoCkMO=F.
 Initial guess <Sx>= 0.0000 <Sy>= 0.0000 <Sz>= 0.5000 <S**2>= 0.7500 S= 0.5000
 Leave Link  401 at Mon Nov 13 12:21:20 2023, MaxMem=  1879048192 cpu:               4.9 elap:               0.3
 (Enter /home/sekinelabo/g16/l502.exe)
 Keep R1 and R2 ints in memory in canonical form, NReq=507620388.
 FoFCou: FMM=F IPFlag=           0 FMFlag=           0 FMFlg1=           0
         NFxFlg=           0 DoJE=F BraDBF=F KetDBF=F FulRan=T
         wScrn=  0.000000 ICntrl=       600 IOpCl=  0 I1Cent=           0 NGrid=           0
         NMat0=    1 NMatS0=  22155 NMatT0=    0 NMatD0=    1 NMtDS0=    0 NMtDT0=    0
 Symmetry not used in FoFCou.
 Two-electron integral symmetry not used.
 UHF open shell SCF:
 Using DIIS extrapolation, IDIIS=  1040.
 NGot=  1879048192 LenX=  1388082348 LenY=  1388034818
 Requested convergence on RMS density matrix=1.00D-08 within 128 cycles.
 Requested convergence on MAX density matrix=1.00D-06.
 Requested convergence on             energy=1.00D-06.
 No special actions if energy rises.

 Cycle   1  Pass 1  IDiag  1:
 E= -1136.02200565216    
 DIIS: error= 1.61D-02 at cycle   1 NSaved=   1.
 NSaved= 1 IEnMin= 1 EnMin= -1136.02200565216     IErMin= 1 ErrMin= 1.61D-02
 ErrMax= 1.61D-02  0.00D+00 EMaxC= 1.00D-01 BMatC= 2.16D-01 BMatP= 2.16D-01
 IDIUse=3 WtCom= 8.39D-01 WtEn= 1.61D-01
 Coeff-Com:  0.100D+01
 Coeff-En:   0.100D+01
 Coeff:      0.100D+01
 Gap=     0.060 Goal=   None    Shift=    0.000
 Gap=     0.040 Goal=   None    Shift=    0.000
 GapD=    0.040 DampG=0.250 DampE=0.500 DampFc=0.2500 IDamp=-1.
 Damping current iteration by 2.50D-01
 RMSDP=9.31D-02 MaxDP=9.80D+00              OVMax= 2.72D-01

 Cycle   2  Pass 1  IDiag  1:
 E= -1136.03945654351     Delta-E=       -0.017450891350 Rises=F Damp=T
 DIIS: error= 9.02D-03 at cycle   2 NSaved=   2.
 NSaved= 2 IEnMin= 2 EnMin= -1136.03945654351     IErMin= 2 ErrMin= 9.02D-03
 ErrMax= 9.02D-03  0.00D+00 EMaxC= 1.00D-01 BMatC= 8.06D-02 BMatP= 2.16D-01
 IDIUse=3 WtCom= 9.10D-01 WtEn= 9.02D-02
 Coeff-Com: -0.124D+01 0.224D+01
 Coeff-En:   0.000D+00 0.100D+01
 Coeff:     -0.113D+01 0.213D+01
 Gap=     0.072 Goal=   None    Shift=    0.000
 Gap=     0.042 Goal=   None    Shift=    0.000
 RMSDP=3.75D-02 MaxDP=4.14D+00 DE=-1.75D-02 OVMax= 1.86D-01

 Cycle   3  Pass 1  IDiag  1:
 E= -1136.06790184646     Delta-E=       -0.028445302952 Rises=F Damp=F
 DIIS: error= 4.38D-03 at cycle   3 NSaved=   3.
 NSaved= 3 IEnMin= 3 EnMin= -1136.06790184646     IErMin= 3 ErrMin= 4.38D-03
 ErrMax= 4.38D-03  0.00D+00 EMaxC= 1.00D-01 BMatC= 5.68D-03 BMatP= 8.06D-02
 IDIUse=3 WtCom= 9.56D-01 WtEn= 4.38D-02
 Coeff-Com: -0.319D+00 0.581D+00 0.739D+00
 Coeff-En:   0.000D+00 0.000D+00 0.100D+01
 Coeff:     -0.305D+00 0.555D+00 0.750D+00
 Gap=     0.066 Goal=   None    Shift=    0.000
 Gap=     0.042 Goal=   None    Shift=    0.000
 RMSDP=1.78D-02 MaxDP=1.31D+00 DE=-2.84D-02 OVMax= 6.03D-02

 Cycle   4  Pass 1  IDiag  1:
 E= -1136.06924038905     Delta-E=       -0.001338542589 Rises=F Damp=F
 DIIS: error= 3.35D-03 at cycle   4 NSaved=   4.
 NSaved= 4 IEnMin= 4 EnMin= -1136.06924038905     IErMin= 4 ErrMin= 3.35D-03
 ErrMax= 3.35D-03  0.00D+00 EMaxC= 1.00D-01 BMatC= 3.06D-03 BMatP= 5.68D-03
 IDIUse=3 WtCom= 9.67D-01 WtEn= 3.35D-02
 Coeff-Com:  0.426D-03 0.297D-03 0.422D+00 0.577D+00
 Coeff-En:   0.000D+00 0.000D+00 0.371D+00 0.629D+00
 Coeff:      0.412D-03 0.287D-03 0.421D+00 0.579D+00
 Gap=     0.068 Goal=   None    Shift=    0.000
 Gap=     0.042 Goal=   None    Shift=    0.000
 RMSDP=5.39D-03 MaxDP=3.61D-01 DE=-1.34D-03 OVMax= 2.96D-02

 Cycle   5  Pass 1  IDiag  1:
 E= -1136.07085124618     Delta-E=       -0.001610857129 Rises=F Damp=F
 DIIS: error= 4.40D-04 at cycle   5 NSaved=   5.
 NSaved= 5 IEnMin= 5 EnMin= -1136.07085124618     IErMin= 5 ErrMin= 4.40D-04
 ErrMax= 4.40D-04  0.00D+00 EMaxC= 1.00D-01 BMatC= 4.63D-05 BMatP= 3.06D-03
 IDIUse=3 WtCom= 9.96D-01 WtEn= 4.40D-03
 Coeff-Com:  0.314D-03-0.682D-03 0.236D+00 0.326D+00 0.438D+00
 Coeff-En:   0.000D+00 0.000D+00 0.000D+00 0.000D+00 0.100D+01
 Coeff:      0.313D-03-0.679D-03 0.235D+00 0.325D+00 0.441D+00
 Gap=     0.068 Goal=   None    Shift=    0.000
 Gap=     0.042 Goal=   None    Shift=    0.000
 RMSDP=6.04D-04 MaxDP=3.54D-02 DE=-1.61D-03 OVMax= 7.72D-03

 Cycle   6  Pass 1  IDiag  1:
 E= -1136.07089488350     Delta-E=       -0.000043637320 Rises=F Damp=F
 DIIS: error= 1.54D-04 at cycle   6 NSaved=   6.
 NSaved= 6 IEnMin= 6 EnMin= -1136.07089488350     IErMin= 6 ErrMin= 1.54D-04
 ErrMax= 1.54D-04  0.00D+00 EMaxC= 1.00D-01 BMatC= 5.11D-06 BMatP= 4.63D-05
 IDIUse=3 WtCom= 9.98D-01 WtEn= 1.54D-03
 Coeff-Com: -0.154D-02 0.167D-02-0.319D-01-0.465D-01 0.223D+00 0.856D+00
 Coeff-En:   0.000D+00 0.000D+00 0.000D+00 0.000D+00 0.892D-01 0.911D+00
 Coeff:     -0.154D-02 0.166D-02-0.318D-01-0.464D-01 0.223D+00 0.856D+00
 Gap=     0.068 Goal=   None    Shift=    0.000
 Gap=     0.042 Goal=   None    Shift=    0.000
 RMSDP=5.57D-04 MaxDP=6.46D-02 DE=-4.36D-05 OVMax= 2.62D-03

 Cycle   7  Pass 1  IDiag  1:
 E= -1136.07090131224     Delta-E=       -0.000006428742 Rises=F Damp=F
 DIIS: error= 3.67D-05 at cycle   7 NSaved=   7.
 NSaved= 7 IEnMin= 7 EnMin= -1136.07090131224     IErMin= 7 ErrMin= 3.67D-05
 ErrMax= 3.67D-05  0.00D+00 EMaxC= 1.00D-01 BMatC= 4.08D-07 BMatP= 5.11D-06
 IDIUse=1 WtCom= 1.00D+00 WtEn= 0.00D+00
 Coeff-Com: -0.596D-03 0.621D-03-0.253D-01-0.349D-01 0.652D-01 0.337D+00
 Coeff-Com:  0.658D+00
 Coeff:     -0.596D-03 0.621D-03-0.253D-01-0.349D-01 0.652D-01 0.337D+00
 Coeff:      0.658D+00
 Gap=     0.068 Goal=   None    Shift=    0.000
 Gap=     0.042 Goal=   None    Shift=    0.000
 RMSDP=1.60D-04 MaxDP=2.01D-02 DE=-6.43D-06 OVMax= 1.05D-03

 Cycle   8  Pass 1  IDiag  1:
 E= -1136.07090172518     Delta-E=       -0.000000412934 Rises=F Damp=F
 DIIS: error= 2.90D-05 at cycle   8 NSaved=   8.
 NSaved= 8 IEnMin= 8 EnMin= -1136.07090172518     IErMin= 8 ErrMin= 2.90D-05
 ErrMax= 2.90D-05  0.00D+00 EMaxC= 1.00D-01 BMatC= 2.31D-07 BMatP= 4.08D-07
 IDIUse=1 WtCom= 1.00D+00 WtEn= 0.00D+00
 Coeff-Com:  0.367D-03-0.463D-03-0.446D-02-0.419D-02-0.507D-01-0.130D+00
 Coeff-Com:  0.469D+00 0.721D+00
 Coeff:      0.367D-03-0.463D-03-0.446D-02-0.419D-02-0.507D-01-0.130D+00
 Coeff:      0.469D+00 0.721D+00
 Gap=     0.068 Goal=   None    Shift=    0.000
 Gap=     0.042 Goal=   None    Shift=    0.000
 RMSDP=9.21D-05 MaxDP=5.45D-03 DE=-4.13D-07 OVMax= 7.30D-04

 Cycle   9  Pass 1  IDiag  1:
 E= -1136.07090205720     Delta-E=       -0.000000332026 Rises=F Damp=F
 DIIS: error= 5.89D-06 at cycle   9 NSaved=   9.
 NSaved= 9 IEnMin= 9 EnMin= -1136.07090205720     IErMin= 9 ErrMin= 5.89D-06
 ErrMax= 5.89D-06  0.00D+00 EMaxC= 1.00D-01 BMatC= 7.95D-09 BMatP= 2.31D-07
 IDIUse=1 WtCom= 1.00D+00 WtEn= 0.00D+00
 Coeff-Com:  0.183D-03-0.228D-03 0.123D-02 0.222D-02-0.148D-01-0.472D-01
 Coeff-Com:  0.112D-01 0.997D-01 0.948D+00
 Coeff:      0.183D-03-0.228D-03 0.123D-02 0.222D-02-0.148D-01-0.472D-01
 Coeff:      0.112D-01 0.997D-01 0.948D+00
 Gap=     0.068 Goal=   None    Shift=    0.000
 Gap=     0.042 Goal=   None    Shift=    0.000
 RMSDP=3.43D-05 MaxDP=3.69D-03 DE=-3.32D-07 OVMax= 2.13D-04

 Cycle  10  Pass 1  IDiag  1:
 E= -1136.07090208538     Delta-E=       -0.000000028175 Rises=F Damp=F
 DIIS: error= 2.53D-06 at cycle  10 NSaved=  10.
 NSaved=10 IEnMin=10 EnMin= -1136.07090208538     IErMin=10 ErrMin= 2.53D-06
 ErrMax= 2.53D-06  0.00D+00 EMaxC= 1.00D-01 BMatC= 2.50D-09 BMatP= 7.95D-09
 IDIUse=1 WtCom= 1.00D+00 WtEn= 0.00D+00
 Coeff-Com: -0.834D-05 0.181D-04 0.135D-02 0.157D-02 0.273D-02 0.476D-03
 Coeff-Com: -0.712D-01-0.808D-01 0.304D+00 0.841D+00
 Coeff:     -0.834D-05 0.181D-04 0.135D-02 0.157D-02 0.273D-02 0.476D-03
 Coeff:     -0.712D-01-0.808D-01 0.304D+00 0.841D+00
 Gap=     0.068 Goal=   None    Shift=    0.000
 Gap=     0.042 Goal=   None    Shift=    0.000
 RMSDP=1.86D-05 MaxDP=1.81D-03 DE=-2.82D-08 OVMax= 1.18D-04

 Cycle  11  Pass 1  IDiag  1:
 E= -1136.07090209251     Delta-E=       -0.000000007138 Rises=F Damp=F
 DIIS: error= 1.16D-06 at cycle  11 NSaved=  11.
 NSaved=11 IEnMin=11 EnMin= -1136.07090209251     IErMin=11 ErrMin= 1.16D-06
 ErrMax= 1.16D-06  0.00D+00 EMaxC= 1.00D-01 BMatC= 3.71D-10 BMatP= 2.50D-09
 IDIUse=1 WtCom= 1.00D+00 WtEn= 0.00D+00
 Coeff-Com: -0.629D-04 0.808D-04 0.291D-05-0.205D-03 0.493D-02 0.125D-01
 Coeff-Com: -0.240D-01-0.467D-01-0.142D+00 0.967D-01 0.110D+01
 Coeff:     -0.629D-04 0.808D-04 0.291D-05-0.205D-03 0.493D-02 0.125D-01
 Coeff:     -0.240D-01-0.467D-01-0.142D+00 0.967D-01 0.110D+01
 Gap=     0.068 Goal=   None    Shift=    0.000
 Gap=     0.042 Goal=   None    Shift=    0.000
 RMSDP=1.14D-05 MaxDP=8.96D-04 DE=-7.14D-09 OVMax= 8.13D-05

 Cycle  12  Pass 1  IDiag  1:
 E= -1136.07090209428     Delta-E=       -0.000000001767 Rises=F Damp=F
 DIIS: error= 6.80D-07 at cycle  12 NSaved=  12.
 NSaved=12 IEnMin=12 EnMin= -1136.07090209428     IErMin=12 ErrMin= 6.80D-07
 ErrMax= 6.80D-07  0.00D+00 EMaxC= 1.00D-01 BMatC= 1.62D-10 BMatP= 3.71D-10
 IDIUse=1 WtCom= 1.00D+00 WtEn= 0.00D+00
 Coeff-Com: -0.314D-04 0.391D-04-0.987D-04-0.226D-03 0.246D-02 0.686D-02
 Coeff-Com: -0.662D-02-0.178D-01-0.109D+00-0.333D-01 0.604D+00 0.554D+00
 Coeff:     -0.314D-04 0.391D-04-0.987D-04-0.226D-03 0.246D-02 0.686D-02
 Coeff:     -0.662D-02-0.178D-01-0.109D+00-0.333D-01 0.604D+00 0.554D+00
 Gap=     0.068 Goal=   None    Shift=    0.000
 Gap=     0.042 Goal=   None    Shift=    0.000
 RMSDP=2.54D-06 MaxDP=1.97D-04 DE=-1.77D-09 OVMax= 2.81D-05

 Cycle  13  Pass 1  IDiag  1:
 E= -1136.07090209453     Delta-E=       -0.000000000246 Rises=F Damp=F
 DIIS: error= 2.72D-07 at cycle  13 NSaved=  13.
 NSaved=13 IEnMin=13 EnMin= -1136.07090209453     IErMin=13 ErrMin= 2.72D-07
 ErrMax= 2.72D-07  0.00D+00 EMaxC= 1.00D-01 BMatC= 2.92D-11 BMatP= 1.62D-10
 IDIUse=1 WtCom= 1.00D+00 WtEn= 0.00D+00
 Coeff-Com:  0.112D-04-0.150D-04-0.369D-04-0.151D-04-0.749D-03-0.151D-02
 Coeff-Com:  0.624D-02 0.971D-02-0.312D-02-0.489D-01-0.110D+00 0.271D+00
 Coeff-Com:  0.877D+00
 Coeff:      0.112D-04-0.150D-04-0.369D-04-0.151D-04-0.749D-03-0.151D-02
 Coeff:      0.624D-02 0.971D-02-0.312D-02-0.489D-01-0.110D+00 0.271D+00
 Coeff:      0.877D+00
 Gap=     0.068 Goal=   None    Shift=    0.000
 Gap=     0.042 Goal=   None    Shift=    0.000
 RMSDP=1.83D-06 MaxDP=1.24D-04 DE=-2.46D-10 OVMax= 1.52D-05

 Cycle  14  Pass 1  IDiag  1:
 E= -1136.07090209460     Delta-E=       -0.000000000077 Rises=F Damp=F
 DIIS: error= 8.58D-08 at cycle  14 NSaved=  14.
 NSaved=14 IEnMin=14 EnMin= -1136.07090209460     IErMin=14 ErrMin= 8.58D-08
 ErrMax= 8.58D-08  0.00D+00 EMaxC= 1.00D-01 BMatC= 2.42D-12 BMatP= 2.92D-11
 IDIUse=1 WtCom= 1.00D+00 WtEn= 0.00D+00
 Coeff-Com:  0.457D-05-0.569D-05 0.133D-05 0.229D-04-0.407D-03-0.108D-02
 Coeff-Com:  0.140D-02 0.288D-02 0.188D-01 0.898D-02-0.109D+00-0.973D-01
 Coeff-Com: -0.415D-01 0.122D+01
 Coeff:      0.457D-05-0.569D-05 0.133D-05 0.229D-04-0.407D-03-0.108D-02
 Coeff:      0.140D-02 0.288D-02 0.188D-01 0.898D-02-0.109D+00-0.973D-01
 Coeff:     -0.415D-01 0.122D+01
 Gap=     0.068 Goal=   None    Shift=    0.000
 Gap=     0.042 Goal=   None    Shift=    0.000
 RMSDP=1.10D-06 MaxDP=8.10D-05 DE=-7.71D-11 OVMax= 1.02D-05

 Cycle  15  Pass 1  IDiag  1:
 E= -1136.07090209463     Delta-E=       -0.000000000024 Rises=F Damp=F
 DIIS: error= 3.86D-08 at cycle  15 NSaved=  15.
 NSaved=15 IEnMin=15 EnMin= -1136.07090209463     IErMin=15 ErrMin= 3.86D-08
 ErrMax= 3.86D-08  0.00D+00 EMaxC= 1.00D-01 BMatC= 3.56D-13 BMatP= 2.42D-12
 IDIUse=1 WtCom= 1.00D+00 WtEn= 0.00D+00
 Coeff-Com: -0.170D-05 0.232D-05 0.443D-05-0.237D-06 0.918D-04 0.183D-03
 Coeff-Com: -0.814D-03-0.125D-02 0.131D-03 0.643D-02 0.179D-01-0.417D-01
 Coeff-Com: -0.123D+00-0.319D-01 0.117D+01
 Coeff:     -0.170D-05 0.232D-05 0.443D-05-0.237D-06 0.918D-04 0.183D-03
 Coeff:     -0.814D-03-0.125D-02 0.131D-03 0.643D-02 0.179D-01-0.417D-01
 Coeff:     -0.123D+00-0.319D-01 0.117D+01
 Gap=     0.068 Goal=   None    Shift=    0.000
 Gap=     0.042 Goal=   None    Shift=    0.000
 RMSDP=4.53D-07 MaxDP=3.32D-05 DE=-2.43D-11 OVMax= 5.63D-06

 Cycle  16  Pass 1  IDiag  1:
 E= -1136.07090209463     Delta-E=       -0.000000000005 Rises=F Damp=F
 DIIS: error= 2.20D-08 at cycle  16 NSaved=  16.
 NSaved=16 IEnMin=16 EnMin= -1136.07090209463     IErMin=16 ErrMin= 2.20D-08
 ErrMax= 2.20D-08  0.00D+00 EMaxC= 1.00D-01 BMatC= 1.00D-13 BMatP= 3.56D-13
 IDIUse=1 WtCom= 1.00D+00 WtEn= 0.00D+00
 Coeff-Com: -0.473D-06 0.588D-06 0.269D-05-0.109D-05 0.591D-04 0.138D-03
 Coeff-Com: -0.251D-03-0.395D-03-0.253D-02-0.121D-02 0.160D-01 0.120D-01
 Coeff-Com:  0.304D-02-0.201D+00 0.148D+00 0.103D+01
 Coeff:     -0.473D-06 0.588D-06 0.269D-05-0.109D-05 0.591D-04 0.138D-03
 Coeff:     -0.251D-03-0.395D-03-0.253D-02-0.121D-02 0.160D-01 0.120D-01
 Coeff:      0.304D-02-0.201D+00 0.148D+00 0.103D+01
 Gap=     0.068 Goal=   None    Shift=    0.000
 Gap=     0.042 Goal=   None    Shift=    0.000
 RMSDP=1.76D-07 MaxDP=2.01D-05 DE=-5.00D-12 OVMax= 2.78D-06

 Cycle  17  Pass 1  IDiag  1:
 E= -1136.07090209461     Delta-E=        0.000000000028 Rises=F Damp=F
 DIIS: error= 1.35D-08 at cycle  17 NSaved=  17.
 NSaved=17 IEnMin=16 EnMin= -1136.07090209463     IErMin=17 ErrMin= 1.35D-08
 ErrMax= 1.35D-08  0.00D+00 EMaxC= 1.00D-01 BMatC= 3.14D-14 BMatP= 1.00D-13
 IDIUse=1 WtCom= 1.00D+00 WtEn= 0.00D+00
 Coeff-Com:  0.329D-06-0.482D-06-0.554D-06-0.175D-06-0.584D-05 0.378D-05
 Coeff-Com:  0.159D-03 0.181D-03-0.817D-03-0.233D-02 0.518D-05 0.170D-01
 Coeff-Com:  0.371D-01-0.543D-01-0.317D+00 0.243D+00 0.108D+01
 Coeff:      0.329D-06-0.482D-06-0.554D-06-0.175D-06-0.584D-05 0.378D-05
 Coeff:      0.159D-03 0.181D-03-0.817D-03-0.233D-02 0.518D-05 0.170D-01
 Coeff:      0.371D-01-0.543D-01-0.317D+00 0.243D+00 0.108D+01
 Gap=     0.068 Goal=   None    Shift=    0.000
 Gap=     0.042 Goal=   None    Shift=    0.000
 RMSDP=1.14D-07 MaxDP=1.27D-05 DE= 2.80D-11 OVMax= 2.24D-06

 Cycle  18  Pass 1  IDiag  1:
 E= -1136.07090209462     Delta-E=       -0.000000000017 Rises=F Damp=F
 DIIS: error= 6.77D-09 at cycle  18 NSaved=  18.
 NSaved=18 IEnMin=16 EnMin= -1136.07090209463     IErMin=18 ErrMin= 6.77D-09
 ErrMax= 6.77D-09  0.00D+00 EMaxC= 1.00D-01 BMatC= 6.22D-15 BMatP= 3.14D-14
 IDIUse=1 WtCom= 1.00D+00 WtEn= 0.00D+00
 Large coefficients: NSaved= 18 BigCof=    0.00 CofMax=   10.00 Det=-7.02D-15
 Inversion failed.  Reducing to 17 matrices.
 Large coefficients: NSaved= 17 BigCof=    0.00 CofMax=   10.00 Det=-7.40D-15
 Inversion failed.  Reducing to 16 matrices.
 Large coefficients: NSaved= 16 BigCof=    0.00 CofMax=   10.00 Det=-7.41D-15
 Inversion failed.  Reducing to 15 matrices.
 Coeff-Com:  0.134D-05-0.119D-04-0.374D-04 0.212D-04 0.367D-04 0.806D-03
 Coeff-Com:  0.835D-03-0.358D-02-0.708D-02-0.687D-02 0.489D-01 0.453D-01
 Coeff-Com: -0.290D+00-0.273D+00 0.149D+01
 Coeff:      0.134D-05-0.119D-04-0.374D-04 0.212D-04 0.367D-04 0.806D-03
 Coeff:      0.835D-03-0.358D-02-0.708D-02-0.687D-02 0.489D-01 0.453D-01
 Coeff:     -0.290D+00-0.273D+00 0.149D+01
 Gap=     0.068 Goal=   None    Shift=    0.000
 Gap=     0.042 Goal=   None    Shift=    0.000
 RMSDP=8.14D-08 MaxDP=9.22D-06 DE=-1.68D-11 OVMax= 1.48D-06

 Cycle  19  Pass 1  IDiag  1:
 E= -1136.07090209463     Delta-E=       -0.000000000002 Rises=F Damp=F
 DIIS: error= 2.41D-09 at cycle  19 NSaved=  16.
 NSaved=16 IEnMin=13 EnMin= -1136.07090209463     IErMin=16 ErrMin= 2.41D-09
 ErrMax= 2.41D-09  0.00D+00 EMaxC= 1.00D-01 BMatC= 9.99D-16 BMatP= 6.22D-15
 IDIUse=1 WtCom= 1.00D+00 WtEn= 0.00D+00
 Large coefficients: NSaved= 16 BigCof=    0.00 CofMax=   10.00 Det=-8.22D-16
 Inversion failed.  Reducing to 15 matrices.
 Coeff-Com: -0.316D-05-0.100D-04 0.202D-06 0.893D-05 0.172D-03 0.311D-03
 Coeff-Com: -0.741D-03-0.219D-02-0.360D-02 0.722D-02 0.513D-01-0.460D-01
 Coeff-Com: -0.145D+00-0.671D-01 0.121D+01
 Coeff:     -0.316D-05-0.100D-04 0.202D-06 0.893D-05 0.172D-03 0.311D-03
 Coeff:     -0.741D-03-0.219D-02-0.360D-02 0.722D-02 0.513D-01-0.460D-01
 Coeff:     -0.145D+00-0.671D-01 0.121D+01
 Gap=     0.068 Goal=   None    Shift=    0.000
 Gap=     0.042 Goal=   None    Shift=    0.000
 RMSDP=3.01D-08 MaxDP=4.33D-06 DE=-2.27D-12 OVMax= 5.01D-07

 Cycle  20  Pass 1  IDiag  1:
 E= -1136.07090209462     Delta-E=        0.000000000009 Rises=F Damp=F
 DIIS: error= 8.92D-10 at cycle  20 NSaved=  16.
 NSaved=16 IEnMin=12 EnMin= -1136.07090209463     IErMin=16 ErrMin= 8.92D-10
 ErrMax= 8.92D-10  0.00D+00 EMaxC= 1.00D-01 BMatC= 2.19D-16 BMatP= 9.99D-16
 IDIUse=1 WtCom= 1.00D+00 WtEn= 0.00D+00
 Large coefficients: NSaved= 16 BigCof=    0.00 CofMax=   10.00 Det=-2.68D-16
 Inversion failed.  Reducing to 15 matrices.
 Coeff-Com:  0.335D-06 0.359D-05 0.296D-05 0.355D-05-0.482D-04 0.888D-05
 Coeff-Com: -0.481D-06-0.623D-03 0.949D-03 0.162D-02 0.542D-02-0.950D-02
 Coeff-Com: -0.731D-01 0.149D-01 0.106D+01
 Coeff:      0.335D-06 0.359D-05 0.296D-05 0.355D-05-0.482D-04 0.888D-05
 Coeff:     -0.481D-06-0.623D-03 0.949D-03 0.162D-02 0.542D-02-0.950D-02
 Coeff:     -0.731D-01 0.149D-01 0.106D+01
 Gap=     0.068 Goal=   None    Shift=    0.000
 Gap=     0.042 Goal=   None    Shift=    0.000
 RMSDP=1.80D-08 MaxDP=2.11D-06 DE= 8.87D-12 OVMax= 1.72D-07

 Cycle  21  Pass 1  IDiag  1:
 E= -1136.07090209461     Delta-E=        0.000000000001 Rises=F Damp=F
 DIIS: error= 5.59D-10 at cycle  21 NSaved=  16.
 NSaved=16 IEnMin=11 EnMin= -1136.07090209463     IErMin=16 ErrMin= 5.59D-10
 ErrMax= 5.59D-10  0.00D+00 EMaxC= 1.00D-01 BMatC= 9.65D-17 BMatP= 2.19D-16
 IDIUse=1 WtCom= 1.00D+00 WtEn= 0.00D+00
 Large coefficients: NSaved= 16 BigCof=    0.00 CofMax=   10.00 Det=-1.65D-16
 Inversion failed.  Reducing to 15 matrices.
 Coeff-Com:  0.347D-05 0.671D-05-0.549D-04-0.128D-03 0.251D-03 0.785D-03
 Coeff-Com:  0.112D-02-0.461D-02-0.107D-01 0.300D-01 0.468D-01-0.970D-01
 Coeff-Com: -0.266D+00 0.332D+00 0.968D+00
 Coeff:      0.347D-05 0.671D-05-0.549D-04-0.128D-03 0.251D-03 0.785D-03
 Coeff:      0.112D-02-0.461D-02-0.107D-01 0.300D-01 0.468D-01-0.970D-01
 Coeff:     -0.266D+00 0.332D+00 0.968D+00
 Gap=     0.068 Goal=   None    Shift=    0.000
 Gap=     0.042 Goal=   None    Shift=    0.000
 RMSDP=1.05D-08 MaxDP=8.94D-07 DE= 1.36D-12 OVMax= 9.50D-08

 Cycle  22  Pass 1  IDiag  1:
 E= -1136.07090209461     Delta-E=        0.000000000001 Rises=F Damp=F
 DIIS: error= 2.14D-10 at cycle  22 NSaved=  16.
 NSaved=16 IEnMin=10 EnMin= -1136.07090209463     IErMin=16 ErrMin= 2.14D-10
 ErrMax= 2.14D-10  0.00D+00 EMaxC= 1.00D-01 BMatC= 1.60D-17 BMatP= 9.65D-17
 IDIUse=1 WtCom= 1.00D+00 WtEn= 0.00D+00
 Large coefficients: NSaved= 16 BigCof=    0.00 CofMax=   10.00 Det=-3.60D-17
 Inversion failed.  Reducing to 15 matrices.
 Coeff-Com:  0.379D-06-0.128D-04-0.117D-04 0.696D-04 0.131D-03 0.254D-03
 Coeff-Com: -0.102D-02-0.289D-02 0.538D-02 0.117D-01-0.123D-02-0.975D-01
 Coeff-Com: -0.517D-01 0.268D+00 0.869D+00
 Coeff:      0.379D-06-0.128D-04-0.117D-04 0.696D-04 0.131D-03 0.254D-03
 Coeff:     -0.102D-02-0.289D-02 0.538D-02 0.117D-01-0.123D-02-0.975D-01
 Coeff:     -0.517D-01 0.268D+00 0.869D+00
 Gap=     0.068 Goal=   None    Shift=    0.000
 Gap=     0.042 Goal=   None    Shift=    0.000
 RMSDP=9.70D-09 MaxDP=7.78D-07 DE= 6.82D-13 OVMax= 2.60D-08

 SCF Done:  E(UB3LYP) =  -1136.07090209     A.U. after   22 cycles
            NFock= 22  Conv=0.97D-08     -V/T= 2.0022
 <Sx>= 0.0000 <Sy>= 0.0000 <Sz>= 0.5000 <S**2>= 0.7597 S= 0.5049
 <L.S>= 0.000000000000E+00
 KE= 1.133544622523D+03 PE=-3.552525472231D+03 EE= 8.713862344356D+02
 Annihilation of the first spin contaminant:
 S**2 before annihilation     0.7597,   after     0.7501
 Leave Link  502 at Mon Nov 13 12:21:39 2023, MaxMem=  1879048192 cpu:             222.2 elap:              18.8
 (Enter /home/sekinelabo/g16/l601.exe)
 Copying SCF densities to generalized density rwf, IOpCl= 1 IROHF=0.

 **********************************************************************

            Population analysis using the SCF Density.

 **********************************************************************

 Orbital symmetries:
 Alpha Orbitals:
       Occupied  (A) (A) (A) (A) (A) (A) (A) (A) (A) (A) (A) (A)
                 (A) (A) (A) (A) (A) (A) (A) (A) (A) (A) (A) (A)
                 (A) (A) (A) (A) (A) (A) (A) (A) (A) (A) (A) (A)
                 (A) (A) (A)
       Virtual   (A) (A) (A) (A) (A) (A) (A) (A) (A) (A) (A) (A)
                 (A) (A) (A) (A) (A) (A) (A) (A) (A) (A) (A) (A)
                 (A) (A) (A) (A) (A) (A) (A) (A) (A) (A) (A) (A)
                 (A) (A) (A) (A) (A) (A) (A) (A) (A) (A) (A) (A)
                 (A) (A) (A) (A) (A) (A) (A) (A) (A) (A) (A) (A)
                 (A) (A) (A) (A) (A) (A) (A) (A) (A) (A) (A) (A)
                 (A) (A) (A) (A) (A) (A) (A) (A) (A) (A) (A) (A)
                 (A) (A) (A) (A) (A) (A) (A) (A) (A) (A) (A) (A)
                 (A) (A) (A) (A) (A) (A) (A) (A) (A) (A) (A) (A)
                 (A) (A) (A) (A) (A) (A) (A) (A) (A) (A) (A) (A)
                 (A) (A) (A) (A) (A) (A) (A) (A) (A) (A) (A) (A)
                 (A) (A) (A) (A) (A) (A) (A) (A) (A) (A) (A) (A)
                 (A) (A) (A) (A) (A) (A) (A) (A) (A) (A) (A) (A)
                 (A) (A) (A) (A) (A) (A) (A) (A) (A) (A) (A) (A)
                 (A) (A)
 Beta  Orbitals:
       Occupied  (A) (A) (A) (A) (A) (A) (A) (A) (A) (A) (A) (A)
                 (A) (A) (A) (A) (A) (A) (A) (A) (A) (A) (A) (A)
                 (A) (A) (A) (A) (A) (A) (A) (A) (A) (A) (A) (A)
                 (A) (A)
       Virtual   (A) (A) (A) (A) (A) (A) (A) (A) (A) (A) (A) (A)
                 (A) (A) (A) (A) (A) (A) (A) (A) (A) (A) (A) (A)
                 (A) (A) (A) (A) (A) (A) (A) (A) (A) (A) (A) (A)
                 (A) (A) (A) (A) (A) (A) (A) (A) (A) (A) (A) (A)
                 (A) (A) (A) (A) (A) (A) (A) (A) (A) (A) (A) (A)
                 (A) (A) (A) (A) (A) (A) (A) (A) (A) (A) (A) (A)
                 (A) (A) (A) (A) (A) (A) (A) (A) (A) (A) (A) (A)
                 (A) (A) (A) (A) (A) (A) (A) (A) (A) (A) (A) (A)
                 (A) (A) (A) (A) (A) (A) (A) (A) (A) (A) (A) (A)
                 (A) (A) (A) (A) (A) (A) (A) (A) (A) (A) (A) (A)
                 (A) (A) (A) (A) (A) (A) (A) (A) (A) (A) (A) (A)
                 (A) (A) (A) (A) (A) (A) (A) (A) (A) (A) (A) (A)
                 (A) (A) (A) (A) (A) (A) (A) (A) (A) (A) (A) (A)
                 (A) (A) (A) (A) (A) (A) (A) (A) (A) (A) (A) (A)
                 (A) (A) (A)
 The electronic state is 2-A.
 Alpha  occ. eigenvalues --  -38.44157 -38.44101 -38.44074 -38.44059 -38.43761
 Alpha  occ. eigenvalues --  -38.43643 -38.43498  -2.20366  -2.20279  -2.20200
 Alpha  occ. eigenvalues --   -2.20130  -2.20017  -2.19798  -2.19713  -1.14443
 Alpha  occ. eigenvalues --   -1.14297  -1.14236  -1.14082  -1.13993  -1.13974
 Alpha  occ. eigenvalues --   -1.13906  -1.13846  -1.13808  -1.13793  -1.13699
 Alpha  occ. eigenvalues --   -1.13678  -1.13667  -1.13606  -1.13591  -1.13525
 Alpha  occ. eigenvalues --   -1.13367  -1.13320  -1.13294  -1.13278  -1.13107
 Alpha  occ. eigenvalues --   -0.21429  -0.14075  -0.12394  -0.12316
 Alpha virt. eigenvalues --   -0.05473  -0.04402  -0.03863  -0.03563  -0.02884
 Alpha virt. eigenvalues --   -0.02756  -0.01296  -0.00588  -0.00198   0.00314
 Alpha virt. eigenvalues --    0.00751   0.00817   0.00966   0.01040   0.01128
 Alpha virt. eigenvalues --    0.01182   0.01315   0.01351   0.01413   0.01484
 Alpha virt. eigenvalues --    0.01625   0.01757   0.01903   0.01955   0.02017
 Alpha virt. eigenvalues --    0.02712   0.02739   0.02945   0.02969   0.02993
 Alpha virt. eigenvalues --    0.03044   0.03085   0.03119   0.03161   0.03206
 Alpha virt. eigenvalues --    0.03284   0.03419   0.03913   0.03978   0.04436
 Alpha virt. eigenvalues --    0.04549   0.04725   0.05022   0.05079   0.05321
 Alpha virt. eigenvalues --    0.05492   0.05611   0.06233   0.06269   0.06494
 Alpha virt. eigenvalues --    0.06788   0.06950   0.07617   0.07859   0.07928
 Alpha virt. eigenvalues --    0.08303   0.08743   0.08931   0.09071   0.09758
 Alpha virt. eigenvalues --    0.10327   0.11182   0.12072   0.12784   0.12858
 Alpha virt. eigenvalues --    0.13205   0.13584   0.13696   0.14065   0.14371
 Alpha virt. eigenvalues --    0.14769   0.15088   0.15163   0.15267   0.16003
 Alpha virt. eigenvalues --    0.16442   0.16948   0.18019   0.19705   0.25213
 Alpha virt. eigenvalues --    0.25526   0.26362   0.27872   0.29704   0.31080
 Alpha virt. eigenvalues --    0.31492   0.31705   0.33175   0.34151   0.35027
 Alpha virt. eigenvalues --    0.36229   0.37514   0.37838   0.39784   0.40720
 Alpha virt. eigenvalues --    0.41561   0.42361   0.43110   0.44136   0.44214
 Alpha virt. eigenvalues --    0.44939   0.45135   0.45595   0.46496   0.46808
 Alpha virt. eigenvalues --    0.47503   0.47942   0.48592   0.49799   0.50014
 Alpha virt. eigenvalues --    0.50816   0.51202   0.51858   0.52111   0.52825
 Alpha virt. eigenvalues --    0.54081   0.54632   0.55631   0.58049   0.58254
 Alpha virt. eigenvalues --    0.58634   0.61202   0.65361   0.65991   0.69666
 Alpha virt. eigenvalues --    0.72500   0.73308   0.75077   0.76635   0.78669
 Alpha virt. eigenvalues --    0.79110   0.83699   0.84470   0.87402   0.92217
 Alpha virt. eigenvalues --    2.14737   2.21202   2.23654   2.27437   2.28024
 Alpha virt. eigenvalues --    2.33820   2.37875   4.41373   4.41934   4.42335
 Alpha virt. eigenvalues --    4.42770   4.44543   4.45675   4.46316   4.47049
 Alpha virt. eigenvalues --    4.48737   4.50683   4.55008   4.60818   4.69723
 Alpha virt. eigenvalues --    4.70463   4.73697   4.77206   4.81244   4.82616
 Alpha virt. eigenvalues --    4.83495   4.87193   4.99163  96.37003  96.46383
 Alpha virt. eigenvalues --   96.51548  96.55835  96.56813  96.64548  96.70287
  Beta  occ. eigenvalues --  -38.44141 -38.44065 -38.44034 -38.44004 -38.43690
  Beta  occ. eigenvalues --  -38.43626 -38.43476  -2.20268  -2.20188  -2.20151
  Beta  occ. eigenvalues --   -2.20020  -2.19992  -2.19769  -2.19681  -1.14355
  Beta  occ. eigenvalues --   -1.14232  -1.14187  -1.14022  -1.13925  -1.13906
  Beta  occ. eigenvalues --   -1.13862  -1.13778  -1.13758  -1.13743  -1.13657
  Beta  occ. eigenvalues --   -1.13610  -1.13599  -1.13574  -1.13561  -1.13468
  Beta  occ. eigenvalues --   -1.13334  -1.13275  -1.13248  -1.13207  -1.13090
  Beta  occ. eigenvalues --   -0.20575  -0.13813  -0.12155
  Beta virt. eigenvalues --   -0.07905  -0.05444  -0.04311  -0.03482  -0.03059
  Beta virt. eigenvalues --   -0.02155  -0.01603  -0.01236  -0.00532   0.00016
  Beta virt. eigenvalues --    0.00348   0.00775   0.00877   0.00970   0.01056
  Beta virt. eigenvalues --    0.01177   0.01298   0.01399   0.01461   0.01534
  Beta virt. eigenvalues --    0.01629   0.01713   0.01801   0.01965   0.01983
  Beta virt. eigenvalues --    0.02196   0.02743   0.02751   0.02959   0.02980
  Beta virt. eigenvalues --    0.03036   0.03066   0.03157   0.03218   0.03246
  Beta virt. eigenvalues --    0.03301   0.03378   0.03510   0.04072   0.04107
  Beta virt. eigenvalues --    0.04517   0.04710   0.04833   0.05116   0.05233
  Beta virt. eigenvalues --    0.05450   0.05723   0.05875   0.06296   0.06412
  Beta virt. eigenvalues --    0.06521   0.06807   0.07095   0.07710   0.07905
  Beta virt. eigenvalues --    0.08069   0.08375   0.08766   0.09138   0.09277
  Beta virt. eigenvalues --    0.10024   0.10542   0.11554   0.12431   0.12948
  Beta virt. eigenvalues --    0.13042   0.13453   0.13713   0.14094   0.14271
  Beta virt. eigenvalues --    0.14683   0.14940   0.15274   0.15404   0.15506
  Beta virt. eigenvalues --    0.16255   0.16767   0.17203   0.18303   0.19946
  Beta virt. eigenvalues --    0.25459   0.25973   0.26714   0.28039   0.30208
  Beta virt. eigenvalues --    0.31362   0.31927   0.32091   0.33453   0.34505
  Beta virt. eigenvalues --    0.35277   0.36710   0.37780   0.38025   0.39936
  Beta virt. eigenvalues --    0.41045   0.41701   0.42538   0.43397   0.44270
  Beta virt. eigenvalues --    0.44423   0.45124   0.45243   0.45973   0.46714
  Beta virt. eigenvalues --    0.46959   0.47647   0.48122   0.48752   0.49980
  Beta virt. eigenvalues --    0.50243   0.50919   0.51467   0.52088   0.52334
  Beta virt. eigenvalues --    0.53032   0.54295   0.55025   0.55819   0.58328
  Beta virt. eigenvalues --    0.58558   0.58874   0.61503   0.65762   0.66394
  Beta virt. eigenvalues --    0.69854   0.72772   0.73579   0.75265   0.76806
  Beta virt. eigenvalues --    0.78814   0.79247   0.83855   0.84671   0.87507
  Beta virt. eigenvalues --    0.92359   2.14787   2.21254   2.23711   2.27564
  Beta virt. eigenvalues --    2.28195   2.34034   2.38134   4.41445   4.41998
  Beta virt. eigenvalues --    4.42436   4.42853   4.44628   4.45727   4.46371
  Beta virt. eigenvalues --    4.47091   4.48797   4.50739   4.55084   4.60924
  Beta virt. eigenvalues --    4.69774   4.70548   4.73731   4.77289   4.81315
  Beta virt. eigenvalues --    4.82671   4.83555   4.87255   4.99225  96.37026
  Beta virt. eigenvalues --   96.46404  96.51569  96.55870  96.56889  96.64615
  Beta virt. eigenvalues --   96.70372
          Condensed to atoms (all electrons):
               1          2          3          4          5          6
     1  Na  16.229687   0.303950  -5.179530   0.169457   1.316269  -1.276964
     2  Na   0.303950  13.575245  -1.611006   0.332483  -0.160152  -1.168326
     3  Na  -5.179530  -1.611006  21.866110   0.063266  -3.266660  -0.709572
     4  Na   0.169457   0.332483   0.063266  12.281120  -1.200172  -0.062520
     5  Na   1.316269  -0.160152  -3.266660  -1.200172  13.237414   0.916859
     6  Na  -1.276964  -1.168326  -0.709572  -0.062520   0.916859  14.428440
     7  Na   0.529023   0.159748  -1.491890  -0.468330  -0.523619  -0.999999
               7
     1  Na   0.529023
     2  Na   0.159748
     3  Na  -1.491890
     4  Na  -0.468330
     5  Na  -0.523619
     6  Na  -0.999999
     7  Na  14.037351
          Atomic-Atomic Spin Densities.
               1          2          3          4          5          6
     1  Na   1.144705   0.291639  -0.072478  -0.303544   0.051880  -1.140498
     2  Na   0.291639  -0.010531  -0.473576  -0.040348  -0.073100  -0.092313
     3  Na  -0.072478  -0.473576   0.362602  -0.167045   0.329613   0.472691
     4  Na  -0.303544  -0.040348  -0.167045   0.249013  -0.087042   0.440119
     5  Na   0.051880  -0.073100   0.329613  -0.087042   0.083776  -0.114474
     6  Na  -1.140498  -0.092313   0.472691   0.440119  -0.114474   1.137107
     7  Na   0.359775   0.766792  -0.446151   0.198312  -0.205518  -0.721785
               7
     1  Na   0.359775
     2  Na   0.766792
     3  Na  -0.446151
     4  Na   0.198312
     5  Na  -0.205518
     6  Na  -0.721785
     7  Na   0.087430
 Mulliken charges and spin densities:
               1          2
     1  Na  -1.091892   0.331477
     2  Na  -0.431943   0.368563
     3  Na   1.329282   0.005655
     4  Na  -0.115305   0.289466
     5  Na   0.680061  -0.014864
     6  Na  -0.127919  -0.019152
     7  Na  -0.242283   0.038856
 Sum of Mulliken charges =  -0.00000   1.00000
 Mulliken charges and spin densities with hydrogens summed into heavy atoms:
               1          2
     1  Na  -1.091892   0.331477
     2  Na  -0.431943   0.368563
     3  Na   1.329282   0.005655
     4  Na  -0.115305   0.289466
     5  Na   0.680061  -0.014864
     6  Na  -0.127919  -0.019152
     7  Na  -0.242283   0.038856
 Electronic spatial extent (au):  <R**2>=           1628.2552
 Charge=             -0.0000 electrons
 Dipole moment (field-independent basis, Debye):
    X=              0.0877    Y=             -0.4071    Z=             -0.1859  Tot=              0.4561
 Quadrupole moment (field-independent basis, Debye-Ang):
   XX=            -57.2699   YY=            -70.5885   ZZ=            -67.8633
   XY=             -0.1304   XZ=              0.0975   YZ=              0.6146
 Traceless Quadrupole moment (field-independent basis, Debye-Ang):
   XX=              7.9707   YY=             -5.3479   ZZ=             -2.6228
   XY=             -0.1304   XZ=              0.0975   YZ=              0.6146
 Octapole moment (field-independent basis, Debye-Ang**2):
  XXX=              0.8197  YYY=              4.0959  ZZZ=              2.3337  XYY=              2.5956
  XXY=            -14.5175  XXZ=             -7.2857  XZZ=              1.2200  YZZ=             -4.5148
  YYZ=             -3.4636  XYZ=             -0.9435
 Hexadecapole moment (field-independent basis, Debye-Ang**3):
 XXXX=          -1173.1928 YYYY=           -998.5622 ZZZZ=           -664.4134 XXXY=            -31.2265
 XXXZ=             14.1125 YYYX=              4.3930 YYYZ=            -19.1223 ZZZX=              4.0341
 ZZZY=             -0.7159 XXYY=           -340.0292 XXZZ=           -326.0152 YYZZ=           -270.3054
 XXYZ=             39.1347 YYXZ=            -15.2288 ZZXY=             14.1234
 N-N= 4.115237131783D+02 E-N=-3.552525472235D+03  KE= 1.133544622523D+03
                          Isotropic Fermi Contact Couplings
        Atom                 a.u.       MegaHertz       Gauss      10(-4) cm-1
     1  Na(23)             0.25050     296.35083     105.74535      98.85200
     2  Na(23)             0.00447       5.28740       1.88668       1.76369
     3  Na(23)             0.03727      44.09111      15.73280      14.70721
     4  Na(23)             0.22208     262.73056      93.74880      87.63748
     5  Na(23)             0.02098      24.82092       8.85672       8.27937
     6  Na(23)             0.16390     193.89963      69.18821      64.67795
     7  Na(23)             0.00665       7.86863       2.80772       2.62469
 --------------------------------------------------------
       Center         ----  Spin Dipole Couplings  ----
                      3XX-RR        3YY-RR        3ZZ-RR
 --------------------------------------------------------
     1   Atom       -0.000976     -0.003789      0.004765
     2   Atom       -0.027109     -0.038063      0.065172
     3   Atom       -0.006188     -0.011582      0.017769
     4   Atom       -0.019579      0.019358      0.000221
     5   Atom       -0.020317     -0.010029      0.030346
     6   Atom        0.011568     -0.023883      0.012314
     7   Atom       -0.008021     -0.011479      0.019500
 --------------------------------------------------------
                        XY            XZ            YZ
 --------------------------------------------------------
     1   Atom        0.000023      0.003106     -0.012212
     2   Atom       -0.009216      0.029655     -0.016969
     3   Atom        0.004921     -0.018582     -0.010412
     4   Atom        0.015079      0.013291      0.037814
     5   Atom        0.003749      0.004872      0.024561
     6   Atom        0.011775     -0.042520     -0.015981
     7   Atom       -0.002662      0.010293     -0.008710
 --------------------------------------------------------


 ---------------------------------------------------------------------------------
              Anisotropic Spin Dipole Couplings in Principal Axis System
 ---------------------------------------------------------------------------------

       Atom             a.u.   MegaHertz   Gauss  10(-4) cm-1        Axes

              Baa    -0.0127    -1.799    -0.642    -0.600 -0.1557  0.7969  0.5837
     1 Na(23) Bbb    -0.0011    -0.158    -0.057    -0.053  0.9733  0.2248 -0.0473
              Bcc     0.0139     1.957     0.698     0.653  0.1689 -0.5607  0.8106
 
              Baa    -0.0433    -6.116    -2.182    -2.040  0.4923  0.8704  0.0016
     2 Na(23) Bbb    -0.0337    -4.755    -1.697    -1.586  0.8229 -0.4649 -0.3267
              Bcc     0.0770    10.871     3.879     3.626  0.2836 -0.1621  0.9451
 
              Baa    -0.0165    -2.336    -0.833    -0.779  0.7908  0.3159  0.5242
     3 Na(23) Bbb    -0.0145    -2.043    -0.729    -0.681 -0.4050  0.9123  0.0612
              Bcc     0.0310     4.378     1.562     1.460 -0.4589 -0.2607  0.8494
 
              Baa    -0.0295    -4.170    -1.488    -1.391 -0.2464 -0.5443  0.8019
     4 Na(23) Bbb    -0.0247    -3.491    -1.246    -1.164  0.9330 -0.3571  0.0443
              Bcc     0.0542     7.661     2.734     2.555  0.2623  0.7591  0.5958
 
              Baa    -0.0226    -3.194    -1.140    -1.065 -0.5997  0.7456 -0.2906
     5 Na(23) Bbb    -0.0199    -2.811    -1.003    -0.938  0.7945  0.5116 -0.3271
              Bcc     0.0425     6.005     2.143     2.003  0.0952  0.4270  0.8992
 
              Baa    -0.0326    -4.597    -1.640    -1.533  0.4932  0.5589  0.6666
     6 Na(23) Bbb    -0.0266    -3.751    -1.339    -1.251 -0.5428  0.7965 -0.2662
              Bcc     0.0591     8.348     2.979     2.785 -0.6798 -0.2305  0.6963
 
              Baa    -0.0138    -1.943    -0.693    -0.648 -0.0126  0.9663  0.2570
     7 Na(23) Bbb    -0.0114    -1.613    -0.576    -0.538  0.9523  0.0900 -0.2916
              Bcc     0.0252     3.556     1.269     1.186  0.3049 -0.2410  0.9214
 

 ---------------------------------------------------------------------------------

 No NMR shielding tensors so no spin-rotation constants.
 Leave Link  601 at Mon Nov 13 12:21:40 2023, MaxMem=  1879048192 cpu:               5.4 elap:               0.4
 (Enter /home/sekinelabo/g16/l701.exe)
 ... and contract with generalized density number  0.
 Compute integral first derivatives.
 Leave Link  701 at Mon Nov 13 12:21:40 2023, MaxMem=  1879048192 cpu:               6.7 elap:               0.5
 (Enter /home/sekinelabo/g16/l702.exe)
 L702 exits ... SP integral derivatives will be done elsewhere.
 Leave Link  702 at Mon Nov 13 12:21:40 2023, MaxMem=  1879048192 cpu:               0.6 elap:               0.0
 (Enter /home/sekinelabo/g16/l703.exe)
 Integral derivatives from FoFJK, PRISM(SPDF).
 Compute integral first derivatives, UseDBF=F ICtDFT=           0.
 Calling FoFJK, ICntrl=      2127 FMM=F ISym2X=0 I1Cent= 0 IOpClX= 1 NMat=1 NMatS=1 NMatT=0.
 FoFJK:  IHMeth= 1 ICntrl=    2127 DoSepK=F KAlg= 0 I1Cent=           0 FoldK=F
 IRaf=         0 NMat=       1 IRICut=       1 DoRegI=T DoRafI=F ISym2E= 0 IDoP0=0 IntGTp=1.
 FoFCou: FMM=F IPFlag=           0 FMFlag=      100000 FMFlg1=         800
         NFxFlg=           0 DoJE=F BraDBF=F KetDBF=F FulRan=T
         wScrn=  0.000000 ICntrl=      2127 IOpCl=  1 I1Cent=           0 NGrid=           0
         NMat0=    1 NMatS0=      1 NMatT0=    0 NMatD0=    1 NMtDS0=    0 NMtDT0=    0
 Symmetry not used in FoFCou.
 Leave Link  703 at Mon Nov 13 12:21:43 2023, MaxMem=  1879048192 cpu:              41.3 elap:               2.6
 (Enter /home/sekinelabo/g16/l716.exe)
 Dipole        = 3.44966623D-02-1.60171797D-01-7.31379333D-02
 ***** Axes restored to original set *****
 -------------------------------------------------------------------
 Center     Atomic                   Forces (Hartrees/Bohr)
 Number     Number              X              Y              Z
 -------------------------------------------------------------------
      1       11          -0.000885711   -0.010485848    0.020899461
      2       11           0.018352473    0.017274182   -0.009677164
      3       11           0.017770582   -0.011259918    0.008640578
      4       11           0.001673864   -0.021414987   -0.015680893
      5       11          -0.010572518    0.027788682    0.014292386
      6       11          -0.016172779    0.007705980   -0.020455281
      7       11          -0.010165912   -0.009608090    0.001980914
 -------------------------------------------------------------------
 Cartesian Forces:  Max     0.027788682 RMS     0.014684170
 Z-matrix is all fixed cartesians, so copy forces.
 Force constants in Cartesian coordinates: 
                1             2             3             4             5 
      1  0.248242D+00
      2  0.663421D-02  0.236990D+00
      3 -0.180001D-02 -0.250157D-01  0.319969D+00
      4 -0.331820D-01 -0.117016D-01 -0.934553D-02  0.209986D+00
      5 -0.186378D-01 -0.321099D-01  0.154977D-02  0.370685D-01  0.211460D+00
      6  0.294199D-01  0.306926D-01 -0.482533D-01 -0.193822D-01 -0.191300D-01
      7 -0.562918D-01  0.107409D-01 -0.158041D-01 -0.305617D-01 -0.212601D-01
      8 -0.768253D-02 -0.401485D-01  0.682679D-02  0.249353D-01 -0.534339D-01
      9  0.355134D-01 -0.115713D-01 -0.484079D-01 -0.135883D-01  0.112821D-01
     10 -0.267091D-01  0.359703D-02  0.300312D-02 -0.363550D-01 -0.257814D-01
     11 -0.441731D-02 -0.295507D-01  0.113875D-01  0.504870D-02 -0.585031D-01
     12  0.800478D-02 -0.299792D-01 -0.638267D-01  0.138347D-01  0.780801D-02
     13 -0.485391D-01  0.300737D-02  0.535234D-02 -0.643332D-01  0.336898D-01
     14  0.687582D-02 -0.725070D-01 -0.175781D-01 -0.203493D-01 -0.504374D-01
     15 -0.840318D-02  0.434146D-01 -0.426396D-01  0.877712D-02 -0.212416D-01
     16 -0.264865D-01 -0.727886D-03  0.281050D-02 -0.425556D-01  0.920918D-02
     17  0.101216D-01 -0.195798D-01  0.152081D-01 -0.246058D-01 -0.257876D-01
     18 -0.243393D-01  0.131450D-01 -0.567497D-01  0.133820D-01  0.168498D-01
     19 -0.570334D-01 -0.115500D-01  0.157836D-01 -0.299857D-02 -0.142881D-01
     20  0.710609D-02 -0.430945D-01  0.762167D-02 -0.103958D-01  0.881207D-02
     21 -0.383956D-01 -0.206858D-01 -0.600918D-01  0.632220D-02  0.288190D-02
                6             7             8             9            10 
      6  0.165722D+00
      7  0.944460D-02  0.128354D+00
      8  0.192280D-01 -0.177679D-01  0.969722D-01
      9 -0.330095D-01  0.155712D-01 -0.137092D-01  0.996315D-01
     10 -0.149863D-01 -0.388623D-01 -0.146330D-01 -0.292389D-01  0.168306D+00
     11 -0.364030D-01  0.865693D-02 -0.263109D-01  0.122997D-01 -0.141505D-01
     12 -0.319959D-01  0.543274D-02 -0.158567D-01 -0.544756D-01 -0.626989D-02
     13  0.232705D-01  0.333809D-02  0.110200D-01  0.279887D-02  0.138648D-01
     14  0.816479D-02  0.622315D-02  0.131778D-02 -0.222647D-02  0.740685D-02
     15 -0.512637D-01 -0.613200D-03  0.275621D-02  0.134360D-01  0.374952D-02
     16 -0.348033D-01 -0.105122D-02  0.871377D-02 -0.107436D-01 -0.642942D-01
     17 -0.435278D-02  0.104015D-01  0.126354D-01  0.245114D-02  0.271686D-01
     18 -0.222739D-01 -0.101642D-01  0.149016D-02  0.116501D-01  0.231935D-01
     19  0.703675D-02 -0.492505D-02 -0.458565D-02 -0.312592D-03 -0.159502D-01
     20  0.180045D-02  0.300552D-02  0.896795D-02  0.147405D-02  0.163924D-01
     21  0.210747D-01 -0.386704D-02 -0.735267D-03  0.111753D-01  0.205489D-01
               11            12            13            14            15 
     11  0.192414D+00
     12  0.425417D-01  0.202165D+00
     13  0.116236D-01  0.485894D-02  0.138756D+00
     14 -0.325405D-02 -0.140549D-01 -0.137858D-01  0.191171D+00
     15 -0.192915D-01  0.115471D-01 -0.143296D-01  0.314536D-01  0.136399D+00
     16  0.799453D-02 -0.231594D-01 -0.409971D-01  0.493049D-02  0.541384D-02
     17 -0.681258D-01  0.226965D-01 -0.240667D-01 -0.499229D-01 -0.415470D-01
     18 -0.218154D-01 -0.452497D-01 -0.166945D-01  0.552427D-02 -0.707595D-01
     19 -0.147559D-01 -0.270190D-02 -0.208941D-02  0.869884D-02  0.540552D-02
     20 -0.666935D-02 -0.131554D-01 -0.214883D-01 -0.163673D-01  0.445567D-02
     21  0.112811D-01 -0.181637D-01 -0.525652D-02 -0.112832D-01  0.328038D-02
               16            17            18            19            20 
     16  0.210357D+00
     17 -0.122672D-01  0.196106D+00
     18  0.353890D-01 -0.212421D-01  0.239070D+00
     19 -0.349726D-01  0.132480D-01 -0.207664D-01  0.117969D+00
     20 -0.178529D-01 -0.453248D-01  0.604836D-02  0.232329D-01  0.936760D-01
     21  0.250930D-01  0.267861D-01 -0.556871D-01 -0.444501D-02 -0.824483D-02
               21 
     21  0.984123D-01
 Leave Link  716 at Mon Nov 13 12:21:43 2023, MaxMem=  1879048192 cpu:               0.5 elap:               0.0
 (Enter /home/sekinelabo/g16/l103.exe)

 GradGradGradGradGradGradGradGradGradGradGradGradGradGradGradGradGradGrad
 Berny optimization.
 Search for a local minimum.
 Step number   1 out of a maximum of    2
 All quantities printed in internal units (Hartrees-Bohrs-Radians)
 Second derivative matrix not updated -- first step.
 ITU=  0
     Eigenvalues ---    0.10776   0.12775   0.13734   0.17427   0.18355
     Eigenvalues ---    0.21673   0.24350   0.24945   0.26355   0.28812
     Eigenvalues ---    0.29981   0.31591   0.33656   0.34502   0.38761
 Quadratic step=4.018D-01 exceeds max=3.000D-01 adjusted using Lamda=-5.012D-02.
 Angle between NR and scaled steps=   4.04 degrees.
 Angle between quadratic step and forces=  15.92 degrees.
 Linear search not attempted -- first point.
 B after Tr=     0.000000    0.000000    0.000000
         Rot=    1.000000    0.000000    0.000000    0.000000 Ang=   0.00 deg.
 Variable       Old X    -DE/DX   Delta X   Delta X   Delta X     New X
                                 (Linear)    (Quad)   (Total)
    X1        4.85712  -0.00089   0.00000  -0.00413  -0.00413   4.85299
    Y1        1.82098  -0.01049   0.00000  -0.02492  -0.02492   1.79606
    Z1        5.20971   0.02090   0.00000   0.06323   0.06323   5.27293
    X2        8.15191   0.01835   0.00000   0.07630   0.07630   8.22822
    Y2        5.05983   0.01727   0.00000   0.07085   0.07085   5.13068
    Z2        1.80269  -0.00968   0.00000  -0.03207  -0.03207   1.77062
    X3        9.95966   0.01777   0.00000   0.11753   0.11753  10.07719
    Y3        0.43553  -0.01126   0.00000  -0.06640  -0.06640   0.36913
    Z3        3.98708   0.00864   0.00000   0.03790   0.03790   4.02498
    X4        6.29182   0.00167   0.00000   0.01720   0.01720   6.30902
    Y4        0.30009  -0.02141   0.00000  -0.07948  -0.07948   0.22061
    Z4        0.00000  -0.01568   0.00000  -0.06295  -0.06295  -0.06295
    X5        3.88819  -0.01057   0.00000  -0.04625  -0.04625   3.84194
    Y5        6.74934   0.02779   0.00000   0.12760   0.12760   6.87694
    Z5        4.00437   0.01429   0.00000   0.04885   0.04885   4.05321
    X6        2.44206  -0.01617   0.00000  -0.06986  -0.06986   2.37220
    Y6        3.60262   0.00771   0.00000   0.03267   0.03267   3.63528
    Z6        0.30864  -0.02046   0.00000  -0.06707  -0.06707   0.24157
    X7        0.00000  -0.01017   0.00000  -0.09079  -0.09079  -0.09079
    Y7        0.00000  -0.00961   0.00000  -0.06032  -0.06032  -0.06032
    Z7        3.57531   0.00198   0.00000   0.01210   0.01210   3.58741
         Item               Value     Threshold  Converged?
 Maximum Force            0.027789     0.000450     NO 
 RMS     Force            0.014684     0.000300     NO 
 Maximum Displacement     0.127603     0.001800     NO 
 RMS     Displacement     0.065473     0.001200     NO 
 Predicted change in Energy=-1.196353D-02
 GradGradGradGradGradGradGradGradGradGradGradGradGradGradGradGradGradGrad

 Leave Link  103 at Mon Nov 13 12:21:43 2023, MaxMem=  1879048192 cpu:               0.3 elap:               0.0
 (Enter /home/sekinelabo/g16/l9999.exe)
 1\1\GINC-SEKINELABO-XA7R-R37\Force\UB3LYP\6-311+G(d)\Na7(2)\SEKINELABO
 \13-Nov-2023\0\\#P B3LYP/6-311+g(d) force\\Gaussian input prepared by 
 ASE\\0,2\Na,2.5702772374,0.9636197263,2.7568574112\Na,4.3138071165,2.6
 775484251,0.9539429366\Na,5.2704267684,0.2304726651,2.1098720267\Na,3.
 3294870834,0.1588013458,0.\Na,2.0575396162,3.5715971569,2.119019805\Na
 ,1.2922820107,1.9064230773,0.1633234303\Na,0.,0.,1.8919705041\\Version
 =ES64L-G16RevB.01\State=2-A\HF=-1136.0709021\S2=0.759749\S2-1=0.\S2A=0
 .750062\RMSD=9.697e-09\RMSF=1.468e-02\Dipole=-0.0344967,-0.1601718,0.0
 731379\Quadrupole=5.9259902,-3.9760372,-1.9499529,0.0969429,0.072474,-
 0.4569329\PG=C01 [X(Na7)]\\@


 THE ATTENTION SPAN OF A COMPUTER IS AS LONG
 AS ITS EXTENSION CORD.
 Job cpu time:       0 days  0 hours  4 minutes 49.7 seconds.
 Elapsed time:       0 days  0 hours  0 minutes 23.2 seconds.
 File lengths (MBytes):  RWF=     32 Int=      0 D2E=      0 Chk=      5 Scr=      1
 Normal termination of Gaussian 16 at Mon Nov 13 12:21:43 2023.
