 Entering Gaussian System, Link 0=g16
 Initial command:
 /home/sekinelabo/g16/l1.exe "/home/sekinelabo/g16temp/Gau-3983518.inp" -scrdir="/home/sekinelabo/g16temp/"
 Entering Link 1 = /home/sekinelabo/g16/l1.exe PID=   3983520.
  
 Copyright (c) 1988-2017, Gaussian, Inc.  All Rights Reserved.
  
 This is part of the Gaussian(R) 16 program.  It is based on
 the Gaussian(R) 09 system (copyright 2009, Gaussian, Inc.),
 the Gaussian(R) 03 system (copyright 2003, Gaussian, Inc.),
 the Gaussian(R) 98 system (copyright 1998, Gaussian, Inc.),
 the Gaussian(R) 94 system (copyright 1995, Gaussian, Inc.),
 the Gaussian 92(TM) system (copyright 1992, Gaussian, Inc.),
 the Gaussian 90(TM) system (copyright 1990, Gaussian, Inc.),
 the Gaussian 88(TM) system (copyright 1988, Gaussian, Inc.),
 the Gaussian 86(TM) system (copyright 1986, Carnegie Mellon
 University), and the Gaussian 82(TM) system (copyright 1983,
 Carnegie Mellon University). Gaussian is a federally registered
 trademark of Gaussian, Inc.
  
 This software contains proprietary and confidential information,
 including trade secrets, belonging to Gaussian, Inc.
  
 This software is provided under written license and may be
 used, copied, transmitted, or stored only in accord with that
 written license.
  
 The following legend is applicable only to US Government
 contracts under FAR:
  
                    RESTRICTED RIGHTS LEGEND
  
 Use, reproduction and disclosure by the US Government is
 subject to restrictions as set forth in subparagraphs (a)
 and (c) of the Commercial Computer Software - Restricted
 Rights clause in FAR 52.227-19.
  
 Gaussian, Inc.
 340 Quinnipiac St., Bldg. 40, Wallingford CT 06492
  
  
 ---------------------------------------------------------------
 Warning -- This program may not be used in any manner that
 competes with the business of Gaussian, Inc. or will provide
 assistance to any competitor of Gaussian, Inc.  The licensee
 of this program is prohibited from giving any competitor of
 Gaussian, Inc. access to this program.  By using this program,
 the user acknowledges that Gaussian, Inc. is engaged in the
 business of creating and licensing software in the field of
 computational chemistry and represents and warrants to the
 licensee that it is not a competitor of Gaussian, Inc. and that
 it will not use this program in any manner prohibited above.
 ---------------------------------------------------------------
  

 Cite this work as:
 Gaussian 16, Revision B.01,
 M. J. Frisch, G. W. Trucks, H. B. Schlegel, G. E. Scuseria, 
 M. A. Robb, J. R. Cheeseman, G. Scalmani, V. Barone, 
 G. A. Petersson, H. Nakatsuji, X. Li, M. Caricato, A. V. Marenich, 
 J. Bloino, B. G. Janesko, R. Gomperts, B. Mennucci, H. P. Hratchian, 
 J. V. Ortiz, A. F. Izmaylov, J. L. Sonnenberg, D. Williams-Young, 
 F. Ding, F. Lipparini, F. Egidi, J. Goings, B. Peng, A. Petrone, 
 T. Henderson, D. Ranasinghe, V. G. Zakrzewski, J. Gao, N. Rega, 
 G. Zheng, W. Liang, M. Hada, M. Ehara, K. Toyota, R. Fukuda, 
 J. Hasegawa, M. Ishida, T. Nakajima, Y. Honda, O. Kitao, H. Nakai, 
 T. Vreven, K. Throssell, J. A. Montgomery, Jr., J. E. Peralta, 
 F. Ogliaro, M. J. Bearpark, J. J. Heyd, E. N. Brothers, K. N. Kudin, 
 V. N. Staroverov, T. A. Keith, R. Kobayashi, J. Normand, 
 K. Raghavachari, A. P. Rendell, J. C. Burant, S. S. Iyengar, 
 J. Tomasi, M. Cossi, J. M. Millam, M. Klene, C. Adamo, R. Cammi, 
 J. W. Ochterski, R. L. Martin, K. Morokuma, O. Farkas, 
 J. B. Foresman, and D. J. Fox, Gaussian, Inc., Wallingford CT, 2016.
 
 ******************************************
 Gaussian 16:  ES64L-G16RevB.01 20-Dec-2017
                13-Nov-2023 
 ******************************************
 %mem=14GB
 %chk=checkpoint.chk
 %nprocshared=16
 Will use up to   16 processors via shared memory.
 -------------------------
 #P B3LYP/6-311+g(d) force
 -------------------------
 1/10=7,30=1,38=1/1,3;
 2/12=2,17=6,18=5,40=1/2;
 3/5=4,6=6,7=11,11=2,25=1,30=1,71=1,74=-5/1,2,3;
 4//1;
 5/5=2,38=5/2;
 6/7=2,8=2,9=2,10=2,28=1/1;
 7/29=1/1,2,3,16;
 1/10=7,30=1/3;
 99//99;
 Leave Link    1 at Mon Nov 13 12:22:04 2023, MaxMem=  1879048192 cpu:               0.6 elap:               0.0
 (Enter /home/sekinelabo/g16/l101.exe)
 ------------------------------
 Gaussian input prepared by ASE
 ------------------------------
 Symbolic Z-matrix:
 Charge =  0 Multiplicity = 2
 Na                    2.24355   2.09253   0. 
 Na                    5.01048   2.14772   0.10971 
 Na                    0.        2.25348   1.78559 
 Na                    2.61048   2.58615   2.94454 
 Na                    3.68105   4.50379   1.29537 
 Na                    5.33793   2.34264   2.83011 
 Na                    3.6599    0.        1.73203 
 
 ITRead=  0  0  0  0  0  0  0
 MicOpt= -1 -1 -1 -1 -1 -1 -1
 NAtoms=      7 NQM=        7 NQMF=       0 NMMI=      0 NMMIF=      0
                NMic=       0 NMicF=      0.
                    Isotopes and Nuclear Properties:
 (Nuclear quadrupole moments (NQMom) in fm**2, nuclear magnetic moments (NMagM)
  in nuclear magnetons)

  Atom         1           2           3           4           5           6           7
 IAtWgt=          23          23          23          23          23          23          23
 AtmWgt=  22.9897697  22.9897697  22.9897697  22.9897697  22.9897697  22.9897697  22.9897697
 NucSpn=           3           3           3           3           3           3           3
 AtZEff=  -0.0000000  -0.0000000  -0.0000000  -0.0000000  -0.0000000  -0.0000000  -0.0000000
 NQMom=   10.4000000  10.4000000  10.4000000  10.4000000  10.4000000  10.4000000  10.4000000
 NMagM=    2.2175200   2.2175200   2.2175200   2.2175200   2.2175200   2.2175200   2.2175200
 AtZNuc=  11.0000000  11.0000000  11.0000000  11.0000000  11.0000000  11.0000000  11.0000000
 Leave Link  101 at Mon Nov 13 12:22:04 2023, MaxMem=  1879048192 cpu:               3.1 elap:               0.2
 (Enter /home/sekinelabo/g16/l103.exe)

 GradGradGradGradGradGradGradGradGradGradGradGradGradGradGradGradGradGrad
 Berny optimization.
 Initialization pass.
 Trust Radius=3.00D-01 FncErr=1.00D-07 GrdErr=1.00D-07 EigMax=2.50D+02 EigMin=1.00D-04
 Number of steps in this run=      2 maximum allowed number of steps=      2.
 GradGradGradGradGradGradGradGradGradGradGradGradGradGradGradGradGradGrad

 Leave Link  103 at Mon Nov 13 12:22:04 2023, MaxMem=  1879048192 cpu:               0.2 elap:               0.0
 (Enter /home/sekinelabo/g16/l202.exe)
                          Input orientation:                          
 ---------------------------------------------------------------------
 Center     Atomic      Atomic             Coordinates (Angstroms)
 Number     Number       Type             X           Y           Z
 ---------------------------------------------------------------------
      1         11           0        2.243552    2.092527    0.000000
      2         11           0        5.010481    2.147717    0.109705
      3         11           0        0.000000    2.253479    1.785592
      4         11           0        2.610482    2.586151    2.944541
      5         11           0        3.681048    4.503786    1.295372
      6         11           0        5.337928    2.342644    2.830110
      7         11           0        3.659895    0.000000    1.732025
 ---------------------------------------------------------------------
                    Distance matrix (angstroms):
                    1          2          3          4          5
     1  Na   0.000000
     2  Na   2.769653   0.000000
     3  Na   2.871893   5.284383   0.000000
     4  Na   3.008093   3.740122   2.875491   0.000000
     5  Na   3.091690   2.953685   4.342154   2.746488   0.000000
     6  Na   4.200862   2.746965   5.439894   2.740685   3.125893
     7  Na   3.063431   3.011427   4.298357   3.042965   4.524953
                    6          7
     6  Na   0.000000
     7  Na   3.083758   0.000000
 Stoichiometry    Na7(2)
 Framework group  C1[X(Na7)]
 Deg. of freedom    15
 Full point group                 C1      NOp   1
 Largest Abelian subgroup         C1      NOp   1
 Largest concise Abelian subgroup C1      NOp   1
                         Standard orientation:                         
 ---------------------------------------------------------------------
 Center     Atomic      Atomic             Coordinates (Angstroms)
 Number     Number       Type             X           Y           Z
 ---------------------------------------------------------------------
      1         11           0       -0.976932    0.182659    1.528192
      2         11           0        1.789997    0.127469    1.418487
      3         11           0       -3.220484    0.021707   -0.257400
      4         11           0       -0.610002   -0.310964   -1.416349
      5         11           0        0.460564   -2.228599    0.232820
      6         11           0        2.117444   -0.067457   -1.301918
      7         11           0        0.439412    2.275186   -0.203833
 ---------------------------------------------------------------------
 Rotational constants (GHZ):           1.1879387           0.7850602           0.7306808
 Leave Link  202 at Mon Nov 13 12:22:04 2023, MaxMem=  1879048192 cpu:               0.0 elap:               0.0
 (Enter /home/sekinelabo/g16/l301.exe)
 Standard basis: 6-311+G(d) (5D, 7F)
 Ernie: Thresh=  0.10000D-02 Tol=  0.10000D-05 Strict=F.
 There are   217 symmetry adapted cartesian basis functions of A   symmetry.
 There are   210 symmetry adapted basis functions of A   symmetry.
   210 basis functions,   350 primitive gaussians,   217 cartesian basis functions
    39 alpha electrons       38 beta electrons
       nuclear repulsion energy       405.8391481782 Hartrees.
 IExCor=  402 DFT=T Ex+Corr=B3LYP ExCW=0 ScaHFX=  0.200000
 ScaDFX=  0.800000  0.720000  1.000000  0.810000 ScalE2=  1.000000  1.000000
 IRadAn=      5 IRanWt=     -1 IRanGd=            0 ICorTp=0 IEmpDi=  4
 NAtoms=    7 NActive=    7 NUniq=    7 SFac= 1.00D+00 NAtFMM=   60 NAOKFM=F Big=F
 Integral buffers will be    131072 words long.
 Raffenetti 2 integral format.
 Two-electron integral symmetry is turned on.
 Leave Link  301 at Mon Nov 13 12:22:04 2023, MaxMem=  1879048192 cpu:               0.5 elap:               0.0
 (Enter /home/sekinelabo/g16/l302.exe)
 NPDir=0 NMtPBC=     1 NCelOv=     1 NCel=       1 NClECP=     1 NCelD=      1
         NCelK=      1 NCelE2=     1 NClLst=     1 CellRange=     0.0.
 One-electron integrals computed using PRISM.
 One-electron integral symmetry used in STVInt
 NBasis=   210 RedAO= T EigKep=  1.36D-06  NBF=   210
 NBsUse=   210 1.00D-06 EigRej= -1.00D+00 NBFU=   210
 Precomputing XC quadrature grid using
 IXCGrd= 4 IRadAn=           5 IRanWt=          -1 IRanGd=           0 AccXCQ= 0.00D+00.
 Generated NRdTot=       0 NPtTot=           0 NUsed=           0 NTot=          32
 NSgBfM=   211   211   211   211   211 MxSgAt=     7 MxSgA2=     7.
 Leave Link  302 at Mon Nov 13 12:22:05 2023, MaxMem=  1879048192 cpu:               2.2 elap:               0.1
 (Enter /home/sekinelabo/g16/l303.exe)
 DipDrv:  MaxL=1.
 Leave Link  303 at Mon Nov 13 12:22:05 2023, MaxMem=  1879048192 cpu:               0.6 elap:               0.0
 (Enter /home/sekinelabo/g16/l401.exe)
 ExpMin= 7.60D-03 ExpMax= 3.62D+04 ExpMxC= 1.21D+03 IAcc=3 IRadAn=         5 AccDes= 0.00D+00
 Harris functional with IExCor=  402 and IRadAn=       5 diagonalized for initial guess.
 HarFok:  IExCor=  402 AccDes= 0.00D+00 IRadAn=         5 IDoV= 1 UseB2=F ITyADJ=14
 ICtDFT=  3500011 ScaDFX=  1.000000  1.000000  1.000000  1.000000
 FoFCou: FMM=F IPFlag=           0 FMFlag=      100000 FMFlg1=           0
         NFxFlg=           0 DoJE=T BraDBF=F KetDBF=T FulRan=T
         wScrn=  0.000000 ICntrl=       500 IOpCl=  0 I1Cent=   200000004 NGrid=           0
         NMat0=    1 NMatS0=      1 NMatT0=    0 NMatD0=    1 NMtDS0=    0 NMtDT0=    0
 Petite list used in FoFCou.
 Harris En= -1135.85751780887    
 JPrj=0 DoOrth=F DoCkMO=F.
 Initial guess <Sx>= 0.0000 <Sy>= 0.0000 <Sz>= 0.5000 <S**2>= 0.7500 S= 0.5000
 Leave Link  401 at Mon Nov 13 12:22:05 2023, MaxMem=  1879048192 cpu:               4.7 elap:               0.3
 (Enter /home/sekinelabo/g16/l502.exe)
 Keep R1 and R2 ints in memory in canonical form, NReq=507620388.
 FoFCou: FMM=F IPFlag=           0 FMFlag=           0 FMFlg1=           0
         NFxFlg=           0 DoJE=F BraDBF=F KetDBF=F FulRan=T
         wScrn=  0.000000 ICntrl=       600 IOpCl=  0 I1Cent=           0 NGrid=           0
         NMat0=    1 NMatS0=  22155 NMatT0=    0 NMatD0=    1 NMtDS0=    0 NMtDT0=    0
 Symmetry not used in FoFCou.
 Two-electron integral symmetry not used.
 UHF open shell SCF:
 Using DIIS extrapolation, IDIIS=  1040.
 NGot=  1879048192 LenX=  1388082348 LenY=  1388034818
 Requested convergence on RMS density matrix=1.00D-08 within 128 cycles.
 Requested convergence on MAX density matrix=1.00D-06.
 Requested convergence on             energy=1.00D-06.
 No special actions if energy rises.

 Cycle   1  Pass 1  IDiag  1:
 E= -1136.03529043906    
 DIIS: error= 1.60D-02 at cycle   1 NSaved=   1.
 NSaved= 1 IEnMin= 1 EnMin= -1136.03529043906     IErMin= 1 ErrMin= 1.60D-02
 ErrMax= 1.60D-02  0.00D+00 EMaxC= 1.00D-01 BMatC= 2.13D-01 BMatP= 2.13D-01
 IDIUse=3 WtCom= 8.40D-01 WtEn= 1.60D-01
 Coeff-Com:  0.100D+01
 Coeff-En:   0.100D+01
 Coeff:      0.100D+01
 Gap=     0.060 Goal=   None    Shift=    0.000
 Gap=     0.029 Goal=   None    Shift=    0.000
 GapD=    0.029 DampG=0.250 DampE=0.500 DampFc=0.2500 IDamp=-1.
 Damping current iteration by 2.50D-01
 RMSDP=1.06D-01 MaxDP=1.06D+01              OVMax= 2.69D-01

 Cycle   2  Pass 1  IDiag  1:
 E= -1136.05233797028     Delta-E=       -0.017047531227 Rises=F Damp=T
 DIIS: error= 7.80D-03 at cycle   2 NSaved=   2.
 NSaved= 2 IEnMin= 2 EnMin= -1136.05233797028     IErMin= 2 ErrMin= 7.80D-03
 ErrMax= 7.80D-03  0.00D+00 EMaxC= 1.00D-01 BMatC= 7.99D-02 BMatP= 2.13D-01
 IDIUse=3 WtCom= 9.22D-01 WtEn= 7.80D-02
 Coeff-Com: -0.125D+01 0.225D+01
 Coeff-En:   0.000D+00 0.100D+01
 Coeff:     -0.115D+01 0.215D+01
 Gap=     0.067 Goal=   None    Shift=    0.000
 Gap=     0.034 Goal=   None    Shift=    0.000
 RMSDP=4.14D-02 MaxDP=4.39D+00 DE=-1.70D-02 OVMax= 1.84D-01

 Cycle   3  Pass 1  IDiag  1:
 E= -1136.08051949283     Delta-E=       -0.028181522551 Rises=F Damp=F
 DIIS: error= 4.25D-03 at cycle   3 NSaved=   3.
 NSaved= 3 IEnMin= 3 EnMin= -1136.08051949283     IErMin= 3 ErrMin= 4.25D-03
 ErrMax= 4.25D-03  0.00D+00 EMaxC= 1.00D-01 BMatC= 4.74D-03 BMatP= 7.99D-02
 IDIUse=3 WtCom= 9.58D-01 WtEn= 4.25D-02
 Coeff-Com: -0.291D+00 0.526D+00 0.765D+00
 Coeff-En:   0.000D+00 0.000D+00 0.100D+01
 Coeff:     -0.279D+00 0.503D+00 0.775D+00
 Gap=     0.060 Goal=   None    Shift=    0.000
 Gap=     0.033 Goal=   None    Shift=    0.000
 RMSDP=2.01D-02 MaxDP=1.90D+00 DE=-2.82D-02 OVMax= 7.50D-02

 Cycle   4  Pass 1  IDiag  1:
 E= -1136.08131326022     Delta-E=       -0.000793767383 Rises=F Damp=F
 DIIS: error= 3.27D-03 at cycle   4 NSaved=   4.
 NSaved= 4 IEnMin= 4 EnMin= -1136.08131326022     IErMin= 4 ErrMin= 3.27D-03
 ErrMax= 3.27D-03  0.00D+00 EMaxC= 1.00D-01 BMatC= 3.15D-03 BMatP= 4.74D-03
 IDIUse=3 WtCom= 9.67D-01 WtEn= 3.27D-02
 Coeff-Com: -0.568D-02 0.961D-02 0.447D+00 0.549D+00
 Coeff-En:   0.000D+00 0.000D+00 0.426D+00 0.574D+00
 Coeff:     -0.550D-02 0.930D-02 0.447D+00 0.550D+00
 Gap=     0.063 Goal=   None    Shift=    0.000
 Gap=     0.034 Goal=   None    Shift=    0.000
 RMSDP=6.04D-03 MaxDP=5.83D-01 DE=-7.94D-04 OVMax= 4.55D-02

 Cycle   5  Pass 1  IDiag  1:
 E= -1136.08313978291     Delta-E=       -0.001826522691 Rises=F Damp=F
 DIIS: error= 8.79D-04 at cycle   5 NSaved=   5.
 NSaved= 5 IEnMin= 5 EnMin= -1136.08313978291     IErMin= 5 ErrMin= 8.79D-04
 ErrMax= 8.79D-04  0.00D+00 EMaxC= 1.00D-01 BMatC= 1.48D-04 BMatP= 3.15D-03
 IDIUse=3 WtCom= 9.91D-01 WtEn= 8.79D-03
 Coeff-Com: -0.170D-02 0.195D-02 0.279D+00 0.352D+00 0.369D+00
 Coeff-En:   0.000D+00 0.000D+00 0.000D+00 0.000D+00 0.100D+01
 Coeff:     -0.168D-02 0.193D-02 0.276D+00 0.349D+00 0.374D+00
 Gap=     0.063 Goal=   None    Shift=    0.000
 Gap=     0.034 Goal=   None    Shift=    0.000
 RMSDP=1.05D-03 MaxDP=9.16D-02 DE=-1.83D-03 OVMax= 1.31D-02

 Cycle   6  Pass 1  IDiag  1:
 E= -1136.08329297420     Delta-E=       -0.000153191292 Rises=F Damp=F
 DIIS: error= 1.40D-04 at cycle   6 NSaved=   6.
 NSaved= 6 IEnMin= 6 EnMin= -1136.08329297420     IErMin= 6 ErrMin= 1.40D-04
 ErrMax= 1.40D-04  0.00D+00 EMaxC= 1.00D-01 BMatC= 3.78D-06 BMatP= 1.48D-04
 IDIUse=3 WtCom= 9.99D-01 WtEn= 1.40D-03
 Coeff-Com: -0.135D-02 0.135D-02-0.385D-01-0.520D-01 0.886D-01 0.100D+01
 Coeff-En:   0.000D+00 0.000D+00 0.000D+00 0.000D+00 0.000D+00 0.100D+01
 Coeff:     -0.134D-02 0.135D-02-0.384D-01-0.519D-01 0.885D-01 0.100D+01
 Gap=     0.063 Goal=   None    Shift=    0.000
 Gap=     0.034 Goal=   None    Shift=    0.000
 RMSDP=5.32D-04 MaxDP=4.93D-02 DE=-1.53D-04 OVMax= 3.48D-03

 Cycle   7  Pass 1  IDiag  1:
 E= -1136.08329905696     Delta-E=       -0.000006082762 Rises=F Damp=F
 DIIS: error= 4.62D-05 at cycle   7 NSaved=   7.
 NSaved= 7 IEnMin= 7 EnMin= -1136.08329905696     IErMin= 7 ErrMin= 4.62D-05
 ErrMax= 4.62D-05  0.00D+00 EMaxC= 1.00D-01 BMatC= 6.05D-07 BMatP= 3.78D-06
 IDIUse=1 WtCom= 1.00D+00 WtEn= 0.00D+00
 Coeff-Com: -0.303D-03 0.201D-03-0.325D-01-0.416D-01 0.170D-01 0.427D+00
 Coeff-Com:  0.631D+00
 Coeff:     -0.303D-03 0.201D-03-0.325D-01-0.416D-01 0.170D-01 0.427D+00
 Coeff:      0.631D+00
 Gap=     0.063 Goal=   None    Shift=    0.000
 Gap=     0.034 Goal=   None    Shift=    0.000
 RMSDP=9.71D-05 MaxDP=6.09D-03 DE=-6.08D-06 OVMax= 1.95D-03

 Cycle   8  Pass 1  IDiag  1:
 E= -1136.08330000016     Delta-E=       -0.000000943197 Rises=F Damp=F
 DIIS: error= 3.07D-05 at cycle   8 NSaved=   8.
 NSaved= 8 IEnMin= 8 EnMin= -1136.08330000016     IErMin= 8 ErrMin= 3.07D-05
 ErrMax= 3.07D-05  0.00D+00 EMaxC= 1.00D-01 BMatC= 2.37D-07 BMatP= 6.05D-07
 IDIUse=1 WtCom= 1.00D+00 WtEn= 0.00D+00
 Coeff-Com:  0.594D-03-0.742D-03-0.427D-02-0.319D-02-0.292D-01-0.174D+00
 Coeff-Com:  0.380D+00 0.831D+00
 Coeff:      0.594D-03-0.742D-03-0.427D-02-0.319D-02-0.292D-01-0.174D+00
 Coeff:      0.380D+00 0.831D+00
 Gap=     0.063 Goal=   None    Shift=    0.000
 Gap=     0.034 Goal=   None    Shift=    0.000
 RMSDP=1.03D-04 MaxDP=1.32D-02 DE=-9.43D-07 OVMax= 2.55D-03

 Cycle   9  Pass 1  IDiag  1:
 E= -1136.08330078375     Delta-E=       -0.000000783587 Rises=F Damp=F
 DIIS: error= 1.75D-05 at cycle   9 NSaved=   9.
 NSaved= 9 IEnMin= 9 EnMin= -1136.08330078375     IErMin= 9 ErrMin= 1.75D-05
 ErrMax= 1.75D-05  0.00D+00 EMaxC= 1.00D-01 BMatC= 3.49D-08 BMatP= 2.37D-07
 IDIUse=1 WtCom= 1.00D+00 WtEn= 0.00D+00
 Coeff-Com:  0.174D-03-0.206D-03 0.294D-02 0.411D-02-0.510D-02-0.630D-01
 Coeff-Com: -0.431D-01 0.760D-01 0.103D+01
 Coeff:      0.174D-03-0.206D-03 0.294D-02 0.411D-02-0.510D-02-0.630D-01
 Coeff:     -0.431D-01 0.760D-01 0.103D+01
 Gap=     0.063 Goal=   None    Shift=    0.000
 Gap=     0.034 Goal=   None    Shift=    0.000
 RMSDP=4.81D-05 MaxDP=4.35D-03 DE=-7.84D-07 OVMax= 2.16D-03

 Cycle  10  Pass 1  IDiag  1:
 E= -1136.08330113432     Delta-E=       -0.000000350572 Rises=F Damp=F
 DIIS: error= 1.40D-05 at cycle  10 NSaved=  10.
 NSaved=10 IEnMin=10 EnMin= -1136.08330113432     IErMin=10 ErrMin= 1.40D-05
 ErrMax= 1.40D-05  0.00D+00 EMaxC= 1.00D-01 BMatC= 2.28D-08 BMatP= 3.49D-08
 IDIUse=1 WtCom= 1.00D+00 WtEn= 0.00D+00
 Coeff-Com: -0.149D-03 0.202D-03 0.233D-02 0.203D-02 0.774D-02 0.260D-01
 Coeff-Com: -0.118D+00-0.228D+00 0.190D+00 0.112D+01
 Coeff:     -0.149D-03 0.202D-03 0.233D-02 0.203D-02 0.774D-02 0.260D-01
 Coeff:     -0.118D+00-0.228D+00 0.190D+00 0.112D+01
 Gap=     0.063 Goal=   None    Shift=    0.000
 Gap=     0.034 Goal=   None    Shift=    0.000
 RMSDP=5.26D-05 MaxDP=4.78D-03 DE=-3.51D-07 OVMax= 2.40D-03

 Cycle  11  Pass 1  IDiag  1:
 E= -1136.08330143445     Delta-E=       -0.000000300128 Rises=F Damp=F
 DIIS: error= 1.11D-05 at cycle  11 NSaved=  11.
 NSaved=11 IEnMin=11 EnMin= -1136.08330143445     IErMin=11 ErrMin= 1.11D-05
 ErrMax= 1.11D-05  0.00D+00 EMaxC= 1.00D-01 BMatC= 1.57D-08 BMatP= 2.28D-08
 IDIUse=1 WtCom= 1.00D+00 WtEn= 0.00D+00
 Coeff-Com: -0.205D-03 0.261D-03-0.960D-04-0.985D-03 0.793D-02 0.523D-01
 Coeff-Com: -0.502D-01-0.189D+00-0.546D+00 0.653D+00 0.107D+01
 Coeff:     -0.205D-03 0.261D-03-0.960D-04-0.985D-03 0.793D-02 0.523D-01
 Coeff:     -0.502D-01-0.189D+00-0.546D+00 0.653D+00 0.107D+01
 Gap=     0.063 Goal=   None    Shift=    0.000
 Gap=     0.034 Goal=   None    Shift=    0.000
 RMSDP=5.99D-05 MaxDP=5.49D-03 DE=-3.00D-07 OVMax= 2.94D-03

 Cycle  12  Pass 1  IDiag  1:
 E= -1136.08330170129     Delta-E=       -0.000000266844 Rises=F Damp=F
 DIIS: error= 7.55D-06 at cycle  12 NSaved=  12.
 NSaved=12 IEnMin=12 EnMin= -1136.08330170129     IErMin=12 ErrMin= 7.55D-06
 ErrMax= 7.55D-06  0.00D+00 EMaxC= 1.00D-01 BMatC= 1.09D-08 BMatP= 1.57D-08
 IDIUse=1 WtCom= 1.00D+00 WtEn= 0.00D+00
 Coeff-Com: -0.465D-04 0.466D-04-0.183D-02-0.230D-02 0.587D-03 0.255D-01
 Coeff-Com:  0.431D-01 0.142D-01-0.586D+00-0.277D+00 0.894D+00 0.890D+00
 Coeff:     -0.465D-04 0.466D-04-0.183D-02-0.230D-02 0.587D-03 0.255D-01
 Coeff:      0.431D-01 0.142D-01-0.586D+00-0.277D+00 0.894D+00 0.890D+00
 Gap=     0.063 Goal=   None    Shift=    0.000
 Gap=     0.034 Goal=   None    Shift=    0.000
 RMSDP=5.89D-05 MaxDP=7.34D-03 DE=-2.67D-07 OVMax= 2.83D-03

 Cycle  13  Pass 1  IDiag  1:
 E= -1136.08330186802     Delta-E=       -0.000000166729 Rises=F Damp=F
 DIIS: error= 4.23D-06 at cycle  13 NSaved=  13.
 NSaved=13 IEnMin=13 EnMin= -1136.08330186802     IErMin=13 ErrMin= 4.23D-06
 ErrMax= 4.23D-06  0.00D+00 EMaxC= 1.00D-01 BMatC= 2.74D-09 BMatP= 1.09D-08
 IDIUse=1 WtCom= 1.00D+00 WtEn= 0.00D+00
 Coeff-Com:  0.158D-03-0.204D-03-0.335D-03 0.205D-03-0.516D-02-0.276D-01
 Coeff-Com:  0.426D-01 0.132D+00 0.255D+00-0.471D+00-0.572D+00 0.914D-01
 Coeff-Com:  0.156D+01
 Coeff:      0.158D-03-0.204D-03-0.335D-03 0.205D-03-0.516D-02-0.276D-01
 Coeff:      0.426D-01 0.132D+00 0.255D+00-0.471D+00-0.572D+00 0.914D-01
 Coeff:      0.156D+01
 Gap=     0.063 Goal=   None    Shift=    0.000
 Gap=     0.034 Goal=   None    Shift=    0.000
 RMSDP=5.36D-05 MaxDP=7.33D-03 DE=-1.67D-07 OVMax= 2.67D-03

 Cycle  14  Pass 1  IDiag  1:
 E= -1136.08330194274     Delta-E=       -0.000000074724 Rises=F Damp=F
 DIIS: error= 1.34D-06 at cycle  14 NSaved=  14.
 NSaved=14 IEnMin=14 EnMin= -1136.08330194274     IErMin=14 ErrMin= 1.34D-06
 ErrMax= 1.34D-06  0.00D+00 EMaxC= 1.00D-01 BMatC= 4.06D-10 BMatP= 2.74D-09
 IDIUse=1 WtCom= 1.00D+00 WtEn= 0.00D+00
 Coeff-Com: -0.372D-04 0.526D-04 0.289D-03 0.250D-03 0.116D-02 0.176D-02
 Coeff-Com: -0.191D-01-0.347D-01 0.828D-01 0.160D+00-0.734D-01-0.215D+00
 Coeff-Com: -0.350D+00 0.145D+01
 Coeff:     -0.372D-04 0.526D-04 0.289D-03 0.250D-03 0.116D-02 0.176D-02
 Coeff:     -0.191D-01-0.347D-01 0.828D-01 0.160D+00-0.734D-01-0.215D+00
 Coeff:     -0.350D+00 0.145D+01
 Gap=     0.063 Goal=   None    Shift=    0.000
 Gap=     0.034 Goal=   None    Shift=    0.000
 RMSDP=2.43D-05 MaxDP=3.00D-03 DE=-7.47D-08 OVMax= 7.49D-04

 Cycle  15  Pass 1  IDiag  1:
 E= -1136.08330195019     Delta-E=       -0.000000007446 Rises=F Damp=F
 DIIS: error= 6.40D-07 at cycle  15 NSaved=  15.
 NSaved=15 IEnMin=15 EnMin= -1136.08330195019     IErMin=15 ErrMin= 6.40D-07
 ErrMax= 6.40D-07  0.00D+00 EMaxC= 1.00D-01 BMatC= 6.73D-11 BMatP= 4.06D-10
 IDIUse=1 WtCom= 1.00D+00 WtEn= 0.00D+00
 Coeff-Com: -0.256D-04 0.331D-04 0.906D-04-0.393D-04 0.883D-03 0.498D-02
 Coeff-Com: -0.654D-02-0.224D-01-0.603D-01 0.839D-01 0.117D+00-0.238D-02
 Coeff-Com: -0.265D+00-0.121D+00 0.127D+01
 Coeff:     -0.256D-04 0.331D-04 0.906D-04-0.393D-04 0.883D-03 0.498D-02
 Coeff:     -0.654D-02-0.224D-01-0.603D-01 0.839D-01 0.117D+00-0.238D-02
 Coeff:     -0.265D+00-0.121D+00 0.127D+01
 Gap=     0.063 Goal=   None    Shift=    0.000
 Gap=     0.034 Goal=   None    Shift=    0.000
 RMSDP=1.15D-05 MaxDP=9.57D-04 DE=-7.45D-09 OVMax= 1.60D-04

 Cycle  16  Pass 1  IDiag  1:
 E= -1136.08330195087     Delta-E=       -0.000000000684 Rises=F Damp=F
 DIIS: error= 2.19D-07 at cycle  16 NSaved=  16.
 NSaved=16 IEnMin=16 EnMin= -1136.08330195087     IErMin=16 ErrMin= 2.19D-07
 ErrMax= 2.19D-07  0.00D+00 EMaxC= 1.00D-01 BMatC= 1.29D-11 BMatP= 6.73D-11
 IDIUse=1 WtCom= 1.00D+00 WtEn= 0.00D+00
 Coeff-Com:  0.534D-06-0.166D-05-0.267D-04-0.496D-04 0.724D-04 0.865D-03
 Coeff-Com:  0.211D-02 0.981D-03-0.307D-01-0.159D-01 0.462D-01 0.444D-01
 Coeff-Com: -0.138D-02-0.294D+00 0.301D+00 0.946D+00
 Coeff:      0.534D-06-0.166D-05-0.267D-04-0.496D-04 0.724D-04 0.865D-03
 Coeff:      0.211D-02 0.981D-03-0.307D-01-0.159D-01 0.462D-01 0.444D-01
 Coeff:     -0.138D-02-0.294D+00 0.301D+00 0.946D+00
 Gap=     0.063 Goal=   None    Shift=    0.000
 Gap=     0.034 Goal=   None    Shift=    0.000
 RMSDP=3.69D-06 MaxDP=3.38D-04 DE=-6.84D-10 OVMax= 5.17D-05

 Cycle  17  Pass 1  IDiag  1:
 E= -1136.08330195094     Delta-E=       -0.000000000063 Rises=F Damp=F
 DIIS: error= 5.89D-08 at cycle  17 NSaved=  17.
 NSaved=17 IEnMin=17 EnMin= -1136.08330195094     IErMin=17 ErrMin= 5.89D-08
 ErrMax= 5.89D-08  0.00D+00 EMaxC= 1.00D-01 BMatC= 1.39D-12 BMatP= 1.29D-11
 IDIUse=1 WtCom= 1.00D+00 WtEn= 0.00D+00
 Coeff-Com:  0.237D-05-0.320D-05-0.231D-04-0.615D-05-0.945D-04-0.286D-03
 Coeff-Com:  0.742D-03 0.234D-02 0.499D-02-0.125D-01-0.106D-01 0.710D-02
 Coeff-Com:  0.307D-01-0.114D-01-0.147D+00 0.151D+00 0.985D+00
 Coeff:      0.237D-05-0.320D-05-0.231D-04-0.615D-05-0.945D-04-0.286D-03
 Coeff:      0.742D-03 0.234D-02 0.499D-02-0.125D-01-0.106D-01 0.710D-02
 Coeff:      0.307D-01-0.114D-01-0.147D+00 0.151D+00 0.985D+00
 Gap=     0.063 Goal=   None    Shift=    0.000
 Gap=     0.034 Goal=   None    Shift=    0.000
 RMSDP=8.64D-07 MaxDP=9.82D-05 DE=-6.30D-11 OVMax= 1.10D-05

 Cycle  18  Pass 1  IDiag  1:
 E= -1136.08330195095     Delta-E=       -0.000000000012 Rises=F Damp=F
 DIIS: error= 1.39D-08 at cycle  18 NSaved=  18.
 NSaved=18 IEnMin=18 EnMin= -1136.08330195095     IErMin=18 ErrMin= 1.39D-08
 ErrMax= 1.39D-08  0.00D+00 EMaxC= 1.00D-01 BMatC= 9.54D-14 BMatP= 1.39D-12
 IDIUse=1 WtCom= 1.00D+00 WtEn= 0.00D+00
 Coeff-Com:  0.384D-06-0.404D-06 0.189D-05 0.509D-05-0.105D-04-0.145D-03
 Coeff-Com: -0.132D-03 0.116D-03 0.299D-02 0.221D-02-0.609D-02-0.458D-02
 Coeff-Com:  0.327D-02 0.254D-01-0.286D-01-0.897D-01 0.438D-01 0.105D+01
 Coeff:      0.384D-06-0.404D-06 0.189D-05 0.509D-05-0.105D-04-0.145D-03
 Coeff:     -0.132D-03 0.116D-03 0.299D-02 0.221D-02-0.609D-02-0.458D-02
 Coeff:      0.327D-02 0.254D-01-0.286D-01-0.897D-01 0.438D-01 0.105D+01
 Gap=     0.063 Goal=   None    Shift=    0.000
 Gap=     0.034 Goal=   None    Shift=    0.000
 RMSDP=1.37D-07 MaxDP=1.39D-05 DE=-1.16D-11 OVMax= 2.27D-06

 Cycle  19  Pass 1  IDiag  1:
 E= -1136.08330195094     Delta-E=        0.000000000011 Rises=F Damp=F
 DIIS: error= 4.46D-09 at cycle  19 NSaved=  19.
 NSaved=19 IEnMin=18 EnMin= -1136.08330195095     IErMin=19 ErrMin= 4.46D-09
 ErrMax= 4.46D-09  0.00D+00 EMaxC= 1.00D-01 BMatC= 8.15D-15 BMatP= 9.54D-14
 IDIUse=1 WtCom= 1.00D+00 WtEn= 0.00D+00
 Coeff-Com: -0.370D-06 0.482D-06 0.224D-05 0.341D-06 0.911D-05 0.426D-04
 Coeff-Com: -0.489D-04-0.235D-03-0.927D-03 0.102D-02 0.171D-02-0.116D-03
 Coeff-Com: -0.378D-02-0.948D-03 0.169D-01-0.785D-02-0.107D+00-0.547D-01
 Coeff-Com:  0.116D+01
 Coeff:     -0.370D-06 0.482D-06 0.224D-05 0.341D-06 0.911D-05 0.426D-04
 Coeff:     -0.489D-04-0.235D-03-0.927D-03 0.102D-02 0.171D-02-0.116D-03
 Coeff:     -0.378D-02-0.948D-03 0.169D-01-0.785D-02-0.107D+00-0.547D-01
 Coeff:      0.116D+01
 Gap=     0.063 Goal=   None    Shift=    0.000
 Gap=     0.034 Goal=   None    Shift=    0.000
 RMSDP=6.34D-08 MaxDP=8.06D-06 DE= 1.07D-11 OVMax= 1.33D-06

 Cycle  20  Pass 1  IDiag  1:
 E= -1136.08330195094     Delta-E=       -0.000000000008 Rises=F Damp=F
 DIIS: error= 1.59D-09 at cycle  20 NSaved=  20.
 NSaved=20 IEnMin=18 EnMin= -1136.08330195095     IErMin=20 ErrMin= 1.59D-09
 ErrMax= 1.59D-09  0.00D+00 EMaxC= 1.00D-01 BMatC= 1.11D-15 BMatP= 8.15D-15
 IDIUse=1 WtCom= 1.00D+00 WtEn= 0.00D+00
 Large coefficients: NSaved= 20 BigCof=    0.00 CofMax=   10.00 Det=-2.79D-15
 Inversion failed.  Reducing to 19 matrices.
 Large coefficients: NSaved= 19 BigCof=    0.00 CofMax=   10.00 Det=-3.30D-15
 Inversion failed.  Reducing to 18 matrices.
 Large coefficients: NSaved= 18 BigCof=    0.00 CofMax=   10.00 Det=-3.43D-15
 Inversion failed.  Reducing to 17 matrices.
 Large coefficients: NSaved= 17 BigCof=    0.00 CofMax=   10.00 Det=-3.56D-15
 Inversion failed.  Reducing to 16 matrices.
 Large coefficients: NSaved= 16 BigCof=    0.00 CofMax=   10.00 Det=-4.05D-15
 Inversion failed.  Reducing to 15 matrices.
 Coeff-Com:  0.754D-05 0.164D-04 0.157D-04-0.117D-03-0.380D-03 0.375D-03
 Coeff-Com:  0.505D-03-0.292D-04-0.173D-02-0.517D-04 0.911D-02 0.535D-02
 Coeff-Com: -0.103D+00 0.446D-01 0.105D+01
 Coeff:      0.754D-05 0.164D-04 0.157D-04-0.117D-03-0.380D-03 0.375D-03
 Coeff:      0.505D-03-0.292D-04-0.173D-02-0.517D-04 0.911D-02 0.535D-02
 Coeff:     -0.103D+00 0.446D-01 0.105D+01
 Gap=     0.063 Goal=   None    Shift=    0.000
 Gap=     0.034 Goal=   None    Shift=    0.000
 RMSDP=2.11D-08 MaxDP=2.68D-06 DE=-8.19D-12 OVMax= 3.54D-07

 Cycle  21  Pass 1  IDiag  1:
 E= -1136.08330195095     Delta-E=       -0.000000000001 Rises=F Damp=F
 DIIS: error= 1.28D-09 at cycle  21 NSaved=  16.
 NSaved=16 IEnMin=13 EnMin= -1136.08330195095     IErMin=16 ErrMin= 1.28D-09
 ErrMax= 1.28D-09  0.00D+00 EMaxC= 1.00D-01 BMatC= 4.77D-16 BMatP= 1.11D-15
 IDIUse=1 WtCom= 1.00D+00 WtEn= 0.00D+00
 Large coefficients: NSaved= 16 BigCof=    0.00 CofMax=   10.00 Det=-1.24D-15
 Inversion failed.  Reducing to 15 matrices.
 Coeff-Com:  0.700D-05 0.949D-05-0.421D-04-0.160D-03 0.157D-03 0.216D-03
 Coeff-Com:  0.315D-04-0.958D-03 0.147D-03 0.449D-02 0.552D-02-0.526D-01
 Coeff-Com: -0.775D-01 0.466D+00 0.654D+00
 Coeff:      0.700D-05 0.949D-05-0.421D-04-0.160D-03 0.157D-03 0.216D-03
 Coeff:      0.315D-04-0.958D-03 0.147D-03 0.449D-02 0.552D-02-0.526D-01
 Coeff:     -0.775D-01 0.466D+00 0.654D+00
 Gap=     0.063 Goal=   None    Shift=    0.000
 Gap=     0.034 Goal=   None    Shift=    0.000
 RMSDP=7.91D-09 MaxDP=9.81D-07 DE=-9.09D-13 OVMax= 5.28D-08

 SCF Done:  E(UB3LYP) =  -1136.08330195     A.U. after   21 cycles
            NFock= 21  Conv=0.79D-08     -V/T= 2.0023
 <Sx>= 0.0000 <Sy>= 0.0000 <Sz>= 0.5000 <S**2>= 0.7606 S= 0.5053
 <L.S>= 0.000000000000E+00
 KE= 1.133456047182D+03 PE=-3.541220804933D+03 EE= 8.658423076220D+02
 Annihilation of the first spin contaminant:
 S**2 before annihilation     0.7606,   after     0.7501
 Leave Link  502 at Mon Nov 13 12:22:25 2023, MaxMem=  1879048192 cpu:             236.1 elap:              20.5
 (Enter /home/sekinelabo/g16/l601.exe)
 Copying SCF densities to generalized density rwf, IOpCl= 1 IROHF=0.

 **********************************************************************

            Population analysis using the SCF Density.

 **********************************************************************

 Orbital symmetries:
 Alpha Orbitals:
       Occupied  (A) (A) (A) (A) (A) (A) (A) (A) (A) (A) (A) (A)
                 (A) (A) (A) (A) (A) (A) (A) (A) (A) (A) (A) (A)
                 (A) (A) (A) (A) (A) (A) (A) (A) (A) (A) (A) (A)
                 (A) (A) (A)
       Virtual   (A) (A) (A) (A) (A) (A) (A) (A) (A) (A) (A) (A)
                 (A) (A) (A) (A) (A) (A) (A) (A) (A) (A) (A) (A)
                 (A) (A) (A) (A) (A) (A) (A) (A) (A) (A) (A) (A)
                 (A) (A) (A) (A) (A) (A) (A) (A) (A) (A) (A) (A)
                 (A) (A) (A) (A) (A) (A) (A) (A) (A) (A) (A) (A)
                 (A) (A) (A) (A) (A) (A) (A) (A) (A) (A) (A) (A)
                 (A) (A) (A) (A) (A) (A) (A) (A) (A) (A) (A) (A)
                 (A) (A) (A) (A) (A) (A) (A) (A) (A) (A) (A) (A)
                 (A) (A) (A) (A) (A) (A) (A) (A) (A) (A) (A) (A)
                 (A) (A) (A) (A) (A) (A) (A) (A) (A) (A) (A) (A)
                 (A) (A) (A) (A) (A) (A) (A) (A) (A) (A) (A) (A)
                 (A) (A) (A) (A) (A) (A) (A) (A) (A) (A) (A) (A)
                 (A) (A) (A) (A) (A) (A) (A) (A) (A) (A) (A) (A)
                 (A) (A) (A) (A) (A) (A) (A) (A) (A) (A) (A) (A)
                 (A) (A) (A)
 Beta  Orbitals:
       Occupied  (A) (A) (A) (A) (A) (A) (A) (A) (A) (A) (A) (A)
                 (A) (A) (A) (A) (A) (A) (A) (A) (A) (A) (A) (A)
                 (A) (A) (A) (A) (A) (A) (A) (A) (A) (A) (A) (A)
                 (A) (A)
       Virtual   (A) (A) (A) (A) (A) (A) (A) (A) (A) (A) (A) (A)
                 (A) (A) (A) (A) (A) (A) (A) (A) (A) (A) (A) (A)
                 (A) (A) (A) (A) (A) (A) (A) (A) (A) (A) (A) (A)
                 (A) (A) (A) (A) (A) (A) (A) (A) (A) (A) (A) (A)
                 (A) (A) (A) (A) (A) (A) (A) (A) (A) (A) (A) (A)
                 (A) (A) (A) (A) (A) (A) (A) (A) (A) (A) (A) (A)
                 (A) (A) (A) (A) (A) (A) (A) (A) (A) (A) (A) (A)
                 (A) (A) (A) (A) (A) (A) (A) (A) (A) (A) (A) (A)
                 (A) (A) (A) (A) (A) (A) (A) (A) (A) (A) (A) (A)
                 (A) (A) (A) (A) (A) (A) (A) (A) (A) (A) (A) (A)
                 (A) (A) (A) (A) (A) (A) (A) (A) (A) (A) (A) (A)
                 (A) (A) (A) (A) (A) (A) (A) (A) (A) (A) (A) (A)
                 (A) (A) (A) (A) (A) (A) (A) (A) (A) (A) (A) (A)
                 (A) (A) (A) (A) (A) (A) (A) (A) (A) (A) (A) (A)
                 (A) (A) (A) (A)
 The electronic state is 2-A.
 Alpha  occ. eigenvalues --  -38.44580 -38.44400 -38.44353 -38.44003 -38.43965
 Alpha  occ. eigenvalues --  -38.42683 -38.42473  -2.20579  -2.20522  -2.20506
 Alpha  occ. eigenvalues --   -2.20309  -2.20182  -2.18778  -2.18525  -1.14554
 Alpha  occ. eigenvalues --   -1.14534  -1.14437  -1.14316  -1.14216  -1.14140
 Alpha  occ. eigenvalues --   -1.14080  -1.14063  -1.14031  -1.13971  -1.13915
 Alpha  occ. eigenvalues --   -1.13807  -1.13776  -1.13740  -1.13725  -1.12500
 Alpha  occ. eigenvalues --   -1.12431  -1.12337  -1.12253  -1.12184  -1.12114
 Alpha  occ. eigenvalues --   -0.21271  -0.13806  -0.12781  -0.12069
 Alpha virt. eigenvalues --   -0.05776  -0.04070  -0.03736  -0.03420  -0.03091
 Alpha virt. eigenvalues --   -0.02920  -0.01456  -0.00417  -0.00300   0.00300
 Alpha virt. eigenvalues --    0.00625   0.00773   0.01002   0.01032   0.01065
 Alpha virt. eigenvalues --    0.01198   0.01340   0.01385   0.01473   0.01549
 Alpha virt. eigenvalues --    0.01672   0.01711   0.01742   0.01848   0.02019
 Alpha virt. eigenvalues --    0.02508   0.02617   0.02888   0.02901   0.02952
 Alpha virt. eigenvalues --    0.02998   0.03007   0.03085   0.03137   0.03292
 Alpha virt. eigenvalues --    0.03382   0.03697   0.03709   0.03883   0.04021
 Alpha virt. eigenvalues --    0.04091   0.04727   0.04911   0.05149   0.05390
 Alpha virt. eigenvalues --    0.05584   0.05749   0.06009   0.06153   0.06321
 Alpha virt. eigenvalues --    0.06573   0.06750   0.06961   0.07206   0.07339
 Alpha virt. eigenvalues --    0.07616   0.08747   0.09000   0.09518   0.09888
 Alpha virt. eigenvalues --    0.10004   0.10258   0.10345   0.11555   0.13080
 Alpha virt. eigenvalues --    0.13470   0.13941   0.14126   0.14245   0.14502
 Alpha virt. eigenvalues --    0.14510   0.14856   0.15204   0.15811   0.16250
 Alpha virt. eigenvalues --    0.16697   0.16906   0.18033   0.18276   0.19588
 Alpha virt. eigenvalues --    0.22259   0.24463   0.24912   0.26968   0.29262
 Alpha virt. eigenvalues --    0.31090   0.32135   0.32905   0.34090   0.35247
 Alpha virt. eigenvalues --    0.35562   0.36586   0.36871   0.37274   0.38422
 Alpha virt. eigenvalues --    0.39844   0.40973   0.41559   0.42870   0.43680
 Alpha virt. eigenvalues --    0.44751   0.45131   0.45264   0.46358   0.46518
 Alpha virt. eigenvalues --    0.47319   0.48137   0.48480   0.48705   0.49078
 Alpha virt. eigenvalues --    0.49995   0.50316   0.51141   0.51622   0.52352
 Alpha virt. eigenvalues --    0.53713   0.54009   0.54452   0.55214   0.56399
 Alpha virt. eigenvalues --    0.57550   0.58539   0.60433   0.65233   0.66198
 Alpha virt. eigenvalues --    0.68059   0.68963   0.71808   0.75132   0.76223
 Alpha virt. eigenvalues --    0.77462   0.79111   0.79831   0.82646   0.84484
 Alpha virt. eigenvalues --    0.88057   2.13503   2.20841   2.26139   2.27863
 Alpha virt. eigenvalues --    2.30184   2.34553   2.39125   4.41207   4.41450
 Alpha virt. eigenvalues --    4.41579   4.42778   4.43566   4.44443   4.45710
 Alpha virt. eigenvalues --    4.47955   4.49816   4.52959   4.53543   4.61654
 Alpha virt. eigenvalues --    4.65655   4.69720   4.71842   4.73577   4.74223
 Alpha virt. eigenvalues --    4.79174   4.81210   4.84665   4.89237  96.35417
 Alpha virt. eigenvalues --   96.45077  96.53831  96.56401  96.59448  96.64853
 Alpha virt. eigenvalues --   96.71065
  Beta  occ. eigenvalues --  -38.44575 -38.44352 -38.44293 -38.43934 -38.43897
  Beta  occ. eigenvalues --  -38.42668 -38.42461  -2.20499  -2.20486  -2.20425
  Beta  occ. eigenvalues --   -2.20191  -2.20063  -2.18758  -2.18509  -1.14494
  Beta  occ. eigenvalues --   -1.14441  -1.14346  -1.14282  -1.14185  -1.14078
  Beta  occ. eigenvalues --   -1.14067  -1.13994  -1.13966  -1.13901  -1.13839
  Beta  occ. eigenvalues --   -1.13729  -1.13693  -1.13650  -1.13629  -1.12493
  Beta  occ. eigenvalues --   -1.12371  -1.12324  -1.12248  -1.12125  -1.12110
  Beta  occ. eigenvalues --   -0.20433  -0.13653  -0.11740
  Beta virt. eigenvalues --   -0.08305  -0.05706  -0.03486  -0.03460  -0.03324
  Beta virt. eigenvalues --   -0.02171  -0.01981  -0.01378  -0.00291  -0.00114
  Beta virt. eigenvalues --    0.00332   0.00688   0.00936   0.00986   0.01032
  Beta virt. eigenvalues --    0.01118   0.01300   0.01357   0.01513   0.01574
  Beta virt. eigenvalues --    0.01603   0.01680   0.01745   0.01882   0.01990
  Beta virt. eigenvalues --    0.02047   0.02529   0.02733   0.02894   0.02937
  Beta virt. eigenvalues --    0.02959   0.03015   0.03038   0.03094   0.03217
  Beta virt. eigenvalues --    0.03315   0.03505   0.03841   0.03890   0.04065
  Beta virt. eigenvalues --    0.04115   0.04145   0.04932   0.05050   0.05170
  Beta virt. eigenvalues --    0.05467   0.05711   0.05969   0.06040   0.06386
  Beta virt. eigenvalues --    0.06421   0.06568   0.06807   0.07057   0.07346
  Beta virt. eigenvalues --    0.07508   0.07713   0.08750   0.09135   0.09667
  Beta virt. eigenvalues --    0.10046   0.10380   0.10524   0.10605   0.11935
  Beta virt. eigenvalues --    0.13231   0.13537   0.14016   0.14323   0.14531
  Beta virt. eigenvalues --    0.14658   0.14819   0.15111   0.15481   0.16219
  Beta virt. eigenvalues --    0.16533   0.16800   0.17049   0.18329   0.18432
  Beta virt. eigenvalues --    0.19957   0.22815   0.24650   0.25422   0.27301
  Beta virt. eigenvalues --    0.29941   0.31148   0.32422   0.33141   0.34429
  Beta virt. eigenvalues --    0.35490   0.36192   0.37013   0.37173   0.37621
  Beta virt. eigenvalues --    0.38686   0.40192   0.41233   0.41678   0.42966
  Beta virt. eigenvalues --    0.44045   0.44987   0.45284   0.45412   0.46612
  Beta virt. eigenvalues --    0.46836   0.47447   0.48262   0.48552   0.48914
  Beta virt. eigenvalues --    0.49152   0.50153   0.50510   0.51201   0.51713
  Beta virt. eigenvalues --    0.52673   0.53813   0.54371   0.54816   0.55415
  Beta virt. eigenvalues --    0.56733   0.57842   0.58904   0.60785   0.65344
  Beta virt. eigenvalues --    0.66293   0.68176   0.69121   0.72168   0.75293
  Beta virt. eigenvalues --    0.76445   0.77700   0.79321   0.80051   0.82950
  Beta virt. eigenvalues --    0.84630   0.88383   2.13554   2.20904   2.26255
  Beta virt. eigenvalues --    2.27975   2.30341   2.34808   2.39332   4.41278
  Beta virt. eigenvalues --    4.41566   4.41660   4.42884   4.43629   4.44486
  Beta virt. eigenvalues --    4.45713   4.48005   4.49880   4.52997   4.53648
  Beta virt. eigenvalues --    4.61757   4.65726   4.69779   4.71894   4.73625
  Beta virt. eigenvalues --    4.74276   4.79274   4.81282   4.84774   4.89293
  Beta virt. eigenvalues --   96.35443  96.45098  96.53852  96.56461  96.59519
  Beta virt. eigenvalues --   96.64931  96.71140
          Condensed to atoms (all electrons):
               1          2          3          4          5          6
     1  Na  13.607526  -1.951668  -0.106521   0.698113  -0.547343  -0.557114
     2  Na  -1.951668  15.345461  -2.175204   0.535110  -1.707658   1.957769
     3  Na  -0.106521  -2.175204  13.498716  -0.988438   1.767401  -2.402050
     4  Na   0.698113   0.535110  -0.988438  14.544750  -1.442680  -1.664815
     5  Na  -0.547343  -1.707658   1.767401  -1.442680  14.276065  -1.862748
     6  Na  -0.557114   1.957769  -2.402050  -1.664815  -1.862748  16.455211
     7  Na  -0.182658  -1.905411   1.679895  -1.041477   1.381284  -1.704155
               7
     1  Na  -0.182658
     2  Na  -1.905411
     3  Na   1.679895
     4  Na  -1.041477
     5  Na   1.381284
     6  Na  -1.704155
     7  Na  13.713011
          Atomic-Atomic Spin Densities.
               1          2          3          4          5          6
     1  Na   0.437058  -0.022302  -0.152594  -0.255759  -0.198615   0.530914
     2  Na  -0.022302   0.276247   0.161385   0.267067  -0.068437  -0.417086
     3  Na  -0.152594   0.161385  -0.209013   0.233823   0.023057  -0.049238
     4  Na  -0.255759   0.267067   0.233823   0.589483   0.120909  -0.715745
     5  Na  -0.198615  -0.068437   0.023057   0.120909   0.255449  -0.129493
     6  Na   0.530914  -0.417086  -0.049238  -0.715745  -0.129493   0.978274
     7  Na  -0.208586  -0.079320   0.061526   0.016261   0.258832  -0.181062
               7
     1  Na  -0.208586
     2  Na  -0.079320
     3  Na   0.061526
     4  Na   0.016261
     5  Na   0.258832
     6  Na  -0.181062
     7  Na   0.281425
 Mulliken charges and spin densities:
               1          2
     1  Na   0.039667   0.130117
     2  Na   0.901600   0.117554
     3  Na  -0.273798   0.068946
     4  Na   0.359438   0.256039
     5  Na  -0.864321   0.261704
     6  Na   0.777902   0.016565
     7  Na  -0.940488   0.149076
 Sum of Mulliken charges =  -0.00000   1.00000
 Mulliken charges and spin densities with hydrogens summed into heavy atoms:
               1          2
     1  Na   0.039667   0.130117
     2  Na   0.901600   0.117554
     3  Na  -0.273798   0.068946
     4  Na   0.359438   0.256039
     5  Na  -0.864321   0.261704
     6  Na   0.777902   0.016565
     7  Na  -0.940488   0.149076
 Electronic spatial extent (au):  <R**2>=           1649.6263
 Charge=             -0.0000 electrons
 Dipole moment (field-independent basis, Debye):
    X=             -0.4124    Y=              0.1138    Z=             -0.0434  Tot=              0.4301
 Quadrupole moment (field-independent basis, Debye-Ang):
   XX=            -56.3419   YY=            -73.5798   ZZ=            -65.5113
   XY=             -0.2267   XZ=              0.1298   YZ=             -1.2002
 Traceless Quadrupole moment (field-independent basis, Debye-Ang):
   XX=              8.8024   YY=             -8.4355   ZZ=             -0.3670
   XY=             -0.2267   XZ=              0.1298   YZ=             -1.2002
 Octapole moment (field-independent basis, Debye-Ang**2):
  XXX=            -27.5909  YYY=              1.5895  ZZZ=              2.3912  XYY=             -0.3867
  XXY=              0.6653  XXZ=             -5.5602  XZZ=              5.7766  YZZ=              0.1983
  YYZ=             -0.2252  XYZ=             -0.5983
 Hexadecapole moment (field-independent basis, Debye-Ang**3):
 XXXX=          -1103.1928 YYYY=           -869.8081 ZZZZ=           -712.3089 XXXY=             -3.7332
 XXXZ=              9.0526 YYYX=             -2.0562 YYYZ=            -25.9281 ZZZX=             -4.5378
 ZZZY=              0.4873 XXYY=           -422.5168 XXZZ=           -311.0915 YYZZ=           -301.6998
 XXYZ=              1.1591 YYXZ=              1.1495 ZZXY=              0.4234
 N-N= 4.058391481782D+02 E-N=-3.541220804792D+03  KE= 1.133456047182D+03
                          Isotropic Fermi Contact Couplings
        Atom                 a.u.       MegaHertz       Gauss      10(-4) cm-1
     1  Na(23)             0.23311     275.77881      98.40474      91.98991
     2  Na(23)             0.20046     237.15189      84.62169      79.10536
     3  Na(23)             0.00249       2.94468       1.05073       0.98224
     4  Na(23)             0.24073     284.79523     101.62202      94.99746
     5  Na(23)            -0.01035     -12.24115      -4.36795      -4.08321
     6  Na(23)             0.16552     195.81843      69.87288      65.31800
     7  Na(23)            -0.01213     -14.34856      -5.11992      -4.78616
 --------------------------------------------------------
       Center         ----  Spin Dipole Couplings  ----
                      3XX-RR        3YY-RR        3ZZ-RR
 --------------------------------------------------------
     1   Atom        0.019385     -0.011991     -0.007395
     2   Atom        0.018821     -0.014031     -0.004790
     3   Atom       -0.004892     -0.009174      0.014066
     4   Atom        0.009762     -0.009777      0.000015
     5   Atom       -0.031665     -0.024880      0.056545
     6   Atom        0.015043     -0.013636     -0.001407
     7   Atom       -0.027674     -0.022196      0.049870
 --------------------------------------------------------
                        XY            XZ            YZ
 --------------------------------------------------------
     1   Atom       -0.008671      0.031018     -0.006337
     2   Atom        0.008290     -0.035180     -0.007145
     3   Atom        0.000130     -0.006450     -0.000412
     4   Atom        0.006208     -0.025189     -0.007807
     5   Atom       -0.001637     -0.000580      0.017518
     6   Atom       -0.004983      0.032155     -0.003440
     7   Atom        0.000914     -0.003271      0.011897
 --------------------------------------------------------


 ---------------------------------------------------------------------------------
              Anisotropic Spin Dipole Couplings in Principal Axis System
 ---------------------------------------------------------------------------------

       Atom             a.u.   MegaHertz   Gauss  10(-4) cm-1        Axes

              Baa    -0.0278    -3.927    -1.401    -1.310 -0.5440  0.0376  0.8382
     1 Na(23) Bbb    -0.0141    -1.992    -0.711    -0.664  0.1839  0.9800  0.0754
              Bcc     0.0419     5.919     2.112     1.974  0.8187 -0.1952  0.5401
 
              Baa    -0.0302    -4.258    -1.520    -1.420  0.5747  0.0659  0.8157
     2 Na(23) Bbb    -0.0159    -2.252    -0.803    -0.751 -0.1835  0.9817  0.0500
              Bcc     0.0461     6.510     2.323     2.172  0.7975  0.1784 -0.5763
 
              Baa    -0.0092    -1.297    -0.463    -0.432 -0.0063  0.9999  0.0160
     3 Na(23) Bbb    -0.0069    -0.971    -0.347    -0.324  0.9557  0.0013  0.2944
              Bcc     0.0161     2.268     0.809     0.756 -0.2943 -0.0171  0.9556
 
              Baa    -0.0212    -2.996    -1.069    -0.999  0.5909  0.2108  0.7787
     4 Na(23) Bbb    -0.0116    -1.634    -0.583    -0.545 -0.3065  0.9516 -0.0250
              Bcc     0.0328     4.630     1.652     1.544  0.7462  0.2238 -0.6269
 
              Baa    -0.0323    -4.556    -1.626    -1.520  0.9303  0.3610 -0.0651
     5 Na(23) Bbb    -0.0279    -3.940    -1.406    -1.314 -0.3667  0.9105 -0.1914
              Bcc     0.0602     8.496     3.032     2.834 -0.0098  0.2019  0.9794
 
              Baa    -0.0264    -3.725    -1.329    -1.243 -0.6150 -0.0278  0.7880
     6 Na(23) Bbb    -0.0143    -2.019    -0.721    -0.674  0.0702  0.9935  0.0899
              Bcc     0.0407     5.745     2.050     1.916  0.7854 -0.1106  0.6091
 
              Baa    -0.0283    -3.993    -1.425    -1.332  0.9459 -0.3126  0.0872
     7 Na(23) Bbb    -0.0236    -3.336    -1.190    -1.113  0.3222  0.9367 -0.1373
              Bcc     0.0519     7.329     2.615     2.445 -0.0387  0.1579  0.9867
 

 ---------------------------------------------------------------------------------

 No NMR shielding tensors so no spin-rotation constants.
 Leave Link  601 at Mon Nov 13 12:22:26 2023, MaxMem=  1879048192 cpu:               2.8 elap:               0.2
 (Enter /home/sekinelabo/g16/l701.exe)
 ... and contract with generalized density number  0.
 Compute integral first derivatives.
 Leave Link  701 at Mon Nov 13 12:22:26 2023, MaxMem=  1879048192 cpu:               1.8 elap:               0.1
 (Enter /home/sekinelabo/g16/l702.exe)
 L702 exits ... SP integral derivatives will be done elsewhere.
 Leave Link  702 at Mon Nov 13 12:22:26 2023, MaxMem=  1879048192 cpu:               0.4 elap:               0.0
 (Enter /home/sekinelabo/g16/l703.exe)
 Integral derivatives from FoFJK, PRISM(SPDF).
 Compute integral first derivatives, UseDBF=F ICtDFT=           0.
 Calling FoFJK, ICntrl=      2127 FMM=F ISym2X=0 I1Cent= 0 IOpClX= 1 NMat=1 NMatS=1 NMatT=0.
 FoFJK:  IHMeth= 1 ICntrl=    2127 DoSepK=F KAlg= 0 I1Cent=           0 FoldK=F
 IRaf=         0 NMat=       1 IRICut=       1 DoRegI=T DoRafI=F ISym2E= 0 IDoP0=0 IntGTp=1.
 FoFCou: FMM=F IPFlag=           0 FMFlag=      100000 FMFlg1=         800
         NFxFlg=           0 DoJE=F BraDBF=F KetDBF=F FulRan=T
         wScrn=  0.000000 ICntrl=      2127 IOpCl=  1 I1Cent=           0 NGrid=           0
         NMat0=    1 NMatS0=      1 NMatT0=    0 NMatD0=    1 NMtDS0=    0 NMtDT0=    0
 Symmetry not used in FoFCou.
 Leave Link  703 at Mon Nov 13 12:22:29 2023, MaxMem=  1879048192 cpu:              38.0 elap:               2.6
 (Enter /home/sekinelabo/g16/l716.exe)
 Dipole        =-1.62262747D-01 4.47919465D-02-1.70795323D-02
 ***** Axes restored to original set *****
 -------------------------------------------------------------------
 Center     Atomic                   Forces (Hartrees/Bohr)
 Number     Number              X              Y              Z
 -------------------------------------------------------------------
      1       11          -0.010064758   -0.002503241   -0.015252201
      2       11           0.016352305   -0.002767453   -0.017258904
      3       11          -0.012647973   -0.000527553    0.001693422
      4       11          -0.010361077   -0.000232024    0.018045516
      5       11           0.000358163    0.024519360   -0.003872549
      6       11           0.018681639    0.000979503    0.014866034
      7       11          -0.002318298   -0.019468592    0.001778681
 -------------------------------------------------------------------
 Cartesian Forces:  Max     0.024519360 RMS     0.012118729
 Z-matrix is all fixed cartesians, so copy forces.
 Force constants in Cartesian coordinates: 
                1             2             3             4             5 
      1  0.186717D+00
      2 -0.664860D-03  0.163615D+00
      3  0.251203D-01  0.531293D-02  0.211487D+00
      4 -0.735782D-01  0.342492D-02  0.271840D-01  0.179659D+00
      5 -0.417753D-02 -0.513354D-01  0.184713D-02 -0.212778D-02  0.154267D+00
      6 -0.324342D-01  0.145510D-02 -0.445403D-01 -0.339695D-01  0.396857D-02
      7 -0.368912D-01 -0.145857D-02 -0.827869D-02 -0.272127D-02 -0.531458D-03
      8  0.448292D-02 -0.365411D-01 -0.190003D-02  0.957553D-03  0.158332D-01
      9  0.312061D-01 -0.464914D-03 -0.483074D-01  0.492495D-02  0.709410D-03
     10 -0.274718D-01 -0.840861D-03 -0.160323D-01 -0.146952D-01  0.300080D-02
     11  0.454453D-02 -0.280309D-01 -0.400840D-02 -0.873798D-04 -0.891856D-03
     12  0.113936D-01 -0.660075D-02 -0.593448D-01  0.928125D-02 -0.525896D-02
     13 -0.222077D-01 -0.207210D-01 -0.412116D-02 -0.320930D-01  0.297894D-01
     14  0.801855D-02 -0.377036D-01  0.979804D-02 -0.659771D-02 -0.450589D-01
     15 -0.941080D-02 -0.327177D-01 -0.252352D-01  0.119362D-01 -0.318054D-01
     16 -0.449322D-02 -0.228832D-03 -0.137302D-01 -0.281965D-01  0.941443D-03
     17 -0.315852D-02  0.217253D-01 -0.278105D-02 -0.409094D-02 -0.361601D-01
     18 -0.154425D-01  0.154086D-03 -0.119342D-02 -0.323754D-01 -0.146385D-02
     19 -0.220748D-01  0.204892D-01 -0.101419D-01 -0.283752D-01 -0.268949D-01
     20 -0.904509D-02 -0.317290D-01 -0.826861D-02  0.852134D-02 -0.366539D-01
     21 -0.104325D-01  0.328613D-01 -0.328656D-01  0.130185D-01  0.320031D-01
                6             7             8             9            10 
      6  0.195015D+00
      7  0.418661D-02  0.910573D-01
      8  0.727217D-04  0.926553D-03  0.627557D-01
      9  0.119574D-01 -0.759497D-02  0.497621D-03  0.721019D-01
     10  0.175084D-01 -0.429998D-01 -0.718268D-02 -0.295774D-01  0.224051D+00
     11 -0.308300D-02  0.216610D-02 -0.637381D-01  0.175965D-02  0.931279D-03
     12 -0.246952D-01  0.141051D-01  0.486136D-02 -0.593037D-01 -0.243970D-01
     13  0.775238D-02 -0.349237D-02 -0.124304D-01  0.182463D-02 -0.378296D-01
     14  0.101177D-01 -0.297163D-03 -0.290667D-03  0.142819D-02  0.468808D-02
     15 -0.307102D-01  0.114388D-02  0.117749D-03  0.679667D-02  0.986435D-02
     16  0.219985D-01 -0.320513D-03  0.201386D-02 -0.107826D-04 -0.749495D-01
     17 -0.419921D-02 -0.772254D-03  0.222524D-01 -0.488322D-02  0.624107D-02
     18 -0.751932D-01 -0.479548D-02 -0.360439D-02  0.120261D-01  0.355950D-01
     19  0.149579D-01 -0.463222D-02  0.112322D-01 -0.772491D-03 -0.261051D-01
     20 -0.833192D-02 -0.332062D-04 -0.271353D-03  0.953267D-03 -0.683769D-02
     21 -0.318336D-01  0.123355D-02 -0.450280D-04  0.472900D-02  0.703901D-02
               11            12            13            14            15 
     11  0.263529D+00
     12 -0.440216D-02  0.287487D+00
     13 -0.244675D-01  0.990194D-02  0.102247D+00
     14 -0.508468D-01 -0.851135D-02  0.163490D-02  0.180689D+00
     15  0.485558D-01 -0.573288D-01 -0.383970D-02 -0.983657D-02  0.110152D+00
     16 -0.357187D-02 -0.232869D-01 -0.212237D-01 -0.920896D-02 -0.113217D-01
     17 -0.760920D-01  0.878988D-02  0.283069D-01 -0.309332D-01  0.225019D-01
     18  0.258024D-03 -0.536226D-01 -0.137083D-01 -0.657227D-02 -0.195121D-01
     19  0.204848D-01  0.300204D-02  0.145999D-01  0.176230D-02  0.162778D-02
     20 -0.439296D-01  0.111220D-01 -0.211225D-02 -0.158556D-01  0.318419D-02
     21 -0.390800D-01 -0.331922D-01  0.219022D-02  0.357622D-02  0.158376D-01
               16            17            18            19            20 
     16  0.154926D+00
     17  0.359951D-02  0.132119D+00
     18  0.409809D-01  0.171374D-02  0.156625D+00
     19 -0.257421D-01 -0.301257D-01 -0.102542D-01  0.923296D-01
     20  0.645484D-02 -0.329113D-01  0.951467D-02  0.305205D-02  0.161351D+00
     21 -0.146298D-01 -0.211420D-01 -0.191302D-01  0.158097D-02 -0.817357D-02
               21 
     21  0.964551D-01
 Leave Link  716 at Mon Nov 13 12:22:29 2023, MaxMem=  1879048192 cpu:               0.7 elap:               0.1
 (Enter /home/sekinelabo/g16/l103.exe)

 GradGradGradGradGradGradGradGradGradGradGradGradGradGradGradGradGradGrad
 Berny optimization.
 Search for a local minimum.
 Step number   1 out of a maximum of    2
 All quantities printed in internal units (Hartrees-Bohrs-Radians)
 Second derivative matrix not updated -- first step.
 ITU=  0
     Eigenvalues ---    0.08662   0.09253   0.10376   0.16107   0.17079
     Eigenvalues ---    0.18108   0.20259   0.22681   0.23650   0.24249
     Eigenvalues ---    0.26349   0.28991   0.29578   0.33814   0.36315
 Quadratic step=3.773D-01 exceeds max=3.000D-01 adjusted using Lamda=-3.211D-02.
 Angle between NR and scaled steps=   4.08 degrees.
 Angle between quadratic step and forces=  16.55 degrees.
 Linear search not attempted -- first point.
 B after Tr=     0.000000    0.000000    0.000000
         Rot=    1.000000    0.000000   -0.000000    0.000000 Ang=   0.00 deg.
 Variable       Old X    -DE/DX   Delta X   Delta X   Delta X     New X
                                 (Linear)    (Quad)   (Total)
    X1        4.23970  -0.01006   0.00000  -0.05127  -0.05127   4.18843
    Y1        3.95430  -0.00250   0.00000  -0.01049  -0.01049   3.94381
    Z1        0.00000  -0.01525   0.00000  -0.07037  -0.07037  -0.07037
    X2        9.46844   0.01635   0.00000   0.08766   0.08766   9.55610
    Y2        4.05860  -0.00277   0.00000  -0.00996  -0.00996   4.04863
    Z2        0.20731  -0.01726   0.00000  -0.07082  -0.07082   0.13649
    X3        0.00000  -0.01265   0.00000  -0.13378  -0.13378  -0.13378
    Y3        4.25846  -0.00053   0.00000  -0.00532  -0.00532   4.25314
    Z3        3.37428   0.00169   0.00000   0.01259   0.01259   3.38687
    X4        4.93310  -0.01036   0.00000  -0.03541  -0.03541   4.89768
    Y4        4.88712  -0.00023   0.00000   0.00971   0.00971   4.89683
    Z4        5.56438   0.01805   0.00000   0.06666   0.06666   5.63103
    X5        6.95617   0.00036   0.00000   0.01862   0.01862   6.97480
    Y5        8.51092   0.02452   0.00000   0.12592   0.12592   8.63684
    Z5        2.44790  -0.00387   0.00000  -0.01544  -0.01544   2.43245
    X6       10.08722   0.01868   0.00000   0.10661   0.10661  10.19383
    Y6        4.42695   0.00098   0.00000   0.00490   0.00490   4.43185
    Z6        5.34813   0.01487   0.00000   0.07016   0.07016   5.41829
    X7        6.91620  -0.00232   0.00000   0.00756   0.00756   6.92376
    Y7        0.00000  -0.01947   0.00000  -0.11475  -0.11475  -0.11475
    Z7        3.27305   0.00178   0.00000   0.00722   0.00722   3.28028
         Item               Value     Threshold  Converged?
 Maximum Force            0.024519     0.000450     NO 
 RMS     Force            0.012119     0.000300     NO 
 Maximum Displacement     0.133776     0.001800     NO 
 RMS     Displacement     0.065609     0.001200     NO 
 Predicted change in Energy=-9.453791D-03
 GradGradGradGradGradGradGradGradGradGradGradGradGradGradGradGradGradGrad

 Leave Link  103 at Mon Nov 13 12:22:29 2023, MaxMem=  1879048192 cpu:               1.1 elap:               0.1
 (Enter /home/sekinelabo/g16/l9999.exe)
 1\1\GINC-SEKINELABO-XA7R-R37\Force\UB3LYP\6-311+G(d)\Na7(2)\SEKINELABO
 \13-Nov-2023\0\\#P B3LYP/6-311+g(d) force\\Gaussian input prepared by 
 ASE\\0,2\Na,2.2435519471,2.0925271524,0.\Na,5.0104810006,2.1477173539,
 0.1097052666\Na,0.,2.2534794909,1.7855919002\Na,2.6104817001,2.5861505
 752,2.944540833\Na,3.6810476372,4.5037855638,1.2953716507\Na,5.3379279
 251,2.3426435636,2.8301096122\Na,3.6598954052,0.,1.7320251347\\Version
 =ES64L-G16RevB.01\State=2-A\HF=-1136.083302\S2=0.760609\S2-1=0.\S2A=0.
 750053\RMSD=7.914e-09\RMSF=1.212e-02\Dipole=-0.1622627,-0.0447919,0.01
 70795\Quadrupole=6.5444033,-6.2715706,-0.2728328,0.1685533,-0.0964759,
 -0.8923492\PG=C01 [X(Na7)]\\@


 ASKING DUMB QUESTIONS IS EASIER THAN CORECTING DUMB MISTAKES.
 Job cpu time:       0 days  0 hours  4 minutes 54.0 seconds.
 Elapsed time:       0 days  0 hours  0 minutes 24.4 seconds.
 File lengths (MBytes):  RWF=     32 Int=      0 D2E=      0 Chk=      5 Scr=      1
 Normal termination of Gaussian 16 at Mon Nov 13 12:22:29 2023.
