 Entering Gaussian System, Link 0=g16
 Initial command:
 /home/sekinelabo/g16/l1.exe "/home/sekinelabo/g16temp/Gau-3977822.inp" -scrdir="/home/sekinelabo/g16temp/"
 Entering Link 1 = /home/sekinelabo/g16/l1.exe PID=   3977824.
  
 Copyright (c) 1988-2017, Gaussian, Inc.  All Rights Reserved.
  
 This is part of the Gaussian(R) 16 program.  It is based on
 the Gaussian(R) 09 system (copyright 2009, Gaussian, Inc.),
 the Gaussian(R) 03 system (copyright 2003, Gaussian, Inc.),
 the Gaussian(R) 98 system (copyright 1998, Gaussian, Inc.),
 the Gaussian(R) 94 system (copyright 1995, Gaussian, Inc.),
 the Gaussian 92(TM) system (copyright 1992, Gaussian, Inc.),
 the Gaussian 90(TM) system (copyright 1990, Gaussian, Inc.),
 the Gaussian 88(TM) system (copyright 1988, Gaussian, Inc.),
 the Gaussian 86(TM) system (copyright 1986, Carnegie Mellon
 University), and the Gaussian 82(TM) system (copyright 1983,
 Carnegie Mellon University). Gaussian is a federally registered
 trademark of Gaussian, Inc.
  
 This software contains proprietary and confidential information,
 including trade secrets, belonging to Gaussian, Inc.
  
 This software is provided under written license and may be
 used, copied, transmitted, or stored only in accord with that
 written license.
  
 The following legend is applicable only to US Government
 contracts under FAR:
  
                    RESTRICTED RIGHTS LEGEND
  
 Use, reproduction and disclosure by the US Government is
 subject to restrictions as set forth in subparagraphs (a)
 and (c) of the Commercial Computer Software - Restricted
 Rights clause in FAR 52.227-19.
  
 Gaussian, Inc.
 340 Quinnipiac St., Bldg. 40, Wallingford CT 06492
  
  
 ---------------------------------------------------------------
 Warning -- This program may not be used in any manner that
 competes with the business of Gaussian, Inc. or will provide
 assistance to any competitor of Gaussian, Inc.  The licensee
 of this program is prohibited from giving any competitor of
 Gaussian, Inc. access to this program.  By using this program,
 the user acknowledges that Gaussian, Inc. is engaged in the
 business of creating and licensing software in the field of
 computational chemistry and represents and warrants to the
 licensee that it is not a competitor of Gaussian, Inc. and that
 it will not use this program in any manner prohibited above.
 ---------------------------------------------------------------
  

 Cite this work as:
 Gaussian 16, Revision B.01,
 M. J. Frisch, G. W. Trucks, H. B. Schlegel, G. E. Scuseria, 
 M. A. Robb, J. R. Cheeseman, G. Scalmani, V. Barone, 
 G. A. Petersson, H. Nakatsuji, X. Li, M. Caricato, A. V. Marenich, 
 J. Bloino, B. G. Janesko, R. Gomperts, B. Mennucci, H. P. Hratchian, 
 J. V. Ortiz, A. F. Izmaylov, J. L. Sonnenberg, D. Williams-Young, 
 F. Ding, F. Lipparini, F. Egidi, J. Goings, B. Peng, A. Petrone, 
 T. Henderson, D. Ranasinghe, V. G. Zakrzewski, J. Gao, N. Rega, 
 G. Zheng, W. Liang, M. Hada, M. Ehara, K. Toyota, R. Fukuda, 
 J. Hasegawa, M. Ishida, T. Nakajima, Y. Honda, O. Kitao, H. Nakai, 
 T. Vreven, K. Throssell, J. A. Montgomery, Jr., J. E. Peralta, 
 F. Ogliaro, M. J. Bearpark, J. J. Heyd, E. N. Brothers, K. N. Kudin, 
 V. N. Staroverov, T. A. Keith, R. Kobayashi, J. Normand, 
 K. Raghavachari, A. P. Rendell, J. C. Burant, S. S. Iyengar, 
 J. Tomasi, M. Cossi, J. M. Millam, M. Klene, C. Adamo, R. Cammi, 
 J. W. Ochterski, R. L. Martin, K. Morokuma, O. Farkas, 
 J. B. Foresman, and D. J. Fox, Gaussian, Inc., Wallingford CT, 2016.
 
 ******************************************
 Gaussian 16:  ES64L-G16RevB.01 20-Dec-2017
                13-Nov-2023 
 ******************************************
 %mem=14GB
 %chk=checkpoint.chk
 %nprocshared=16
 Will use up to   16 processors via shared memory.
 -------------------------
 #P B3LYP/6-311+g(d) force
 -------------------------
 1/10=7,30=1,38=1/1,3;
 2/12=2,17=6,18=5,40=1/2;
 3/5=4,6=6,7=11,11=2,25=1,30=1,71=1,74=-5/1,2,3;
 4//1;
 5/5=2,38=5/2;
 6/7=2,8=2,9=2,10=2,28=1/1;
 7/29=1/1,2,3,16;
 1/10=7,30=1/3;
 99//99;
 Leave Link    1 at Mon Nov 13 12:13:28 2023, MaxMem=  1879048192 cpu:               0.7 elap:               0.1
 (Enter /home/sekinelabo/g16/l101.exe)
 ------------------------------
 Gaussian input prepared by ASE
 ------------------------------
 Symbolic Z-matrix:
 Charge =  0 Multiplicity = 2
 Na                    3.7968    6.05093   1.19334 
 Na                    5.41292   0.        0.97819 
 Na                    0.        3.05383   0. 
 Na                    1.82937   4.00746   2.17285 
 Na                    4.11353   2.11701   2.65519 
 Na                    6.05667   4.36536   2.21998 
 Na                    8.21683   4.21549   0.14651 
 
 ITRead=  0  0  0  0  0  0  0
 MicOpt= -1 -1 -1 -1 -1 -1 -1
 NAtoms=      7 NQM=        7 NQMF=       0 NMMI=      0 NMMIF=      0
                NMic=       0 NMicF=      0.
                    Isotopes and Nuclear Properties:
 (Nuclear quadrupole moments (NQMom) in fm**2, nuclear magnetic moments (NMagM)
  in nuclear magnetons)

  Atom         1           2           3           4           5           6           7
 IAtWgt=          23          23          23          23          23          23          23
 AtmWgt=  22.9897697  22.9897697  22.9897697  22.9897697  22.9897697  22.9897697  22.9897697
 NucSpn=           3           3           3           3           3           3           3
 AtZEff=  -0.0000000  -0.0000000  -0.0000000  -0.0000000  -0.0000000  -0.0000000  -0.0000000
 NQMom=   10.4000000  10.4000000  10.4000000  10.4000000  10.4000000  10.4000000  10.4000000
 NMagM=    2.2175200   2.2175200   2.2175200   2.2175200   2.2175200   2.2175200   2.2175200
 AtZNuc=  11.0000000  11.0000000  11.0000000  11.0000000  11.0000000  11.0000000  11.0000000
 Leave Link  101 at Mon Nov 13 12:13:28 2023, MaxMem=  1879048192 cpu:               3.2 elap:               0.2
 (Enter /home/sekinelabo/g16/l103.exe)

 GradGradGradGradGradGradGradGradGradGradGradGradGradGradGradGradGradGrad
 Berny optimization.
 Initialization pass.
 Trust Radius=3.00D-01 FncErr=1.00D-07 GrdErr=1.00D-07 EigMax=2.50D+02 EigMin=1.00D-04
 Number of steps in this run=      2 maximum allowed number of steps=      2.
 GradGradGradGradGradGradGradGradGradGradGradGradGradGradGradGradGradGrad

 Leave Link  103 at Mon Nov 13 12:13:28 2023, MaxMem=  1879048192 cpu:               0.2 elap:               0.0
 (Enter /home/sekinelabo/g16/l202.exe)
                          Input orientation:                          
 ---------------------------------------------------------------------
 Center     Atomic      Atomic             Coordinates (Angstroms)
 Number     Number       Type             X           Y           Z
 ---------------------------------------------------------------------
      1         11           0        3.796803    6.050928    1.193339
      2         11           0        5.412916    0.000000    0.978195
      3         11           0        0.000000    3.053834    0.000000
      4         11           0        1.829368    4.007463    2.172851
      5         11           0        4.113528    2.117012    2.655193
      6         11           0        6.056666    4.365362    2.219978
      7         11           0        8.216825    4.215488    0.146505
 ---------------------------------------------------------------------
                    Distance matrix (angstroms):
                    1          2          3          4          5
     1  Na   0.000000
     2  Na   6.266724   0.000000
     3  Na   4.982202   6.291456   0.000000
     4  Na   3.000998   5.507157   2.996211   0.000000
     5  Na   4.208684   2.997078   4.984857   3.003971   0.000000
     6  Na   3.000350   4.583975   6.582675   4.242684   3.003377
     7  Na   4.899112   5.130688   8.299827   6.704399   5.247301
                    6          7
     6  Na   0.000000
     7  Na   2.998005   0.000000
 Stoichiometry    Na7(2)
 Framework group  C1[X(Na7)]
 Deg. of freedom    15
 Full point group                 C1      NOp   1
 Largest Abelian subgroup         C1      NOp   1
 Largest concise Abelian subgroup C1      NOp   1
                         Standard orientation:                         
 ---------------------------------------------------------------------
 Center     Atomic      Atomic             Coordinates (Angstroms)
 Number     Number       Type             X           Y           Z
 ---------------------------------------------------------------------
      1         11           0       -0.406927   -2.649487    0.144669
      2         11           0        1.209186    3.401441    0.359814
      3         11           0       -4.203729    0.347607    1.338009
      4         11           0       -2.374361   -0.606022   -0.834843
      5         11           0       -0.090201    1.284429   -1.317184
      6         11           0        1.852937   -0.963921   -0.881969
      7         11           0        4.013096   -0.814047    1.191503
 ---------------------------------------------------------------------
 Rotational constants (GHZ):           0.7609289           0.4305853           0.3290719
 Leave Link  202 at Mon Nov 13 12:13:28 2023, MaxMem=  1879048192 cpu:               0.0 elap:               0.0
 (Enter /home/sekinelabo/g16/l301.exe)
 Standard basis: 6-311+G(d) (5D, 7F)
 Ernie: Thresh=  0.10000D-02 Tol=  0.10000D-05 Strict=F.
 There are   217 symmetry adapted cartesian basis functions of A   symmetry.
 There are   210 symmetry adapted basis functions of A   symmetry.
   210 basis functions,   350 primitive gaussians,   217 cartesian basis functions
    39 alpha electrons       38 beta electrons
       nuclear repulsion energy       316.1417789451 Hartrees.
 IExCor=  402 DFT=T Ex+Corr=B3LYP ExCW=0 ScaHFX=  0.200000
 ScaDFX=  0.800000  0.720000  1.000000  0.810000 ScalE2=  1.000000  1.000000
 IRadAn=      5 IRanWt=     -1 IRanGd=            0 ICorTp=0 IEmpDi=  4
 NAtoms=    7 NActive=    7 NUniq=    7 SFac= 1.00D+00 NAtFMM=   60 NAOKFM=F Big=F
 Integral buffers will be    131072 words long.
 Raffenetti 2 integral format.
 Two-electron integral symmetry is turned on.
 Leave Link  301 at Mon Nov 13 12:13:28 2023, MaxMem=  1879048192 cpu:               0.5 elap:               0.0
 (Enter /home/sekinelabo/g16/l302.exe)
 NPDir=0 NMtPBC=     1 NCelOv=     1 NCel=       1 NClECP=     1 NCelD=      1
         NCelK=      1 NCelE2=     1 NClLst=     1 CellRange=     0.0.
 One-electron integrals computed using PRISM.
 One-electron integral symmetry used in STVInt
 NBasis=   210 RedAO= T EigKep=  1.28D-06  NBF=   210
 NBsUse=   210 1.00D-06 EigRej= -1.00D+00 NBFU=   210
 Precomputing XC quadrature grid using
 IXCGrd= 4 IRadAn=           5 IRanWt=          -1 IRanGd=           0 AccXCQ= 0.00D+00.
 Generated NRdTot=       0 NPtTot=           0 NUsed=           0 NTot=          32
 NSgBfM=   207   207   207   207   207 MxSgAt=     7 MxSgA2=     7.
 Leave Link  302 at Mon Nov 13 12:13:28 2023, MaxMem=  1879048192 cpu:               2.6 elap:               0.2
 (Enter /home/sekinelabo/g16/l303.exe)
 DipDrv:  MaxL=1.
 Leave Link  303 at Mon Nov 13 12:13:28 2023, MaxMem=  1879048192 cpu:               0.6 elap:               0.0
 (Enter /home/sekinelabo/g16/l401.exe)
 ExpMin= 7.60D-03 ExpMax= 3.62D+04 ExpMxC= 1.21D+03 IAcc=3 IRadAn=         5 AccDes= 0.00D+00
 Harris functional with IExCor=  402 and IRadAn=       5 diagonalized for initial guess.
 HarFok:  IExCor=  402 AccDes= 0.00D+00 IRadAn=         5 IDoV= 1 UseB2=F ITyADJ=14
 ICtDFT=  3500011 ScaDFX=  1.000000  1.000000  1.000000  1.000000
 FoFCou: FMM=F IPFlag=           0 FMFlag=      100000 FMFlg1=           0
         NFxFlg=           0 DoJE=T BraDBF=F KetDBF=T FulRan=T
         wScrn=  0.000000 ICntrl=       500 IOpCl=  0 I1Cent=   200000004 NGrid=           0
         NMat0=    1 NMatS0=      1 NMatT0=    0 NMatD0=    1 NMtDS0=    0 NMtDT0=    0
 Petite list used in FoFCou.
 Harris En= -1135.87166064637    
 JPrj=0 DoOrth=F DoCkMO=F.
 Initial guess <Sx>= 0.0000 <Sy>= 0.0000 <Sz>= 0.5000 <S**2>= 0.7500 S= 0.5000
 Leave Link  401 at Mon Nov 13 12:13:28 2023, MaxMem=  1879048192 cpu:               5.0 elap:               0.3
 (Enter /home/sekinelabo/g16/l502.exe)
 Keep R1 and R2 ints in memory in canonical form, NReq=507620346.
 FoFCou: FMM=F IPFlag=           0 FMFlag=           0 FMFlg1=           0
         NFxFlg=           0 DoJE=F BraDBF=F KetDBF=F FulRan=T
         wScrn=  0.000000 ICntrl=       600 IOpCl=  0 I1Cent=           0 NGrid=           0
         NMat0=    1 NMatS0=  22155 NMatT0=    0 NMatD0=    1 NMtDS0=    0 NMtDT0=    0
 Symmetry not used in FoFCou.
 Two-electron integral symmetry not used.
 UHF open shell SCF:
 Using DIIS extrapolation, IDIIS=  1040.
 NGot=  1879048192 LenX=  1388082390 LenY=  1388034860
 Requested convergence on RMS density matrix=1.00D-08 within 128 cycles.
 Requested convergence on MAX density matrix=1.00D-06.
 Requested convergence on             energy=1.00D-06.
 No special actions if energy rises.

 Cycle   1  Pass 1  IDiag  1:
 E= -1136.06985279026    
 DIIS: error= 9.47D-03 at cycle   1 NSaved=   1.
 NSaved= 1 IEnMin= 1 EnMin= -1136.06985279026     IErMin= 1 ErrMin= 9.47D-03
 ErrMax= 9.47D-03  0.00D+00 EMaxC= 1.00D-01 BMatC= 1.89D-01 BMatP= 1.89D-01
 IDIUse=3 WtCom= 9.05D-01 WtEn= 9.47D-02
 Coeff-Com:  0.100D+01
 Coeff-En:   0.100D+01
 Coeff:      0.100D+01
 Gap=     0.051 Goal=   None    Shift=    0.000
 Gap=     0.031 Goal=   None    Shift=    0.000
 GapD=    0.031 DampG=0.250 DampE=1.000 DampFc=0.2500 IDamp=-1.
 Damping current iteration by 2.50D-01
 RMSDP=3.53D-02 MaxDP=3.35D+00              OVMax= 2.34D-01

 Cycle   2  Pass 1  IDiag  1:
 E= -1136.08021259753     Delta-E=       -0.010359807279 Rises=F Damp=T
 DIIS: error= 6.83D-03 at cycle   2 NSaved=   2.
 NSaved= 2 IEnMin= 2 EnMin= -1136.08021259753     IErMin= 2 ErrMin= 6.83D-03
 ErrMax= 6.83D-03  0.00D+00 EMaxC= 1.00D-01 BMatC= 7.24D-02 BMatP= 1.89D-01
 IDIUse=3 WtCom= 9.32D-01 WtEn= 6.83D-02
 Coeff-Com: -0.127D+01 0.227D+01
 Coeff-En:   0.000D+00 0.100D+01
 Coeff:     -0.119D+01 0.219D+01
 Gap=     0.048 Goal=   None    Shift=    0.000
 Gap=     0.042 Goal=   None    Shift=    0.000
 RMSDP=1.98D-02 MaxDP=1.96D+00 DE=-1.04D-02 OVMax= 1.79D-01

 Cycle   3  Pass 1  IDiag  1:
 E= -1136.09551818285     Delta-E=       -0.015305585312 Rises=F Damp=F
 DIIS: error= 3.37D-03 at cycle   3 NSaved=   3.
 NSaved= 3 IEnMin= 3 EnMin= -1136.09551818285     IErMin= 3 ErrMin= 3.37D-03
 ErrMax= 3.37D-03  0.00D+00 EMaxC= 1.00D-01 BMatC= 4.91D-03 BMatP= 7.24D-02
 IDIUse=3 WtCom= 9.66D-01 WtEn= 3.37D-02
 Coeff-Com: -0.339D+00 0.587D+00 0.752D+00
 Coeff-En:   0.000D+00 0.000D+00 0.100D+01
 Coeff:     -0.327D+00 0.567D+00 0.760D+00
 Gap=     0.049 Goal=   None    Shift=    0.000
 Gap=     0.040 Goal=   None    Shift=    0.000
 RMSDP=9.89D-03 MaxDP=1.03D+00 DE=-1.53D-02 OVMax= 1.53D-01

 Cycle   4  Pass 1  IDiag  1:
 E= -1136.09413037115     Delta-E=        0.001387811697 Rises=F Damp=F
 DIIS: error= 3.68D-03 at cycle   4 NSaved=   4.
 NSaved= 4 IEnMin= 3 EnMin= -1136.09551818285     IErMin= 3 ErrMin= 3.37D-03
 ErrMax= 3.68D-03  0.00D+00 EMaxC= 1.00D-01 BMatC= 5.89D-03 BMatP= 4.91D-03
 IDIUse=3 WtCom= 1.42D-01 WtEn= 8.58D-01
 Coeff-Com: -0.222D-01 0.319D-01 0.521D+00 0.469D+00
 Coeff-En:   0.000D+00 0.000D+00 0.546D+00 0.454D+00
 Coeff:     -0.314D-02 0.451D-02 0.542D+00 0.456D+00
 Gap=     0.049 Goal=   None    Shift=    0.000
 Gap=     0.040 Goal=   None    Shift=    0.000
 RMSDP=3.95D-03 MaxDP=4.42D-01 DE= 1.39D-03 OVMax= 9.24D-02

 Cycle   5  Pass 1  IDiag  1:
 E= -1136.10064691409     Delta-E=       -0.006516542939 Rises=F Damp=F
 DIIS: error= 6.34D-04 at cycle   5 NSaved=   5.
 NSaved= 5 IEnMin= 5 EnMin= -1136.10064691409     IErMin= 5 ErrMin= 6.34D-04
 ErrMax= 6.34D-04  0.00D+00 EMaxC= 1.00D-01 BMatC= 1.24D-04 BMatP= 4.91D-03
 IDIUse=3 WtCom= 9.94D-01 WtEn= 6.34D-03
 Coeff-Com: -0.289D-02 0.276D-02 0.288D+00 0.246D+00 0.467D+00
 Coeff-En:   0.000D+00 0.000D+00 0.000D+00 0.000D+00 0.100D+01
 Coeff:     -0.287D-02 0.274D-02 0.286D+00 0.244D+00 0.470D+00
 Gap=     0.048 Goal=   None    Shift=    0.000
 Gap=     0.042 Goal=   None    Shift=    0.000
 RMSDP=1.46D-03 MaxDP=9.61D-02 DE=-6.52D-03 OVMax= 1.69D-02

 Cycle   6  Pass 1  IDiag  1:
 E= -1136.10078857006     Delta-E=       -0.000141655968 Rises=F Damp=F
 DIIS: error= 2.09D-04 at cycle   6 NSaved=   6.
 NSaved= 6 IEnMin= 6 EnMin= -1136.10078857006     IErMin= 6 ErrMin= 2.09D-04
 ErrMax= 2.09D-04  0.00D+00 EMaxC= 1.00D-01 BMatC= 1.21D-05 BMatP= 1.24D-04
 IDIUse=3 WtCom= 9.98D-01 WtEn= 2.09D-03
 Coeff-Com:  0.105D-02-0.211D-02-0.229D-01-0.281D-01 0.204D+00 0.848D+00
 Coeff-En:   0.000D+00 0.000D+00 0.000D+00 0.000D+00 0.778D-02 0.992D+00
 Coeff:      0.105D-02-0.210D-02-0.229D-01-0.280D-01 0.203D+00 0.849D+00
 Gap=     0.048 Goal=   None    Shift=    0.000
 Gap=     0.042 Goal=   None    Shift=    0.000
 RMSDP=5.60D-04 MaxDP=4.35D-02 DE=-1.42D-04 OVMax= 7.34D-03

 Cycle   7  Pass 1  IDiag  1:
 E= -1136.10081179088     Delta-E=       -0.000023220819 Rises=F Damp=F
 DIIS: error= 7.25D-05 at cycle   7 NSaved=   7.
 NSaved= 7 IEnMin= 7 EnMin= -1136.10081179088     IErMin= 7 ErrMin= 7.25D-05
 ErrMax= 7.25D-05  0.00D+00 EMaxC= 1.00D-01 BMatC= 2.28D-06 BMatP= 1.21D-05
 IDIUse=1 WtCom= 1.00D+00 WtEn= 0.00D+00
 Coeff-Com:  0.848D-03-0.132D-02-0.456D-01-0.434D-01 0.405D-01 0.385D+00
 Coeff-Com:  0.664D+00
 Coeff:      0.848D-03-0.132D-02-0.456D-01-0.434D-01 0.405D-01 0.385D+00
 Coeff:      0.664D+00
 Gap=     0.048 Goal=   None    Shift=    0.000
 Gap=     0.042 Goal=   None    Shift=    0.000
 RMSDP=1.91D-04 MaxDP=1.24D-02 DE=-2.32D-05 OVMax= 3.92D-03

 Cycle   8  Pass 1  IDiag  1:
 E= -1136.10081618055     Delta-E=       -0.000004389675 Rises=F Damp=F
 DIIS: error= 4.82D-05 at cycle   8 NSaved=   8.
 NSaved= 8 IEnMin= 8 EnMin= -1136.10081618055     IErMin= 8 ErrMin= 4.82D-05
 ErrMax= 4.82D-05  0.00D+00 EMaxC= 1.00D-01 BMatC= 8.75D-07 BMatP= 2.28D-06
 IDIUse=1 WtCom= 1.00D+00 WtEn= 0.00D+00
 Coeff-Com:  0.524D-03-0.619D-03-0.235D-01-0.199D-01-0.392D-01-0.185D-01
 Coeff-Com:  0.404D+00 0.698D+00
 Coeff:      0.524D-03-0.619D-03-0.235D-01-0.199D-01-0.392D-01-0.185D-01
 Coeff:      0.404D+00 0.698D+00
 Gap=     0.049 Goal=   None    Shift=    0.000
 Gap=     0.042 Goal=   None    Shift=    0.000
 RMSDP=1.29D-04 MaxDP=1.46D-02 DE=-4.39D-06 OVMax= 2.41D-03

 Cycle   9  Pass 1  IDiag  1:
 E= -1136.10081847693     Delta-E=       -0.000002296377 Rises=F Damp=F
 DIIS: error= 1.91D-05 at cycle   9 NSaved=   9.
 NSaved= 9 IEnMin= 9 EnMin= -1136.10081847693     IErMin= 9 ErrMin= 1.91D-05
 ErrMax= 1.91D-05  0.00D+00 EMaxC= 1.00D-01 BMatC= 1.02D-07 BMatP= 8.75D-07
 IDIUse=1 WtCom= 1.00D+00 WtEn= 0.00D+00
 Coeff-Com:  0.322D-03-0.362D-03 0.689D-03 0.228D-02-0.210D-01-0.765D-01
 Coeff-Com: -0.754D-01 0.183D+00 0.988D+00
 Coeff:      0.322D-03-0.362D-03 0.689D-03 0.228D-02-0.210D-01-0.765D-01
 Coeff:     -0.754D-01 0.183D+00 0.988D+00
 Gap=     0.049 Goal=   None    Shift=    0.000
 Gap=     0.042 Goal=   None    Shift=    0.000
 RMSDP=8.46D-05 MaxDP=8.75D-03 DE=-2.30D-06 OVMax= 1.64D-03

 Cycle  10  Pass 1  IDiag  1:
 E= -1136.10081909156     Delta-E=       -0.000000614637 Rises=F Damp=F
 DIIS: error= 1.11D-05 at cycle  10 NSaved=  10.
 NSaved=10 IEnMin=10 EnMin= -1136.10081909156     IErMin=10 ErrMin= 1.11D-05
 ErrMax= 1.11D-05  0.00D+00 EMaxC= 1.00D-01 BMatC= 2.18D-08 BMatP= 1.02D-07
 IDIUse=1 WtCom= 1.00D+00 WtEn= 0.00D+00
 Coeff-Com:  0.505D-04-0.545D-04 0.200D-02 0.213D-02-0.314D-02-0.194D-01
 Coeff-Com: -0.612D-01-0.114D-01 0.269D+00 0.822D+00
 Coeff:      0.505D-04-0.545D-04 0.200D-02 0.213D-02-0.314D-02-0.194D-01
 Coeff:     -0.612D-01-0.114D-01 0.269D+00 0.822D+00
 Gap=     0.049 Goal=   None    Shift=    0.000
 Gap=     0.042 Goal=   None    Shift=    0.000
 RMSDP=2.27D-05 MaxDP=1.58D-03 DE=-6.15D-07 OVMax= 7.83D-04

 Cycle  11  Pass 1  IDiag  1:
 E= -1136.10081924126     Delta-E=       -0.000000149695 Rises=F Damp=F
 DIIS: error= 8.76D-06 at cycle  11 NSaved=  11.
 NSaved=11 IEnMin=11 EnMin= -1136.10081924126     IErMin=11 ErrMin= 8.76D-06
 ErrMax= 8.76D-06  0.00D+00 EMaxC= 1.00D-01 BMatC= 9.35D-09 BMatP= 2.18D-08
 IDIUse=1 WtCom= 1.00D+00 WtEn= 0.00D+00
 Coeff-Com: -0.222D-03 0.274D-03 0.629D-03-0.371D-03 0.880D-02 0.312D-01
 Coeff-Com:  0.149D-01-0.811D-01-0.407D+00 0.113D+00 0.132D+01
 Coeff:     -0.222D-03 0.274D-03 0.629D-03-0.371D-03 0.880D-02 0.312D-01
 Coeff:      0.149D-01-0.811D-01-0.407D+00 0.113D+00 0.132D+01
 Gap=     0.049 Goal=   None    Shift=    0.000
 Gap=     0.042 Goal=   None    Shift=    0.000
 RMSDP=2.74D-05 MaxDP=1.97D-03 DE=-1.50D-07 OVMax= 1.13D-03

 Cycle  12  Pass 1  IDiag  1:
 E= -1136.10081937218     Delta-E=       -0.000000130922 Rises=F Damp=F
 DIIS: error= 3.99D-06 at cycle  12 NSaved=  12.
 NSaved=12 IEnMin=12 EnMin= -1136.10081937218     IErMin=12 ErrMin= 3.99D-06
 ErrMax= 3.99D-06  0.00D+00 EMaxC= 1.00D-01 BMatC= 2.29D-09 BMatP= 9.35D-09
 IDIUse=1 WtCom= 1.00D+00 WtEn= 0.00D+00
 Coeff-Com:  0.200D-04-0.325D-04-0.687D-03-0.576D-03 0.861D-03 0.482D-02
 Coeff-Com:  0.125D-01 0.122D-01-0.574D-01-0.201D+00-0.184D+00 0.141D+01
 Coeff:      0.200D-04-0.325D-04-0.687D-03-0.576D-03 0.861D-03 0.482D-02
 Coeff:      0.125D-01 0.122D-01-0.574D-01-0.201D+00-0.184D+00 0.141D+01
 Gap=     0.049 Goal=   None    Shift=    0.000
 Gap=     0.042 Goal=   None    Shift=    0.000
 RMSDP=1.67D-05 MaxDP=1.28D-03 DE=-1.31D-07 OVMax= 7.59D-04

 Cycle  13  Pass 1  IDiag  1:
 E= -1136.10081941328     Delta-E=       -0.000000041100 Rises=F Damp=F
 DIIS: error= 1.36D-06 at cycle  13 NSaved=  13.
 NSaved=13 IEnMin=13 EnMin= -1136.10081941328     IErMin=13 ErrMin= 1.36D-06
 ErrMax= 1.36D-06  0.00D+00 EMaxC= 1.00D-01 BMatC= 5.92D-10 BMatP= 2.29D-09
 IDIUse=1 WtCom= 1.00D+00 WtEn= 0.00D+00
 Coeff-Com:  0.561D-04-0.717D-04-0.401D-03-0.600D-04-0.173D-02-0.658D-02
 Coeff-Com: -0.291D-02 0.193D-01 0.925D-01-0.751D-01-0.275D+00 0.103D+00
 Coeff-Com:  0.115D+01
 Coeff:      0.561D-04-0.717D-04-0.401D-03-0.600D-04-0.173D-02-0.658D-02
 Coeff:     -0.291D-02 0.193D-01 0.925D-01-0.751D-01-0.275D+00 0.103D+00
 Coeff:      0.115D+01
 Gap=     0.049 Goal=   None    Shift=    0.000
 Gap=     0.042 Goal=   None    Shift=    0.000
 RMSDP=6.90D-06 MaxDP=5.93D-04 DE=-4.11D-08 OVMax= 3.20D-04

 Cycle  14  Pass 1  IDiag  1:
 E= -1136.10081942077     Delta-E=       -0.000000007488 Rises=F Damp=F
 DIIS: error= 6.10D-07 at cycle  14 NSaved=  14.
 NSaved=14 IEnMin=14 EnMin= -1136.10081942077     IErMin=14 ErrMin= 6.10D-07
 ErrMax= 6.10D-07  0.00D+00 EMaxC= 1.00D-01 BMatC= 1.75D-10 BMatP= 5.92D-10
 IDIUse=1 WtCom= 1.00D+00 WtEn= 0.00D+00
 Coeff-Com:  0.225D-04-0.277D-04 0.217D-04 0.985D-04-0.102D-02-0.417D-02
 Coeff-Com: -0.402D-02 0.542D-02 0.516D-01 0.200D-01-0.632D-01-0.292D+00
 Coeff-Com:  0.365D+00 0.921D+00
 Coeff:      0.225D-04-0.277D-04 0.217D-04 0.985D-04-0.102D-02-0.417D-02
 Coeff:     -0.402D-02 0.542D-02 0.516D-01 0.200D-01-0.632D-01-0.292D+00
 Coeff:      0.365D+00 0.921D+00
 Gap=     0.049 Goal=   None    Shift=    0.000
 Gap=     0.042 Goal=   None    Shift=    0.000
 RMSDP=3.49D-06 MaxDP=4.79D-04 DE=-7.49D-09 OVMax= 1.19D-04

 Cycle  15  Pass 1  IDiag  1:
 E= -1136.10081942225     Delta-E=       -0.000000001485 Rises=F Damp=F
 DIIS: error= 3.21D-07 at cycle  15 NSaved=  15.
 NSaved=15 IEnMin=15 EnMin= -1136.10081942225     IErMin=15 ErrMin= 3.21D-07
 ErrMax= 3.21D-07  0.00D+00 EMaxC= 1.00D-01 BMatC= 3.97D-11 BMatP= 1.75D-10
 IDIUse=1 WtCom= 1.00D+00 WtEn= 0.00D+00
 Coeff-Com: -0.257D-04 0.335D-04 0.146D-03 0.196D-04 0.515D-03 0.184D-02
 Coeff-Com:  0.159D-02-0.687D-02-0.329D-01 0.410D-01 0.971D-01-0.118D+00
 Coeff-Com: -0.284D+00 0.113D+00 0.119D+01
 Coeff:     -0.257D-04 0.335D-04 0.146D-03 0.196D-04 0.515D-03 0.184D-02
 Coeff:      0.159D-02-0.687D-02-0.329D-01 0.410D-01 0.971D-01-0.118D+00
 Coeff:     -0.284D+00 0.113D+00 0.119D+01
 Gap=     0.049 Goal=   None    Shift=    0.000
 Gap=     0.042 Goal=   None    Shift=    0.000
 RMSDP=2.46D-06 MaxDP=3.31D-04 DE=-1.49D-09 OVMax= 6.42D-05

 Cycle  16  Pass 1  IDiag  1:
 E= -1136.10081942266     Delta-E=       -0.000000000404 Rises=F Damp=F
 DIIS: error= 1.46D-07 at cycle  16 NSaved=  16.
 NSaved=16 IEnMin=16 EnMin= -1136.10081942266     IErMin=16 ErrMin= 1.46D-07
 ErrMax= 1.46D-07  0.00D+00 EMaxC= 1.00D-01 BMatC= 5.86D-12 BMatP= 3.97D-11
 IDIUse=1 WtCom= 1.00D+00 WtEn= 0.00D+00
 Coeff-Com:  0.866D-06-0.143D-05-0.146D-04-0.974D-05 0.170D-03 0.244D-03
 Coeff-Com:  0.570D-03 0.888D-05-0.367D-02-0.853D-02-0.454D-02 0.686D-01
 Coeff-Com: -0.252D-01-0.189D+00-0.186D+00 0.135D+01
 Coeff:      0.866D-06-0.143D-05-0.146D-04-0.974D-05 0.170D-03 0.244D-03
 Coeff:      0.570D-03 0.888D-05-0.367D-02-0.853D-02-0.454D-02 0.686D-01
 Coeff:     -0.252D-01-0.189D+00-0.186D+00 0.135D+01
 Gap=     0.049 Goal=   None    Shift=    0.000
 Gap=     0.042 Goal=   None    Shift=    0.000
 RMSDP=1.31D-06 MaxDP=1.18D-04 DE=-4.04D-10 OVMax= 2.67D-05

 Cycle  17  Pass 1  IDiag  1:
 E= -1136.10081942273     Delta-E=       -0.000000000070 Rises=F Damp=F
 DIIS: error= 4.45D-08 at cycle  17 NSaved=  17.
 NSaved=17 IEnMin=17 EnMin= -1136.10081942273     IErMin=17 ErrMin= 4.45D-08
 ErrMax= 4.45D-08  0.00D+00 EMaxC= 1.00D-01 BMatC= 7.39D-13 BMatP= 5.86D-12
 IDIUse=1 WtCom= 1.00D+00 WtEn= 0.00D+00
 Coeff-Com:  0.435D-05-0.565D-05-0.171D-04-0.180D-05-0.719D-04-0.295D-03
 Coeff-Com: -0.291D-03 0.676D-03 0.553D-02-0.603D-02-0.135D-01 0.125D-01
 Coeff-Com:  0.443D-01-0.310D-02-0.177D+00-0.411D-01 0.118D+01
 Coeff:      0.435D-05-0.565D-05-0.171D-04-0.180D-05-0.719D-04-0.295D-03
 Coeff:     -0.291D-03 0.676D-03 0.553D-02-0.603D-02-0.135D-01 0.125D-01
 Coeff:      0.443D-01-0.310D-02-0.177D+00-0.411D-01 0.118D+01
 Gap=     0.049 Goal=   None    Shift=    0.000
 Gap=     0.042 Goal=   None    Shift=    0.000
 RMSDP=4.72D-07 MaxDP=3.91D-05 DE=-7.03D-11 OVMax= 8.16D-06

 Cycle  18  Pass 1  IDiag  1:
 E= -1136.10081942271     Delta-E=        0.000000000013 Rises=F Damp=F
 DIIS: error= 1.60D-08 at cycle  18 NSaved=  18.
 NSaved=18 IEnMin=17 EnMin= -1136.10081942273     IErMin=18 ErrMin= 1.60D-08
 ErrMax= 1.60D-08  0.00D+00 EMaxC= 1.00D-01 BMatC= 1.34D-13 BMatP= 7.39D-13
 IDIUse=1 WtCom= 1.00D+00 WtEn= 0.00D+00
 Coeff-Com:  0.662D-06-0.837D-06-0.398D-05-0.778D-06-0.358D-04-0.742D-04
 Coeff-Com: -0.836D-04 0.865D-04 0.140D-02-0.162D-03-0.222D-02-0.492D-02
 Coeff-Com:  0.102D-01 0.236D-01-0.713D-02-0.202D+00 0.291D+00 0.891D+00
 Coeff:      0.662D-06-0.837D-06-0.398D-05-0.778D-06-0.358D-04-0.742D-04
 Coeff:     -0.836D-04 0.865D-04 0.140D-02-0.162D-03-0.222D-02-0.492D-02
 Coeff:      0.102D-01 0.236D-01-0.713D-02-0.202D+00 0.291D+00 0.891D+00
 Gap=     0.049 Goal=   None    Shift=    0.000
 Gap=     0.042 Goal=   None    Shift=    0.000
 RMSDP=1.28D-07 MaxDP=9.52D-06 DE= 1.34D-11 OVMax= 2.01D-06

 Cycle  19  Pass 1  IDiag  1:
 E= -1136.10081942272     Delta-E=       -0.000000000005 Rises=F Damp=F
 DIIS: error= 8.40D-09 at cycle  19 NSaved=  19.
 NSaved=19 IEnMin=17 EnMin= -1136.10081942273     IErMin=19 ErrMin= 8.40D-09
 ErrMax= 8.40D-09  0.00D+00 EMaxC= 1.00D-01 BMatC= 2.97D-14 BMatP= 1.34D-13
 IDIUse=1 WtCom= 1.00D+00 WtEn= 0.00D+00
 Coeff-Com: -0.666D-06 0.874D-06 0.312D-05 0.796D-08 0.117D-04 0.265D-04
 Coeff-Com:  0.830D-04-0.927D-04-0.878D-03 0.823D-03 0.224D-02-0.175D-02
 Coeff-Com: -0.738D-02 0.462D-03 0.281D-01 0.101D-01-0.225D+00 0.579D-01
 Coeff-Com:  0.113D+01
 Coeff:     -0.666D-06 0.874D-06 0.312D-05 0.796D-08 0.117D-04 0.265D-04
 Coeff:      0.830D-04-0.927D-04-0.878D-03 0.823D-03 0.224D-02-0.175D-02
 Coeff:     -0.738D-02 0.462D-03 0.281D-01 0.101D-01-0.225D+00 0.579D-01
 Coeff:      0.113D+01
 Gap=     0.049 Goal=   None    Shift=    0.000
 Gap=     0.042 Goal=   None    Shift=    0.000
 RMSDP=6.26D-08 MaxDP=5.64D-06 DE=-4.55D-12 OVMax= 1.02D-06

 Cycle  20  Pass 1  IDiag  1:
 E= -1136.10081942273     Delta-E=       -0.000000000011 Rises=F Damp=F
 DIIS: error= 2.39D-09 at cycle  20 NSaved=  20.
 NSaved=20 IEnMin=20 EnMin= -1136.10081942273     IErMin=20 ErrMin= 2.39D-09
 ErrMax= 2.39D-09  0.00D+00 EMaxC= 1.00D-01 BMatC= 2.92D-15 BMatP= 2.97D-14
 IDIUse=1 WtCom= 1.00D+00 WtEn= 0.00D+00
 Large coefficients: NSaved= 20 BigCof=    0.00 CofMax=   10.00 Det=-5.62D-15
 Inversion failed.  Reducing to 19 matrices.
 Large coefficients: NSaved= 19 BigCof=    0.00 CofMax=   10.00 Det=-6.83D-15
 Inversion failed.  Reducing to 18 matrices.
 Large coefficients: NSaved= 18 BigCof=    0.00 CofMax=   10.00 Det=-7.00D-15
 Inversion failed.  Reducing to 17 matrices.
 Large coefficients: NSaved= 17 BigCof=    0.00 CofMax=   10.00 Det=-7.00D-15
 Inversion failed.  Reducing to 16 matrices.
 Large coefficients: NSaved= 16 BigCof=    0.00 CofMax=   10.00 Det=-7.59D-15
 Inversion failed.  Reducing to 15 matrices.
 Coeff-Com: -0.621D-05 0.184D-04 0.207D-04-0.494D-04-0.313D-04-0.662D-04
 Coeff-Com:  0.780D-03-0.855D-03-0.249D-02-0.203D-03 0.234D-01-0.322D-01
 Coeff-Com: -0.102D+00-0.407D-01 0.115D+01
 Coeff:     -0.621D-05 0.184D-04 0.207D-04-0.494D-04-0.313D-04-0.662D-04
 Coeff:      0.780D-03-0.855D-03-0.249D-02-0.203D-03 0.234D-01-0.322D-01
 Coeff:     -0.102D+00-0.407D-01 0.115D+01
 Gap=     0.049 Goal=   None    Shift=    0.000
 Gap=     0.042 Goal=   None    Shift=    0.000
 RMSDP=2.36D-08 MaxDP=2.58D-06 DE=-1.14D-11 OVMax= 3.54D-07

 Cycle  21  Pass 1  IDiag  1:
 E= -1136.10081942272     Delta-E=        0.000000000015 Rises=F Damp=F
 DIIS: error= 1.04D-09 at cycle  21 NSaved=  16.
 NSaved=16 IEnMin=15 EnMin= -1136.10081942273     IErMin=16 ErrMin= 1.04D-09
 ErrMax= 1.04D-09  0.00D+00 EMaxC= 1.00D-01 BMatC= 4.57D-16 BMatP= 2.92D-15
 IDIUse=1 WtCom= 1.00D+00 WtEn= 0.00D+00
 Large coefficients: NSaved= 16 BigCof=    0.00 CofMax=   10.00 Det=-1.41D-15
 Inversion failed.  Reducing to 15 matrices.
 Coeff-Com:  0.449D-05 0.384D-05-0.158D-04-0.513D-04-0.323D-04 0.348D-03
 Coeff-Com: -0.602D-04-0.106D-02-0.156D-02 0.929D-02 0.588D-02-0.495D-01
 Coeff-Com: -0.103D+00 0.266D+00 0.873D+00
 Coeff:      0.449D-05 0.384D-05-0.158D-04-0.513D-04-0.323D-04 0.348D-03
 Coeff:     -0.602D-04-0.106D-02-0.156D-02 0.929D-02 0.588D-02-0.495D-01
 Coeff:     -0.103D+00 0.266D+00 0.873D+00
 Gap=     0.049 Goal=   None    Shift=    0.000
 Gap=     0.042 Goal=   None    Shift=    0.000
 RMSDP=6.35D-09 MaxDP=4.83D-07 DE= 1.55D-11 OVMax= 1.16D-07

 SCF Done:  E(UB3LYP) =  -1136.10081942     A.U. after   21 cycles
            NFock= 21  Conv=0.63D-08     -V/T= 2.0027
 <Sx>= 0.0000 <Sy>= 0.0000 <Sz>= 0.5000 <S**2>= 0.7855 S= 0.5176
 <L.S>= 0.000000000000E+00
 KE= 1.133037504064D+03 PE=-3.361424446736D+03 EE= 7.761443443047D+02
 Annihilation of the first spin contaminant:
 S**2 before annihilation     0.7855,   after     0.7504
 Leave Link  502 at Mon Nov 13 12:13:46 2023, MaxMem=  1879048192 cpu:             209.8 elap:              17.7
 (Enter /home/sekinelabo/g16/l601.exe)
 Copying SCF densities to generalized density rwf, IOpCl= 1 IROHF=0.

 **********************************************************************

            Population analysis using the SCF Density.

 **********************************************************************

 Orbital symmetries:
 Alpha Orbitals:
       Occupied  (A) (A) (A) (A) (A) (A) (A) (A) (A) (A) (A) (A)
                 (A) (A) (A) (A) (A) (A) (A) (A) (A) (A) (A) (A)
                 (A) (A) (A) (A) (A) (A) (A) (A) (A) (A) (A) (A)
                 (A) (A) (A)
       Virtual   (A) (A) (A) (A) (A) (A) (A) (A) (A) (A) (A) (A)
                 (A) (A) (A) (A) (A) (A) (A) (A) (A) (A) (A) (A)
                 (A) (A) (A) (A) (A) (A) (A) (A) (A) (A) (A) (A)
                 (A) (A) (A) (A) (A) (A) (A) (A) (A) (A) (A) (A)
                 (A) (A) (A) (A) (A) (A) (A) (A) (A) (A) (A) (A)
                 (A) (A) (A) (A) (A) (A) (A) (A) (A) (A) (A) (A)
                 (A) (A) (A) (A) (A) (A) (A) (A) (A) (A) (A) (A)
                 (A) (A) (A) (A) (A) (A) (A) (A) (A) (A) (A) (A)
                 (A) (A) (A) (A) (A) (A) (A) (A) (A) (A) (A) (A)
                 (A) (A) (A) (A) (A) (A) (A) (A) (A) (A) (A) (A)
                 (A) (A) (A) (A) (A) (A) (A) (A) (A) (A) (A) (A)
                 (A) (A) (A) (A) (A) (A) (A) (A) (A) (A) (A) (A)
                 (A) (A) (A) (A) (A) (A) (A) (A) (A) (A) (A) (A)
                 (A) (A) (A) (A) (A) (A) (A) (A) (A) (A) (A) (A)
                 (A) (A) (A)
 Beta  Orbitals:
       Occupied  (A) (A) (A) (A) (A) (A) (A) (A) (A) (A) (A) (A)
                 (A) (A) (A) (A) (A) (A) (A) (A) (A) (A) (A) (A)
                 (A) (A) (A) (A) (A) (A) (A) (A) (A) (A) (A) (A)
                 (A) (A)
       Virtual   (A) (A) (A) (A) (A) (A) (A) (A) (A) (A) (A) (A)
                 (A) (A) (A) (A) (A) (A) (A) (A) (A) (A) (A) (A)
                 (A) (A) (A) (A) (A) (A) (A) (A) (A) (A) (A) (A)
                 (A) (A) (A) (A) (A) (A) (A) (A) (A) (A) (A) (A)
                 (A) (A) (A) (A) (A) (A) (A) (A) (A) (A) (A) (A)
                 (A) (A) (A) (A) (A) (A) (A) (A) (A) (A) (A) (A)
                 (A) (A) (A) (A) (A) (A) (A) (A) (A) (A) (A) (A)
                 (A) (A) (A) (A) (A) (A) (A) (A) (A) (A) (A) (A)
                 (A) (A) (A) (A) (A) (A) (A) (A) (A) (A) (A) (A)
                 (A) (A) (A) (A) (A) (A) (A) (A) (A) (A) (A) (A)
                 (A) (A) (A) (A) (A) (A) (A) (A) (A) (A) (A) (A)
                 (A) (A) (A) (A) (A) (A) (A) (A) (A) (A) (A) (A)
                 (A) (A) (A) (A) (A) (A) (A) (A) (A) (A) (A) (A)
                 (A) (A) (A) (A) (A) (A) (A) (A) (A) (A) (A) (A)
                 (A) (A) (A) (A)
 The electronic state is 2-A.
 Alpha  occ. eigenvalues --  -38.44777 -38.44734 -38.44645 -38.44174 -38.43834
 Alpha  occ. eigenvalues --  -38.43735 -38.43621  -2.20657  -2.20568  -2.20473
 Alpha  occ. eigenvalues --   -2.19968  -2.19808  -2.19711  -2.19591  -1.14357
 Alpha  occ. eigenvalues --   -1.14330  -1.14294  -1.14252  -1.14187  -1.14179
 Alpha  occ. eigenvalues --   -1.14167  -1.14096  -1.14078  -1.13699  -1.13621
 Alpha  occ. eigenvalues --   -1.13601  -1.13551  -1.13484  -1.13459  -1.13447
 Alpha  occ. eigenvalues --   -1.13370  -1.13350  -1.13210  -1.13193  -1.13174
 Alpha  occ. eigenvalues --   -0.17975  -0.13948  -0.12097  -0.11327
 Alpha virt. eigenvalues --   -0.06467  -0.05325  -0.04283  -0.03712  -0.02665
 Alpha virt. eigenvalues --   -0.02432  -0.01988  -0.01057  -0.00659  -0.00572
 Alpha virt. eigenvalues --   -0.00292   0.00072   0.00428   0.00545   0.00686
 Alpha virt. eigenvalues --    0.00774   0.01037   0.01054   0.01139   0.01287
 Alpha virt. eigenvalues --    0.01464   0.01721   0.01787   0.01850   0.01936
 Alpha virt. eigenvalues --    0.02003   0.02065   0.02296   0.02355   0.02576
 Alpha virt. eigenvalues --    0.02685   0.02758   0.02814   0.02863   0.02963
 Alpha virt. eigenvalues --    0.03050   0.03205   0.03299   0.03325   0.03547
 Alpha virt. eigenvalues --    0.03872   0.03969   0.04165   0.04422   0.04688
 Alpha virt. eigenvalues --    0.04866   0.05454   0.05623   0.05861   0.05921
 Alpha virt. eigenvalues --    0.06243   0.06416   0.06685   0.06880   0.07482
 Alpha virt. eigenvalues --    0.07908   0.08207   0.08229   0.08318   0.08684
 Alpha virt. eigenvalues --    0.08885   0.09121   0.09567   0.09876   0.10204
 Alpha virt. eigenvalues --    0.10594   0.11293   0.11854   0.12135   0.12865
 Alpha virt. eigenvalues --    0.13793   0.14211   0.14555   0.14687   0.15061
 Alpha virt. eigenvalues --    0.15302   0.15900   0.16809   0.17932   0.19627
 Alpha virt. eigenvalues --    0.24366   0.27570   0.29003   0.29253   0.29410
 Alpha virt. eigenvalues --    0.30520   0.31505   0.32534   0.32893   0.34309
 Alpha virt. eigenvalues --    0.34972   0.35093   0.35238   0.35649   0.36007
 Alpha virt. eigenvalues --    0.36883   0.37039   0.38430   0.38712   0.40351
 Alpha virt. eigenvalues --    0.41249   0.41815   0.42167   0.42822   0.43098
 Alpha virt. eigenvalues --    0.43478   0.44048   0.44182   0.44516   0.45257
 Alpha virt. eigenvalues --    0.45498   0.45750   0.46308   0.46716   0.47051
 Alpha virt. eigenvalues --    0.48110   0.48756   0.49376   0.49731   0.50211
 Alpha virt. eigenvalues --    0.51697   0.52315   0.52662   0.54439   0.55119
 Alpha virt. eigenvalues --    0.55807   0.56705   0.57241   0.58975   0.65373
 Alpha virt. eigenvalues --    0.68564   0.69234   0.73829   0.77087   0.78459
 Alpha virt. eigenvalues --    0.79515   2.06978   2.10343   2.10729   2.11414
 Alpha virt. eigenvalues --    2.19203   2.21481   2.32062   4.41152   4.41683
 Alpha virt. eigenvalues --    4.42070   4.42389   4.43300   4.44121   4.44575
 Alpha virt. eigenvalues --    4.45214   4.45347   4.45924   4.46089   4.46766
 Alpha virt. eigenvalues --    4.46839   4.47550   4.58630   4.60523   4.61657
 Alpha virt. eigenvalues --    4.65890   4.69079   4.71363   4.78970  96.27260
 Alpha virt. eigenvalues --   96.31731  96.32483  96.33284  96.43384  96.46312
 Alpha virt. eigenvalues --   96.60367
  Beta  occ. eigenvalues --  -38.44765 -38.44640 -38.44559 -38.44173 -38.43827
  Beta  occ. eigenvalues --  -38.43727 -38.43598  -2.20637  -2.20393  -2.20312
  Beta  occ. eigenvalues --   -2.19967  -2.19806  -2.19706  -2.19551  -1.14334
  Beta  occ. eigenvalues --   -1.14328  -1.14272  -1.14139  -1.14068  -1.14062
  Beta  occ. eigenvalues --   -1.14060  -1.13986  -1.13968  -1.13693  -1.13620
  Beta  occ. eigenvalues --   -1.13600  -1.13543  -1.13468  -1.13451  -1.13389
  Beta  occ. eigenvalues --   -1.13377  -1.13307  -1.13185  -1.13180  -1.13131
  Beta  occ. eigenvalues --   -0.17425  -0.13001  -0.12013
  Beta virt. eigenvalues --   -0.07800  -0.06322  -0.04595  -0.04160  -0.03630
  Beta virt. eigenvalues --   -0.02500  -0.01736  -0.01648  -0.00841  -0.00443
  Beta virt. eigenvalues --   -0.00340  -0.00112   0.00249   0.00487   0.00591
  Beta virt. eigenvalues --    0.00755   0.00816   0.01121   0.01138   0.01240
  Beta virt. eigenvalues --    0.01357   0.01507   0.01751   0.01828   0.01999
  Beta virt. eigenvalues --    0.02104   0.02142   0.02169   0.02390   0.02444
  Beta virt. eigenvalues --    0.02617   0.02737   0.02802   0.02896   0.02918
  Beta virt. eigenvalues --    0.03006   0.03109   0.03275   0.03332   0.03383
  Beta virt. eigenvalues --    0.03591   0.03973   0.04075   0.04199   0.04517
  Beta virt. eigenvalues --    0.04779   0.04927   0.05454   0.05666   0.05896
  Beta virt. eigenvalues --    0.06003   0.06371   0.06635   0.06728   0.06927
  Beta virt. eigenvalues --    0.07572   0.07974   0.08294   0.08475   0.08593
  Beta virt. eigenvalues --    0.08879   0.09099   0.09316   0.09828   0.10015
  Beta virt. eigenvalues --    0.10276   0.10669   0.11531   0.11968   0.12466
  Beta virt. eigenvalues --    0.12964   0.13894   0.14195   0.14621   0.14784
  Beta virt. eigenvalues --    0.15117   0.15452   0.16089   0.17039   0.18035
  Beta virt. eigenvalues --    0.19832   0.24584   0.27728   0.29139   0.29616
  Beta virt. eigenvalues --    0.29635   0.30723   0.31684   0.32880   0.32940
  Beta virt. eigenvalues --    0.34850   0.35588   0.35748   0.35782   0.36146
  Beta virt. eigenvalues --    0.36417   0.37388   0.37444   0.38946   0.39031
  Beta virt. eigenvalues --    0.40592   0.41445   0.41905   0.42312   0.42835
  Beta virt. eigenvalues --    0.43327   0.43640   0.44155   0.44277   0.44690
  Beta virt. eigenvalues --    0.45377   0.45603   0.45885   0.46353   0.46923
  Beta virt. eigenvalues --    0.47222   0.48236   0.48835   0.49434   0.49783
  Beta virt. eigenvalues --    0.50205   0.51786   0.52431   0.52724   0.54561
  Beta virt. eigenvalues --    0.55190   0.55969   0.56808   0.57340   0.58852
  Beta virt. eigenvalues --    0.65507   0.68772   0.69213   0.73897   0.77189
  Beta virt. eigenvalues --    0.78519   0.79453   2.07097   2.10680   2.10998
  Beta virt. eigenvalues --    2.11457   2.19278   2.21498   2.32095   4.41207
  Beta virt. eigenvalues --    4.41695   4.42154   4.42456   4.43336   4.44157
  Beta virt. eigenvalues --    4.44631   4.45326   4.45472   4.45995   4.46170
  Beta virt. eigenvalues --    4.46791   4.46868   4.47614   4.58641   4.60538
  Beta virt. eigenvalues --    4.61696   4.65908   4.69121   4.71393   4.79042
  Beta virt. eigenvalues --   96.27300  96.31840  96.32560  96.33313  96.43407
  Beta virt. eigenvalues --   96.46324  96.60385
          Condensed to atoms (all electrons):
               1          2          3          4          5          6
     1  Na  12.173940  -0.104985   0.221346  -1.216760   0.504060  -0.609033
     2  Na  -0.104985  11.394441  -0.240020   0.551035  -0.751862   0.300955
     3  Na   0.221346  -0.240020  12.042277  -1.837701   0.522154   1.033555
     4  Na  -1.216760   0.551035  -1.837701  14.843507  -1.607636  -1.122452
     5  Na   0.504060  -0.751862   0.522154  -1.607636  13.265471  -1.214947
     6  Na  -0.609033   0.300955   1.033555  -1.122452  -1.214947  13.932920
     7  Na   0.241694  -0.069421  -0.504204   1.070282   0.161969  -1.638665
               7
     1  Na   0.241694
     2  Na  -0.069421
     3  Na  -0.504204
     4  Na   1.070282
     5  Na   0.161969
     6  Na  -1.638665
     7  Na  11.968716
          Atomic-Atomic Spin Densities.
               1          2          3          4          5          6
     1  Na   0.959617   0.085699   0.108387  -0.972232   0.382883  -0.202796
     2  Na   0.085699   0.048454   0.006609  -0.099924   0.042328  -0.013850
     3  Na   0.108387   0.006609   0.450103  -0.166031  -0.031519   0.121597
     4  Na  -0.972232  -0.099924  -0.166031   1.259339  -0.260603  -0.230944
     5  Na   0.382883   0.042328  -0.031519  -0.260603   0.011933   0.099134
     6  Na  -0.202796  -0.013850   0.121597  -0.230944   0.099134   0.115823
     7  Na  -0.063280  -0.030768  -0.030228   0.223613  -0.013586  -0.135653
               7
     1  Na  -0.063280
     2  Na  -0.030768
     3  Na  -0.030228
     4  Na   0.223613
     5  Na  -0.013586
     6  Na  -0.135653
     7  Na   0.517060
 Mulliken charges and spin densities:
               1          2
     1  Na  -0.210262   0.298278
     2  Na  -0.080142   0.038548
     3  Na  -0.237408   0.458917
     4  Na   0.319724  -0.246783
     5  Na   0.120791   0.230571
     6  Na   0.317667  -0.246690
     7  Na  -0.230371   0.467159
 Sum of Mulliken charges =  -0.00000   1.00000
 Mulliken charges and spin densities with hydrogens summed into heavy atoms:
               1          2
     1  Na  -0.210262   0.298278
     2  Na  -0.080142   0.038548
     3  Na  -0.237408   0.458917
     4  Na   0.319724  -0.246783
     5  Na   0.120791   0.230571
     6  Na   0.317667  -0.246690
     7  Na  -0.230371   0.467159
 Electronic spatial extent (au):  <R**2>=           3029.8377
 Charge=             -0.0000 electrons
 Dipole moment (field-independent basis, Debye):
    X=              0.0081    Y=             -0.1072    Z=              1.3142  Tot=              1.3186
 Quadrupole moment (field-independent basis, Debye-Ang):
   XX=            -66.0852   YY=            -67.4555   ZZ=            -65.0404
   XY=              2.5010   XZ=              1.0969   YZ=              2.7813
 Traceless Quadrupole moment (field-independent basis, Debye-Ang):
   XX=              0.1085   YY=             -1.2618   ZZ=              1.1533
   XY=              2.5010   XZ=              1.0969   YZ=              2.7813
 Octapole moment (field-independent basis, Debye-Ang**2):
  XXX=              9.3785  YYY=              4.0101  ZZZ=             -0.4839  XYY=              3.4198
  XXY=             11.3813  XXZ=             30.7400  XZZ=             -3.4746  YZZ=             -1.0014
  YYZ=             22.2508  XYZ=              0.8366
 Hexadecapole moment (field-independent basis, Debye-Ang**3):
 XXXX=          -2856.8034 YYYY=          -1490.7515 ZZZZ=           -619.1007 XXXY=            -43.1680
 XXXZ=              7.8050 YYYX=            110.0384 YYYZ=             50.1276 ZZZX=              0.0205
 ZZZY=             10.5755 XXYY=           -806.0246 XXZZ=           -531.3938 YYZZ=           -386.3090
 XXYZ=             25.6520 YYXZ=             14.5301 ZZXY=             -9.5364
 N-N= 3.161417789451D+02 E-N=-3.361424446662D+03  KE= 1.133037504064D+03
                          Isotropic Fermi Contact Couplings
        Atom                 a.u.       MegaHertz       Gauss      10(-4) cm-1
     1  Na(23)             0.04410      52.17639      18.61783      17.40417
     2  Na(23)             0.00085       1.00906       0.36006       0.33659
     3  Na(23)             0.41041     485.52357     173.24688     161.95323
     4  Na(23)            -0.08154     -96.46483     -34.42105     -32.17721
     5  Na(23)             0.08788     103.96064      37.09574      34.67754
     6  Na(23)            -0.06886     -81.46167     -29.06755     -27.17269
     7  Na(23)             0.37856     447.84930     159.80377     149.38645
 --------------------------------------------------------
       Center         ----  Spin Dipole Couplings  ----
                      3XX-RR        3YY-RR        3ZZ-RR
 --------------------------------------------------------
     1   Atom       -0.022614      0.004119      0.018495
     2   Atom        0.000147     -0.001299      0.001151
     3   Atom       -0.001884      0.002474     -0.000591
     4   Atom        0.050970     -0.036479     -0.014491
     5   Atom       -0.021157      0.024335     -0.003178
     6   Atom        0.059327     -0.041552     -0.017775
     7   Atom       -0.003574      0.003233      0.000340
 --------------------------------------------------------
                        XY            XZ            YZ
 --------------------------------------------------------
     1   Atom        0.002258      0.000139     -0.013493
     2   Atom        0.000264      0.002148     -0.000028
     3   Atom        0.002166      0.004748     -0.001135
     4   Atom       -0.025765     -0.051236      0.015450
     5   Atom        0.002502      0.000131      0.008162
     6   Atom        0.001296      0.047543      0.003107
     7   Atom       -0.001820     -0.004393     -0.001223
 --------------------------------------------------------


 ---------------------------------------------------------------------------------
              Anisotropic Spin Dipole Couplings in Principal Axis System
 ---------------------------------------------------------------------------------

       Atom             a.u.   MegaHertz   Gauss  10(-4) cm-1        Axes

              Baa    -0.0228    -3.227    -1.151    -1.076  0.9942 -0.1015 -0.0365
     1 Na(23) Bbb    -0.0038    -0.532    -0.190    -0.177  0.1057  0.8507  0.5149
              Bcc     0.0266     3.759     1.341     1.254 -0.0212 -0.5158  0.8564
 
              Baa    -0.0017    -0.238    -0.085    -0.079  0.6866 -0.5035 -0.5245
     2 Na(23) Bbb    -0.0012    -0.166    -0.059    -0.055  0.3757  0.8633 -0.3370
              Bcc     0.0029     0.404     0.144     0.135  0.6225  0.0344  0.7819
 
              Baa    -0.0067    -0.939    -0.335    -0.313  0.7380 -0.2530 -0.6256
     3 Na(23) Bbb     0.0027     0.385     0.137     0.129 -0.1997  0.8037 -0.5606
              Bcc     0.0039     0.554     0.198     0.185  0.6446  0.5386  0.5426
 
              Baa    -0.0445    -6.282    -2.242    -2.095 -0.0659  0.8368 -0.5436
     4 Na(23) Bbb    -0.0419    -5.915    -2.111    -1.973  0.5211  0.4935  0.6964
              Bcc     0.0864    12.197     4.352     4.069  0.8509 -0.2374 -0.4686
 
              Baa    -0.0213    -3.008    -1.073    -1.003  0.9981 -0.0581  0.0190
     5 Na(23) Bbb    -0.0054    -0.762    -0.272    -0.254 -0.0336 -0.2619  0.9645
              Bcc     0.0267     3.770     1.345     1.258  0.0511  0.9633  0.2634
 
              Baa    -0.0433    -6.120    -2.184    -2.041  0.2488  0.7910 -0.5589
     6 Na(23) Bbb    -0.0387    -5.464    -1.950    -1.823 -0.3518  0.6114  0.7088
              Bcc     0.0820    11.585     4.134     3.864  0.9024  0.0203  0.4305
 
              Baa    -0.0069    -0.974    -0.348    -0.325  0.8194  0.2114  0.5329
     7 Na(23) Bbb     0.0032     0.451     0.161     0.150 -0.5555  0.0632  0.8291
              Bcc     0.0037     0.524     0.187     0.175 -0.1416  0.9753 -0.1693
 

 ---------------------------------------------------------------------------------

 No NMR shielding tensors so no spin-rotation constants.
 Leave Link  601 at Mon Nov 13 12:13:47 2023, MaxMem=  1879048192 cpu:               2.7 elap:               0.2
 (Enter /home/sekinelabo/g16/l701.exe)
 ... and contract with generalized density number  0.
 Compute integral first derivatives.
 Leave Link  701 at Mon Nov 13 12:13:47 2023, MaxMem=  1879048192 cpu:               1.7 elap:               0.1
 (Enter /home/sekinelabo/g16/l702.exe)
 L702 exits ... SP integral derivatives will be done elsewhere.
 Leave Link  702 at Mon Nov 13 12:13:47 2023, MaxMem=  1879048192 cpu:               0.5 elap:               0.0
 (Enter /home/sekinelabo/g16/l703.exe)
 Integral derivatives from FoFJK, PRISM(SPDF).
 Compute integral first derivatives, UseDBF=F ICtDFT=           0.
 Calling FoFJK, ICntrl=      2127 FMM=F ISym2X=0 I1Cent= 0 IOpClX= 1 NMat=1 NMatS=1 NMatT=0.
 FoFJK:  IHMeth= 1 ICntrl=    2127 DoSepK=F KAlg= 0 I1Cent=           0 FoldK=F
 IRaf=         0 NMat=       1 IRICut=       1 DoRegI=T DoRafI=F ISym2E= 0 IDoP0=0 IntGTp=1.
 FoFCou: FMM=F IPFlag=           0 FMFlag=      100000 FMFlg1=         800
         NFxFlg=           0 DoJE=F BraDBF=F KetDBF=F FulRan=T
         wScrn=  0.000000 ICntrl=      2127 IOpCl=  1 I1Cent=           0 NGrid=           0
         NMat0=    1 NMatS0=      1 NMatT0=    0 NMatD0=    1 NMtDS0=    0 NMtDT0=    0
 Symmetry not used in FoFCou.
 Leave Link  703 at Mon Nov 13 12:13:49 2023, MaxMem=  1879048192 cpu:              33.2 elap:               2.1
 (Enter /home/sekinelabo/g16/l716.exe)
 Dipole        = 3.18717149D-03-4.21820454D-02 5.17038438D-01
 ***** Axes restored to original set *****
 -------------------------------------------------------------------
 Center     Atomic                   Forces (Hartrees/Bohr)
 Number     Number              X              Y              Z
 -------------------------------------------------------------------
      1       11           0.000784298    0.005955741   -0.003589455
      2       11           0.001989560   -0.000899610   -0.000947478
      3       11          -0.001990915   -0.001342634   -0.002965006
      4       11          -0.005373903    0.001953244    0.004236058
      5       11          -0.001621629   -0.006897318    0.002739828
      6       11           0.004470200    0.001157385    0.003476139
      7       11           0.001742389    0.000073190   -0.002950086
 -------------------------------------------------------------------
 Cartesian Forces:  Max     0.006897318 RMS     0.003256428
 Z-matrix is all fixed cartesians, so copy forces.
 Force constants in Cartesian coordinates: 
                1             2             3             4             5 
      1  0.476705D-01
      2  0.665121D-03  0.488495D-01
      3  0.182719D-02 -0.238713D-01  0.248668D-01
      4 -0.127391D-04 -0.947102D-05 -0.227269D-04  0.144670D-01
      5 -0.255450D-05 -0.308643D-04 -0.825038D-04 -0.869228D-02  0.222736D-01
      6 -0.664591D-05  0.316241D-04  0.865418D-04 -0.671913D-02  0.122347D-01
      7 -0.137964D-02 -0.224401D-03 -0.323927D-02 -0.372639D-04 -0.396277D-04
      8 -0.185351D-02 -0.311060D-03 -0.437186D-02 -0.332918D-04 -0.354036D-04
      9  0.197502D-02  0.325447D-03  0.464595D-02  0.459845D-04  0.489015D-04
     10 -0.244180D-01 -0.233017D-02  0.260851D-02  0.717385D-03 -0.325189D-04
     11 -0.147467D-01 -0.221548D-01  0.148379D-01  0.201616D-02 -0.428385D-03
     12  0.388382D-02  0.980650D-02 -0.170499D-01  0.450475D-02 -0.152498D-02
     13  0.741160D-02  0.119306D-02  0.953906D-05 -0.182846D-01  0.606167D-02
     14  0.119684D-02 -0.675042D-02  0.176764D-02  0.100910D-01 -0.188631D-01
     15 -0.222378D-03  0.375996D-02 -0.673840D-03  0.554639D-02 -0.769134D-02
     16 -0.271753D-01  0.131812D-02 -0.479269D-02  0.317829D-02  0.268923D-02
     17  0.124879D-01 -0.202550D-01  0.156078D-01 -0.339042D-02 -0.290533D-02
     18 -0.511011D-02  0.106328D-01 -0.159169D-01 -0.332476D-02 -0.300230D-02
     19 -0.209641D-02 -0.612258D-03  0.360945D-02 -0.280192D-04  0.160831D-04
     20  0.225292D-02  0.652672D-03 -0.388762D-02  0.183090D-04 -0.105094D-04
     21 -0.234690D-02 -0.685031D-03  0.404135D-02 -0.305140D-04  0.175151D-04
                6             7             8             9            10 
      6  0.166495D-01
      7  0.211521D-04  0.181927D-01
      8  0.188974D-04  0.581076D-02  0.118609D-01
      9 -0.261022D-04  0.135800D-01  0.629524D-02  0.231554D-01
     10  0.596902D-03 -0.153183D-01 -0.618669D-02 -0.158350D-01  0.747564D-01
     11  0.210296D-02 -0.292844D-02 -0.154215D-01 -0.715922D-02  0.547378D-02
     12  0.541552D-02 -0.706167D-02 -0.647252D-02 -0.285655D-01  0.109385D-01
     13  0.708193D-02 -0.146116D-02  0.226443D-02  0.236362D-03 -0.280500D-01
     14 -0.154563D-01 -0.258566D-02  0.388864D-02  0.470260D-03  0.385522D-02
     15 -0.232936D-01 -0.321460D-02  0.451748D-02  0.723792D-03  0.480791D-03
     16 -0.932195D-03  0.371748D-05 -0.170524D-05 -0.238142D-05 -0.768422D-02
     17  0.104063D-02 -0.326379D-04  0.184593D-04  0.193770D-04 -0.777420D-03
     18  0.121393D-02 -0.855960D-04  0.127735D-04  0.664590D-04  0.121343D-02
     19 -0.420131D-04  0.000000D+00  0.000000D+00  0.000000D+00 -0.319572D-05
     20  0.274532D-04  0.000000D+00  0.000000D+00  0.000000D+00 -0.219674D-05
     21 -0.457539D-04  0.000000D+00  0.000000D+00  0.000000D+00 -0.317055D-05
               11            12            13            14            15 
     11  0.617351D-01
     12 -0.372181D-03  0.577823D-01
     13  0.117595D-01 -0.113336D-01  0.715125D-01
     14 -0.303414D-01  0.101864D-02 -0.106008D-01  0.806116D-01
     15 -0.711364D-02 -0.188223D-01 -0.655079D-02  0.837494D-02  0.522117D-01
     16 -0.160145D-02 -0.101260D-02 -0.301195D-01 -0.318209D-02  0.213342D-02
     17  0.658811D-02 -0.247875D-02 -0.746534D-02 -0.323147D-01 -0.697644D-02
     18 -0.232237D-02  0.115738D-02  0.113753D-01  0.282051D-02 -0.116785D-01
     19  0.271080D-04  0.807909D-04 -0.100875D-02  0.122550D-02  0.182717D-02
     20  0.228802D-04  0.232878D-04 -0.321255D-02  0.376929D-02  0.512904D-02
     21  0.265875D-04  0.824853D-04 -0.818718D-03  0.100429D-02  0.153283D-02
               16            17            18            19            20 
     16  0.811695D-01
     17 -0.174106D-02  0.625896D-01
     18 -0.138323D-01 -0.646964D-02  0.521105D-01
     19 -0.193724D-01  0.919003D-03  0.976407D-02  0.225088D-01
     20  0.251896D-02 -0.137211D-01 -0.167178D-02 -0.157544D-02  0.928681D-02
     21  0.184388D-01 -0.742988D-03 -0.269529D-01 -0.152395D-01  0.379627D-03
               21 
     21  0.213420D-01
 Leave Link  716 at Mon Nov 13 12:13:49 2023, MaxMem=  1879048192 cpu:               0.4 elap:               0.0
 (Enter /home/sekinelabo/g16/l103.exe)

 GradGradGradGradGradGradGradGradGradGradGradGradGradGradGradGradGradGrad
 Berny optimization.
 Search for a local minimum.
 Step number   1 out of a maximum of    2
 All quantities printed in internal units (Hartrees-Bohrs-Radians)
 Second derivative matrix not updated -- first step.
 ITU=  0
     Eigenvalues ---    0.00063   0.00762   0.00824   0.01927   0.02524
     Eigenvalues ---    0.02685   0.03818   0.05167   0.06145   0.06916
     Eigenvalues ---    0.08126   0.09757   0.11269   0.13261   0.14315
 Quadratic step=6.778D-01 exceeds max=3.000D-01 adjusted using Lamda=-2.900D-03.
 Angle between NR and scaled steps=  41.32 degrees.
 Angle between quadratic step and forces=  35.65 degrees.
 Linear search not attempted -- first point.
 B after Tr=     0.000000    0.000000    0.000000
         Rot=    1.000000   -0.000000   -0.000000   -0.000000 Ang=   0.00 deg.
 Variable       Old X    -DE/DX   Delta X   Delta X   Delta X     New X
                                 (Linear)    (Quad)   (Total)
    X1        7.17492   0.00078   0.00000   0.01398   0.01398   7.18890
    Y1       11.43460   0.00596   0.00000   0.10744   0.10744  11.54203
    Z1        2.25508  -0.00359   0.00000   0.03780   0.03780   2.29288
    X2       10.22893   0.00199   0.00000   0.08839   0.08839  10.31732
    Y2        0.00000  -0.00090   0.00000  -0.05977  -0.05977  -0.05977
    Z2        1.84852  -0.00095   0.00000   0.03217   0.03217   1.88069
    X3        0.00000  -0.00199   0.00000  -0.08749  -0.08749  -0.08749
    Y3        5.77091  -0.00134   0.00000   0.00446   0.00446   5.77537
    Z3        0.00000  -0.00297   0.00000  -0.09953  -0.09953  -0.09953
    X4        3.45700  -0.00537   0.00000  -0.10558  -0.10558   3.35142
    Y4        7.57301   0.00195   0.00000   0.02624   0.02624   7.59925
    Z4        4.10609   0.00424   0.00000   0.03288   0.03288   4.13897
    X5        7.77344  -0.00162   0.00000  -0.02415  -0.02415   7.74929
    Y5        4.00057  -0.00690   0.00000  -0.08767  -0.08767   3.91291
    Z5        5.01759   0.00274   0.00000   0.06864   0.06864   5.08623
    X6       11.44544   0.00447   0.00000   0.07499   0.07499  11.52043
    Y6        8.24934   0.00116   0.00000   0.00444   0.00444   8.25378
    Z6        4.19515   0.00348   0.00000   0.04028   0.04028   4.23543
    X7       15.52755   0.00174   0.00000   0.03985   0.03985  15.56740
    Y7        7.96612   0.00007   0.00000   0.00485   0.00485   7.97097
    Z7        0.27686  -0.00295   0.00000  -0.11222  -0.11222   0.16463
         Item               Value     Threshold  Converged?
 Maximum Force            0.006897     0.000450     NO 
 RMS     Force            0.003256     0.000300     NO 
 Maximum Displacement     0.112225     0.001800     NO 
 RMS     Displacement     0.065661     0.001200     NO 
 Predicted change in Energy=-1.955641D-03
 GradGradGradGradGradGradGradGradGradGradGradGradGradGradGradGradGradGrad

 Leave Link  103 at Mon Nov 13 12:13:49 2023, MaxMem=  1879048192 cpu:               0.2 elap:               0.0
 (Enter /home/sekinelabo/g16/l9999.exe)
 1\1\GINC-SEKINELABO-XA7R-R37\Force\UB3LYP\6-311+G(d)\Na7(2)\SEKINELABO
 \13-Nov-2023\0\\#P B3LYP/6-311+g(d) force\\Gaussian input prepared by 
 ASE\\0,2\Na,3.7968025913,6.050927603,1.1933392846\Na,5.412915778,0.,0.
 9781945103\Na,0.,3.0538339679,0.\Na,1.8293680879,4.0074629818,2.172851
 3785\Na,4.113527959,2.1170123317,2.6551932116\Na,6.05666638,4.36536204
 31,2.2199776097\Na,8.2168251541,4.2154884175,0.146505442\\Version=ES64
 L-G16RevB.01\State=2-A\HF=-1136.1008194\S2=0.785458\S2-1=0.\S2A=0.7504
 04\RMSD=6.348e-09\RMSF=3.256e-03\Dipole=0.0031872,0.042182,-0.5170384\
 Quadrupole=0.0806482,-0.9381095,0.8574613,-1.8594438,-0.8155052,2.0678
 342\PG=C01 [X(Na7)]\\@


 The lyf so short, the craft so long to lerne.
                             -- Chaucer
 Job cpu time:       0 days  0 hours  4 minutes 22.3 seconds.
 Elapsed time:       0 days  0 hours  0 minutes 21.1 seconds.
 File lengths (MBytes):  RWF=     32 Int=      0 D2E=      0 Chk=      5 Scr=      1
 Normal termination of Gaussian 16 at Mon Nov 13 12:13:49 2023.
