 Entering Gaussian System, Link 0=g16
 Initial command:
 /home/sekinelabo/g16/l1.exe "/home/sekinelabo/g16temp/Gau-3984098.inp" -scrdir="/home/sekinelabo/g16temp/"
 Entering Link 1 = /home/sekinelabo/g16/l1.exe PID=   3984100.
  
 Copyright (c) 1988-2017, Gaussian, Inc.  All Rights Reserved.
  
 This is part of the Gaussian(R) 16 program.  It is based on
 the Gaussian(R) 09 system (copyright 2009, Gaussian, Inc.),
 the Gaussian(R) 03 system (copyright 2003, Gaussian, Inc.),
 the Gaussian(R) 98 system (copyright 1998, Gaussian, Inc.),
 the Gaussian(R) 94 system (copyright 1995, Gaussian, Inc.),
 the Gaussian 92(TM) system (copyright 1992, Gaussian, Inc.),
 the Gaussian 90(TM) system (copyright 1990, Gaussian, Inc.),
 the Gaussian 88(TM) system (copyright 1988, Gaussian, Inc.),
 the Gaussian 86(TM) system (copyright 1986, Carnegie Mellon
 University), and the Gaussian 82(TM) system (copyright 1983,
 Carnegie Mellon University). Gaussian is a federally registered
 trademark of Gaussian, Inc.
  
 This software contains proprietary and confidential information,
 including trade secrets, belonging to Gaussian, Inc.
  
 This software is provided under written license and may be
 used, copied, transmitted, or stored only in accord with that
 written license.
  
 The following legend is applicable only to US Government
 contracts under FAR:
  
                    RESTRICTED RIGHTS LEGEND
  
 Use, reproduction and disclosure by the US Government is
 subject to restrictions as set forth in subparagraphs (a)
 and (c) of the Commercial Computer Software - Restricted
 Rights clause in FAR 52.227-19.
  
 Gaussian, Inc.
 340 Quinnipiac St., Bldg. 40, Wallingford CT 06492
  
  
 ---------------------------------------------------------------
 Warning -- This program may not be used in any manner that
 competes with the business of Gaussian, Inc. or will provide
 assistance to any competitor of Gaussian, Inc.  The licensee
 of this program is prohibited from giving any competitor of
 Gaussian, Inc. access to this program.  By using this program,
 the user acknowledges that Gaussian, Inc. is engaged in the
 business of creating and licensing software in the field of
 computational chemistry and represents and warrants to the
 licensee that it is not a competitor of Gaussian, Inc. and that
 it will not use this program in any manner prohibited above.
 ---------------------------------------------------------------
  

 Cite this work as:
 Gaussian 16, Revision B.01,
 M. J. Frisch, G. W. Trucks, H. B. Schlegel, G. E. Scuseria, 
 M. A. Robb, J. R. Cheeseman, G. Scalmani, V. Barone, 
 G. A. Petersson, H. Nakatsuji, X. Li, M. Caricato, A. V. Marenich, 
 J. Bloino, B. G. Janesko, R. Gomperts, B. Mennucci, H. P. Hratchian, 
 J. V. Ortiz, A. F. Izmaylov, J. L. Sonnenberg, D. Williams-Young, 
 F. Ding, F. Lipparini, F. Egidi, J. Goings, B. Peng, A. Petrone, 
 T. Henderson, D. Ranasinghe, V. G. Zakrzewski, J. Gao, N. Rega, 
 G. Zheng, W. Liang, M. Hada, M. Ehara, K. Toyota, R. Fukuda, 
 J. Hasegawa, M. Ishida, T. Nakajima, Y. Honda, O. Kitao, H. Nakai, 
 T. Vreven, K. Throssell, J. A. Montgomery, Jr., J. E. Peralta, 
 F. Ogliaro, M. J. Bearpark, J. J. Heyd, E. N. Brothers, K. N. Kudin, 
 V. N. Staroverov, T. A. Keith, R. Kobayashi, J. Normand, 
 K. Raghavachari, A. P. Rendell, J. C. Burant, S. S. Iyengar, 
 J. Tomasi, M. Cossi, J. M. Millam, M. Klene, C. Adamo, R. Cammi, 
 J. W. Ochterski, R. L. Martin, K. Morokuma, O. Farkas, 
 J. B. Foresman, and D. J. Fox, Gaussian, Inc., Wallingford CT, 2016.
 
 ******************************************
 Gaussian 16:  ES64L-G16RevB.01 20-Dec-2017
                13-Nov-2023 
 ******************************************
 %mem=14GB
 %chk=checkpoint.chk
 %nprocshared=16
 Will use up to   16 processors via shared memory.
 -------------------------
 #P B3LYP/6-311+g(d) force
 -------------------------
 1/10=7,30=1,38=1/1,3;
 2/12=2,17=6,18=5,40=1/2;
 3/5=4,6=6,7=11,11=2,25=1,30=1,71=1,74=-5/1,2,3;
 4//1;
 5/5=2,38=5/2;
 6/7=2,8=2,9=2,10=2,28=1/1;
 7/29=1/1,2,3,16;
 1/10=7,30=1/3;
 99//99;
 Leave Link    1 at Mon Nov 13 12:22:57 2023, MaxMem=  1879048192 cpu:               0.3 elap:               0.0
 (Enter /home/sekinelabo/g16/l101.exe)
 ------------------------------
 Gaussian input prepared by ASE
 ------------------------------
 Symbolic Z-matrix:
 Charge =  0 Multiplicity = 2
 Na                    7.84872   1.01537   2.95784 
 Na                    3.79476   0.        1.40247 
 Na                    0.        2.48881   2.03941 
 Na                    2.71075   2.72277   0.77574 
 Na                    5.59718   2.39849   1.53551 
 Na                    8.2306    3.79289   1.89606 
 Na                    8.00933   1.48372   0. 
 
 ITRead=  0  0  0  0  0  0  0
 MicOpt= -1 -1 -1 -1 -1 -1 -1
 NAtoms=      7 NQM=        7 NQMF=       0 NMMI=      0 NMMIF=      0
                NMic=       0 NMicF=      0.
                    Isotopes and Nuclear Properties:
 (Nuclear quadrupole moments (NQMom) in fm**2, nuclear magnetic moments (NMagM)
  in nuclear magnetons)

  Atom         1           2           3           4           5           6           7
 IAtWgt=          23          23          23          23          23          23          23
 AtmWgt=  22.9897697  22.9897697  22.9897697  22.9897697  22.9897697  22.9897697  22.9897697
 NucSpn=           3           3           3           3           3           3           3
 AtZEff=  -0.0000000  -0.0000000  -0.0000000  -0.0000000  -0.0000000  -0.0000000  -0.0000000
 NQMom=   10.4000000  10.4000000  10.4000000  10.4000000  10.4000000  10.4000000  10.4000000
 NMagM=    2.2175200   2.2175200   2.2175200   2.2175200   2.2175200   2.2175200   2.2175200
 AtZNuc=  11.0000000  11.0000000  11.0000000  11.0000000  11.0000000  11.0000000  11.0000000
 Leave Link  101 at Mon Nov 13 12:22:58 2023, MaxMem=  1879048192 cpu:               2.7 elap:               0.2
 (Enter /home/sekinelabo/g16/l103.exe)

 GradGradGradGradGradGradGradGradGradGradGradGradGradGradGradGradGradGrad
 Berny optimization.
 Initialization pass.
 Trust Radius=3.00D-01 FncErr=1.00D-07 GrdErr=1.00D-07 EigMax=2.50D+02 EigMin=1.00D-04
 Number of steps in this run=      2 maximum allowed number of steps=      2.
 GradGradGradGradGradGradGradGradGradGradGradGradGradGradGradGradGradGrad

 Leave Link  103 at Mon Nov 13 12:22:58 2023, MaxMem=  1879048192 cpu:               0.2 elap:               0.0
 (Enter /home/sekinelabo/g16/l202.exe)
                          Input orientation:                          
 ---------------------------------------------------------------------
 Center     Atomic      Atomic             Coordinates (Angstroms)
 Number     Number       Type             X           Y           Z
 ---------------------------------------------------------------------
      1         11           0        7.848722    1.015375    2.957841
      2         11           0        3.794756    0.000000    1.402467
      3         11           0        0.000000    2.488808    2.039415
      4         11           0        2.710747    2.722771    0.775737
      5         11           0        5.597184    2.398491    1.535508
      6         11           0        8.230598    3.792888    1.896064
      7         11           0        8.009330    1.483719    0.000000
 ---------------------------------------------------------------------
                    Distance matrix (angstroms):
                    1          2          3          4          5
     1  Na   0.000000
     2  Na   4.459239   0.000000
     3  Na   8.038467   4.582580   0.000000
     4  Na   5.837429   2.996890   2.999961   0.000000
     5  Na   3.000911   3.003199   5.620547   3.002321   0.000000
     6  Na   2.997963   5.857161   8.334501   5.733153   3.001535
     7  Na   2.998994   4.683052   8.325791   5.496545   3.002173
                    6          7
     6  Na   0.000000
     7  Na   2.996044   0.000000
 Stoichiometry    Na7(2)
 Framework group  C1[X(Na7)]
 Deg. of freedom    15
 Full point group                 C1      NOp   1
 Largest Abelian subgroup         C1      NOp   1
 Largest concise Abelian subgroup C1      NOp   1
                         Standard orientation:                         
 ---------------------------------------------------------------------
 Center     Atomic      Atomic             Coordinates (Angstroms)
 Number     Number       Type             X           Y           Z
 ---------------------------------------------------------------------
      1         11           0        2.678531    0.970633   -1.442550
      2         11           0       -1.375435    1.986008    0.112823
      3         11           0       -5.170191   -0.502801   -0.524124
      4         11           0       -2.459444   -0.736764    0.739553
      5         11           0        0.426993   -0.412484   -0.020218
      6         11           0        3.060407   -1.806881   -0.380774
      7         11           0        2.839139    0.502288    1.515290
 ---------------------------------------------------------------------
 Rotational constants (GHZ):           1.4927801           0.3391774           0.3194036
 Leave Link  202 at Mon Nov 13 12:22:58 2023, MaxMem=  1879048192 cpu:               0.0 elap:               0.0
 (Enter /home/sekinelabo/g16/l301.exe)
 Standard basis: 6-311+G(d) (5D, 7F)
 Ernie: Thresh=  0.10000D-02 Tol=  0.10000D-05 Strict=F.
 There are   217 symmetry adapted cartesian basis functions of A   symmetry.
 There are   210 symmetry adapted basis functions of A   symmetry.
   210 basis functions,   350 primitive gaussians,   217 cartesian basis functions
    39 alpha electrons       38 beta electrons
       nuclear repulsion energy       334.8889402971 Hartrees.
 IExCor=  402 DFT=T Ex+Corr=B3LYP ExCW=0 ScaHFX=  0.200000
 ScaDFX=  0.800000  0.720000  1.000000  0.810000 ScalE2=  1.000000  1.000000
 IRadAn=      5 IRanWt=     -1 IRanGd=            0 ICorTp=0 IEmpDi=  4
 NAtoms=    7 NActive=    7 NUniq=    7 SFac= 1.00D+00 NAtFMM=   60 NAOKFM=F Big=F
 Integral buffers will be    131072 words long.
 Raffenetti 2 integral format.
 Two-electron integral symmetry is turned on.
 Leave Link  301 at Mon Nov 13 12:22:58 2023, MaxMem=  1879048192 cpu:               0.5 elap:               0.0
 (Enter /home/sekinelabo/g16/l302.exe)
 NPDir=0 NMtPBC=     1 NCelOv=     1 NCel=       1 NClECP=     1 NCelD=      1
         NCelK=      1 NCelE2=     1 NClLst=     1 CellRange=     0.0.
 One-electron integrals computed using PRISM.
 One-electron integral symmetry used in STVInt
 NBasis=   210 RedAO= T EigKep=  2.44D-06  NBF=   210
 NBsUse=   209 1.00D-06 EigRej=  8.38D-07 NBFU=   209
 Precomputing XC quadrature grid using
 IXCGrd= 4 IRadAn=           5 IRanWt=          -1 IRanGd=           0 AccXCQ= 0.00D+00.
 Generated NRdTot=       0 NPtTot=           0 NUsed=           0 NTot=          32
 NSgBfM=   207   207   207   207   207 MxSgAt=     7 MxSgA2=     7.
 Leave Link  302 at Mon Nov 13 12:22:58 2023, MaxMem=  1879048192 cpu:               2.1 elap:               0.1
 (Enter /home/sekinelabo/g16/l303.exe)
 DipDrv:  MaxL=1.
 Leave Link  303 at Mon Nov 13 12:22:58 2023, MaxMem=  1879048192 cpu:               0.6 elap:               0.0
 (Enter /home/sekinelabo/g16/l401.exe)
 ExpMin= 7.60D-03 ExpMax= 3.62D+04 ExpMxC= 1.21D+03 IAcc=3 IRadAn=         5 AccDes= 0.00D+00
 Harris functional with IExCor=  402 and IRadAn=       5 diagonalized for initial guess.
 HarFok:  IExCor=  402 AccDes= 0.00D+00 IRadAn=         5 IDoV= 1 UseB2=F ITyADJ=14
 ICtDFT=  3500011 ScaDFX=  1.000000  1.000000  1.000000  1.000000
 FoFCou: FMM=F IPFlag=           0 FMFlag=      100000 FMFlg1=           0
         NFxFlg=           0 DoJE=T BraDBF=F KetDBF=T FulRan=T
         wScrn=  0.000000 ICntrl=       500 IOpCl=  0 I1Cent=   200000004 NGrid=           0
         NMat0=    1 NMatS0=      1 NMatT0=    0 NMatD0=    1 NMtDS0=    0 NMtDT0=    0
 Petite list used in FoFCou.
 Harris En= -1135.85729465367    
 JPrj=0 DoOrth=F DoCkMO=F.
 Initial guess <Sx>= 0.0000 <Sy>= 0.0000 <Sz>= 0.5000 <S**2>= 0.7500 S= 0.5000
 Leave Link  401 at Mon Nov 13 12:22:59 2023, MaxMem=  1879048192 cpu:              11.6 elap:               0.8
 (Enter /home/sekinelabo/g16/l502.exe)
 Keep R1 and R2 ints in memory in canonical form, NReq=507620374.
 FoFCou: FMM=F IPFlag=           0 FMFlag=           0 FMFlg1=           0
         NFxFlg=           0 DoJE=F BraDBF=F KetDBF=F FulRan=T
         wScrn=  0.000000 ICntrl=       600 IOpCl=  0 I1Cent=           0 NGrid=           0
         NMat0=    1 NMatS0=  22155 NMatT0=    0 NMatD0=    1 NMtDS0=    0 NMtDT0=    0
 Symmetry not used in FoFCou.
 Two-electron integral symmetry not used.
 UHF open shell SCF:
 Using DIIS extrapolation, IDIIS=  1040.
 NGot=  1879048192 LenX=  1388082362 LenY=  1388034832
 Requested convergence on RMS density matrix=1.00D-08 within 128 cycles.
 Requested convergence on MAX density matrix=1.00D-06.
 Requested convergence on             energy=1.00D-06.
 No special actions if energy rises.

 Cycle   1  Pass 1  IDiag  1:
 E= -1136.04828695374    
 DIIS: error= 1.10D-02 at cycle   1 NSaved=   1.
 NSaved= 1 IEnMin= 1 EnMin= -1136.04828695374     IErMin= 1 ErrMin= 1.10D-02
 ErrMax= 1.10D-02  0.00D+00 EMaxC= 1.00D-01 BMatC= 1.91D-01 BMatP= 1.91D-01
 IDIUse=3 WtCom= 8.90D-01 WtEn= 1.10D-01
 Coeff-Com:  0.100D+01
 Coeff-En:   0.100D+01
 Coeff:      0.100D+01
 Gap=     0.022 Goal=   None    Shift=    0.000
 Gap=     0.023 Goal=   None    Shift=    0.000
 GapD=    0.022 DampG=0.250 DampE=0.500 DampFc=0.2500 IDamp=-1.
 Damping current iteration by 2.50D-01
 RMSDP=3.69D-02 MaxDP=3.67D+00              OVMax= 5.32D-01

 Cycle   2  Pass 1  IDiag  1:
 E= -1136.05838256187     Delta-E=       -0.010095608133 Rises=F Damp=T
 DIIS: error= 7.59D-03 at cycle   2 NSaved=   2.
 NSaved= 2 IEnMin= 2 EnMin= -1136.05838256187     IErMin= 2 ErrMin= 7.59D-03
 ErrMax= 7.59D-03  0.00D+00 EMaxC= 1.00D-01 BMatC= 7.41D-02 BMatP= 1.91D-01
 IDIUse=3 WtCom= 9.24D-01 WtEn= 7.59D-02
 Coeff-Com: -0.121D+01 0.221D+01
 Coeff-En:   0.000D+00 0.100D+01
 Coeff:     -0.112D+01 0.212D+01
 Gap=     0.029 Goal=   None    Shift=    0.000
 Gap=     0.045 Goal=   None    Shift=    0.000
 RMSDP=1.87D-02 MaxDP=2.21D+00 DE=-1.01D-02 OVMax= 5.53D-01

 Cycle   3  Pass 1  IDiag  1:
 E= -1136.02948874510     Delta-E=        0.028893816774 Rises=F Damp=F
 DIIS: error= 1.11D-02 at cycle   3 NSaved=   3.
 NSaved= 3 IEnMin= 2 EnMin= -1136.05838256187     IErMin= 2 ErrMin= 7.59D-03
 ErrMax= 1.11D-02  0.00D+00 EMaxC= 1.00D-01 BMatC= 3.44D-02 BMatP= 7.41D-02
 IDIUse=3 WtCom= 8.89D-01 WtEn= 1.11D-01
 Coeff-Com: -0.751D+00 0.131D+01 0.443D+00
 Coeff-En:   0.000D+00 0.825D+00 0.175D+00
 Coeff:     -0.668D+00 0.125D+01 0.414D+00
 Gap=     0.027 Goal=   None    Shift=    0.000
 Gap=     0.040 Goal=   None    Shift=    0.000
 RMSDP=1.25D-02 MaxDP=1.08D+00 DE= 2.89D-02 OVMax= 4.82D-01

 Cycle   4  Pass 1  IDiag  1:
 E= -1136.06555754114     Delta-E=       -0.036068796049 Rises=F Damp=F
 DIIS: error= 6.03D-03 at cycle   4 NSaved=   4.
 NSaved= 4 IEnMin= 4 EnMin= -1136.06555754114     IErMin= 4 ErrMin= 6.03D-03
 ErrMax= 6.03D-03  0.00D+00 EMaxC= 1.00D-01 BMatC= 1.17D-02 BMatP= 3.44D-02
 IDIUse=3 WtCom= 9.40D-01 WtEn= 6.03D-02
 Coeff-Com: -0.495D-01 0.111D+00 0.346D+00 0.593D+00
 Coeff-En:   0.000D+00 0.000D+00 0.311D+00 0.689D+00
 Coeff:     -0.465D-01 0.104D+00 0.344D+00 0.599D+00
 Gap=     0.024 Goal=   None    Shift=    0.000
 Gap=     0.029 Goal=   None    Shift=    0.000
 RMSDP=5.92D-03 MaxDP=7.88D-01 DE=-3.61D-02 OVMax= 2.38D-01

 Cycle   5  Pass 1  IDiag  1:
 E= -1136.08247375382     Delta-E=       -0.016916212677 Rises=F Damp=F
 DIIS: error= 1.16D-03 at cycle   5 NSaved=   5.
 NSaved= 5 IEnMin= 5 EnMin= -1136.08247375382     IErMin= 5 ErrMin= 1.16D-03
 ErrMax= 1.16D-03  0.00D+00 EMaxC= 1.00D-01 BMatC= 8.94D-04 BMatP= 1.17D-02
 IDIUse=3 WtCom= 9.88D-01 WtEn= 1.16D-02
 Coeff-Com:  0.740D-02-0.902D-02 0.940D-01 0.256D+00 0.652D+00
 Coeff-En:   0.000D+00 0.000D+00 0.000D+00 0.366D-01 0.963D+00
 Coeff:      0.731D-02-0.891D-02 0.929D-01 0.253D+00 0.656D+00
 Gap=     0.025 Goal=   None    Shift=    0.000
 Gap=     0.029 Goal=   None    Shift=    0.000
 RMSDP=5.20D-03 MaxDP=9.26D-01 DE=-1.69D-02 OVMax= 6.44D-02

 Cycle   6  Pass 1  IDiag  1:
 E= -1136.08334622152     Delta-E=       -0.000872467697 Rises=F Damp=F
 DIIS: error= 7.35D-04 at cycle   6 NSaved=   6.
 NSaved= 6 IEnMin= 6 EnMin= -1136.08334622152     IErMin= 6 ErrMin= 7.35D-04
 ErrMax= 7.35D-04  0.00D+00 EMaxC= 1.00D-01 BMatC= 2.68D-04 BMatP= 8.94D-04
 IDIUse=3 WtCom= 9.93D-01 WtEn= 7.35D-03
 Coeff-Com: -0.132D-01 0.164D-01-0.260D-01-0.745D-02 0.365D+00 0.665D+00
 Coeff-En:   0.000D+00 0.000D+00 0.000D+00 0.000D+00 0.175D+00 0.825D+00
 Coeff:     -0.131D-01 0.163D-01-0.258D-01-0.739D-02 0.364D+00 0.666D+00
 Gap=     0.026 Goal=   None    Shift=    0.000
 Gap=     0.029 Goal=   None    Shift=    0.000
 RMSDP=1.76D-03 MaxDP=1.40D-01 DE=-8.72D-04 OVMax= 2.81D-02

 Cycle   7  Pass 1  IDiag  1:
 E= -1136.08366339508     Delta-E=       -0.000317173563 Rises=F Damp=F
 DIIS: error= 1.22D-04 at cycle   7 NSaved=   7.
 NSaved= 7 IEnMin= 7 EnMin= -1136.08366339508     IErMin= 7 ErrMin= 1.22D-04
 ErrMax= 1.22D-04  0.00D+00 EMaxC= 1.00D-01 BMatC= 7.99D-06 BMatP= 2.68D-04
 IDIUse=3 WtCom= 9.99D-01 WtEn= 1.22D-03
 Coeff-Com: -0.668D-02 0.900D-02-0.104D-01-0.105D-01-0.144D-02 0.103D+00
 Coeff-Com:  0.917D+00
 Coeff-En:   0.000D+00 0.000D+00 0.000D+00 0.000D+00 0.000D+00 0.000D+00
 Coeff-En:   0.100D+01
 Coeff:     -0.667D-02 0.899D-02-0.104D-01-0.105D-01-0.144D-02 0.103D+00
 Coeff:      0.917D+00
 Gap=     0.027 Goal=   None    Shift=    0.000
 Gap=     0.029 Goal=   None    Shift=    0.000
 RMSDP=8.46D-04 MaxDP=1.53D-01 DE=-3.17D-04 OVMax= 1.57D-02

 Cycle   8  Pass 1  IDiag  1:
 E= -1136.08369279910     Delta-E=       -0.000029404022 Rises=F Damp=F
 DIIS: error= 7.38D-05 at cycle   8 NSaved=   8.
 NSaved= 8 IEnMin= 8 EnMin= -1136.08369279910     IErMin= 8 ErrMin= 7.38D-05
 ErrMax= 7.38D-05  0.00D+00 EMaxC= 1.00D-01 BMatC= 3.87D-06 BMatP= 7.99D-06
 IDIUse=1 WtCom= 1.00D+00 WtEn= 0.00D+00
 Coeff-Com: -0.491D-03 0.837D-03-0.197D-02-0.139D-02-0.706D-01-0.539D-01
 Coeff-Com:  0.424D+00 0.704D+00
 Coeff:     -0.491D-03 0.837D-03-0.197D-02-0.139D-02-0.706D-01-0.539D-01
 Coeff:      0.424D+00 0.704D+00
 Gap=     0.027 Goal=   None    Shift=    0.000
 Gap=     0.029 Goal=   None    Shift=    0.000
 RMSDP=2.60D-04 MaxDP=2.10D-02 DE=-2.94D-05 OVMax= 1.07D-02

 Cycle   9  Pass 1  IDiag  1:
 E= -1136.08371004140     Delta-E=       -0.000017242298 Rises=F Damp=F
 DIIS: error= 7.00D-05 at cycle   9 NSaved=   9.
 NSaved= 9 IEnMin= 9 EnMin= -1136.08371004140     IErMin= 9 ErrMin= 7.00D-05
 ErrMax= 7.00D-05  0.00D+00 EMaxC= 1.00D-01 BMatC= 1.21D-06 BMatP= 3.87D-06
 IDIUse=1 WtCom= 1.00D+00 WtEn= 0.00D+00
 Coeff-Com:  0.742D-03-0.798D-03-0.260D-03 0.700D-03-0.386D-01-0.413D-01
 Coeff-Com:  0.576D-01 0.318D+00 0.704D+00
 Coeff:      0.742D-03-0.798D-03-0.260D-03 0.700D-03-0.386D-01-0.413D-01
 Coeff:      0.576D-01 0.318D+00 0.704D+00
 Gap=     0.027 Goal=   None    Shift=    0.000
 Gap=     0.029 Goal=   None    Shift=    0.000
 RMSDP=2.40D-04 MaxDP=1.56D-02 DE=-1.72D-05 OVMax= 8.71D-03

 Cycle  10  Pass 1  IDiag  1:
 E= -1136.08372315300     Delta-E=       -0.000013111594 Rises=F Damp=F
 DIIS: error= 5.55D-05 at cycle  10 NSaved=  10.
 NSaved=10 IEnMin=10 EnMin= -1136.08372315300     IErMin=10 ErrMin= 5.55D-05
 ErrMax= 5.55D-05  0.00D+00 EMaxC= 1.00D-01 BMatC= 8.39D-07 BMatP= 1.21D-06
 IDIUse=1 WtCom= 1.00D+00 WtEn= 0.00D+00
 Coeff-Com:  0.228D-04 0.946D-04-0.168D-03 0.190D-03-0.102D-01-0.111D-01
 Coeff-Com: -0.290D-02 0.668D-01 0.285D+00 0.673D+00
 Coeff:      0.228D-04 0.946D-04-0.168D-03 0.190D-03-0.102D-01-0.111D-01
 Coeff:     -0.290D-02 0.668D-01 0.285D+00 0.673D+00
 Gap=     0.027 Goal=   None    Shift=    0.000
 Gap=     0.029 Goal=   None    Shift=    0.000
 RMSDP=3.53D-04 MaxDP=6.05D-02 DE=-1.31D-05 OVMax= 6.87D-03

 Cycle  11  Pass 1  IDiag  1:
 E= -1136.08373487671     Delta-E=       -0.000011723709 Rises=F Damp=F
 DIIS: error= 5.74D-05 at cycle  11 NSaved=  11.
 NSaved=11 IEnMin=11 EnMin= -1136.08373487671     IErMin=10 ErrMin= 5.55D-05
 ErrMax= 5.74D-05  0.00D+00 EMaxC= 1.00D-01 BMatC= 9.01D-07 BMatP= 8.39D-07
 IDIUse=1 WtCom= 1.00D+00 WtEn= 0.00D+00
 Coeff-Com:  0.433D-03-0.415D-03 0.425D-03 0.147D-02-0.677D-02-0.168D-01
 Coeff-Com: -0.116D+00-0.338D-01 0.524D+00 0.233D+01-0.168D+01
 Coeff:      0.433D-03-0.415D-03 0.425D-03 0.147D-02-0.677D-02-0.168D-01
 Coeff:     -0.116D+00-0.338D-01 0.524D+00 0.233D+01-0.168D+01
 Gap=     0.027 Goal=   None    Shift=    0.000
 Gap=     0.029 Goal=   None    Shift=    0.000
 RMSDP=6.54D-04 MaxDP=1.20D-01 DE=-1.17D-05 OVMax= 1.15D-02

 Cycle  12  Pass 1  IDiag  1:
 E= -1136.08371788719     Delta-E=        0.000016989518 Rises=F Damp=F
 DIIS: error= 5.20D-05 at cycle  12 NSaved=  12.
 NSaved=12 IEnMin=11 EnMin= -1136.08373487671     IErMin=12 ErrMin= 5.20D-05
 ErrMax= 5.20D-05  0.00D+00 EMaxC= 1.00D-01 BMatC= 7.53D-07 BMatP= 8.39D-07
 IDIUse=1 WtCom= 1.00D+00 WtEn= 0.00D+00
 Coeff-Com: -0.990D-03 0.144D-02 0.710D-03 0.173D-03 0.335D-01 0.305D-01
 Coeff-Com: -0.179D+00-0.335D+00 0.124D+00 0.301D+01-0.534D+01 0.365D+01
 Coeff:     -0.990D-03 0.144D-02 0.710D-03 0.173D-03 0.335D-01 0.305D-01
 Coeff:     -0.179D+00-0.335D+00 0.124D+00 0.301D+01-0.534D+01 0.365D+01
 Gap=     0.026 Goal=   None    Shift=    0.000
 Gap=     0.029 Goal=   None    Shift=    0.000
 RMSDP=2.12D-03 MaxDP=3.94D-01 DE= 1.70D-05 OVMax= 4.01D-02

 Cycle  13  Pass 1  IDiag  1:
 E= -1136.08367584881     Delta-E=        0.000042038383 Rises=F Damp=F
 DIIS: error= 3.56D-05 at cycle  13 NSaved=  13.
 NSaved=13 IEnMin=11 EnMin= -1136.08373487671     IErMin=13 ErrMin= 3.56D-05
 ErrMax= 3.56D-05  0.00D+00 EMaxC= 1.00D-01 BMatC= 6.07D-07 BMatP= 7.53D-07
 IDIUse=1 WtCom= 1.00D+00 WtEn= 0.00D+00
 Coeff-Com: -0.149D-02 0.197D-02 0.666D-03-0.377D-02 0.484D-01 0.588D-01
 Coeff-Com: -0.504D-01-0.300D+00-0.290D+00 0.281D+00-0.267D+01 0.283D+01
 Coeff-Com:  0.110D+01
 Coeff:     -0.149D-02 0.197D-02 0.666D-03-0.377D-02 0.484D-01 0.588D-01
 Coeff:     -0.504D-01-0.300D+00-0.290D+00 0.281D+00-0.267D+01 0.283D+01
 Coeff:      0.110D+01
 Gap=     0.026 Goal=   None    Shift=    0.000
 Gap=     0.030 Goal=   None    Shift=    0.000
 RMSDP=1.49D-03 MaxDP=2.78D-01 DE= 4.20D-05 OVMax= 2.96D-02

 Cycle  14  Pass 1  IDiag  1:
 E= -1136.08366159162     Delta-E=        0.000014257188 Rises=F Damp=F
 DIIS: error= 4.51D-05 at cycle  14 NSaved=  14.
 NSaved=14 IEnMin=11 EnMin= -1136.08373487671     IErMin=13 ErrMin= 3.56D-05
 ErrMax= 4.51D-05  0.00D+00 EMaxC= 1.00D-01 BMatC= 5.71D-07 BMatP= 6.07D-07
 IDIUse=1 WtCom= 1.00D+00 WtEn= 0.00D+00
 Coeff-Com: -0.396D-03 0.519D-03 0.690D-03-0.379D-02 0.318D-01 0.357D-01
 Coeff-Com: -0.564D-01-0.162D+00-0.258D-01 0.188D+00-0.642D+00 0.465D+00
 Coeff-Com:  0.319D+00 0.850D+00
 Coeff:     -0.396D-03 0.519D-03 0.690D-03-0.379D-02 0.318D-01 0.357D-01
 Coeff:     -0.564D-01-0.162D+00-0.258D-01 0.188D+00-0.642D+00 0.465D+00
 Coeff:      0.319D+00 0.850D+00
 Gap=     0.026 Goal=   None    Shift=    0.000
 Gap=     0.030 Goal=   None    Shift=    0.000
 RMSDP=2.00D-04 MaxDP=2.91D-02 DE= 1.43D-05 OVMax= 7.25D-03

 Cycle  15  Pass 1  IDiag  1:
 E= -1136.08366134378     Delta-E=        0.000000247832 Rises=F Damp=F
 DIIS: error= 2.30D-05 at cycle  15 NSaved=  15.
 NSaved=15 IEnMin=11 EnMin= -1136.08373487671     IErMin=15 ErrMin= 2.30D-05
 ErrMax= 2.30D-05  0.00D+00 EMaxC= 1.00D-01 BMatC= 1.43D-07 BMatP= 5.71D-07
 IDIUse=1 WtCom= 1.00D+00 WtEn= 0.00D+00
 Coeff-Com:  0.621D-03-0.803D-03 0.229D-03-0.257D-03-0.141D-02-0.708D-02
 Coeff-Com: -0.497D-01 0.349D-01 0.164D+00 0.327D+00 0.463D+00-0.878D+00
 Coeff-Com: -0.602D+00 0.170D+00 0.138D+01
 Coeff:      0.621D-03-0.803D-03 0.229D-03-0.257D-03-0.141D-02-0.708D-02
 Coeff:     -0.497D-01 0.349D-01 0.164D+00 0.327D+00 0.463D+00-0.878D+00
 Coeff:     -0.602D+00 0.170D+00 0.138D+01
 Gap=     0.026 Goal=   None    Shift=    0.000
 Gap=     0.030 Goal=   None    Shift=    0.000
 RMSDP=2.89D-04 MaxDP=4.37D-02 DE= 2.48D-07 OVMax= 9.89D-03

 Cycle  16  Pass 1  IDiag  1:
 E= -1136.08366132628     Delta-E=        0.000000017507 Rises=F Damp=F
 DIIS: error= 8.66D-06 at cycle  16 NSaved=  16.
 NSaved=16 IEnMin=11 EnMin= -1136.08373487671     IErMin=16 ErrMin= 8.66D-06
 ErrMax= 8.66D-06  0.00D+00 EMaxC= 1.00D-01 BMatC= 3.19D-08 BMatP= 1.43D-07
 IDIUse=1 WtCom= 1.00D+00 WtEn= 0.00D+00
 Coeff-Com:  0.417D-03-0.549D-03 0.959D-04 0.857D-03-0.126D-01-0.157D-01
 Coeff-Com:  0.257D-01 0.106D+00 0.247D-01-0.465D+00 0.542D+00-0.230D+00
 Coeff-Com: -0.175D-01-0.167D-01-0.218D+00 0.128D+01
 Coeff:      0.417D-03-0.549D-03 0.959D-04 0.857D-03-0.126D-01-0.157D-01
 Coeff:      0.257D-01 0.106D+00 0.247D-01-0.465D+00 0.542D+00-0.230D+00
 Coeff:     -0.175D-01-0.167D-01-0.218D+00 0.128D+01
 Gap=     0.026 Goal=   None    Shift=    0.000
 Gap=     0.030 Goal=   None    Shift=    0.000
 RMSDP=8.96D-05 MaxDP=7.90D-03 DE= 1.75D-08 OVMax= 4.12D-03

 Cycle  17  Pass 1  IDiag  1:
 E= -1136.08366190910     Delta-E=       -0.000000582823 Rises=F Damp=F
 DIIS: error= 8.27D-06 at cycle  17 NSaved=  17.
 NSaved=17 IEnMin=11 EnMin= -1136.08373487671     IErMin=17 ErrMin= 8.27D-06
 ErrMax= 8.27D-06  0.00D+00 EMaxC= 1.00D-01 BMatC= 2.62D-08 BMatP= 3.19D-08
 IDIUse=1 WtCom= 1.00D+00 WtEn= 0.00D+00
 Coeff-Com: -0.685D-04 0.903D-04 0.202D-03 0.268D-03-0.436D-02-0.473D-02
 Coeff-Com:  0.360D-01 0.254D-01-0.399D-01-0.399D+00 0.151D-01 0.342D+00
 Coeff-Com:  0.241D+00 0.429D-01-0.738D+00 0.356D+00 0.113D+01
 Coeff:     -0.685D-04 0.903D-04 0.202D-03 0.268D-03-0.436D-02-0.473D-02
 Coeff:      0.360D-01 0.254D-01-0.399D-01-0.399D+00 0.151D-01 0.342D+00
 Coeff:      0.241D+00 0.429D-01-0.738D+00 0.356D+00 0.113D+01
 Gap=     0.026 Goal=   None    Shift=    0.000
 Gap=     0.030 Goal=   None    Shift=    0.000
 RMSDP=1.32D-04 MaxDP=2.20D-02 DE=-5.83D-07 OVMax= 2.81D-03

 Cycle  18  Pass 1  IDiag  1:
 E= -1136.08366244577     Delta-E=       -0.000000536672 Rises=F Damp=F
 DIIS: error= 9.07D-06 at cycle  18 NSaved=  18.
 NSaved=18 IEnMin=11 EnMin= -1136.08373487671     IErMin=17 ErrMin= 8.27D-06
 ErrMax= 9.07D-06  0.00D+00 EMaxC= 1.00D-01 BMatC= 2.32D-08 BMatP= 2.62D-08
 IDIUse=1 WtCom= 1.00D+00 WtEn= 0.00D+00
 Coeff-Com:  0.677D-04-0.821D-04 0.227D-03-0.520D-04-0.163D-02-0.206D-02
 Coeff-Com:  0.689D-02 0.821D-02 0.882D-02-0.582D-01-0.351D-01 0.102D+00
 Coeff-Com:  0.103D-01-0.231D-01-0.163D+00-0.117D+00-0.823D-03 0.126D+01
 Coeff:      0.677D-04-0.821D-04 0.227D-03-0.520D-04-0.163D-02-0.206D-02
 Coeff:      0.689D-02 0.821D-02 0.882D-02-0.582D-01-0.351D-01 0.102D+00
 Coeff:      0.103D-01-0.231D-01-0.163D+00-0.117D+00-0.823D-03 0.126D+01
 Gap=     0.026 Goal=   None    Shift=    0.000
 Gap=     0.030 Goal=   None    Shift=    0.000
 RMSDP=1.46D-04 MaxDP=2.34D-02 DE=-5.37D-07 OVMax= 3.19D-03

 Cycle  19  Pass 1  IDiag  1:
 E= -1136.08366299719     Delta-E=       -0.000000551413 Rises=F Damp=F
 DIIS: error= 6.69D-06 at cycle  19 NSaved=  19.
 NSaved=19 IEnMin=11 EnMin= -1136.08373487671     IErMin=19 ErrMin= 6.69D-06
 ErrMax= 6.69D-06  0.00D+00 EMaxC= 1.00D-01 BMatC= 1.53D-08 BMatP= 2.32D-08
 IDIUse=1 WtCom= 1.00D+00 WtEn= 0.00D+00
 Coeff-Com:  0.781D-04-0.972D-04-0.233D-03 0.160D-03 0.741D-03 0.239D-02
 Coeff-Com: -0.758D-02 0.122D-01-0.497D-01 0.118D+00-0.964D-01 0.399D-01
 Coeff-Com: -0.148D+00-0.111D+00 0.770D+00 0.635D+00-0.229D+01-0.229D+01
 Coeff-Com:  0.441D+01
 Coeff:      0.781D-04-0.972D-04-0.233D-03 0.160D-03 0.741D-03 0.239D-02
 Coeff:     -0.758D-02 0.122D-01-0.497D-01 0.118D+00-0.964D-01 0.399D-01
 Coeff:     -0.148D+00-0.111D+00 0.770D+00 0.635D+00-0.229D+01-0.229D+01
 Coeff:      0.441D+01
 Gap=     0.026 Goal=   None    Shift=    0.000
 Gap=     0.030 Goal=   None    Shift=    0.000
 RMSDP=4.95D-04 MaxDP=8.19D-02 DE=-5.51D-07 OVMax= 1.01D-02

 Cycle  20  Pass 1  IDiag  1:
 E= -1136.08366432867     Delta-E=       -0.000001331481 Rises=F Damp=F
 DIIS: error= 4.62D-06 at cycle  20 NSaved=  20.
 NSaved=20 IEnMin=11 EnMin= -1136.08373487671     IErMin=20 ErrMin= 4.62D-06
 ErrMax= 4.62D-06  0.00D+00 EMaxC= 1.00D-01 BMatC= 7.88D-09 BMatP= 1.53D-08
 IDIUse=1 WtCom= 1.00D+00 WtEn= 0.00D+00
 Coeff-Com: -0.222D-05-0.273D-05-0.206D-03 0.299D-03-0.188D-02-0.105D-02
 Coeff-Com:  0.128D-01 0.108D-01-0.435D-01-0.186D+00 0.158D+00 0.298D-02
 Coeff-Com:  0.652D-01-0.273D-01 0.353D-01 0.767D+00-0.230D+00-0.273D+01
 Coeff-Com:  0.155D+01 0.161D+01
 Coeff:     -0.222D-05-0.273D-05-0.206D-03 0.299D-03-0.188D-02-0.105D-02
 Coeff:      0.128D-01 0.108D-01-0.435D-01-0.186D+00 0.158D+00 0.298D-02
 Coeff:      0.652D-01-0.273D-01 0.353D-01 0.767D+00-0.230D+00-0.273D+01
 Coeff:      0.155D+01 0.161D+01
 Gap=     0.026 Goal=   None    Shift=    0.000
 Gap=     0.030 Goal=   None    Shift=    0.000
 RMSDP=4.71D-04 MaxDP=7.87D-02 DE=-1.33D-06 OVMax= 9.77D-03

 Cycle  21  Pass 1  IDiag  1:
 E= -1136.08366489012     Delta-E=       -0.000000561450 Rises=F Damp=F
 DIIS: error= 1.25D-06 at cycle  21 NSaved=  20.
 NSaved=20 IEnMin=10 EnMin= -1136.08373487671     IErMin=20 ErrMin= 1.25D-06
 ErrMax= 1.25D-06  0.00D+00 EMaxC= 1.00D-01 BMatC= 9.53D-10 BMatP= 7.88D-09
 IDIUse=1 WtCom= 1.00D+00 WtEn= 0.00D+00
 Coeff-Com: -0.473D-04 0.650D-04 0.214D-03-0.962D-03-0.722D-03 0.699D-02
 Coeff-Com: -0.382D-03-0.101D-01-0.916D-01 0.455D-01 0.425D-01 0.520D-01
 Coeff-Com: -0.205D-01-0.147D+00 0.843D-01 0.495D+00-0.390D+00-0.464D+00
 Coeff-Com:  0.446D+00 0.952D+00
 Coeff:     -0.473D-04 0.650D-04 0.214D-03-0.962D-03-0.722D-03 0.699D-02
 Coeff:     -0.382D-03-0.101D-01-0.916D-01 0.455D-01 0.425D-01 0.520D-01
 Coeff:     -0.205D-01-0.147D+00 0.843D-01 0.495D+00-0.390D+00-0.464D+00
 Coeff:      0.446D+00 0.952D+00
 Gap=     0.026 Goal=   None    Shift=    0.000
 Gap=     0.030 Goal=   None    Shift=    0.000
 RMSDP=1.30D-04 MaxDP=2.20D-02 DE=-5.61D-07 OVMax= 2.65D-03

 Cycle  22  Pass 1  IDiag  1:
 E= -1136.08366492211     Delta-E=       -0.000000031997 Rises=F Damp=F
 DIIS: error= 4.80D-07 at cycle  22 NSaved=  20.
 NSaved=20 IEnMin= 9 EnMin= -1136.08373487671     IErMin=20 ErrMin= 4.80D-07
 ErrMax= 4.80D-07  0.00D+00 EMaxC= 1.00D-01 BMatC= 9.12D-11 BMatP= 9.53D-10
 IDIUse=1 WtCom= 1.00D+00 WtEn= 0.00D+00
 Coeff-Com:  0.181D-05-0.266D-04-0.233D-03-0.115D-03 0.168D-02 0.422D-02
 Coeff-Com: -0.325D-02 0.287D-02 0.181D-01-0.188D-01-0.142D-01 0.125D-01
 Coeff-Com:  0.529D-02-0.159D-01-0.582D-01 0.160D+00-0.868D-02-0.136D+00
 Coeff-Com: -0.150D+00 0.120D+01
 Coeff:      0.181D-05-0.266D-04-0.233D-03-0.115D-03 0.168D-02 0.422D-02
 Coeff:     -0.325D-02 0.287D-02 0.181D-01-0.188D-01-0.142D-01 0.125D-01
 Coeff:      0.529D-02-0.159D-01-0.582D-01 0.160D+00-0.868D-02-0.136D+00
 Coeff:     -0.150D+00 0.120D+01
 Gap=     0.026 Goal=   None    Shift=    0.000
 Gap=     0.030 Goal=   None    Shift=    0.000
 RMSDP=1.55D-05 MaxDP=2.67D-03 DE=-3.20D-08 OVMax= 2.01D-04

 Cycle  23  Pass 1  IDiag  1:
 E= -1136.08366492210     Delta-E=        0.000000000009 Rises=F Damp=F
 DIIS: error= 3.90D-07 at cycle  23 NSaved=  20.
 NSaved=20 IEnMin= 8 EnMin= -1136.08373487671     IErMin=20 ErrMin= 3.90D-07
 ErrMax= 3.90D-07  0.00D+00 EMaxC= 1.00D-01 BMatC= 7.82D-11 BMatP= 9.12D-11
 IDIUse=1 WtCom= 1.00D+00 WtEn= 0.00D+00
 Coeff-Com: -0.248D-04-0.975D-04-0.969D-04 0.320D-03 0.173D-02-0.199D-02
 Coeff-Com: -0.326D-02 0.798D-02-0.444D-02-0.484D-02 0.121D-01 0.744D-03
 Coeff-Com: -0.358D-02-0.573D-01 0.543D-01 0.199D-01-0.258D-01-0.744D-01
 Coeff-Com:  0.225D+00 0.854D+00
 Coeff:     -0.248D-04-0.975D-04-0.969D-04 0.320D-03 0.173D-02-0.199D-02
 Coeff:     -0.326D-02 0.798D-02-0.444D-02-0.484D-02 0.121D-01 0.744D-03
 Coeff:     -0.358D-02-0.573D-01 0.543D-01 0.199D-01-0.258D-01-0.744D-01
 Coeff:      0.225D+00 0.854D+00
 Gap=     0.026 Goal=   None    Shift=    0.000
 Gap=     0.030 Goal=   None    Shift=    0.000
 RMSDP=7.28D-06 MaxDP=1.27D-03 DE= 9.32D-12 OVMax= 1.48D-04

 Cycle  24  Pass 1  IDiag  1:
 E= -1136.08366492236     Delta-E=       -0.000000000258 Rises=F Damp=F
 DIIS: error= 8.45D-08 at cycle  24 NSaved=  20.
 NSaved=20 IEnMin= 7 EnMin= -1136.08373487671     IErMin=20 ErrMin= 8.45D-08
 ErrMax= 8.45D-08  0.00D+00 EMaxC= 1.00D-01 BMatC= 4.31D-12 BMatP= 7.82D-11
 IDIUse=1 WtCom= 1.00D+00 WtEn= 0.00D+00
 Coeff-Com: -0.439D-04-0.105D-03-0.722D-04 0.597D-05 0.739D-03-0.380D-02
 Coeff-Com:  0.525D-02-0.334D-02 0.982D-03-0.637D-03 0.139D-02 0.677D-02
 Coeff-Com: -0.263D-02-0.259D-01 0.998D-02 0.238D-01-0.129D-02-0.160D+00
 Coeff-Com: -0.192D-01 0.117D+01
 Coeff:     -0.439D-04-0.105D-03-0.722D-04 0.597D-05 0.739D-03-0.380D-02
 Coeff:      0.525D-02-0.334D-02 0.982D-03-0.637D-03 0.139D-02 0.677D-02
 Coeff:     -0.263D-02-0.259D-01 0.998D-02 0.238D-01-0.129D-02-0.160D+00
 Coeff:     -0.192D-01 0.117D+01
 Gap=     0.026 Goal=   None    Shift=    0.000
 Gap=     0.030 Goal=   None    Shift=    0.000
 RMSDP=2.78D-06 MaxDP=4.95D-04 DE=-2.58D-10 OVMax= 4.72D-05

 Cycle  25  Pass 1  IDiag  1:
 E= -1136.08366492240     Delta-E=       -0.000000000034 Rises=F Damp=F
 DIIS: error= 6.83D-08 at cycle  25 NSaved=  20.
 NSaved=20 IEnMin= 6 EnMin= -1136.08373487671     IErMin=20 ErrMin= 6.83D-08
 ErrMax= 6.83D-08  0.00D+00 EMaxC= 1.00D-01 BMatC= 1.22D-12 BMatP= 4.31D-12
 IDIUse=1 WtCom= 1.00D+00 WtEn= 0.00D+00
 Coeff-Com:  0.154D-04 0.115D-03 0.359D-04 0.252D-04-0.107D-02-0.176D-02
 Coeff-Com:  0.255D-02 0.111D-02-0.119D-02-0.577D-03 0.509D-02-0.440D-03
 Coeff-Com: -0.125D-01 0.135D-01-0.177D-02-0.147D-01-0.758D-02-0.127D+00
 Coeff-Com: -0.121D-01 0.116D+01
 Coeff:      0.154D-04 0.115D-03 0.359D-04 0.252D-04-0.107D-02-0.176D-02
 Coeff:      0.255D-02 0.111D-02-0.119D-02-0.577D-03 0.509D-02-0.440D-03
 Coeff:     -0.125D-01 0.135D-01-0.177D-02-0.147D-01-0.758D-02-0.127D+00
 Coeff:     -0.121D-01 0.116D+01
 Gap=     0.026 Goal=   None    Shift=    0.000
 Gap=     0.030 Goal=   None    Shift=    0.000
 RMSDP=7.17D-07 MaxDP=6.71D-05 DE=-3.37D-11 OVMax= 1.74D-05

 Cycle  26  Pass 1  IDiag  1:
 E= -1136.08366492239     Delta-E=        0.000000000001 Rises=F Damp=F
 DIIS: error= 7.00D-08 at cycle  26 NSaved=  20.
 NSaved=20 IEnMin= 5 EnMin= -1136.08373487671     IErMin=19 ErrMin= 6.83D-08
 ErrMax= 7.00D-08  0.00D+00 EMaxC= 1.00D-01 BMatC= 1.19D-12 BMatP= 1.22D-12
 IDIUse=1 WtCom= 1.00D+00 WtEn= 0.00D+00
 Coeff-Com:  0.514D-05 0.104D-03-0.295D-03 0.936D-03-0.151D-02 0.108D-02
 Coeff-Com:  0.287D-04-0.439D-03-0.112D-02 0.294D-02 0.236D-02-0.883D-02
 Coeff-Com:  0.307D-02 0.117D-02 0.118D-02 0.456D-01-0.890D-02-0.342D+00
 Coeff-Com:  0.156D+00 0.115D+01
 Coeff:      0.514D-05 0.104D-03-0.295D-03 0.936D-03-0.151D-02 0.108D-02
 Coeff:      0.287D-04-0.439D-03-0.112D-02 0.294D-02 0.236D-02-0.883D-02
 Coeff:      0.307D-02 0.117D-02 0.118D-02 0.456D-01-0.890D-02-0.342D+00
 Coeff:      0.156D+00 0.115D+01
 Gap=     0.026 Goal=   None    Shift=    0.000
 Gap=     0.030 Goal=   None    Shift=    0.000
 RMSDP=9.73D-07 MaxDP=1.45D-04 DE= 1.36D-12 OVMax= 2.61D-05

 Cycle  27  Pass 1  IDiag  1:
 E= -1136.08366492241     Delta-E=       -0.000000000016 Rises=F Damp=F
 DIIS: error= 2.17D-08 at cycle  27 NSaved=  20.
 NSaved=20 IEnMin= 5 EnMin= -1136.08373487671     IErMin=20 ErrMin= 2.17D-08
 ErrMax= 2.17D-08  0.00D+00 EMaxC= 1.00D-01 BMatC= 1.45D-13 BMatP= 1.19D-12
 IDIUse=1 WtCom= 1.00D+00 WtEn= 0.00D+00
 Coeff-Com:  0.446D-04 0.110D-03-0.190D-03 0.440D-04 0.276D-03-0.102D-03
 Coeff-Com: -0.417D-03 0.214D-03 0.349D-03-0.163D-02-0.478D-03 0.241D-02
 Coeff-Com: -0.127D-02-0.164D-02 0.304D-01 0.281D-01-0.138D+00-0.197D+00
 Coeff-Com:  0.238D+00 0.104D+01
 Coeff:      0.446D-04 0.110D-03-0.190D-03 0.440D-04 0.276D-03-0.102D-03
 Coeff:     -0.417D-03 0.214D-03 0.349D-03-0.163D-02-0.478D-03 0.241D-02
 Coeff:     -0.127D-02-0.164D-02 0.304D-01 0.281D-01-0.138D+00-0.197D+00
 Coeff:      0.238D+00 0.104D+01
 Gap=     0.026 Goal=   None    Shift=    0.000
 Gap=     0.030 Goal=   None    Shift=    0.000
 RMSDP=2.70D-07 MaxDP=4.07D-05 DE=-1.57D-11 OVMax= 5.25D-06

 Cycle  28  Pass 1  IDiag  1:
 E= -1136.08366492239     Delta-E=        0.000000000018 Rises=F Damp=F
 DIIS: error= 2.15D-08 at cycle  28 NSaved=  20.
 NSaved=20 IEnMin= 5 EnMin= -1136.08373487671     IErMin=20 ErrMin= 2.15D-08
 ErrMax= 2.15D-08  0.00D+00 EMaxC= 1.00D-01 BMatC= 7.29D-14 BMatP= 1.45D-13
 IDIUse=1 WtCom= 1.00D+00 WtEn= 0.00D+00
 Coeff-Com: -0.443D-05-0.713D-04-0.452D-04-0.579D-03 0.258D-03 0.199D-03
 Coeff-Com:  0.363D-03 0.277D-03-0.133D-02-0.255D-03 0.855D-03 0.158D-02
 Coeff-Com: -0.118D-02-0.202D-01 0.688D-02 0.103D+00-0.514D-01-0.263D+00
 Coeff-Com: -0.521D-01 0.128D+01
 Coeff:     -0.443D-05-0.713D-04-0.452D-04-0.579D-03 0.258D-03 0.199D-03
 Coeff:      0.363D-03 0.277D-03-0.133D-02-0.255D-03 0.855D-03 0.158D-02
 Coeff:     -0.118D-02-0.202D-01 0.688D-02 0.103D+00-0.514D-01-0.263D+00
 Coeff:     -0.521D-01 0.128D+01
 Gap=     0.026 Goal=   None    Shift=    0.000
 Gap=     0.030 Goal=   None    Shift=    0.000
 RMSDP=9.72D-08 MaxDP=8.80D-06 DE= 1.80D-11 OVMax= 4.39D-06

 Cycle  29  Pass 1  IDiag  1:
 E= -1136.08366492240     Delta-E=       -0.000000000010 Rises=F Damp=F
 DIIS: error= 9.20D-09 at cycle  29 NSaved=  20.
 NSaved=20 IEnMin= 5 EnMin= -1136.08373487671     IErMin=20 ErrMin= 9.20D-09
 ErrMax= 9.20D-09  0.00D+00 EMaxC= 1.00D-01 BMatC= 2.68D-14 BMatP= 7.29D-14
 IDIUse=1 WtCom= 1.00D+00 WtEn= 0.00D+00
 Large coefficients: NSaved= 20 BigCof=    0.00 CofMax=   10.00 Det=-6.56D-15
 Inversion failed.  Reducing to 19 matrices.
 Large coefficients: NSaved= 19 BigCof=    0.00 CofMax=   10.00 Det=-6.88D-15
 Inversion failed.  Reducing to 18 matrices.
 Large coefficients: NSaved= 18 BigCof=    0.00 CofMax=   10.00 Det=-7.06D-15
 Inversion failed.  Reducing to 17 matrices.
 Large coefficients: NSaved= 17 BigCof=    0.00 CofMax=   10.00 Det=-8.93D-15
 Inversion failed.  Reducing to 16 matrices.
 Large coefficients: NSaved= 16 BigCof=    0.00 CofMax=   10.00 Det=-9.08D-15
 Inversion failed.  Reducing to 15 matrices.
 Coeff-Com:  0.523D-05 0.165D-04 0.103D-03 0.307D-04-0.147D-03-0.765D-04
 Coeff-Com:  0.196D-03-0.805D-03 0.520D-02 0.945D-02 0.654D-02-0.439D-01
 Coeff-Com: -0.201D+00-0.229D-01 0.125D+01
 Coeff:      0.523D-05 0.165D-04 0.103D-03 0.307D-04-0.147D-03-0.765D-04
 Coeff:      0.196D-03-0.805D-03 0.520D-02 0.945D-02 0.654D-02-0.439D-01
 Coeff:     -0.201D+00-0.229D-01 0.125D+01
 Gap=     0.026 Goal=   None    Shift=    0.000
 Gap=     0.030 Goal=   None    Shift=    0.000
 RMSDP=1.20D-07 MaxDP=8.18D-06 DE=-9.55D-12 OVMax= 4.00D-06

 Cycle  30  Pass 1  IDiag  1:
 E= -1136.08366492241     Delta-E=       -0.000000000007 Rises=F Damp=F
 DIIS: error= 3.19D-09 at cycle  30 NSaved=  16.
 NSaved=16 IEnMin= 4 EnMin= -1136.08373487671     IErMin=16 ErrMin= 3.19D-09
 ErrMax= 3.19D-09  0.00D+00 EMaxC= 1.00D-01 BMatC= 2.23D-15 BMatP= 2.68D-14
 IDIUse=1 WtCom= 1.00D+00 WtEn= 0.00D+00
 Large coefficients: NSaved= 16 BigCof=    0.00 CofMax=   10.00 Det=-1.25D-15
 Inversion failed.  Reducing to 15 matrices.
 Coeff-Com:  0.413D-06-0.199D-04-0.231D-04-0.475D-04 0.916D-04 0.144D-04
 Coeff-Com:  0.711D-03 0.244D-02-0.798D-02 0.454D-02 0.362D-01-0.442D-02
 Coeff-Com: -0.102D+00-0.206D+00 0.128D+01
 Coeff:      0.413D-06-0.199D-04-0.231D-04-0.475D-04 0.916D-04 0.144D-04
 Coeff:      0.711D-03 0.244D-02-0.798D-02 0.454D-02 0.362D-01-0.442D-02
 Coeff:     -0.102D+00-0.206D+00 0.128D+01
 Gap=     0.026 Goal=   None    Shift=    0.000
 Gap=     0.030 Goal=   None    Shift=    0.000
 RMSDP=6.14D-08 MaxDP=9.82D-06 DE=-6.82D-12 OVMax= 9.35D-07

 Cycle  31  Pass 1  IDiag  1:
 E= -1136.08366492241     Delta-E=        0.000000000003 Rises=F Damp=F
 DIIS: error= 1.14D-09 at cycle  31 NSaved=  16.
 NSaved=16 IEnMin= 4 EnMin= -1136.08373487671     IErMin=16 ErrMin= 1.14D-09
 ErrMax= 1.14D-09  0.00D+00 EMaxC= 1.00D-01 BMatC= 5.97D-16 BMatP= 2.23D-15
 IDIUse=1 WtCom= 1.00D+00 WtEn= 0.00D+00
 Large coefficients: NSaved= 16 BigCof=    0.00 CofMax=   10.00 Det=-6.16D-16
 Inversion failed.  Reducing to 15 matrices.
 Coeff-Com:  0.459D-06-0.143D-04-0.210D-04-0.238D-04 0.555D-04 0.262D-04
 Coeff-Com:  0.834D-03-0.771D-02-0.442D-02 0.263D-01 0.578D-01-0.319D-02
 Coeff-Com: -0.418D+00 0.335D+00 0.101D+01
 Coeff:      0.459D-06-0.143D-04-0.210D-04-0.238D-04 0.555D-04 0.262D-04
 Coeff:      0.834D-03-0.771D-02-0.442D-02 0.263D-01 0.578D-01-0.319D-02
 Coeff:     -0.418D+00 0.335D+00 0.101D+01
 Gap=     0.026 Goal=   None    Shift=    0.000
 Gap=     0.030 Goal=   None    Shift=    0.000
 RMSDP=4.13D-08 MaxDP=6.72D-06 DE= 3.18D-12 OVMax= 8.46D-07

 Cycle  32  Pass 1  IDiag  1:
 E= -1136.08366492241     Delta-E=       -0.000000000005 Rises=F Damp=F
 DIIS: error= 5.53D-10 at cycle  32 NSaved=  16.
 NSaved=16 IEnMin= 4 EnMin= -1136.08373487671     IErMin=16 ErrMin= 5.53D-10
 ErrMax= 5.53D-10  0.00D+00 EMaxC= 1.00D-01 BMatC= 1.26D-16 BMatP= 5.97D-16
 IDIUse=1 WtCom= 1.00D+00 WtEn= 0.00D+00
 Large coefficients: NSaved= 16 BigCof=    0.00 CofMax=   10.00 Det=-1.86D-16
 Inversion failed.  Reducing to 15 matrices.
 Coeff-Com:  0.463D-06 0.363D-05-0.414D-05 0.521D-05-0.971D-05 0.682D-05
 Coeff-Com:  0.749D-03-0.339D-02-0.530D-02 0.147D-02 0.300D-01 0.550D-03
 Coeff-Com: -0.217D+00 0.909D-01 0.110D+01
 Coeff:      0.463D-06 0.363D-05-0.414D-05 0.521D-05-0.971D-05 0.682D-05
 Coeff:      0.749D-03-0.339D-02-0.530D-02 0.147D-02 0.300D-01 0.550D-03
 Coeff:     -0.217D+00 0.909D-01 0.110D+01
 Gap=     0.026 Goal=   None    Shift=    0.000
 Gap=     0.030 Goal=   None    Shift=    0.000
 RMSDP=3.88D-08 MaxDP=7.63D-06 DE=-4.55D-12 OVMax= 4.71D-07

 Cycle  33  Pass 1  IDiag  1:
 E= -1136.08366492241     Delta-E=        0.000000000002 Rises=F Damp=F
 DIIS: error= 4.07D-10 at cycle  33 NSaved=  16.
 NSaved=16 IEnMin= 4 EnMin= -1136.08373487671     IErMin=16 ErrMin= 4.07D-10
 ErrMax= 4.07D-10  0.00D+00 EMaxC= 1.00D-01 BMatC= 6.60D-17 BMatP= 1.26D-16
 IDIUse=1 WtCom= 1.00D+00 WtEn= 0.00D+00
 Large coefficients: NSaved= 16 BigCof=    0.00 CofMax=   10.00 Det=-6.45D-17
 Inversion failed.  Reducing to 15 matrices.
 Coeff-Com:  0.745D-07 0.133D-05-0.642D-05 0.101D-04-0.873D-05 0.540D-05
 Coeff-Com: -0.264D-02-0.339D-02 0.603D-02 0.257D-01-0.502D-02-0.145D+00
 Coeff-Com: -0.535D-01 0.461D+00 0.717D+00
 Coeff:      0.745D-07 0.133D-05-0.642D-05 0.101D-04-0.873D-05 0.540D-05
 Coeff:     -0.264D-02-0.339D-02 0.603D-02 0.257D-01-0.502D-02-0.145D+00
 Coeff:     -0.535D-01 0.461D+00 0.717D+00
 Gap=     0.026 Goal=   None    Shift=    0.000
 Gap=     0.030 Goal=   None    Shift=    0.000
 RMSDP=1.91D-08 MaxDP=3.58D-06 DE= 2.05D-12 OVMax= 2.73D-07

 Cycle  34  Pass 1  IDiag  1:
 E= -1136.08366492241     Delta-E=       -0.000000000002 Rises=F Damp=F
 DIIS: error= 2.03D-10 at cycle  34 NSaved=  16.
 NSaved=16 IEnMin= 4 EnMin= -1136.08373487671     IErMin=16 ErrMin= 2.03D-10
 ErrMax= 2.03D-10  0.00D+00 EMaxC= 1.00D-01 BMatC= 2.08D-17 BMatP= 6.60D-17
 IDIUse=1 WtCom= 1.00D+00 WtEn= 0.00D+00
 Large coefficients: NSaved= 16 BigCof=    0.00 CofMax=   10.00 Det=-2.05D-17
 Inversion failed.  Reducing to 15 matrices.
 Coeff-Com: -0.139D-06-0.578D-06 0.518D-05-0.478D-05 0.354D-06-0.901D-06
 Coeff-Com:  0.304D-02 0.461D-03-0.130D-01 0.375D-01 0.289D-01-0.119D+00
 Coeff-Com: -0.352D+00 0.145D+00 0.127D+01
 Coeff:     -0.139D-06-0.578D-06 0.518D-05-0.478D-05 0.354D-06-0.901D-06
 Coeff:      0.304D-02 0.461D-03-0.130D-01 0.375D-01 0.289D-01-0.119D+00
 Coeff:     -0.352D+00 0.145D+00 0.127D+01
 Gap=     0.026 Goal=   None    Shift=    0.000
 Gap=     0.030 Goal=   None    Shift=    0.000
 RMSDP=2.26D-08 MaxDP=4.50D-06 DE=-1.59D-12 OVMax= 2.96D-07

 Cycle  35  Pass 1  IDiag  1:
 E= -1136.08366492241     Delta-E=       -0.000000000002 Rises=F Damp=F
 DIIS: error= 1.68D-10 at cycle  35 NSaved=  16.
 NSaved=16 IEnMin= 4 EnMin= -1136.08373487671     IErMin=16 ErrMin= 1.68D-10
 ErrMax= 1.68D-10  0.00D+00 EMaxC= 1.00D-01 BMatC= 6.20D-18 BMatP= 2.08D-17
 IDIUse=1 WtCom= 1.00D+00 WtEn= 0.00D+00
 Large coefficients: NSaved= 16 BigCof=    0.00 CofMax=   10.00 Det=-3.53D-18
 Inversion failed.  Reducing to 15 matrices.
 Coeff-Com:  0.713D-07-0.753D-06 0.136D-05-0.259D-05 0.268D-05-0.117D-05
 Coeff-Com:  0.698D-04-0.724D-03 0.703D-04 0.150D-01 0.198D-01-0.774D-01
 Coeff-Com: -0.248D+00 0.125D-01 0.128D+01
 Coeff:      0.713D-07-0.753D-06 0.136D-05-0.259D-05 0.268D-05-0.117D-05
 Coeff:      0.698D-04-0.724D-03 0.703D-04 0.150D-01 0.198D-01-0.774D-01
 Coeff:     -0.248D+00 0.125D-01 0.128D+01
 Gap=     0.026 Goal=   None    Shift=    0.000
 Gap=     0.030 Goal=   None    Shift=    0.000
 RMSDP=5.05D-09 MaxDP=3.36D-07 DE=-2.05D-12 OVMax= 1.33D-07

 SCF Done:  E(UB3LYP) =  -1136.08366492     A.U. after   35 cycles
            NFock= 35  Conv=0.50D-08     -V/T= 2.0026
 <Sx>= 0.0000 <Sy>= 0.0000 <Sz>= 0.5000 <S**2>= 0.7802 S= 0.5150
 <L.S>= 0.000000000000E+00
 KE= 1.133174276673D+03 PE=-3.398935939158D+03 EE= 7.947890572655D+02
 Annihilation of the first spin contaminant:
 S**2 before annihilation     0.7802,   after     0.7504
 Leave Link  502 at Mon Nov 13 12:23:27 2023, MaxMem=  1879048192 cpu:             333.8 elap:              28.6
 (Enter /home/sekinelabo/g16/l601.exe)
 Copying SCF densities to generalized density rwf, IOpCl= 1 IROHF=0.

 **********************************************************************

            Population analysis using the SCF Density.

 **********************************************************************

 Orbital symmetries:
 Alpha Orbitals:
       Occupied  (A) (A) (A) (A) (A) (A) (A) (A) (A) (A) (A) (A)
                 (A) (A) (A) (A) (A) (A) (A) (A) (A) (A) (A) (A)
                 (A) (A) (A) (A) (A) (A) (A) (A) (A) (A) (A) (A)
                 (A) (A) (A)
       Virtual   (A) (A) (A) (A) (A) (A) (A) (A) (A) (A) (A) (A)
                 (A) (A) (A) (A) (A) (A) (A) (A) (A) (A) (A) (A)
                 (A) (A) (A) (A) (A) (A) (A) (A) (A) (A) (A) (A)
                 (A) (A) (A) (A) (A) (A) (A) (A) (A) (A) (A) (A)
                 (A) (A) (A) (A) (A) (A) (A) (A) (A) (A) (A) (A)
                 (A) (A) (A) (A) (A) (A) (A) (A) (A) (A) (A) (A)
                 (A) (A) (A) (A) (A) (A) (A) (A) (A) (A) (A) (A)
                 (A) (A) (A) (A) (A) (A) (A) (A) (A) (A) (A) (A)
                 (A) (A) (A) (A) (A) (A) (A) (A) (A) (A) (A) (A)
                 (A) (A) (A) (A) (A) (A) (A) (A) (A) (A) (A) (A)
                 (A) (A) (A) (A) (A) (A) (A) (A) (A) (A) (A) (A)
                 (A) (A) (A) (A) (A) (A) (A) (A) (A) (A) (A) (A)
                 (A) (A) (A) (A) (A) (A) (A) (A) (A) (A) (A) (A)
                 (A) (A) (A) (A) (A) (A) (A) (A) (A) (A) (A) (A)
                 (A) (A)
 Beta  Orbitals:
       Occupied  (A) (A) (A) (A) (A) (A) (A) (A) (A) (A) (A) (A)
                 (A) (A) (A) (A) (A) (A) (A) (A) (A) (A) (A) (A)
                 (A) (A) (A) (A) (A) (A) (A) (A) (A) (A) (A) (A)
                 (A) (A)
       Virtual   (A) (A) (A) (A) (A) (A) (A) (A) (A) (A) (A) (A)
                 (A) (A) (A) (A) (A) (A) (A) (A) (A) (A) (A) (A)
                 (A) (A) (A) (A) (A) (A) (A) (A) (A) (A) (A) (A)
                 (A) (A) (A) (A) (A) (A) (A) (A) (A) (A) (A) (A)
                 (A) (A) (A) (A) (A) (A) (A) (A) (A) (A) (A) (A)
                 (A) (A) (A) (A) (A) (A) (A) (A) (A) (A) (A) (A)
                 (A) (A) (A) (A) (A) (A) (A) (A) (A) (A) (A) (A)
                 (A) (A) (A) (A) (A) (A) (A) (A) (A) (A) (A) (A)
                 (A) (A) (A) (A) (A) (A) (A) (A) (A) (A) (A) (A)
                 (A) (A) (A) (A) (A) (A) (A) (A) (A) (A) (A) (A)
                 (A) (A) (A) (A) (A) (A) (A) (A) (A) (A) (A) (A)
                 (A) (A) (A) (A) (A) (A) (A) (A) (A) (A) (A) (A)
                 (A) (A) (A) (A) (A) (A) (A) (A) (A) (A) (A) (A)
                 (A) (A) (A) (A) (A) (A) (A) (A) (A) (A) (A) (A)
                 (A) (A) (A)
 The electronic state is 2-A.
 Alpha  occ. eigenvalues --  -38.46928 -38.44374 -38.44096 -38.43941 -38.43607
 Alpha  occ. eigenvalues --  -38.43421 -38.42985  -2.22886  -2.20396  -2.20101
 Alpha  occ. eigenvalues --   -2.19838  -2.19815  -2.19405  -2.18803  -1.16615
 Alpha  occ. eigenvalues --   -1.16560  -1.16486  -1.14163  -1.14062  -1.13982
 Alpha  occ. eigenvalues --   -1.13835  -1.13750  -1.13686  -1.13644  -1.13532
 Alpha  occ. eigenvalues --   -1.13509  -1.13478  -1.13451  -1.13315  -1.13090
 Alpha  occ. eigenvalues --   -1.13050  -1.13034  -1.12461  -1.12447  -1.12442
 Alpha  occ. eigenvalues --   -0.19458  -0.14990  -0.11025  -0.10491
 Alpha virt. eigenvalues --   -0.07878  -0.05339  -0.04625  -0.03186  -0.02840
 Alpha virt. eigenvalues --   -0.01852  -0.01725  -0.01280  -0.01194  -0.00529
 Alpha virt. eigenvalues --   -0.00350   0.00139   0.00254   0.00476   0.00642
 Alpha virt. eigenvalues --    0.00854   0.01030   0.01080   0.01294   0.01455
 Alpha virt. eigenvalues --    0.01537   0.01561   0.01734   0.01799   0.01871
 Alpha virt. eigenvalues --    0.02061   0.02197   0.02394   0.02416   0.02497
 Alpha virt. eigenvalues --    0.02623   0.02753   0.02849   0.02964   0.02998
 Alpha virt. eigenvalues --    0.03133   0.03240   0.03515   0.03674   0.03763
 Alpha virt. eigenvalues --    0.04225   0.04370   0.04642   0.04836   0.05064
 Alpha virt. eigenvalues --    0.05146   0.05387   0.05782   0.05934   0.06097
 Alpha virt. eigenvalues --    0.06247   0.06636   0.07005   0.07046   0.07191
 Alpha virt. eigenvalues --    0.07948   0.08047   0.08587   0.09002   0.09130
 Alpha virt. eigenvalues --    0.09356   0.10046   0.10834   0.11266   0.11445
 Alpha virt. eigenvalues --    0.11615   0.11954   0.12274   0.13121   0.13538
 Alpha virt. eigenvalues --    0.14318   0.14571   0.14728   0.15127   0.15494
 Alpha virt. eigenvalues --    0.15878   0.17777   0.19086   0.19368   0.24098
 Alpha virt. eigenvalues --    0.25512   0.25984   0.28227   0.29407   0.30256
 Alpha virt. eigenvalues --    0.31138   0.31820   0.33560   0.34138   0.34624
 Alpha virt. eigenvalues --    0.35565   0.36415   0.36823   0.37533   0.37627
 Alpha virt. eigenvalues --    0.38733   0.39329   0.40155   0.41603   0.42098
 Alpha virt. eigenvalues --    0.42457   0.43121   0.43437   0.43890   0.43991
 Alpha virt. eigenvalues --    0.44793   0.44884   0.45162   0.45805   0.45939
 Alpha virt. eigenvalues --    0.46387   0.47390   0.48109   0.48749   0.49518
 Alpha virt. eigenvalues --    0.50168   0.50333   0.50853   0.51440   0.51660
 Alpha virt. eigenvalues --    0.52958   0.54158   0.55381   0.56309   0.57757
 Alpha virt. eigenvalues --    0.66634   0.68366   0.69062   0.69520   0.70839
 Alpha virt. eigenvalues --    0.71506   0.71869   0.76666   0.78395   0.80157
 Alpha virt. eigenvalues --    2.10089   2.12815   2.15670   2.21695   2.22834
 Alpha virt. eigenvalues --    2.24036   2.35378   4.39748   4.40909   4.41342
 Alpha virt. eigenvalues --    4.41753   4.42437   4.43690   4.44904   4.45720
 Alpha virt. eigenvalues --    4.46612   4.46934   4.47167   4.52075   4.54914
 Alpha virt. eigenvalues --    4.55285   4.56509   4.63858   4.66931   4.71938
 Alpha virt. eigenvalues --    4.73165   4.74446   4.79353  96.30931  96.34560
 Alpha virt. eigenvalues --   96.38462  96.47584  96.49020  96.49842  96.64380
  Beta  occ. eigenvalues --  -38.46910 -38.44289 -38.44066 -38.43947 -38.43563
  Beta  occ. eigenvalues --  -38.43414 -38.42976  -2.22861  -2.20238  -2.20051
  Beta  occ. eigenvalues --   -2.19848  -2.19746  -2.19396  -2.18786  -1.16606
  Beta  occ. eigenvalues --   -1.16484  -1.16469  -1.14074  -1.13954  -1.13875
  Beta  occ. eigenvalues --   -1.13786  -1.13720  -1.13642  -1.13600  -1.13511
  Beta  occ. eigenvalues --   -1.13483  -1.13465  -1.13388  -1.13255  -1.13064
  Beta  occ. eigenvalues --   -1.13045  -1.13027  -1.12451  -1.12435  -1.12429
  Beta  occ. eigenvalues --   -0.18679  -0.14810  -0.10535
  Beta virt. eigenvalues --   -0.07539  -0.06925  -0.05181  -0.04030  -0.03174
  Beta virt. eigenvalues --   -0.02541  -0.01435  -0.01240  -0.01052  -0.00686
  Beta virt. eigenvalues --   -0.00361  -0.00226   0.00232   0.00366   0.00534
  Beta virt. eigenvalues --    0.00736   0.00966   0.01049   0.01133   0.01344
  Beta virt. eigenvalues --    0.01519   0.01643   0.01691   0.01840   0.01909
  Beta virt. eigenvalues --    0.01957   0.02116   0.02266   0.02433   0.02505
  Beta virt. eigenvalues --    0.02532   0.02666   0.02819   0.02941   0.03039
  Beta virt. eigenvalues --    0.03048   0.03170   0.03313   0.03599   0.03665
  Beta virt. eigenvalues --    0.03828   0.04345   0.04528   0.04770   0.04853
  Beta virt. eigenvalues --    0.05215   0.05263   0.05551   0.05872   0.06008
  Beta virt. eigenvalues --    0.06197   0.06313   0.06745   0.07064   0.07274
  Beta virt. eigenvalues --    0.07419   0.07983   0.08234   0.08726   0.09099
  Beta virt. eigenvalues --    0.09287   0.09487   0.10090   0.10952   0.11584
  Beta virt. eigenvalues --    0.11675   0.12087   0.12176   0.12388   0.13296
  Beta virt. eigenvalues --    0.13681   0.14430   0.14676   0.14950   0.15363
  Beta virt. eigenvalues --    0.15718   0.16149   0.18094   0.19281   0.19640
  Beta virt. eigenvalues --    0.24248   0.25935   0.26277   0.28591   0.29538
  Beta virt. eigenvalues --    0.30482   0.31265   0.32011   0.33822   0.34414
  Beta virt. eigenvalues --    0.34907   0.35697   0.36577   0.36982   0.37707
  Beta virt. eigenvalues --    0.37917   0.39009   0.39589   0.40253   0.41752
  Beta virt. eigenvalues --    0.42318   0.42925   0.43337   0.43590   0.44200
  Beta virt. eigenvalues --    0.44263   0.44860   0.45135   0.45235   0.45950
  Beta virt. eigenvalues --    0.46182   0.46557   0.47483   0.48259   0.48789
  Beta virt. eigenvalues --    0.49714   0.50254   0.50401   0.51108   0.51567
  Beta virt. eigenvalues --    0.51845   0.53089   0.54436   0.55537   0.56493
  Beta virt. eigenvalues --    0.57938   0.66622   0.68545   0.69351   0.69623
  Beta virt. eigenvalues --    0.71048   0.71623   0.71895   0.76727   0.78634
  Beta virt. eigenvalues --    0.80263   2.10143   2.12890   2.15702   2.21853
  Beta virt. eigenvalues --    2.23049   2.24049   2.35512   4.39783   4.40970
  Beta virt. eigenvalues --    4.41396   4.41848   4.42484   4.43765   4.44917
  Beta virt. eigenvalues --    4.45755   4.46616   4.46962   4.47181   4.52118
  Beta virt. eigenvalues --    4.54948   4.55421   4.56609   4.63879   4.66956
  Beta virt. eigenvalues --    4.71949   4.73208   4.74504   4.79398  96.30952
  Beta virt. eigenvalues --   96.34588  96.38473  96.47639  96.49082  96.49850
  Beta virt. eigenvalues --   96.64429
          Condensed to atoms (all electrons):
               1          2          3          4          5          6
     1  Na  12.278151  -0.249100  -0.224929   0.482516  -1.493071  -0.007571
     2  Na  -0.249100  11.483259   0.489525  -1.073966   0.316039  -0.105415
     3  Na  -0.224929   0.489525  10.984882  -0.233251  -0.122129   0.216452
     4  Na   0.482516  -1.073966  -0.233251  13.159082  -2.762317   1.429165
     5  Na  -1.493071   0.316039  -0.122129  -2.762317  20.480311  -3.374109
     6  Na  -0.007571  -0.105415   0.216452   1.429165  -3.374109  12.634423
     7  Na   0.133788   0.164072  -0.176042  -0.200175  -0.959858  -0.058957
               7
     1  Na   0.133788
     2  Na   0.164072
     3  Na  -0.176042
     4  Na  -0.200175
     5  Na  -0.959858
     6  Na  -0.058957
     7  Na  11.598559
          Atomic-Atomic Spin Densities.
               1          2          3          4          5          6
     1  Na   0.627208  -0.120934   0.044769   0.473196  -0.907268   0.561103
     2  Na  -0.120934   0.151425   0.062349  -0.468966   0.758262  -0.293432
     3  Na   0.044769   0.062349   0.074380  -0.093009   0.086841  -0.080431
     4  Na   0.473196  -0.468966  -0.093009   1.307220  -2.618222   0.907067
     5  Na  -0.907268   0.758262   0.086841  -2.618222   5.831820  -2.287260
     6  Na   0.561103  -0.293432  -0.080431   0.907067  -2.287260   0.844591
     7  Na  -0.056329  -0.018079   0.035954   0.191361  -0.269957   0.173138
               7
     1  Na  -0.056329
     2  Na  -0.018079
     3  Na   0.035954
     4  Na   0.191361
     5  Na  -0.269957
     6  Na   0.173138
     7  Na   0.003049
 Mulliken charges and spin densities:
               1          2
     1  Na   0.080217   0.621746
     2  Na  -0.024415   0.070625
     3  Na   0.065492   0.130853
     4  Na   0.198946  -0.301353
     5  Na  -1.084867   0.594216
     6  Na   0.266013  -0.175224
     7  Na   0.498614   0.059137
 Sum of Mulliken charges =  -0.00000   1.00000
 Mulliken charges and spin densities with hydrogens summed into heavy atoms:
               1          2
     1  Na   0.080217   0.621746
     2  Na  -0.024415   0.070625
     3  Na   0.065492   0.130853
     4  Na   0.198946  -0.301353
     5  Na  -1.084867   0.594216
     6  Na   0.266013  -0.175224
     7  Na   0.498614   0.059137
 Electronic spatial extent (au):  <R**2>=           3066.3414
 Charge=             -0.0000 electrons
 Dipole moment (field-independent basis, Debye):
    X=              2.4425    Y=              1.1644    Z=              0.7872  Tot=              2.8180
 Quadrupole moment (field-independent basis, Debye-Ang):
   XX=            -70.0292   YY=            -69.7000   ZZ=            -65.2184
   XY=             -3.2251   XZ=              6.8335   YZ=              4.3486
 Traceless Quadrupole moment (field-independent basis, Debye-Ang):
   XX=             -1.7133   YY=             -1.3841   ZZ=              3.0974
   XY=             -3.2251   XZ=              6.8335   YZ=              4.3486
 Octapole moment (field-independent basis, Debye-Ang**2):
  XXX=             35.4449  YYY=             11.7391  ZZZ=             15.6319  XYY=              4.8780
  XXY=             25.6203  XXZ=             15.0462  XZZ=             27.3782  YZZ=              9.3660
  YYZ=             -0.7693  XYZ=             13.5920
 Hexadecapole moment (field-independent basis, Debye-Ang**3):
 XXXX=          -4001.2358 YYYY=           -862.6060 ZZZZ=           -540.1963 XXXY=            -31.4239
 XXXZ=            215.4630 YYYX=            -95.0618 YYYZ=             35.7837 ZZZX=             54.7989
 ZZZY=             27.3160 XXYY=           -791.6978 XXZZ=           -702.6786 YYZZ=           -240.6531
 XXYZ=             49.8146 YYXZ=             -5.0986 ZZXY=             23.4671
 N-N= 3.348889402971D+02 E-N=-3.398935939166D+03  KE= 1.133174276673D+03
                          Isotropic Fermi Contact Couplings
        Atom                 a.u.       MegaHertz       Gauss      10(-4) cm-1
     1  Na(23)             0.36587     432.83106     154.44489     144.37690
     2  Na(23)            -0.03842     -45.44651     -16.21645     -15.15932
     3  Na(23)             0.04084      48.31915      17.24147      16.11753
     4  Na(23)            -0.00800      -9.46644      -3.37786      -3.15766
     5  Na(23)             0.08144      96.33997      34.37650      32.13555
     6  Na(23)             0.06165      72.93872      26.02635      24.32974
     7  Na(23)            -0.01236     -14.61974      -5.21669      -4.87662
 --------------------------------------------------------
       Center         ----  Spin Dipole Couplings  ----
                      3XX-RR        3YY-RR        3ZZ-RR
 --------------------------------------------------------
     1   Atom       -0.003537      0.009761     -0.006224
     2   Atom       -0.002446     -0.000174      0.002620
     3   Atom       -0.000065      0.000699     -0.000634
     4   Atom        0.026301     -0.016429     -0.009872
     5   Atom       -0.041532      0.020085      0.021447
     6   Atom       -0.002040     -0.016484      0.018524
     7   Atom       -0.018004      0.026476     -0.008472
 --------------------------------------------------------
                        XY            XZ            YZ
 --------------------------------------------------------
     1   Atom       -0.004805     -0.005316      0.010826
     2   Atom       -0.000777      0.003922     -0.008239
     3   Atom        0.002052     -0.001848      0.001265
     4   Atom       -0.017111      0.015750     -0.001444
     5   Atom        0.004590     -0.014572     -0.043354
     6   Atom        0.017855     -0.035147     -0.029042
     7   Atom        0.030718     -0.020689     -0.039193
 --------------------------------------------------------


 ---------------------------------------------------------------------------------
              Anisotropic Spin Dipole Couplings in Principal Axis System
 ---------------------------------------------------------------------------------

       Atom             a.u.   MegaHertz   Gauss  10(-4) cm-1        Axes

              Baa    -0.0126    -1.777    -0.634    -0.593  0.3267 -0.3543  0.8762
     1 Na(23) Bbb    -0.0048    -0.678    -0.242    -0.226  0.8938  0.4172 -0.1645
              Bcc     0.0174     2.455     0.876     0.819 -0.3073  0.8369  0.4530
 
              Baa    -0.0079    -1.118    -0.399    -0.373 -0.3749  0.6576  0.6535
     2 Na(23) Bbb    -0.0026    -0.370    -0.132    -0.123  0.8887  0.4556  0.0513
              Bcc     0.0105     1.488     0.531     0.496  0.2640 -0.6000  0.7552
 
              Baa    -0.0035    -0.495    -0.177    -0.165  0.6205 -0.4877  0.6141
     3 Na(23) Bbb     0.0011     0.152     0.054     0.051 -0.3921  0.4852  0.7815
              Bcc     0.0024     0.343     0.122     0.114  0.6791  0.7258 -0.1099
 
              Baa    -0.0239    -3.381    -1.206    -1.128  0.4002  0.8421 -0.3616
     4 Na(23) Bbb    -0.0134    -1.890    -0.674    -0.630 -0.1545  0.4509  0.8791
              Bcc     0.0373     5.270     1.881     1.758  0.9033 -0.2959  0.3105
 
              Baa    -0.0453    -6.404    -2.285    -2.136  0.9497  0.1240  0.2877
     5 Na(23) Bbb    -0.0205    -2.896    -1.033    -0.966 -0.2866  0.7143  0.6385
              Bcc     0.0659     9.300     3.318     3.102 -0.1263 -0.6888  0.7139
 
              Baa    -0.0332    -4.695    -1.675    -1.566  0.2002  0.7902  0.5792
     6 Na(23) Bbb    -0.0267    -3.772    -1.346    -1.258  0.8199 -0.4587  0.3425
              Bcc     0.0600     8.467     3.021     2.824 -0.5364 -0.4063  0.7397
 
              Baa    -0.0345    -4.875    -1.739    -1.626  0.6666  0.1353  0.7330
     7 Na(23) Bbb    -0.0334    -4.711    -1.681    -1.571  0.6315 -0.6249 -0.4590
              Bcc     0.0679     9.586     3.420     3.197  0.3959  0.7689 -0.5020
 

 ---------------------------------------------------------------------------------

 No NMR shielding tensors so no spin-rotation constants.
 Leave Link  601 at Mon Nov 13 12:23:28 2023, MaxMem=  1879048192 cpu:               2.5 elap:               0.2
 (Enter /home/sekinelabo/g16/l701.exe)
 ... and contract with generalized density number  0.
 Compute integral first derivatives.
 Leave Link  701 at Mon Nov 13 12:23:28 2023, MaxMem=  1879048192 cpu:               1.7 elap:               0.1
 (Enter /home/sekinelabo/g16/l702.exe)
 L702 exits ... SP integral derivatives will be done elsewhere.
 Leave Link  702 at Mon Nov 13 12:23:28 2023, MaxMem=  1879048192 cpu:               0.6 elap:               0.0
 (Enter /home/sekinelabo/g16/l703.exe)
 Integral derivatives from FoFJK, PRISM(SPDF).
 Compute integral first derivatives, UseDBF=F ICtDFT=           0.
 Calling FoFJK, ICntrl=      2127 FMM=F ISym2X=0 I1Cent= 0 IOpClX= 1 NMat=1 NMatS=1 NMatT=0.
 FoFJK:  IHMeth= 1 ICntrl=    2127 DoSepK=F KAlg= 0 I1Cent=           0 FoldK=F
 IRaf=         0 NMat=       1 IRICut=       1 DoRegI=T DoRafI=F ISym2E= 0 IDoP0=0 IntGTp=1.
 FoFCou: FMM=F IPFlag=           0 FMFlag=      100000 FMFlg1=         800
         NFxFlg=           0 DoJE=F BraDBF=F KetDBF=F FulRan=T
         wScrn=  0.000000 ICntrl=      2127 IOpCl=  1 I1Cent=           0 NGrid=           0
         NMat0=    1 NMatS0=      1 NMatT0=    0 NMatD0=    1 NMtDS0=    0 NMtDT0=    0
 Symmetry not used in FoFCou.
 Leave Link  703 at Mon Nov 13 12:23:30 2023, MaxMem=  1879048192 cpu:              33.4 elap:               2.2
 (Enter /home/sekinelabo/g16/l716.exe)
 Dipole        = 9.60950706D-01 4.58097791D-01 3.09724391D-01
 ***** Axes restored to original set *****
 -------------------------------------------------------------------
 Center     Atomic                   Forces (Hartrees/Bohr)
 Number     Number              X              Y              Z
 -------------------------------------------------------------------
      1       11           0.002962221   -0.012760161    0.011599288
      2       11           0.002202708   -0.009355537    0.001232934
      3       11          -0.003645057   -0.000123046    0.001695121
      4       11          -0.005581865    0.006825348   -0.005010244
      5       11          -0.005614722    0.003638766   -0.001191042
      6       11           0.009260396    0.015767328    0.001090796
      7       11           0.000416320   -0.003992699   -0.009416853
 -------------------------------------------------------------------
 Cartesian Forces:  Max     0.015767328 RMS     0.006919909
 Z-matrix is all fixed cartesians, so copy forces.
 Force constants in Cartesian coordinates: 
                1             2             3             4             5 
      1  0.483373D-01
      2 -0.314250D-02  0.759968D-01
      3  0.832244D-02 -0.317370D-01  0.804500D-01
      4 -0.247512D-02 -0.480021D-02 -0.749773D-03  0.479140D-01
      5  0.201442D-02  0.376807D-02  0.475370D-03 -0.238907D-02  0.736600D-01
      6 -0.278374D-02 -0.289876D-02  0.158779D-02  0.315174D-02 -0.832565D-02
      7  0.135529D-05 -0.550469D-05 -0.749833D-05 -0.141697D-02 -0.355630D-03
      8  0.333355D-04 -0.135397D-03 -0.184433D-03  0.626103D-02  0.167884D-02
      9  0.907913D-05 -0.368762D-04 -0.502316D-04 -0.188037D-02 -0.452043D-03
     10  0.147919D-02  0.104298D-02 -0.132732D-02 -0.145641D-01  0.108362D-02
     11  0.406094D-02  0.587739D-02 -0.713094D-03  0.138889D-01 -0.386181D-01
     12 -0.388631D-02 -0.145381D-02  0.473826D-02 -0.107778D-02  0.684704D-02
     13 -0.364794D-01  0.878549D-03  0.443804D-02 -0.304643D-01  0.520548D-03
     14  0.123524D-01 -0.357042D-01  0.901621D-02 -0.176602D-02 -0.487565D-01
     15 -0.168454D-01  0.158070D-01 -0.287592D-01  0.715985D-03  0.163394D-02
     16 -0.585795D-02  0.249736D-02 -0.555645D-02  0.318857D-02 -0.239518D-02
     17 -0.147261D-01 -0.425602D-01  0.151694D-02 -0.607882D-02  0.462672D-02
     18  0.478414D-02  0.284825D-01 -0.100945D-01  0.220358D-03 -0.399330D-03
     19 -0.500538D-02  0.352933D-02 -0.511943D-02 -0.218211D-02  0.152129D-02
     20 -0.592517D-03 -0.724246D-02  0.216260D-01 -0.511585D-02  0.364105D-02
     21  0.103997D-01 -0.816301D-02 -0.478721D-01 -0.380153D-03  0.220678D-03
                6             7             8             9            10 
      6  0.142488D-01
      7  0.905820D-03  0.321676D-01
      8 -0.353567D-02  0.246194D-03  0.815634D-02
      9  0.128849D-02 -0.106024D-01 -0.483646D-02  0.134926D-01
     10 -0.120812D-02 -0.297962D-01 -0.703815D-02  0.144319D-01  0.851548D-01
     11  0.149334D-01  0.903621D-03 -0.107942D-01  0.681458D-02 -0.578123D-02
     12 -0.327354D-02  0.640934D-02  0.997986D-02 -0.215349D-01 -0.509691D-02
     13 -0.218486D-02 -0.955149D-03  0.514628D-03 -0.195363D-02 -0.409915D-01
     14 -0.278467D-02 -0.795551D-03  0.925342D-03 -0.153523D-02  0.973878D-02
     15 -0.192372D-01  0.328914D-02 -0.156017D-02  0.676677D-02 -0.405538D-02
     16 -0.176724D-04 -0.173208D-05 -0.426033D-04 -0.116033D-04 -0.325394D-03
     17 -0.105621D-02  0.141364D-05  0.347706D-04  0.947001D-05  0.932021D-03
     18  0.421382D-02  0.718369D-05  0.176694D-03  0.481239D-04 -0.122785D-02
     19  0.213683D-02  0.103934D-05  0.255642D-04  0.696259D-05 -0.956937D-03
     20  0.366755D-02  0.545813D-05  0.134251D-03  0.365643D-04  0.219728D-04
     21  0.117184D-02 -0.161895D-05 -0.398206D-04 -0.108454D-04 -0.151635D-02
               11            12            13            14            15 
     11  0.727258D-01
     12 -0.250047D-01  0.594229D-01
     13 -0.113823D-01 -0.498707D-03  0.190629D+00
     14 -0.377774D-01  0.959116D-02 -0.848585D-02  0.186977D+00
     15  0.403365D-02 -0.497509D-01  0.278093D-02 -0.691405D-02  0.146687D+00
     16 -0.347061D-02 -0.245100D-03 -0.460904D-01 -0.202869D-01 -0.672202D-02
     17  0.705897D-02 -0.527970D-03  0.121385D-01 -0.424366D-01  0.179176D-02
     18 -0.195100D-02  0.383200D-02 -0.760548D-03  0.629598D-03 -0.225215D-01
     19  0.178060D-02  0.439547D-02 -0.356484D-01  0.924316D-02  0.208367D-01
     20  0.152747D-02  0.568466D-03  0.581590D-02 -0.232277D-01 -0.147921D-01
     21  0.188718D-02  0.656623D-02 -0.182123D-02 -0.800301D-02 -0.331847D-01
               16            17            18            19            20 
     16  0.550017D-01
     17  0.196021D-01  0.104324D+00
     18  0.511178D-02  0.737822D-02  0.473406D-01
     19 -0.591484D-02 -0.118691D-01 -0.813506D-02  0.497066D-01
     20  0.409591D-02 -0.310475D-01 -0.343167D-01 -0.423087D-02  0.562149D-01
     21  0.744107D-02 -0.911221D-02 -0.228185D-01 -0.141215D-01  0.232102D-01
               21 
     21  0.961481D-01
 Leave Link  716 at Mon Nov 13 12:23:30 2023, MaxMem=  1879048192 cpu:               0.6 elap:               0.0
 (Enter /home/sekinelabo/g16/l103.exe)

 GradGradGradGradGradGradGradGradGradGradGradGradGradGradGradGradGradGrad
 Berny optimization.
 Search for a local minimum.
 Step number   1 out of a maximum of    2
 All quantities printed in internal units (Hartrees-Bohrs-Radians)
 Second derivative matrix not updated -- first step.
 ITU=  0
     Eigenvalues ---    0.00753   0.00892   0.02237   0.03436   0.04788
     Eigenvalues ---    0.05651   0.06299   0.10335   0.11990   0.12400
     Eigenvalues ---    0.12890   0.15436   0.19809   0.22745   0.24516
 Quadratic step=4.212D-01 exceeds max=3.000D-01 adjusted using Lamda=-1.314D-02.
 Angle between NR and scaled steps=  11.79 degrees.
 Angle between quadratic step and forces=  34.64 degrees.
 Linear search not attempted -- first point.
 B after Tr=     0.000000   -0.000000    0.000000
         Rot=    1.000000    0.000000   -0.000000    0.000000 Ang=   0.00 deg.
 Variable       Old X    -DE/DX   Delta X   Delta X   Delta X     New X
                                 (Linear)    (Quad)   (Total)
    X1       14.83194   0.00296   0.00000   0.07349   0.07349  14.90542
    Y1        1.91878  -0.01276   0.00000  -0.07092  -0.07092   1.84786
    Z1        5.58951   0.01160   0.00000   0.07873   0.07873   5.66824
    X2        7.17105   0.00220   0.00000  -0.00485  -0.00485   7.16620
    Y2        0.00000  -0.00936   0.00000  -0.07661  -0.07661  -0.07661
    Z2        2.65028   0.00123   0.00000  -0.00507  -0.00507   2.64521
    X3        0.00000  -0.00365   0.00000  -0.13850  -0.13850  -0.13850
    Y3        4.70317  -0.00012   0.00000   0.01233   0.01233   4.71550
    Z3        3.85394   0.00170   0.00000   0.02118   0.02118   3.87512
    X4        5.12257  -0.00558   0.00000  -0.10460  -0.10460   5.01797
    Y4        5.14529   0.00683   0.00000   0.03666   0.03666   5.18195
    Z4        1.46593  -0.00501   0.00000  -0.04620  -0.04620   1.41973
    X5       10.57714  -0.00561   0.00000  -0.00280  -0.00280  10.57434
    Y5        4.53249   0.00364   0.00000   0.02022   0.02022   4.55271
    Z5        2.90169  -0.00119   0.00000  -0.00553  -0.00553   2.89616
    X6       15.55358   0.00926   0.00000   0.13539   0.13539  15.68896
    Y6        7.16752   0.01577   0.00000   0.09741   0.09741   7.26493
    Z6        3.58304   0.00109   0.00000   0.00973   0.00973   3.59277
    X7       15.13544   0.00042   0.00000   0.04187   0.04187  15.17731
    Y7        2.80382  -0.00399   0.00000  -0.01909  -0.01909   2.78474
    Z7        0.00000  -0.00942   0.00000  -0.05284  -0.05284  -0.05284
         Item               Value     Threshold  Converged?
 Maximum Force            0.015767     0.000450     NO 
 RMS     Force            0.006920     0.000300     NO 
 Maximum Displacement     0.138502     0.001800     NO 
 RMS     Displacement     0.065473     0.001200     NO 
 Predicted change in Energy=-4.505375D-03
 GradGradGradGradGradGradGradGradGradGradGradGradGradGradGradGradGradGrad

 Leave Link  103 at Mon Nov 13 12:23:30 2023, MaxMem=  1879048192 cpu:               0.2 elap:               0.0
 (Enter /home/sekinelabo/g16/l9999.exe)
 1\1\GINC-SEKINELABO-XA7R-R37\Force\UB3LYP\6-311+G(d)\Na7(2)\SEKINELABO
 \13-Nov-2023\0\\#P B3LYP/6-311+g(d) force\\Gaussian input prepared by 
 ASE\\0,2\Na,7.8487222241,1.0153748609,2.9578405969\Na,3.7947560629,0.,
 1.4024671565\Na,0.,2.4888083995,2.039414624\Na,2.7107466643,2.72277125
 96,0.7757367807\Na,5.5971836855,2.3984913261,1.535508165\Na,8.23059781
 99,3.7928883555,1.8960640843\Na,8.0093303542,1.4837192989,0.\\Version=
 ES64L-G16RevB.01\State=2-A\HF=-1136.0836649\S2=0.780209\S2-1=0.\S2A=0.
 750354\RMSD=5.049e-09\RMSF=6.920e-03\Dipole=0.9609507,-0.4580978,-0.30
 97244\Quadrupole=-1.2737923,-1.0290793,2.3028717,2.3978051,-5.0805097,
 3.2330474\PG=C01 [X(Na7)]\\@


 In the race for quality, there is no finish line.
                               -- David T. Kearns
 Job cpu time:       0 days  0 hours  6 minutes 32.0 seconds.
 Elapsed time:       0 days  0 hours  0 minutes 32.4 seconds.
 File lengths (MBytes):  RWF=     32 Int=      0 D2E=      0 Chk=      5 Scr=      1
 Normal termination of Gaussian 16 at Mon Nov 13 12:23:30 2023.
