 Entering Gaussian System, Link 0=g16
 Initial command:
 /home/sekinelabo/g16/l1.exe "/home/sekinelabo/g16temp/Gau-3984655.inp" -scrdir="/home/sekinelabo/g16temp/"
 Entering Link 1 = /home/sekinelabo/g16/l1.exe PID=   3984657.
  
 Copyright (c) 1988-2017, Gaussian, Inc.  All Rights Reserved.
  
 This is part of the Gaussian(R) 16 program.  It is based on
 the Gaussian(R) 09 system (copyright 2009, Gaussian, Inc.),
 the Gaussian(R) 03 system (copyright 2003, Gaussian, Inc.),
 the Gaussian(R) 98 system (copyright 1998, Gaussian, Inc.),
 the Gaussian(R) 94 system (copyright 1995, Gaussian, Inc.),
 the Gaussian 92(TM) system (copyright 1992, Gaussian, Inc.),
 the Gaussian 90(TM) system (copyright 1990, Gaussian, Inc.),
 the Gaussian 88(TM) system (copyright 1988, Gaussian, Inc.),
 the Gaussian 86(TM) system (copyright 1986, Carnegie Mellon
 University), and the Gaussian 82(TM) system (copyright 1983,
 Carnegie Mellon University). Gaussian is a federally registered
 trademark of Gaussian, Inc.
  
 This software contains proprietary and confidential information,
 including trade secrets, belonging to Gaussian, Inc.
  
 This software is provided under written license and may be
 used, copied, transmitted, or stored only in accord with that
 written license.
  
 The following legend is applicable only to US Government
 contracts under FAR:
  
                    RESTRICTED RIGHTS LEGEND
  
 Use, reproduction and disclosure by the US Government is
 subject to restrictions as set forth in subparagraphs (a)
 and (c) of the Commercial Computer Software - Restricted
 Rights clause in FAR 52.227-19.
  
 Gaussian, Inc.
 340 Quinnipiac St., Bldg. 40, Wallingford CT 06492
  
  
 ---------------------------------------------------------------
 Warning -- This program may not be used in any manner that
 competes with the business of Gaussian, Inc. or will provide
 assistance to any competitor of Gaussian, Inc.  The licensee
 of this program is prohibited from giving any competitor of
 Gaussian, Inc. access to this program.  By using this program,
 the user acknowledges that Gaussian, Inc. is engaged in the
 business of creating and licensing software in the field of
 computational chemistry and represents and warrants to the
 licensee that it is not a competitor of Gaussian, Inc. and that
 it will not use this program in any manner prohibited above.
 ---------------------------------------------------------------
  

 Cite this work as:
 Gaussian 16, Revision B.01,
 M. J. Frisch, G. W. Trucks, H. B. Schlegel, G. E. Scuseria, 
 M. A. Robb, J. R. Cheeseman, G. Scalmani, V. Barone, 
 G. A. Petersson, H. Nakatsuji, X. Li, M. Caricato, A. V. Marenich, 
 J. Bloino, B. G. Janesko, R. Gomperts, B. Mennucci, H. P. Hratchian, 
 J. V. Ortiz, A. F. Izmaylov, J. L. Sonnenberg, D. Williams-Young, 
 F. Ding, F. Lipparini, F. Egidi, J. Goings, B. Peng, A. Petrone, 
 T. Henderson, D. Ranasinghe, V. G. Zakrzewski, J. Gao, N. Rega, 
 G. Zheng, W. Liang, M. Hada, M. Ehara, K. Toyota, R. Fukuda, 
 J. Hasegawa, M. Ishida, T. Nakajima, Y. Honda, O. Kitao, H. Nakai, 
 T. Vreven, K. Throssell, J. A. Montgomery, Jr., J. E. Peralta, 
 F. Ogliaro, M. J. Bearpark, J. J. Heyd, E. N. Brothers, K. N. Kudin, 
 V. N. Staroverov, T. A. Keith, R. Kobayashi, J. Normand, 
 K. Raghavachari, A. P. Rendell, J. C. Burant, S. S. Iyengar, 
 J. Tomasi, M. Cossi, J. M. Millam, M. Klene, C. Adamo, R. Cammi, 
 J. W. Ochterski, R. L. Martin, K. Morokuma, O. Farkas, 
 J. B. Foresman, and D. J. Fox, Gaussian, Inc., Wallingford CT, 2016.
 
 ******************************************
 Gaussian 16:  ES64L-G16RevB.01 20-Dec-2017
                13-Nov-2023 
 ******************************************
 %mem=14GB
 %chk=checkpoint.chk
 %nprocshared=16
 Will use up to   16 processors via shared memory.
 -------------------------
 #P B3LYP/6-311+g(d) force
 -------------------------
 1/10=7,30=1,38=1/1,3;
 2/12=2,17=6,18=5,40=1/2;
 3/5=4,6=6,7=11,11=2,25=1,30=1,71=1,74=-5/1,2,3;
 4//1;
 5/5=2,38=5/2;
 6/7=2,8=2,9=2,10=2,28=1/1;
 7/29=1/1,2,3,16;
 1/10=7,30=1/3;
 99//99;
 Leave Link    1 at Mon Nov 13 12:23:52 2023, MaxMem=  1879048192 cpu:               0.3 elap:               0.0
 (Enter /home/sekinelabo/g16/l101.exe)
 ------------------------------
 Gaussian input prepared by ASE
 ------------------------------
 Symbolic Z-matrix:
 Charge =  0 Multiplicity = 2
 Na                    3.01804   3.00544   0.72965 
 Na                    3.00513   0.00296   0.6922 
 Na                    5.50611   1.50261   0. 
 Na                    4.51032   1.47136   2.82832 
 Na                    1.50976   1.48454   2.8267 
 Na                    0.        0.        0.70172 
 Na                    0.01215   3.00311   0.71765 
 
 ITRead=  0  0  0  0  0  0  0
 MicOpt= -1 -1 -1 -1 -1 -1 -1
 NAtoms=      7 NQM=        7 NQMF=       0 NMMI=      0 NMMIF=      0
                NMic=       0 NMicF=      0.
                    Isotopes and Nuclear Properties:
 (Nuclear quadrupole moments (NQMom) in fm**2, nuclear magnetic moments (NMagM)
  in nuclear magnetons)

  Atom         1           2           3           4           5           6           7
 IAtWgt=          23          23          23          23          23          23          23
 AtmWgt=  22.9897697  22.9897697  22.9897697  22.9897697  22.9897697  22.9897697  22.9897697
 NucSpn=           3           3           3           3           3           3           3
 AtZEff=  -0.0000000  -0.0000000  -0.0000000  -0.0000000  -0.0000000  -0.0000000  -0.0000000
 NQMom=   10.4000000  10.4000000  10.4000000  10.4000000  10.4000000  10.4000000  10.4000000
 NMagM=    2.2175200   2.2175200   2.2175200   2.2175200   2.2175200   2.2175200   2.2175200
 AtZNuc=  11.0000000  11.0000000  11.0000000  11.0000000  11.0000000  11.0000000  11.0000000
 Leave Link  101 at Mon Nov 13 12:23:52 2023, MaxMem=  1879048192 cpu:               2.7 elap:               0.2
 (Enter /home/sekinelabo/g16/l103.exe)

 GradGradGradGradGradGradGradGradGradGradGradGradGradGradGradGradGradGrad
 Berny optimization.
 Initialization pass.
 Trust Radius=3.00D-01 FncErr=1.00D-07 GrdErr=1.00D-07 EigMax=2.50D+02 EigMin=1.00D-04
 Number of steps in this run=      2 maximum allowed number of steps=      2.
 GradGradGradGradGradGradGradGradGradGradGradGradGradGradGradGradGradGrad

 Leave Link  103 at Mon Nov 13 12:23:52 2023, MaxMem=  1879048192 cpu:               0.2 elap:               0.0
 (Enter /home/sekinelabo/g16/l202.exe)
                          Input orientation:                          
 ---------------------------------------------------------------------
 Center     Atomic      Atomic             Coordinates (Angstroms)
 Number     Number       Type             X           Y           Z
 ---------------------------------------------------------------------
      1         11           0        3.018035    3.005439    0.729648
      2         11           0        3.005131    0.002957    0.692205
      3         11           0        5.506109    1.502614    0.000000
      4         11           0        4.510319    1.471360    2.828317
      5         11           0        1.509762    1.484539    2.826697
      6         11           0        0.000000    0.000000    0.701715
      7         11           0        0.012150    3.003114    0.717653
 ---------------------------------------------------------------------
                    Distance matrix (angstroms):
                    1          2          3          4          5
     1  Na   0.000000
     2  Na   3.002744   0.000000
     3  Na   2.996895   2.997167   0.000000
     4  Na   2.997452   2.997461   2.998658   0.000000
     5  Na   2.997605   2.997878   4.895031   3.000587   0.000000
     6  Na   4.259340   3.005148   5.750434   5.199069   2.999797
     7  Na   3.005910   4.237869   5.740219   5.199491   2.999497
                    6          7
     6  Na   0.000000
     7  Na   3.003181   0.000000
 Stoichiometry    Na7(2)
 Framework group  C1[X(Na7)]
 Deg. of freedom    15
 Full point group                 C1      NOp   1
 Largest Abelian subgroup         C1      NOp   1
 Largest concise Abelian subgroup C1      NOp   1
                         Standard orientation:                         
 ---------------------------------------------------------------------
 Center     Atomic      Atomic             Coordinates (Angstroms)
 Number     Number       Type             X           Y           Z
 ---------------------------------------------------------------------
      1         11           0        0.509249    1.509721   -0.484100
      2         11           0        0.496345   -1.492761   -0.521543
      3         11           0        2.997322    0.006896   -1.213748
      4         11           0        2.001533   -0.024358    1.614569
      5         11           0       -0.999025   -0.011178    1.612949
      6         11           0       -2.508787   -1.495718   -0.512032
      7         11           0       -2.496637    1.507397   -0.496095
 ---------------------------------------------------------------------
 Rotational constants (GHZ):           1.3152281           0.6331939           0.6099753
 Leave Link  202 at Mon Nov 13 12:23:52 2023, MaxMem=  1879048192 cpu:               0.0 elap:               0.0
 (Enter /home/sekinelabo/g16/l301.exe)
 Standard basis: 6-311+G(d) (5D, 7F)
 Ernie: Thresh=  0.10000D-02 Tol=  0.10000D-05 Strict=F.
 There are   217 symmetry adapted cartesian basis functions of A   symmetry.
 There are   210 symmetry adapted basis functions of A   symmetry.
   210 basis functions,   350 primitive gaussians,   217 cartesian basis functions
    39 alpha electrons       38 beta electrons
       nuclear repulsion energy       388.9520300817 Hartrees.
 IExCor=  402 DFT=T Ex+Corr=B3LYP ExCW=0 ScaHFX=  0.200000
 ScaDFX=  0.800000  0.720000  1.000000  0.810000 ScalE2=  1.000000  1.000000
 IRadAn=      5 IRanWt=     -1 IRanGd=            0 ICorTp=0 IEmpDi=  4
 NAtoms=    7 NActive=    7 NUniq=    7 SFac= 1.00D+00 NAtFMM=   60 NAOKFM=F Big=F
 Integral buffers will be    131072 words long.
 Raffenetti 2 integral format.
 Two-electron integral symmetry is turned on.
 Leave Link  301 at Mon Nov 13 12:23:52 2023, MaxMem=  1879048192 cpu:               0.5 elap:               0.0
 (Enter /home/sekinelabo/g16/l302.exe)
 NPDir=0 NMtPBC=     1 NCelOv=     1 NCel=       1 NClECP=     1 NCelD=      1
         NCelK=      1 NCelE2=     1 NClLst=     1 CellRange=     0.0.
 One-electron integrals computed using PRISM.
 One-electron integral symmetry used in STVInt
 NBasis=   210 RedAO= T EigKep=  2.88D-06  NBF=   210
 NBsUse=   210 1.00D-06 EigRej= -1.00D+00 NBFU=   210
 Precomputing XC quadrature grid using
 IXCGrd= 4 IRadAn=           5 IRanWt=          -1 IRanGd=           0 AccXCQ= 0.00D+00.
 Generated NRdTot=       0 NPtTot=           0 NUsed=           0 NTot=          32
 NSgBfM=   210   210   210   210   210 MxSgAt=     7 MxSgA2=     7.
 Leave Link  302 at Mon Nov 13 12:23:53 2023, MaxMem=  1879048192 cpu:               2.1 elap:               0.1
 (Enter /home/sekinelabo/g16/l303.exe)
 DipDrv:  MaxL=1.
 Leave Link  303 at Mon Nov 13 12:23:53 2023, MaxMem=  1879048192 cpu:               1.7 elap:               0.1
 (Enter /home/sekinelabo/g16/l401.exe)
 ExpMin= 7.60D-03 ExpMax= 3.62D+04 ExpMxC= 1.21D+03 IAcc=3 IRadAn=         5 AccDes= 0.00D+00
 Harris functional with IExCor=  402 and IRadAn=       5 diagonalized for initial guess.
 HarFok:  IExCor=  402 AccDes= 0.00D+00 IRadAn=         5 IDoV= 1 UseB2=F ITyADJ=14
 ICtDFT=  3500011 ScaDFX=  1.000000  1.000000  1.000000  1.000000
 FoFCou: FMM=F IPFlag=           0 FMFlag=      100000 FMFlg1=           0
         NFxFlg=           0 DoJE=T BraDBF=F KetDBF=T FulRan=T
         wScrn=  0.000000 ICntrl=       500 IOpCl=  0 I1Cent=   200000004 NGrid=           0
         NMat0=    1 NMatS0=      1 NMatT0=    0 NMatD0=    1 NMtDS0=    0 NMtDT0=    0
 Petite list used in FoFCou.
 Harris En= -1135.86667594984    
 JPrj=0 DoOrth=F DoCkMO=F.
 Initial guess <Sx>= 0.0000 <Sy>= 0.0000 <Sz>= 0.5000 <S**2>= 0.7500 S= 0.5000
 Leave Link  401 at Mon Nov 13 12:23:53 2023, MaxMem=  1879048192 cpu:               4.8 elap:               0.3
 (Enter /home/sekinelabo/g16/l502.exe)
 Keep R1 and R2 ints in memory in canonical form, NReq=507620374.
 FoFCou: FMM=F IPFlag=           0 FMFlag=           0 FMFlg1=           0
         NFxFlg=           0 DoJE=F BraDBF=F KetDBF=F FulRan=T
         wScrn=  0.000000 ICntrl=       600 IOpCl=  0 I1Cent=           0 NGrid=           0
         NMat0=    1 NMatS0=  22155 NMatT0=    0 NMatD0=    1 NMtDS0=    0 NMtDT0=    0
 Symmetry not used in FoFCou.
 Two-electron integral symmetry not used.
 UHF open shell SCF:
 Using DIIS extrapolation, IDIIS=  1040.
 NGot=  1879048192 LenX=  1388082362 LenY=  1388034832
 Requested convergence on RMS density matrix=1.00D-08 within 128 cycles.
 Requested convergence on MAX density matrix=1.00D-06.
 Requested convergence on             energy=1.00D-06.
 No special actions if energy rises.

 Cycle   1  Pass 1  IDiag  1:
 E= -1136.04580161141    
 DIIS: error= 1.44D-02 at cycle   1 NSaved=   1.
 NSaved= 1 IEnMin= 1 EnMin= -1136.04580161141     IErMin= 1 ErrMin= 1.44D-02
 ErrMax= 1.44D-02  0.00D+00 EMaxC= 1.00D-01 BMatC= 2.07D-01 BMatP= 2.07D-01
 IDIUse=3 WtCom= 8.56D-01 WtEn= 1.44D-01
 Coeff-Com:  0.100D+01
 Coeff-En:   0.100D+01
 Coeff:      0.100D+01
 Gap=     0.045 Goal=   None    Shift=    0.000
 Gap=     0.027 Goal=   None    Shift=    0.000
 GapD=    0.027 DampG=0.250 DampE=0.500 DampFc=0.2500 IDamp=-1.
 Damping current iteration by 2.50D-01
 RMSDP=6.55D-02 MaxDP=8.07D+00              OVMax= 2.90D-01

 Cycle   2  Pass 1  IDiag  1:
 E= -1136.06229263117     Delta-E=       -0.016491019763 Rises=F Damp=T
 DIIS: error= 1.02D-02 at cycle   2 NSaved=   2.
 NSaved= 2 IEnMin= 2 EnMin= -1136.06229263117     IErMin= 2 ErrMin= 1.02D-02
 ErrMax= 1.02D-02  0.00D+00 EMaxC= 1.00D-01 BMatC= 7.73D-02 BMatP= 2.07D-01
 IDIUse=3 WtCom= 8.98D-01 WtEn= 1.02D-01
 Coeff-Com: -0.122D+01 0.222D+01
 Coeff-En:   0.000D+00 0.100D+01
 Coeff:     -0.110D+01 0.210D+01
 Gap=     0.048 Goal=   None    Shift=    0.000
 Gap=     0.032 Goal=   None    Shift=    0.000
 RMSDP=2.74D-02 MaxDP=3.84D+00 DE=-1.65D-02 OVMax= 2.05D-01

 Cycle   3  Pass 1  IDiag  1:
 E= -1136.08859017197     Delta-E=       -0.026297540794 Rises=F Damp=F
 DIIS: error= 4.46D-03 at cycle   3 NSaved=   3.
 NSaved= 3 IEnMin= 3 EnMin= -1136.08859017197     IErMin= 3 ErrMin= 4.46D-03
 ErrMax= 4.46D-03  0.00D+00 EMaxC= 1.00D-01 BMatC= 6.27D-03 BMatP= 7.73D-02
 IDIUse=3 WtCom= 9.55D-01 WtEn= 4.46D-02
 Coeff-Com: -0.340D+00 0.617D+00 0.723D+00
 Coeff-En:   0.000D+00 0.000D+00 0.100D+01
 Coeff:     -0.325D+00 0.590D+00 0.735D+00
 Gap=     0.044 Goal=   None    Shift=    0.000
 Gap=     0.030 Goal=   None    Shift=    0.000
 RMSDP=1.11D-02 MaxDP=8.79D-01 DE=-2.63D-02 OVMax= 7.70D-02

 Cycle   4  Pass 1  IDiag  1:
 E= -1136.09015117244     Delta-E=       -0.001561000473 Rises=F Damp=F
 DIIS: error= 3.29D-03 at cycle   4 NSaved=   4.
 NSaved= 4 IEnMin= 4 EnMin= -1136.09015117244     IErMin= 4 ErrMin= 3.29D-03
 ErrMax= 3.29D-03  0.00D+00 EMaxC= 1.00D-01 BMatC= 3.48D-03 BMatP= 6.27D-03
 IDIUse=3 WtCom= 9.67D-01 WtEn= 3.29D-02
 Coeff-Com:  0.145D-02-0.272D-03 0.426D+00 0.573D+00
 Coeff-En:   0.000D+00 0.000D+00 0.389D+00 0.611D+00
 Coeff:      0.140D-02-0.263D-03 0.424D+00 0.574D+00
 Gap=     0.046 Goal=   None    Shift=    0.000
 Gap=     0.030 Goal=   None    Shift=    0.000
 RMSDP=3.56D-03 MaxDP=1.90D-01 DE=-1.56D-03 OVMax= 3.89D-02

 Cycle   5  Pass 1  IDiag  1:
 E= -1136.09236219950     Delta-E=       -0.002211027059 Rises=F Damp=F
 DIIS: error= 5.43D-04 at cycle   5 NSaved=   5.
 NSaved= 5 IEnMin= 5 EnMin= -1136.09236219950     IErMin= 5 ErrMin= 5.43D-04
 ErrMax= 5.43D-04  0.00D+00 EMaxC= 1.00D-01 BMatC= 7.22D-05 BMatP= 3.48D-03
 IDIUse=3 WtCom= 9.95D-01 WtEn= 5.43D-03
 Coeff-Com:  0.169D-02-0.291D-02 0.224D+00 0.311D+00 0.466D+00
 Coeff-En:   0.000D+00 0.000D+00 0.000D+00 0.000D+00 0.100D+01
 Coeff:      0.168D-02-0.290D-02 0.222D+00 0.310D+00 0.469D+00
 Gap=     0.046 Goal=   None    Shift=    0.000
 Gap=     0.030 Goal=   None    Shift=    0.000
 RMSDP=7.88D-04 MaxDP=6.19D-02 DE=-2.21D-03 OVMax= 8.27D-03

 Cycle   6  Pass 1  IDiag  1:
 E= -1136.09242922576     Delta-E=       -0.000067026263 Rises=F Damp=F
 DIIS: error= 1.30D-04 at cycle   6 NSaved=   6.
 NSaved= 6 IEnMin= 6 EnMin= -1136.09242922576     IErMin= 6 ErrMin= 1.30D-04
 ErrMax= 1.30D-04  0.00D+00 EMaxC= 1.00D-01 BMatC= 5.15D-06 BMatP= 7.22D-05
 IDIUse=3 WtCom= 9.99D-01 WtEn= 1.30D-03
 Coeff-Com: -0.150D-02 0.159D-02-0.276D-01-0.383D-01 0.153D+00 0.912D+00
 Coeff-En:   0.000D+00 0.000D+00 0.000D+00 0.000D+00 0.000D+00 0.100D+01
 Coeff:     -0.150D-02 0.159D-02-0.276D-01-0.383D-01 0.153D+00 0.912D+00
 Gap=     0.046 Goal=   None    Shift=    0.000
 Gap=     0.030 Goal=   None    Shift=    0.000
 RMSDP=7.30D-04 MaxDP=1.19D-01 DE=-6.70D-05 OVMax= 5.14D-03

 Cycle   7  Pass 1  IDiag  1:
 E= -1136.09243591653     Delta-E=       -0.000006690763 Rises=F Damp=F
 DIIS: error= 1.57D-04 at cycle   7 NSaved=   7.
 NSaved= 7 IEnMin= 7 EnMin= -1136.09243591653     IErMin= 6 ErrMin= 1.30D-04
 ErrMax= 1.57D-04  0.00D+00 EMaxC= 1.00D-01 BMatC= 3.15D-06 BMatP= 5.15D-06
 IDIUse=3 WtCom= 9.99D-01 WtEn= 1.30D-03
 Coeff-Com: -0.111D-02 0.123D-02-0.422D-01-0.581D-01 0.491D-01 0.607D+00
 Coeff-Com:  0.444D+00
 Coeff-En:   0.000D+00 0.000D+00 0.000D+00 0.000D+00 0.000D+00 0.000D+00
 Coeff-En:   0.100D+01
 Coeff:     -0.111D-02 0.122D-02-0.422D-01-0.580D-01 0.490D-01 0.606D+00
 Coeff:      0.445D+00
 Gap=     0.047 Goal=   None    Shift=    0.000
 Gap=     0.031 Goal=   None    Shift=    0.000
 RMSDP=2.53D-04 MaxDP=4.71D-02 DE=-6.69D-06 OVMax= 3.17D-03

 Cycle   8  Pass 1  IDiag  1:
 E= -1136.09244005929     Delta-E=       -0.000004142764 Rises=F Damp=F
 DIIS: error= 5.60D-05 at cycle   8 NSaved=   8.
 NSaved= 8 IEnMin= 8 EnMin= -1136.09244005929     IErMin= 8 ErrMin= 5.60D-05
 ErrMax= 5.60D-05  0.00D+00 EMaxC= 1.00D-01 BMatC= 4.49D-07 BMatP= 3.15D-06
 IDIUse=1 WtCom= 1.00D+00 WtEn= 0.00D+00
 Coeff-Com:  0.387D-03-0.480D-03-0.106D-01-0.134D-01-0.550D-01-0.110D+00
 Coeff-Com:  0.244D+00 0.945D+00
 Coeff:      0.387D-03-0.480D-03-0.106D-01-0.134D-01-0.550D-01-0.110D+00
 Coeff:      0.244D+00 0.945D+00
 Gap=     0.046 Goal=   None    Shift=    0.000
 Gap=     0.031 Goal=   None    Shift=    0.000
 RMSDP=2.06D-04 MaxDP=2.72D-02 DE=-4.14D-06 OVMax= 1.77D-03

 Cycle   9  Pass 1  IDiag  1:
 E= -1136.09244139162     Delta-E=       -0.000001332331 Rises=F Damp=F
 DIIS: error= 1.64D-05 at cycle   9 NSaved=   9.
 NSaved= 9 IEnMin= 9 EnMin= -1136.09244139162     IErMin= 9 ErrMin= 1.64D-05
 ErrMax= 1.64D-05  0.00D+00 EMaxC= 1.00D-01 BMatC= 3.71D-08 BMatP= 4.49D-07
 IDIUse=1 WtCom= 1.00D+00 WtEn= 0.00D+00
 Coeff-Com:  0.528D-03-0.668D-03 0.538D-02 0.754D-02-0.130D-01-0.935D-01
 Coeff-Com: -0.393D-01 0.362D-01 0.110D+01
 Coeff:      0.528D-03-0.668D-03 0.538D-02 0.754D-02-0.130D-01-0.935D-01
 Coeff:     -0.393D-01 0.362D-01 0.110D+01
 Gap=     0.046 Goal=   None    Shift=    0.000
 Gap=     0.031 Goal=   None    Shift=    0.000
 RMSDP=1.06D-04 MaxDP=1.62D-02 DE=-1.33D-06 OVMax= 1.01D-03

 Cycle  10  Pass 1  IDiag  1:
 E= -1136.09244165462     Delta-E=       -0.000000263000 Rises=F Damp=F
 DIIS: error= 8.71D-06 at cycle  10 NSaved=  10.
 NSaved=10 IEnMin=10 EnMin= -1136.09244165462     IErMin=10 ErrMin= 8.71D-06
 ErrMax= 8.71D-06  0.00D+00 EMaxC= 1.00D-01 BMatC= 8.89D-09 BMatP= 3.71D-08
 IDIUse=1 WtCom= 1.00D+00 WtEn= 0.00D+00
 Coeff-Com: -0.175D-03 0.238D-03 0.196D-02 0.224D-02 0.756D-02 0.127D-01
 Coeff-Com: -0.355D-01-0.133D+00-0.636D-01 0.121D+01
 Coeff:     -0.175D-03 0.238D-03 0.196D-02 0.224D-02 0.756D-02 0.127D-01
 Coeff:     -0.355D-01-0.133D+00-0.636D-01 0.121D+01
 Gap=     0.046 Goal=   None    Shift=    0.000
 Gap=     0.031 Goal=   None    Shift=    0.000
 RMSDP=4.06D-05 MaxDP=4.13D-03 DE=-2.63D-07 OVMax= 6.18D-04

 Cycle  11  Pass 1  IDiag  1:
 E= -1136.09244173106     Delta-E=       -0.000000076438 Rises=F Damp=F
 DIIS: error= 4.50D-06 at cycle  11 NSaved=  11.
 NSaved=11 IEnMin=11 EnMin= -1136.09244173106     IErMin=11 ErrMin= 4.50D-06
 ErrMax= 4.50D-06  0.00D+00 EMaxC= 1.00D-01 BMatC= 2.96D-09 BMatP= 8.89D-09
 IDIUse=1 WtCom= 1.00D+00 WtEn= 0.00D+00
 Coeff-Com: -0.215D-03 0.275D-03-0.545D-03-0.871D-03 0.672D-02 0.314D-01
 Coeff-Com: -0.545D-02-0.689D-01-0.317D+00 0.398D+00 0.957D+00
 Coeff:     -0.215D-03 0.275D-03-0.545D-03-0.871D-03 0.672D-02 0.314D-01
 Coeff:     -0.545D-02-0.689D-01-0.317D+00 0.398D+00 0.957D+00
 Gap=     0.046 Goal=   None    Shift=    0.000
 Gap=     0.031 Goal=   None    Shift=    0.000
 RMSDP=2.16D-05 MaxDP=2.32D-03 DE=-7.64D-08 OVMax= 3.86D-04

 Cycle  12  Pass 1  IDiag  1:
 E= -1136.09244175122     Delta-E=       -0.000000020165 Rises=F Damp=F
 DIIS: error= 1.97D-06 at cycle  12 NSaved=  12.
 NSaved=12 IEnMin=12 EnMin= -1136.09244175122     IErMin=12 ErrMin= 1.97D-06
 ErrMax= 1.97D-06  0.00D+00 EMaxC= 1.00D-01 BMatC= 4.00D-10 BMatP= 2.96D-09
 IDIUse=1 WtCom= 1.00D+00 WtEn= 0.00D+00
 Coeff-Com:  0.376D-04-0.511D-04-0.243D-03-0.309D-03-0.100D-02-0.179D-02
 Coeff-Com:  0.540D-02 0.225D-01-0.964D-02-0.197D+00 0.329D-01 0.115D+01
 Coeff:      0.376D-04-0.511D-04-0.243D-03-0.309D-03-0.100D-02-0.179D-02
 Coeff:      0.540D-02 0.225D-01-0.964D-02-0.197D+00 0.329D-01 0.115D+01
 Gap=     0.046 Goal=   None    Shift=    0.000
 Gap=     0.031 Goal=   None    Shift=    0.000
 RMSDP=7.83D-06 MaxDP=6.77D-04 DE=-2.02D-08 OVMax= 1.78D-04

 Cycle  13  Pass 1  IDiag  1:
 E= -1136.09244175491     Delta-E=       -0.000000003682 Rises=F Damp=F
 DIIS: error= 7.21D-07 at cycle  13 NSaved=  13.
 NSaved=13 IEnMin=13 EnMin= -1136.09244175491     IErMin=13 ErrMin= 7.21D-07
 ErrMax= 7.21D-07  0.00D+00 EMaxC= 1.00D-01 BMatC= 8.07D-11 BMatP= 4.00D-10
 IDIUse=1 WtCom= 1.00D+00 WtEn= 0.00D+00
 Coeff-Com:  0.390D-04-0.504D-04-0.126D-04 0.610D-04-0.125D-02-0.602D-02
 Coeff-Com:  0.141D-02 0.160D-01 0.693D-01-0.985D-01-0.189D+00 0.112D-01
 Coeff-Com:  0.120D+01
 Coeff:      0.390D-04-0.504D-04-0.126D-04 0.610D-04-0.125D-02-0.602D-02
 Coeff:      0.141D-02 0.160D-01 0.693D-01-0.985D-01-0.189D+00 0.112D-01
 Coeff:      0.120D+01
 Gap=     0.046 Goal=   None    Shift=    0.000
 Gap=     0.031 Goal=   None    Shift=    0.000
 RMSDP=3.93D-06 MaxDP=5.28D-04 DE=-3.68D-09 OVMax= 7.80D-05

 Cycle  14  Pass 1  IDiag  1:
 E= -1136.09244175559     Delta-E=       -0.000000000685 Rises=F Damp=F
 DIIS: error= 2.72D-07 at cycle  14 NSaved=  14.
 NSaved=14 IEnMin=14 EnMin= -1136.09244175559     IErMin=14 ErrMin= 2.72D-07
 ErrMax= 2.72D-07  0.00D+00 EMaxC= 1.00D-01 BMatC= 2.43D-11 BMatP= 8.07D-11
 IDIUse=1 WtCom= 1.00D+00 WtEn= 0.00D+00
 Coeff-Com:  0.142D-04-0.180D-04 0.583D-05 0.401D-04-0.487D-03-0.258D-02
 Coeff-Com:  0.268D-03 0.535D-02 0.327D-01-0.270D-01-0.903D-01-0.998D-01
 Coeff-Com:  0.509D+00 0.672D+00
 Coeff:      0.142D-04-0.180D-04 0.583D-05 0.401D-04-0.487D-03-0.258D-02
 Coeff:      0.268D-03 0.535D-02 0.327D-01-0.270D-01-0.903D-01-0.998D-01
 Coeff:      0.509D+00 0.672D+00
 Gap=     0.046 Goal=   None    Shift=    0.000
 Gap=     0.031 Goal=   None    Shift=    0.000
 RMSDP=1.15D-06 MaxDP=1.50D-04 DE=-6.85D-10 OVMax= 2.12D-05

 Cycle  15  Pass 1  IDiag  1:
 E= -1136.09244175568     Delta-E=       -0.000000000085 Rises=F Damp=F
 DIIS: error= 1.80D-07 at cycle  15 NSaved=  15.
 NSaved=15 IEnMin=15 EnMin= -1136.09244175568     IErMin=15 ErrMin= 1.80D-07
 ErrMax= 1.80D-07  0.00D+00 EMaxC= 1.00D-01 BMatC= 1.07D-11 BMatP= 2.43D-11
 IDIUse=1 WtCom= 1.00D+00 WtEn= 0.00D+00
 Coeff-Com: -0.878D-05 0.116D-04 0.977D-05-0.117D-04 0.281D-03 0.124D-02
 Coeff-Com: -0.378D-03-0.400D-02-0.141D-01 0.279D-01 0.374D-01-0.435D-01
 Coeff-Com: -0.307D+00 0.405D+00 0.898D+00
 Coeff:     -0.878D-05 0.116D-04 0.977D-05-0.117D-04 0.281D-03 0.124D-02
 Coeff:     -0.378D-03-0.400D-02-0.141D-01 0.279D-01 0.374D-01-0.435D-01
 Coeff:     -0.307D+00 0.405D+00 0.898D+00
 Gap=     0.046 Goal=   None    Shift=    0.000
 Gap=     0.031 Goal=   None    Shift=    0.000
 RMSDP=1.33D-06 MaxDP=1.32D-04 DE=-8.50D-11 OVMax= 2.45D-05

 Cycle  16  Pass 1  IDiag  1:
 E= -1136.09244175572     Delta-E=       -0.000000000039 Rises=F Damp=F
 DIIS: error= 1.06D-07 at cycle  16 NSaved=  16.
 NSaved=16 IEnMin=16 EnMin= -1136.09244175572     IErMin=16 ErrMin= 1.06D-07
 ErrMax= 1.06D-07  0.00D+00 EMaxC= 1.00D-01 BMatC= 1.79D-12 BMatP= 1.07D-11
 IDIUse=1 WtCom= 1.00D+00 WtEn= 0.00D+00
 Coeff-Com: -0.160D-05 0.196D-05 0.926D-05 0.224D-05 0.102D-03 0.440D-03
 Coeff-Com: -0.946D-04-0.916D-03-0.650D-02 0.355D-02 0.198D-01 0.244D-01
 Coeff-Com: -0.106D+00-0.124D+00 0.152D-01 0.117D+01
 Coeff:     -0.160D-05 0.196D-05 0.926D-05 0.224D-05 0.102D-03 0.440D-03
 Coeff:     -0.946D-04-0.916D-03-0.650D-02 0.355D-02 0.198D-01 0.244D-01
 Coeff:     -0.106D+00-0.124D+00 0.152D-01 0.117D+01
 Gap=     0.046 Goal=   None    Shift=    0.000
 Gap=     0.031 Goal=   None    Shift=    0.000
 RMSDP=8.63D-07 MaxDP=1.05D-04 DE=-3.91D-11 OVMax= 1.95D-05

 Cycle  17  Pass 1  IDiag  1:
 E= -1136.09244175575     Delta-E=       -0.000000000034 Rises=F Damp=F
 DIIS: error= 9.30D-08 at cycle  17 NSaved=  17.
 NSaved=17 IEnMin=17 EnMin= -1136.09244175575     IErMin=17 ErrMin= 9.30D-08
 ErrMax= 9.30D-08  0.00D+00 EMaxC= 1.00D-01 BMatC= 9.33D-13 BMatP= 1.79D-12
 IDIUse=1 WtCom= 1.00D+00 WtEn= 0.00D+00
 Coeff-Com:  0.104D-05-0.144D-05-0.233D-05 0.389D-05-0.320D-04-0.153D-03
 Coeff-Com:  0.495D-04 0.483D-03 0.261D-02-0.485D-02-0.620D-02 0.568D-02
 Coeff-Com:  0.718D-01-0.116D+00-0.243D+00 0.151D+00 0.114D+01
 Coeff:      0.104D-05-0.144D-05-0.233D-05 0.389D-05-0.320D-04-0.153D-03
 Coeff:      0.495D-04 0.483D-03 0.261D-02-0.485D-02-0.620D-02 0.568D-02
 Coeff:      0.718D-01-0.116D+00-0.243D+00 0.151D+00 0.114D+01
 Gap=     0.046 Goal=   None    Shift=    0.000
 Gap=     0.031 Goal=   None    Shift=    0.000
 RMSDP=5.65D-07 MaxDP=4.82D-05 DE=-3.41D-11 OVMax= 1.81D-05

 Cycle  18  Pass 1  IDiag  1:
 E= -1136.09244175575     Delta-E=       -0.000000000002 Rises=F Damp=F
 DIIS: error= 8.03D-08 at cycle  18 NSaved=  18.
 NSaved=18 IEnMin=18 EnMin= -1136.09244175575     IErMin=18 ErrMin= 8.03D-08
 ErrMax= 8.03D-08  0.00D+00 EMaxC= 1.00D-01 BMatC= 5.77D-13 BMatP= 9.33D-13
 IDIUse=1 WtCom= 1.00D+00 WtEn= 0.00D+00
 Coeff-Com:  0.323D-06-0.326D-06-0.515D-05-0.224D-05-0.509D-04-0.199D-03
 Coeff-Com:  0.490D-04 0.417D-03 0.257D-02-0.525D-03-0.904D-02-0.123D-01
 Coeff-Com:  0.369D-01 0.857D-01 0.267D-01-0.642D+00-0.108D+00 0.162D+01
 Coeff:      0.323D-06-0.326D-06-0.515D-05-0.224D-05-0.509D-04-0.199D-03
 Coeff:      0.490D-04 0.417D-03 0.257D-02-0.525D-03-0.904D-02-0.123D-01
 Coeff:      0.369D-01 0.857D-01 0.267D-01-0.642D+00-0.108D+00 0.162D+01
 Gap=     0.046 Goal=   None    Shift=    0.000
 Gap=     0.031 Goal=   None    Shift=    0.000
 RMSDP=6.17D-07 MaxDP=6.04D-05 DE=-2.27D-12 OVMax= 2.51D-05

 Cycle  19  Pass 1  IDiag  1:
 E= -1136.09244175577     Delta-E=       -0.000000000023 Rises=F Damp=F
 DIIS: error= 6.25D-08 at cycle  19 NSaved=  19.
 NSaved=19 IEnMin=19 EnMin= -1136.09244175577     IErMin=19 ErrMin= 6.25D-08
 ErrMax= 6.25D-08  0.00D+00 EMaxC= 1.00D-01 BMatC= 3.42D-13 BMatP= 5.77D-13
 IDIUse=1 WtCom= 1.00D+00 WtEn= 0.00D+00
 Coeff-Com: -0.805D-06 0.108D-05 0.650D-05-0.903D-06 0.483D-04 0.240D-03
 Coeff-Com: -0.930D-04-0.683D-03-0.351D-02 0.519D-02 0.867D-02-0.390D-03
 Coeff-Com: -0.779D-01 0.749D-01 0.204D+00 0.161D+00-0.937D+00-0.872D+00
 Coeff-Com:  0.244D+01
 Coeff:     -0.805D-06 0.108D-05 0.650D-05-0.903D-06 0.483D-04 0.240D-03
 Coeff:     -0.930D-04-0.683D-03-0.351D-02 0.519D-02 0.867D-02-0.390D-03
 Coeff:     -0.779D-01 0.749D-01 0.204D+00 0.161D+00-0.937D+00-0.872D+00
 Coeff:      0.244D+01
 Gap=     0.046 Goal=   None    Shift=    0.000
 Gap=     0.031 Goal=   None    Shift=    0.000
 RMSDP=8.33D-07 MaxDP=6.86D-05 DE=-2.32D-11 OVMax= 4.07D-05

 Cycle  20  Pass 1  IDiag  1:
 E= -1136.09244175580     Delta-E=       -0.000000000020 Rises=F Damp=F
 DIIS: error= 3.32D-08 at cycle  20 NSaved=  20.
 NSaved=20 IEnMin=20 EnMin= -1136.09244175580     IErMin=20 ErrMin= 3.32D-08
 ErrMax= 3.32D-08  0.00D+00 EMaxC= 1.00D-01 BMatC= 1.18D-13 BMatP= 3.42D-13
 IDIUse=1 WtCom= 1.00D+00 WtEn= 0.00D+00
 Coeff-Com:  0.428D-06-0.640D-06-0.390D-06-0.186D-06 0.103D-04-0.914D-05
 Coeff-Com:  0.522D-04 0.171D-03-0.149D-03-0.304D-02 0.352D-02 0.101D-01
 Coeff-Com:  0.591D-02-0.923D-01-0.108D+00 0.399D+00 0.428D+00-0.743D+00
 Coeff-Com: -0.892D+00 0.199D+01
 Coeff:      0.428D-06-0.640D-06-0.390D-06-0.186D-06 0.103D-04-0.914D-05
 Coeff:      0.522D-04 0.171D-03-0.149D-03-0.304D-02 0.352D-02 0.101D-01
 Coeff:      0.591D-02-0.923D-01-0.108D+00 0.399D+00 0.428D+00-0.743D+00
 Coeff:     -0.892D+00 0.199D+01
 Gap=     0.046 Goal=   None    Shift=    0.000
 Gap=     0.031 Goal=   None    Shift=    0.000
 RMSDP=6.55D-07 MaxDP=5.27D-05 DE=-2.05D-11 OVMax= 3.24D-05

 Cycle  21  Pass 1  IDiag  1:
 E= -1136.09244175581     Delta-E=       -0.000000000012 Rises=F Damp=F
 DIIS: error= 9.56D-09 at cycle  21 NSaved=  20.
 NSaved=20 IEnMin=20 EnMin= -1136.09244175581     IErMin=20 ErrMin= 9.56D-09
 ErrMax= 9.56D-09  0.00D+00 EMaxC= 1.00D-01 BMatC= 1.88D-14 BMatP= 1.18D-13
 IDIUse=1 WtCom= 1.00D+00 WtEn= 0.00D+00
 Large coefficients: NSaved= 20 BigCof=    0.00 CofMax=   10.00 Det=-7.06D-15
 Inversion failed.  Reducing to 19 matrices.
 Large coefficients: NSaved= 19 BigCof=    0.00 CofMax=   10.00 Det=-7.09D-15
 Inversion failed.  Reducing to 18 matrices.
 Large coefficients: NSaved= 18 BigCof=    0.00 CofMax=   10.00 Det=-7.09D-15
 Inversion failed.  Reducing to 17 matrices.
 Large coefficients: NSaved= 17 BigCof=    0.00 CofMax=   10.00 Det=-7.10D-15
 Inversion failed.  Reducing to 16 matrices.
 Large coefficients: NSaved= 16 BigCof=    0.00 CofMax=   10.00 Det=-7.85D-15
 Inversion failed.  Reducing to 15 matrices.
 Coeff-Com: -0.130D-04 0.139D-04 0.397D-04-0.188D-03 0.166D-03 0.195D-02
 Coeff-Com: -0.352D-02-0.102D-01-0.765D-02 0.354D-01 0.199D-01 0.946D-01
 Coeff-Com: -0.217D+00-0.176D+00 0.126D+01
 Coeff:     -0.130D-04 0.139D-04 0.397D-04-0.188D-03 0.166D-03 0.195D-02
 Coeff:     -0.352D-02-0.102D-01-0.765D-02 0.354D-01 0.199D-01 0.946D-01
 Coeff:     -0.217D+00-0.176D+00 0.126D+01
 Gap=     0.046 Goal=   None    Shift=    0.000
 Gap=     0.031 Goal=   None    Shift=    0.000
 RMSDP=2.08D-07 MaxDP=2.00D-05 DE=-1.18D-11 OVMax= 8.64D-06

 Cycle  22  Pass 1  IDiag  1:
 E= -1136.09244175580     Delta-E=        0.000000000004 Rises=F Damp=F
 DIIS: error= 3.11D-09 at cycle  22 NSaved=  16.
 NSaved=16 IEnMin=15 EnMin= -1136.09244175581     IErMin=16 ErrMin= 3.11D-09
 ErrMax= 3.11D-09  0.00D+00 EMaxC= 1.00D-01 BMatC= 5.44D-15 BMatP= 1.88D-14
 IDIUse=1 WtCom= 1.00D+00 WtEn= 0.00D+00
 Large coefficients: NSaved= 16 BigCof=    0.00 CofMax=   10.00 Det=-8.57D-15
 Inversion failed.  Reducing to 15 matrices.
 Coeff-Com: -0.294D-05 0.709D-04 0.861D-04-0.568D-03 0.971D-04 0.373D-03
 Coeff-Com:  0.431D-02 0.297D-02-0.388D-01-0.931D-02 0.134D+00-0.182D-01
 Coeff-Com: -0.312D+00 0.367D+00 0.870D+00
 Coeff:     -0.294D-05 0.709D-04 0.861D-04-0.568D-03 0.971D-04 0.373D-03
 Coeff:      0.431D-02 0.297D-02-0.388D-01-0.931D-02 0.134D+00-0.182D-01
 Coeff:     -0.312D+00 0.367D+00 0.870D+00
 Gap=     0.046 Goal=   None    Shift=    0.000
 Gap=     0.031 Goal=   None    Shift=    0.000
 RMSDP=7.22D-08 MaxDP=6.89D-06 DE= 4.09D-12 OVMax= 2.41D-06

 Cycle  23  Pass 1  IDiag  1:
 E= -1136.09244175580     Delta-E=        0.000000000004 Rises=F Damp=F
 DIIS: error= 3.08D-09 at cycle  23 NSaved=  16.
 NSaved=16 IEnMin=14 EnMin= -1136.09244175581     IErMin=16 ErrMin= 3.08D-09
 ErrMax= 3.08D-09  0.00D+00 EMaxC= 1.00D-01 BMatC= 2.54D-15 BMatP= 5.44D-15
 IDIUse=1 WtCom= 1.00D+00 WtEn= 0.00D+00
 Large coefficients: NSaved= 16 BigCof=    0.00 CofMax=   10.00 Det=-5.59D-15
 Inversion failed.  Reducing to 15 matrices.
 Coeff-Com:  0.297D-04 0.177D-03-0.507D-03-0.452D-03 0.476D-03 0.745D-02
 Coeff-Com:  0.679D-02-0.468D-01-0.333D-01 0.102D+00 0.879D-01-0.275D+00
 Coeff-Com:  0.427D-01 0.423D+00 0.685D+00
 Coeff:      0.297D-04 0.177D-03-0.507D-03-0.452D-03 0.476D-03 0.745D-02
 Coeff:      0.679D-02-0.468D-01-0.333D-01 0.102D+00 0.879D-01-0.275D+00
 Coeff:      0.427D-01 0.423D+00 0.685D+00
 Gap=     0.046 Goal=   None    Shift=    0.000
 Gap=     0.031 Goal=   None    Shift=    0.000
 RMSDP=2.40D-08 MaxDP=2.59D-06 DE= 4.09D-12 OVMax= 6.12D-07

 Cycle  24  Pass 1  IDiag  1:
 E= -1136.09244175580     Delta-E=       -0.000000000006 Rises=F Damp=F
 DIIS: error= 1.55D-09 at cycle  24 NSaved=  16.
 NSaved=16 IEnMin=13 EnMin= -1136.09244175581     IErMin=16 ErrMin= 1.55D-09
 ErrMax= 1.55D-09  0.00D+00 EMaxC= 1.00D-01 BMatC= 7.40D-16 BMatP= 2.54D-15
 IDIUse=1 WtCom= 1.00D+00 WtEn= 0.00D+00
 Large coefficients: NSaved= 16 BigCof=    0.00 CofMax=   10.00 Det=-2.07D-15
 Inversion failed.  Reducing to 15 matrices.
 Coeff-Com:  0.556D-04-0.793D-04-0.383D-03 0.226D-03 0.265D-02 0.295D-02
 Coeff-Com: -0.958D-02-0.924D-02-0.436D-02 0.421D-01-0.927D-02-0.127D+00
 Coeff-Com:  0.344D-01 0.334D+00 0.744D+00
 Coeff:      0.556D-04-0.793D-04-0.383D-03 0.226D-03 0.265D-02 0.295D-02
 Coeff:     -0.958D-02-0.924D-02-0.436D-02 0.421D-01-0.927D-02-0.127D+00
 Coeff:      0.344D-01 0.334D+00 0.744D+00
 Gap=     0.046 Goal=   None    Shift=    0.000
 Gap=     0.031 Goal=   None    Shift=    0.000
 RMSDP=1.24D-08 MaxDP=1.24D-06 DE=-5.91D-12 OVMax= 2.13D-07

 Cycle  25  Pass 1  IDiag  1:
 E= -1136.09244175580     Delta-E=        0.000000000005 Rises=F Damp=F
 DIIS: error= 9.10D-10 at cycle  25 NSaved=  16.
 NSaved=16 IEnMin=12 EnMin= -1136.09244175581     IErMin=16 ErrMin= 9.10D-10
 ErrMax= 9.10D-10  0.00D+00 EMaxC= 1.00D-01 BMatC= 2.85D-16 BMatP= 7.40D-16
 IDIUse=1 WtCom= 1.00D+00 WtEn= 0.00D+00
 Large coefficients: NSaved= 16 BigCof=    0.00 CofMax=   10.00 Det=-5.64D-16
 Inversion failed.  Reducing to 15 matrices.
 Coeff-Com:  0.371D-04-0.140D-03 0.230D-03-0.380D-03 0.359D-04 0.698D-02
 Coeff-Com: -0.127D-02-0.273D-01 0.939D-02 0.525D-01-0.678D-01-0.895D-01
 Coeff-Com:  0.202D-01 0.388D+00 0.709D+00
 Coeff:      0.371D-04-0.140D-03 0.230D-03-0.380D-03 0.359D-04 0.698D-02
 Coeff:     -0.127D-02-0.273D-01 0.939D-02 0.525D-01-0.678D-01-0.895D-01
 Coeff:      0.202D-01 0.388D+00 0.709D+00
 Gap=     0.046 Goal=   None    Shift=    0.000
 Gap=     0.031 Goal=   None    Shift=    0.000
 RMSDP=5.32D-09 MaxDP=2.92D-07 DE= 4.55D-12 OVMax= 1.08D-07

 SCF Done:  E(UB3LYP) =  -1136.09244176     A.U. after   25 cycles
            NFock= 25  Conv=0.53D-08     -V/T= 2.0024
 <Sx>= 0.0000 <Sy>= 0.0000 <Sz>= 0.5000 <S**2>= 0.7630 S= 0.5065
 <L.S>= 0.000000000000E+00
 KE= 1.133363794196D+03 PE=-3.507401028694D+03 EE= 8.489927626604D+02
 Annihilation of the first spin contaminant:
 S**2 before annihilation     0.7630,   after     0.7501
 Leave Link  502 at Mon Nov 13 12:24:15 2023, MaxMem=  1879048192 cpu:             253.9 elap:              21.6
 (Enter /home/sekinelabo/g16/l601.exe)
 Copying SCF densities to generalized density rwf, IOpCl= 1 IROHF=0.

 **********************************************************************

            Population analysis using the SCF Density.

 **********************************************************************

 Orbital symmetries:
 Alpha Orbitals:
       Occupied  (A) (A) (A) (A) (A) (A) (A) (A) (A) (A) (A) (A)
                 (A) (A) (A) (A) (A) (A) (A) (A) (A) (A) (A) (A)
                 (A) (A) (A) (A) (A) (A) (A) (A) (A) (A) (A) (A)
                 (A) (A) (A)
       Virtual   (A) (A) (A) (A) (A) (A) (A) (A) (A) (A) (A) (A)
                 (A) (A) (A) (A) (A) (A) (A) (A) (A) (A) (A) (A)
                 (A) (A) (A) (A) (A) (A) (A) (A) (A) (A) (A) (A)
                 (A) (A) (A) (A) (A) (A) (A) (A) (A) (A) (A) (A)
                 (A) (A) (A) (A) (A) (A) (A) (A) (A) (A) (A) (A)
                 (A) (A) (A) (A) (A) (A) (A) (A) (A) (A) (A) (A)
                 (A) (A) (A) (A) (A) (A) (A) (A) (A) (A) (A) (A)
                 (A) (A) (A) (A) (A) (A) (A) (A) (A) (A) (A) (A)
                 (A) (A) (A) (A) (A) (A) (A) (A) (A) (A) (A) (A)
                 (A) (A) (A) (A) (A) (A) (A) (A) (A) (A) (A) (A)
                 (A) (A) (A) (A) (A) (A) (A) (A) (A) (A) (A) (A)
                 (A) (A) (A) (A) (A) (A) (A) (A) (A) (A) (A) (A)
                 (A) (A) (A) (A) (A) (A) (A) (A) (A) (A) (A) (A)
                 (A) (A) (A) (A) (A) (A) (A) (A) (A) (A) (A) (A)
                 (A) (A) (A)
 Beta  Orbitals:
       Occupied  (A) (A) (A) (A) (A) (A) (A) (A) (A) (A) (A) (A)
                 (A) (A) (A) (A) (A) (A) (A) (A) (A) (A) (A) (A)
                 (A) (A) (A) (A) (A) (A) (A) (A) (A) (A) (A) (A)
                 (A) (A)
       Virtual   (A) (A) (A) (A) (A) (A) (A) (A) (A) (A) (A) (A)
                 (A) (A) (A) (A) (A) (A) (A) (A) (A) (A) (A) (A)
                 (A) (A) (A) (A) (A) (A) (A) (A) (A) (A) (A) (A)
                 (A) (A) (A) (A) (A) (A) (A) (A) (A) (A) (A) (A)
                 (A) (A) (A) (A) (A) (A) (A) (A) (A) (A) (A) (A)
                 (A) (A) (A) (A) (A) (A) (A) (A) (A) (A) (A) (A)
                 (A) (A) (A) (A) (A) (A) (A) (A) (A) (A) (A) (A)
                 (A) (A) (A) (A) (A) (A) (A) (A) (A) (A) (A) (A)
                 (A) (A) (A) (A) (A) (A) (A) (A) (A) (A) (A) (A)
                 (A) (A) (A) (A) (A) (A) (A) (A) (A) (A) (A) (A)
                 (A) (A) (A) (A) (A) (A) (A) (A) (A) (A) (A) (A)
                 (A) (A) (A) (A) (A) (A) (A) (A) (A) (A) (A) (A)
                 (A) (A) (A) (A) (A) (A) (A) (A) (A) (A) (A) (A)
                 (A) (A) (A) (A) (A) (A) (A) (A) (A) (A) (A) (A)
                 (A) (A) (A) (A)
 The electronic state is 2-A.
 Alpha  occ. eigenvalues --  -38.44980 -38.44623 -38.43907 -38.43713 -38.43707
 Alpha  occ. eigenvalues --  -38.42899 -38.42876  -2.20976  -2.20712  -2.20101
 Alpha  occ. eigenvalues --   -2.19703  -2.19686  -2.19055  -2.19024  -1.14716
 Alpha  occ. eigenvalues --   -1.14645  -1.14589  -1.14487  -1.14311  -1.14298
 Alpha  occ. eigenvalues --   -1.13871  -1.13823  -1.13696  -1.13460  -1.13392
 Alpha  occ. eigenvalues --   -1.13363  -1.13331  -1.13314  -1.13215  -1.12871
 Alpha  occ. eigenvalues --   -1.12714  -1.12695  -1.12665  -1.12634  -1.12586
 Alpha  occ. eigenvalues --   -0.20781  -0.15055  -0.12185  -0.11138
 Alpha virt. eigenvalues --   -0.06491  -0.04715  -0.04619  -0.03288  -0.02287
 Alpha virt. eigenvalues --   -0.02172  -0.02112  -0.00795  -0.00303   0.00173
 Alpha virt. eigenvalues --    0.00415   0.00651   0.00664   0.00903   0.00906
 Alpha virt. eigenvalues --    0.00987   0.01113   0.01200   0.01275   0.01514
 Alpha virt. eigenvalues --    0.01542   0.01905   0.01938   0.02047   0.02237
 Alpha virt. eigenvalues --    0.02404   0.02539   0.02633   0.02836   0.02887
 Alpha virt. eigenvalues --    0.02938   0.02975   0.02993   0.03003   0.03112
 Alpha virt. eigenvalues --    0.03252   0.03311   0.03685   0.03694   0.04026
 Alpha virt. eigenvalues --    0.04446   0.04654   0.04967   0.05134   0.05180
 Alpha virt. eigenvalues --    0.05492   0.05627   0.05639   0.05874   0.06160
 Alpha virt. eigenvalues --    0.06411   0.06697   0.06789   0.07250   0.07334
 Alpha virt. eigenvalues --    0.07607   0.07654   0.08571   0.08737   0.08908
 Alpha virt. eigenvalues --    0.09659   0.11089   0.11326   0.11680   0.11821
 Alpha virt. eigenvalues --    0.12429   0.12714   0.12967   0.13163   0.13380
 Alpha virt. eigenvalues --    0.13541   0.13908   0.14243   0.14990   0.15104
 Alpha virt. eigenvalues --    0.15253   0.16455   0.16717   0.18287   0.18535
 Alpha virt. eigenvalues --    0.23522   0.24685   0.26590   0.28239   0.28307
 Alpha virt. eigenvalues --    0.30483   0.32111   0.32120   0.32903   0.33602
 Alpha virt. eigenvalues --    0.33974   0.35810   0.36741   0.37364   0.37461
 Alpha virt. eigenvalues --    0.39580   0.40331   0.41210   0.41817   0.43352
 Alpha virt. eigenvalues --    0.44300   0.44574   0.45008   0.45517   0.46162
 Alpha virt. eigenvalues --    0.46201   0.46455   0.46834   0.47251   0.48014
 Alpha virt. eigenvalues --    0.49157   0.49305   0.49697   0.50376   0.50590
 Alpha virt. eigenvalues --    0.51925   0.52368   0.54178   0.54433   0.54525
 Alpha virt. eigenvalues --    0.54684   0.57595   0.63590   0.65268   0.66215
 Alpha virt. eigenvalues --    0.66471   0.69367   0.69377   0.70522   0.70875
 Alpha virt. eigenvalues --    0.72520   0.75087   0.76167   0.78768   0.80907
 Alpha virt. eigenvalues --    0.80988   2.12881   2.19248   2.23530   2.24557
 Alpha virt. eigenvalues --    2.31093   2.32072   2.34710   4.39823   4.40977
 Alpha virt. eigenvalues --    4.41178   4.41451   4.42000   4.43269   4.43650
 Alpha virt. eigenvalues --    4.46167   4.46999   4.50312   4.54642   4.55476
 Alpha virt. eigenvalues --    4.60953   4.61834   4.66000   4.70823   4.70954
 Alpha virt. eigenvalues --    4.76619   4.78626   4.81632   4.85958  96.34079
 Alpha virt. eigenvalues --   96.43523  96.49493  96.51396  96.59901  96.61108
 Alpha virt. eigenvalues --   96.64752
  Beta  occ. eigenvalues --  -38.44937 -38.44557 -38.43836 -38.43706 -38.43700
  Beta  occ. eigenvalues --  -38.42876 -38.42852  -2.20896  -2.20599  -2.19977
  Beta  occ. eigenvalues --   -2.19691  -2.19674  -2.19019  -2.18988  -1.14670
  Beta  occ. eigenvalues --   -1.14572  -1.14531  -1.14390  -1.14220  -1.14214
  Beta  occ. eigenvalues --   -1.13803  -1.13711  -1.13621  -1.13439  -1.13380
  Beta  occ. eigenvalues --   -1.13353  -1.13305  -1.13296  -1.13203  -1.12855
  Beta  occ. eigenvalues --   -1.12652  -1.12648  -1.12616  -1.12613  -1.12541
  Beta  occ. eigenvalues --   -0.19946  -0.14823  -0.10944
  Beta virt. eigenvalues --   -0.07872  -0.06288  -0.04487  -0.04102  -0.02898
  Beta virt. eigenvalues --   -0.02037  -0.01554  -0.01498  -0.00314  -0.00289
  Beta virt. eigenvalues --    0.00225   0.00506   0.00672   0.00781   0.00905
  Beta virt. eigenvalues --    0.00970   0.01115   0.01204   0.01278   0.01318
  Beta virt. eigenvalues --    0.01631   0.01675   0.01980   0.02063   0.02076
  Beta virt. eigenvalues --    0.02282   0.02493   0.02631   0.02650   0.02832
  Beta virt. eigenvalues --    0.02921   0.02988   0.03003   0.03021   0.03035
  Beta virt. eigenvalues --    0.03182   0.03353   0.03356   0.03682   0.03792
  Beta virt. eigenvalues --    0.04116   0.04553   0.04934   0.05139   0.05221
  Beta virt. eigenvalues --    0.05269   0.05578   0.05745   0.05762   0.06109
  Beta virt. eigenvalues --    0.06284   0.06436   0.06782   0.06812   0.07375
  Beta virt. eigenvalues --    0.07509   0.07716   0.07768   0.08796   0.08834
  Beta virt. eigenvalues --    0.09027   0.09742   0.11190   0.11692   0.12113
  Beta virt. eigenvalues --    0.12161   0.12555   0.12837   0.13259   0.13386
  Beta virt. eigenvalues --    0.13604   0.13663   0.14134   0.14570   0.15244
  Beta virt. eigenvalues --    0.15289   0.15381   0.16820   0.16899   0.18603
  Beta virt. eigenvalues --    0.18721   0.23729   0.24944   0.26988   0.28451
  Beta virt. eigenvalues --    0.28531   0.30945   0.32327   0.32534   0.33305
  Beta virt. eigenvalues --    0.33801   0.34181   0.36270   0.37189   0.37625
  Beta virt. eigenvalues --    0.37821   0.39701   0.40800   0.41485   0.42126
  Beta virt. eigenvalues --    0.43480   0.44497   0.44794   0.45119   0.45795
  Beta virt. eigenvalues --    0.46328   0.46424   0.46557   0.47015   0.47400
  Beta virt. eigenvalues --    0.48227   0.49277   0.49436   0.49829   0.50557
  Beta virt. eigenvalues --    0.50797   0.52139   0.52532   0.54389   0.54706
  Beta virt. eigenvalues --    0.54726   0.54903   0.57666   0.63831   0.65673
  Beta virt. eigenvalues --    0.66573   0.66679   0.69456   0.69802   0.70550
  Beta virt. eigenvalues --    0.70936   0.72595   0.75154   0.76337   0.78856
  Beta virt. eigenvalues --    0.80982   0.81205   2.12967   2.19367   2.23553
  Beta virt. eigenvalues --    2.24801   2.31327   2.32180   2.34758   4.39901
  Beta virt. eigenvalues --    4.41045   4.41263   4.41532   4.42059   4.43315
  Beta virt. eigenvalues --    4.43699   4.46212   4.47067   4.50366   4.54724
  Beta virt. eigenvalues --    4.55558   4.61045   4.61894   4.66064   4.70888
  Beta virt. eigenvalues --    4.70993   4.76633   4.78651   4.81685   4.86053
  Beta virt. eigenvalues --   96.34112  96.43565  96.49503  96.51473  96.59969
  Beta virt. eigenvalues --   96.61164  96.64775
          Condensed to atoms (all electrons):
               1          2          3          4          5          6
     1  Na  17.303758   1.755343  -5.116224  -2.072559   0.137516   0.806527
     2  Na   1.755343  17.345156  -5.083785  -2.029166   0.144800  -0.435083
     3  Na  -5.116224  -5.083785  23.445786   2.291046  -1.507488  -2.742892
     4  Na  -2.072559  -2.029166   2.291046  13.346471  -0.719897  -0.005118
     5  Na   0.137516   0.144800  -1.507488  -0.719897  13.154874  -0.223233
     6  Na   0.806527  -0.435083  -2.742892  -0.005118  -0.223233  12.510870
     7  Na  -0.383084   0.763662  -2.716101   0.042201  -0.238061   1.035756
               7
     1  Na  -0.383084
     2  Na   0.763662
     3  Na  -2.716101
     4  Na   0.042201
     5  Na  -0.238061
     6  Na   1.035756
     7  Na  12.484768
          Atomic-Atomic Spin Densities.
               1          2          3          4          5          6
     1  Na   2.879177   0.629593  -1.763996  -1.156246  -0.170338   0.368597
     2  Na   0.629593   2.896224  -1.781587  -1.149128  -0.163996  -0.275447
     3  Na  -1.763996  -1.781587   1.202004   1.514618  -0.276222   0.474441
     4  Na  -1.156246  -1.149128   1.514618   0.917215  -0.051475  -0.046048
     5  Na  -0.170338  -0.163996  -0.276222  -0.051475   0.546760   0.088360
     6  Na   0.368597  -0.275447   0.474441  -0.046048   0.088360  -0.202994
     7  Na  -0.274645   0.355183   0.488082  -0.038612   0.084941  -0.368817
               7
     1  Na  -0.274645
     2  Na   0.355183
     3  Na   0.488082
     4  Na  -0.038612
     5  Na   0.084941
     6  Na  -0.368817
     7  Na  -0.212900
 Mulliken charges and spin densities:
               1          2
     1  Na  -1.431277   0.512141
     2  Na  -1.460927   0.510842
     3  Na   2.429659  -0.142661
     4  Na   0.147023  -0.009676
     5  Na   0.251490   0.058030
     6  Na   0.053173   0.038091
     7  Na   0.010859   0.033232
 Sum of Mulliken charges =  -0.00000   1.00000
 Mulliken charges and spin densities with hydrogens summed into heavy atoms:
               1          2
     1  Na  -1.431277   0.512141
     2  Na  -1.460927   0.510842
     3  Na   2.429659  -0.142661
     4  Na   0.147023  -0.009676
     5  Na   0.251490   0.058030
     6  Na   0.053173   0.038091
     7  Na   0.010859   0.033232
 Electronic spatial extent (au):  <R**2>=           1862.4989
 Charge=             -0.0000 electrons
 Dipole moment (field-independent basis, Debye):
    X=              0.6310    Y=             -0.0002    Z=             -0.1248  Tot=              0.6433
 Quadrupole moment (field-independent basis, Debye-Ang):
   XX=            -48.1892   YY=            -80.5057   ZZ=            -65.6768
   XY=             -0.0174   XZ=              0.5032   YZ=             -0.1318
 Traceless Quadrupole moment (field-independent basis, Debye-Ang):
   XX=             16.6014   YY=            -15.7151   ZZ=             -0.8863
   XY=             -0.0174   XZ=              0.5032   YZ=             -0.1318
 Octapole moment (field-independent basis, Debye-Ang**2):
  XXX=             14.3792  YYY=              0.2418  ZZZ=             12.8816  XYY=             -5.8128
  XXY=              0.0569  XXZ=            -11.1305  XZZ=             10.4269  YZZ=             -0.2811
  YYZ=             -7.3065  XYZ=             -0.1365
 Hexadecapole moment (field-independent basis, Debye-Ang**3):
 XXXX=          -1444.7156 YYYY=           -994.2747 ZZZZ=           -694.3169 XXXY=              0.0484
 XXXZ=             -1.7772 YYYX=             -0.1715 YYYZ=             -0.7176 ZZZX=             -3.1492
 ZZZY=             -1.1322 XXYY=           -426.9007 XXZZ=           -339.0252 YYZZ=           -289.1097
 XXYZ=             -0.9675 YYXZ=             11.3399 ZZXY=             -0.1997
 N-N= 3.889520300817D+02 E-N=-3.507401028694D+03  KE= 1.133363794196D+03
                          Isotropic Fermi Contact Couplings
        Atom                 a.u.       MegaHertz       Gauss      10(-4) cm-1
     1  Na(23)             0.01668      19.73246       7.04103       6.58204
     2  Na(23)             0.01783      21.09551       7.52740       7.03670
     3  Na(23)             0.17407     205.92723      73.47996      68.68993
     4  Na(23)             0.20812     246.20951      87.85367      82.12665
     5  Na(23)             0.23759     281.07870     100.29587      93.75776
     6  Na(23)             0.01698      20.08734       7.16766       6.70042
     7  Na(23)             0.01719      20.33997       7.25781       6.78468
 --------------------------------------------------------
       Center         ----  Spin Dipole Couplings  ----
                      3XX-RR        3YY-RR        3ZZ-RR
 --------------------------------------------------------
     1   Atom       -0.034636     -0.032296      0.066932
     2   Atom       -0.034302     -0.031655      0.065957
     3   Atom        0.006374     -0.000465     -0.005909
     4   Atom        0.035160     -0.018478     -0.016681
     5   Atom        0.035690     -0.020947     -0.014743
     6   Atom       -0.005619     -0.003210      0.008829
     7   Atom       -0.005620     -0.003444      0.009064
 --------------------------------------------------------
                        XY            XZ            YZ
 --------------------------------------------------------
     1   Atom        0.001560     -0.013252      0.010813
     2   Atom       -0.001246     -0.013137     -0.012777
     3   Atom       -0.000157      0.017496      0.000043
     4   Atom       -0.000142     -0.035161      0.000294
     5   Atom       -0.000358      0.030969     -0.000118
     6   Atom        0.001423     -0.002374     -0.009843
     7   Atom       -0.001397     -0.002334      0.009692
 --------------------------------------------------------


 ---------------------------------------------------------------------------------
              Anisotropic Spin Dipole Couplings in Principal Axis System
 ---------------------------------------------------------------------------------

       Atom             a.u.   MegaHertz   Gauss  10(-4) cm-1        Axes

              Baa    -0.0381    -5.383    -1.921    -1.796  0.8389 -0.5205  0.1594
     1 Na(23) Bbb    -0.0316    -4.462    -1.592    -1.488  0.5301  0.8477 -0.0217
              Bcc     0.0697     9.845     3.513     3.284 -0.1238  0.1027  0.9870
 
              Baa    -0.0378    -5.334    -1.903    -1.779  0.8336  0.5255  0.1703
     2 Na(23) Bbb    -0.0314    -4.439    -1.584    -1.481 -0.5385  0.8418  0.0378
              Bcc     0.0692     9.772     3.487     3.260 -0.1235 -0.1232  0.9847
 
              Baa    -0.0183    -2.586    -0.923    -0.863 -0.5783 -0.0071  0.8158
     3 Na(23) Bbb    -0.0005    -0.066    -0.023    -0.022  0.0003  1.0000  0.0089
              Bcc     0.0188     2.651     0.946     0.884  0.8158 -0.0054  0.5782
 
              Baa    -0.0344    -4.864    -1.736    -1.623  0.4508 -0.0124  0.8925
     4 Na(23) Bbb    -0.0185    -2.609    -0.931    -0.870  0.0088  0.9999  0.0094
              Bcc     0.0529     7.473     2.667     2.493  0.8926 -0.0036 -0.4509
 
              Baa    -0.0295    -4.161    -1.485    -1.388 -0.4293 -0.0055  0.9031
     5 Na(23) Bbb    -0.0209    -2.958    -1.056    -0.987  0.0024  1.0000  0.0072
              Bcc     0.0504     7.119     2.540     2.375  0.9032 -0.0052  0.4293
 
              Baa    -0.0087    -1.233    -0.440    -0.411 -0.0289  0.8736  0.4858
     6 Na(23) Bbb    -0.0060    -0.846    -0.302    -0.282  0.9905 -0.0405  0.1318
              Bcc     0.0147     2.079     0.742     0.694 -0.1348 -0.4849  0.8641
 
              Baa    -0.0087    -1.233    -0.440    -0.411  0.0394  0.8796 -0.4740
     7 Na(23) Bbb    -0.0060    -0.844    -0.301    -0.282  0.9904  0.0285  0.1353
              Bcc     0.0147     2.077     0.741     0.693 -0.1325  0.4748  0.8701
 

 ---------------------------------------------------------------------------------

 No NMR shielding tensors so no spin-rotation constants.
 Leave Link  601 at Mon Nov 13 12:24:15 2023, MaxMem=  1879048192 cpu:               2.6 elap:               0.2
 (Enter /home/sekinelabo/g16/l701.exe)
 ... and contract with generalized density number  0.
 Compute integral first derivatives.
 Leave Link  701 at Mon Nov 13 12:24:15 2023, MaxMem=  1879048192 cpu:               1.7 elap:               0.1
 (Enter /home/sekinelabo/g16/l702.exe)
 L702 exits ... SP integral derivatives will be done elsewhere.
 Leave Link  702 at Mon Nov 13 12:24:15 2023, MaxMem=  1879048192 cpu:               0.5 elap:               0.0
 (Enter /home/sekinelabo/g16/l703.exe)
 Integral derivatives from FoFJK, PRISM(SPDF).
 Compute integral first derivatives, UseDBF=F ICtDFT=           0.
 Calling FoFJK, ICntrl=      2127 FMM=F ISym2X=0 I1Cent= 0 IOpClX= 1 NMat=1 NMatS=1 NMatT=0.
 FoFJK:  IHMeth= 1 ICntrl=    2127 DoSepK=F KAlg= 0 I1Cent=           0 FoldK=F
 IRaf=         0 NMat=       1 IRICut=       1 DoRegI=T DoRafI=F ISym2E= 0 IDoP0=0 IntGTp=1.
 FoFCou: FMM=F IPFlag=           0 FMFlag=      100000 FMFlg1=         800
         NFxFlg=           0 DoJE=F BraDBF=F KetDBF=F FulRan=T
         wScrn=  0.000000 ICntrl=      2127 IOpCl=  1 I1Cent=           0 NGrid=           0
         NMat0=    1 NMatS0=      1 NMatT0=    0 NMatD0=    1 NMtDS0=    0 NMtDT0=    0
 Symmetry not used in FoFCou.
 Leave Link  703 at Mon Nov 13 12:24:18 2023, MaxMem=  1879048192 cpu:              37.5 elap:               2.4
 (Enter /home/sekinelabo/g16/l716.exe)
 Dipole        = 2.48268155D-01-5.94341577D-05-4.91168300D-02
 ***** Axes restored to original set *****
 -------------------------------------------------------------------
 Center     Atomic                   Forces (Hartrees/Bohr)
 Number     Number              X              Y              Z
 -------------------------------------------------------------------
      1       11          -0.000536958    0.019551981   -0.006597485
      2       11          -0.000649655   -0.019256777   -0.007073906
      3       11           0.011823869    0.000048935   -0.009640659
      4       11           0.009486066   -0.000269814    0.014908236
      5       11          -0.006187861   -0.000118117    0.017003049
      6       11          -0.007024460   -0.012591916   -0.004347334
      7       11          -0.006911001    0.012635707   -0.004251900
 -------------------------------------------------------------------
 Cartesian Forces:  Max     0.019551981 RMS     0.010170337
 Z-matrix is all fixed cartesians, so copy forces.
 Force constants in Cartesian coordinates: 
                1             2             3             4             5 
      1  0.163682D+00
      2  0.405681D-03  0.197058D+00
      3 -0.617537D-02 -0.265131D-01  0.131137D+00
      4 -0.266197D-01  0.194617D-02 -0.718890D-03  0.164092D+00
      5 -0.216504D-02 -0.550692D-01 -0.148122D-01  0.100837D-03  0.195745D+00
      6 -0.651102D-03  0.137998D-01 -0.163821D-01 -0.611925D-02  0.280435D-01
      7 -0.378911D-01 -0.570251D-02  0.137441D-01 -0.381633D-01  0.541974D-02
      8  0.287282D-01 -0.387403D-01 -0.141321D-01 -0.285048D-01 -0.388038D-01
      9 -0.376418D-02  0.774598D-02 -0.191953D-01 -0.460870D-02 -0.822881D-02
     10 -0.279017D-01 -0.533886D-02 -0.700222D-02 -0.280277D-01  0.541330D-02
     11  0.193656D-01 -0.274072D-01  0.320753D-01 -0.190801D-01 -0.263355D-01
     12 -0.127056D-01  0.235549D-02 -0.375697D-01 -0.131697D-01 -0.194450D-02
     13 -0.266547D-01  0.480160D-02  0.114202D-01 -0.265866D-01 -0.507428D-02
     14 -0.131657D-01 -0.350398D-01  0.271706D-01  0.127494D-01 -0.344566D-01
     15  0.934427D-02 -0.728354D-03 -0.422940D-01  0.967941D-02  0.647053D-03
     16 -0.184522D-02 -0.998056D-02 -0.295976D-02 -0.428102D-01 -0.137384D-01
     17 -0.102666D-01 -0.195124D-02 -0.328120D-02  0.225669D-01 -0.389531D-01
     18  0.301319D-02  0.291282D-02  0.574772D-02  0.116995D-01 -0.583241D-03
     19 -0.427699D-01  0.138685D-01 -0.830804D-02 -0.188446D-02  0.100439D-01
     20 -0.229022D-01 -0.388507D-01 -0.507253D-03  0.102216D-01 -0.212728D-02
     21  0.109388D-01  0.427363D-03 -0.214436D-01  0.323760D-02 -0.312173D-02
                6             7             8             9            10 
      6  0.132951D+00
      7  0.139795D-01  0.983225D-01
      8  0.135127D-01  0.147001D-03  0.592636D-01
      9 -0.191388D-01 -0.270831D-01 -0.862822D-04  0.767203D-01
     10 -0.705655D-02 -0.199161D-01 -0.282611D-03  0.267857D-01  0.124969D+00
     11 -0.316429D-01  0.236762D-03 -0.483980D-02  0.434250D-03 -0.473120D-03
     12 -0.385595D-01 -0.146414D-01  0.607182D-03 -0.486297D-01  0.238307D-01
     13  0.110194D-01 -0.228648D-02 -0.585062D-04  0.876326D-02 -0.491345D-01
     14 -0.269516D-01 -0.658768D-04  0.106151D-01  0.403739D-04  0.453578D-03
     15 -0.429065D-01  0.900121D-02  0.346595D-04  0.370116D-02 -0.250888D-01
     16 -0.834055D-02 -0.200797D-04 -0.460135D-04 -0.322489D-04 -0.291692D-04
     17  0.334074D-04 -0.452084D-02  0.636192D-02 -0.252910D-02 -0.401768D-02
     18 -0.216619D-01  0.243518D-02 -0.240932D-02  0.322693D-02 -0.579076D-02
     19 -0.283144D-02 -0.454033D-04  0.167027D-04 -0.607183D-04  0.405459D-04
     20  0.320517D-02  0.448572D-02  0.614329D-02  0.262358D-02  0.424539D-02
     21  0.569728D-02  0.256454D-02  0.247320D-02  0.331543D-02 -0.567811D-02
               11            12            13            14            15 
     11  0.659134D-01
     12 -0.112807D-02  0.149457D+00
     13 -0.110769D-03  0.280438D-01  0.151496D+00
     14 -0.188791D-01  0.350637D-04  0.181079D-03  0.120967D+00
     15  0.303573D-03 -0.378881D-01 -0.166011D-01 -0.587750D-03  0.199528D+00
     16 -0.406724D-02 -0.567617D-02 -0.234541D-01 -0.303614D-02  0.681379D-02
     17  0.575543D-02  0.184053D-02 -0.709135D-02 -0.214216D-01 -0.277988D-02
     18  0.188837D-02  0.665025D-02 -0.214688D-01 -0.252725D-01 -0.402254D-01
     19  0.412883D-02 -0.568170D-02 -0.233796D-01  0.288360D-02  0.685116D-02
     20  0.579273D-02 -0.176570D-02  0.735223D-02 -0.217849D-01  0.311070D-02
     21 -0.193051D-02  0.653958D-02 -0.211769D-01  0.255658D-01 -0.399148D-01
               16            17            18            19            20 
     16  0.860451D-01
     17  0.171839D-01  0.931431D-01
     18  0.126662D-01  0.152535D-01  0.510990D-01
     19 -0.178864D-01 -0.138543D-01 -0.255456D-02  0.859252D-01
     20  0.136845D-01 -0.429345D-01  0.821038D-02 -0.170872D-01  0.937613D-01
     21 -0.247129D-02 -0.853725D-02 -0.483649D-02  0.125853D-01 -0.148769D-01
               21 
     21  0.506426D-01
 Leave Link  716 at Mon Nov 13 12:24:18 2023, MaxMem=  1879048192 cpu:               0.5 elap:               0.0
 (Enter /home/sekinelabo/g16/l103.exe)

 GradGradGradGradGradGradGradGradGradGradGradGradGradGradGradGradGradGrad
 Berny optimization.
 Search for a local minimum.
 Step number   1 out of a maximum of    2
 All quantities printed in internal units (Hartrees-Bohrs-Radians)
 Second derivative matrix not updated -- first step.
 ITU=  0
     Eigenvalues ---    0.04915   0.06684   0.09691   0.09926   0.11749
     Eigenvalues ---    0.14405   0.14620   0.15780   0.18794   0.20432
     Eigenvalues ---    0.21084   0.22308   0.24373   0.25832   0.26807
 Quadratic step=3.641D-01 exceeds max=3.000D-01 adjusted using Lamda=-2.258D-02.
 Angle between NR and scaled steps=   3.39 degrees.
 Angle between quadratic step and forces=  19.87 degrees.
 Linear search not attempted -- first point.
 B after Tr=     0.000000    0.000000    0.000000
         Rot=    1.000000    0.000000   -0.000000   -0.000000 Ang=   0.00 deg.
 Variable       Old X    -DE/DX   Delta X   Delta X   Delta X     New X
                                 (Linear)    (Quad)   (Total)
    X1        5.70326  -0.00054   0.00000   0.01334   0.01334   5.71660
    Y1        5.67946   0.01955   0.00000   0.09110   0.09110   5.77055
    Z1        1.37884  -0.00660   0.00000  -0.01782  -0.01782   1.36101
    X2        5.67887  -0.00065   0.00000   0.01271   0.01271   5.69158
    Y2        0.00559  -0.01926   0.00000  -0.09008  -0.09008  -0.08449
    Z2        1.30808  -0.00707   0.00000  -0.01996  -0.01996   1.28812
    X3       10.40504   0.01182   0.00000   0.11280   0.11280  10.51784
    Y3        2.83953   0.00005   0.00000   0.00045   0.00045   2.83998
    Z3        0.00000  -0.00964   0.00000  -0.07020  -0.07020  -0.07020
    X4        8.52327   0.00949   0.00000   0.07815   0.07815   8.60142
    Y4        2.78047  -0.00027   0.00000  -0.00144  -0.00144   2.77903
    Z4        5.34474   0.01491   0.00000   0.08068   0.08068   5.42542
    X5        2.85304  -0.00619   0.00000  -0.04961  -0.04961   2.80343
    Y5        2.80537  -0.00012   0.00000  -0.00043  -0.00043   2.80494
    Z5        5.34168   0.01700   0.00000   0.07767   0.07767   5.41936
    X6        0.00000  -0.00702   0.00000  -0.08407  -0.08407  -0.08407
    Y6        0.00000  -0.01259   0.00000  -0.09634  -0.09634  -0.09634
    Z6        1.32605  -0.00435   0.00000  -0.02564  -0.02564   1.30041
    X7        0.02296  -0.00691   0.00000  -0.08333  -0.08333  -0.06037
    Y7        5.67506   0.01264   0.00000   0.09675   0.09675   5.77181
    Z7        1.35617  -0.00425   0.00000  -0.02473  -0.02473   1.33144
         Item               Value     Threshold  Converged?
 Maximum Force            0.019552     0.000450     NO 
 RMS     Force            0.010170     0.000300     NO 
 Maximum Displacement     0.112797     0.001800     NO 
 RMS     Displacement     0.065521     0.001200     NO 
 Predicted change in Energy=-7.597941D-03
 GradGradGradGradGradGradGradGradGradGradGradGradGradGradGradGradGradGrad

 Leave Link  103 at Mon Nov 13 12:24:18 2023, MaxMem=  1879048192 cpu:               0.3 elap:               0.0
 (Enter /home/sekinelabo/g16/l9999.exe)
 1\1\GINC-SEKINELABO-XA7R-R37\Force\UB3LYP\6-311+G(d)\Na7(2)\SEKINELABO
 \13-Nov-2023\0\\#P B3LYP/6-311+g(d) force\\Gaussian input prepared by 
 ASE\\0,2\Na,3.0180351913,3.0054390062,0.7296482418\Na,3.0051311889,0.0
 029566124,0.6922045962\Na,5.5061089968,1.5026139319,0.\Na,4.510319422,
 1.4713599033,2.8283165067\Na,1.5097620478,1.4845390877,2.8266969192\Na
 ,0.,0.,0.7017153715\Na,0.0121498244,3.0031140216,0.7176527899\\Version
 =ES64L-G16RevB.01\State=2-A\HF=-1136.0924418\S2=0.763026\S2-1=0.\S2A=0
 .750108\RMSD=5.317e-09\RMSF=1.017e-02\Dipole=0.2482682,-0.0000594,-0.0
 491168\Quadrupole=12.3427393,-11.6838276,-0.6589118,-0.0129008,0.37411
 42,-0.0980036\PG=C01 [X(Na7)]\\@


 OLD HORSE! OLD HORSE! WHAT BROUGHT YOU HERE?
 FROM SACARAP' TO PORTLAND PIER
 I'VE CARTED STONE THIS MANY A YEAR;
 TILL, KILLED BY BLOWS AND SORE ABUSE,
 THEY SALTED ME DOWN FOR SAILORS' USE.
 THE SAILORS THEY DO ME DESPISE;
 THEY TURN ME OVER AND DAMN MY EYES;
 CUT OFF MY MEAT, AND SCRAPE MY BONES,
 AND PITCH ME OVER TO DAVY JONES.

    SAILORS' COMPLAINT ABOUT THE BEEF
    SERVED ON SHIPBOARD, CIRCA 1835.
 Job cpu time:       0 days  0 hours  5 minutes 10.3 seconds.
 Elapsed time:       0 days  0 hours  0 minutes 25.2 seconds.
 File lengths (MBytes):  RWF=     32 Int=      0 D2E=      0 Chk=      5 Scr=      1
 Normal termination of Gaussian 16 at Mon Nov 13 12:24:18 2023.
