 Entering Gaussian System, Link 0=g16
 Initial command:
 /home/sekinelabo/g16/l1.exe "/home/sekinelabo/g16temp/Gau-3973780.inp" -scrdir="/home/sekinelabo/g16temp/"
 Entering Link 1 = /home/sekinelabo/g16/l1.exe PID=   3973782.
  
 Copyright (c) 1988-2017, Gaussian, Inc.  All Rights Reserved.
  
 This is part of the Gaussian(R) 16 program.  It is based on
 the Gaussian(R) 09 system (copyright 2009, Gaussian, Inc.),
 the Gaussian(R) 03 system (copyright 2003, Gaussian, Inc.),
 the Gaussian(R) 98 system (copyright 1998, Gaussian, Inc.),
 the Gaussian(R) 94 system (copyright 1995, Gaussian, Inc.),
 the Gaussian 92(TM) system (copyright 1992, Gaussian, Inc.),
 the Gaussian 90(TM) system (copyright 1990, Gaussian, Inc.),
 the Gaussian 88(TM) system (copyright 1988, Gaussian, Inc.),
 the Gaussian 86(TM) system (copyright 1986, Carnegie Mellon
 University), and the Gaussian 82(TM) system (copyright 1983,
 Carnegie Mellon University). Gaussian is a federally registered
 trademark of Gaussian, Inc.
  
 This software contains proprietary and confidential information,
 including trade secrets, belonging to Gaussian, Inc.
  
 This software is provided under written license and may be
 used, copied, transmitted, or stored only in accord with that
 written license.
  
 The following legend is applicable only to US Government
 contracts under FAR:
  
                    RESTRICTED RIGHTS LEGEND
  
 Use, reproduction and disclosure by the US Government is
 subject to restrictions as set forth in subparagraphs (a)
 and (c) of the Commercial Computer Software - Restricted
 Rights clause in FAR 52.227-19.
  
 Gaussian, Inc.
 340 Quinnipiac St., Bldg. 40, Wallingford CT 06492
  
  
 ---------------------------------------------------------------
 Warning -- This program may not be used in any manner that
 competes with the business of Gaussian, Inc. or will provide
 assistance to any competitor of Gaussian, Inc.  The licensee
 of this program is prohibited from giving any competitor of
 Gaussian, Inc. access to this program.  By using this program,
 the user acknowledges that Gaussian, Inc. is engaged in the
 business of creating and licensing software in the field of
 computational chemistry and represents and warrants to the
 licensee that it is not a competitor of Gaussian, Inc. and that
 it will not use this program in any manner prohibited above.
 ---------------------------------------------------------------
  

 Cite this work as:
 Gaussian 16, Revision B.01,
 M. J. Frisch, G. W. Trucks, H. B. Schlegel, G. E. Scuseria, 
 M. A. Robb, J. R. Cheeseman, G. Scalmani, V. Barone, 
 G. A. Petersson, H. Nakatsuji, X. Li, M. Caricato, A. V. Marenich, 
 J. Bloino, B. G. Janesko, R. Gomperts, B. Mennucci, H. P. Hratchian, 
 J. V. Ortiz, A. F. Izmaylov, J. L. Sonnenberg, D. Williams-Young, 
 F. Ding, F. Lipparini, F. Egidi, J. Goings, B. Peng, A. Petrone, 
 T. Henderson, D. Ranasinghe, V. G. Zakrzewski, J. Gao, N. Rega, 
 G. Zheng, W. Liang, M. Hada, M. Ehara, K. Toyota, R. Fukuda, 
 J. Hasegawa, M. Ishida, T. Nakajima, Y. Honda, O. Kitao, H. Nakai, 
 T. Vreven, K. Throssell, J. A. Montgomery, Jr., J. E. Peralta, 
 F. Ogliaro, M. J. Bearpark, J. J. Heyd, E. N. Brothers, K. N. Kudin, 
 V. N. Staroverov, T. A. Keith, R. Kobayashi, J. Normand, 
 K. Raghavachari, A. P. Rendell, J. C. Burant, S. S. Iyengar, 
 J. Tomasi, M. Cossi, J. M. Millam, M. Klene, C. Adamo, R. Cammi, 
 J. W. Ochterski, R. L. Martin, K. Morokuma, O. Farkas, 
 J. B. Foresman, and D. J. Fox, Gaussian, Inc., Wallingford CT, 2016.
 
 ******************************************
 Gaussian 16:  ES64L-G16RevB.01 20-Dec-2017
                13-Nov-2023 
 ******************************************
 %mem=14GB
 %chk=checkpoint.chk
 %nprocshared=16
 Will use up to   16 processors via shared memory.
 -------------------------
 #P B3LYP/6-311+g(d) force
 -------------------------
 1/10=7,30=1,38=1/1,3;
 2/12=2,17=6,18=5,40=1/2;
 3/5=4,6=6,7=11,11=2,25=1,30=1,71=1,74=-5/1,2,3;
 4//1;
 5/5=2,38=5/2;
 6/7=2,8=2,9=2,10=2,28=1/1;
 7/29=1/1,2,3,16;
 1/10=7,30=1/3;
 99//99;
 Leave Link    1 at Mon Nov 13 12:07:34 2023, MaxMem=  1879048192 cpu:               0.3 elap:               0.0
 (Enter /home/sekinelabo/g16/l101.exe)
 ------------------------------
 Gaussian input prepared by ASE
 ------------------------------
 Symbolic Z-matrix:
 Charge =  0 Multiplicity = 2
 Na                    4.10903   2.46479   0. 
 Na                    0.        1.63882   0.17072 
 Na                    1.74964   3.79886   1.30433 
 Na                    1.1614    1.33099   2.90688 
 Na                    2.4876    0.        0.56537 
 Na                    5.40223   0.07721   1.26662 
 Na                    6.71052   2.76645   1.45928 
 
 ITRead=  0  0  0  0  0  0  0
 MicOpt= -1 -1 -1 -1 -1 -1 -1
 NAtoms=      7 NQM=        7 NQMF=       0 NMMI=      0 NMMIF=      0
                NMic=       0 NMicF=      0.
                    Isotopes and Nuclear Properties:
 (Nuclear quadrupole moments (NQMom) in fm**2, nuclear magnetic moments (NMagM)
  in nuclear magnetons)

  Atom         1           2           3           4           5           6           7
 IAtWgt=          23          23          23          23          23          23          23
 AtmWgt=  22.9897697  22.9897697  22.9897697  22.9897697  22.9897697  22.9897697  22.9897697
 NucSpn=           3           3           3           3           3           3           3
 AtZEff=  -0.0000000  -0.0000000  -0.0000000  -0.0000000  -0.0000000  -0.0000000  -0.0000000
 NQMom=   10.4000000  10.4000000  10.4000000  10.4000000  10.4000000  10.4000000  10.4000000
 NMagM=    2.2175200   2.2175200   2.2175200   2.2175200   2.2175200   2.2175200   2.2175200
 AtZNuc=  11.0000000  11.0000000  11.0000000  11.0000000  11.0000000  11.0000000  11.0000000
 Leave Link  101 at Mon Nov 13 12:07:34 2023, MaxMem=  1879048192 cpu:               2.6 elap:               0.2
 (Enter /home/sekinelabo/g16/l103.exe)

 GradGradGradGradGradGradGradGradGradGradGradGradGradGradGradGradGradGrad
 Berny optimization.
 Initialization pass.
 Trust Radius=3.00D-01 FncErr=1.00D-07 GrdErr=1.00D-07 EigMax=2.50D+02 EigMin=1.00D-04
 Number of steps in this run=      2 maximum allowed number of steps=      2.
 GradGradGradGradGradGradGradGradGradGradGradGradGradGradGradGradGradGrad

 Leave Link  103 at Mon Nov 13 12:07:34 2023, MaxMem=  1879048192 cpu:               0.4 elap:               0.0
 (Enter /home/sekinelabo/g16/l202.exe)
                          Input orientation:                          
 ---------------------------------------------------------------------
 Center     Atomic      Atomic             Coordinates (Angstroms)
 Number     Number       Type             X           Y           Z
 ---------------------------------------------------------------------
      1         11           0        4.109034    2.464789    0.000000
      2         11           0        0.000000    1.638819    0.170716
      3         11           0        1.749636    3.798855    1.304328
      4         11           0        1.161401    1.330992    2.906881
      5         11           0        2.487598    0.000000    0.565369
      6         11           0        5.402227    0.077214    1.266623
      7         11           0        6.710518    2.766447    1.459280
 ---------------------------------------------------------------------
                    Distance matrix (angstroms):
                    1          2          3          4          5
     1  Na   0.000000
     2  Na   4.194703   0.000000
     3  Na   3.007951   3.002009   0.000000
     4  Na   4.292318   2.988346   3.000758   0.000000
     5  Na   3.003977   3.004933   3.939791   3.002169   0.000000
     6  Na   2.996196   5.729195   5.214734   4.716674   2.998796
     7  Na   2.998035   6.925532   5.069539   5.911749   5.126924
                    6          7
     6  Na   0.000000
     7  Na   2.996784   0.000000
 Stoichiometry    Na7(2)
 Framework group  C1[X(Na7)]
 Deg. of freedom    15
 Full point group                 C1      NOp   1
 Largest Abelian subgroup         C1      NOp   1
 Largest concise Abelian subgroup C1      NOp   1
                         Standard orientation:                         
 ---------------------------------------------------------------------
 Center     Atomic      Atomic             Coordinates (Angstroms)
 Number     Number       Type             X           Y           Z
 ---------------------------------------------------------------------
      1         11           0        1.020404    0.739486   -1.096171
      2         11           0       -3.088631   -0.086483   -0.925455
      3         11           0       -1.338995    2.073553    0.208157
      4         11           0       -1.927229   -0.394310    1.810710
      5         11           0       -0.601032   -1.725302   -0.530802
      6         11           0        2.313596   -1.648088    0.170452
      7         11           0        3.621887    1.041145    0.363109
 ---------------------------------------------------------------------
 Rotational constants (GHZ):           1.2483846           0.5395510           0.4706600
 Leave Link  202 at Mon Nov 13 12:07:34 2023, MaxMem=  1879048192 cpu:               0.5 elap:               0.0
 (Enter /home/sekinelabo/g16/l301.exe)
 Standard basis: 6-311+G(d) (5D, 7F)
 Ernie: Thresh=  0.10000D-02 Tol=  0.10000D-05 Strict=F.
 There are   217 symmetry adapted cartesian basis functions of A   symmetry.
 There are   210 symmetry adapted basis functions of A   symmetry.
   210 basis functions,   350 primitive gaussians,   217 cartesian basis functions
    39 alpha electrons       38 beta electrons
       nuclear repulsion energy       363.4399274425 Hartrees.
 IExCor=  402 DFT=T Ex+Corr=B3LYP ExCW=0 ScaHFX=  0.200000
 ScaDFX=  0.800000  0.720000  1.000000  0.810000 ScalE2=  1.000000  1.000000
 IRadAn=      5 IRanWt=     -1 IRanGd=            0 ICorTp=0 IEmpDi=  4
 NAtoms=    7 NActive=    7 NUniq=    7 SFac= 1.00D+00 NAtFMM=   60 NAOKFM=F Big=F
 Integral buffers will be    131072 words long.
 Raffenetti 2 integral format.
 Two-electron integral symmetry is turned on.
 Leave Link  301 at Mon Nov 13 12:07:34 2023, MaxMem=  1879048192 cpu:               0.7 elap:               0.0
 (Enter /home/sekinelabo/g16/l302.exe)
 NPDir=0 NMtPBC=     1 NCelOv=     1 NCel=       1 NClECP=     1 NCelD=      1
         NCelK=      1 NCelE2=     1 NClLst=     1 CellRange=     0.0.
 One-electron integrals computed using PRISM.
 One-electron integral symmetry used in STVInt
 NBasis=   210 RedAO= T EigKep=  1.17D-06  NBF=   210
 NBsUse=   210 1.00D-06 EigRej= -1.00D+00 NBFU=   210
 Precomputing XC quadrature grid using
 IXCGrd= 4 IRadAn=           5 IRanWt=          -1 IRanGd=           0 AccXCQ= 0.00D+00.
 Generated NRdTot=       0 NPtTot=           0 NUsed=           0 NTot=          32
 NSgBfM=   209   209   209   209   209 MxSgAt=     7 MxSgA2=     7.
 Leave Link  302 at Mon Nov 13 12:07:35 2023, MaxMem=  1879048192 cpu:               6.6 elap:               0.4
 (Enter /home/sekinelabo/g16/l303.exe)
 DipDrv:  MaxL=1.
 Leave Link  303 at Mon Nov 13 12:07:35 2023, MaxMem=  1879048192 cpu:               0.6 elap:               0.0
 (Enter /home/sekinelabo/g16/l401.exe)
 ExpMin= 7.60D-03 ExpMax= 3.62D+04 ExpMxC= 1.21D+03 IAcc=3 IRadAn=         5 AccDes= 0.00D+00
 Harris functional with IExCor=  402 and IRadAn=       5 diagonalized for initial guess.
 HarFok:  IExCor=  402 AccDes= 0.00D+00 IRadAn=         5 IDoV= 1 UseB2=F ITyADJ=14
 ICtDFT=  3500011 ScaDFX=  1.000000  1.000000  1.000000  1.000000
 FoFCou: FMM=F IPFlag=           0 FMFlag=      100000 FMFlg1=           0
         NFxFlg=           0 DoJE=T BraDBF=F KetDBF=T FulRan=T
         wScrn=  0.000000 ICntrl=       500 IOpCl=  0 I1Cent=   200000004 NGrid=           0
         NMat0=    1 NMatS0=      1 NMatT0=    0 NMatD0=    1 NMtDS0=    0 NMtDT0=    0
 Petite list used in FoFCou.
 Harris En= -1135.86688424002    
 JPrj=0 DoOrth=F DoCkMO=F.
 Initial guess <Sx>= 0.0000 <Sy>= 0.0000 <Sz>= 0.5000 <S**2>= 0.7500 S= 0.5000
 Leave Link  401 at Mon Nov 13 12:07:35 2023, MaxMem=  1879048192 cpu:               4.7 elap:               0.3
 (Enter /home/sekinelabo/g16/l502.exe)
 Keep R1 and R2 ints in memory in canonical form, NReq=507620360.
 FoFCou: FMM=F IPFlag=           0 FMFlag=           0 FMFlg1=           0
         NFxFlg=           0 DoJE=F BraDBF=F KetDBF=F FulRan=T
         wScrn=  0.000000 ICntrl=       600 IOpCl=  0 I1Cent=           0 NGrid=           0
         NMat0=    1 NMatS0=  22155 NMatT0=    0 NMatD0=    1 NMtDS0=    0 NMtDT0=    0
 Symmetry not used in FoFCou.
 Two-electron integral symmetry not used.
 UHF open shell SCF:
 Using DIIS extrapolation, IDIIS=  1040.
 NGot=  1879048192 LenX=  1388082376 LenY=  1388034846
 Requested convergence on RMS density matrix=1.00D-08 within 128 cycles.
 Requested convergence on MAX density matrix=1.00D-06.
 Requested convergence on             energy=1.00D-06.
 No special actions if energy rises.

 Cycle   1  Pass 1  IDiag  1:
 E= -1136.05617154314    
 DIIS: error= 1.15D-02 at cycle   1 NSaved=   1.
 NSaved= 1 IEnMin= 1 EnMin= -1136.05617154314     IErMin= 1 ErrMin= 1.15D-02
 ErrMax= 1.15D-02  0.00D+00 EMaxC= 1.00D-01 BMatC= 1.98D-01 BMatP= 1.98D-01
 IDIUse=3 WtCom= 8.85D-01 WtEn= 1.15D-01
 Coeff-Com:  0.100D+01
 Coeff-En:   0.100D+01
 Coeff:      0.100D+01
 Gap=     0.027 Goal=   None    Shift=    0.000
 Gap=     0.039 Goal=   None    Shift=    0.000
 GapD=    0.027 DampG=0.250 DampE=0.500 DampFc=0.2500 IDamp=-1.
 Damping current iteration by 2.50D-01
 RMSDP=4.85D-02 MaxDP=4.34D+00              OVMax= 2.58D-01

 Cycle   2  Pass 1  IDiag  1:
 E= -1136.06960969163     Delta-E=       -0.013438148484 Rises=F Damp=T
 DIIS: error= 8.04D-03 at cycle   2 NSaved=   2.
 NSaved= 2 IEnMin= 2 EnMin= -1136.06960969163     IErMin= 2 ErrMin= 8.04D-03
 ErrMax= 8.04D-03  0.00D+00 EMaxC= 1.00D-01 BMatC= 7.48D-02 BMatP= 1.98D-01
 IDIUse=3 WtCom= 9.20D-01 WtEn= 8.04D-02
 Coeff-Com: -0.125D+01 0.225D+01
 Coeff-En:   0.000D+00 0.100D+01
 Coeff:     -0.115D+01 0.215D+01
 Gap=     0.037 Goal=   None    Shift=    0.000
 Gap=     0.044 Goal=   None    Shift=    0.000
 RMSDP=2.22D-02 MaxDP=2.14D+00 DE=-1.34D-02 OVMax= 1.88D-01

 Cycle   3  Pass 1  IDiag  1:
 E= -1136.09078178350     Delta-E=       -0.021172091868 Rises=F Damp=F
 DIIS: error= 3.90D-03 at cycle   3 NSaved=   3.
 NSaved= 3 IEnMin= 3 EnMin= -1136.09078178350     IErMin= 3 ErrMin= 3.90D-03
 ErrMax= 3.90D-03  0.00D+00 EMaxC= 1.00D-01 BMatC= 4.81D-03 BMatP= 7.48D-02
 IDIUse=3 WtCom= 9.61D-01 WtEn= 3.90D-02
 Coeff-Com: -0.313D+00 0.554D+00 0.760D+00
 Coeff-En:   0.000D+00 0.000D+00 0.100D+01
 Coeff:     -0.301D+00 0.532D+00 0.769D+00
 Gap=     0.032 Goal=   None    Shift=    0.000
 Gap=     0.043 Goal=   None    Shift=    0.000
 RMSDP=1.17D-02 MaxDP=1.01D+00 DE=-2.12D-02 OVMax= 1.17D-01

 Cycle   4  Pass 1  IDiag  1:
 E= -1136.08943883193     Delta-E=        0.001342951564 Rises=F Damp=F
 DIIS: error= 3.22D-03 at cycle   4 NSaved=   4.
 NSaved= 4 IEnMin= 3 EnMin= -1136.09078178350     IErMin= 4 ErrMin= 3.22D-03
 ErrMax= 3.22D-03  0.00D+00 EMaxC= 1.00D-01 BMatC= 5.35D-03 BMatP= 4.81D-03
 IDIUse=3 WtCom= 1.50D-01 WtEn= 8.50D-01
 Coeff-Com: -0.269D-01 0.457D-01 0.508D+00 0.473D+00
 Coeff-En:   0.000D+00 0.000D+00 0.558D+00 0.442D+00
 Coeff:     -0.403D-02 0.685D-02 0.550D+00 0.447D+00
 Gap=     0.034 Goal=   None    Shift=    0.000
 Gap=     0.040 Goal=   None    Shift=    0.000
 RMSDP=4.32D-03 MaxDP=2.92D-01 DE= 1.34D-03 OVMax= 8.85D-02

 Cycle   5  Pass 1  IDiag  1:
 E= -1136.09404226686     Delta-E=       -0.004603434925 Rises=F Damp=F
 DIIS: error= 1.36D-03 at cycle   5 NSaved=   5.
 NSaved= 5 IEnMin= 5 EnMin= -1136.09404226686     IErMin= 5 ErrMin= 1.36D-03
 ErrMax= 1.36D-03  0.00D+00 EMaxC= 1.00D-01 BMatC= 7.48D-04 BMatP= 4.81D-03
 IDIUse=3 WtCom= 9.86D-01 WtEn= 1.36D-02
 Coeff-Com:  0.504D-03-0.138D-02 0.341D+00 0.315D+00 0.345D+00
 Coeff-En:   0.000D+00 0.000D+00 0.000D+00 0.880D-01 0.912D+00
 Coeff:      0.498D-03-0.136D-02 0.336D+00 0.312D+00 0.352D+00
 Gap=     0.035 Goal=   None    Shift=    0.000
 Gap=     0.041 Goal=   None    Shift=    0.000
 RMSDP=1.80D-03 MaxDP=1.73D-01 DE=-4.60D-03 OVMax= 3.16D-02

 Cycle   6  Pass 1  IDiag  1:
 E= -1136.09484311488     Delta-E=       -0.000800848024 Rises=F Damp=F
 DIIS: error= 1.50D-04 at cycle   6 NSaved=   6.
 NSaved= 6 IEnMin= 6 EnMin= -1136.09484311488     IErMin= 6 ErrMin= 1.50D-04
 ErrMax= 1.50D-04  0.00D+00 EMaxC= 1.00D-01 BMatC= 8.72D-06 BMatP= 7.48D-04
 IDIUse=3 WtCom= 9.98D-01 WtEn= 1.50D-03
 Coeff-Com: -0.106D-02 0.838D-03 0.373D-02-0.501D-02 0.782D-01 0.923D+00
 Coeff-En:   0.000D+00 0.000D+00 0.000D+00 0.000D+00 0.000D+00 0.100D+01
 Coeff:     -0.106D-02 0.836D-03 0.373D-02-0.500D-02 0.780D-01 0.923D+00
 Gap=     0.035 Goal=   None    Shift=    0.000
 Gap=     0.041 Goal=   None    Shift=    0.000
 RMSDP=5.22D-04 MaxDP=4.32D-02 DE=-8.01D-04 OVMax= 5.77D-03

 Cycle   7  Pass 1  IDiag  1:
 E= -1136.09485578294     Delta-E=       -0.000012668056 Rises=F Damp=F
 DIIS: error= 7.43D-05 at cycle   7 NSaved=   7.
 NSaved= 7 IEnMin= 7 EnMin= -1136.09485578294     IErMin= 7 ErrMin= 7.43D-05
 ErrMax= 7.43D-05  0.00D+00 EMaxC= 1.00D-01 BMatC= 2.60D-06 BMatP= 8.72D-06
 IDIUse=1 WtCom= 1.00D+00 WtEn= 0.00D+00
 Coeff-Com: -0.714D-03 0.693D-03-0.354D-01-0.381D-01 0.471D-02 0.494D+00
 Coeff-Com:  0.575D+00
 Coeff:     -0.714D-03 0.693D-03-0.354D-01-0.381D-01 0.471D-02 0.494D+00
 Coeff:      0.575D+00
 Gap=     0.035 Goal=   None    Shift=    0.000
 Gap=     0.041 Goal=   None    Shift=    0.000
 RMSDP=2.37D-04 MaxDP=2.05D-02 DE=-1.27D-05 OVMax= 3.12D-03

 Cycle   8  Pass 1  IDiag  1:
 E= -1136.09485950697     Delta-E=       -0.000003724033 Rises=F Damp=F
 DIIS: error= 3.35D-05 at cycle   8 NSaved=   8.
 NSaved= 8 IEnMin= 8 EnMin= -1136.09485950697     IErMin= 8 ErrMin= 3.35D-05
 ErrMax= 3.35D-05  0.00D+00 EMaxC= 1.00D-01 BMatC= 3.26D-07 BMatP= 2.60D-06
 IDIUse=1 WtCom= 1.00D+00 WtEn= 0.00D+00
 Coeff-Com:  0.252D-03-0.343D-03-0.109D-01-0.997D-02-0.137D-01-0.394D-01
 Coeff-Com:  0.197D+00 0.878D+00
 Coeff:      0.252D-03-0.343D-03-0.109D-01-0.997D-02-0.137D-01-0.394D-01
 Coeff:      0.197D+00 0.878D+00
 Gap=     0.035 Goal=   None    Shift=    0.000
 Gap=     0.041 Goal=   None    Shift=    0.000
 RMSDP=1.69D-04 MaxDP=2.19D-02 DE=-3.72D-06 OVMax= 2.24D-03

 Cycle   9  Pass 1  IDiag  1:
 E= -1136.09486092896     Delta-E=       -0.000001421991 Rises=F Damp=F
 DIIS: error= 2.21D-05 at cycle   9 NSaved=   9.
 NSaved= 9 IEnMin= 9 EnMin= -1136.09486092896     IErMin= 9 ErrMin= 2.21D-05
 ErrMax= 2.21D-05  0.00D+00 EMaxC= 1.00D-01 BMatC= 1.26D-07 BMatP= 3.26D-07
 IDIUse=1 WtCom= 1.00D+00 WtEn= 0.00D+00
 Coeff-Com:  0.442D-03-0.553D-03 0.111D-03 0.119D-02-0.848D-02-0.109D+00
 Coeff-Com: -0.331D-02 0.406D+00 0.713D+00
 Coeff:      0.442D-03-0.553D-03 0.111D-03 0.119D-02-0.848D-02-0.109D+00
 Coeff:     -0.331D-02 0.406D+00 0.713D+00
 Gap=     0.035 Goal=   None    Shift=    0.000
 Gap=     0.041 Goal=   None    Shift=    0.000
 RMSDP=6.83D-05 MaxDP=3.52D-03 DE=-1.42D-06 OVMax= 1.99D-03

 Cycle  10  Pass 1  IDiag  1:
 E= -1136.09486165130     Delta-E=       -0.000000722342 Rises=F Damp=F
 DIIS: error= 1.80D-05 at cycle  10 NSaved=  10.
 NSaved=10 IEnMin=10 EnMin= -1136.09486165130     IErMin=10 ErrMin= 1.80D-05
 ErrMax= 1.80D-05  0.00D+00 EMaxC= 1.00D-01 BMatC= 6.64D-08 BMatP= 1.26D-07
 IDIUse=1 WtCom= 1.00D+00 WtEn= 0.00D+00
 Coeff-Com:  0.203D-03-0.249D-03 0.385D-02 0.385D-02 0.755D-03-0.434D-01
 Coeff-Com: -0.654D-01-0.129D+00 0.370D+00 0.859D+00
 Coeff:      0.203D-03-0.249D-03 0.385D-02 0.385D-02 0.755D-03-0.434D-01
 Coeff:     -0.654D-01-0.129D+00 0.370D+00 0.859D+00
 Gap=     0.035 Goal=   None    Shift=    0.000
 Gap=     0.041 Goal=   None    Shift=    0.000
 RMSDP=8.50D-05 MaxDP=1.15D-02 DE=-7.22D-07 OVMax= 1.92D-03

 Cycle  11  Pass 1  IDiag  1:
 E= -1136.09486230263     Delta-E=       -0.000000651324 Rises=F Damp=F
 DIIS: error= 1.71D-05 at cycle  11 NSaved=  11.
 NSaved=11 IEnMin=11 EnMin= -1136.09486230263     IErMin=11 ErrMin= 1.71D-05
 ErrMax= 1.71D-05  0.00D+00 EMaxC= 1.00D-01 BMatC= 3.36D-08 BMatP= 6.64D-08
 IDIUse=1 WtCom= 1.00D+00 WtEn= 0.00D+00
 Coeff-Com: -0.338D-03 0.439D-03 0.134D-02 0.170D-03 0.630D-02 0.503D-01
 Coeff-Com:  0.739D-02-0.241D+00-0.420D+00 0.735D-01 0.152D+01
 Coeff:     -0.338D-03 0.439D-03 0.134D-02 0.170D-03 0.630D-02 0.503D-01
 Coeff:      0.739D-02-0.241D+00-0.420D+00 0.735D-01 0.152D+01
 Gap=     0.035 Goal=   None    Shift=    0.000
 Gap=     0.041 Goal=   None    Shift=    0.000
 RMSDP=9.42D-05 MaxDP=9.18D-03 DE=-6.51D-07 OVMax= 3.07D-03

 Cycle  12  Pass 1  IDiag  1:
 E= -1136.09486308135     Delta-E=       -0.000000778722 Rises=F Damp=F
 DIIS: error= 1.06D-05 at cycle  12 NSaved=  12.
 NSaved=12 IEnMin=12 EnMin= -1136.09486308135     IErMin=12 ErrMin= 1.06D-05
 ErrMax= 1.06D-05  0.00D+00 EMaxC= 1.00D-01 BMatC= 1.70D-08 BMatP= 3.36D-08
 IDIUse=1 WtCom= 1.00D+00 WtEn= 0.00D+00
 Coeff-Com: -0.410D-04 0.435D-04-0.107D-02-0.107D-02-0.364D-03 0.165D-01
 Coeff-Com:  0.233D-01 0.522D-01-0.166D+00-0.342D+00-0.693D-01 0.149D+01
 Coeff:     -0.410D-04 0.435D-04-0.107D-02-0.107D-02-0.364D-03 0.165D-01
 Coeff:      0.233D-01 0.522D-01-0.166D+00-0.342D+00-0.693D-01 0.149D+01
 Gap=     0.035 Goal=   None    Shift=    0.000
 Gap=     0.041 Goal=   None    Shift=    0.000
 RMSDP=9.75D-05 MaxDP=8.84D-03 DE=-7.79D-07 OVMax= 2.94D-03

 Cycle  13  Pass 1  IDiag  1:
 E= -1136.09486361532     Delta-E=       -0.000000533965 Rises=F Damp=F
 DIIS: error= 7.49D-06 at cycle  13 NSaved=  13.
 NSaved=13 IEnMin=13 EnMin= -1136.09486361532     IErMin=13 ErrMin= 7.49D-06
 ErrMax= 7.49D-06  0.00D+00 EMaxC= 1.00D-01 BMatC= 1.05D-08 BMatP= 1.70D-08
 IDIUse=1 WtCom= 1.00D+00 WtEn= 0.00D+00
 Coeff-Com:  0.180D-03-0.235D-03-0.880D-03-0.167D-03-0.365D-02-0.246D-01
 Coeff-Com: -0.349D-04 0.131D+00 0.207D+00-0.618D-01-0.826D+00 0.179D+00
 Coeff-Com:  0.140D+01
 Coeff:      0.180D-03-0.235D-03-0.880D-03-0.167D-03-0.365D-02-0.246D-01
 Coeff:     -0.349D-04 0.131D+00 0.207D+00-0.618D-01-0.826D+00 0.179D+00
 Coeff:      0.140D+01
 Gap=     0.035 Goal=   None    Shift=    0.000
 Gap=     0.041 Goal=   None    Shift=    0.000
 RMSDP=9.61D-05 MaxDP=7.61D-03 DE=-5.34D-07 OVMax= 2.60D-03

 Cycle  14  Pass 1  IDiag  1:
 E= -1136.09486397755     Delta-E=       -0.000000362231 Rises=F Damp=F
 DIIS: error= 6.59D-06 at cycle  14 NSaved=  14.
 NSaved=14 IEnMin=14 EnMin= -1136.09486397755     IErMin=14 ErrMin= 6.59D-06
 ErrMax= 6.59D-06  0.00D+00 EMaxC= 1.00D-01 BMatC= 6.84D-09 BMatP= 1.05D-08
 IDIUse=1 WtCom= 1.00D+00 WtEn= 0.00D+00
 Coeff-Com: -0.112D-04 0.229D-04 0.188D-03 0.362D-03-0.135D-03-0.644D-02
 Coeff-Com: -0.180D-01-0.470D-01 0.124D+00 0.261D+00 0.169D+00-0.119D+01
 Coeff-Com: -0.249D+00 0.195D+01
 Coeff:     -0.112D-04 0.229D-04 0.188D-03 0.362D-03-0.135D-03-0.644D-02
 Coeff:     -0.180D-01-0.470D-01 0.124D+00 0.261D+00 0.169D+00-0.119D+01
 Coeff:     -0.249D+00 0.195D+01
 Gap=     0.035 Goal=   None    Shift=    0.000
 Gap=     0.041 Goal=   None    Shift=    0.000
 RMSDP=1.33D-04 MaxDP=1.12D-02 DE=-3.62D-07 OVMax= 3.04D-03

 Cycle  15  Pass 1  IDiag  1:
 E= -1136.09486430990     Delta-E=       -0.000000332356 Rises=F Damp=F
 DIIS: error= 4.18D-06 at cycle  15 NSaved=  15.
 NSaved=15 IEnMin=15 EnMin= -1136.09486430990     IErMin=15 ErrMin= 4.18D-06
 ErrMax= 4.18D-06  0.00D+00 EMaxC= 1.00D-01 BMatC= 3.15D-09 BMatP= 6.84D-09
 IDIUse=1 WtCom= 1.00D+00 WtEn= 0.00D+00
 Coeff-Com: -0.609D-04 0.811D-04 0.108D-02 0.428D-03 0.242D-02 0.113D-01
 Coeff-Com: -0.296D-02-0.679D-01-0.127D+00-0.490D-01 0.491D+00 0.108D+00
 Coeff-Com: -0.985D+00-0.428D+00 0.205D+01
 Coeff:     -0.609D-04 0.811D-04 0.108D-02 0.428D-03 0.242D-02 0.113D-01
 Coeff:     -0.296D-02-0.679D-01-0.127D+00-0.490D-01 0.491D+00 0.108D+00
 Coeff:     -0.985D+00-0.428D+00 0.205D+01
 Gap=     0.035 Goal=   None    Shift=    0.000
 Gap=     0.041 Goal=   None    Shift=    0.000
 RMSDP=1.73D-04 MaxDP=1.48D-02 DE=-3.32D-07 OVMax= 3.81D-03

 Cycle  16  Pass 1  IDiag  1:
 E= -1136.09486453574     Delta-E=       -0.000000225842 Rises=F Damp=F
 DIIS: error= 1.68D-06 at cycle  16 NSaved=  16.
 NSaved=16 IEnMin=16 EnMin= -1136.09486453574     IErMin=16 ErrMin= 1.68D-06
 ErrMax= 1.68D-06  0.00D+00 EMaxC= 1.00D-01 BMatC= 6.54D-10 BMatP= 3.15D-09
 IDIUse=1 WtCom= 1.00D+00 WtEn= 0.00D+00
 Coeff-Com: -0.379D-04 0.467D-04-0.297D-03-0.371D-03 0.218D-03 0.801D-02
 Coeff-Com:  0.118D-01 0.177D-01-0.718D-01-0.135D+00-0.296D-01 0.545D+00
 Coeff-Com:  0.191D-01-0.731D+00-0.585D-01 0.142D+01
 Coeff:     -0.379D-04 0.467D-04-0.297D-03-0.371D-03 0.218D-03 0.801D-02
 Coeff:      0.118D-01 0.177D-01-0.718D-01-0.135D+00-0.296D-01 0.545D+00
 Coeff:      0.191D-01-0.731D+00-0.585D-01 0.142D+01
 Gap=     0.035 Goal=   None    Shift=    0.000
 Gap=     0.041 Goal=   None    Shift=    0.000
 RMSDP=7.72D-05 MaxDP=6.62D-03 DE=-2.26D-07 OVMax= 1.69D-03

 Cycle  17  Pass 1  IDiag  1:
 E= -1136.09486456830     Delta-E=       -0.000000032552 Rises=F Damp=F
 DIIS: error= 6.10D-07 at cycle  17 NSaved=  17.
 NSaved=17 IEnMin=17 EnMin= -1136.09486456830     IErMin=17 ErrMin= 6.10D-07
 ErrMax= 6.10D-07  0.00D+00 EMaxC= 1.00D-01 BMatC= 1.05D-10 BMatP= 6.54D-10
 IDIUse=1 WtCom= 1.00D+00 WtEn= 0.00D+00
 Coeff-Com:  0.130D-04-0.175D-04-0.252D-03-0.120D-03-0.486D-03-0.861D-03
 Coeff-Com:  0.771D-03 0.113D-01 0.207D-01-0.270D-02-0.792D-01 0.138D-01
 Coeff-Com:  0.158D+00 0.225D-01-0.355D+00 0.182D+00 0.103D+01
 Coeff:      0.130D-04-0.175D-04-0.252D-03-0.120D-03-0.486D-03-0.861D-03
 Coeff:      0.771D-03 0.113D-01 0.207D-01-0.270D-02-0.792D-01 0.138D-01
 Coeff:      0.158D+00 0.225D-01-0.355D+00 0.182D+00 0.103D+01
 Gap=     0.035 Goal=   None    Shift=    0.000
 Gap=     0.041 Goal=   None    Shift=    0.000
 RMSDP=1.35D-05 MaxDP=1.23D-03 DE=-3.26D-08 OVMax= 2.83D-04

 Cycle  18  Pass 1  IDiag  1:
 E= -1136.09486456982     Delta-E=       -0.000000001522 Rises=F Damp=F
 DIIS: error= 3.20D-07 at cycle  18 NSaved=  18.
 NSaved=18 IEnMin=18 EnMin= -1136.09486456982     IErMin=18 ErrMin= 3.20D-07
 ErrMax= 3.20D-07  0.00D+00 EMaxC= 1.00D-01 BMatC= 3.05D-11 BMatP= 1.05D-10
 IDIUse=1 WtCom= 1.00D+00 WtEn= 0.00D+00
 Coeff-Com:  0.177D-04-0.225D-04-0.542D-05 0.320D-04-0.179D-03-0.242D-02
 Coeff-Com: -0.258D-02 0.180D-02 0.244D-01 0.190D-01-0.227D-01-0.991D-01
 Coeff-Com:  0.464D-01 0.125D+00-0.229D-01-0.300D+00 0.158D+00 0.107D+01
 Coeff:      0.177D-04-0.225D-04-0.542D-05 0.320D-04-0.179D-03-0.242D-02
 Coeff:     -0.258D-02 0.180D-02 0.244D-01 0.190D-01-0.227D-01-0.991D-01
 Coeff:      0.464D-01 0.125D+00-0.229D-01-0.300D+00 0.158D+00 0.107D+01
 Gap=     0.035 Goal=   None    Shift=    0.000
 Gap=     0.041 Goal=   None    Shift=    0.000
 RMSDP=3.80D-06 MaxDP=3.80D-04 DE=-1.52D-09 OVMax= 7.22D-05

 Cycle  19  Pass 1  IDiag  1:
 E= -1136.09486457010     Delta-E=       -0.000000000285 Rises=F Damp=F
 DIIS: error= 2.02D-07 at cycle  19 NSaved=  19.
 NSaved=19 IEnMin=19 EnMin= -1136.09486457010     IErMin=19 ErrMin= 2.02D-07
 ErrMax= 2.02D-07  0.00D+00 EMaxC= 1.00D-01 BMatC= 1.00D-11 BMatP= 3.05D-11
 IDIUse=1 WtCom= 1.00D+00 WtEn= 0.00D+00
 Coeff-Com: -0.849D-05 0.113D-04 0.297D-04 0.318D-05 0.112D-03 0.864D-03
 Coeff-Com:  0.479D-03-0.242D-02-0.777D-02-0.752D-02 0.197D-01 0.227D-01
 Coeff-Com: -0.453D-01-0.464D-01 0.131D+00-0.420D-01-0.338D+00-0.557D-01
 Coeff-Com:  0.137D+01
 Coeff:     -0.849D-05 0.113D-04 0.297D-04 0.318D-05 0.112D-03 0.864D-03
 Coeff:      0.479D-03-0.242D-02-0.777D-02-0.752D-02 0.197D-01 0.227D-01
 Coeff:     -0.453D-01-0.464D-01 0.131D+00-0.420D-01-0.338D+00-0.557D-01
 Coeff:      0.137D+01
 Gap=     0.035 Goal=   None    Shift=    0.000
 Gap=     0.041 Goal=   None    Shift=    0.000
 RMSDP=1.63D-06 MaxDP=1.23D-04 DE=-2.85D-10 OVMax= 5.21D-05

 Cycle  20  Pass 1  IDiag  1:
 E= -1136.09486457021     Delta-E=       -0.000000000110 Rises=F Damp=F
 DIIS: error= 1.14D-07 at cycle  20 NSaved=  20.
 NSaved=20 IEnMin=20 EnMin= -1136.09486457021     IErMin=20 ErrMin= 1.14D-07
 ErrMax= 1.14D-07  0.00D+00 EMaxC= 1.00D-01 BMatC= 1.68D-12 BMatP= 1.00D-11
 IDIUse=1 WtCom= 1.00D+00 WtEn= 0.00D+00
 Coeff-Com: -0.196D-05 0.252D-05 0.245D-06-0.505D-06 0.498D-05 0.261D-03
 Coeff-Com:  0.437D-03 0.586D-03-0.246D-02-0.426D-02-0.180D-02 0.225D-01
 Coeff-Com: -0.570D-02-0.211D-01-0.881D-02 0.701D-01-0.180D-01-0.223D+00
 Coeff-Com: -0.101D+00 0.129D+01
 Coeff:     -0.196D-05 0.252D-05 0.245D-06-0.505D-06 0.498D-05 0.261D-03
 Coeff:      0.437D-03 0.586D-03-0.246D-02-0.426D-02-0.180D-02 0.225D-01
 Coeff:     -0.570D-02-0.211D-01-0.881D-02 0.701D-01-0.180D-01-0.223D+00
 Coeff:     -0.101D+00 0.129D+01
 Gap=     0.035 Goal=   None    Shift=    0.000
 Gap=     0.041 Goal=   None    Shift=    0.000
 RMSDP=7.90D-07 MaxDP=5.91D-05 DE=-1.10D-10 OVMax= 2.63D-05

 Cycle  21  Pass 1  IDiag  1:
 E= -1136.09486457026     Delta-E=       -0.000000000051 Rises=F Damp=F
 DIIS: error= 4.96D-08 at cycle  21 NSaved=  20.
 NSaved=20 IEnMin=20 EnMin= -1136.09486457026     IErMin=20 ErrMin= 4.96D-08
 ErrMax= 4.96D-08  0.00D+00 EMaxC= 1.00D-01 BMatC= 5.27D-13 BMatP= 1.68D-12
 IDIUse=1 WtCom= 1.00D+00 WtEn= 0.00D+00
 Coeff-Com:  0.121D-06-0.988D-05-0.534D-05-0.122D-04-0.143D-04-0.281D-04
 Coeff-Com:  0.467D-03 0.857D-03-0.232D-03-0.256D-02-0.722D-03 0.868D-02
 Coeff-Com:  0.211D-02-0.231D-01 0.166D-01 0.645D-01-0.347D-01-0.261D+00
 Coeff-Com:  0.681D-01 0.116D+01
 Coeff:      0.121D-06-0.988D-05-0.534D-05-0.122D-04-0.143D-04-0.281D-04
 Coeff:      0.467D-03 0.857D-03-0.232D-03-0.256D-02-0.722D-03 0.868D-02
 Coeff:      0.211D-02-0.231D-01 0.166D-01 0.645D-01-0.347D-01-0.261D+00
 Coeff:      0.681D-01 0.116D+01
 Gap=     0.035 Goal=   None    Shift=    0.000
 Gap=     0.041 Goal=   None    Shift=    0.000
 RMSDP=4.73D-07 MaxDP=2.80D-05 DE=-5.09D-11 OVMax= 1.32D-05

 Cycle  22  Pass 1  IDiag  1:
 E= -1136.09486457024     Delta-E=        0.000000000020 Rises=F Damp=F
 DIIS: error= 2.88D-08 at cycle  22 NSaved=  20.
 NSaved=20 IEnMin=19 EnMin= -1136.09486457026     IErMin=20 ErrMin= 2.88D-08
 ErrMax= 2.88D-08  0.00D+00 EMaxC= 1.00D-01 BMatC= 1.43D-13 BMatP= 5.27D-13
 IDIUse=1 WtCom= 1.00D+00 WtEn= 0.00D+00
 Coeff-Com: -0.250D-05-0.202D-05-0.538D-05-0.594D-04-0.606D-04-0.962D-04
 Coeff-Com:  0.717D-03 0.405D-03-0.142D-03-0.397D-02 0.129D-02 0.118D-02
 Coeff-Com:  0.101D-01-0.230D-01-0.160D-01 0.770D-01 0.106D+00-0.414D+00
 Coeff-Com: -0.345D+00 0.160D+01
 Coeff:     -0.250D-05-0.202D-05-0.538D-05-0.594D-04-0.606D-04-0.962D-04
 Coeff:      0.717D-03 0.405D-03-0.142D-03-0.397D-02 0.129D-02 0.118D-02
 Coeff:      0.101D-01-0.230D-01-0.160D-01 0.770D-01 0.106D+00-0.414D+00
 Coeff:     -0.345D+00 0.160D+01
 Gap=     0.035 Goal=   None    Shift=    0.000
 Gap=     0.041 Goal=   None    Shift=    0.000
 RMSDP=3.61D-07 MaxDP=2.51D-05 DE= 1.96D-11 OVMax= 7.93D-06

 Cycle  23  Pass 1  IDiag  1:
 E= -1136.09486457025     Delta-E=       -0.000000000006 Rises=F Damp=F
 DIIS: error= 1.04D-08 at cycle  23 NSaved=  20.
 NSaved=20 IEnMin=18 EnMin= -1136.09486457026     IErMin=20 ErrMin= 1.04D-08
 ErrMax= 1.04D-08  0.00D+00 EMaxC= 1.00D-01 BMatC= 2.87D-14 BMatP= 1.43D-13
 IDIUse=1 WtCom= 1.00D+00 WtEn= 0.00D+00
 Coeff-Com:  0.828D-06 0.776D-06-0.246D-05 0.302D-05-0.272D-04-0.125D-03
 Coeff-Com: -0.462D-04 0.354D-03 0.568D-03-0.262D-02-0.535D-03 0.665D-02
 Coeff-Com: -0.551D-02-0.174D-01 0.181D-01 0.616D-01-0.247D-01-0.343D+00
 Coeff-Com:  0.224D+00 0.108D+01
 Coeff:      0.828D-06 0.776D-06-0.246D-05 0.302D-05-0.272D-04-0.125D-03
 Coeff:     -0.462D-04 0.354D-03 0.568D-03-0.262D-02-0.535D-03 0.665D-02
 Coeff:     -0.551D-02-0.174D-01 0.181D-01 0.616D-01-0.247D-01-0.343D+00
 Coeff:      0.224D+00 0.108D+01
 Gap=     0.035 Goal=   None    Shift=    0.000
 Gap=     0.041 Goal=   None    Shift=    0.000
 RMSDP=1.39D-07 MaxDP=1.02D-05 DE=-5.91D-12 OVMax= 2.36D-06

 Cycle  24  Pass 1  IDiag  1:
 E= -1136.09486457025     Delta-E=        0.000000000001 Rises=F Damp=F
 DIIS: error= 5.23D-09 at cycle  24 NSaved=  20.
 NSaved=20 IEnMin=17 EnMin= -1136.09486457026     IErMin=20 ErrMin= 5.23D-09
 ErrMax= 5.23D-09  0.00D+00 EMaxC= 1.00D-01 BMatC= 5.85D-15 BMatP= 2.87D-14
 IDIUse=1 WtCom= 1.00D+00 WtEn= 0.00D+00
 Coeff-Com:  0.227D-06 0.157D-04 0.173D-04 0.752D-04-0.195D-03-0.251D-03
 Coeff-Com: -0.170D-03 0.152D-02-0.415D-03-0.133D-02-0.301D-03 0.365D-02
 Coeff-Com: -0.486D-03-0.131D-01-0.708D-02 0.622D-01 0.444D-01-0.304D+00
 Coeff-Com:  0.124D+00 0.109D+01
 Coeff:      0.227D-06 0.157D-04 0.173D-04 0.752D-04-0.195D-03-0.251D-03
 Coeff:     -0.170D-03 0.152D-02-0.415D-03-0.133D-02-0.301D-03 0.365D-02
 Coeff:     -0.486D-03-0.131D-01-0.708D-02 0.622D-01 0.444D-01-0.304D+00
 Coeff:      0.124D+00 0.109D+01
 Gap=     0.035 Goal=   None    Shift=    0.000
 Gap=     0.041 Goal=   None    Shift=    0.000
 RMSDP=6.32D-08 MaxDP=4.62D-06 DE= 1.36D-12 OVMax= 8.77D-07

 Cycle  25  Pass 1  IDiag  1:
 E= -1136.09486457027     Delta-E=       -0.000000000022 Rises=F Damp=F
 DIIS: error= 1.67D-09 at cycle  25 NSaved=  20.
 NSaved=20 IEnMin=20 EnMin= -1136.09486457027     IErMin=20 ErrMin= 1.67D-09
 ErrMax= 1.67D-09  0.00D+00 EMaxC= 1.00D-01 BMatC= 8.46D-16 BMatP= 5.85D-15
 IDIUse=1 WtCom= 1.00D+00 WtEn= 0.00D+00
 Large coefficients: NSaved= 20 BigCof=    0.00 CofMax=   10.00 Det=-1.61D-15
 Inversion failed.  Reducing to 19 matrices.
 Large coefficients: NSaved= 19 BigCof=    0.00 CofMax=   10.00 Det=-2.03D-15
 Inversion failed.  Reducing to 18 matrices.
 Large coefficients: NSaved= 18 BigCof=    0.00 CofMax=   10.00 Det=-2.03D-15
 Inversion failed.  Reducing to 17 matrices.
 Large coefficients: NSaved= 17 BigCof=    0.00 CofMax=   10.00 Det=-2.30D-15
 Inversion failed.  Reducing to 16 matrices.
 Large coefficients: NSaved= 16 BigCof=    0.00 CofMax=   10.00 Det=-2.52D-15
 Inversion failed.  Reducing to 15 matrices.
 Coeff-Com: -0.288D-04 0.163D-04 0.262D-03-0.289D-03-0.222D-03 0.545D-03
 Coeff-Com:  0.109D-02-0.169D-02-0.575D-02-0.422D-03 0.365D-01-0.384D-02
 Coeff-Com: -0.199D+00-0.131D-01 0.119D+01
 Coeff:     -0.288D-04 0.163D-04 0.262D-03-0.289D-03-0.222D-03 0.545D-03
 Coeff:      0.109D-02-0.169D-02-0.575D-02-0.422D-03 0.365D-01-0.384D-02
 Coeff:     -0.199D+00-0.131D-01 0.119D+01
 Gap=     0.035 Goal=   None    Shift=    0.000
 Gap=     0.041 Goal=   None    Shift=    0.000
 RMSDP=2.56D-08 MaxDP=1.63D-06 DE=-2.18D-11 OVMax= 3.40D-07

 Cycle  26  Pass 1  IDiag  1:
 E= -1136.09486457025     Delta-E=        0.000000000018 Rises=F Damp=F
 DIIS: error= 7.56D-10 at cycle  26 NSaved=  16.
 NSaved=16 IEnMin=15 EnMin= -1136.09486457027     IErMin=16 ErrMin= 7.56D-10
 ErrMax= 7.56D-10  0.00D+00 EMaxC= 1.00D-01 BMatC= 2.17D-16 BMatP= 8.46D-16
 IDIUse=1 WtCom= 1.00D+00 WtEn= 0.00D+00
 Large coefficients: NSaved= 16 BigCof=    0.00 CofMax=   10.00 Det=-2.44D-16
 Inversion failed.  Reducing to 15 matrices.
 Coeff-Com: -0.608D-04 0.152D-03-0.242D-04-0.149D-03-0.257D-04 0.831D-03
 Coeff-Com:  0.541D-03-0.173D-02-0.577D-02 0.137D-01 0.250D-01-0.674D-01
 Coeff-Com: -0.996D-01 0.154D+00 0.980D+00
 Coeff:     -0.608D-04 0.152D-03-0.242D-04-0.149D-03-0.257D-04 0.831D-03
 Coeff:      0.541D-03-0.173D-02-0.577D-02 0.137D-01 0.250D-01-0.674D-01
 Coeff:     -0.996D-01 0.154D+00 0.980D+00
 Gap=     0.035 Goal=   None    Shift=    0.000
 Gap=     0.041 Goal=   None    Shift=    0.000
 RMSDP=1.04D-08 MaxDP=1.21D-06 DE= 1.82D-11 OVMax= 1.40D-07

 Cycle  27  Pass 1  IDiag  1:
 E= -1136.09486457025     Delta-E=       -0.000000000003 Rises=F Damp=F
 DIIS: error= 5.95D-10 at cycle  27 NSaved=  16.
 NSaved=16 IEnMin=14 EnMin= -1136.09486457027     IErMin=16 ErrMin= 5.95D-10
 ErrMax= 5.95D-10  0.00D+00 EMaxC= 1.00D-01 BMatC= 1.19D-16 BMatP= 2.17D-16
 IDIUse=1 WtCom= 1.00D+00 WtEn= 0.00D+00
 Large coefficients: NSaved= 16 BigCof=    0.00 CofMax=   10.00 Det=-1.75D-16
 Inversion failed.  Reducing to 15 matrices.
 Coeff-Com: -0.347D-04-0.924D-05 0.161D-03-0.235D-03-0.439D-03 0.106D-02
 Coeff-Com:  0.182D-02-0.390D-02-0.940D-02 0.205D-01 0.242D-01-0.621D-01
 Coeff-Com: -0.254D+00 0.482D+00 0.800D+00
 Coeff:     -0.347D-04-0.924D-05 0.161D-03-0.235D-03-0.439D-03 0.106D-02
 Coeff:      0.182D-02-0.390D-02-0.940D-02 0.205D-01 0.242D-01-0.621D-01
 Coeff:     -0.254D+00 0.482D+00 0.800D+00
 Gap=     0.035 Goal=   None    Shift=    0.000
 Gap=     0.041 Goal=   None    Shift=    0.000
 RMSDP=1.56D-08 MaxDP=1.64D-06 DE=-3.18D-12 OVMax= 8.14D-08

 Cycle  28  Pass 1  IDiag  1:
 E= -1136.09486457024     Delta-E=        0.000000000011 Rises=F Damp=F
 DIIS: error= 3.01D-10 at cycle  28 NSaved=  16.
 NSaved=16 IEnMin=13 EnMin= -1136.09486457027     IErMin=16 ErrMin= 3.01D-10
 ErrMax= 3.01D-10  0.00D+00 EMaxC= 1.00D-01 BMatC= 3.00D-17 BMatP= 1.19D-16
 IDIUse=1 WtCom= 1.00D+00 WtEn= 0.00D+00
 Large coefficients: NSaved= 16 BigCof=    0.00 CofMax=   10.00 Det=-8.40D-17
 Inversion failed.  Reducing to 15 matrices.
 Coeff-Com: -0.198D-05 0.341D-04-0.910D-04-0.110D-03 0.443D-03 0.602D-03
 Coeff-Com: -0.156D-02-0.432D-02 0.752D-02 0.133D-01-0.127D-01-0.140D+00
 Coeff-Com:  0.642D-01 0.357D+00 0.716D+00
 Coeff:     -0.198D-05 0.341D-04-0.910D-04-0.110D-03 0.443D-03 0.602D-03
 Coeff:     -0.156D-02-0.432D-02 0.752D-02 0.133D-01-0.127D-01-0.140D+00
 Coeff:      0.642D-01 0.357D+00 0.716D+00
 Gap=     0.035 Goal=   None    Shift=    0.000
 Gap=     0.041 Goal=   None    Shift=    0.000
 RMSDP=5.22D-09 MaxDP=4.57D-07 DE= 1.14D-11 OVMax= 4.40D-08

 SCF Done:  E(UB3LYP) =  -1136.09486457     A.U. after   28 cycles
            NFock= 28  Conv=0.52D-08     -V/T= 2.0025
 <Sx>= 0.0000 <Sy>= 0.0000 <Sz>= 0.5000 <S**2>= 0.7640 S= 0.5070
 <L.S>= 0.000000000000E+00
 KE= 1.133224874467D+03 PE=-3.456155426866D+03 EE= 8.233957603861D+02
 Annihilation of the first spin contaminant:
 S**2 before annihilation     0.7640,   after     0.7501
 Leave Link  502 at Mon Nov 13 12:07:58 2023, MaxMem=  1879048192 cpu:             274.9 elap:              23.1
 (Enter /home/sekinelabo/g16/l601.exe)
 Copying SCF densities to generalized density rwf, IOpCl= 1 IROHF=0.

 **********************************************************************

            Population analysis using the SCF Density.

 **********************************************************************

 Orbital symmetries:
 Alpha Orbitals:
       Occupied  (A) (A) (A) (A) (A) (A) (A) (A) (A) (A) (A) (A)
                 (A) (A) (A) (A) (A) (A) (A) (A) (A) (A) (A) (A)
                 (A) (A) (A) (A) (A) (A) (A) (A) (A) (A) (A) (A)
                 (A) (A) (A)
       Virtual   (A) (A) (A) (A) (A) (A) (A) (A) (A) (A) (A) (A)
                 (A) (A) (A) (A) (A) (A) (A) (A) (A) (A) (A) (A)
                 (A) (A) (A) (A) (A) (A) (A) (A) (A) (A) (A) (A)
                 (A) (A) (A) (A) (A) (A) (A) (A) (A) (A) (A) (A)
                 (A) (A) (A) (A) (A) (A) (A) (A) (A) (A) (A) (A)
                 (A) (A) (A) (A) (A) (A) (A) (A) (A) (A) (A) (A)
                 (A) (A) (A) (A) (A) (A) (A) (A) (A) (A) (A) (A)
                 (A) (A) (A) (A) (A) (A) (A) (A) (A) (A) (A) (A)
                 (A) (A) (A) (A) (A) (A) (A) (A) (A) (A) (A) (A)
                 (A) (A) (A) (A) (A) (A) (A) (A) (A) (A) (A) (A)
                 (A) (A) (A) (A) (A) (A) (A) (A) (A) (A) (A) (A)
                 (A) (A) (A) (A) (A) (A) (A) (A) (A) (A) (A) (A)
                 (A) (A) (A) (A) (A) (A) (A) (A) (A) (A) (A) (A)
                 (A) (A) (A) (A) (A) (A) (A) (A) (A) (A) (A) (A)
                 (A) (A) (A)
 Beta  Orbitals:
       Occupied  (A) (A) (A) (A) (A) (A) (A) (A) (A) (A) (A) (A)
                 (A) (A) (A) (A) (A) (A) (A) (A) (A) (A) (A) (A)
                 (A) (A) (A) (A) (A) (A) (A) (A) (A) (A) (A) (A)
                 (A) (A)
       Virtual   (A) (A) (A) (A) (A) (A) (A) (A) (A) (A) (A) (A)
                 (A) (A) (A) (A) (A) (A) (A) (A) (A) (A) (A) (A)
                 (A) (A) (A) (A) (A) (A) (A) (A) (A) (A) (A) (A)
                 (A) (A) (A) (A) (A) (A) (A) (A) (A) (A) (A) (A)
                 (A) (A) (A) (A) (A) (A) (A) (A) (A) (A) (A) (A)
                 (A) (A) (A) (A) (A) (A) (A) (A) (A) (A) (A) (A)
                 (A) (A) (A) (A) (A) (A) (A) (A) (A) (A) (A) (A)
                 (A) (A) (A) (A) (A) (A) (A) (A) (A) (A) (A) (A)
                 (A) (A) (A) (A) (A) (A) (A) (A) (A) (A) (A) (A)
                 (A) (A) (A) (A) (A) (A) (A) (A) (A) (A) (A) (A)
                 (A) (A) (A) (A) (A) (A) (A) (A) (A) (A) (A) (A)
                 (A) (A) (A) (A) (A) (A) (A) (A) (A) (A) (A) (A)
                 (A) (A) (A) (A) (A) (A) (A) (A) (A) (A) (A) (A)
                 (A) (A) (A) (A) (A) (A) (A) (A) (A) (A) (A) (A)
                 (A) (A) (A) (A)
 The electronic state is 2-A.
 Alpha  occ. eigenvalues --  -38.45861 -38.44996 -38.44245 -38.43988 -38.43572
 Alpha  occ. eigenvalues --  -38.43410 -38.42410  -2.21834  -2.20880  -2.20258
 Alpha  occ. eigenvalues --   -2.19964  -2.19663  -2.19394  -2.18493  -1.15551
 Alpha  occ. eigenvalues --   -1.15493  -1.15471  -1.14600  -1.14543  -1.14500
 Alpha  occ. eigenvalues --   -1.13954  -1.13898  -1.13868  -1.13732  -1.13611
 Alpha  occ. eigenvalues --   -1.13588  -1.13404  -1.13316  -1.13276  -1.13060
 Alpha  occ. eigenvalues --   -1.13031  -1.13011  -1.12180  -1.12150  -1.12121
 Alpha  occ. eigenvalues --   -0.19774  -0.15235  -0.11428  -0.10840
 Alpha virt. eigenvalues --   -0.07308  -0.05353  -0.04232  -0.03220  -0.02670
 Alpha virt. eigenvalues --   -0.02093  -0.01990  -0.00941  -0.00433  -0.00143
 Alpha virt. eigenvalues --    0.00144   0.00219   0.00445   0.00763   0.00796
 Alpha virt. eigenvalues --    0.00924   0.01112   0.01169   0.01285   0.01532
 Alpha virt. eigenvalues --    0.01573   0.01824   0.01901   0.01969   0.02040
 Alpha virt. eigenvalues --    0.02166   0.02361   0.02446   0.02588   0.02716
 Alpha virt. eigenvalues --    0.02723   0.02913   0.03003   0.03061   0.03087
 Alpha virt. eigenvalues --    0.03160   0.03353   0.03549   0.03849   0.04009
 Alpha virt. eigenvalues --    0.04048   0.04369   0.04592   0.04651   0.05043
 Alpha virt. eigenvalues --    0.05338   0.05507   0.05758   0.05911   0.06237
 Alpha virt. eigenvalues --    0.06374   0.06570   0.06941   0.07005   0.07319
 Alpha virt. eigenvalues --    0.07481   0.08026   0.08086   0.08380   0.08638
 Alpha virt. eigenvalues --    0.09339   0.09688   0.10112   0.11271   0.11450
 Alpha virt. eigenvalues --    0.11818   0.12629   0.13073   0.13139   0.13872
 Alpha virt. eigenvalues --    0.14261   0.14379   0.14635   0.14831   0.15036
 Alpha virt. eigenvalues --    0.15304   0.15581   0.16412   0.17967   0.19898
 Alpha virt. eigenvalues --    0.23622   0.25813   0.26322   0.27172   0.27992
 Alpha virt. eigenvalues --    0.30018   0.30357   0.31153   0.31511   0.32931
 Alpha virt. eigenvalues --    0.34553   0.35867   0.36299   0.37060   0.37729
 Alpha virt. eigenvalues --    0.39215   0.40331   0.41213   0.41993   0.42595
 Alpha virt. eigenvalues --    0.43385   0.43724   0.44162   0.44749   0.44938
 Alpha virt. eigenvalues --    0.45158   0.45512   0.46178   0.46726   0.47931
 Alpha virt. eigenvalues --    0.48156   0.48529   0.49168   0.49545   0.50418
 Alpha virt. eigenvalues --    0.50662   0.51008   0.52085   0.52572   0.52863
 Alpha virt. eigenvalues --    0.53859   0.54266   0.56258   0.57793   0.58488
 Alpha virt. eigenvalues --    0.64997   0.67500   0.68315   0.69889   0.71457
 Alpha virt. eigenvalues --    0.71842   0.71900   0.74234   0.76649   0.79331
 Alpha virt. eigenvalues --    0.80726   2.09637   2.14147   2.19323   2.22255
 Alpha virt. eigenvalues --    2.23250   2.28378   2.33794   4.40034   4.40716
 Alpha virt. eigenvalues --    4.41034   4.42117   4.42788   4.42837   4.43708
 Alpha virt. eigenvalues --    4.44486   4.45941   4.47402   4.48760   4.54280
 Alpha virt. eigenvalues --    4.58988   4.60664   4.62171   4.63284   4.68764
 Alpha virt. eigenvalues --    4.72788   4.74785   4.77422   4.81451  96.30270
 Alpha virt. eigenvalues --   96.36709  96.43842  96.47759  96.49187  96.55421
 Alpha virt. eigenvalues --   96.63423
  Beta  occ. eigenvalues --  -38.45847 -38.44985 -38.44164 -38.43985 -38.43527
  Beta  occ. eigenvalues --  -38.43387 -38.42383  -2.21817  -2.20859  -2.20109
  Beta  occ. eigenvalues --   -2.19960  -2.19585  -2.19360  -2.18450  -1.15545
  Beta  occ. eigenvalues --   -1.15479  -1.15410  -1.14588  -1.14523  -1.14486
  Beta  occ. eigenvalues --   -1.13861  -1.13792  -1.13758  -1.13721  -1.13607
  Beta  occ. eigenvalues --   -1.13577  -1.13355  -1.13264  -1.13197  -1.13039
  Beta  occ. eigenvalues --   -1.13011  -1.12938  -1.12159  -1.12130  -1.12032
  Beta  occ. eigenvalues --   -0.19031  -0.14914  -0.11216
  Beta virt. eigenvalues --   -0.07090  -0.06859  -0.05286  -0.03586  -0.03169
  Beta virt. eigenvalues --   -0.02555  -0.01462  -0.01121  -0.00892  -0.00106
  Beta virt. eigenvalues --   -0.00061   0.00211   0.00230   0.00647   0.00797
  Beta virt. eigenvalues --    0.00851   0.00977   0.01156   0.01252   0.01401
  Beta virt. eigenvalues --    0.01632   0.01725   0.01859   0.01965   0.02025
  Beta virt. eigenvalues --    0.02148   0.02276   0.02389   0.02498   0.02680
  Beta virt. eigenvalues --    0.02731   0.02745   0.02952   0.03078   0.03130
  Beta virt. eigenvalues --    0.03175   0.03228   0.03418   0.03627   0.03893
  Beta virt. eigenvalues --    0.04125   0.04163   0.04457   0.04734   0.04766
  Beta virt. eigenvalues --    0.05186   0.05487   0.05696   0.05814   0.06004
  Beta virt. eigenvalues --    0.06322   0.06463   0.06646   0.07075   0.07131
  Beta virt. eigenvalues --    0.07484   0.07655   0.08156   0.08195   0.08543
  Beta virt. eigenvalues --    0.08687   0.09506   0.09808   0.10360   0.11552
  Beta virt. eigenvalues --    0.11837   0.12026   0.12856   0.13256   0.13443
  Beta virt. eigenvalues --    0.13978   0.14437   0.14615   0.14794   0.15082
  Beta virt. eigenvalues --    0.15244   0.15473   0.15882   0.16563   0.18262
  Beta virt. eigenvalues --    0.20102   0.23890   0.26155   0.26565   0.27386
  Beta virt. eigenvalues --    0.28238   0.30329   0.30625   0.31517   0.31681
  Beta virt. eigenvalues --    0.33161   0.34873   0.36165   0.36634   0.37384
  Beta virt. eigenvalues --    0.37947   0.39471   0.40449   0.41629   0.42119
  Beta virt. eigenvalues --    0.43029   0.43523   0.43893   0.44320   0.45000
  Beta virt. eigenvalues --    0.45091   0.45210   0.45595   0.46333   0.46949
  Beta virt. eigenvalues --    0.48003   0.48312   0.48729   0.49318   0.49715
  Beta virt. eigenvalues --    0.50631   0.50879   0.51260   0.52254   0.52742
  Beta virt. eigenvalues --    0.53032   0.54062   0.54441   0.56358   0.57958
  Beta virt. eigenvalues --    0.58728   0.65092   0.67706   0.68578   0.70144
  Beta virt. eigenvalues --    0.71578   0.71988   0.72021   0.74370   0.76692
  Beta virt. eigenvalues --    0.79402   0.80828   2.09733   2.14235   2.19338
  Beta virt. eigenvalues --    2.22318   2.23542   2.28469   2.33911   4.40060
  Beta virt. eigenvalues --    4.40769   4.41107   4.42190   4.42840   4.42912
  Beta virt. eigenvalues --    4.43754   4.44555   4.45969   4.47439   4.48808
  Beta virt. eigenvalues --    4.54381   4.59050   4.60702   4.62204   4.63347
  Beta virt. eigenvalues --    4.68804   4.72843   4.74830   4.77449   4.81502
  Beta virt. eigenvalues --   96.30304  96.36739  96.43851  96.47784  96.49274
  Beta virt. eigenvalues --   96.55451  96.63467
          Condensed to atoms (all electrons):
               1          2          3          4          5          6
     1  Na  16.772089  -0.113870  -2.392366   2.860155  -3.452678  -0.776360
     2  Na  -0.113870  15.255090  -0.054309  -1.166512  -0.876648  -1.406870
     3  Na  -2.392366  -0.054309  12.816664  -2.018160   1.823628   0.363121
     4  Na   2.860155  -1.166512  -2.018160  14.773289  -2.312382   0.049534
     5  Na  -3.452678  -0.876648   1.823628  -2.312382  14.497921   0.457824
     6  Na  -0.776360  -1.406870   0.363121   0.049534   0.457824  11.621983
     7  Na  -1.784463  -1.746517   0.521699  -0.480863   1.108597   0.974853
               7
     1  Na  -1.784463
     2  Na  -1.746517
     3  Na   0.521699
     4  Na  -0.480863
     5  Na   1.108597
     6  Na   0.974853
     7  Na  12.108138
          Atomic-Atomic Spin Densities.
               1          2          3          4          5          6
     1  Na   1.462926   0.824245  -0.759237   1.017596  -1.121360  -0.490342
     2  Na   0.824245  -0.566874  -0.284756   0.553645  -0.665193   0.222914
     3  Na  -0.759237  -0.284756   0.704147  -0.712284   0.532903   0.238128
     4  Na   1.017596   0.553645  -0.712284   1.447231  -0.873059  -0.466675
     5  Na  -1.121360  -0.665193   0.532903  -0.873059   1.132861   0.614926
     6  Na  -0.490342   0.222914   0.238128  -0.466675   0.614926  -0.188814
     7  Na  -1.097402   0.054073   0.519919  -0.619655   0.760251   0.062103
               7
     1  Na  -1.097402
     2  Na   0.054073
     3  Na   0.519919
     4  Na  -0.619655
     5  Na   0.760251
     6  Na   0.062103
     7  Na   0.387042
 Mulliken charges and spin densities:
               1          2
     1  Na  -0.112507  -0.163574
     2  Na   1.109637   0.138054
     3  Na  -0.060277   0.238819
     4  Na  -0.705061   0.346800
     5  Na  -0.246262   0.381330
     6  Na  -0.284086  -0.007760
     7  Na   0.298557   0.066331
 Sum of Mulliken charges =  -0.00000   1.00000
 Mulliken charges and spin densities with hydrogens summed into heavy atoms:
               1          2
     1  Na  -0.112507  -0.163574
     2  Na   1.109637   0.138054
     3  Na  -0.060277   0.238819
     4  Na  -0.705061   0.346800
     5  Na  -0.246262   0.381330
     6  Na  -0.284086  -0.007760
     7  Na   0.298557   0.066331
 Electronic spatial extent (au):  <R**2>=           2208.3312
 Charge=             -0.0000 electrons
 Dipole moment (field-independent basis, Debye):
    X=              0.1329    Y=              0.0877    Z=             -0.0317  Tot=              0.1624
 Quadrupole moment (field-independent basis, Debye-Ang):
   XX=            -48.0547   YY=            -76.1624   ZZ=            -70.6815
   XY=              1.0162   XZ=              6.0782   YZ=              0.5826
 Traceless Quadrupole moment (field-independent basis, Debye-Ang):
   XX=             16.9115   YY=            -11.1962   ZZ=             -5.7153
   XY=              1.0162   XZ=              6.0782   YZ=              0.5826
 Octapole moment (field-independent basis, Debye-Ang**2):
  XXX=              6.8513  YYY=              3.5653  ZZZ=              2.8884  XYY=             12.6426
  XXY=              0.3095  XXZ=            -18.2104  XZZ=             -6.4081  YZZ=             -2.5629
  YYZ=              2.2221  XYZ=             -0.2221
 Hexadecapole moment (field-independent basis, Debye-Ang**3):
 XXXX=          -1805.2964 YYYY=          -1102.9644 ZZZZ=           -640.4988 XXXY=             74.5272
 XXXZ=            160.6001 YYYX=            -37.3641 YYYZ=             17.4597 ZZZX=             11.3012
 ZZZY=             -6.5130 XXYY=           -521.2810 XXZZ=           -451.1317 YYZZ=           -302.1160
 XXYZ=              8.6199 YYXZ=             16.0893 ZZXY=             14.7069
 N-N= 3.634399274425D+02 E-N=-3.456155426818D+03  KE= 1.133224874467D+03
                          Isotropic Fermi Contact Couplings
        Atom                 a.u.       MegaHertz       Gauss      10(-4) cm-1
     1  Na(23)             0.14215     168.17195      60.00793      56.09613
     2  Na(23)            -0.02499     -29.56808     -10.55063      -9.86285
     3  Na(23)             0.01592      18.83514       6.72085       6.28273
     4  Na(23)             0.34478     407.88347     145.54296     136.05528
     5  Na(23)             0.04401      52.06843      18.57931      17.36816
     6  Na(23)            -0.01104     -13.06623      -4.66236      -4.35843
     7  Na(23)             0.04344      51.38595      18.33578      17.14051
 --------------------------------------------------------
       Center         ----  Spin Dipole Couplings  ----
                      3XX-RR        3YY-RR        3ZZ-RR
 --------------------------------------------------------
     1   Atom        0.015221     -0.012804     -0.002418
     2   Atom       -0.007086     -0.025682      0.032768
     3   Atom       -0.023519     -0.030919      0.054439
     4   Atom       -0.001444      0.010315     -0.008872
     5   Atom       -0.033340     -0.011523      0.044863
     6   Atom       -0.001319     -0.011754      0.013072
     7   Atom       -0.003684      0.002473      0.001211
 --------------------------------------------------------
                        XY            XZ            YZ
 --------------------------------------------------------
     1   Atom        0.005510      0.025817      0.009291
     2   Atom        0.003589     -0.039175     -0.005749
     3   Atom       -0.001776     -0.030628     -0.003163
     4   Atom       -0.000591     -0.002495      0.005398
     5   Atom        0.010779     -0.016848     -0.035654
     6   Atom        0.000743      0.016864      0.006262
     7   Atom       -0.000858     -0.000732     -0.005305
 --------------------------------------------------------


 ---------------------------------------------------------------------------------
              Anisotropic Spin Dipole Couplings in Principal Axis System
 ---------------------------------------------------------------------------------

       Atom             a.u.   MegaHertz   Gauss  10(-4) cm-1        Axes

              Baa    -0.0231    -3.261    -1.164    -1.088 -0.4530 -0.4515  0.7687
     1 Na(23) Bbb    -0.0126    -1.782    -0.636    -0.595 -0.4174  0.8693  0.2646
              Bcc     0.0357     5.043     1.799     1.682  0.7877  0.2010  0.5823
 
              Baa    -0.0311    -4.393    -1.568    -1.465  0.8529 -0.0110  0.5220
     2 Na(23) Bbb    -0.0262    -3.705    -1.322    -1.236 -0.0331  0.9966  0.0751
              Bcc     0.0573     8.098     2.890     2.701 -0.5211 -0.0814  0.8496
 
              Baa    -0.0357    -5.038    -1.798    -1.681  0.8146  0.4997  0.2944
     3 Na(23) Bbb    -0.0294    -4.154    -1.482    -1.386 -0.4796  0.8658 -0.1425
              Bcc     0.0651     9.192     3.280     3.066 -0.3261 -0.0251  0.9450
 
              Baa    -0.0108    -1.530    -0.546    -0.510  0.2358 -0.2341  0.9432
     4 Na(23) Bbb    -0.0010    -0.142    -0.051    -0.047  0.9674  0.1483 -0.2051
              Bcc     0.0118     1.672     0.597     0.558 -0.0919  0.9608  0.2615
 
              Baa    -0.0379    -5.351    -1.910    -1.785  0.9506 -0.3039  0.0626
     5 Na(23) Bbb    -0.0282    -3.982    -1.421    -1.328  0.2406  0.8493  0.4699
              Bcc     0.0661     9.333     3.330     3.113 -0.1960 -0.4317  0.8805
 
              Baa    -0.0153    -2.166    -0.773    -0.723  0.5262  0.7095 -0.4687
     6 Na(23) Bbb    -0.0097    -1.375    -0.491    -0.459 -0.6609  0.6881  0.2997
              Bcc     0.0251     3.541     1.264     1.181  0.5351  0.1521  0.8310
 
              Baa    -0.0047    -0.666    -0.238    -0.222  0.7359  0.4568  0.4998
     7 Na(23) Bbb    -0.0025    -0.349    -0.125    -0.116  0.6769 -0.4806 -0.5575
              Bcc     0.0072     1.015     0.362     0.339 -0.0144  0.7486 -0.6629
 

 ---------------------------------------------------------------------------------

 No NMR shielding tensors so no spin-rotation constants.
 Leave Link  601 at Mon Nov 13 12:07:59 2023, MaxMem=  1879048192 cpu:               2.6 elap:               0.2
 (Enter /home/sekinelabo/g16/l701.exe)
 ... and contract with generalized density number  0.
 Compute integral first derivatives.
 Leave Link  701 at Mon Nov 13 12:07:59 2023, MaxMem=  1879048192 cpu:               1.7 elap:               0.1
 (Enter /home/sekinelabo/g16/l702.exe)
 L702 exits ... SP integral derivatives will be done elsewhere.
 Leave Link  702 at Mon Nov 13 12:07:59 2023, MaxMem=  1879048192 cpu:               0.5 elap:               0.0
 (Enter /home/sekinelabo/g16/l703.exe)
 Integral derivatives from FoFJK, PRISM(SPDF).
 Compute integral first derivatives, UseDBF=F ICtDFT=           0.
 Calling FoFJK, ICntrl=      2127 FMM=F ISym2X=0 I1Cent= 0 IOpClX= 1 NMat=1 NMatS=1 NMatT=0.
 FoFJK:  IHMeth= 1 ICntrl=    2127 DoSepK=F KAlg= 0 I1Cent=           0 FoldK=F
 IRaf=         0 NMat=       1 IRICut=       1 DoRegI=T DoRafI=F ISym2E= 0 IDoP0=0 IntGTp=1.
 FoFCou: FMM=F IPFlag=           0 FMFlag=      100000 FMFlg1=         800
         NFxFlg=           0 DoJE=F BraDBF=F KetDBF=F FulRan=T
         wScrn=  0.000000 ICntrl=      2127 IOpCl=  1 I1Cent=           0 NGrid=           0
         NMat0=    1 NMatS0=      1 NMatT0=    0 NMatD0=    1 NMtDS0=    0 NMtDT0=    0
 Symmetry not used in FoFCou.
 Leave Link  703 at Mon Nov 13 12:08:01 2023, MaxMem=  1879048192 cpu:              35.5 elap:               2.3
 (Enter /home/sekinelabo/g16/l716.exe)
 Dipole        = 5.23024291D-02 3.44873209D-02-1.24550249D-02
 ***** Axes restored to original set *****
 -------------------------------------------------------------------
 Center     Atomic                   Forces (Hartrees/Bohr)
 Number     Number              X              Y              Z
 -------------------------------------------------------------------
      1       11          -0.001756177    0.007456933   -0.010414532
      2       11          -0.006694842    0.000674884   -0.008193999
      3       11           0.001077421    0.014952554    0.001138791
      4       11          -0.000624399   -0.004122389    0.014846382
      5       11          -0.001106257   -0.014906037   -0.005121099
      6       11           0.003673563   -0.011886668    0.004029515
      7       11           0.005430691    0.007830722    0.003714942
 -------------------------------------------------------------------
 Cartesian Forces:  Max     0.014952554 RMS     0.007772613
 Z-matrix is all fixed cartesians, so copy forces.
 Force constants in Cartesian coordinates: 
                1             2             3             4             5 
      1  0.122028D+00
      2 -0.346800D-02  0.121567D+00
      3  0.223787D-02 -0.199686D-01  0.102085D+00
      4 -0.776726D-02 -0.198823D-02 -0.333944D-02  0.844187D-01
      5 -0.361195D-02  0.570399D-02  0.366358D-03  0.170792D-02  0.654656D-01
      6  0.401658D-02  0.178152D-02  0.362774D-02  0.323004D-01  0.652199D-02
      7 -0.288762D-01  0.173042D-01  0.569496D-02 -0.261930D-01 -0.263318D-01
      8 -0.936855D-02 -0.337810D-01  0.487436D-02  0.376408D-02 -0.311570D-01
      9  0.124354D-01 -0.145914D-01 -0.318631D-01 -0.986390D-02 -0.224089D-01
     10 -0.189275D-02 -0.328435D-02  0.816615D-02 -0.117063D-01  0.495326D-02
     11 -0.205379D-02  0.606661D-02  0.346602D-02 -0.194999D-03 -0.706577D-02
     12  0.167546D-02  0.210936D-02 -0.207402D-02 -0.270001D-02  0.634573D-02
     13 -0.305705D-01 -0.637161D-02 -0.549235D-02 -0.386808D-01  0.235572D-01
     14 -0.253581D-02 -0.467374D-01 -0.531979D-02 -0.774548D-02 -0.402385D-01
     15  0.849836D-02  0.169527D-01 -0.233154D-01 -0.161616D-01  0.869759D-02
     16 -0.211785D-01  0.825441D-02  0.107946D-02 -0.608431D-04 -0.270018D-03
     17  0.131326D-01 -0.347687D-01  0.108208D-01  0.446485D-02  0.724578D-02
     18 -0.708999D-02  0.207284D-01 -0.230009D-01 -0.276545D-03  0.468048D-03
     19 -0.317425D-01 -0.104464D-01 -0.834665D-02 -0.105669D-04 -0.465928D-05
     20  0.790552D-02 -0.180500D-01  0.576080D-02 -0.813912D-05  0.459442D-04
     21 -0.217736D-01 -0.701201D-02 -0.254589D-01  0.410565D-04  0.915207D-05
                6             7             8             9            10 
      6  0.694460D-01
      7 -0.930808D-02  0.724383D-01
      8 -0.198295D-02  0.245849D-02  0.124269D+00
      9 -0.149366D-01 -0.197125D-02  0.657151D-02  0.668971D-01
     10 -0.292638D-01 -0.116824D-01  0.475416D-03  0.881002D-02  0.468720D-01
     11  0.138264D-02 -0.498379D-02 -0.376598D-01  0.323275D-01 -0.125421D-02
     12 -0.428711D-01  0.391483D-02 -0.387615D-02 -0.247612D-01 -0.548513D-02
     13  0.321258D-02 -0.303469D-02  0.263050D-03 -0.255375D-02 -0.199315D-01
     14 -0.942357D-02  0.284124D-02 -0.238148D-01 -0.705206D-02 -0.425457D-02
     15 -0.187264D-01 -0.320799D-02 -0.332410D-02 -0.572354D-02  0.114884D-01
     16 -0.944544D-03 -0.488215D-03  0.357024D-02 -0.414981D-02 -0.162074D-02
     17  0.174414D-02  0.614197D-02  0.694250D-03  0.199135D-02  0.337546D-02
     18  0.351851D-02  0.154248D-02 -0.404472D-02  0.625298D-02  0.620933D-02
     19 -0.131533D-04 -0.216385D-02 -0.116272D-02 -0.270666D-02 -0.382823D-04
     20 -0.237839D-04  0.256966D-02  0.144969D-02  0.316202D-02 -0.110005D-04
     21 -0.581286D-04  0.333505D-02  0.178204D-02  0.413440D-02  0.750438D-04
               11            12            13            14            15 
     11  0.638076D-01
     12 -0.977851D-02  0.106072D+00
     13  0.873228D-02  0.343393D-02  0.132339D+00
     14 -0.260399D-01  0.386880D-02  0.967880D-03  0.175241D+00
     15 -0.282544D-01 -0.394370D-01  0.931835D-02  0.222950D-01  0.106202D+00
     16 -0.233801D-03 -0.815243D-03 -0.397122D-01  0.176805D-01 -0.801918D-02
     17  0.922735D-03  0.135792D-02 -0.221721D-01 -0.441574D-01 -0.121229D-01
     18  0.782786D-03  0.304736D-02 -0.984666D-02 -0.221478D-02 -0.240642D-01
     19 -0.116895D-04 -0.238557D-04 -0.409909D-03 -0.695376D-02 -0.191632D-02
     20 -0.314768D-04 -0.271458D-04 -0.497672D-02  0.574738D-02 -0.424391D-02
     21  0.739543D-04  0.242075D-04  0.192790D-02 -0.215361D-02  0.506501D-02
               16            17            18            19            20 
     16  0.813136D-01
     17 -0.869472D-02  0.111002D+00
     18  0.151224D-01 -0.954224D-02  0.387924D-01
     19 -0.182532D-01  0.375198D-02 -0.566104D-02  0.526184D-01
     20 -0.203066D-01 -0.409382D-01 -0.617751D-02  0.148273D-01  0.517767D-01
     21 -0.227311D-02  0.575095D-02 -0.454618D-02  0.186677D-01  0.154952D-02
               21 
     21  0.208396D-01
 Leave Link  716 at Mon Nov 13 12:08:01 2023, MaxMem=  1879048192 cpu:               0.7 elap:               0.0
 (Enter /home/sekinelabo/g16/l103.exe)

 GradGradGradGradGradGradGradGradGradGradGradGradGradGradGradGradGradGrad
 Berny optimization.
 Search for a local minimum.
 Step number   1 out of a maximum of    2
 All quantities printed in internal units (Hartrees-Bohrs-Radians)
 Second derivative matrix not updated -- first step.
 ITU=  0
     Eigenvalues ---    0.01391   0.03650   0.04650   0.05741   0.09129
     Eigenvalues ---    0.09962   0.11692   0.12491   0.13592   0.14519
     Eigenvalues ---    0.15500   0.16525   0.18100   0.19998   0.23296
 Quadratic step=3.182D-01 exceeds max=3.000D-01 adjusted using Lamda=-4.705D-03.
 Angle between NR and scaled steps=   1.92 degrees.
 Angle between quadratic step and forces=  23.16 degrees.
 Linear search not attempted -- first point.
 B after Tr=     0.000000    0.000000    0.000000
         Rot=    1.000000   -0.000000    0.000000   -0.000000 Ang=   0.00 deg.
 Variable       Old X    -DE/DX   Delta X   Delta X   Delta X     New X
                                 (Linear)    (Quad)   (Total)
    X1        7.76495  -0.00176   0.00000   0.02678   0.02678   7.79173
    Y1        4.65778   0.00746   0.00000   0.02758   0.02758   4.68536
    Z1        0.00000  -0.01041   0.00000  -0.08425  -0.08425  -0.08425
    X2        0.00000  -0.00669   0.00000  -0.09706  -0.09706  -0.09706
    Y2        3.09692   0.00067   0.00000   0.01215   0.01215   3.10907
    Z2        0.32261  -0.00819   0.00000  -0.03712  -0.03712   0.28549
    X3        3.30633   0.00108   0.00000  -0.01822  -0.01822   3.28812
    Y3        7.17880   0.01495   0.00000   0.10809   0.10809   7.28688
    Z3        2.46482   0.00114   0.00000  -0.00596  -0.00596   2.45886
    X4        2.19473  -0.00062   0.00000  -0.03713  -0.03713   2.15760
    Y4        2.51521  -0.00412   0.00000  -0.02644  -0.02644   2.48877
    Z4        5.49321   0.01485   0.00000   0.10704   0.10704   5.60025
    X5        4.70088  -0.00111   0.00000  -0.02983  -0.02983   4.67105
    Y5        0.00000  -0.01491   0.00000  -0.10104  -0.10104  -0.10104
    Z5        1.06839  -0.00512   0.00000  -0.03438  -0.03438   1.03402
    X6       10.20873   0.00367   0.00000   0.07387   0.07387  10.28260
    Y6        0.14591  -0.01189   0.00000  -0.10385  -0.10385   0.04207
    Z6        2.39357   0.00403   0.00000   0.00118   0.00118   2.39475
    X7       12.68104   0.00543   0.00000   0.08158   0.08158  12.76262
    Y7        5.22783   0.00783   0.00000   0.08350   0.08350   5.31133
    Z7        2.75764   0.00371   0.00000   0.05348   0.05348   2.81112
         Item               Value     Threshold  Converged?
 Maximum Force            0.014953     0.000450     NO 
 RMS     Force            0.007773     0.000300     NO 
 Maximum Displacement     0.108088     0.001800     NO 
 RMS     Displacement     0.065509     0.001200     NO 
 Predicted change in Energy=-5.127322D-03
 GradGradGradGradGradGradGradGradGradGradGradGradGradGradGradGradGradGrad

 Leave Link  103 at Mon Nov 13 12:08:01 2023, MaxMem=  1879048192 cpu:               1.3 elap:               0.1
 (Enter /home/sekinelabo/g16/l9999.exe)
 1\1\GINC-SEKINELABO-XA7R-R37\Force\UB3LYP\6-311+G(d)\Na7(2)\SEKINELABO
 \13-Nov-2023\0\\#P B3LYP/6-311+g(d) force\\Gaussian input prepared by 
 ASE\\0,2\Na,4.1090342334,2.4647887501,0.\Na,0.,1.6388189955,0.17071618
 24\Na,1.7496357699,3.7988553235,1.3043281158\Na,1.1614012817,1.3309920
 877,2.9068813646\Na,2.4875983322,0.,0.5653686889\Na,5.4022268508,0.077
 2143065,1.2666225824\Na,6.7105176497,2.7664470769,1.4592797136\\Versio
 n=ES64L-G16RevB.01\State=2-A\HF=-1136.0948646\S2=0.764044\S2-1=0.\S2A=
 0.750137\RMSD=5.221e-09\RMSF=7.773e-03\Dipole=0.0523024,0.0344873,-0.0
 12455\Quadrupole=12.5733025,-8.3241226,-4.2491799,0.7555227,4.5190097,
 0.4331295\PG=C01 [X(Na7)]\\@


 It takes a long time to grow an old friend.
                            -- John Leonard
 Job cpu time:       0 days  0 hours  5 minutes 34.7 seconds.
 Elapsed time:       0 days  0 hours  0 minutes 27.0 seconds.
 File lengths (MBytes):  RWF=     32 Int=      0 D2E=      0 Chk=      5 Scr=      1
 Normal termination of Gaussian 16 at Mon Nov 13 12:08:01 2023.
