 Entering Gaussian System, Link 0=g16
 Initial command:
 /home/sekinelabo/g16/l1.exe "/home/sekinelabo/g16temp/Gau-3988729.inp" -scrdir="/home/sekinelabo/g16temp/"
 Entering Link 1 = /home/sekinelabo/g16/l1.exe PID=   3988731.
  
 Copyright (c) 1988-2017, Gaussian, Inc.  All Rights Reserved.
  
 This is part of the Gaussian(R) 16 program.  It is based on
 the Gaussian(R) 09 system (copyright 2009, Gaussian, Inc.),
 the Gaussian(R) 03 system (copyright 2003, Gaussian, Inc.),
 the Gaussian(R) 98 system (copyright 1998, Gaussian, Inc.),
 the Gaussian(R) 94 system (copyright 1995, Gaussian, Inc.),
 the Gaussian 92(TM) system (copyright 1992, Gaussian, Inc.),
 the Gaussian 90(TM) system (copyright 1990, Gaussian, Inc.),
 the Gaussian 88(TM) system (copyright 1988, Gaussian, Inc.),
 the Gaussian 86(TM) system (copyright 1986, Carnegie Mellon
 University), and the Gaussian 82(TM) system (copyright 1983,
 Carnegie Mellon University). Gaussian is a federally registered
 trademark of Gaussian, Inc.
  
 This software contains proprietary and confidential information,
 including trade secrets, belonging to Gaussian, Inc.
  
 This software is provided under written license and may be
 used, copied, transmitted, or stored only in accord with that
 written license.
  
 The following legend is applicable only to US Government
 contracts under FAR:
  
                    RESTRICTED RIGHTS LEGEND
  
 Use, reproduction and disclosure by the US Government is
 subject to restrictions as set forth in subparagraphs (a)
 and (c) of the Commercial Computer Software - Restricted
 Rights clause in FAR 52.227-19.
  
 Gaussian, Inc.
 340 Quinnipiac St., Bldg. 40, Wallingford CT 06492
  
  
 ---------------------------------------------------------------
 Warning -- This program may not be used in any manner that
 competes with the business of Gaussian, Inc. or will provide
 assistance to any competitor of Gaussian, Inc.  The licensee
 of this program is prohibited from giving any competitor of
 Gaussian, Inc. access to this program.  By using this program,
 the user acknowledges that Gaussian, Inc. is engaged in the
 business of creating and licensing software in the field of
 computational chemistry and represents and warrants to the
 licensee that it is not a competitor of Gaussian, Inc. and that
 it will not use this program in any manner prohibited above.
 ---------------------------------------------------------------
  

 Cite this work as:
 Gaussian 16, Revision B.01,
 M. J. Frisch, G. W. Trucks, H. B. Schlegel, G. E. Scuseria, 
 M. A. Robb, J. R. Cheeseman, G. Scalmani, V. Barone, 
 G. A. Petersson, H. Nakatsuji, X. Li, M. Caricato, A. V. Marenich, 
 J. Bloino, B. G. Janesko, R. Gomperts, B. Mennucci, H. P. Hratchian, 
 J. V. Ortiz, A. F. Izmaylov, J. L. Sonnenberg, D. Williams-Young, 
 F. Ding, F. Lipparini, F. Egidi, J. Goings, B. Peng, A. Petrone, 
 T. Henderson, D. Ranasinghe, V. G. Zakrzewski, J. Gao, N. Rega, 
 G. Zheng, W. Liang, M. Hada, M. Ehara, K. Toyota, R. Fukuda, 
 J. Hasegawa, M. Ishida, T. Nakajima, Y. Honda, O. Kitao, H. Nakai, 
 T. Vreven, K. Throssell, J. A. Montgomery, Jr., J. E. Peralta, 
 F. Ogliaro, M. J. Bearpark, J. J. Heyd, E. N. Brothers, K. N. Kudin, 
 V. N. Staroverov, T. A. Keith, R. Kobayashi, J. Normand, 
 K. Raghavachari, A. P. Rendell, J. C. Burant, S. S. Iyengar, 
 J. Tomasi, M. Cossi, J. M. Millam, M. Klene, C. Adamo, R. Cammi, 
 J. W. Ochterski, R. L. Martin, K. Morokuma, O. Farkas, 
 J. B. Foresman, and D. J. Fox, Gaussian, Inc., Wallingford CT, 2016.
 
 ******************************************
 Gaussian 16:  ES64L-G16RevB.01 20-Dec-2017
                13-Nov-2023 
 ******************************************
 %mem=14GB
 %chk=checkpoint.chk
 %nprocshared=16
 Will use up to   16 processors via shared memory.
 -------------------------
 #P B3LYP/6-311+g(d) force
 -------------------------
 1/10=7,30=1,38=1/1,3;
 2/12=2,17=6,18=5,40=1/2;
 3/5=4,6=6,7=11,11=2,25=1,30=1,71=1,74=-5/1,2,3;
 4//1;
 5/5=2,38=5/2;
 6/7=2,8=2,9=2,10=2,28=1/1;
 7/29=1/1,2,3,16;
 1/10=7,30=1/3;
 99//99;
 Leave Link    1 at Mon Nov 13 12:30:11 2023, MaxMem=  1879048192 cpu:               0.3 elap:               0.0
 (Enter /home/sekinelabo/g16/l101.exe)
 ------------------------------
 Gaussian input prepared by ASE
 ------------------------------
 Symbolic Z-matrix:
 Charge =  0 Multiplicity = 2
 Na                    2.68931   0.32565   1.68488 
 Na                    4.53033   1.99499   0. 
 Na                    0.        1.61387   2.00294 
 Na                    2.46222   3.30276   1.74973 
 Na                    4.19762   1.89059   3.76324 
 Na                    5.64936   0.        1.94014 
 Na                    6.50389   2.85979   2.0956 
 
 ITRead=  0  0  0  0  0  0  0
 MicOpt= -1 -1 -1 -1 -1 -1 -1
 NAtoms=      7 NQM=        7 NQMF=       0 NMMI=      0 NMMIF=      0
                NMic=       0 NMicF=      0.
                    Isotopes and Nuclear Properties:
 (Nuclear quadrupole moments (NQMom) in fm**2, nuclear magnetic moments (NMagM)
  in nuclear magnetons)

  Atom         1           2           3           4           5           6           7
 IAtWgt=          23          23          23          23          23          23          23
 AtmWgt=  22.9897697  22.9897697  22.9897697  22.9897697  22.9897697  22.9897697  22.9897697
 NucSpn=           3           3           3           3           3           3           3
 AtZEff=  -0.0000000  -0.0000000  -0.0000000  -0.0000000  -0.0000000  -0.0000000  -0.0000000
 NQMom=   10.4000000  10.4000000  10.4000000  10.4000000  10.4000000  10.4000000  10.4000000
 NMagM=    2.2175200   2.2175200   2.2175200   2.2175200   2.2175200   2.2175200   2.2175200
 AtZNuc=  11.0000000  11.0000000  11.0000000  11.0000000  11.0000000  11.0000000  11.0000000
 Leave Link  101 at Mon Nov 13 12:30:11 2023, MaxMem=  1879048192 cpu:               2.6 elap:               0.2
 (Enter /home/sekinelabo/g16/l103.exe)

 GradGradGradGradGradGradGradGradGradGradGradGradGradGradGradGradGradGrad
 Berny optimization.
 Initialization pass.
 Trust Radius=3.00D-01 FncErr=1.00D-07 GrdErr=1.00D-07 EigMax=2.50D+02 EigMin=1.00D-04
 Number of steps in this run=      2 maximum allowed number of steps=      2.
 GradGradGradGradGradGradGradGradGradGradGradGradGradGradGradGradGradGrad

 Leave Link  103 at Mon Nov 13 12:30:11 2023, MaxMem=  1879048192 cpu:               0.2 elap:               0.0
 (Enter /home/sekinelabo/g16/l202.exe)
                          Input orientation:                          
 ---------------------------------------------------------------------
 Center     Atomic      Atomic             Coordinates (Angstroms)
 Number     Number       Type             X           Y           Z
 ---------------------------------------------------------------------
      1         11           0        2.689312    0.325651    1.684879
      2         11           0        4.530334    1.994989    0.000000
      3         11           0        0.000000    1.613869    2.002939
      4         11           0        2.462219    3.302758    1.749726
      5         11           0        4.197621    1.890593    3.763243
      6         11           0        5.649363    0.000000    1.940135
      7         11           0        6.503895    2.859794    2.095604
 ---------------------------------------------------------------------
                    Distance matrix (angstroms):
                    1          2          3          4          5
     1  Na   0.000000
     2  Na   3.002477   0.000000
     3  Na   2.998844   4.967992   0.000000
     4  Na   2.986460   3.008140   2.996495   0.000000
     5  Na   3.007263   3.779364   4.560183   3.009996   0.000000
     6  Na   2.988830   2.999388   5.875698   4.593730   3.000936
     7  Na   4.598001   3.005725   6.622806   4.080563   3.006538
                    6          7
     6  Na   0.000000
     7  Na   2.988782   0.000000
 Stoichiometry    Na7(2)
 Framework group  C1[X(Na7)]
 Deg. of freedom    15
 Full point group                 C1      NOp   1
 Largest Abelian subgroup         C1      NOp   1
 Largest concise Abelian subgroup C1      NOp   1
                         Standard orientation:                         
 ---------------------------------------------------------------------
 Center     Atomic      Atomic             Coordinates (Angstroms)
 Number     Number       Type             X           Y           Z
 ---------------------------------------------------------------------
      1         11           0       -1.029651    1.386871    0.206053
      2         11           0        0.811371   -0.282467    1.890932
      3         11           0       -3.718963    0.098653   -0.112006
      4         11           0       -1.256745   -1.590236    0.141206
      5         11           0        0.478657   -0.178071   -1.872310
      6         11           0        1.930400    1.712522   -0.049203
      7         11           0        2.784931   -1.147272   -0.204672
 ---------------------------------------------------------------------
 Rotational constants (GHZ):           1.3719617           0.6099478           0.5836789
 Leave Link  202 at Mon Nov 13 12:30:11 2023, MaxMem=  1879048192 cpu:               0.1 elap:               0.0
 (Enter /home/sekinelabo/g16/l301.exe)
 Standard basis: 6-311+G(d) (5D, 7F)
 Ernie: Thresh=  0.10000D-02 Tol=  0.10000D-05 Strict=F.
 There are   217 symmetry adapted cartesian basis functions of A   symmetry.
 There are   210 symmetry adapted basis functions of A   symmetry.
   210 basis functions,   350 primitive gaussians,   217 cartesian basis functions
    39 alpha electrons       38 beta electrons
       nuclear repulsion energy       385.4614617859 Hartrees.
 IExCor=  402 DFT=T Ex+Corr=B3LYP ExCW=0 ScaHFX=  0.200000
 ScaDFX=  0.800000  0.720000  1.000000  0.810000 ScalE2=  1.000000  1.000000
 IRadAn=      5 IRanWt=     -1 IRanGd=            0 ICorTp=0 IEmpDi=  4
 NAtoms=    7 NActive=    7 NUniq=    7 SFac= 1.00D+00 NAtFMM=   60 NAOKFM=F Big=F
 Integral buffers will be    131072 words long.
 Raffenetti 2 integral format.
 Two-electron integral symmetry is turned on.
 Leave Link  301 at Mon Nov 13 12:30:11 2023, MaxMem=  1879048192 cpu:               0.5 elap:               0.0
 (Enter /home/sekinelabo/g16/l302.exe)
 NPDir=0 NMtPBC=     1 NCelOv=     1 NCel=       1 NClECP=     1 NCelD=      1
         NCelK=      1 NCelE2=     1 NClLst=     1 CellRange=     0.0.
 One-electron integrals computed using PRISM.
 One-electron integral symmetry used in STVInt
 NBasis=   210 RedAO= T EigKep=  3.72D-06  NBF=   210
 NBsUse=   209 1.00D-06 EigRej=  7.37D-07 NBFU=   209
 Precomputing XC quadrature grid using
 IXCGrd= 4 IRadAn=           5 IRanWt=          -1 IRanGd=           0 AccXCQ= 0.00D+00.
 Generated NRdTot=       0 NPtTot=           0 NUsed=           0 NTot=          32
 NSgBfM=   210   210   210   210   210 MxSgAt=     7 MxSgA2=     7.
 Leave Link  302 at Mon Nov 13 12:30:11 2023, MaxMem=  1879048192 cpu:               2.1 elap:               0.1
 (Enter /home/sekinelabo/g16/l303.exe)
 DipDrv:  MaxL=1.
 Leave Link  303 at Mon Nov 13 12:30:11 2023, MaxMem=  1879048192 cpu:               0.6 elap:               0.0
 (Enter /home/sekinelabo/g16/l401.exe)
 ExpMin= 7.60D-03 ExpMax= 3.62D+04 ExpMxC= 1.21D+03 IAcc=3 IRadAn=         5 AccDes= 0.00D+00
 Harris functional with IExCor=  402 and IRadAn=       5 diagonalized for initial guess.
 HarFok:  IExCor=  402 AccDes= 0.00D+00 IRadAn=         5 IDoV= 1 UseB2=F ITyADJ=14
 ICtDFT=  3500011 ScaDFX=  1.000000  1.000000  1.000000  1.000000
 FoFCou: FMM=F IPFlag=           0 FMFlag=      100000 FMFlg1=           0
         NFxFlg=           0 DoJE=T BraDBF=F KetDBF=T FulRan=T
         wScrn=  0.000000 ICntrl=       500 IOpCl=  0 I1Cent=   200000004 NGrid=           0
         NMat0=    1 NMatS0=      1 NMatT0=    0 NMatD0=    1 NMtDS0=    0 NMtDT0=    0
 Petite list used in FoFCou.
 Harris En= -1135.86646285955    
 JPrj=0 DoOrth=F DoCkMO=F.
 Initial guess <Sx>= 0.0000 <Sy>= 0.0000 <Sz>= 0.5000 <S**2>= 0.7500 S= 0.5000
 Leave Link  401 at Mon Nov 13 12:30:12 2023, MaxMem=  1879048192 cpu:               4.8 elap:               0.3
 (Enter /home/sekinelabo/g16/l502.exe)
 Keep R1 and R2 ints in memory in canonical form, NReq=507620374.
 FoFCou: FMM=F IPFlag=           0 FMFlag=           0 FMFlg1=           0
         NFxFlg=           0 DoJE=F BraDBF=F KetDBF=F FulRan=T
         wScrn=  0.000000 ICntrl=       600 IOpCl=  0 I1Cent=           0 NGrid=           0
         NMat0=    1 NMatS0=  22155 NMatT0=    0 NMatD0=    1 NMtDS0=    0 NMtDT0=    0
 Symmetry not used in FoFCou.
 Two-electron integral symmetry not used.
 UHF open shell SCF:
 Using DIIS extrapolation, IDIIS=  1040.
 NGot=  1879048192 LenX=  1388082362 LenY=  1388034832
 Requested convergence on RMS density matrix=1.00D-08 within 128 cycles.
 Requested convergence on MAX density matrix=1.00D-06.
 Requested convergence on             energy=1.00D-06.
 No special actions if energy rises.

 Cycle   1  Pass 1  IDiag  1:
 E= -1136.04379948502    
 DIIS: error= 1.47D-02 at cycle   1 NSaved=   1.
 NSaved= 1 IEnMin= 1 EnMin= -1136.04379948502     IErMin= 1 ErrMin= 1.47D-02
 ErrMax= 1.47D-02  0.00D+00 EMaxC= 1.00D-01 BMatC= 2.09D-01 BMatP= 2.09D-01
 IDIUse=3 WtCom= 8.53D-01 WtEn= 1.47D-01
 Coeff-Com:  0.100D+01
 Coeff-En:   0.100D+01
 Coeff:      0.100D+01
 Gap=     0.030 Goal=   None    Shift=    0.000
 Gap=     0.028 Goal=   None    Shift=    0.000
 GapD=    0.028 DampG=0.250 DampE=0.500 DampFc=0.2500 IDamp=-1.
 Damping current iteration by 2.50D-01
 RMSDP=5.62D-02 MaxDP=6.13D+00              OVMax= 3.12D-01

 Cycle   2  Pass 1  IDiag  1:
 E= -1136.06065821444     Delta-E=       -0.016858729425 Rises=F Damp=T
 DIIS: error= 8.75D-03 at cycle   2 NSaved=   2.
 NSaved= 2 IEnMin= 2 EnMin= -1136.06065821444     IErMin= 2 ErrMin= 8.75D-03
 ErrMax= 8.75D-03  0.00D+00 EMaxC= 1.00D-01 BMatC= 7.74D-02 BMatP= 2.09D-01
 IDIUse=3 WtCom= 9.12D-01 WtEn= 8.75D-02
 Coeff-Com: -0.120D+01 0.220D+01
 Coeff-En:   0.000D+00 0.100D+01
 Coeff:     -0.109D+01 0.209D+01
 Gap=     0.043 Goal=   None    Shift=    0.000
 Gap=     0.041 Goal=   None    Shift=    0.000
 RMSDP=2.69D-02 MaxDP=3.16D+00 DE=-1.69D-02 OVMax= 2.52D-01

 Cycle   3  Pass 1  IDiag  1:
 E= -1136.08352030693     Delta-E=       -0.022862092487 Rises=F Damp=F
 DIIS: error= 5.32D-03 at cycle   3 NSaved=   3.
 NSaved= 3 IEnMin= 3 EnMin= -1136.08352030693     IErMin= 3 ErrMin= 5.32D-03
 ErrMax= 5.32D-03  0.00D+00 EMaxC= 1.00D-01 BMatC= 9.63D-03 BMatP= 7.74D-02
 IDIUse=3 WtCom= 9.47D-01 WtEn= 5.32D-02
 Coeff-Com: -0.438D+00 0.785D+00 0.653D+00
 Coeff-En:   0.000D+00 0.000D+00 0.100D+01
 Coeff:     -0.415D+00 0.743D+00 0.671D+00
 Gap=     0.034 Goal=   None    Shift=    0.000
 Gap=     0.030 Goal=   None    Shift=    0.000
 RMSDP=1.07D-02 MaxDP=1.08D+00 DE=-2.29D-02 OVMax= 1.57D-01

 Cycle   4  Pass 1  IDiag  1:
 E= -1136.08296463409     Delta-E=        0.000555672839 Rises=F Damp=F
 DIIS: error= 6.11D-03 at cycle   4 NSaved=   4.
 NSaved= 4 IEnMin= 3 EnMin= -1136.08352030693     IErMin= 3 ErrMin= 5.32D-03
 ErrMax= 6.11D-03  0.00D+00 EMaxC= 1.00D-01 BMatC= 8.17D-03 BMatP= 9.63D-03
 IDIUse=3 WtCom= 9.39D-01 WtEn= 6.11D-02
 Coeff-Com: -0.517D-01 0.914D-01 0.469D+00 0.492D+00
 Coeff-En:   0.000D+00 0.000D+00 0.513D+00 0.487D+00
 Coeff:     -0.486D-01 0.858D-01 0.472D+00 0.491D+00
 Gap=     0.038 Goal=   None    Shift=    0.000
 Gap=     0.030 Goal=   None    Shift=    0.000
 RMSDP=3.29D-03 MaxDP=1.51D-01 DE= 5.56D-04 OVMax= 1.11D-01

 Cycle   5  Pass 1  IDiag  1:
 E= -1136.08987151446     Delta-E=       -0.006906880371 Rises=F Damp=F
 DIIS: error= 2.56D-03 at cycle   5 NSaved=   5.
 NSaved= 5 IEnMin= 5 EnMin= -1136.08987151446     IErMin= 5 ErrMin= 2.56D-03
 ErrMax= 2.56D-03  0.00D+00 EMaxC= 1.00D-01 BMatC= 1.49D-03 BMatP= 8.17D-03
 IDIUse=3 WtCom= 9.74D-01 WtEn= 2.56D-02
 Coeff-Com: -0.363D-02 0.444D-02 0.278D+00 0.349D+00 0.372D+00
 Coeff-En:   0.000D+00 0.000D+00 0.000D+00 0.184D+00 0.816D+00
 Coeff:     -0.354D-02 0.432D-02 0.271D+00 0.345D+00 0.383D+00
 Gap=     0.038 Goal=   None    Shift=    0.000
 Gap=     0.030 Goal=   None    Shift=    0.000
 RMSDP=1.98D-03 MaxDP=1.54D-01 DE=-6.91D-03 OVMax= 3.57D-02

 Cycle   6  Pass 1  IDiag  1:
 E= -1136.09141675846     Delta-E=       -0.001545244001 Rises=F Damp=F
 DIIS: error= 1.95D-04 at cycle   6 NSaved=   6.
 NSaved= 6 IEnMin= 6 EnMin= -1136.09141675846     IErMin= 6 ErrMin= 1.95D-04
 ErrMax= 1.95D-04  0.00D+00 EMaxC= 1.00D-01 BMatC= 8.44D-06 BMatP= 1.49D-03
 IDIUse=3 WtCom= 9.98D-01 WtEn= 1.95D-03
 Coeff-Com: -0.120D-02 0.116D-02-0.221D-01-0.319D-01 0.336D-01 0.102D+01
 Coeff-En:   0.000D+00 0.000D+00 0.000D+00 0.000D+00 0.000D+00 0.100D+01
 Coeff:     -0.120D-02 0.116D-02-0.221D-01-0.319D-01 0.335D-01 0.102D+01
 Gap=     0.038 Goal=   None    Shift=    0.000
 Gap=     0.030 Goal=   None    Shift=    0.000
 RMSDP=4.29D-04 MaxDP=3.14D-02 DE=-1.55D-03 OVMax= 5.35D-03

 Cycle   7  Pass 1  IDiag  1:
 E= -1136.09143057771     Delta-E=       -0.000013819253 Rises=F Damp=F
 DIIS: error= 4.95D-05 at cycle   7 NSaved=   7.
 NSaved= 7 IEnMin= 7 EnMin= -1136.09143057771     IErMin= 7 ErrMin= 4.95D-05
 ErrMax= 4.95D-05  0.00D+00 EMaxC= 1.00D-01 BMatC= 9.23D-07 BMatP= 8.44D-06
 IDIUse=1 WtCom= 1.00D+00 WtEn= 0.00D+00
 Coeff-Com: -0.869D-04-0.565D-04-0.141D-01-0.195D-01 0.248D-02 0.352D+00
 Coeff-Com:  0.679D+00
 Coeff:     -0.869D-04-0.565D-04-0.141D-01-0.195D-01 0.248D-02 0.352D+00
 Coeff:      0.679D+00
 Gap=     0.038 Goal=   None    Shift=    0.000
 Gap=     0.030 Goal=   None    Shift=    0.000
 RMSDP=9.71D-05 MaxDP=7.03D-03 DE=-1.38D-05 OVMax= 2.08D-03

 Cycle   8  Pass 1  IDiag  1:
 E= -1136.09143236761     Delta-E=       -0.000001789898 Rises=F Damp=F
 DIIS: error= 3.78D-05 at cycle   8 NSaved=   8.
 NSaved= 8 IEnMin= 8 EnMin= -1136.09143236761     IErMin= 8 ErrMin= 3.78D-05
 ErrMax= 3.78D-05  0.00D+00 EMaxC= 1.00D-01 BMatC= 4.81D-07 BMatP= 9.23D-07
 IDIUse=1 WtCom= 1.00D+00 WtEn= 0.00D+00
 Coeff-Com:  0.415D-03-0.511D-03-0.113D-02 0.527D-04-0.119D-01-0.168D+00
 Coeff-Com:  0.396D+00 0.785D+00
 Coeff:      0.415D-03-0.511D-03-0.113D-02 0.527D-04-0.119D-01-0.168D+00
 Coeff:      0.396D+00 0.785D+00
 Gap=     0.038 Goal=   None    Shift=    0.000
 Gap=     0.030 Goal=   None    Shift=    0.000
 RMSDP=1.02D-04 MaxDP=7.05D-03 DE=-1.79D-06 OVMax= 1.93D-03

 Cycle   9  Pass 1  IDiag  1:
 E= -1136.09143393310     Delta-E=       -0.000001565483 Rises=F Damp=F
 DIIS: error= 2.07D-05 at cycle   9 NSaved=   9.
 NSaved= 9 IEnMin= 9 EnMin= -1136.09143393310     IErMin= 9 ErrMin= 2.07D-05
 ErrMax= 2.07D-05  0.00D+00 EMaxC= 1.00D-01 BMatC= 9.79D-08 BMatP= 4.81D-07
 IDIUse=1 WtCom= 1.00D+00 WtEn= 0.00D+00
 Coeff-Com:  0.306D-04-0.128D-04 0.115D-02 0.324D-02-0.459D-02-0.106D+00
 Coeff-Com: -0.409D-01 0.198D+00 0.949D+00
 Coeff:      0.306D-04-0.128D-04 0.115D-02 0.324D-02-0.459D-02-0.106D+00
 Coeff:     -0.409D-01 0.198D+00 0.949D+00
 Gap=     0.038 Goal=   None    Shift=    0.000
 Gap=     0.030 Goal=   None    Shift=    0.000
 RMSDP=6.83D-05 MaxDP=4.74D-03 DE=-1.57D-06 OVMax= 1.55D-03

 Cycle  10  Pass 1  IDiag  1:
 E= -1136.09143461791     Delta-E=       -0.000000684817 Rises=F Damp=F
 DIIS: error= 1.09D-05 at cycle  10 NSaved=  10.
 NSaved=10 IEnMin=10 EnMin= -1136.09143461791     IErMin=10 ErrMin= 1.09D-05
 ErrMax= 1.09D-05  0.00D+00 EMaxC= 1.00D-01 BMatC= 3.53D-08 BMatP= 9.79D-08
 IDIUse=1 WtCom= 1.00D+00 WtEn= 0.00D+00
 Coeff-Com: -0.164D-03 0.229D-03 0.153D-02 0.144D-02 0.357D-02 0.213D-01
 Coeff-Com: -0.177D+00-0.279D+00 0.268D+00 0.116D+01
 Coeff:     -0.164D-03 0.229D-03 0.153D-02 0.144D-02 0.357D-02 0.213D-01
 Coeff:     -0.177D+00-0.279D+00 0.268D+00 0.116D+01
 Gap=     0.038 Goal=   None    Shift=    0.000
 Gap=     0.030 Goal=   None    Shift=    0.000
 RMSDP=6.77D-05 MaxDP=5.11D-03 DE=-6.85D-07 OVMax= 2.02D-03

 Cycle  11  Pass 1  IDiag  1:
 E= -1136.09143509464     Delta-E=       -0.000000476730 Rises=F Damp=F
 DIIS: error= 8.59D-06 at cycle  11 NSaved=  11.
 NSaved=11 IEnMin=11 EnMin= -1136.09143509464     IErMin=11 ErrMin= 8.59D-06
 ErrMax= 8.59D-06  0.00D+00 EMaxC= 1.00D-01 BMatC= 1.27D-08 BMatP= 3.53D-08
 IDIUse=1 WtCom= 1.00D+00 WtEn= 0.00D+00
 Coeff-Com:  0.166D-04-0.299D-04 0.438D-04-0.518D-03 0.139D-02 0.182D-01
 Coeff-Com:  0.926D-02 0.104D-01-0.180D+00-0.141D+00 0.128D+01
 Coeff:      0.166D-04-0.299D-04 0.438D-04-0.518D-03 0.139D-02 0.182D-01
 Coeff:      0.926D-02 0.104D-01-0.180D+00-0.141D+00 0.128D+01
 Gap=     0.038 Goal=   None    Shift=    0.000
 Gap=     0.030 Goal=   None    Shift=    0.000
 RMSDP=3.04D-05 MaxDP=1.74D-03 DE=-4.77D-07 OVMax= 1.71D-03

 Cycle  12  Pass 1  IDiag  1:
 E= -1136.09143532458     Delta-E=       -0.000000229941 Rises=F Damp=F
 DIIS: error= 7.65D-06 at cycle  12 NSaved=  12.
 NSaved=12 IEnMin=12 EnMin= -1136.09143532458     IErMin=12 ErrMin= 7.65D-06
 ErrMax= 7.65D-06  0.00D+00 EMaxC= 1.00D-01 BMatC= 8.60D-09 BMatP= 1.27D-08
 IDIUse=1 WtCom= 1.00D+00 WtEn= 0.00D+00
 Coeff-Com:  0.161D-04-0.249D-04-0.490D-03-0.424D-03-0.790D-03-0.367D-03
 Coeff-Com:  0.265D-01 0.614D-01-0.441D-01-0.241D+00-0.163D+00 0.136D+01
 Coeff:      0.161D-04-0.249D-04-0.490D-03-0.424D-03-0.790D-03-0.367D-03
 Coeff:      0.265D-01 0.614D-01-0.441D-01-0.241D+00-0.163D+00 0.136D+01
 Gap=     0.038 Goal=   None    Shift=    0.000
 Gap=     0.030 Goal=   None    Shift=    0.000
 RMSDP=2.91D-05 MaxDP=1.34D-03 DE=-2.30D-07 OVMax= 1.73D-03

 Cycle  13  Pass 1  IDiag  1:
 E= -1136.09143552055     Delta-E=       -0.000000195965 Rises=F Damp=F
 DIIS: error= 6.65D-06 at cycle  13 NSaved=  13.
 NSaved=13 IEnMin=13 EnMin= -1136.09143552055     IErMin=13 ErrMin= 6.65D-06
 ErrMax= 6.65D-06  0.00D+00 EMaxC= 1.00D-01 BMatC= 7.92D-09 BMatP= 8.60D-09
 IDIUse=1 WtCom= 1.00D+00 WtEn= 0.00D+00
 Coeff-Com:  0.437D-05-0.292D-05-0.458D-03 0.730D-04-0.180D-02-0.152D-01
 Coeff-Com:  0.428D-02 0.355D-01 0.127D+00-0.135D-01-0.127D+01 0.113D+01
 Coeff-Com:  0.101D+01
 Coeff:      0.437D-05-0.292D-05-0.458D-03 0.730D-04-0.180D-02-0.152D-01
 Coeff:      0.428D-02 0.355D-01 0.127D+00-0.135D-01-0.127D+01 0.113D+01
 Coeff:      0.101D+01
 Gap=     0.038 Goal=   None    Shift=    0.000
 Gap=     0.030 Goal=   None    Shift=    0.000
 RMSDP=3.82D-05 MaxDP=1.73D-03 DE=-1.96D-07 OVMax= 2.20D-03

 Cycle  14  Pass 1  IDiag  1:
 E= -1136.09143573907     Delta-E=       -0.000000218524 Rises=F Damp=F
 DIIS: error= 5.54D-06 at cycle  14 NSaved=  14.
 NSaved=14 IEnMin=14 EnMin= -1136.09143573907     IErMin=14 ErrMin= 5.54D-06
 ErrMax= 5.54D-06  0.00D+00 EMaxC= 1.00D-01 BMatC= 5.24D-09 BMatP= 7.92D-09
 IDIUse=1 WtCom= 1.00D+00 WtEn= 0.00D+00
 Coeff-Com:  0.512D-05 0.271D-05 0.796D-03 0.980D-03 0.391D-03-0.125D-01
 Coeff-Com: -0.620D-01-0.118D+00 0.183D+00 0.624D+00-0.707D+00-0.205D+01
 Coeff-Com:  0.665D+00 0.248D+01
 Coeff:      0.512D-05 0.271D-05 0.796D-03 0.980D-03 0.391D-03-0.125D-01
 Coeff:     -0.620D-01-0.118D+00 0.183D+00 0.624D+00-0.707D+00-0.205D+01
 Coeff:      0.665D+00 0.248D+01
 Gap=     0.038 Goal=   None    Shift=    0.000
 Gap=     0.030 Goal=   None    Shift=    0.000
 RMSDP=1.15D-04 MaxDP=5.44D-03 DE=-2.19D-07 OVMax= 6.39D-03

 Cycle  15  Pass 1  IDiag  1:
 E= -1136.09143616275     Delta-E=       -0.000000423674 Rises=F Damp=F
 DIIS: error= 3.23D-06 at cycle  15 NSaved=  15.
 NSaved=15 IEnMin=15 EnMin= -1136.09143616275     IErMin=15 ErrMin= 3.23D-06
 ErrMax= 3.23D-06  0.00D+00 EMaxC= 1.00D-01 BMatC= 1.40D-09 BMatP= 5.24D-09
 IDIUse=1 WtCom= 1.00D+00 WtEn= 0.00D+00
 Coeff-Com: -0.373D-04 0.497D-04 0.285D-03 0.258D-04 0.113D-02 0.124D-01
 Coeff-Com: -0.936D-02-0.382D-01-0.257D-01 0.369D-01 0.545D+00-0.616D+00
 Coeff-Com: -0.412D+00 0.945D-01 0.141D+01
 Coeff:     -0.373D-04 0.497D-04 0.285D-03 0.258D-04 0.113D-02 0.124D-01
 Coeff:     -0.936D-02-0.382D-01-0.257D-01 0.369D-01 0.545D+00-0.616D+00
 Coeff:     -0.412D+00 0.945D-01 0.141D+01
 Gap=     0.038 Goal=   None    Shift=    0.000
 Gap=     0.030 Goal=   None    Shift=    0.000
 RMSDP=6.16D-05 MaxDP=2.87D-03 DE=-4.24D-07 OVMax= 3.20D-03

 Cycle  16  Pass 1  IDiag  1:
 E= -1136.09143625560     Delta-E=       -0.000000092849 Rises=F Damp=F
 DIIS: error= 1.71D-06 at cycle  16 NSaved=  16.
 NSaved=16 IEnMin=16 EnMin= -1136.09143625560     IErMin=16 ErrMin= 1.71D-06
 ErrMax= 1.71D-06  0.00D+00 EMaxC= 1.00D-01 BMatC= 4.87D-10 BMatP= 1.40D-09
 IDIUse=1 WtCom= 1.00D+00 WtEn= 0.00D+00
 Coeff-Com: -0.554D-05 0.402D-05-0.130D-03-0.284D-03 0.286D-03 0.712D-02
 Coeff-Com:  0.163D-01 0.265D-01-0.524D-01-0.199D+00 0.348D+00 0.508D+00
 Coeff-Com: -0.271D+00-0.793D+00 0.331D+00 0.108D+01
 Coeff:     -0.554D-05 0.402D-05-0.130D-03-0.284D-03 0.286D-03 0.712D-02
 Coeff:      0.163D-01 0.265D-01-0.524D-01-0.199D+00 0.348D+00 0.508D+00
 Coeff:     -0.271D+00-0.793D+00 0.331D+00 0.108D+01
 Gap=     0.038 Goal=   None    Shift=    0.000
 Gap=     0.030 Goal=   None    Shift=    0.000
 RMSDP=2.17D-05 MaxDP=1.10D-03 DE=-9.28D-08 OVMax= 9.93D-04

 Cycle  17  Pass 1  IDiag  1:
 E= -1136.09143626942     Delta-E=       -0.000000013820 Rises=F Damp=F
 DIIS: error= 8.68D-07 at cycle  17 NSaved=  17.
 NSaved=17 IEnMin=17 EnMin= -1136.09143626942     IErMin=17 ErrMin= 8.68D-07
 ErrMax= 8.68D-07  0.00D+00 EMaxC= 1.00D-01 BMatC= 1.73D-10 BMatP= 4.87D-10
 IDIUse=1 WtCom= 1.00D+00 WtEn= 0.00D+00
 Coeff-Com:  0.156D-04-0.209D-04-0.735D-04 0.993D-05-0.375D-03-0.381D-02
 Coeff-Com:  0.202D-02 0.738D-02 0.113D-01-0.721D-02-0.145D+00 0.189D+00
 Coeff-Com:  0.118D+00-0.976D-01-0.334D+00 0.587D-01 0.120D+01
 Coeff:      0.156D-04-0.209D-04-0.735D-04 0.993D-05-0.375D-03-0.381D-02
 Coeff:      0.202D-02 0.738D-02 0.113D-01-0.721D-02-0.145D+00 0.189D+00
 Coeff:      0.118D+00-0.976D-01-0.334D+00 0.587D-01 0.120D+01
 Gap=     0.038 Goal=   None    Shift=    0.000
 Gap=     0.030 Goal=   None    Shift=    0.000
 RMSDP=8.15D-06 MaxDP=5.09D-04 DE=-1.38D-08 OVMax= 3.20D-04

 Cycle  18  Pass 1  IDiag  1:
 E= -1136.09143627339     Delta-E=       -0.000000003972 Rises=F Damp=F
 DIIS: error= 8.84D-07 at cycle  18 NSaved=  18.
 NSaved=18 IEnMin=18 EnMin= -1136.09143627339     IErMin=17 ErrMin= 8.68D-07
 ErrMax= 8.84D-07  0.00D+00 EMaxC= 1.00D-01 BMatC= 1.08D-10 BMatP= 1.73D-10
 IDIUse=1 WtCom= 1.00D+00 WtEn= 0.00D+00
 Coeff-Com: -0.312D-05 0.484D-05 0.304D-04 0.376D-04 0.255D-04-0.573D-03
 Coeff-Com: -0.259D-02-0.602D-02 0.954D-03 0.462D-01-0.261D-01-0.184D+00
 Coeff-Com:  0.330D-01 0.212D+00 0.271D-01-0.288D+00-0.415D+00 0.160D+01
 Coeff:     -0.312D-05 0.484D-05 0.304D-04 0.376D-04 0.255D-04-0.573D-03
 Coeff:     -0.259D-02-0.602D-02 0.954D-03 0.462D-01-0.261D-01-0.184D+00
 Coeff:      0.330D-01 0.212D+00 0.271D-01-0.288D+00-0.415D+00 0.160D+01
 Gap=     0.038 Goal=   None    Shift=    0.000
 Gap=     0.030 Goal=   None    Shift=    0.000
 RMSDP=5.04D-06 MaxDP=2.59D-04 DE=-3.97D-09 OVMax= 2.51D-04

 Cycle  19  Pass 1  IDiag  1:
 E= -1136.09143627636     Delta-E=       -0.000000002974 Rises=F Damp=F
 DIIS: error= 8.42D-07 at cycle  19 NSaved=  19.
 NSaved=19 IEnMin=19 EnMin= -1136.09143627636     IErMin=19 ErrMin= 8.42D-07
 ErrMax= 8.42D-07  0.00D+00 EMaxC= 1.00D-01 BMatC= 8.44D-11 BMatP= 1.08D-10
 IDIUse=1 WtCom= 1.00D+00 WtEn= 0.00D+00
 Coeff-Com: -0.760D-05 0.995D-05 0.484D-04-0.616D-05 0.247D-03 0.267D-02
 Coeff-Com: -0.303D-02-0.376D-02-0.179D-02-0.462D-02 0.873D-01-0.593D-01
 Coeff-Com: -0.574D-01-0.100D-01 0.135D+00 0.851D-01-0.385D+00-0.111D+01
 Coeff-Com:  0.233D+01
 Coeff:     -0.760D-05 0.995D-05 0.484D-04-0.616D-05 0.247D-03 0.267D-02
 Coeff:     -0.303D-02-0.376D-02-0.179D-02-0.462D-02 0.873D-01-0.593D-01
 Coeff:     -0.574D-01-0.100D-01 0.135D+00 0.851D-01-0.385D+00-0.111D+01
 Coeff:      0.233D+01
 Gap=     0.038 Goal=   None    Shift=    0.000
 Gap=     0.030 Goal=   None    Shift=    0.000
 RMSDP=6.55D-06 MaxDP=2.99D-04 DE=-2.97D-09 OVMax= 4.21D-04

 Cycle  20  Pass 1  IDiag  1:
 E= -1136.09143628026     Delta-E=       -0.000000003903 Rises=F Damp=F
 DIIS: error= 6.87D-07 at cycle  20 NSaved=  20.
 NSaved=20 IEnMin=20 EnMin= -1136.09143628026     IErMin=20 ErrMin= 6.87D-07
 ErrMax= 6.87D-07  0.00D+00 EMaxC= 1.00D-01 BMatC= 5.74D-11 BMatP= 8.44D-11
 IDIUse=1 WtCom= 1.00D+00 WtEn= 0.00D+00
 Coeff-Com:  0.233D-05-0.357D-05-0.461D-05 0.369D-05-0.537D-04-0.208D-03
 Coeff-Com:  0.253D-02 0.472D-02 0.377D-02-0.383D-01 0.665D-02 0.155D+00
 Coeff-Com: -0.492D-01-0.157D+00 0.195D-01 0.189D+00 0.311D+00-0.876D+00
 Coeff-Com: -0.938D+00 0.237D+01
 Coeff:      0.233D-05-0.357D-05-0.461D-05 0.369D-05-0.537D-04-0.208D-03
 Coeff:      0.253D-02 0.472D-02 0.377D-02-0.383D-01 0.665D-02 0.155D+00
 Coeff:     -0.492D-01-0.157D+00 0.195D-01 0.189D+00 0.311D+00-0.876D+00
 Coeff:     -0.938D+00 0.237D+01
 Gap=     0.038 Goal=   None    Shift=    0.000
 Gap=     0.030 Goal=   None    Shift=    0.000
 RMSDP=1.01D-05 MaxDP=4.43D-04 DE=-3.90D-09 OVMax= 6.39D-04

 Cycle  21  Pass 1  IDiag  1:
 E= -1136.09143628474     Delta-E=       -0.000000004475 Rises=F Damp=F
 DIIS: error= 4.54D-07 at cycle  21 NSaved=  20.
 NSaved=20 IEnMin=20 EnMin= -1136.09143628474     IErMin=20 ErrMin= 4.54D-07
 ErrMax= 4.54D-07  0.00D+00 EMaxC= 1.00D-01 BMatC= 3.13D-11 BMatP= 5.74D-11
 IDIUse=1 WtCom= 1.00D+00 WtEn= 0.00D+00
 Coeff-Com:  0.269D-05-0.193D-04 0.215D-04-0.208D-03-0.266D-02 0.285D-02
 Coeff-Com: -0.838D-03 0.128D-03 0.237D-01-0.737D-01-0.223D-01 0.319D-01
 Coeff-Com:  0.100D+00-0.815D-01-0.181D+00 0.225D+00 0.160D+01-0.310D+01
 Coeff-Com:  0.706D+00 0.177D+01
 Coeff:      0.269D-05-0.193D-04 0.215D-04-0.208D-03-0.266D-02 0.285D-02
 Coeff:     -0.838D-03 0.128D-03 0.237D-01-0.737D-01-0.223D-01 0.319D-01
 Coeff:      0.100D+00-0.815D-01-0.181D+00 0.225D+00 0.160D+01-0.310D+01
 Coeff:      0.706D+00 0.177D+01
 Gap=     0.038 Goal=   None    Shift=    0.000
 Gap=     0.030 Goal=   None    Shift=    0.000
 RMSDP=1.18D-05 MaxDP=5.22D-04 DE=-4.48D-09 OVMax= 7.58D-04

 Cycle  22  Pass 1  IDiag  1:
 E= -1136.09143628761     Delta-E=       -0.000000002872 Rises=F Damp=F
 DIIS: error= 1.67D-07 at cycle  22 NSaved=  20.
 NSaved=20 IEnMin=20 EnMin= -1136.09143628761     IErMin=20 ErrMin= 1.67D-07
 ErrMax= 1.67D-07  0.00D+00 EMaxC= 1.00D-01 BMatC= 8.50D-12 BMatP= 3.13D-11
 IDIUse=1 WtCom= 1.00D+00 WtEn= 0.00D+00
 Coeff-Com: -0.239D-04-0.236D-05-0.916D-04-0.863D-03 0.155D-02 0.111D-03
 Coeff-Com: -0.346D-02 0.105D-01-0.246D-01-0.235D-01 0.222D-01 0.594D-01
 Coeff-Com: -0.372D-01-0.119D+00-0.772D-01 0.105D+01-0.937D+00-0.530D+00
 Coeff-Com:  0.496D+00 0.111D+01
 Coeff:     -0.239D-04-0.236D-05-0.916D-04-0.863D-03 0.155D-02 0.111D-03
 Coeff:     -0.346D-02 0.105D-01-0.246D-01-0.235D-01 0.222D-01 0.594D-01
 Coeff:     -0.372D-01-0.119D+00-0.772D-01 0.105D+01-0.937D+00-0.530D+00
 Coeff:      0.496D+00 0.111D+01
 Gap=     0.038 Goal=   None    Shift=    0.000
 Gap=     0.030 Goal=   None    Shift=    0.000
 RMSDP=5.26D-06 MaxDP=2.48D-04 DE=-2.87D-09 OVMax= 3.57D-04

 Cycle  23  Pass 1  IDiag  1:
 E= -1136.09143628802     Delta-E=       -0.000000000408 Rises=F Damp=F
 DIIS: error= 4.51D-08 at cycle  23 NSaved=  20.
 NSaved=20 IEnMin=20 EnMin= -1136.09143628802     IErMin=20 ErrMin= 4.51D-08
 ErrMax= 4.51D-08  0.00D+00 EMaxC= 1.00D-01 BMatC= 8.84D-13 BMatP= 8.50D-12
 IDIUse=1 WtCom= 1.00D+00 WtEn= 0.00D+00
 Coeff-Com:  0.106D-04 0.509D-04 0.496D-03-0.640D-03-0.988D-03-0.332D-03
 Coeff-Com: -0.170D-03 0.196D-01-0.226D-01-0.130D-01 0.102D-01 0.292D-01
 Coeff-Com:  0.866D-02-0.100D+00-0.131D+00 0.429D+00-0.778D-01-0.306D+00
 Coeff-Com: -0.557D-01 0.121D+01
 Coeff:      0.106D-04 0.509D-04 0.496D-03-0.640D-03-0.988D-03-0.332D-03
 Coeff:     -0.170D-03 0.196D-01-0.226D-01-0.130D-01 0.102D-01 0.292D-01
 Coeff:      0.866D-02-0.100D+00-0.131D+00 0.429D+00-0.778D-01-0.306D+00
 Coeff:     -0.557D-01 0.121D+01
 Gap=     0.038 Goal=   None    Shift=    0.000
 Gap=     0.030 Goal=   None    Shift=    0.000
 RMSDP=8.93D-07 MaxDP=4.32D-05 DE=-4.08D-10 OVMax= 5.69D-05

 Cycle  24  Pass 1  IDiag  1:
 E= -1136.09143628804     Delta-E=       -0.000000000020 Rises=F Damp=F
 DIIS: error= 1.70D-08 at cycle  24 NSaved=  20.
 NSaved=20 IEnMin=20 EnMin= -1136.09143628804     IErMin=20 ErrMin= 1.70D-08
 ErrMax= 1.70D-08  0.00D+00 EMaxC= 1.00D-01 BMatC= 1.29D-13 BMatP= 8.84D-13
 IDIUse=1 WtCom= 1.00D+00 WtEn= 0.00D+00
 Coeff-Com:  0.872D-06 0.399D-06-0.167D-04 0.298D-03 0.881D-03-0.197D-02
 Coeff-Com: -0.149D-02 0.778D-02-0.969D-03-0.886D-02 0.160D-02 0.102D-01
 Coeff-Com:  0.276D-01-0.921D-01 0.205D-01 0.104D+00-0.212D-01-0.181D+00
 Coeff-Com: -0.162D+00 0.130D+01
 Coeff:      0.872D-06 0.399D-06-0.167D-04 0.298D-03 0.881D-03-0.197D-02
 Coeff:     -0.149D-02 0.778D-02-0.969D-03-0.886D-02 0.160D-02 0.102D-01
 Coeff:      0.276D-01-0.921D-01 0.205D-01 0.104D+00-0.212D-01-0.181D+00
 Coeff:     -0.162D+00 0.130D+01
 Gap=     0.038 Goal=   None    Shift=    0.000
 Gap=     0.030 Goal=   None    Shift=    0.000
 RMSDP=1.61D-07 MaxDP=6.94D-06 DE=-2.02D-11 OVMax= 8.79D-06

 Cycle  25  Pass 1  IDiag  1:
 E= -1136.09143628803     Delta-E=        0.000000000005 Rises=F Damp=F
 DIIS: error= 6.24D-09 at cycle  25 NSaved=  20.
 NSaved=20 IEnMin=19 EnMin= -1136.09143628804     IErMin=20 ErrMin= 6.24D-09
 ErrMax= 6.24D-09  0.00D+00 EMaxC= 1.00D-01 BMatC= 1.26D-14 BMatP= 1.29D-13
 IDIUse=1 WtCom= 1.00D+00 WtEn= 0.00D+00
 Coeff-Com: -0.901D-06 0.105D-04-0.353D-05-0.212D-03 0.271D-03-0.547D-04
 Coeff-Com:  0.469D-03 0.163D-03-0.633D-03-0.689D-03-0.715D-03 0.588D-02
 Coeff-Com:  0.786D-02-0.351D-01 0.124D-01 0.277D-01-0.425D-02-0.116D+00
 Coeff-Com: -0.418D-01 0.114D+01
 Coeff:     -0.901D-06 0.105D-04-0.353D-05-0.212D-03 0.271D-03-0.547D-04
 Coeff:      0.469D-03 0.163D-03-0.633D-03-0.689D-03-0.715D-03 0.588D-02
 Coeff:      0.786D-02-0.351D-01 0.124D-01 0.277D-01-0.425D-02-0.116D+00
 Coeff:     -0.418D-01 0.114D+01
 Gap=     0.038 Goal=   None    Shift=    0.000
 Gap=     0.030 Goal=   None    Shift=    0.000
 RMSDP=4.08D-08 MaxDP=2.76D-06 DE= 5.00D-12 OVMax= 2.26D-06

 Cycle  26  Pass 1  IDiag  1:
 E= -1136.09143628803     Delta-E=       -0.000000000000 Rises=F Damp=F
 DIIS: error= 2.11D-09 at cycle  26 NSaved=  20.
 NSaved=20 IEnMin=18 EnMin= -1136.09143628804     IErMin=20 ErrMin= 2.11D-09
 ErrMax= 2.11D-09  0.00D+00 EMaxC= 1.00D-01 BMatC= 2.78D-15 BMatP= 1.26D-14
 IDIUse=1 WtCom= 1.00D+00 WtEn= 0.00D+00
 Large coefficients: NSaved= 20 BigCof=    0.00 CofMax=   10.00 Det=-5.97D-15
 Inversion failed.  Reducing to 19 matrices.
 Large coefficients: NSaved= 19 BigCof=    0.00 CofMax=   10.00 Det=-6.05D-15
 Inversion failed.  Reducing to 18 matrices.
 Large coefficients: NSaved= 18 BigCof=    0.00 CofMax=   10.00 Det=-6.33D-15
 Inversion failed.  Reducing to 17 matrices.
 Large coefficients: NSaved= 17 BigCof=    0.00 CofMax=   10.00 Det=-6.92D-15
 Inversion failed.  Reducing to 16 matrices.
 Large coefficients: NSaved= 16 BigCof=    0.00 CofMax=   10.00 Det=-6.95D-15
 Inversion failed.  Reducing to 15 matrices.
 Coeff-Com:  0.495D-03-0.179D-03-0.614D-03 0.115D-03 0.879D-03 0.579D-03
 Coeff-Com: -0.117D-02-0.570D-02 0.288D-02 0.506D-02 0.600D-02-0.143D-01
 Coeff-Com: -0.828D-01 0.252D+00 0.836D+00
 Coeff:      0.495D-03-0.179D-03-0.614D-03 0.115D-03 0.879D-03 0.579D-03
 Coeff:     -0.117D-02-0.570D-02 0.288D-02 0.506D-02 0.600D-02-0.143D-01
 Coeff:     -0.828D-01 0.252D+00 0.836D+00
 Gap=     0.038 Goal=   None    Shift=    0.000
 Gap=     0.030 Goal=   None    Shift=    0.000
 RMSDP=9.50D-09 MaxDP=4.69D-07 DE=-2.27D-13 OVMax= 4.18D-07

 SCF Done:  E(UB3LYP) =  -1136.09143629     A.U. after   26 cycles
            NFock= 26  Conv=0.95D-08     -V/T= 2.0025
 <Sx>= 0.0000 <Sy>= 0.0000 <Sz>= 0.5000 <S**2>= 0.7640 S= 0.5070
 <L.S>= 0.000000000000E+00
 KE= 1.133300534503D+03 PE=-3.500294038729D+03 EE= 8.454406061512D+02
 Annihilation of the first spin contaminant:
 S**2 before annihilation     0.7640,   after     0.7501
 Leave Link  502 at Mon Nov 13 12:30:33 2023, MaxMem=  1879048192 cpu:             250.7 elap:              21.4
 (Enter /home/sekinelabo/g16/l601.exe)
 Copying SCF densities to generalized density rwf, IOpCl= 1 IROHF=0.

 **********************************************************************

            Population analysis using the SCF Density.

 **********************************************************************

 Orbital symmetries:
 Alpha Orbitals:
       Occupied  (A) (A) (A) (A) (A) (A) (A) (A) (A) (A) (A) (A)
                 (A) (A) (A) (A) (A) (A) (A) (A) (A) (A) (A) (A)
                 (A) (A) (A) (A) (A) (A) (A) (A) (A) (A) (A) (A)
                 (A) (A) (A)
       Virtual   (A) (A) (A) (A) (A) (A) (A) (A) (A) (A) (A) (A)
                 (A) (A) (A) (A) (A) (A) (A) (A) (A) (A) (A) (A)
                 (A) (A) (A) (A) (A) (A) (A) (A) (A) (A) (A) (A)
                 (A) (A) (A) (A) (A) (A) (A) (A) (A) (A) (A) (A)
                 (A) (A) (A) (A) (A) (A) (A) (A) (A) (A) (A) (A)
                 (A) (A) (A) (A) (A) (A) (A) (A) (A) (A) (A) (A)
                 (A) (A) (A) (A) (A) (A) (A) (A) (A) (A) (A) (A)
                 (A) (A) (A) (A) (A) (A) (A) (A) (A) (A) (A) (A)
                 (A) (A) (A) (A) (A) (A) (A) (A) (A) (A) (A) (A)
                 (A) (A) (A) (A) (A) (A) (A) (A) (A) (A) (A) (A)
                 (A) (A) (A) (A) (A) (A) (A) (A) (A) (A) (A) (A)
                 (A) (A) (A) (A) (A) (A) (A) (A) (A) (A) (A) (A)
                 (A) (A) (A) (A) (A) (A) (A) (A) (A) (A) (A) (A)
                 (A) (A) (A) (A) (A) (A) (A) (A) (A) (A) (A) (A)
                 (A) (A)
 Beta  Orbitals:
       Occupied  (A) (A) (A) (A) (A) (A) (A) (A) (A) (A) (A) (A)
                 (A) (A) (A) (A) (A) (A) (A) (A) (A) (A) (A) (A)
                 (A) (A) (A) (A) (A) (A) (A) (A) (A) (A) (A) (A)
                 (A) (A)
       Virtual   (A) (A) (A) (A) (A) (A) (A) (A) (A) (A) (A) (A)
                 (A) (A) (A) (A) (A) (A) (A) (A) (A) (A) (A) (A)
                 (A) (A) (A) (A) (A) (A) (A) (A) (A) (A) (A) (A)
                 (A) (A) (A) (A) (A) (A) (A) (A) (A) (A) (A) (A)
                 (A) (A) (A) (A) (A) (A) (A) (A) (A) (A) (A) (A)
                 (A) (A) (A) (A) (A) (A) (A) (A) (A) (A) (A) (A)
                 (A) (A) (A) (A) (A) (A) (A) (A) (A) (A) (A) (A)
                 (A) (A) (A) (A) (A) (A) (A) (A) (A) (A) (A) (A)
                 (A) (A) (A) (A) (A) (A) (A) (A) (A) (A) (A) (A)
                 (A) (A) (A) (A) (A) (A) (A) (A) (A) (A) (A) (A)
                 (A) (A) (A) (A) (A) (A) (A) (A) (A) (A) (A) (A)
                 (A) (A) (A) (A) (A) (A) (A) (A) (A) (A) (A) (A)
                 (A) (A) (A) (A) (A) (A) (A) (A) (A) (A) (A) (A)
                 (A) (A) (A) (A) (A) (A) (A) (A) (A) (A) (A) (A)
                 (A) (A) (A)
 The electronic state is 2-A.
 Alpha  occ. eigenvalues --  -38.45930 -38.44443 -38.44390 -38.44119 -38.43191
 Alpha  occ. eigenvalues --  -38.42936 -38.42672  -2.21796  -2.20490  -2.20426
 Alpha  occ. eigenvalues --   -2.20228  -2.19253  -2.19023  -2.18831  -1.15494
 Alpha  occ. eigenvalues --   -1.15460  -1.15424  -1.14270  -1.14223  -1.14167
 Alpha  occ. eigenvalues --   -1.14104  -1.14046  -1.13974  -1.13959  -1.13862
 Alpha  occ. eigenvalues --   -1.13776  -1.13021  -1.12921  -1.12837  -1.12767
 Alpha  occ. eigenvalues --   -1.12671  -1.12662  -1.12522  -1.12482  -1.12381
 Alpha  occ. eigenvalues --   -0.20702  -0.14766  -0.11956  -0.11112
 Alpha virt. eigenvalues --   -0.07283  -0.04314  -0.04173  -0.03307  -0.02717
 Alpha virt. eigenvalues --   -0.02262  -0.02154  -0.00665  -0.00311   0.00056
 Alpha virt. eigenvalues --    0.00307   0.00433   0.00497   0.00911   0.00974
 Alpha virt. eigenvalues --    0.01174   0.01240   0.01433   0.01468   0.01557
 Alpha virt. eigenvalues --    0.01627   0.01834   0.01923   0.01959   0.02050
 Alpha virt. eigenvalues --    0.02141   0.02498   0.02581   0.02693   0.02772
 Alpha virt. eigenvalues --    0.02894   0.02939   0.03018   0.03244   0.03378
 Alpha virt. eigenvalues --    0.03510   0.03559   0.03784   0.03981   0.04212
 Alpha virt. eigenvalues --    0.04369   0.04667   0.04783   0.05151   0.05371
 Alpha virt. eigenvalues --    0.05618   0.05689   0.05886   0.06122   0.06342
 Alpha virt. eigenvalues --    0.06714   0.06734   0.06942   0.07123   0.07188
 Alpha virt. eigenvalues --    0.08184   0.08396   0.08945   0.09303   0.09621
 Alpha virt. eigenvalues --    0.09982   0.10526   0.11369   0.12640   0.12736
 Alpha virt. eigenvalues --    0.12841   0.13218   0.13472   0.13992   0.14462
 Alpha virt. eigenvalues --    0.14564   0.14943   0.15038   0.15788   0.16001
 Alpha virt. eigenvalues --    0.16240   0.17045   0.17199   0.19279   0.22844
 Alpha virt. eigenvalues --    0.23911   0.26585   0.27868   0.28288   0.29220
 Alpha virt. eigenvalues --    0.30551   0.31420   0.33589   0.34470   0.34705
 Alpha virt. eigenvalues --    0.36136   0.36565   0.37703   0.37920   0.39511
 Alpha virt. eigenvalues --    0.39947   0.42098   0.42901   0.42959   0.43698
 Alpha virt. eigenvalues --    0.44523   0.44728   0.44928   0.45423   0.45792
 Alpha virt. eigenvalues --    0.46617   0.47148   0.47812   0.48058   0.49226
 Alpha virt. eigenvalues --    0.49898   0.50173   0.50614   0.51393   0.52024
 Alpha virt. eigenvalues --    0.53092   0.53982   0.54451   0.55191   0.56047
 Alpha virt. eigenvalues --    0.56525   0.57364   0.61619   0.64711   0.67139
 Alpha virt. eigenvalues --    0.67754   0.69119   0.69355   0.71674   0.72912
 Alpha virt. eigenvalues --    0.74901   0.75844   0.77900   0.79194   0.82194
 Alpha virt. eigenvalues --    2.10694   2.16047   2.24682   2.27803   2.28653
 Alpha virt. eigenvalues --    2.31105   2.35847   4.40394   4.41094   4.41313
 Alpha virt. eigenvalues --    4.41657   4.42007   4.42849   4.43425   4.44312
 Alpha virt. eigenvalues --    4.47356   4.48682   4.52075   4.60674   4.62579
 Alpha virt. eigenvalues --    4.64023   4.66188   4.68532   4.70477   4.72752
 Alpha virt. eigenvalues --    4.76386   4.78159   4.81058  96.31618  96.39096
 Alpha virt. eigenvalues --   96.50973  96.55138  96.55996  96.60070  96.66090
  Beta  occ. eigenvalues --  -38.45940 -38.44425 -38.44301 -38.44022 -38.43177
  Beta  occ. eigenvalues --  -38.42922 -38.42649  -2.21816  -2.20399  -2.20326
  Beta  occ. eigenvalues --   -2.20052  -2.19234  -2.19004  -2.18798  -1.15507
  Beta  occ. eigenvalues --   -1.15477  -1.15428  -1.14216  -1.14114  -1.14101
  Beta  occ. eigenvalues --   -1.14025  -1.13987  -1.13893  -1.13841  -1.13746
  Beta  occ. eigenvalues --   -1.13656  -1.13011  -1.12855  -1.12835  -1.12758
  Beta  occ. eigenvalues --   -1.12665  -1.12591  -1.12509  -1.12394  -1.12367
  Beta  occ. eigenvalues --   -0.19858  -0.14528  -0.10794
  Beta virt. eigenvalues --   -0.07772  -0.07134  -0.04357  -0.03312  -0.02904
  Beta virt. eigenvalues --   -0.02535  -0.01564  -0.01460  -0.00632  -0.00071
  Beta virt. eigenvalues --    0.00099   0.00321   0.00477   0.00698   0.00967
  Beta virt. eigenvalues --    0.00971   0.01262   0.01301   0.01526   0.01557
  Beta virt. eigenvalues --    0.01683   0.01709   0.01871   0.01963   0.02076
  Beta virt. eigenvalues --    0.02115   0.02220   0.02576   0.02645   0.02760
  Beta virt. eigenvalues --    0.02779   0.02918   0.02943   0.03076   0.03242
  Beta virt. eigenvalues --    0.03396   0.03646   0.03707   0.03802   0.04273
  Beta virt. eigenvalues --    0.04358   0.04464   0.04754   0.04929   0.05357
  Beta virt. eigenvalues --    0.05458   0.05732   0.05832   0.05910   0.06282
  Beta virt. eigenvalues --    0.06532   0.06814   0.06863   0.06969   0.07210
  Beta virt. eigenvalues --    0.07386   0.08368   0.08634   0.08985   0.09304
  Beta virt. eigenvalues --    0.09988   0.10252   0.10711   0.11713   0.12733
  Beta virt. eigenvalues --    0.12799   0.13205   0.13565   0.13831   0.14138
  Beta virt. eigenvalues --    0.14605   0.14786   0.15266   0.15412   0.15955
  Beta virt. eigenvalues --    0.16168   0.16473   0.17263   0.17322   0.19343
  Beta virt. eigenvalues --    0.23580   0.24352   0.27293   0.28001   0.28695
  Beta virt. eigenvalues --    0.29646   0.30918   0.31491   0.33695   0.34645
  Beta virt. eigenvalues --    0.34950   0.36473   0.36841   0.38190   0.38218
  Beta virt. eigenvalues --    0.39608   0.40154   0.42403   0.42950   0.43171
  Beta virt. eigenvalues --    0.43978   0.44587   0.44946   0.45114   0.45527
  Beta virt. eigenvalues --    0.46093   0.46874   0.47471   0.47926   0.48379
  Beta virt. eigenvalues --    0.49406   0.49953   0.50300   0.50760   0.51619
  Beta virt. eigenvalues --    0.52521   0.53302   0.54335   0.54731   0.55434
  Beta virt. eigenvalues --    0.56300   0.56827   0.57563   0.61779   0.64743
  Beta virt. eigenvalues --    0.67329   0.67770   0.69267   0.69826   0.71723
  Beta virt. eigenvalues --    0.73124   0.75245   0.76031   0.78212   0.79384
  Beta virt. eigenvalues --    0.82179   2.10729   2.16137   2.24765   2.27813
  Beta virt. eigenvalues --    2.29069   2.31196   2.35993   4.40409   4.41189
  Beta virt. eigenvalues --    4.41437   4.41744   4.42057   4.42919   4.43477
  Beta virt. eigenvalues --    4.44331   4.47423   4.48728   4.52179   4.60717
  Beta virt. eigenvalues --    4.62681   4.64098   4.66230   4.68646   4.70598
  Beta virt. eigenvalues --    4.72773   4.76435   4.78210   4.81090  96.31640
  Beta virt. eigenvalues --   96.39121  96.51003  96.55151  96.56129  96.60105
  Beta virt. eigenvalues --   96.66146
          Condensed to atoms (all electrons):
               1          2          3          4          5          6
     1  Na  13.355409  -0.405984   0.693191   0.368802   0.091301  -1.074424
     2  Na  -0.405984  11.696730  -0.857528  -0.080585  -0.415858   0.210834
     3  Na   0.693191  -0.857528  12.386406   0.336022  -0.113185  -0.448411
     4  Na   0.368802  -0.080585   0.336022  12.180777   0.337078  -1.175548
     5  Na   0.091301  -0.415858  -0.113185   0.337078  11.398426  -0.072867
     6  Na  -1.074424   0.210834  -0.448411  -1.175548  -0.072867  12.826514
     7  Na  -1.644838   0.731300  -1.093400  -1.000630  -0.034577   0.712798
               7
     1  Na  -1.644838
     2  Na   0.731300
     3  Na  -1.093400
     4  Na  -1.000630
     5  Na  -0.034577
     6  Na   0.712798
     7  Na  13.028760
          Atomic-Atomic Spin Densities.
               1          2          3          4          5          6
     1  Na  -0.083244   0.188557  -0.097749  -0.240740  -0.056780   0.239892
     2  Na   0.188557   0.118351   0.158065   0.148015  -0.008269  -0.113841
     3  Na  -0.097749   0.158065  -0.425422  -0.091495   0.039813   0.139448
     4  Na  -0.240740   0.148015  -0.091495  -0.078477  -0.005901   0.206386
     5  Na  -0.056780  -0.008269   0.039813  -0.005901   0.223148   0.075717
     6  Na   0.239892  -0.113841   0.139448   0.206386   0.075717  -0.301226
     7  Na   0.227777  -0.120925   0.148320   0.217508   0.090005  -0.223606
               7
     1  Na   0.227777
     2  Na  -0.120925
     3  Na   0.148320
     4  Na   0.217508
     5  Na   0.090005
     6  Na  -0.223606
     7  Na  -0.293520
 Mulliken charges and spin densities:
               1          2
     1  Na  -0.383456   0.177711
     2  Na   0.121091   0.369953
     3  Na   0.096905  -0.129021
     4  Na   0.034085   0.155297
     5  Na  -0.190318   0.357732
     6  Na   0.021105   0.022770
     7  Na   0.300588   0.045559
 Sum of Mulliken charges =  -0.00000   1.00000
 Mulliken charges and spin densities with hydrogens summed into heavy atoms:
               1          2
     1  Na  -0.383456   0.177711
     2  Na   0.121091   0.369953
     3  Na   0.096905  -0.129021
     4  Na   0.034085   0.155297
     5  Na  -0.190318   0.357732
     6  Na   0.021105   0.022770
     7  Na   0.300588   0.045559
 Electronic spatial extent (au):  <R**2>=           1905.3475
 Charge=             -0.0000 electrons
 Dipole moment (field-independent basis, Debye):
    X=             -0.9937    Y=             -0.1976    Z=             -0.1319  Tot=              1.0217
 Quadrupole moment (field-independent basis, Debye-Ang):
   XX=            -43.6834   YY=            -79.9302   ZZ=            -68.8027
   XY=             -0.4049   XZ=              0.5268   YZ=              0.1475
 Traceless Quadrupole moment (field-independent basis, Debye-Ang):
   XX=             20.4554   YY=            -15.7914   ZZ=             -4.6639
   XY=             -0.4049   XZ=              0.5268   YZ=              0.1475
 Octapole moment (field-independent basis, Debye-Ang**2):
  XXX=            -49.9130  YYY=              0.6520  ZZZ=             -0.7806  XYY=              1.2278
  XXY=              1.2967  XXZ=             -3.3019  XZZ=              0.9024  YZZ=             -2.9073
  YYZ=              0.2752  XYZ=              0.4767
 Hexadecapole moment (field-independent basis, Debye-Ang**3):
 XXXX=          -1256.8110 YYYY=           -963.3475 ZZZZ=           -655.8508 XXXY=            -46.2154
 XXXZ=              6.8953 YYYX=             22.1266 YYYZ=              1.3403 ZZZX=             12.5565
 ZZZY=             -1.3465 XXYY=           -433.1758 XXZZ=           -440.7649 YYZZ=           -296.0239
 XXYZ=              2.9881 YYXZ=             -5.6249 ZZXY=             -2.7976
 N-N= 3.854614617859D+02 E-N=-3.500294038688D+03  KE= 1.133300534503D+03
                          Isotropic Fermi Contact Couplings
        Atom                 a.u.       MegaHertz       Gauss      10(-4) cm-1
     1  Na(23)             0.01095      12.94836       4.62030       4.31911
     2  Na(23)             0.39676     469.37439     167.48445     156.56644
     3  Na(23)            -0.05308     -62.79844     -22.40804     -20.94730
     4  Na(23)            -0.00800      -9.45981      -3.37549      -3.15545
     5  Na(23)             0.36545     432.33950     154.26948     144.21293
     6  Na(23)            -0.02240     -26.49971      -9.45575      -8.83935
     7  Na(23)             0.01711      20.23854       7.22162       6.75085
 --------------------------------------------------------
       Center         ----  Spin Dipole Couplings  ----
                      3XX-RR        3YY-RR        3ZZ-RR
 --------------------------------------------------------
     1   Atom       -0.034468     -0.032027      0.066495
     2   Atom        0.004921      0.012325     -0.017245
     3   Atom        0.000418     -0.009193      0.008775
     4   Atom       -0.034316     -0.022178      0.056493
     5   Atom        0.008960      0.006019     -0.014979
     6   Atom       -0.024914     -0.034637      0.059552
     7   Atom       -0.026177     -0.025546      0.051723
 --------------------------------------------------------
                        XY            XZ            YZ
 --------------------------------------------------------
     1   Atom       -0.000315      0.013529     -0.009913
     2   Atom       -0.005606      0.000403     -0.000799
     3   Atom       -0.000580     -0.001712     -0.000219
     4   Atom        0.003487      0.010629      0.005391
     5   Atom       -0.002897     -0.004020      0.002001
     6   Atom       -0.001420     -0.004694      0.005432
     7   Atom       -0.001729      0.006476     -0.008630
 --------------------------------------------------------


 ---------------------------------------------------------------------------------
              Anisotropic Spin Dipole Couplings in Principal Axis System
 ---------------------------------------------------------------------------------

       Atom             a.u.   MegaHertz   Gauss  10(-4) cm-1        Axes

              Baa    -0.0365    -5.157    -1.840    -1.720  0.9522 -0.2656 -0.1506
     1 Na(23) Bbb    -0.0327    -4.620    -1.649    -1.541  0.2768  0.9592  0.0581
              Bcc     0.0692     9.777     3.489     3.261  0.1290 -0.0970  0.9869
 
              Baa    -0.0173    -2.439    -0.870    -0.813 -0.0119  0.0247  0.9996
     2 Na(23) Bbb     0.0019     0.269     0.096     0.090  0.8807  0.4737 -0.0012
              Bcc     0.0154     2.170     0.774     0.724 -0.4736  0.8803 -0.0274
 
              Baa    -0.0092    -1.304    -0.465    -0.435  0.0632  0.9978  0.0181
     3 Na(23) Bbb     0.0001     0.017     0.006     0.006  0.9792 -0.0655  0.1920
              Bcc     0.0091     1.287     0.459     0.429 -0.1928 -0.0056  0.9812
 
              Baa    -0.0361    -5.103    -1.821    -1.702  0.9737 -0.2047 -0.0998
     4 Na(23) Bbb    -0.0220    -3.106    -1.108    -1.036  0.1956  0.9762 -0.0935
              Bcc     0.0581     8.209     2.929     2.738  0.1166  0.0716  0.9906
 
              Baa    -0.0157    -2.223    -0.793    -0.742  0.1522 -0.0704  0.9858
     5 Na(23) Bbb     0.0042     0.600     0.214     0.200  0.5126  0.8584 -0.0178
              Bcc     0.0115     1.623     0.579     0.541  0.8450 -0.5080 -0.1667
 
              Baa    -0.0351    -4.954    -1.768    -1.653  0.1148  0.9921 -0.0513
     6 Na(23) Bbb    -0.0250    -3.537    -1.262    -1.180  0.9918 -0.1116  0.0622
              Bcc     0.0601     8.491     3.030     2.832 -0.0560  0.0580  0.9967
 
              Baa    -0.0276    -3.901    -1.392    -1.301  0.7439  0.6682  0.0120
     7 Na(23) Bbb    -0.0256    -3.615    -1.290    -1.206 -0.6631  0.7358  0.1376
              Bcc     0.0532     7.516     2.682     2.507  0.0832 -0.1103  0.9904
 

 ---------------------------------------------------------------------------------

 No NMR shielding tensors so no spin-rotation constants.
 Leave Link  601 at Mon Nov 13 12:30:33 2023, MaxMem=  1879048192 cpu:               2.6 elap:               0.2
 (Enter /home/sekinelabo/g16/l701.exe)
 ... and contract with generalized density number  0.
 Compute integral first derivatives.
 Leave Link  701 at Mon Nov 13 12:30:34 2023, MaxMem=  1879048192 cpu:               1.7 elap:               0.1
 (Enter /home/sekinelabo/g16/l702.exe)
 L702 exits ... SP integral derivatives will be done elsewhere.
 Leave Link  702 at Mon Nov 13 12:30:34 2023, MaxMem=  1879048192 cpu:               0.5 elap:               0.0
 (Enter /home/sekinelabo/g16/l703.exe)
 Integral derivatives from FoFJK, PRISM(SPDF).
 Compute integral first derivatives, UseDBF=F ICtDFT=           0.
 Calling FoFJK, ICntrl=      2127 FMM=F ISym2X=0 I1Cent= 0 IOpClX= 1 NMat=1 NMatS=1 NMatT=0.
 FoFJK:  IHMeth= 1 ICntrl=    2127 DoSepK=F KAlg= 0 I1Cent=           0 FoldK=F
 IRaf=         0 NMat=       1 IRICut=       1 DoRegI=T DoRafI=F ISym2E= 0 IDoP0=0 IntGTp=1.
 FoFCou: FMM=F IPFlag=           0 FMFlag=      100000 FMFlg1=         800
         NFxFlg=           0 DoJE=F BraDBF=F KetDBF=F FulRan=T
         wScrn=  0.000000 ICntrl=      2127 IOpCl=  1 I1Cent=           0 NGrid=           0
         NMat0=    1 NMatS0=      1 NMatT0=    0 NMatD0=    1 NMtDS0=    0 NMtDT0=    0
 Symmetry not used in FoFCou.
 Leave Link  703 at Mon Nov 13 12:30:36 2023, MaxMem=  1879048192 cpu:              37.1 elap:               2.4
 (Enter /home/sekinelabo/g16/l716.exe)
 Dipole        =-3.90951148D-01-7.77426597D-02-5.19067417D-02
 ***** Axes restored to original set *****
 -------------------------------------------------------------------
 Center     Atomic                   Forces (Hartrees/Bohr)
 Number     Number              X              Y              Z
 -------------------------------------------------------------------
      1       11          -0.006065636   -0.019509052   -0.002033655
      2       11           0.001241313    0.003917671   -0.015042785
      3       11          -0.006772283   -0.000563333    0.001643491
      4       11          -0.000594004    0.019610771   -0.000899058
      5       11          -0.001864255    0.002380465    0.014526451
      6       11           0.007645173   -0.019678539    0.000537444
      7       11           0.006409691    0.013842017    0.001268111
 -------------------------------------------------------------------
 Cartesian Forces:  Max     0.019678539 RMS     0.009758432
 Z-matrix is all fixed cartesians, so copy forces.
 Force constants in Cartesian coordinates: 
                1             2             3             4             5 
      1  0.181232D+00
      2  0.206377D-01  0.205053D+00
      3  0.404424D-02  0.128546D-01  0.131126D+00
      4 -0.324335D-01 -0.678648D-02  0.214175D-01  0.123798D+00
      5 -0.125207D-01 -0.360068D-01  0.307251D-01  0.314088D-03  0.115170D+00
      6 -0.823848D-02 -0.373929D-02 -0.355736D-01 -0.508102D-02 -0.145428D-01
      7 -0.355060D-01 -0.988413D-02 -0.267618D-03 -0.357551D-02 -0.883609D-03
      8  0.253315D-01 -0.415785D-01 -0.600169D-02 -0.968189D-03  0.929693D-02
      9  0.351834D-02 -0.343672D-02 -0.249362D-01  0.748895D-02  0.860672D-03
     10 -0.290184D-01 -0.102919D-01 -0.228509D-02 -0.326876D-01  0.160758D-01
     11  0.122458D-01 -0.561969D-01  0.210334D-02 -0.148251D-02 -0.334216D-01
     12 -0.131002D-02 -0.442057D-02 -0.169220D-01  0.241195D-01 -0.284252D-01
     13 -0.292375D-01 -0.704955D-02 -0.190377D-01 -0.219497D-02  0.862681D-04
     14 -0.855155D-02 -0.314435D-01 -0.315480D-01 -0.710205D-03 -0.418874D-02
     15  0.903531D-02  0.129948D-02 -0.408299D-01  0.220545D-02 -0.388010D-02
     16 -0.500713D-01  0.237741D-01 -0.211458D-02 -0.211033D-01  0.831359D-02
     17 -0.244490D-01 -0.420139D-01 -0.655694D-02  0.144164D-01 -0.321017D-01
     18 -0.526671D-02 -0.109474D-02 -0.240337D-01 -0.181348D-01  0.345052D-01
     19 -0.496468D-02 -0.103997D-01 -0.175672D-02 -0.318029D-01 -0.113854D-01
     20 -0.126938D-01  0.218614D-02 -0.157645D-02 -0.478310D-02 -0.187479D-01
     21 -0.178267D-02 -0.146279D-02  0.111693D-01 -0.320155D-01 -0.192428D-01
                6             7             8             9            10 
      6  0.183382D+00
      7 -0.144226D-03  0.761534D-01
      8  0.429518D-03  0.132305D-02  0.567208D-01
      9  0.261992D-02 -0.336317D-02  0.341918D-03  0.259703D-01
     10 -0.663335D-02 -0.317532D-01 -0.265729D-01  0.249614D-02  0.140499D+00
     11  0.789386D-02  0.104379D-01 -0.432976D-01  0.233437D-02 -0.210567D-01
     12 -0.400750D-01  0.626109D-03  0.472637D-02 -0.153874D-01 -0.200386D-03
     13  0.323626D-02 -0.505602D-02 -0.445805D-03 -0.946631D-02 -0.294008D-01
     14  0.544630D-02 -0.933093D-03  0.629227D-02 -0.890137D-03  0.112902D-01
     15 -0.327749D-01  0.879050D-03  0.610080D-05  0.306027D-02  0.924009D-02
     16  0.793373D-02  0.241727D-03  0.742230D-03 -0.389508D-03  0.159096D-03
     17 -0.170889D-02  0.363549D-02  0.724008D-02  0.195541D-02  0.110710D-01
     18 -0.354851D-01  0.142761D-02  0.121250D-02  0.693872D-02 -0.548046D-03
     19  0.892709D-02 -0.504304D-03  0.590169D-03 -0.284437D-03 -0.177978D-01
     20  0.622131D-02 -0.369556D-02  0.532611D-02 -0.116550D-02  0.194845D-01
     21 -0.420933D-01  0.842246D-03 -0.714716D-03  0.173440D-02 -0.206935D-02
               11            12            13            14            15 
     11  0.184762D+00
     12 -0.718905D-02  0.104386D+00
     13  0.167569D-02 -0.209241D-01  0.125292D+00
     14 -0.319306D-01  0.311116D-01 -0.147203D-02  0.110909D+00
     15 -0.612139D-02 -0.427014D-01 -0.771004D-02  0.101594D-01  0.184907D+00
     16  0.131360D-01 -0.572995D-03 -0.234226D-01  0.145819D-01 -0.502856D-02
     17 -0.310907D-02  0.881922D-03  0.127100D-01 -0.303666D-01  0.442376D-02
     18  0.813407D-03  0.112226D-01  0.211516D-01 -0.324659D-01 -0.345870D-01
     19 -0.149562D-01 -0.173805D-02 -0.359799D-01 -0.142053D-01 -0.862129D-02
     20 -0.168066D-01  0.331492D-02 -0.550458D-02 -0.192722D-01 -0.588729D-02
     21  0.165459D-03 -0.522865D-03  0.327503D-01  0.181867D-01 -0.370744D-01
               16            17            18            19            20 
     16  0.118299D+00
     17 -0.323673D-01  0.148862D+00
     18  0.235622D-02  0.670040D-03  0.842288D-01
     19 -0.241030D-01  0.149834D-01 -0.985868D-03  0.115153D+00
     20 -0.281805D-01 -0.485107D-01 -0.364050D-02  0.353731D-01  0.958252D-01
     21 -0.218430D-02  0.334705D-03 -0.828439D-02  0.445928D-02  0.273350D-02
               21 
     21  0.750713D-01
 Leave Link  716 at Mon Nov 13 12:30:36 2023, MaxMem=  1879048192 cpu:               0.5 elap:               0.0
 (Enter /home/sekinelabo/g16/l103.exe)

 GradGradGradGradGradGradGradGradGradGradGradGradGradGradGradGradGradGrad
 Berny optimization.
 Search for a local minimum.
 Step number   1 out of a maximum of    2
 All quantities printed in internal units (Hartrees-Bohrs-Radians)
 Second derivative matrix not updated -- first step.
 ITU=  0
     Eigenvalues ---    0.05266   0.06790   0.07229   0.13265   0.13967
     Eigenvalues ---    0.15317   0.17712   0.18186   0.18830   0.19870
     Eigenvalues ---    0.21062   0.23115   0.23891   0.24107   0.27823
 Quadratic step=3.123D-01 exceeds max=3.000D-01 adjusted using Lamda=-4.417D-03.
 Angle between NR and scaled steps=   1.02 degrees.
 Angle between quadratic step and forces=  22.61 degrees.
 Linear search not attempted -- first point.
 B after Tr=     0.000000    0.000000   -0.000000
         Rot=    1.000000    0.000000   -0.000000   -0.000000 Ang=   0.00 deg.
 Variable       Old X    -DE/DX   Delta X   Delta X   Delta X     New X
                                 (Linear)    (Quad)   (Total)
    X1        5.08206  -0.00607   0.00000  -0.04384  -0.04384   5.03823
    Y1        0.61539  -0.01951   0.00000  -0.09604  -0.09604   0.51936
    Z1        3.18396  -0.00203   0.00000  -0.01364  -0.01364   3.17032
    X2        8.56109   0.00124   0.00000   0.03532   0.03532   8.59641
    Y2        3.76998   0.00392   0.00000   0.00930   0.00930   3.77928
    Z2        0.00000  -0.01504   0.00000  -0.08686  -0.08686  -0.08686
    X3        0.00000  -0.00677   0.00000  -0.12650  -0.12650  -0.12650
    Y3        3.04977  -0.00056   0.00000   0.00780   0.00780   3.05757
    Z3        3.78501   0.00164   0.00000   0.01728   0.01728   3.80229
    X4        4.65292  -0.00059   0.00000  -0.02694  -0.02694   4.62598
    Y4        6.24131   0.01961   0.00000   0.09902   0.09902   6.34033
    Z4        3.30650  -0.00090   0.00000  -0.01039  -0.01039   3.29612
    X5        7.93235  -0.00186   0.00000   0.01036   0.01036   7.94271
    Y5        3.57270   0.00238   0.00000  -0.00022  -0.00022   3.57248
    Z5        7.11150   0.01453   0.00000   0.07860   0.07860   7.19010
    X6       10.67575   0.00765   0.00000   0.07527   0.07527  10.75102
    Y6        0.00000  -0.01968   0.00000  -0.12095  -0.12095  -0.12095
    Z6        3.66632   0.00054   0.00000   0.00139   0.00139   3.66771
    X7       12.29058   0.00641   0.00000   0.07633   0.07633  12.36691
    Y7        5.40423   0.01384   0.00000   0.10109   0.10109   5.50532
    Z7        3.96012   0.00127   0.00000   0.01363   0.01363   3.97374
         Item               Value     Threshold  Converged?
 Maximum Force            0.019679     0.000450     NO 
 RMS     Force            0.009758     0.000300     NO 
 Maximum Displacement     0.126495     0.001800     NO 
 RMS     Displacement     0.065473     0.001200     NO 
 Predicted change in Energy=-6.391828D-03
 GradGradGradGradGradGradGradGradGradGradGradGradGradGradGradGradGradGrad

 Leave Link  103 at Mon Nov 13 12:30:36 2023, MaxMem=  1879048192 cpu:               0.2 elap:               0.0
 (Enter /home/sekinelabo/g16/l9999.exe)
 1\1\GINC-SEKINELABO-XA7R-R37\Force\UB3LYP\6-311+G(d)\Na7(2)\SEKINELABO
 \13-Nov-2023\0\\#P B3LYP/6-311+g(d) force\\Gaussian input prepared by 
 ASE\\0,2\Na,2.6893124805,0.3256512911,1.684879223\Na,4.5303340929,1.99
 49886552,0.\Na,0.,1.6138688922,2.0029386598\Na,2.4622187681,3.30275824
 84,1.7497264774\Na,4.1976205984,1.8905928095,3.7632427711\Na,5.6493632
 687,0.,1.9401351548\Na,6.5038946689,2.8597937872,2.0956038267\\Version
 =ES64L-G16RevB.01\State=2-A\HF=-1136.0914363\S2=0.763994\S2-1=0.\S2A=0
 .750128\RMSD=9.495e-09\RMSF=9.758e-03\Dipole=-0.3909511,0.0777427,0.05
 19067\Quadrupole=15.208067,-11.7405406,-3.4675264,0.3010224,-0.3916316
 ,0.1096306\PG=C01 [X(Na7)]\\@


 THE DIFFERENCE BETWEEN A NOOSE AND A HALO IS ONLY 12 INCHES.
 Job cpu time:       0 days  0 hours  5 minutes  5.6 seconds.
 Elapsed time:       0 days  0 hours  0 minutes 24.9 seconds.
 File lengths (MBytes):  RWF=     32 Int=      0 D2E=      0 Chk=      5 Scr=      1
 Normal termination of Gaussian 16 at Mon Nov 13 12:30:36 2023.
