 Entering Gaussian System, Link 0=g16
 Initial command:
 /home/sekinelabo/g16/l1.exe "/home/sekinelabo/g16temp/Gau-3988974.inp" -scrdir="/home/sekinelabo/g16temp/"
 Entering Link 1 = /home/sekinelabo/g16/l1.exe PID=   3988976.
  
 Copyright (c) 1988-2017, Gaussian, Inc.  All Rights Reserved.
  
 This is part of the Gaussian(R) 16 program.  It is based on
 the Gaussian(R) 09 system (copyright 2009, Gaussian, Inc.),
 the Gaussian(R) 03 system (copyright 2003, Gaussian, Inc.),
 the Gaussian(R) 98 system (copyright 1998, Gaussian, Inc.),
 the Gaussian(R) 94 system (copyright 1995, Gaussian, Inc.),
 the Gaussian 92(TM) system (copyright 1992, Gaussian, Inc.),
 the Gaussian 90(TM) system (copyright 1990, Gaussian, Inc.),
 the Gaussian 88(TM) system (copyright 1988, Gaussian, Inc.),
 the Gaussian 86(TM) system (copyright 1986, Carnegie Mellon
 University), and the Gaussian 82(TM) system (copyright 1983,
 Carnegie Mellon University). Gaussian is a federally registered
 trademark of Gaussian, Inc.
  
 This software contains proprietary and confidential information,
 including trade secrets, belonging to Gaussian, Inc.
  
 This software is provided under written license and may be
 used, copied, transmitted, or stored only in accord with that
 written license.
  
 The following legend is applicable only to US Government
 contracts under FAR:
  
                    RESTRICTED RIGHTS LEGEND
  
 Use, reproduction and disclosure by the US Government is
 subject to restrictions as set forth in subparagraphs (a)
 and (c) of the Commercial Computer Software - Restricted
 Rights clause in FAR 52.227-19.
  
 Gaussian, Inc.
 340 Quinnipiac St., Bldg. 40, Wallingford CT 06492
  
  
 ---------------------------------------------------------------
 Warning -- This program may not be used in any manner that
 competes with the business of Gaussian, Inc. or will provide
 assistance to any competitor of Gaussian, Inc.  The licensee
 of this program is prohibited from giving any competitor of
 Gaussian, Inc. access to this program.  By using this program,
 the user acknowledges that Gaussian, Inc. is engaged in the
 business of creating and licensing software in the field of
 computational chemistry and represents and warrants to the
 licensee that it is not a competitor of Gaussian, Inc. and that
 it will not use this program in any manner prohibited above.
 ---------------------------------------------------------------
  

 Cite this work as:
 Gaussian 16, Revision B.01,
 M. J. Frisch, G. W. Trucks, H. B. Schlegel, G. E. Scuseria, 
 M. A. Robb, J. R. Cheeseman, G. Scalmani, V. Barone, 
 G. A. Petersson, H. Nakatsuji, X. Li, M. Caricato, A. V. Marenich, 
 J. Bloino, B. G. Janesko, R. Gomperts, B. Mennucci, H. P. Hratchian, 
 J. V. Ortiz, A. F. Izmaylov, J. L. Sonnenberg, D. Williams-Young, 
 F. Ding, F. Lipparini, F. Egidi, J. Goings, B. Peng, A. Petrone, 
 T. Henderson, D. Ranasinghe, V. G. Zakrzewski, J. Gao, N. Rega, 
 G. Zheng, W. Liang, M. Hada, M. Ehara, K. Toyota, R. Fukuda, 
 J. Hasegawa, M. Ishida, T. Nakajima, Y. Honda, O. Kitao, H. Nakai, 
 T. Vreven, K. Throssell, J. A. Montgomery, Jr., J. E. Peralta, 
 F. Ogliaro, M. J. Bearpark, J. J. Heyd, E. N. Brothers, K. N. Kudin, 
 V. N. Staroverov, T. A. Keith, R. Kobayashi, J. Normand, 
 K. Raghavachari, A. P. Rendell, J. C. Burant, S. S. Iyengar, 
 J. Tomasi, M. Cossi, J. M. Millam, M. Klene, C. Adamo, R. Cammi, 
 J. W. Ochterski, R. L. Martin, K. Morokuma, O. Farkas, 
 J. B. Foresman, and D. J. Fox, Gaussian, Inc., Wallingford CT, 2016.
 
 ******************************************
 Gaussian 16:  ES64L-G16RevB.01 20-Dec-2017
                13-Nov-2023 
 ******************************************
 %mem=14GB
 %chk=checkpoint.chk
 %nprocshared=16
 Will use up to   16 processors via shared memory.
 -------------------------
 #P B3LYP/6-311+g(d) force
 -------------------------
 1/10=7,30=1,38=1/1,3;
 2/12=2,17=6,18=5,40=1/2;
 3/5=4,6=6,7=11,11=2,25=1,30=1,71=1,74=-5/1,2,3;
 4//1;
 5/5=2,38=5/2;
 6/7=2,8=2,9=2,10=2,28=1/1;
 7/29=1/1,2,3,16;
 1/10=7,30=1/3;
 99//99;
 Leave Link    1 at Mon Nov 13 12:30:36 2023, MaxMem=  1879048192 cpu:               0.3 elap:               0.0
 (Enter /home/sekinelabo/g16/l101.exe)
 ------------------------------
 Gaussian input prepared by ASE
 ------------------------------
 Symbolic Z-matrix:
 Charge =  0 Multiplicity = 2
 Na                    7.36769   3.9941    1.11789 
 Na                    4.41135   0.        0. 
 Na                    9.09822   1.84046   2.28872 
 Na                    6.70985   0.97262   3.88147 
 Na                    4.98081   2.31195   1.82308 
 Na                    2.27763   3.60385   1.93982 
 Na                    0.        1.82561   2.73028 
 
 ITRead=  0  0  0  0  0  0  0
 MicOpt= -1 -1 -1 -1 -1 -1 -1
 NAtoms=      7 NQM=        7 NQMF=       0 NMMI=      0 NMMIF=      0
                NMic=       0 NMicF=      0.
                    Isotopes and Nuclear Properties:
 (Nuclear quadrupole moments (NQMom) in fm**2, nuclear magnetic moments (NMagM)
  in nuclear magnetons)

  Atom         1           2           3           4           5           6           7
 IAtWgt=          23          23          23          23          23          23          23
 AtmWgt=  22.9897697  22.9897697  22.9897697  22.9897697  22.9897697  22.9897697  22.9897697
 NucSpn=           3           3           3           3           3           3           3
 AtZEff=  -0.0000000  -0.0000000  -0.0000000  -0.0000000  -0.0000000  -0.0000000  -0.0000000
 NQMom=   10.4000000  10.4000000  10.4000000  10.4000000  10.4000000  10.4000000  10.4000000
 NMagM=    2.2175200   2.2175200   2.2175200   2.2175200   2.2175200   2.2175200   2.2175200
 AtZNuc=  11.0000000  11.0000000  11.0000000  11.0000000  11.0000000  11.0000000  11.0000000
 Leave Link  101 at Mon Nov 13 12:30:36 2023, MaxMem=  1879048192 cpu:               2.6 elap:               0.2
 (Enter /home/sekinelabo/g16/l103.exe)

 GradGradGradGradGradGradGradGradGradGradGradGradGradGradGradGradGradGrad
 Berny optimization.
 Initialization pass.
 Trust Radius=3.00D-01 FncErr=1.00D-07 GrdErr=1.00D-07 EigMax=2.50D+02 EigMin=1.00D-04
 Number of steps in this run=      2 maximum allowed number of steps=      2.
 GradGradGradGradGradGradGradGradGradGradGradGradGradGradGradGradGradGrad

 Leave Link  103 at Mon Nov 13 12:30:36 2023, MaxMem=  1879048192 cpu:               0.2 elap:               0.0
 (Enter /home/sekinelabo/g16/l202.exe)
                          Input orientation:                          
 ---------------------------------------------------------------------
 Center     Atomic      Atomic             Coordinates (Angstroms)
 Number     Number       Type             X           Y           Z
 ---------------------------------------------------------------------
      1         11           0        7.367685    3.994104    1.117891
      2         11           0        4.411348    0.000000    0.000000
      3         11           0        9.098222    1.840458    2.288717
      4         11           0        6.709845    0.972617    3.881475
      5         11           0        4.980809    2.311948    1.823078
      6         11           0        2.277626    3.603846    1.939817
      7         11           0        0.000000    1.825611    2.730283
 ---------------------------------------------------------------------
                    Distance matrix (angstroms):
                    1          2          3          4          5
     1  Na   0.000000
     2  Na   5.093375   0.000000
     3  Na   3.000630   5.531030   0.000000
     4  Na   4.147232   4.614642   2.999061   0.000000
     5  Na   3.004017   2.998834   4.170397   3.003393   0.000000
     6  Na   5.170742   4.615558   7.053495   5.507992   2.998304
     7  Na   7.847608   5.499754   9.108943   6.861113   5.086059
                    6          7
     6  Na   0.000000
     7  Na   2.995753   0.000000
 Stoichiometry    Na7(2)
 Framework group  C1[X(Na7)]
 Deg. of freedom    15
 Full point group                 C1      NOp   1
 Largest Abelian subgroup         C1      NOp   1
 Largest concise Abelian subgroup C1      NOp   1
                         Standard orientation:                         
 ---------------------------------------------------------------------
 Center     Atomic      Atomic             Coordinates (Angstroms)
 Number     Number       Type             X           Y           Z
 ---------------------------------------------------------------------
      1         11           0       -2.389752    1.915734    0.850861
      2         11           0        0.566585   -2.078369    1.968751
      3         11           0       -4.120288   -0.237911   -0.319966
      4         11           0       -1.731912   -1.105752   -1.912723
      5         11           0       -0.002875    0.233579    0.145673
      6         11           0        2.700308    1.525477    0.028934
      7         11           0        4.977934   -0.252758   -0.761531
 ---------------------------------------------------------------------
 Rotational constants (GHZ):           1.0631361           0.3278930           0.3149657
 Leave Link  202 at Mon Nov 13 12:30:36 2023, MaxMem=  1879048192 cpu:               0.0 elap:               0.0
 (Enter /home/sekinelabo/g16/l301.exe)
 Standard basis: 6-311+G(d) (5D, 7F)
 Ernie: Thresh=  0.10000D-02 Tol=  0.10000D-05 Strict=F.
 There are   217 symmetry adapted cartesian basis functions of A   symmetry.
 There are   210 symmetry adapted basis functions of A   symmetry.
   210 basis functions,   350 primitive gaussians,   217 cartesian basis functions
    39 alpha electrons       38 beta electrons
       nuclear repulsion energy       313.9324575180 Hartrees.
 IExCor=  402 DFT=T Ex+Corr=B3LYP ExCW=0 ScaHFX=  0.200000
 ScaDFX=  0.800000  0.720000  1.000000  0.810000 ScalE2=  1.000000  1.000000
 IRadAn=      5 IRanWt=     -1 IRanGd=            0 ICorTp=0 IEmpDi=  4
 NAtoms=    7 NActive=    7 NUniq=    7 SFac= 1.00D+00 NAtFMM=   60 NAOKFM=F Big=F
 Integral buffers will be    131072 words long.
 Raffenetti 2 integral format.
 Two-electron integral symmetry is turned on.
 Leave Link  301 at Mon Nov 13 12:30:36 2023, MaxMem=  1879048192 cpu:               0.5 elap:               0.0
 (Enter /home/sekinelabo/g16/l302.exe)
 NPDir=0 NMtPBC=     1 NCelOv=     1 NCel=       1 NClECP=     1 NCelD=      1
         NCelK=      1 NCelE2=     1 NClLst=     1 CellRange=     0.0.
 One-electron integrals computed using PRISM.
 One-electron integral symmetry used in STVInt
 NBasis=   210 RedAO= T EigKep=  1.68D-06  NBF=   210
 NBsUse=   210 1.00D-06 EigRej= -1.00D+00 NBFU=   210
 Precomputing XC quadrature grid using
 IXCGrd= 4 IRadAn=           5 IRanWt=          -1 IRanGd=           0 AccXCQ= 0.00D+00.
 Generated NRdTot=       0 NPtTot=           0 NUsed=           0 NTot=          32
 NSgBfM=   208   208   208   208   208 MxSgAt=     7 MxSgA2=     7.
 Leave Link  302 at Mon Nov 13 12:30:37 2023, MaxMem=  1879048192 cpu:               2.1 elap:               0.1
 (Enter /home/sekinelabo/g16/l303.exe)
 DipDrv:  MaxL=1.
 Leave Link  303 at Mon Nov 13 12:30:37 2023, MaxMem=  1879048192 cpu:               0.5 elap:               0.0
 (Enter /home/sekinelabo/g16/l401.exe)
 ExpMin= 7.60D-03 ExpMax= 3.62D+04 ExpMxC= 1.21D+03 IAcc=3 IRadAn=         5 AccDes= 0.00D+00
 Harris functional with IExCor=  402 and IRadAn=       5 diagonalized for initial guess.
 HarFok:  IExCor=  402 AccDes= 0.00D+00 IRadAn=         5 IDoV= 1 UseB2=F ITyADJ=14
 ICtDFT=  3500011 ScaDFX=  1.000000  1.000000  1.000000  1.000000
 FoFCou: FMM=F IPFlag=           0 FMFlag=      100000 FMFlg1=           0
         NFxFlg=           0 DoJE=T BraDBF=F KetDBF=T FulRan=T
         wScrn=  0.000000 ICntrl=       500 IOpCl=  0 I1Cent=   200000004 NGrid=           0
         NMat0=    1 NMatS0=      1 NMatT0=    0 NMatD0=    1 NMtDS0=    0 NMtDT0=    0
 Petite list used in FoFCou.
 Harris En= -1135.86217074785    
 JPrj=0 DoOrth=F DoCkMO=F.
 Initial guess <Sx>= 0.0000 <Sy>= 0.0000 <Sz>= 0.5000 <S**2>= 0.7500 S= 0.5000
 Leave Link  401 at Mon Nov 13 12:30:37 2023, MaxMem=  1879048192 cpu:               4.6 elap:               0.3
 (Enter /home/sekinelabo/g16/l502.exe)
 Keep R1 and R2 ints in memory in canonical form, NReq=507620360.
 FoFCou: FMM=F IPFlag=           0 FMFlag=           0 FMFlg1=           0
         NFxFlg=           0 DoJE=F BraDBF=F KetDBF=F FulRan=T
         wScrn=  0.000000 ICntrl=       600 IOpCl=  0 I1Cent=           0 NGrid=           0
         NMat0=    1 NMatS0=  22155 NMatT0=    0 NMatD0=    1 NMtDS0=    0 NMtDT0=    0
 Symmetry not used in FoFCou.
 Two-electron integral symmetry not used.
 UHF open shell SCF:
 Using DIIS extrapolation, IDIIS=  1040.
 NGot=  1879048192 LenX=  1388082376 LenY=  1388034846
 Requested convergence on RMS density matrix=1.00D-08 within 128 cycles.
 Requested convergence on MAX density matrix=1.00D-06.
 Requested convergence on             energy=1.00D-06.
 No special actions if energy rises.

 Cycle   1  Pass 1  IDiag  1:
 E= -1136.06158810493    
 DIIS: error= 9.81D-03 at cycle   1 NSaved=   1.
 NSaved= 1 IEnMin= 1 EnMin= -1136.06158810493     IErMin= 1 ErrMin= 9.81D-03
 ErrMax= 9.81D-03  0.00D+00 EMaxC= 1.00D-01 BMatC= 1.88D-01 BMatP= 1.88D-01
 IDIUse=3 WtCom= 9.02D-01 WtEn= 9.81D-02
 Coeff-Com:  0.100D+01
 Coeff-En:   0.100D+01
 Coeff:      0.100D+01
 Gap=     0.042 Goal=   None    Shift=    0.000
 Gap=     0.025 Goal=   None    Shift=    0.000
 GapD=    0.025 DampG=0.250 DampE=1.000 DampFc=0.2500 IDamp=-1.
 Damping current iteration by 2.50D-01
 RMSDP=2.59D-02 MaxDP=2.48D+00              OVMax= 1.82D-01

 Cycle   2  Pass 1  IDiag  1:
 E= -1136.07121052954     Delta-E=       -0.009622424607 Rises=F Damp=T
 DIIS: error= 6.82D-03 at cycle   2 NSaved=   2.
 NSaved= 2 IEnMin= 2 EnMin= -1136.07121052954     IErMin= 2 ErrMin= 6.82D-03
 ErrMax= 6.82D-03  0.00D+00 EMaxC= 1.00D-01 BMatC= 7.26D-02 BMatP= 1.88D-01
 IDIUse=3 WtCom= 9.32D-01 WtEn= 6.82D-02
 Coeff-Com: -0.130D+01 0.230D+01
 Coeff-En:   0.000D+00 0.100D+01
 Coeff:     -0.121D+01 0.221D+01
 Gap=     0.034 Goal=   None    Shift=    0.000
 Gap=     0.034 Goal=   None    Shift=    0.000
 RMSDP=1.51D-02 MaxDP=1.77D+00 DE=-9.62D-03 OVMax= 1.91D-01

 Cycle   3  Pass 1  IDiag  1:
 E= -1136.08683744276     Delta-E=       -0.015626913225 Rises=F Damp=F
 DIIS: error= 2.45D-03 at cycle   3 NSaved=   3.
 NSaved= 3 IEnMin= 3 EnMin= -1136.08683744276     IErMin= 3 ErrMin= 2.45D-03
 ErrMax= 2.45D-03  0.00D+00 EMaxC= 1.00D-01 BMatC= 3.16D-03 BMatP= 7.26D-02
 IDIUse=3 WtCom= 9.76D-01 WtEn= 2.45D-02
 Coeff-Com: -0.263D+00 0.451D+00 0.812D+00
 Coeff-En:   0.000D+00 0.000D+00 0.100D+01
 Coeff:     -0.257D+00 0.440D+00 0.817D+00
 Gap=     0.035 Goal=   None    Shift=    0.000
 Gap=     0.030 Goal=   None    Shift=    0.000
 RMSDP=7.13D-03 MaxDP=4.06D-01 DE=-1.56D-02 OVMax= 1.89D-01

 Cycle   4  Pass 1  IDiag  1:
 E= -1136.08441051299     Delta-E=        0.002426929778 Rises=F Damp=F
 DIIS: error= 3.04D-03 at cycle   4 NSaved=   4.
 NSaved= 4 IEnMin= 3 EnMin= -1136.08683744276     IErMin= 3 ErrMin= 2.45D-03
 ErrMax= 3.04D-03  0.00D+00 EMaxC= 1.00D-01 BMatC= 5.22D-03 BMatP= 3.16D-03
 IDIUse=3 WtCom= 1.53D-01 WtEn= 8.47D-01
 Coeff-Com: -0.147D-01 0.221D-01 0.561D+00 0.431D+00
 Coeff-En:   0.000D+00 0.000D+00 0.594D+00 0.406D+00
 Coeff:     -0.225D-02 0.339D-02 0.589D+00 0.410D+00
 Gap=     0.035 Goal=   None    Shift=    0.000
 Gap=     0.032 Goal=   None    Shift=    0.000
 RMSDP=3.09D-03 MaxDP=1.16D-01 DE= 2.43D-03 OVMax= 1.08D-01

 Cycle   5  Pass 1  IDiag  1:
 E= -1136.09067982498     Delta-E=       -0.006269311989 Rises=F Damp=F
 DIIS: error= 3.66D-04 at cycle   5 NSaved=   5.
 NSaved= 5 IEnMin= 5 EnMin= -1136.09067982498     IErMin= 5 ErrMin= 3.66D-04
 ErrMax= 3.66D-04  0.00D+00 EMaxC= 1.00D-01 BMatC= 7.81D-05 BMatP= 3.16D-03
 IDIUse=3 WtCom= 9.96D-01 WtEn= 3.66D-03
 Coeff-Com:  0.555D-03-0.134D-02 0.257D+00 0.150D+00 0.594D+00
 Coeff-En:   0.000D+00 0.000D+00 0.000D+00 0.000D+00 0.100D+01
 Coeff:      0.553D-03-0.134D-02 0.256D+00 0.149D+00 0.595D+00
 Gap=     0.034 Goal=   None    Shift=    0.000
 Gap=     0.031 Goal=   None    Shift=    0.000
 RMSDP=4.46D-04 MaxDP=2.16D-02 DE=-6.27D-03 OVMax= 1.26D-02

 Cycle   6  Pass 1  IDiag  1:
 E= -1136.09076701789     Delta-E=       -0.000087192919 Rises=F Damp=F
 DIIS: error= 1.91D-04 at cycle   6 NSaved=   6.
 NSaved= 6 IEnMin= 6 EnMin= -1136.09076701789     IErMin= 6 ErrMin= 1.91D-04
 ErrMax= 1.91D-04  0.00D+00 EMaxC= 1.00D-01 BMatC= 1.17D-05 BMatP= 7.81D-05
 IDIUse=3 WtCom= 9.98D-01 WtEn= 1.91D-03
 Coeff-Com:  0.157D-02-0.274D-02 0.295D-01-0.612D-02 0.319D+00 0.659D+00
 Coeff-En:   0.000D+00 0.000D+00 0.000D+00 0.000D+00 0.000D+00 0.100D+01
 Coeff:      0.157D-02-0.274D-02 0.295D-01-0.611D-02 0.318D+00 0.660D+00
 Gap=     0.034 Goal=   None    Shift=    0.000
 Gap=     0.032 Goal=   None    Shift=    0.000
 RMSDP=3.01D-04 MaxDP=2.10D-02 DE=-8.72D-05 OVMax= 1.46D-02

 Cycle   7  Pass 1  IDiag  1:
 E= -1136.09080442718     Delta-E=       -0.000037409290 Rises=F Damp=F
 DIIS: error= 1.27D-04 at cycle   7 NSaved=   7.
 NSaved= 7 IEnMin= 7 EnMin= -1136.09080442718     IErMin= 7 ErrMin= 1.27D-04
 ErrMax= 1.27D-04  0.00D+00 EMaxC= 1.00D-01 BMatC= 2.68D-06 BMatP= 1.17D-05
 IDIUse=3 WtCom= 9.99D-01 WtEn= 1.27D-03
 Coeff-Com: -0.553D-03 0.605D-03-0.185D-01-0.193D-01 0.493D-01 0.262D+00
 Coeff-Com:  0.726D+00
 Coeff-En:   0.000D+00 0.000D+00 0.000D+00 0.000D+00 0.000D+00 0.000D+00
 Coeff-En:   0.100D+01
 Coeff:     -0.552D-03 0.604D-03-0.185D-01-0.193D-01 0.493D-01 0.262D+00
 Coeff:      0.727D+00
 Gap=     0.035 Goal=   None    Shift=    0.000
 Gap=     0.032 Goal=   None    Shift=    0.000
 RMSDP=2.39D-04 MaxDP=1.40D-02 DE=-3.74D-05 OVMax= 1.26D-02

 Cycle   8  Pass 1  IDiag  1:
 E= -1136.09083338312     Delta-E=       -0.000028955933 Rises=F Damp=F
 DIIS: error= 1.17D-04 at cycle   8 NSaved=   8.
 NSaved= 8 IEnMin= 8 EnMin= -1136.09083338312     IErMin= 8 ErrMin= 1.17D-04
 ErrMax= 1.17D-04  0.00D+00 EMaxC= 1.00D-01 BMatC= 2.06D-06 BMatP= 2.68D-06
 IDIUse=3 WtCom= 9.99D-01 WtEn= 1.17D-03
 Coeff-Com: -0.603D-05-0.655D-05-0.109D-01-0.985D-02 0.922D-02 0.669D-01
 Coeff-Com:  0.341D+00 0.604D+00
 Coeff-En:   0.000D+00 0.000D+00 0.000D+00 0.000D+00 0.000D+00 0.000D+00
 Coeff-En:   0.000D+00 0.100D+01
 Coeff:     -0.602D-05-0.654D-05-0.109D-01-0.984D-02 0.921D-02 0.668D-01
 Coeff:      0.340D+00 0.604D+00
 Gap=     0.035 Goal=   None    Shift=    0.000
 Gap=     0.032 Goal=   None    Shift=    0.000
 RMSDP=1.87D-04 MaxDP=1.10D-02 DE=-2.90D-05 OVMax= 9.64D-03

 Cycle   9  Pass 1  IDiag  1:
 E= -1136.09085676085     Delta-E=       -0.000023377733 Rises=F Damp=F
 DIIS: error= 1.17D-04 at cycle   9 NSaved=   9.
 NSaved= 9 IEnMin= 9 EnMin= -1136.09085676085     IErMin= 9 ErrMin= 1.17D-04
 ErrMax= 1.17D-04  0.00D+00 EMaxC= 1.00D-01 BMatC= 1.99D-06 BMatP= 2.06D-06
 IDIUse=3 WtCom= 9.99D-01 WtEn= 1.17D-03
 Coeff-Com:  0.217D-03-0.296D-03-0.653D-02-0.690D-02 0.149D-01 0.386D-01
 Coeff-Com:  0.204D+00 0.382D+00 0.374D+00
 Coeff-En:   0.000D+00 0.000D+00 0.000D+00 0.000D+00 0.000D+00 0.000D+00
 Coeff-En:   0.000D+00 0.000D+00 0.100D+01
 Coeff:      0.217D-03-0.296D-03-0.652D-02-0.689D-02 0.149D-01 0.385D-01
 Coeff:      0.203D+00 0.382D+00 0.375D+00
 Gap=     0.035 Goal=   None    Shift=    0.000
 Gap=     0.032 Goal=   None    Shift=    0.000
 RMSDP=1.08D-04 MaxDP=6.37D-03 DE=-2.34D-05 OVMax= 5.40D-03

 Cycle  10  Pass 1  IDiag  1:
 E= -1136.09087006152     Delta-E=       -0.000013300668 Rises=F Damp=F
 DIIS: error= 1.17D-04 at cycle  10 NSaved=  10.
 NSaved=10 IEnMin=10 EnMin= -1136.09087006152     IErMin= 9 ErrMin= 1.17D-04
 ErrMax= 1.17D-04  0.00D+00 EMaxC= 1.00D-01 BMatC= 2.01D-06 BMatP= 1.99D-06
 IDIUse=3 WtCom= 9.99D-01 WtEn= 1.17D-03
 Coeff-Com:  0.116D-02-0.149D-02-0.116D-01-0.606D-02-0.531D-01-0.105D+00
 Coeff-Com:  0.128D+00 0.174D+01 0.646D+01-0.715D+01
 Coeff-En:   0.000D+00 0.000D+00 0.000D+00 0.000D+00 0.000D+00 0.000D+00
 Coeff-En:   0.000D+00 0.000D+00 0.000D+00 0.100D+01
 Coeff:      0.115D-02-0.149D-02-0.116D-01-0.605D-02-0.530D-01-0.105D+00
 Coeff:      0.128D+00 0.173D+01 0.646D+01-0.714D+01
 Gap=     0.034 Goal=   None    Shift=    0.000
 Gap=     0.032 Goal=   None    Shift=    0.000
 RMSDP=8.86D-04 MaxDP=5.25D-02 DE=-1.33D-05 OVMax= 4.38D-02

 Cycle  11  Pass 1  IDiag  1:
 E= -1136.09076666850     Delta-E=        0.000103393023 Rises=F Damp=F
 DIIS: error= 1.08D-04 at cycle  11 NSaved=  11.
 NSaved=11 IEnMin=10 EnMin= -1136.09087006152     IErMin=11 ErrMin= 1.08D-04
 ErrMax= 1.08D-04  0.00D+00 EMaxC= 1.00D-01 BMatC= 1.86D-06 BMatP= 1.99D-06
 IDIUse=3 WtCom= 9.99D-01 WtEn= 1.08D-03
 Large coefficients: NSaved= 11 BigCof=   14.06 CofMax=   10.00 Det=-1.20D-09
 Inversion failed.  Reducing to 10 matrices.
 Large coefficients: NSaved= 10 BigCof=   12.49 CofMax=   10.00 Det=-1.33D-09
 Inversion failed.  Reducing to  9 matrices.
 Large coefficients: NSaved=  9 BigCof=   11.46 CofMax=   10.00 Det=-1.43D-09
 Inversion failed.  Reducing to  8 matrices.
 Large coefficients: NSaved=  8 BigCof=   11.49 CofMax=   10.00 Det=-1.43D-09
 Inversion failed.  Reducing to  7 matrices.
 Large coefficients: NSaved=  7 BigCof=   11.18 CofMax=   10.00 Det=-1.82D-09
 Inversion failed.  Reducing to  6 matrices.
 Large coefficients: NSaved=  6 BigCof=   11.41 CofMax=   10.00 Det=-2.14D-09
 Inversion failed.  Reducing to  5 matrices.
 Rare condition: small coef for last iteration:  0.000D+00
 Coeff-Com:  0.200D+00 0.772D+00 0.693D+01-0.906D+01 0.215D+01
 Coeff-En:   0.000D+00 0.000D+00 0.000D+00 0.000D+00 0.100D+01
 Coeff:      0.200D+00 0.772D+00 0.693D+01-0.906D+01 0.215D+01
 Gap=     0.034 Goal=   None    Shift=    0.000
 Gap=     0.031 Goal=   None    Shift=    0.000
 RMSDP=1.97D-03 MaxDP=1.26D-01 DE= 1.03D-04 OVMax= 9.24D-02

 Cycle  12  Pass 1  IDiag  1:
 E= -1136.09058272122     Delta-E=        0.000183947274 Rises=F Damp=F
 DIIS: error= 7.82D-05 at cycle  12 NSaved=   6.
 NSaved= 6 IEnMin= 4 EnMin= -1136.09087006152     IErMin= 6 ErrMin= 7.82D-05
 ErrMax= 7.82D-05  0.00D+00 EMaxC= 1.00D-01 BMatC= 2.47D-06 BMatP= 1.86D-06
 IDIUse=1 WtCom= 1.00D+00 WtEn= 0.00D+00
 Coeff-Com:  0.207D+00 0.788D+00 0.678D+01-0.879D+01 0.195D+01 0.661D-01
 Coeff:      0.207D+00 0.788D+00 0.678D+01-0.879D+01 0.195D+01 0.661D-01
 Gap=     0.035 Goal=   None    Shift=    0.000
 Gap=     0.032 Goal=   None    Shift=    0.000
 RMSDP=1.09D-05 MaxDP=5.08D-04 DE= 1.84D-04 OVMax= 2.56D-04

 Cycle  13  Pass 1  IDiag  1:
 E= -1136.09058330095     Delta-E=       -0.000000579726 Rises=F Damp=F
 DIIS: error= 7.74D-05 at cycle  13 NSaved=   7.
 NSaved= 7 IEnMin= 4 EnMin= -1136.09087006152     IErMin= 7 ErrMin= 7.74D-05
 ErrMax= 7.74D-05  0.00D+00 EMaxC= 1.00D-01 BMatC= 2.23D-06 BMatP= 1.86D-06
 IDIUse=1 WtCom= 1.00D+00 WtEn= 0.00D+00
 Large coefficients: NSaved=  7 BigCof=   24.14 CofMax=   10.00 Det=-1.96D-09
 Inversion failed.  Reducing to  6 matrices.
 Large coefficients: NSaved=  6 BigCof=   22.01 CofMax=   10.00 Det=-2.54D-09
 Inversion failed.  Reducing to  5 matrices.
 Large coefficients: NSaved=  5 BigCof=   18.81 CofMax=   10.00 Det=-3.16D-09
 Inversion failed.  Reducing to  4 matrices.
 Large coefficients: NSaved=  4 BigCof=   18.02 CofMax=   10.00 Det=-3.73D-09
 Inversion failed.  Reducing to  3 matrices.
 Large coefficients: NSaved=  3 BigCof=   17.32 CofMax=   10.00 Det=-3.76D-09
 Inversion failed.  Reducing to  2 matrices.
 Large coefficients: NSaved=  2 BigCof=   11.06 CofMax=   10.00 Det=-1.12D-08
 Coeff-Com: -0.101D+02 0.111D+02
 Coeff:     -0.101D+02 0.111D+02
 Gap=     0.034 Goal=   None    Shift=    0.000
 Gap=     0.031 Goal=   None    Shift=    0.000
 RMSDP=2.85D-04 MaxDP=1.55D-02 DE=-5.80D-07 OVMax= 1.29D-02

 Cycle  14  Pass 1  IDiag  1:
 E= -1136.09060472766     Delta-E=       -0.000021426710 Rises=F Damp=F
 DIIS: error= 9.11D-05 at cycle  14 NSaved=   3.
 NSaved= 3 IEnMin= 3 EnMin= -1136.09060472766     IErMin= 2 ErrMin= 7.74D-05
 ErrMax= 9.11D-05  0.00D+00 EMaxC= 1.00D-01 BMatC= 1.22D-06 BMatP= 2.23D-06
 IDIUse=1 WtCom= 1.00D+00 WtEn= 0.00D+00
 Coeff-Com: -0.639D+01 0.696D+01 0.431D+00
 Coeff:     -0.639D+01 0.696D+01 0.431D+00
 Gap=     0.034 Goal=   None    Shift=    0.000
 Gap=     0.031 Goal=   None    Shift=    0.000
 RMSDP=9.62D-05 MaxDP=5.97D-03 DE=-2.14D-05 OVMax= 5.45D-03

 Cycle  15  Pass 1  IDiag  1:
 E= -1136.09061300646     Delta-E=       -0.000008278801 Rises=F Damp=F
 DIIS: error= 8.23D-05 at cycle  15 NSaved=   4.
 NSaved= 4 IEnMin= 4 EnMin= -1136.09061300646     IErMin= 2 ErrMin= 7.74D-05
 ErrMax= 8.23D-05  0.00D+00 EMaxC= 1.00D-01 BMatC= 9.95D-07 BMatP= 1.22D-06
 IDIUse=1 WtCom= 1.00D+00 WtEn= 0.00D+00
 Coeff-Com: -0.529D+01 0.576D+01 0.356D+00 0.174D+00
 Coeff:     -0.529D+01 0.576D+01 0.356D+00 0.174D+00
 Gap=     0.034 Goal=   None    Shift=    0.000
 Gap=     0.031 Goal=   None    Shift=    0.000
 RMSDP=3.89D-05 MaxDP=2.63D-03 DE=-8.28D-06 OVMax= 1.87D-03

 Cycle  16  Pass 1  IDiag  1:
 E= -1136.09061624740     Delta-E=       -0.000003240942 Rises=F Damp=F
 DIIS: error= 8.22D-05 at cycle  16 NSaved=   5.
 NSaved= 5 IEnMin= 5 EnMin= -1136.09061624740     IErMin= 2 ErrMin= 7.74D-05
 ErrMax= 8.22D-05  0.00D+00 EMaxC= 1.00D-01 BMatC= 1.00D-06 BMatP= 9.95D-07
 IDIUse=1 WtCom= 1.00D+00 WtEn= 0.00D+00
 Large coefficients: NSaved=  5 BigCof=   11.47 CofMax=   10.00 Det=-5.49D-10
 Inversion failed.  Reducing to  4 matrices.
 Coeff-Com: -0.139D-01 0.260D+00 0.382D+01-0.307D+01
 Coeff:     -0.139D-01 0.260D+00 0.382D+01-0.307D+01
 Gap=     0.034 Goal=   None    Shift=    0.000
 Gap=     0.031 Goal=   None    Shift=    0.000
 RMSDP=4.10D-05 MaxDP=3.10D-03 DE=-3.24D-06 OVMax= 1.82D-03

 Cycle  17  Pass 1  IDiag  1:
 E= -1136.09061934951     Delta-E=       -0.000003102108 Rises=F Damp=F
 DIIS: error= 8.27D-05 at cycle  17 NSaved=   5.
 NSaved= 5 IEnMin= 5 EnMin= -1136.09061934951     IErMin= 1 ErrMin= 7.74D-05
 ErrMax= 8.27D-05  0.00D+00 EMaxC= 1.00D-01 BMatC= 1.09D-06 BMatP= 9.95D-07
 IDIUse=1 WtCom= 1.00D+00 WtEn= 0.00D+00
 Large coefficients: NSaved=  5 BigCof=   65.92 CofMax=   10.00 Det=-8.46D-11
 Inversion failed.  Reducing to  4 matrices.
 Large coefficients: NSaved=  4 BigCof=   64.20 CofMax=   10.00 Det=-8.62D-11
 Inversion failed.  Reducing to  3 matrices.
 Coeff-Com:  0.848D+01-0.851D+01 0.103D+01
 Coeff:      0.848D+01-0.851D+01 0.103D+01
 Gap=     0.034 Goal=   None    Shift=    0.000
 Gap=     0.031 Goal=   None    Shift=    0.000
 RMSDP=1.17D-04 MaxDP=7.71D-03 DE=-3.10D-06 OVMax= 6.20D-03

 Cycle  18  Pass 1  IDiag  1:
 E= -1136.09060953099     Delta-E=        0.000009818518 Rises=F Damp=F
 DIIS: error= 9.09D-05 at cycle  18 NSaved=   4.
 NSaved= 4 IEnMin= 3 EnMin= -1136.09061934951     IErMin= 2 ErrMin= 8.22D-05
 ErrMax= 9.09D-05  0.00D+00 EMaxC= 1.00D-01 BMatC= 1.12D-06 BMatP= 9.95D-07
 IDIUse=1 WtCom= 1.00D+00 WtEn= 0.00D+00
 Large coefficients: NSaved=  4 BigCof=  100.76 CofMax=   10.00 Det=-5.80D-11
 Inversion failed.  Reducing to  3 matrices.
 Coeff-Com:  0.799D+00 0.418D-01 0.159D+00
 Coeff:      0.799D+00 0.418D-01 0.159D+00
 Gap=     0.034 Goal=   None    Shift=    0.000
 Gap=     0.032 Goal=   None    Shift=    0.000
 RMSDP=2.86D-04 MaxDP=1.82D-02 DE= 9.82D-06 OVMax= 1.45D-02

 Cycle  19  Pass 1  IDiag  1:
 E= -1136.09063430898     Delta-E=       -0.000024777988 Rises=F Damp=F
 DIIS: error= 8.71D-05 at cycle  19 NSaved=   4.
 NSaved= 4 IEnMin= 4 EnMin= -1136.09063430898     IErMin= 1 ErrMin= 8.22D-05
 ErrMax= 8.71D-05  0.00D+00 EMaxC= 1.00D-01 BMatC= 1.08D-06 BMatP= 1.00D-06
 IDIUse=1 WtCom= 1.00D+00 WtEn= 0.00D+00
 Coeff-Com:  0.770D+01 0.192D+01-0.825D+00-0.780D+01
 Coeff:      0.770D+01 0.192D+01-0.825D+00-0.780D+01
 Gap=     0.034 Goal=   None    Shift=    0.000
 Gap=     0.031 Goal=   None    Shift=    0.000
 RMSDP=1.59D-03 MaxDP=1.06D-01 DE=-2.48D-05 OVMax= 7.31D-02

 Cycle  20  Pass 1  IDiag  1:
 E= -1136.09051639917     Delta-E=        0.000117909805 Rises=F Damp=F
 DIIS: error= 7.23D-05 at cycle  20 NSaved=   5.
 NSaved= 5 IEnMin= 4 EnMin= -1136.09063430898     IErMin= 5 ErrMin= 7.23D-05
 ErrMax= 7.23D-05  0.00D+00 EMaxC= 1.00D-01 BMatC= 9.03D-07 BMatP= 1.00D-06
 IDIUse=1 WtCom= 1.00D+00 WtEn= 0.00D+00
 Coeff-Com:  0.631D+01 0.233D+01-0.784D+00-0.764D+01 0.782D+00
 Coeff:      0.631D+01 0.233D+01-0.784D+00-0.764D+01 0.782D+00
 Gap=     0.035 Goal=   None    Shift=    0.000
 Gap=     0.031 Goal=   None    Shift=    0.000
 RMSDP=1.09D-03 MaxDP=7.46D-02 DE= 1.18D-04 OVMax= 4.77D-02

 Cycle  21  Pass 1  IDiag  1:
 E= -1136.09045125328     Delta-E=        0.000065145894 Rises=F Damp=F
 DIIS: error= 6.39D-05 at cycle  21 NSaved=   6.
 NSaved= 6 IEnMin= 4 EnMin= -1136.09063430898     IErMin= 6 ErrMin= 6.39D-05
 ErrMax= 6.39D-05  0.00D+00 EMaxC= 1.00D-01 BMatC= 1.33D-06 BMatP= 9.03D-07
 IDIUse=1 WtCom= 1.00D+00 WtEn= 0.00D+00
 Coeff-Com:  0.728D+01 0.223D+01-0.705D+00-0.870D+01 0.146D+01-0.559D+00
 Coeff:      0.728D+01 0.223D+01-0.705D+00-0.870D+01 0.146D+01-0.559D+00
 Gap=     0.035 Goal=   None    Shift=    0.000
 Gap=     0.031 Goal=   None    Shift=    0.000
 RMSDP=2.08D-04 MaxDP=1.52D-02 DE= 6.51D-05 OVMax= 7.84D-03

 Cycle  22  Pass 1  IDiag  1:
 E= -1136.09046082694     Delta-E=       -0.000009573663 Rises=F Damp=F
 DIIS: error= 7.00D-05 at cycle  22 NSaved=   7.
 NSaved= 7 IEnMin= 4 EnMin= -1136.09063430898     IErMin= 6 ErrMin= 6.39D-05
 ErrMax= 7.00D-05  0.00D+00 EMaxC= 1.00D-01 BMatC= 2.13D-06 BMatP= 9.03D-07
 IDIUse=1 WtCom= 1.00D+00 WtEn= 0.00D+00
 Coeff-Com:  0.722D+01 0.216D+01-0.620D+00-0.867D+01 0.183D+01-0.128D+01
 Coeff-Com:  0.368D+00
 Coeff:      0.722D+01 0.216D+01-0.620D+00-0.867D+01 0.183D+01-0.128D+01
 Coeff:      0.368D+00
 Gap=     0.035 Goal=   None    Shift=    0.000
 Gap=     0.031 Goal=   None    Shift=    0.000
 RMSDP=4.20D-04 MaxDP=2.90D-02 DE=-9.57D-06 OVMax= 1.79D-02

 Cycle  23  Pass 1  IDiag  1:
 E= -1136.09048502015     Delta-E=       -0.000024193205 Rises=F Damp=F
 DIIS: error= 7.00D-05 at cycle  23 NSaved=   8.
 NSaved= 8 IEnMin= 4 EnMin= -1136.09063430898     IErMin= 6 ErrMin= 6.39D-05
 ErrMax= 7.00D-05  0.00D+00 EMaxC= 1.00D-01 BMatC= 2.08D-06 BMatP= 9.03D-07
 IDIUse=1 WtCom= 1.00D+00 WtEn= 0.00D+00
 Coeff-Com:  0.721D+01 0.214D+01-0.569D+00-0.869D+01 0.211D+01-0.196D+01
 Coeff-Com: -0.115D+01 0.192D+01
 Coeff:      0.721D+01 0.214D+01-0.569D+00-0.869D+01 0.211D+01-0.196D+01
 Coeff:     -0.115D+01 0.192D+01
 Gap=     0.035 Goal=   None    Shift=    0.000
 Gap=     0.031 Goal=   None    Shift=    0.000
 RMSDP=1.16D-03 MaxDP=7.94D-02 DE=-2.42D-05 OVMax= 5.11D-02

 Cycle  24  Pass 1  IDiag  1:
 E= -1136.09055715953     Delta-E=       -0.000072139379 Rises=F Damp=F
 DIIS: error= 8.25D-05 at cycle  24 NSaved=   9.
 NSaved= 9 IEnMin= 4 EnMin= -1136.09063430898     IErMin= 6 ErrMin= 6.39D-05
 ErrMax= 8.25D-05  0.00D+00 EMaxC= 1.00D-01 BMatC= 3.08D-06 BMatP= 9.03D-07
 IDIUse=1 WtCom= 1.00D+00 WtEn= 0.00D+00
 Coeff-Com: -0.104D+01-0.572D+00 0.882D+00-0.285D-01 0.364D+01-0.599D+01
 Coeff-Com:  0.279D+00 0.826D+01-0.443D+01
 Coeff:     -0.104D+01-0.572D+00 0.882D+00-0.285D-01 0.364D+01-0.599D+01
 Coeff:      0.279D+00 0.826D+01-0.443D+01
 Gap=     0.035 Goal=   None    Shift=    0.000
 Gap=     0.031 Goal=   None    Shift=    0.000
 RMSDP=2.59D-03 MaxDP=1.78D-01 DE=-7.21D-05 OVMax= 1.10D-01

 Cycle  25  Pass 1  IDiag  1:
 E= -1136.09040009821     Delta-E=        0.000157061313 Rises=F Damp=F
 DIIS: error= 8.80D-05 at cycle  25 NSaved=  10.
 NSaved=10 IEnMin= 4 EnMin= -1136.09063430898     IErMin= 6 ErrMin= 6.39D-05
 ErrMax= 8.80D-05  0.00D+00 EMaxC= 1.00D-01 BMatC= 5.24D-06 BMatP= 9.03D-07
 IDIUse=1 WtCom= 1.00D+00 WtEn= 0.00D+00
 Large coefficients: NSaved= 10 BigCof=   11.99 CofMax=   10.00 Det=-8.22D-10
 Inversion failed.  Reducing to  9 matrices.
 Coeff-Com:  0.123D+01 0.522D+00-0.315D-01-0.207D+01 0.616D+00 0.764D-01
 Coeff-Com:  0.445D+01-0.408D+01 0.284D+00
 Coeff:      0.123D+01 0.522D+00-0.315D-01-0.207D+01 0.616D+00 0.764D-01
 Coeff:      0.445D+01-0.408D+01 0.284D+00
 Gap=     0.039 Goal=   None    Shift=    0.000
 Gap=     0.033 Goal=   None    Shift=    0.000
 RMSDP=4.61D-03 MaxDP=3.27D-01 DE= 1.57D-04 OVMax= 1.63D-01

 Cycle  26  Pass 1  IDiag  1:
 E= -1136.08988846944     Delta-E=        0.000511628774 Rises=F Damp=F
 DIIS: error= 2.82D-04 at cycle  26 NSaved=  10.
 NSaved=10 IEnMin= 4 EnMin= -1136.09063430898     IErMin= 7 ErrMin= 7.00D-05
 ErrMax= 2.82D-04  0.00D+00 EMaxC= 1.00D-01 BMatC= 4.06D-05 BMatP= 9.03D-07
 IDIUse=1 WtCom= 1.00D+00 WtEn= 0.00D+00
 Coeff-Com: -0.368D+01-0.905D+00 0.509D+00 0.406D+01-0.147D+00 0.161D+01
 Coeff-Com:  0.169D+01-0.266D+01 0.822D+00-0.295D+00
 Coeff:     -0.368D+01-0.905D+00 0.509D+00 0.406D+01-0.147D+00 0.161D+01
 Coeff:      0.169D+01-0.266D+01 0.822D+00-0.295D+00
 Gap=     0.037 Goal=   None    Shift=    0.000
 Gap=     0.032 Goal=   None    Shift=    0.000
 RMSDP=3.46D-03 MaxDP=2.48D-01 DE= 5.12D-04 OVMax= 1.18D-01

 Cycle  27  Pass 1  IDiag  1:
 E= -1136.09032367663     Delta-E=       -0.000435207185 Rises=F Damp=F
 DIIS: error= 9.58D-05 at cycle  27 NSaved=  11.
 NSaved=11 IEnMin= 4 EnMin= -1136.09063430898     IErMin= 7 ErrMin= 7.00D-05
 ErrMax= 9.58D-05  0.00D+00 EMaxC= 1.00D-01 BMatC= 5.19D-06 BMatP= 9.03D-07
 IDIUse=1 WtCom= 1.00D+00 WtEn= 0.00D+00
 Coeff-Com: -0.205D+01-0.461D+00 0.332D+00 0.219D+01-0.605D-01 0.240D+01
 Coeff-Com:  0.128D+00-0.229D+01 0.619D+00-0.363D+00 0.563D+00
 Coeff:     -0.205D+01-0.461D+00 0.332D+00 0.219D+01-0.605D-01 0.240D+01
 Coeff:      0.128D+00-0.229D+01 0.619D+00-0.363D+00 0.563D+00
 Gap=     0.038 Goal=   None    Shift=    0.000
 Gap=     0.032 Goal=   None    Shift=    0.000
 RMSDP=9.63D-04 MaxDP=6.72D-02 DE=-4.35D-04 OVMax= 3.59D-02

 Cycle  28  Pass 1  IDiag  1:
 E= -1136.09023858724     Delta-E=        0.000085089386 Rises=F Damp=F
 DIIS: error= 1.31D-04 at cycle  28 NSaved=  12.
 NSaved=12 IEnMin= 4 EnMin= -1136.09063430898     IErMin= 7 ErrMin= 7.00D-05
 ErrMax= 1.31D-04  0.00D+00 EMaxC= 1.00D-01 BMatC= 9.32D-06 BMatP= 9.03D-07
 IDIUse=1 WtCom= 1.00D+00 WtEn= 0.00D+00
 Coeff-Com: -0.207D+01-0.467D+00 0.336D+00 0.221D+01-0.625D-01 0.239D+01
 Coeff-Com:  0.137D+00-0.229D+01 0.621D+00-0.360D+00 0.577D+00-0.194D-01
 Coeff:     -0.207D+01-0.467D+00 0.336D+00 0.221D+01-0.625D-01 0.239D+01
 Coeff:      0.137D+00-0.229D+01 0.621D+00-0.360D+00 0.577D+00-0.194D-01
 Gap=     0.038 Goal=   None    Shift=    0.000
 Gap=     0.032 Goal=   None    Shift=    0.000
 RMSDP=1.93D-05 MaxDP=1.34D-03 DE= 8.51D-05 OVMax= 7.09D-04

 Cycle  29  Pass 1  IDiag  1:
 E= -1136.09024053939     Delta-E=       -0.000001952150 Rises=F Damp=F
 DIIS: error= 1.30D-04 at cycle  29 NSaved=  13.
 NSaved=13 IEnMin= 4 EnMin= -1136.09063430898     IErMin= 7 ErrMin= 7.00D-05
 ErrMax= 1.30D-04  0.00D+00 EMaxC= 1.00D-01 BMatC= 9.21D-06 BMatP= 9.03D-07
 IDIUse=1 WtCom= 1.00D+00 WtEn= 0.00D+00
 Large coefficients: NSaved= 13 BigCof=   46.09 CofMax=   10.00 Det=-6.34D-13
 Inversion failed.  Reducing to 12 matrices.
 Large coefficients: NSaved= 12 BigCof=   81.32 CofMax=   10.00 Det=-2.76D-12
 Inversion failed.  Reducing to 11 matrices.
 Large coefficients: NSaved= 11 BigCof=  122.76 CofMax=   10.00 Det=-7.03D-12
 Inversion failed.  Reducing to 10 matrices.
 Large coefficients: NSaved= 10 BigCof=  137.59 CofMax=   10.00 Det=-1.22D-11
 Inversion failed.  Reducing to  9 matrices.
 Large coefficients: NSaved=  9 BigCof=  140.15 CofMax=   10.00 Det=-1.25D-11
 Inversion failed.  Reducing to  8 matrices.
 Large coefficients: NSaved=  8 BigCof=  153.84 CofMax=   10.00 Det=-1.40D-11
 Inversion failed.  Reducing to  7 matrices.
 Large coefficients: NSaved=  7 BigCof=  156.36 CofMax=   10.00 Det=-1.65D-11
 Inversion failed.  Reducing to  6 matrices.
 Large coefficients: NSaved=  6 BigCof=  138.52 CofMax=   10.00 Det=-3.50D-11
 Inversion failed.  Reducing to  5 matrices.
 Large coefficients: NSaved=  5 BigCof=  138.66 CofMax=   10.00 Det=-3.74D-11
 Inversion failed.  Reducing to  4 matrices.
 Large coefficients: NSaved=  4 BigCof=  143.53 CofMax=   10.00 Det=-4.79D-11
 Inversion failed.  Reducing to  3 matrices.
 Large coefficients: NSaved=  3 BigCof=  142.93 CofMax=   10.00 Det=-4.80D-11
 Inversion failed.  Reducing to  2 matrices.
 Large coefficients: NSaved=  2 BigCof=  164.53 CofMax=   10.00 Det=-3.40D-10
 Coeff-Com: -0.164D+03 0.165D+03
 Coeff:     -0.164D+03 0.165D+03
 Gap=     0.034 Goal=   None    Shift=    0.000
 Gap=     0.031 Goal=   None    Shift=    0.000
 RMSDP=3.09D-03 MaxDP=2.15D-01 DE=-1.95D-06 OVMax= 1.21D-01

 Cycle  30  Pass 1  IDiag  1:
 E= -1136.09046073782     Delta-E=       -0.000220198434 Rises=F Damp=F
 DIIS: error= 7.06D-05 at cycle  30 NSaved=   3.
 NSaved= 3 IEnMin= 3 EnMin= -1136.09046073782     IErMin= 3 ErrMin= 7.06D-05
 ErrMax= 7.06D-05  0.00D+00 EMaxC= 1.00D-01 BMatC= 1.62D-06 BMatP= 9.21D-06
 IDIUse=1 WtCom= 1.00D+00 WtEn= 0.00D+00
 Large coefficients: NSaved=  3 BigCof=  113.09 CofMax=   10.00 Det=-1.52D-11
 Inversion failed.  Reducing to  2 matrices.
 Coeff-Com: -0.639D+00 0.164D+01
 Coeff:     -0.639D+00 0.164D+01
 Gap=     0.034 Goal=   None    Shift=    0.000
 Gap=     0.031 Goal=   None    Shift=    0.000
 RMSDP=1.87D-03 MaxDP=1.25D-01 DE=-2.20D-04 OVMax= 8.56D-02

 Cycle  31  Pass 1  IDiag  1:
 E= -1136.09057990500     Delta-E=       -0.000119167180 Rises=F Damp=F
 DIIS: error= 8.72D-05 at cycle  31 NSaved=   3.
 NSaved= 3 IEnMin= 3 EnMin= -1136.09057990500     IErMin= 2 ErrMin= 7.06D-05
 ErrMax= 8.72D-05  0.00D+00 EMaxC= 1.00D-01 BMatC= 3.31D-06 BMatP= 1.62D-06
 IDIUse=1 WtCom= 1.00D+00 WtEn= 0.00D+00
 Coeff-Com: -0.775D+00 0.133D+01 0.447D+00
 Coeff:     -0.775D+00 0.133D+01 0.447D+00
 Gap=     0.035 Goal=   None    Shift=    0.000
 Gap=     0.032 Goal=   None    Shift=    0.000
 RMSDP=1.18D-03 MaxDP=8.00D-02 DE=-1.19D-04 OVMax= 5.54D-02

 Cycle  32  Pass 1  IDiag  1:
 E= -1136.09067488489     Delta-E=       -0.000094979884 Rises=F Damp=F
 DIIS: error= 1.08D-04 at cycle  32 NSaved=   4.
 NSaved= 4 IEnMin= 4 EnMin= -1136.09067488489     IErMin= 2 ErrMin= 7.06D-05
 ErrMax= 1.08D-04  0.00D+00 EMaxC= 1.00D-01 BMatC= 7.28D-06 BMatP= 1.62D-06
 IDIUse=1 WtCom= 1.00D+00 WtEn= 0.00D+00
 Coeff-Com: -0.677D+00 0.134D+01 0.480D+00-0.139D+00
 Coeff:     -0.677D+00 0.134D+01 0.480D+00-0.139D+00
 Gap=     0.035 Goal=   None    Shift=    0.000
 Gap=     0.032 Goal=   None    Shift=    0.000
 RMSDP=6.03D-04 MaxDP=3.96D-02 DE=-9.50D-05 OVMax= 2.85D-02

 Cycle  33  Pass 1  IDiag  1:
 E= -1136.09062325665     Delta-E=        0.000051628235 Rises=F Damp=F
 DIIS: error= 9.66D-05 at cycle  33 NSaved=   5.
 NSaved= 5 IEnMin= 4 EnMin= -1136.09067488489     IErMin= 2 ErrMin= 7.06D-05
 ErrMax= 9.66D-05  0.00D+00 EMaxC= 1.00D-01 BMatC= 4.74D-06 BMatP= 1.62D-06
 IDIUse=1 WtCom= 1.00D+00 WtEn= 0.00D+00
 Coeff-Com: -0.680D+00 0.116D+01 0.430D+00-0.509D+00 0.599D+00
 Coeff:     -0.680D+00 0.116D+01 0.430D+00-0.509D+00 0.599D+00
 Gap=     0.035 Goal=   None    Shift=    0.000
 Gap=     0.032 Goal=   None    Shift=    0.000
 RMSDP=2.32D-04 MaxDP=1.53D-02 DE= 5.16D-05 OVMax= 1.11D-02

 Cycle  34  Pass 1  IDiag  1:
 E= -1136.09064239933     Delta-E=       -0.000019142674 Rises=F Damp=F
 DIIS: error= 9.99D-05 at cycle  34 NSaved=   6.
 NSaved= 6 IEnMin= 4 EnMin= -1136.09067488489     IErMin= 2 ErrMin= 7.06D-05
 ErrMax= 9.99D-05  0.00D+00 EMaxC= 1.00D-01 BMatC= 5.80D-06 BMatP= 1.62D-06
 IDIUse=1 WtCom= 1.00D+00 WtEn= 0.00D+00
 Coeff-Com: -0.714D+00 0.862D+00 0.319D+00-0.213D+01 0.380D+00 0.229D+01
 Coeff:     -0.714D+00 0.862D+00 0.319D+00-0.213D+01 0.380D+00 0.229D+01
 Gap=     0.035 Goal=   None    Shift=    0.000
 Gap=     0.032 Goal=   None    Shift=    0.000
 RMSDP=4.75D-04 MaxDP=3.09D-02 DE=-1.91D-05 OVMax= 2.25D-02

 Cycle  35  Pass 1  IDiag  1:
 E= -1136.09068259502     Delta-E=       -0.000040195697 Rises=F Damp=F
 DIIS: error= 1.21D-04 at cycle  35 NSaved=   7.
 NSaved= 7 IEnMin= 7 EnMin= -1136.09068259502     IErMin= 2 ErrMin= 7.06D-05
 ErrMax= 1.21D-04  0.00D+00 EMaxC= 1.00D-01 BMatC= 9.54D-06 BMatP= 1.62D-06
 IDIUse=1 WtCom= 1.00D+00 WtEn= 0.00D+00
 Coeff-Com: -0.602D+00 0.129D+01 0.582D+00-0.660D+01 0.321D+01-0.696D+00
 Coeff-Com:  0.381D+01
 Coeff:     -0.602D+00 0.129D+01 0.582D+00-0.660D+01 0.321D+01-0.696D+00
 Coeff:      0.381D+01
 Gap=     0.034 Goal=   None    Shift=    0.000
 Gap=     0.031 Goal=   None    Shift=    0.000
 RMSDP=2.46D-03 MaxDP=1.65D-01 DE=-4.02D-05 OVMax= 1.13D-01

 Cycle  36  Pass 1  IDiag  1:
 E= -1136.09049744571     Delta-E=        0.000185149314 Rises=F Damp=F
 DIIS: error= 8.96D-05 at cycle  36 NSaved=   8.
 NSaved= 8 IEnMin= 7 EnMin= -1136.09068259502     IErMin= 2 ErrMin= 7.06D-05
 ErrMax= 8.96D-05  0.00D+00 EMaxC= 1.00D-01 BMatC= 5.76D-06 BMatP= 1.62D-06
 IDIUse=1 WtCom= 1.00D+00 WtEn= 0.00D+00
 Coeff-Com: -0.596D+00 0.126D+01 0.532D+00-0.333D+01 0.270D+01-0.234D+01
 Coeff-Com:  0.213D+01 0.648D+00
 Coeff:     -0.596D+00 0.126D+01 0.532D+00-0.333D+01 0.270D+01-0.234D+01
 Coeff:      0.213D+01 0.648D+00
 Gap=     0.036 Goal=   None    Shift=    0.000
 Gap=     0.032 Goal=   None    Shift=    0.000
 RMSDP=6.83D-04 MaxDP=4.64D-02 DE= 1.85D-04 OVMax= 2.93D-02

 Cycle  37  Pass 1  IDiag  1:
 E= -1136.09045756779     Delta-E=        0.000039877920 Rises=F Damp=F
 DIIS: error= 8.71D-05 at cycle  37 NSaved=   9.
 NSaved= 9 IEnMin= 7 EnMin= -1136.09068259502     IErMin= 2 ErrMin= 7.06D-05
 ErrMax= 8.71D-05  0.00D+00 EMaxC= 1.00D-01 BMatC= 6.06D-06 BMatP= 1.62D-06
 IDIUse=1 WtCom= 1.00D+00 WtEn= 0.00D+00
 Coeff-Com: -0.632D+00 0.112D+01 0.476D+00-0.251D+01 0.225D+01-0.179D+01
 Coeff-Com:  0.132D+01 0.436D+00 0.340D+00
 Coeff:     -0.632D+00 0.112D+01 0.476D+00-0.251D+01 0.225D+01-0.179D+01
 Coeff:      0.132D+01 0.436D+00 0.340D+00
 Gap=     0.036 Goal=   None    Shift=    0.000
 Gap=     0.032 Goal=   None    Shift=    0.000
 RMSDP=1.65D-04 MaxDP=1.14D-02 DE= 3.99D-05 OVMax= 6.98D-03

 Cycle  38  Pass 1  IDiag  1:
 E= -1136.09046712140     Delta-E=       -0.000009553614 Rises=F Damp=F
 DIIS: error= 8.63D-05 at cycle  38 NSaved=  10.
 NSaved=10 IEnMin= 7 EnMin= -1136.09068259502     IErMin= 2 ErrMin= 7.06D-05
 ErrMax= 8.63D-05  0.00D+00 EMaxC= 1.00D-01 BMatC= 5.90D-06 BMatP= 1.62D-06
 IDIUse=1 WtCom= 1.00D+00 WtEn= 0.00D+00
 Coeff-Com: -0.624D+00 0.977D+00 0.439D+00-0.282D+01 0.227D+01-0.129D+01
 Coeff-Com:  0.122D+01 0.208D+00-0.124D+01 0.186D+01
 Coeff:     -0.624D+00 0.977D+00 0.439D+00-0.282D+01 0.227D+01-0.129D+01
 Coeff:      0.122D+01 0.208D+00-0.124D+01 0.186D+01
 Gap=     0.035 Goal=   None    Shift=    0.000
 Gap=     0.032 Goal=   None    Shift=    0.000
 RMSDP=2.08D-04 MaxDP=1.43D-02 DE=-9.55D-06 OVMax= 9.02D-03

 Cycle  39  Pass 1  IDiag  1:
 E= -1136.09047877467     Delta-E=       -0.000011653263 Rises=F Damp=F
 DIIS: error= 8.95D-05 at cycle  39 NSaved=  11.
 NSaved=11 IEnMin= 7 EnMin= -1136.09068259502     IErMin= 2 ErrMin= 7.06D-05
 ErrMax= 8.95D-05  0.00D+00 EMaxC= 1.00D-01 BMatC= 6.25D-06 BMatP= 1.62D-06
 IDIUse=1 WtCom= 1.00D+00 WtEn= 0.00D+00
 Coeff-Com: -0.626D+00 0.975D+00 0.438D+00-0.279D+01 0.226D+01-0.130D+01
 Coeff-Com:  0.121D+01 0.211D+00-0.120D+01 0.190D+01-0.873D-01
 Coeff:     -0.626D+00 0.975D+00 0.438D+00-0.279D+01 0.226D+01-0.130D+01
 Coeff:      0.121D+01 0.211D+00-0.120D+01 0.190D+01-0.873D-01
 Gap=     0.035 Goal=   None    Shift=    0.000
 Gap=     0.032 Goal=   None    Shift=    0.000
 RMSDP=5.65D-06 MaxDP=3.83D-04 DE=-1.17D-05 OVMax= 2.54D-04

 Cycle  40  Pass 1  IDiag  1:
 E= -1136.09047847169     Delta-E=        0.000000302974 Rises=F Damp=F
 DIIS: error= 8.93D-05 at cycle  40 NSaved=  12.
 NSaved=12 IEnMin= 7 EnMin= -1136.09068259502     IErMin= 2 ErrMin= 7.06D-05
 ErrMax= 8.93D-05  0.00D+00 EMaxC= 1.00D-01 BMatC= 6.22D-06 BMatP= 1.62D-06
 IDIUse=1 WtCom= 1.00D+00 WtEn= 0.00D+00
 Large coefficients: NSaved= 12 BigCof=   19.10 CofMax=   10.00 Det=-9.02D-14
 Inversion failed.  Reducing to 11 matrices.
 Large coefficients: NSaved= 11 BigCof=  239.34 CofMax=   10.00 Det=-1.04D-13
 Inversion failed.  Reducing to 10 matrices.
 Large coefficients: NSaved= 10 BigCof=  382.34 CofMax=   10.00 Det=-1.68D-13
 Inversion failed.  Reducing to  9 matrices.
 Large coefficients: NSaved=  9 BigCof=  122.93 CofMax=   10.00 Det=-2.06D-13
 Inversion failed.  Reducing to  8 matrices.
 Large coefficients: NSaved=  8 BigCof=   81.00 CofMax=   10.00 Det=-2.07D-13
 Inversion failed.  Reducing to  7 matrices.
 Large coefficients: NSaved=  7 BigCof=   66.99 CofMax=   10.00 Det=-2.09D-13
 Inversion failed.  Reducing to  6 matrices.
 Large coefficients: NSaved=  6 BigCof=  113.14 CofMax=   10.00 Det=-2.14D-13
 Inversion failed.  Reducing to  5 matrices.
 Large coefficients: NSaved=  5 BigCof=  156.14 CofMax=   10.00 Det=-2.16D-13
 Inversion failed.  Reducing to  4 matrices.
 Large coefficients: NSaved=  4 BigCof=  238.44 CofMax=   10.00 Det=-5.37D-13
 Inversion failed.  Reducing to  3 matrices.
 Large coefficients: NSaved=  3 BigCof=  288.00 CofMax=   10.00 Det=-1.20D-11
 Inversion failed.  Reducing to  2 matrices.
 Large coefficients: NSaved=  2 BigCof=  392.22 CofMax=   10.00 Det=-3.69D-11
 Coeff-Com: -0.391D+03 0.392D+03
 Coeff:     -0.391D+03 0.392D+03
 Gap=     0.035 Goal=   None    Shift=    0.000
 Gap=     0.032 Goal=   None    Shift=    0.000
 RMSDP=2.09D-03 MaxDP=1.44D-01 DE= 3.03D-07 OVMax= 8.90D-02

 Cycle  41  Pass 1  IDiag  1:
 E= -1136.09035749644     Delta-E=        0.000120975255 Rises=F Damp=F
 DIIS: error= 7.94D-05 at cycle  41 NSaved=   3.
 NSaved= 3 IEnMin= 1 EnMin= -1136.09047877467     IErMin= 3 ErrMin= 7.94D-05
 ErrMax= 7.94D-05  0.00D+00 EMaxC= 1.00D-01 BMatC= 1.28D-06 BMatP= 6.22D-06
 IDIUse=1 WtCom= 1.00D+00 WtEn= 0.00D+00
 Large coefficients: NSaved=  3 BigCof=  632.06 CofMax=   10.00 Det=-1.72D-12
 Inversion failed.  Reducing to  2 matrices.
 Coeff-Com: -0.189D+00 0.119D+01
 Coeff:     -0.189D+00 0.119D+01
 Gap=     0.036 Goal=   None    Shift=    0.000
 Gap=     0.032 Goal=   None    Shift=    0.000
 RMSDP=1.59D-04 MaxDP=9.90D-03 DE= 1.21D-04 OVMax= 6.53D-03

 Cycle  42  Pass 1  IDiag  1:
 E= -1136.09034786623     Delta-E=        0.000009630211 Rises=F Damp=F
 DIIS: error= 8.59D-05 at cycle  42 NSaved=   3.
 NSaved= 3 IEnMin= 1 EnMin= -1136.09047847169     IErMin= 2 ErrMin= 7.94D-05
 ErrMax= 8.59D-05  0.00D+00 EMaxC= 1.00D-01 BMatC= 1.20D-06 BMatP= 1.28D-06
 IDIUse=1 WtCom= 1.00D+00 WtEn= 0.00D+00
 Coeff-Com:  0.261D+00-0.313D+00 0.105D+01
 Coeff:      0.261D+00-0.313D+00 0.105D+01
 Gap=     0.035 Goal=   None    Shift=    0.000
 Gap=     0.032 Goal=   None    Shift=    0.000
 RMSDP=7.79D-04 MaxDP=5.33D-02 DE= 9.63D-06 OVMax= 3.23D-02

 Cycle  43  Pass 1  IDiag  1:
 E= -1136.09040004220     Delta-E=       -0.000052175972 Rises=F Damp=F
 DIIS: error= 7.62D-05 at cycle  43 NSaved=   4.
 NSaved= 4 IEnMin= 1 EnMin= -1136.09047847169     IErMin= 4 ErrMin= 7.62D-05
 ErrMax= 7.62D-05  0.00D+00 EMaxC= 1.00D-01 BMatC= 1.07D-06 BMatP= 1.20D-06
 IDIUse=1 WtCom= 1.00D+00 WtEn= 0.00D+00
 Coeff-Com:  0.140D+01-0.346D+01 0.487D+00 0.258D+01
 Coeff:      0.140D+01-0.346D+01 0.487D+00 0.258D+01
 Gap=     0.033 Goal=   None    Shift=    0.000
 Gap=     0.031 Goal=   None    Shift=    0.000
 RMSDP=3.76D-03 MaxDP=2.57D-01 DE=-5.22D-05 OVMax= 1.69D-01

 Cycle  44  Pass 1  IDiag  1:
 E= -1136.09064867228     Delta-E=       -0.000248630084 Rises=F Damp=F
 DIIS: error= 1.00D-04 at cycle  44 NSaved=   5.
 NSaved= 5 IEnMin= 5 EnMin= -1136.09064867228     IErMin= 4 ErrMin= 7.62D-05
 ErrMax= 1.00D-04  0.00D+00 EMaxC= 1.00D-01 BMatC= 5.92D-06 BMatP= 1.07D-06
 IDIUse=1 WtCom= 1.00D+00 WtEn= 0.00D+00
 Coeff-Com:  0.136D+01-0.352D+01 0.456D+00 0.264D+01 0.626D-01
 Coeff:      0.136D+01-0.352D+01 0.456D+00 0.264D+01 0.626D-01
 Gap=     0.035 Goal=   None    Shift=    0.000
 Gap=     0.032 Goal=   None    Shift=    0.000
 RMSDP=2.24D-04 MaxDP=1.45D-02 DE=-2.49D-04 OVMax= 1.08D-02

 Cycle  45  Pass 1  IDiag  1:
 E= -1136.09066855075     Delta-E=       -0.000019878466 Rises=F Damp=F
 DIIS: error= 1.05D-04 at cycle  45 NSaved=   6.
 NSaved= 6 IEnMin= 6 EnMin= -1136.09066855075     IErMin= 4 ErrMin= 7.62D-05
 ErrMax= 1.05D-04  0.00D+00 EMaxC= 1.00D-01 BMatC= 6.93D-06 BMatP= 1.07D-06
 IDIUse=1 WtCom= 1.00D+00 WtEn= 0.00D+00
 Coeff-Com:  0.148D+01-0.282D+01-0.408D-01 0.204D+01 0.877D+01-0.843D+01
 Coeff:      0.148D+01-0.282D+01-0.408D-01 0.204D+01 0.877D+01-0.843D+01
 Gap=     0.035 Goal=   None    Shift=    0.000
 Gap=     0.032 Goal=   None    Shift=    0.000
 RMSDP=9.00D-04 MaxDP=5.94D-02 DE=-1.99D-05 OVMax= 4.09D-02

 Cycle  46  Pass 1  IDiag  1:
 E= -1136.09058603997     Delta-E=        0.000082510779 Rises=F Damp=F
 DIIS: error= 1.30D-04 at cycle  46 NSaved=   7.
 NSaved= 7 IEnMin= 6 EnMin= -1136.09066855075     IErMin= 4 ErrMin= 7.62D-05
 ErrMax= 1.30D-04  0.00D+00 EMaxC= 1.00D-01 BMatC= 1.26D-05 BMatP= 1.07D-06
 IDIUse=1 WtCom= 1.00D+00 WtEn= 0.00D+00
 Large coefficients: NSaved=  7 BigCof=   13.21 CofMax=   10.00 Det=-6.95D-10
 Inversion failed.  Reducing to  6 matrices.
 Large coefficients: NSaved=  6 BigCof=   13.09 CofMax=   10.00 Det=-7.10D-10
 Inversion failed.  Reducing to  5 matrices.
 Large coefficients: NSaved=  5 BigCof=   15.62 CofMax=   10.00 Det=-7.26D-10
 Inversion failed.  Reducing to  4 matrices.
 Large coefficients: NSaved=  4 BigCof=   15.63 CofMax=   10.00 Det=-7.26D-10
 Inversion failed.  Reducing to  3 matrices.
 Large coefficients: NSaved=  3 BigCof=   19.21 CofMax=   10.00 Det=-5.54D-09
 Inversion failed.  Reducing to  2 matrices.
 Coeff-Com:  0.276D+01-0.176D+01
 Coeff:      0.276D+01-0.176D+01
 Gap=     0.034 Goal=   None    Shift=    0.000
 Gap=     0.032 Goal=   None    Shift=    0.000
 RMSDP=2.70D-03 MaxDP=1.64D-01 DE= 8.25D-05 OVMax= 1.27D-01

 Cycle  47  Pass 1  IDiag  1:
 E= -1136.09086760970     Delta-E=       -0.000281569732 Rises=F Damp=F
 DIIS: error= 1.34D-04 at cycle  47 NSaved=   3.
 NSaved= 3 IEnMin= 3 EnMin= -1136.09086760970     IErMin= 1 ErrMin= 1.05D-04
 ErrMax= 1.34D-04  0.00D+00 EMaxC= 1.00D-01 BMatC= 4.14D-06 BMatP= 6.93D-06
 IDIUse=1 WtCom= 1.00D+00 WtEn= 0.00D+00
 Coeff-Com:  0.184D+01-0.128D+01 0.446D+00
 Coeff:      0.184D+01-0.128D+01 0.446D+00
 Gap=     0.035 Goal=   None    Shift=    0.000
 Gap=     0.033 Goal=   None    Shift=    0.000
 RMSDP=4.19D-04 MaxDP=2.75D-02 DE=-2.82D-04 OVMax= 2.08D-02

 Cycle  48  Pass 1  IDiag  1:
 E= -1136.09091670258     Delta-E=       -0.000049092875 Rises=F Damp=F
 DIIS: error= 1.27D-04 at cycle  48 NSaved=   4.
 NSaved= 4 IEnMin= 4 EnMin= -1136.09091670258     IErMin= 1 ErrMin= 1.05D-04
 ErrMax= 1.27D-04  0.00D+00 EMaxC= 1.00D-01 BMatC= 2.78D-06 BMatP= 4.14D-06
 IDIUse=1 WtCom= 1.00D+00 WtEn= 0.00D+00
 Coeff-Com:  0.327D+01-0.206D+01 0.828D+00-0.103D+01
 Coeff:      0.327D+01-0.206D+01 0.828D+00-0.103D+01
 Gap=     0.035 Goal=   None    Shift=    0.000
 Gap=     0.032 Goal=   None    Shift=    0.000
 RMSDP=9.49D-04 MaxDP=5.53D-02 DE=-4.91D-05 OVMax= 4.48D-02

 Cycle  49  Pass 1  IDiag  1:
 E= -1136.09080517708     Delta-E=        0.000111525497 Rises=F Damp=F
 DIIS: error= 1.36D-04 at cycle  49 NSaved=   5.
 NSaved= 5 IEnMin= 4 EnMin= -1136.09091670258     IErMin= 1 ErrMin= 1.05D-04
 ErrMax= 1.36D-04  0.00D+00 EMaxC= 1.00D-01 BMatC= 3.66D-06 BMatP= 2.78D-06
 IDIUse=1 WtCom= 1.00D+00 WtEn= 0.00D+00
 Coeff-Com:  0.705D+01-0.455D+01 0.200D+01-0.635D+01 0.285D+01
 Coeff:      0.705D+01-0.455D+01 0.200D+01-0.635D+01 0.285D+01
 Gap=     0.035 Goal=   None    Shift=    0.000
 Gap=     0.031 Goal=   None    Shift=    0.000
 RMSDP=4.07D-03 MaxDP=2.65D-01 DE= 1.12D-04 OVMax= 1.77D-01

 Cycle  50  Pass 1  IDiag  1:
 E= -1136.09043089825     Delta-E=        0.000374278829 Rises=F Damp=F
 DIIS: error= 2.36D-04 at cycle  50 NSaved=   6.
 NSaved= 6 IEnMin= 4 EnMin= -1136.09091670258     IErMin= 1 ErrMin= 1.05D-04
 ErrMax= 2.36D-04  0.00D+00 EMaxC= 1.00D-01 BMatC= 4.38D-05 BMatP= 2.78D-06
 IDIUse=1 WtCom= 1.00D+00 WtEn= 0.00D+00
 Coeff-Com:  0.461D+01-0.218D+01 0.132D+01-0.449D+01 0.216D+01-0.429D+00
 Coeff:      0.461D+01-0.218D+01 0.132D+01-0.449D+01 0.216D+01-0.429D+00
 Gap=     0.036 Goal=   None    Shift=    0.000
 Gap=     0.032 Goal=   None    Shift=    0.000
 RMSDP=1.15D-03 MaxDP=7.61D-02 DE= 3.74D-04 OVMax= 4.64D-02

 Cycle  51  Pass 1  IDiag  1:
 E= -1136.09052218143     Delta-E=       -0.000091283179 Rises=F Damp=F
 DIIS: error= 1.81D-04 at cycle  51 NSaved=   7.
 NSaved= 7 IEnMin= 4 EnMin= -1136.09091670258     IErMin= 1 ErrMin= 1.05D-04
 ErrMax= 1.81D-04  0.00D+00 EMaxC= 1.00D-01 BMatC= 2.23D-05 BMatP= 2.78D-06
 IDIUse=1 WtCom= 1.00D+00 WtEn= 0.00D+00
 Coeff-Com:  0.337D+01-0.135D+01 0.106D+01-0.448D+01 0.220D+01-0.186D+01
 Coeff-Com:  0.205D+01
 Coeff:      0.337D+01-0.135D+01 0.106D+01-0.448D+01 0.220D+01-0.186D+01
 Coeff:      0.205D+01
 Gap=     0.037 Goal=   None    Shift=    0.000
 Gap=     0.032 Goal=   None    Shift=    0.000
 RMSDP=7.40D-04 MaxDP=4.74D-02 DE=-9.13D-05 OVMax= 3.18D-02

 Cycle  52  Pass 1  IDiag  1:
 E= -1136.09046020600     Delta-E=        0.000061975428 Rises=F Damp=F
 DIIS: error= 2.05D-04 at cycle  52 NSaved=   8.
 NSaved= 8 IEnMin= 4 EnMin= -1136.09091670258     IErMin= 1 ErrMin= 1.05D-04
 ErrMax= 2.05D-04  0.00D+00 EMaxC= 1.00D-01 BMatC= 3.67D-05 BMatP= 2.78D-06
 IDIUse=1 WtCom= 1.00D+00 WtEn= 0.00D+00
 Coeff-Com:  0.304D+01-0.125D+01 0.971D+00-0.409D+01 0.198D+01-0.212D+01
 Coeff-Com:  0.227D+01 0.190D+00
 Coeff:      0.304D+01-0.125D+01 0.971D+00-0.409D+01 0.198D+01-0.212D+01
 Coeff:      0.227D+01 0.190D+00
 Gap=     0.036 Goal=   None    Shift=    0.000
 Gap=     0.032 Goal=   None    Shift=    0.000
 RMSDP=2.72D-04 MaxDP=1.75D-02 DE= 6.20D-05 OVMax= 1.13D-02

 Cycle  53  Pass 1  IDiag  1:
 E= -1136.09048205224     Delta-E=       -0.000021846239 Rises=F Damp=F
 DIIS: error= 1.92D-04 at cycle  53 NSaved=   9.
 NSaved= 9 IEnMin= 4 EnMin= -1136.09091670258     IErMin= 1 ErrMin= 1.05D-04
 ErrMax= 1.92D-04  0.00D+00 EMaxC= 1.00D-01 BMatC= 3.14D-05 BMatP= 2.78D-06
 IDIUse=1 WtCom= 1.00D+00 WtEn= 0.00D+00
 Coeff-Com:  0.309D+01-0.944D+00 0.981D+00-0.432D+01 0.213D+01-0.248D+01
 Coeff-Com:  0.267D+01 0.265D+01-0.278D+01
 Coeff:      0.309D+01-0.944D+00 0.981D+00-0.432D+01 0.213D+01-0.248D+01
 Coeff:      0.267D+01 0.265D+01-0.278D+01
 Gap=     0.037 Goal=   None    Shift=    0.000
 Gap=     0.032 Goal=   None    Shift=    0.000
 RMSDP=2.43D-04 MaxDP=1.47D-02 DE=-2.18D-05 OVMax= 1.06D-02

 Cycle  54  Pass 1  IDiag  1:
 E= -1136.09046287175     Delta-E=        0.000019180488 Rises=F Damp=F
 DIIS: error= 2.02D-04 at cycle  54 NSaved=  10.
 NSaved=10 IEnMin= 4 EnMin= -1136.09091670258     IErMin= 1 ErrMin= 1.05D-04
 ErrMax= 2.02D-04  0.00D+00 EMaxC= 1.00D-01 BMatC= 3.55D-05 BMatP= 2.78D-06
 IDIUse=1 WtCom= 1.00D+00 WtEn= 0.00D+00
 Coeff-Com:  0.304D+01-0.942D+00 0.924D+00-0.431D+01 0.218D+01-0.356D+01
 Coeff-Com:  0.366D+01 0.426D+01-0.720D+01 0.295D+01
 Coeff:      0.304D+01-0.942D+00 0.924D+00-0.431D+01 0.218D+01-0.356D+01
 Coeff:      0.366D+01 0.426D+01-0.720D+01 0.295D+01
 Gap=     0.037 Goal=   None    Shift=    0.000
 Gap=     0.032 Goal=   None    Shift=    0.000
 RMSDP=1.31D-04 MaxDP=8.45D-03 DE= 1.92D-05 OVMax= 7.20D-03

 Cycle  55  Pass 1  IDiag  1:
 E= -1136.09045503262     Delta-E=        0.000007839132 Rises=F Damp=F
 DIIS: error= 2.04D-04 at cycle  55 NSaved=  11.
 NSaved=11 IEnMin= 4 EnMin= -1136.09091670258     IErMin= 1 ErrMin= 1.05D-04
 ErrMax= 2.04D-04  0.00D+00 EMaxC= 1.00D-01 BMatC= 3.64D-05 BMatP= 2.78D-06
 IDIUse=1 WtCom= 1.00D+00 WtEn= 0.00D+00
 Coeff-Com:  0.305D+01-0.979D+00 0.929D+00-0.431D+01 0.218D+01-0.355D+01
 Coeff-Com:  0.364D+01 0.410D+01-0.706D+01 0.289D+01 0.102D+00
 Coeff:      0.305D+01-0.979D+00 0.929D+00-0.431D+01 0.218D+01-0.355D+01
 Coeff:      0.364D+01 0.410D+01-0.706D+01 0.289D+01 0.102D+00
 Gap=     0.037 Goal=   None    Shift=    0.000
 Gap=     0.032 Goal=   None    Shift=    0.000
 RMSDP=6.81D-06 MaxDP=5.11D-04 DE= 7.84D-06 OVMax= 3.37D-04

 Cycle  56  Pass 1  IDiag  1:
 E= -1136.09045486700     Delta-E=        0.000000165620 Rises=F Damp=F
 DIIS: error= 2.03D-04 at cycle  56 NSaved=  12.
 NSaved=12 IEnMin= 4 EnMin= -1136.09091670258     IErMin= 1 ErrMin= 1.05D-04
 ErrMax= 2.03D-04  0.00D+00 EMaxC= 1.00D-01 BMatC= 3.63D-05 BMatP= 2.78D-06
 IDIUse=1 WtCom= 1.00D+00 WtEn= 0.00D+00
 Large coefficients: NSaved= 12 BigCof=   18.12 CofMax=   10.00 Det=-6.93D-11
 Inversion failed.  Reducing to 11 matrices.
 Large coefficients: NSaved= 11 BigCof=   35.44 CofMax=   10.00 Det=-1.26D-10
 Inversion failed.  Reducing to 10 matrices.
 Large coefficients: NSaved= 10 BigCof=   33.96 CofMax=   10.00 Det=-1.26D-10
 Inversion failed.  Reducing to  9 matrices.
 Large coefficients: NSaved=  9 BigCof=   17.07 CofMax=   10.00 Det=-1.57D-10
 Inversion failed.  Reducing to  8 matrices.
 Large coefficients: NSaved=  8 BigCof=   16.44 CofMax=   10.00 Det=-1.64D-10
 Inversion failed.  Reducing to  7 matrices.
 Large coefficients: NSaved=  7 BigCof=   13.90 CofMax=   10.00 Det=-1.66D-10
 Inversion failed.  Reducing to  6 matrices.
 Large coefficients: NSaved=  6 BigCof=   11.87 CofMax=   10.00 Det=-1.68D-10
 Inversion failed.  Reducing to  5 matrices.
 Large coefficients: NSaved=  5 BigCof=   11.03 CofMax=   10.00 Det=-1.68D-10
 Inversion failed.  Reducing to  4 matrices.
 Large coefficients: NSaved=  4 BigCof=   11.13 CofMax=   10.00 Det=-1.68D-10
 Inversion failed.  Reducing to  3 matrices.
 Large coefficients: NSaved=  3 BigCof=   10.75 CofMax=   10.00 Det=-1.69D-10
 Inversion failed.  Reducing to  2 matrices.
 Large coefficients: NSaved=  2 BigCof=  175.26 CofMax=   10.00 Det=-2.01D-10
 Coeff-Com: -0.174D+03 0.175D+03
 Coeff:     -0.174D+03 0.175D+03
 Gap=     0.035 Goal=   None    Shift=    0.000
 Gap=     0.033 Goal=   None    Shift=    0.000
 RMSDP=1.24D-03 MaxDP=5.10D-02 DE= 1.66D-07 OVMax= 5.93D-02

 Cycle  57  Pass 1  IDiag  1:
 E= -1136.09038202680     Delta-E=        0.000072840203 Rises=F Damp=F
 DIIS: error= 2.41D-04 at cycle  57 NSaved=   3.
 NSaved= 3 IEnMin= 1 EnMin= -1136.09045503262     IErMin= 2 ErrMin= 2.03D-04
 ErrMax= 2.41D-04  0.00D+00 EMaxC= 1.00D-01 BMatC= 5.15D-05 BMatP= 3.63D-05
 IDIUse=1 WtCom= 1.00D+00 WtEn= 0.00D+00
 Large coefficients: NSaved=  3 BigCof=  129.49 CofMax=   10.00 Det=-1.98D-10
 Inversion failed.  Reducing to  2 matrices.
 Coeff-Com:  0.552D+00 0.448D+00
 Coeff:      0.552D+00 0.448D+00
 Gap=     0.035 Goal=   None    Shift=    0.000
 Gap=     0.031 Goal=   None    Shift=    0.000
 RMSDP=7.27D-04 MaxDP=4.04D-02 DE= 7.28D-05 OVMax= 4.08D-02

 Cycle  58  Pass 1  IDiag  1:
 E= -1136.09048579201     Delta-E=       -0.000103765212 Rises=F Damp=F
 DIIS: error= 1.02D-04 at cycle  58 NSaved=   3.
 NSaved= 3 IEnMin= 3 EnMin= -1136.09048579201     IErMin= 3 ErrMin= 1.02D-04
 ErrMax= 1.02D-04  0.00D+00 EMaxC= 1.00D-01 BMatC= 6.62D-06 BMatP= 3.63D-05
 IDIUse=1 WtCom= 1.00D+00 WtEn= 0.00D+00
 Coeff-Com:  0.220D+00 0.251D+00 0.529D+00
 Coeff:      0.220D+00 0.251D+00 0.529D+00
 Gap=     0.034 Goal=   None    Shift=    0.000
 Gap=     0.031 Goal=   None    Shift=    0.000
 RMSDP=1.72D-04 MaxDP=7.97D-03 DE=-1.04D-04 OVMax= 4.28D-03

 Cycle  59  Pass 1  IDiag  1:
 E= -1136.09049583997     Delta-E=       -0.000010047961 Rises=F Damp=F
 DIIS: error= 6.30D-05 at cycle  59 NSaved=   4.
 NSaved= 4 IEnMin= 4 EnMin= -1136.09049583997     IErMin= 4 ErrMin= 6.30D-05
 ErrMax= 6.30D-05  0.00D+00 EMaxC= 1.00D-01 BMatC= 8.95D-07 BMatP= 6.62D-06
 IDIUse=1 WtCom= 1.00D+00 WtEn= 0.00D+00
 Coeff-Com:  0.666D-01 0.978D-01 0.234D+00 0.602D+00
 Coeff:      0.666D-01 0.978D-01 0.234D+00 0.602D+00
 Gap=     0.034 Goal=   None    Shift=    0.000
 Gap=     0.031 Goal=   None    Shift=    0.000
 RMSDP=1.21D-04 MaxDP=7.85D-03 DE=-1.00D-05 OVMax= 5.32D-03

 Cycle  60  Pass 1  IDiag  1:
 E= -1136.09050279674     Delta-E=       -0.000006956773 Rises=F Damp=F
 DIIS: error= 6.15D-05 at cycle  60 NSaved=   5.
 NSaved= 5 IEnMin= 5 EnMin= -1136.09050279674     IErMin= 5 ErrMin= 6.15D-05
 ErrMax= 6.15D-05  0.00D+00 EMaxC= 1.00D-01 BMatC= 6.47D-07 BMatP= 8.95D-07
 IDIUse=1 WtCom= 1.00D+00 WtEn= 0.00D+00
 Coeff-Com:  0.148D-01 0.889D-02 0.184D-01 0.214D+00 0.744D+00
 Coeff:      0.148D-01 0.889D-02 0.184D-01 0.214D+00 0.744D+00
 Gap=     0.034 Goal=   None    Shift=    0.000
 Gap=     0.031 Goal=   None    Shift=    0.000
 RMSDP=1.43D-04 MaxDP=7.34D-03 DE=-6.96D-06 OVMax= 6.88D-03

 Cycle  61  Pass 1  IDiag  1:
 E= -1136.09051209892     Delta-E=       -0.000009302179 Rises=F Damp=F
 DIIS: error= 6.22D-05 at cycle  61 NSaved=   6.
 NSaved= 6 IEnMin= 6 EnMin= -1136.09051209892     IErMin= 5 ErrMin= 6.15D-05
 ErrMax= 6.22D-05  0.00D+00 EMaxC= 1.00D-01 BMatC= 6.34D-07 BMatP= 6.47D-07
 IDIUse=1 WtCom= 1.00D+00 WtEn= 0.00D+00
 Coeff-Com:  0.981D-02-0.398D-02-0.131D-01 0.892D-01 0.481D+00 0.438D+00
 Coeff:      0.981D-02-0.398D-02-0.131D-01 0.892D-01 0.481D+00 0.438D+00
 Gap=     0.034 Goal=   None    Shift=    0.000
 Gap=     0.031 Goal=   None    Shift=    0.000
 RMSDP=8.85D-05 MaxDP=4.93D-03 DE=-9.30D-06 OVMax= 4.37D-03

 Cycle  62  Pass 1  IDiag  1:
 E= -1136.09051809206     Delta-E=       -0.000005993144 Rises=F Damp=F
 DIIS: error= 6.32D-05 at cycle  62 NSaved=   7.
 NSaved= 7 IEnMin= 7 EnMin= -1136.09051809206     IErMin= 5 ErrMin= 6.15D-05
 ErrMax= 6.32D-05  0.00D+00 EMaxC= 1.00D-01 BMatC= 6.42D-07 BMatP= 6.34D-07
 IDIUse=1 WtCom= 1.00D+00 WtEn= 0.00D+00
 Coeff-Com: -0.143D-01-0.336D-01-0.700D-01 0.156D+00 0.130D+01 0.460D+01
 Coeff-Com: -0.494D+01
 Coeff:     -0.143D-01-0.336D-01-0.700D-01 0.156D+00 0.130D+01 0.460D+01
 Coeff:     -0.494D+01
 Gap=     0.035 Goal=   None    Shift=    0.000
 Gap=     0.031 Goal=   None    Shift=    0.000
 RMSDP=5.39D-04 MaxDP=3.20D-02 DE=-5.99D-06 OVMax= 2.56D-02

 Cycle  63  Pass 1  IDiag  1:
 E= -1136.09048312515     Delta-E=        0.000034966918 Rises=F Damp=F
 DIIS: error= 6.11D-05 at cycle  63 NSaved=   8.
 NSaved= 8 IEnMin= 7 EnMin= -1136.09051809206     IErMin= 8 ErrMin= 6.11D-05
 ErrMax= 6.11D-05  0.00D+00 EMaxC= 1.00D-01 BMatC= 6.12D-07 BMatP= 6.34D-07
 IDIUse=1 WtCom= 1.00D+00 WtEn= 0.00D+00
 Large coefficients: NSaved=  8 BigCof=   10.08 CofMax=   10.00 Det=-7.07D-10
 Inversion failed.  Reducing to  7 matrices.
 Coeff-Com:  0.244D-02-0.118D-01 0.932D-01 0.893D+00 0.593D+01-0.734D+01
 Coeff-Com:  0.142D+01
 Coeff:      0.244D-02-0.118D-01 0.932D-01 0.893D+00 0.593D+01-0.734D+01
 Coeff:      0.142D+01
 Gap=     0.035 Goal=   None    Shift=    0.000
 Gap=     0.032 Goal=   None    Shift=    0.000
 RMSDP=8.43D-04 MaxDP=4.98D-02 DE= 3.50D-05 OVMax= 3.98D-02

 Cycle  64  Pass 1  IDiag  1:
 E= -1136.09043018666     Delta-E=        0.000052938483 Rises=F Damp=F
 DIIS: error= 6.36D-05 at cycle  64 NSaved=   8.
 NSaved= 8 IEnMin= 6 EnMin= -1136.09051809206     IErMin= 7 ErrMin= 6.11D-05
 ErrMax= 6.36D-05  0.00D+00 EMaxC= 1.00D-01 BMatC= 7.47D-07 BMatP= 6.12D-07
 IDIUse=1 WtCom= 1.00D+00 WtEn= 0.00D+00
 Large coefficients: NSaved=  8 BigCof=   12.22 CofMax=   10.00 Det=-6.03D-10
 Inversion failed.  Reducing to  7 matrices.
 Coeff-Com:  0.362D-02 0.263D+00 0.129D+01 0.659D+01-0.836D+01 0.144D+01
 Coeff-Com: -0.226D+00
 Coeff:      0.362D-02 0.263D+00 0.129D+01 0.659D+01-0.836D+01 0.144D+01
 Coeff:     -0.226D+00
 Gap=     0.035 Goal=   None    Shift=    0.000
 Gap=     0.032 Goal=   None    Shift=    0.000
 RMSDP=8.82D-05 MaxDP=6.08D-03 DE= 5.29D-05 OVMax= 3.94D-03

 Cycle  65  Pass 1  IDiag  1:
 E= -1136.09043544869     Delta-E=       -0.000005262022 Rises=F Damp=F
 DIIS: error= 6.43D-05 at cycle  65 NSaved=   8.
 NSaved= 8 IEnMin= 5 EnMin= -1136.09051809206     IErMin= 6 ErrMin= 6.11D-05
 ErrMax= 6.43D-05  0.00D+00 EMaxC= 1.00D-01 BMatC= 8.05D-07 BMatP= 6.12D-07
 IDIUse=1 WtCom= 1.00D+00 WtEn= 0.00D+00
 Large coefficients: NSaved=  8 BigCof=   21.99 CofMax=   10.00 Det=-3.31D-10
 Inversion failed.  Reducing to  7 matrices.
 Large coefficients: NSaved=  7 BigCof=   15.91 CofMax=   10.00 Det=-3.74D-10
 Inversion failed.  Reducing to  6 matrices.
 Large coefficients: NSaved=  6 BigCof=   14.95 CofMax=   10.00 Det=-4.10D-10
 Inversion failed.  Reducing to  5 matrices.
 Coeff-Com:  0.982D+00 0.289D+01-0.188D+01-0.639D+01 0.540D+01
 Coeff:      0.982D+00 0.289D+01-0.188D+01-0.639D+01 0.540D+01
 Gap=     0.033 Goal=   None    Shift=    0.000
 Gap=     0.031 Goal=   None    Shift=    0.000
 RMSDP=2.70D-03 MaxDP=1.63D-01 DE=-5.26D-06 OVMax= 1.33D-01

 Cycle  66  Pass 1  IDiag  1:
 E= -1136.09062908763     Delta-E=       -0.000193638948 Rises=F Damp=F
 DIIS: error= 8.31D-05 at cycle  66 NSaved=   6.
 NSaved= 6 IEnMin= 6 EnMin= -1136.09062908763     IErMin= 1 ErrMin= 6.15D-05
 ErrMax= 8.31D-05  0.00D+00 EMaxC= 1.00D-01 BMatC= 2.16D-06 BMatP= 6.34D-07
 IDIUse=1 WtCom= 1.00D+00 WtEn= 0.00D+00
 Coeff-Com:  0.421D+00 0.668D+00 0.646D+00-0.622D+01 0.570D+01-0.216D+00
 Coeff:      0.421D+00 0.668D+00 0.646D+00-0.622D+01 0.570D+01-0.216D+00
 Gap=     0.034 Goal=   None    Shift=    0.000
 Gap=     0.032 Goal=   None    Shift=    0.000
 RMSDP=5.78D-04 MaxDP=3.57D-02 DE=-1.94D-04 OVMax= 2.94D-02

 Cycle  67  Pass 1  IDiag  1:
 E= -1136.09058004563     Delta-E=        0.000049042008 Rises=F Damp=F
 DIIS: error= 7.99D-05 at cycle  67 NSaved=   7.
 NSaved= 7 IEnMin= 6 EnMin= -1136.09062908763     IErMin= 1 ErrMin= 6.15D-05
 ErrMax= 7.99D-05  0.00D+00 EMaxC= 1.00D-01 BMatC= 1.38D-06 BMatP= 6.34D-07
 IDIUse=1 WtCom= 1.00D+00 WtEn= 0.00D+00
 Large coefficients: NSaved=  7 BigCof=   20.30 CofMax=   10.00 Det=-4.43D-10
 Inversion failed.  Reducing to  6 matrices.
 Coeff-Com: -0.545D+00-0.299D-01-0.228D+00 0.171D+01-0.221D+01 0.230D+01
 Coeff:     -0.545D+00-0.299D-01-0.228D+00 0.171D+01-0.221D+01 0.230D+01
 Gap=     0.034 Goal=   None    Shift=    0.000
 Gap=     0.031 Goal=   None    Shift=    0.000
 RMSDP=4.09D-03 MaxDP=2.55D-01 DE= 4.90D-05 OVMax= 1.86D-01

 Cycle  68  Pass 1  IDiag  1:
 E= -1136.09029280070     Delta-E=        0.000287244926 Rises=F Damp=F
 DIIS: error= 1.12D-04 at cycle  68 NSaved=   7.
 NSaved= 7 IEnMin= 5 EnMin= -1136.09062908763     IErMin= 1 ErrMin= 6.15D-05
 ErrMax= 1.12D-04  0.00D+00 EMaxC= 1.00D-01 BMatC= 5.63D-06 BMatP= 6.34D-07
 IDIUse=1 WtCom= 1.00D+00 WtEn= 0.00D+00
 Coeff-Com:  0.161D+00 0.128D+01-0.283D+01 0.229D+01-0.623D+00 0.140D+01
 Coeff-Com: -0.679D+00
 Coeff:      0.161D+00 0.128D+01-0.283D+01 0.229D+01-0.623D+00 0.140D+01
 Coeff:     -0.679D+00
 Gap=     0.034 Goal=   None    Shift=    0.000
 Gap=     0.031 Goal=   None    Shift=    0.000
 RMSDP=2.73D-03 MaxDP=1.78D-01 DE= 2.87D-04 OVMax= 1.17D-01

 Cycle  69  Pass 1  IDiag  1:
 E= -1136.09047979027     Delta-E=       -0.000186989575 Rises=F Damp=F
 DIIS: error= 6.03D-05 at cycle  69 NSaved=   8.
 NSaved= 8 IEnMin= 5 EnMin= -1136.09062908763     IErMin= 8 ErrMin= 6.03D-05
 ErrMax= 6.03D-05  0.00D+00 EMaxC= 1.00D-01 BMatC= 1.15D-06 BMatP= 6.34D-07
 IDIUse=1 WtCom= 1.00D+00 WtEn= 0.00D+00
 Coeff-Com: -0.342D+00 0.176D+01-0.322D+01 0.187D+01-0.903D-01 0.103D+01
 Coeff-Com: -0.113D+01 0.112D+01
 Coeff:     -0.342D+00 0.176D+01-0.322D+01 0.187D+01-0.903D-01 0.103D+01
 Coeff:     -0.113D+01 0.112D+01
 Gap=     0.034 Goal=   None    Shift=    0.000
 Gap=     0.031 Goal=   None    Shift=    0.000
 RMSDP=1.80D-03 MaxDP=1.17D-01 DE=-1.87D-04 OVMax= 8.61D-02

 Cycle  70  Pass 1  IDiag  1:
 E= -1136.09060549521     Delta-E=       -0.000125704934 Rises=F Damp=F
 DIIS: error= 8.58D-05 at cycle  70 NSaved=   9.
 NSaved= 9 IEnMin= 5 EnMin= -1136.09062908763     IErMin= 8 ErrMin= 6.03D-05
 ErrMax= 8.58D-05  0.00D+00 EMaxC= 1.00D-01 BMatC= 3.50D-06 BMatP= 6.34D-07
 IDIUse=1 WtCom= 1.00D+00 WtEn= 0.00D+00
 Coeff-Com: -0.167D+01-0.428D+01 0.478D+01 0.127D+01-0.183D+01 0.191D+01
 Coeff-Com: -0.111D+01 0.927D+00 0.999D+00
 Coeff:     -0.167D+01-0.428D+01 0.478D+01 0.127D+01-0.183D+01 0.191D+01
 Coeff:     -0.111D+01 0.927D+00 0.999D+00
 Gap=     0.035 Goal=   None    Shift=    0.000
 Gap=     0.032 Goal=   None    Shift=    0.000
 RMSDP=1.03D-03 MaxDP=6.25D-02 DE=-1.26D-04 OVMax= 5.14D-02

 Cycle  71  Pass 1  IDiag  1:
 E= -1136.09069612058     Delta-E=       -0.000090625371 Rises=F Damp=F
 DIIS: error= 1.19D-04 at cycle  71 NSaved=  10.
 NSaved=10 IEnMin=10 EnMin= -1136.09069612058     IErMin= 8 ErrMin= 6.03D-05
 ErrMax= 1.19D-04  0.00D+00 EMaxC= 1.00D-01 BMatC= 1.03D-05 BMatP= 6.34D-07
 IDIUse=1 WtCom= 1.00D+00 WtEn= 0.00D+00
 Coeff-Com: -0.141D+01-0.393D+01 0.462D+01 0.150D+01-0.252D+01 0.228D+01
 Coeff-Com: -0.101D+01 0.677D+00 0.281D+00 0.518D+00
 Coeff:     -0.141D+01-0.393D+01 0.462D+01 0.150D+01-0.252D+01 0.228D+01
 Coeff:     -0.101D+01 0.677D+00 0.281D+00 0.518D+00
 Gap=     0.035 Goal=   None    Shift=    0.000
 Gap=     0.032 Goal=   None    Shift=    0.000
 RMSDP=8.87D-04 MaxDP=5.44D-02 DE=-9.06D-05 OVMax= 4.54D-02

 Cycle  72  Pass 1  IDiag  1:
 E= -1136.09061509778     Delta-E=        0.000081022803 Rises=F Damp=F
 DIIS: error= 8.97D-05 at cycle  72 NSaved=  11.
 NSaved=11 IEnMin=10 EnMin= -1136.09069612058     IErMin= 8 ErrMin= 6.03D-05
 ErrMax= 8.97D-05  0.00D+00 EMaxC= 1.00D-01 BMatC= 4.50D-06 BMatP= 6.34D-07
 IDIUse=1 WtCom= 1.00D+00 WtEn= 0.00D+00
 Coeff-Com: -0.898D+00-0.195D+01 0.207D+01 0.130D+01-0.185D+01 0.178D+01
 Coeff-Com: -0.106D+01 0.642D+00-0.186D+00-0.289D-01 0.117D+01
 Coeff:     -0.898D+00-0.195D+01 0.207D+01 0.130D+01-0.185D+01 0.178D+01
 Coeff:     -0.106D+01 0.642D+00-0.186D+00-0.289D-01 0.117D+01
 Gap=     0.035 Goal=   None    Shift=    0.000
 Gap=     0.032 Goal=   None    Shift=    0.000
 RMSDP=4.22D-04 MaxDP=2.67D-02 DE= 8.10D-05 OVMax= 2.08D-02

 Cycle  73  Pass 1  IDiag  1:
 E= -1136.09065068745     Delta-E=       -0.000035589670 Rises=F Damp=F
 DIIS: error= 9.87D-05 at cycle  73 NSaved=  12.
 NSaved=12 IEnMin=10 EnMin= -1136.09069612058     IErMin= 8 ErrMin= 6.03D-05
 ErrMax= 9.87D-05  0.00D+00 EMaxC= 1.00D-01 BMatC= 6.94D-06 BMatP= 6.34D-07
 IDIUse=1 WtCom= 1.00D+00 WtEn= 0.00D+00
 Coeff-Com: -0.118D+01-0.310D+01 0.355D+01 0.132D+01-0.227D+01 0.207D+01
 Coeff-Com: -0.102D+01 0.633D+00-0.306D-02 0.441D+00 0.125D+01-0.699D+00
 Coeff:     -0.118D+01-0.310D+01 0.355D+01 0.132D+01-0.227D+01 0.207D+01
 Coeff:     -0.102D+01 0.633D+00-0.306D-02 0.441D+00 0.125D+01-0.699D+00
 Gap=     0.035 Goal=   None    Shift=    0.000
 Gap=     0.032 Goal=   None    Shift=    0.000
 RMSDP=1.65D-04 MaxDP=1.06D-02 DE=-3.56D-05 OVMax= 8.09D-03

 Cycle  74  Pass 1  IDiag  1:
 E= -1136.09063639530     Delta-E=        0.000014292149 Rises=F Damp=F
 DIIS: error= 9.46D-05 at cycle  74 NSaved=  13.
 NSaved=13 IEnMin=10 EnMin= -1136.09069612058     IErMin= 8 ErrMin= 6.03D-05
 ErrMax= 9.46D-05  0.00D+00 EMaxC= 1.00D-01 BMatC= 5.97D-06 BMatP= 6.34D-07
 IDIUse=1 WtCom= 1.00D+00 WtEn= 0.00D+00
 Coeff-Com: -0.118D+01-0.316D+01 0.360D+01 0.123D+01-0.222D+01 0.201D+01
 Coeff-Com: -0.101D+01 0.610D+00-0.310D-01 0.896D+00 0.167D+01-0.328D+01
 Coeff-Com:  0.187D+01
 Coeff:     -0.118D+01-0.316D+01 0.360D+01 0.123D+01-0.222D+01 0.201D+01
 Coeff:     -0.101D+01 0.610D+00-0.310D-01 0.896D+00 0.167D+01-0.328D+01
 Coeff:      0.187D+01
 Gap=     0.035 Goal=   None    Shift=    0.000
 Gap=     0.032 Goal=   None    Shift=    0.000
 RMSDP=1.15D-04 MaxDP=6.24D-03 DE= 1.43D-05 OVMax= 6.21D-03

 Cycle  75  Pass 1  IDiag  1:
 E= -1136.09064716295     Delta-E=       -0.000010767654 Rises=F Damp=F
 DIIS: error= 9.76D-05 at cycle  75 NSaved=  14.
 NSaved=14 IEnMin=10 EnMin= -1136.09069612058     IErMin= 8 ErrMin= 6.03D-05
 ErrMax= 9.76D-05  0.00D+00 EMaxC= 1.00D-01 BMatC= 6.63D-06 BMatP= 6.34D-07
 IDIUse=1 WtCom= 1.00D+00 WtEn= 0.00D+00
 Coeff-Com: -0.498D+00-0.429D+00 0.759D+00 0.138D+01-0.269D+01 0.209D+01
 Coeff-Com: -0.881D+00 0.215D+00-0.118D+01 0.406D-01 0.180D+01-0.449D+01
 Coeff-Com: -0.127D+01 0.615D+01
 Coeff:     -0.498D+00-0.429D+00 0.759D+00 0.138D+01-0.269D+01 0.209D+01
 Coeff:     -0.881D+00 0.215D+00-0.118D+01 0.406D-01 0.180D+01-0.449D+01
 Coeff:     -0.127D+01 0.615D+01
 Gap=     0.035 Goal=   None    Shift=    0.000
 Gap=     0.032 Goal=   None    Shift=    0.000
 RMSDP=1.08D-03 MaxDP=6.94D-02 DE=-1.08D-05 OVMax= 5.21D-02

 Cycle  76  Pass 1  IDiag  1:
 E= -1136.09056071029     Delta-E=        0.000086452663 Rises=F Damp=F
 DIIS: error= 7.59D-05 at cycle  76 NSaved=  15.
 NSaved=15 IEnMin=10 EnMin= -1136.09069612058     IErMin= 8 ErrMin= 6.03D-05
 ErrMax= 7.59D-05  0.00D+00 EMaxC= 1.00D-01 BMatC= 3.29D-06 BMatP= 6.34D-07
 IDIUse=1 WtCom= 1.00D+00 WtEn= 0.00D+00
 Large coefficients: NSaved= 15 BigCof=   11.02 CofMax=   10.00 Det=-1.21D-10
 Inversion failed.  Reducing to 14 matrices.
 Large coefficients: NSaved= 14 BigCof=   16.58 CofMax=   10.00 Det=-1.24D-10
 Inversion failed.  Reducing to 13 matrices.
 Large coefficients: NSaved= 13 BigCof=   16.40 CofMax=   10.00 Det=-1.26D-10
 Inversion failed.  Reducing to 12 matrices.
 Coeff-Com: -0.150D+01-0.384D+01 0.676D+01-0.415D+01 0.250D+01 0.478D-01
 Coeff-Com:  0.156D+01-0.110D+01-0.280D+01-0.695D+01 0.736D+01 0.311D+01
 Coeff:     -0.150D+01-0.384D+01 0.676D+01-0.415D+01 0.250D+01 0.478D-01
 Coeff:      0.156D+01-0.110D+01-0.280D+01-0.695D+01 0.736D+01 0.311D+01
 Gap=     0.035 Goal=   None    Shift=    0.000
 Gap=     0.031 Goal=   None    Shift=    0.000
 RMSDP=3.23D-03 MaxDP=2.20D-01 DE= 8.65D-05 OVMax= 1.40D-01

 Cycle  77  Pass 1  IDiag  1:
 E= -1136.09035940031     Delta-E=        0.000201309983 Rises=F Damp=F
 DIIS: error= 9.03D-05 at cycle  77 NSaved=  13.
 NSaved=13 IEnMin= 7 EnMin= -1136.09069612058     IErMin= 1 ErrMin= 6.15D-05
 ErrMax= 9.03D-05  0.00D+00 EMaxC= 1.00D-01 BMatC= 5.09D-06 BMatP= 6.34D-07
 IDIUse=1 WtCom= 1.00D+00 WtEn= 0.00D+00
 Coeff-Com: -0.116D+01-0.400D+01 0.714D+01-0.508D+01 0.308D+01-0.461D+00
 Coeff-Com:  0.259D+01-0.149D+01-0.222D+01-0.657D+01 0.569D+01 0.296D+01
 Coeff-Com:  0.518D+00
 Coeff:     -0.116D+01-0.400D+01 0.714D+01-0.508D+01 0.308D+01-0.461D+00
 Coeff:      0.259D+01-0.149D+01-0.222D+01-0.657D+01 0.569D+01 0.296D+01
 Coeff:      0.518D+00
 Gap=     0.038 Goal=   None    Shift=    0.000
 Gap=     0.033 Goal=   None    Shift=    0.000
 RMSDP=2.47D-03 MaxDP=1.71D-01 DE= 2.01D-04 OVMax= 9.28D-02

 Cycle  78  Pass 1  IDiag  1:
 E= -1136.09011420947     Delta-E=        0.000245190833 Rises=F Damp=F
 DIIS: error= 1.91D-04 at cycle  78 NSaved=  14.
 NSaved=14 IEnMin= 7 EnMin= -1136.09069612058     IErMin= 1 ErrMin= 6.15D-05
 ErrMax= 1.91D-04  0.00D+00 EMaxC= 1.00D-01 BMatC= 1.98D-05 BMatP= 6.34D-07
 IDIUse=1 WtCom= 1.00D+00 WtEn= 0.00D+00
 Coeff-Com:  0.595D+00 0.138D+01-0.113D+01-0.853D+00 0.469D+00-0.792D+00
 Coeff-Com: -0.327D+00-0.161D+01 0.377D+01-0.574D+01 0.243D+01 0.211D+01
 Coeff-Com:  0.119D+01-0.498D+00
 Coeff:      0.595D+00 0.138D+01-0.113D+01-0.853D+00 0.469D+00-0.792D+00
 Coeff:     -0.327D+00-0.161D+01 0.377D+01-0.574D+01 0.243D+01 0.211D+01
 Coeff:      0.119D+01-0.498D+00
 Gap=     0.036 Goal=   None    Shift=    0.000
 Gap=     0.032 Goal=   None    Shift=    0.000
 RMSDP=2.40D-03 MaxDP=1.66D-01 DE= 2.45D-04 OVMax= 9.02D-02

 Cycle  79  Pass 1  IDiag  1:
 E= -1136.09035435563     Delta-E=       -0.000240146156 Rises=F Damp=F
 DIIS: error= 9.74D-05 at cycle  79 NSaved=  15.
 NSaved=15 IEnMin= 7 EnMin= -1136.09069612058     IErMin= 1 ErrMin= 6.15D-05
 ErrMax= 9.74D-05  0.00D+00 EMaxC= 1.00D-01 BMatC= 5.18D-06 BMatP= 6.34D-07
 IDIUse=1 WtCom= 1.00D+00 WtEn= 0.00D+00
 Coeff-Com:  0.223D+00-0.138D+00-0.141D+00 0.769D+00-0.400D+00-0.121D+00
 Coeff-Com:  0.118D+01 0.439D+00-0.349D+01 0.490D+01-0.356D+01-0.267D+00
 Coeff-Com:  0.729D+00-0.881D+00 0.176D+01
 Coeff:      0.223D+00-0.138D+00-0.141D+00 0.769D+00-0.400D+00-0.121D+00
 Coeff:      0.118D+01 0.439D+00-0.349D+01 0.490D+01-0.356D+01-0.267D+00
 Coeff:      0.729D+00-0.881D+00 0.176D+01
 Gap=     0.037 Goal=   None    Shift=    0.000
 Gap=     0.032 Goal=   None    Shift=    0.000
 RMSDP=3.88D-04 MaxDP=3.11D-02 DE=-2.40D-04 OVMax= 1.39D-02

 Cycle  80  Pass 1  IDiag  1:
 E= -1136.09032982001     Delta-E=        0.000024535623 Rises=F Damp=F
 DIIS: error= 1.01D-04 at cycle  80 NSaved=  16.
 NSaved=16 IEnMin= 7 EnMin= -1136.09069612058     IErMin= 1 ErrMin= 6.15D-05
 ErrMax= 1.01D-04  0.00D+00 EMaxC= 1.00D-01 BMatC= 5.32D-06 BMatP= 6.34D-07
 IDIUse=1 WtCom= 1.00D+00 WtEn= 0.00D+00
 Coeff-Com:  0.508D+00 0.101D+01-0.169D+01 0.750D+00-0.330D+00-0.241D+00
 Coeff-Com:  0.948D+00 0.557D+00-0.323D+01 0.452D+01-0.324D+01-0.123D+00
 Coeff-Com:  0.717D+00-0.902D+00 0.122D+01 0.531D+00
 Coeff:      0.508D+00 0.101D+01-0.169D+01 0.750D+00-0.330D+00-0.241D+00
 Coeff:      0.948D+00 0.557D+00-0.323D+01 0.452D+01-0.324D+01-0.123D+00
 Coeff:      0.717D+00-0.902D+00 0.122D+01 0.531D+00
 Gap=     0.037 Goal=   None    Shift=    0.000
 Gap=     0.032 Goal=   None    Shift=    0.000
 RMSDP=1.96D-04 MaxDP=1.39D-02 DE= 2.45D-05 OVMax= 7.09D-03

 Cycle  81  Pass 1  IDiag  1:
 E= -1136.09031507210     Delta-E=        0.000014747908 Rises=F Damp=F
 DIIS: error= 1.08D-04 at cycle  81 NSaved=  17.
 NSaved=17 IEnMin= 7 EnMin= -1136.09069612058     IErMin= 1 ErrMin= 6.15D-05
 ErrMax= 1.08D-04  0.00D+00 EMaxC= 1.00D-01 BMatC= 6.19D-06 BMatP= 6.34D-07
 IDIUse=1 WtCom= 1.00D+00 WtEn= 0.00D+00
 Coeff-Com:  0.676D+00 0.146D+01-0.197D+01 0.462D-01 0.121D+00-0.557D+00
 Coeff-Com:  0.651D+00 0.299D-01-0.186D+01 0.224D+01-0.154D+01 0.333D+00
 Coeff-Com:  0.879D+00-0.912D+00 0.691D+00-0.105D+01 0.175D+01
 Coeff:      0.676D+00 0.146D+01-0.197D+01 0.462D-01 0.121D+00-0.557D+00
 Coeff:      0.651D+00 0.299D-01-0.186D+01 0.224D+01-0.154D+01 0.333D+00
 Coeff:      0.879D+00-0.912D+00 0.691D+00-0.105D+01 0.175D+01
 Gap=     0.037 Goal=   None    Shift=    0.000
 Gap=     0.032 Goal=   None    Shift=    0.000
 RMSDP=3.35D-04 MaxDP=2.31D-02 DE= 1.47D-05 OVMax= 1.21D-02

 Cycle  82  Pass 1  IDiag  1:
 E= -1136.09028751696     Delta-E=        0.000027555134 Rises=F Damp=F
 DIIS: error= 1.21D-04 at cycle  82 NSaved=  18.
 NSaved=18 IEnMin= 7 EnMin= -1136.09069612058     IErMin= 1 ErrMin= 6.15D-05
 ErrMax= 1.21D-04  0.00D+00 EMaxC= 1.00D-01 BMatC= 7.96D-06 BMatP= 6.34D-07
 IDIUse=1 WtCom= 1.00D+00 WtEn= 0.00D+00
 Coeff-Com:  0.141D+00-0.797D+00 0.122D+01-0.523D+00 0.404D+00-0.231D+00
 Coeff-Com:  0.791D+00-0.184D+00-0.892D+00 0.704D+00-0.117D+01 0.253D+00
 Coeff-Com:  0.117D+01-0.118D+01 0.898D+00-0.144D+01-0.104D+01 0.288D+01
 Coeff:      0.141D+00-0.797D+00 0.122D+01-0.523D+00 0.404D+00-0.231D+00
 Coeff:      0.791D+00-0.184D+00-0.892D+00 0.704D+00-0.117D+01 0.253D+00
 Coeff:      0.117D+01-0.118D+01 0.898D+00-0.144D+01-0.104D+01 0.288D+01
 Gap=     0.037 Goal=   None    Shift=    0.000
 Gap=     0.032 Goal=   None    Shift=    0.000
 RMSDP=2.52D-05 MaxDP=1.30D-03 DE= 2.76D-05 OVMax= 1.53D-03

 Cycle  83  Pass 1  IDiag  1:
 E= -1136.09028959507     Delta-E=       -0.000002078103 Rises=F Damp=F
 DIIS: error= 1.19D-04 at cycle  83 NSaved=  19.
 NSaved=19 IEnMin= 7 EnMin= -1136.09069612058     IErMin= 1 ErrMin= 6.15D-05
 ErrMax= 1.19D-04  0.00D+00 EMaxC= 1.00D-01 BMatC= 7.87D-06 BMatP= 6.34D-07
 IDIUse=1 WtCom= 1.00D+00 WtEn= 0.00D+00
 Coeff-Com:  0.887D-01-0.477D+00 0.892D+00-0.416D+00 0.296D+00-0.144D+00
 Coeff-Com:  0.604D+00-0.203D+00 0.229D+00 0.598D-02-0.152D+01 0.289D+00
 Coeff-Com:  0.117D+01-0.111D+01 0.837D+00-0.838D+00-0.112D+01 0.903D+00
 Coeff-Com:  0.152D+01
 Coeff:      0.887D-01-0.477D+00 0.892D+00-0.416D+00 0.296D+00-0.144D+00
 Coeff:      0.604D+00-0.203D+00 0.229D+00 0.598D-02-0.152D+01 0.289D+00
 Coeff:      0.117D+01-0.111D+01 0.837D+00-0.838D+00-0.112D+01 0.903D+00
 Coeff:      0.152D+01
 Gap=     0.037 Goal=   None    Shift=    0.000
 Gap=     0.032 Goal=   None    Shift=    0.000
 RMSDP=1.29D-04 MaxDP=9.57D-03 DE=-2.08D-06 OVMax= 4.24D-03

 Cycle  84  Pass 1  IDiag  1:
 E= -1136.09027945187     Delta-E=        0.000010143201 Rises=F Damp=F
 DIIS: error= 1.23D-04 at cycle  84 NSaved=  20.
 NSaved=20 IEnMin= 7 EnMin= -1136.09069612058     IErMin= 1 ErrMin= 6.15D-05
 ErrMax= 1.23D-04  0.00D+00 EMaxC= 1.00D-01 BMatC= 8.52D-06 BMatP= 6.34D-07
 IDIUse=1 WtCom= 1.00D+00 WtEn= 0.00D+00
 Coeff-Com:  0.168D+00-0.432D-01 0.318D+00-0.431D+00 0.341D+00-0.175D+00
 Coeff-Com:  0.618D+00-0.186D+00 0.366D-01 0.459D+00-0.173D+01 0.241D+00
 Coeff-Com:  0.115D+01-0.107D+01 0.790D+00-0.680D+00-0.547D+00-0.362D-01
 Coeff-Com:  0.897D+00 0.881D+00
 Coeff:      0.168D+00-0.432D-01 0.318D+00-0.431D+00 0.341D+00-0.175D+00
 Coeff:      0.618D+00-0.186D+00 0.366D-01 0.459D+00-0.173D+01 0.241D+00
 Coeff:      0.115D+01-0.107D+01 0.790D+00-0.680D+00-0.547D+00-0.362D-01
 Coeff:      0.897D+00 0.881D+00
 Gap=     0.037 Goal=   None    Shift=    0.000
 Gap=     0.032 Goal=   None    Shift=    0.000
[...]
 DIIS: error= 6.76D-05 at cycle 127 NSaved=   4.
 NSaved= 4 IEnMin= 4 EnMin= -1136.09053091768     IErMin= 2 ErrMin= 6.75D-05
 ErrMax= 6.76D-05  0.00D+00 EMaxC= 1.00D-01 BMatC= 8.07D-07 BMatP= 6.68D-07
 IDIUse=1 WtCom= 1.00D+00 WtEn= 0.00D+00
 Coeff-Com: -0.311D+01 0.227D+01 0.148D+01 0.361D+00
 Coeff:     -0.311D+01 0.227D+01 0.148D+01 0.361D+00
 Gap=     0.034 Goal=   None    Shift=    0.000
 Gap=     0.031 Goal=   None    Shift=    0.000
 RMSDP=7.49D-04 MaxDP=5.61D-02 DE=-7.02D-05 OVMax= 2.87D-02

 Cycle 128  Pass 1  IDiag  1:
 E= -1136.09057326797     Delta-E=       -0.000042350297 Rises=F Damp=F
 DIIS: error= 7.79D-05 at cycle 128 NSaved=   5.
 NSaved= 5 IEnMin= 5 EnMin= -1136.09057326797     IErMin= 2 ErrMin= 6.75D-05
 ErrMax= 7.79D-05  0.00D+00 EMaxC= 1.00D-01 BMatC= 1.05D-06 BMatP= 6.68D-07
 IDIUse=1 WtCom= 1.00D+00 WtEn= 0.00D+00
 Coeff-Com: -0.360D+01 0.266D+01 0.130D+01 0.185D+01-0.121D+01
 Coeff:     -0.360D+01 0.266D+01 0.130D+01 0.185D+01-0.121D+01
 Gap=     0.035 Goal=   None    Shift=    0.000
 Gap=     0.031 Goal=   None    Shift=    0.000
 RMSDP=3.05D-04 MaxDP=2.08D-02 DE=-4.24D-05 OVMax= 1.34D-02

 >>>>>>>>>> Convergence criterion not met.
 SCF Done:  E(UB3LYP) =  -1136.09057327     A.U. after  129 cycles
            NFock=128  Conv=0.31D-03     -V/T= 2.0027
 <Sx>= 0.0000 <Sy>= 0.0000 <Sz>= 0.5000 <S**2>= 0.7817 S= 0.5157
 <L.S>= 0.000000000000E+00
 KE= 1.133054359163D+03 PE=-3.356948707660D+03 EE= 7.738713177110D+02
 Annihilation of the first spin contaminant:
 S**2 before annihilation     0.7817,   after     0.7504
 Leave Link  502 at Mon Nov 13 12:32:13 2023, MaxMem=  1879048192 cpu:            1094.5 elap:              96.5
 (Enter /home/sekinelabo/g16/l601.exe)
 Copying SCF densities to generalized density rwf, IOpCl= 1 IROHF=0.

 **********************************************************************

            Population analysis using the SCF Density.

 **********************************************************************

 Orbital symmetries:
 Alpha Orbitals:
       Occupied  (A) (A) (A) (A) (A) (A) (A) (A) (A) (A) (A) (A)
                 (A) (A) (A) (A) (A) (A) (A) (A) (A) (A) (A) (A)
                 (A) (A) (A) (A) (A) (A) (A) (A) (A) (A) (A) (A)
                 (A) (A) (A)
       Virtual   (A) (A) (A) (A) (A) (A) (A) (A) (A) (A) (A) (A)
                 (A) (A) (A) (A) (A) (A) (A) (A) (A) (A) (A) (A)
                 (A) (A) (A) (A) (A) (A) (A) (A) (A) (A) (A) (A)
                 (A) (A) (A) (A) (A) (A) (A) (A) (A) (A) (A) (A)
                 (A) (A) (A) (A) (A) (A) (A) (A) (A) (A) (A) (A)
                 (A) (A) (A) (A) (A) (A) (A) (A) (A) (A) (A) (A)
                 (A) (A) (A) (A) (A) (A) (A) (A) (A) (A) (A) (A)
                 (A) (A) (A) (A) (A) (A) (A) (A) (A) (A) (A) (A)
                 (A) (A) (A) (A) (A) (A) (A) (A) (A) (A) (A) (A)
                 (A) (A) (A) (A) (A) (A) (A) (A) (A) (A) (A) (A)
                 (A) (A) (A) (A) (A) (A) (A) (A) (A) (A) (A) (A)
                 (A) (A) (A) (A) (A) (A) (A) (A) (A) (A) (A) (A)
                 (A) (A) (A) (A) (A) (A) (A) (A) (A) (A) (A) (A)
                 (A) (A) (A) (A) (A) (A) (A) (A) (A) (A) (A) (A)
                 (A) (A) (A)
 Beta  Orbitals:
       Occupied  (A) (A) (A) (A) (A) (A) (A) (A) (A) (A) (A) (A)
                 (A) (A) (A) (A) (A) (A) (A) (A) (A) (A) (A) (A)
                 (A) (A) (A) (A) (A) (A) (A) (A) (A) (A) (A) (A)
                 (A) (A)
       Virtual   (A) (A) (A) (A) (A) (A) (A) (A) (A) (A) (A) (A)
                 (A) (A) (A) (A) (A) (A) (A) (A) (A) (A) (A) (A)
                 (A) (A) (A) (A) (A) (A) (A) (A) (A) (A) (A) (A)
                 (A) (A) (A) (A) (A) (A) (A) (A) (A) (A) (A) (A)
                 (A) (A) (A) (A) (A) (A) (A) (A) (A) (A) (A) (A)
                 (A) (A) (A) (A) (A) (A) (A) (A) (A) (A) (A) (A)
                 (A) (A) (A) (A) (A) (A) (A) (A) (A) (A) (A) (A)
                 (A) (A) (A) (A) (A) (A) (A) (A) (A) (A) (A) (A)
                 (A) (A) (A) (A) (A) (A) (A) (A) (A) (A) (A) (A)
                 (A) (A) (A) (A) (A) (A) (A) (A) (A) (A) (A) (A)
                 (A) (A) (A) (A) (A) (A) (A) (A) (A) (A) (A) (A)
                 (A) (A) (A) (A) (A) (A) (A) (A) (A) (A) (A) (A)
                 (A) (A) (A) (A) (A) (A) (A) (A) (A) (A) (A) (A)
                 (A) (A) (A) (A) (A) (A) (A) (A) (A) (A) (A) (A)
                 (A) (A) (A) (A)
 The electronic state is 2-A.
 Alpha  occ. eigenvalues --  -38.45393 -38.44685 -38.44589 -38.44051 -38.43847
 Alpha  occ. eigenvalues --  -38.43815 -38.43652  -2.21304  -2.20606  -2.20476
 Alpha  occ. eigenvalues --   -2.19860  -2.19721  -2.19692  -2.19639  -1.15000
 Alpha  occ. eigenvalues --   -1.14966  -1.14886  -1.14334  -1.14302  -1.14216
 Alpha  occ. eigenvalues --   -1.14144  -1.14110  -1.14055  -1.13607  -1.13542
 Alpha  occ. eigenvalues --   -1.13509  -1.13493  -1.13446  -1.13398  -1.13333
 Alpha  occ. eigenvalues --   -1.13296  -1.13291  -1.13284  -1.13256  -1.13198
 Alpha  occ. eigenvalues --   -0.18333  -0.14108  -0.11664  -0.10996
 Alpha virt. eigenvalues --   -0.07542  -0.05148  -0.03973  -0.03630  -0.03167
 Alpha virt. eigenvalues --   -0.02711  -0.01922  -0.01634  -0.00689  -0.00657
 Alpha virt. eigenvalues --   -0.00089  -0.00007   0.00524   0.00650   0.00769
 Alpha virt. eigenvalues --    0.00862   0.00968   0.01086   0.01124   0.01213
 Alpha virt. eigenvalues --    0.01382   0.01505   0.01604   0.01714   0.01760
 Alpha virt. eigenvalues --    0.01910   0.02064   0.02261   0.02395   0.02473
 Alpha virt. eigenvalues --    0.02620   0.02817   0.02857   0.02914   0.02988
 Alpha virt. eigenvalues --    0.03118   0.03345   0.03461   0.03485   0.03735
 Alpha virt. eigenvalues --    0.03790   0.03907   0.04100   0.04264   0.04374
 Alpha virt. eigenvalues --    0.04609   0.04760   0.05059   0.05216   0.05899
 Alpha virt. eigenvalues --    0.06061   0.06473   0.06653   0.07342   0.07461
 Alpha virt. eigenvalues --    0.07853   0.07956   0.08213   0.08457   0.08623
 Alpha virt. eigenvalues --    0.09017   0.09147   0.09716   0.09922   0.10443
 Alpha virt. eigenvalues --    0.10794   0.11201   0.11260   0.11933   0.12038
 Alpha virt. eigenvalues --    0.12466   0.13402   0.13774   0.13942   0.14373
 Alpha virt. eigenvalues --    0.15434   0.16238   0.16421   0.17015   0.18317
 Alpha virt. eigenvalues --    0.25155   0.28235   0.28552   0.28911   0.29101
 Alpha virt. eigenvalues --    0.30418   0.30704   0.31553   0.32061   0.32532
 Alpha virt. eigenvalues --    0.33805   0.34286   0.34981   0.35797   0.36497
 Alpha virt. eigenvalues --    0.37610   0.38058   0.38778   0.40207   0.41204
 Alpha virt. eigenvalues --    0.42307   0.42761   0.43368   0.43778   0.43950
 Alpha virt. eigenvalues --    0.44160   0.44371   0.44938   0.45145   0.45399
 Alpha virt. eigenvalues --    0.45658   0.46012   0.46133   0.46860   0.47560
 Alpha virt. eigenvalues --    0.48242   0.48789   0.49148   0.49923   0.50092
 Alpha virt. eigenvalues --    0.50155   0.50465   0.51947   0.52684   0.54070
 Alpha virt. eigenvalues --    0.54673   0.56564   0.58625   0.59132   0.63940
 Alpha virt. eigenvalues --    0.70062   0.70854   0.71132   0.76874   0.77673
 Alpha virt. eigenvalues --    0.79176   2.07910   2.10207   2.10958   2.15752
 Alpha virt. eigenvalues --    2.17535   2.18844   2.28241   4.40960   4.41707
 Alpha virt. eigenvalues --    4.42156   4.43098   4.44061   4.44314   4.44821
 Alpha virt. eigenvalues --    4.44987   4.45275   4.46100   4.46498   4.46814
 Alpha virt. eigenvalues --    4.47113   4.48291   4.54559   4.61477   4.63338
 Alpha virt. eigenvalues --    4.65996   4.68020   4.70846   4.77947  96.28473
 Alpha virt. eigenvalues --   96.31440  96.32497  96.39008  96.41082  96.43438
 Alpha virt. eigenvalues --   96.55538
  Beta  occ. eigenvalues --  -38.45304 -38.44600 -38.44591 -38.44032 -38.43855
  Beta  occ. eigenvalues --  -38.43809 -38.43630  -2.21139  -2.20487  -2.20446
  Beta  occ. eigenvalues --   -2.19825  -2.19696  -2.19679  -2.19652  -1.14886
  Beta  occ. eigenvalues --   -1.14861  -1.14769  -1.14273  -1.14195  -1.14131
  Beta  occ. eigenvalues --   -1.14121  -1.14097  -1.14006  -1.13584  -1.13532
  Beta  occ. eigenvalues --   -1.13484  -1.13465  -1.13441  -1.13343  -1.13316
  Beta  occ. eigenvalues --   -1.13300  -1.13291  -1.13257  -1.13250  -1.13193
  Beta  occ. eigenvalues --   -0.17564  -0.13959  -0.10859
  Beta virt. eigenvalues --   -0.07710  -0.07232  -0.04892  -0.03636  -0.03148
  Beta virt. eigenvalues --   -0.02729  -0.02229  -0.01678  -0.01130  -0.00664
  Beta virt. eigenvalues --   -0.00523  -0.00041   0.00203   0.00572   0.00691
  Beta virt. eigenvalues --    0.00845   0.00936   0.01038   0.01115   0.01271
  Beta virt. eigenvalues --    0.01330   0.01436   0.01606   0.01747   0.01773
  Beta virt. eigenvalues --    0.01820   0.01962   0.02137   0.02344   0.02451
  Beta virt. eigenvalues --    0.02495   0.02667   0.02883   0.02930   0.02969
  Beta virt. eigenvalues --    0.03062   0.03250   0.03388   0.03522   0.03546
  Beta virt. eigenvalues --    0.03836   0.03879   0.04042   0.04217   0.04375
  Beta virt. eigenvalues --    0.04431   0.04760   0.04792   0.05152   0.05330
  Beta virt. eigenvalues --    0.05969   0.06176   0.06609   0.06701   0.07505
  Beta virt. eigenvalues --    0.07665   0.07854   0.08005   0.08270   0.08716
  Beta virt. eigenvalues --    0.08835   0.09121   0.09483   0.09832   0.10072
  Beta virt. eigenvalues --    0.10587   0.11064   0.11311   0.11419   0.12057
  Beta virt. eigenvalues --    0.12432   0.12716   0.13592   0.14010   0.14302
  Beta virt. eigenvalues --    0.14539   0.15485   0.16415   0.16635   0.17174
  Beta virt. eigenvalues --    0.18538   0.25582   0.28410   0.29036   0.29209
  Beta virt. eigenvalues --    0.29600   0.30839   0.31109   0.31581   0.32415
  Beta virt. eigenvalues --    0.32820   0.34002   0.34430   0.35174   0.35942
  Beta virt. eigenvalues --    0.36632   0.37708   0.38355   0.39292   0.40427
  Beta virt. eigenvalues --    0.41324   0.42353   0.43006   0.43565   0.43909
  Beta virt. eigenvalues --    0.44149   0.44332   0.44557   0.45042   0.45266
  Beta virt. eigenvalues --    0.45617   0.45814   0.46110   0.46356   0.47027
  Beta virt. eigenvalues --    0.47671   0.48518   0.48860   0.49291   0.50141
  Beta virt. eigenvalues --    0.50293   0.50422   0.50708   0.52189   0.52868
  Beta virt. eigenvalues --    0.54228   0.54921   0.56784   0.58851   0.59198
  Beta virt. eigenvalues --    0.64161   0.70131   0.70946   0.71325   0.77017
  Beta virt. eigenvalues --    0.77784   0.79289   2.08061   2.10228   2.11018
  Beta virt. eigenvalues --    2.16148   2.17561   2.18932   2.28325   4.41057
  Beta virt. eigenvalues --    4.41768   4.42223   4.43137   4.44123   4.44349
  Beta virt. eigenvalues --    4.44912   4.44984   4.45355   4.46129   4.46517
  Beta virt. eigenvalues --    4.46851   4.47137   4.48318   4.54631   4.61546
  Beta virt. eigenvalues --    4.63369   4.66068   4.68088   4.70885   4.77967
  Beta virt. eigenvalues --   96.28522  96.31449  96.32519  96.39133  96.41090
  Beta virt. eigenvalues --   96.43470  96.55575
          Condensed to atoms (all electrons):
               1          2          3          4          5          6
     1  Na  12.392722  -0.182115  -0.105407   0.840067  -2.204618  -0.070545
     2  Na  -0.182115  11.014789   0.249953  -0.151665  -0.014309  -0.461971
     3  Na  -0.105407   0.249953  11.652146  -0.444493  -0.289762  -0.525647
     4  Na   0.840067  -0.151665  -0.444493  11.366977  -1.207620   0.107404
     5  Na  -2.204618  -0.014309  -0.289762  -1.207620  16.535074   0.483941
     6  Na  -0.070545  -0.461971  -0.525647   0.107404   0.483941  11.429817
     7  Na  -0.362747   0.055641   0.049424  -0.191089   0.251919   0.071079
               7
     1  Na  -0.362747
     2  Na   0.055641
     3  Na   0.049424
     4  Na  -0.191089
     5  Na   0.251919
     6  Na   0.071079
     7  Na  10.813593
          Atomic-Atomic Spin Densities.
               1          2          3          4          5          6
     1  Na   0.292178   0.127003  -0.072825  -0.028765  -0.021398  -0.018694
     2  Na   0.127003   0.112511   0.066244  -0.114625  -0.061409  -0.111003
     3  Na  -0.072825   0.066244   0.125995  -0.101707   0.110549  -0.128863
     4  Na  -0.028765  -0.114625  -0.101707   0.454908   0.042511   0.228523
     5  Na  -0.021398  -0.061409   0.110549   0.042511   0.277178  -0.069959
     6  Na  -0.018694  -0.111003  -0.128863   0.228523  -0.069959   0.096903
     7  Na  -0.059575   0.026396   0.010342  -0.042259   0.144829  -0.103940
               7
     1  Na  -0.059575
     2  Na   0.026396
     3  Na   0.010342
     4  Na  -0.042259
     5  Na   0.144829
     6  Na  -0.103940
     7  Na  -0.002421
 Mulliken charges and spin densities:
               1          2
     1  Na   0.692642   0.217924
     2  Na   0.489676   0.045116
     3  Na   0.413786   0.009735
     4  Na   0.680418   0.438585
     5  Na  -2.554624   0.422301
     6  Na  -0.034079  -0.107033
     7  Na   0.312181  -0.026629
 Sum of Mulliken charges =  -0.00000   1.00000
 Mulliken charges and spin densities with hydrogens summed into heavy atoms:
               1          2
     1  Na   0.692642   0.217924
     2  Na   0.489676   0.045116
     3  Na   0.413786   0.009735
     4  Na   0.680418   0.438585
     5  Na  -2.554624   0.422301
     6  Na  -0.034079  -0.107033
     7  Na   0.312181  -0.026629
 Electronic spatial extent (au):  <R**2>=           3245.1192
 Charge=             -0.0000 electrons
 Dipole moment (field-independent basis, Debye):
    X=             -1.1248    Y=             -1.1855    Z=              0.3710  Tot=              1.6758
 Quadrupole moment (field-independent basis, Debye-Ang):
   XX=            -67.5142   YY=            -67.7141   ZZ=            -68.4217
   XY=             -4.5014   XZ=             -1.0263   YZ=              0.6451
 Traceless Quadrupole moment (field-independent basis, Debye-Ang):
   XX=              0.3692   YY=              0.1693   ZZ=             -0.5384
   XY=             -4.5014   XZ=             -1.0263   YZ=              0.6451
 Octapole moment (field-independent basis, Debye-Ang**2):
  XXX=            -28.8087  YYY=              0.2358  ZZZ=              0.0357  XYY=              2.2203
  XXY=            -50.6280  XXZ=             13.8114  XZZ=             -2.6423  YZZ=            -14.5389
  YYZ=             12.7552  XYZ=              0.8962
 Hexadecapole moment (field-independent basis, Debye-Ang**3):
 XXXX=          -3584.4995 YYYY=           -973.8633 ZZZZ=           -796.0437 XXXY=           -140.4704
 XXXZ=            -83.1836 YYYX=            -34.6204 YYYZ=             -7.3368 ZZZX=             13.5320
 ZZZY=             -2.3038 XXYY=           -820.8480 XXZZ=           -814.4477 YYZZ=           -279.7101
 XXYZ=             28.2643 YYXZ=              5.7038 ZZXY=            -21.0124
 N-N= 3.139324575180D+02 E-N=-3.356945021457D+03  KE= 1.133054359163D+03
                          Isotropic Fermi Contact Couplings
        Atom                 a.u.       MegaHertz       Gauss      10(-4) cm-1
     1  Na(23)             0.37016     437.90552     156.25558     146.06956
     2  Na(23)             0.06713      79.41808      28.33834      26.49102
     3  Na(23)            -0.06901     -81.63575     -29.12966     -27.23075
     4  Na(23)             0.37901     448.38296     159.99419     149.56446
     5  Na(23)            -0.02115     -25.02019      -8.92783      -8.34584
     6  Na(23)             0.01910      22.59652       8.06300       7.53739
     7  Na(23)            -0.02720     -32.17353     -11.48032     -10.73193
 --------------------------------------------------------
       Center         ----  Spin Dipole Couplings  ----
                      3XX-RR        3YY-RR        3ZZ-RR
 --------------------------------------------------------
     1   Atom        0.003496     -0.005900      0.002404
     2   Atom       -0.001757      0.000684      0.001073
     3   Atom       -0.022194      0.010774      0.011420
     4   Atom        0.002319      0.002108     -0.004428
     5   Atom       -0.042024      0.042013      0.000011
     6   Atom        0.000182     -0.000978      0.000796
     7   Atom        0.001787     -0.000814     -0.000973
 --------------------------------------------------------
                        XY            XZ            YZ
 --------------------------------------------------------
     1   Atom       -0.004859      0.002362     -0.005478
     2   Atom       -0.000426      0.000432      0.005585
     3   Atom       -0.009703     -0.010946      0.035572
     4   Atom        0.001294      0.003067     -0.006123
     5   Atom       -0.011010     -0.008837      0.042882
     6   Atom       -0.005995     -0.005107      0.003074
     7   Atom       -0.000840      0.000292     -0.000595
 --------------------------------------------------------


 ---------------------------------------------------------------------------------
              Anisotropic Spin Dipole Couplings in Principal Axis System
 ---------------------------------------------------------------------------------

       Atom             a.u.   MegaHertz   Gauss  10(-4) cm-1        Axes

              Baa    -0.0095    -1.348    -0.481    -0.450  0.2686  0.8946  0.3570
     1 Na(23) Bbb     0.0006     0.087     0.031     0.029 -0.7023 -0.0718  0.7083
              Bcc     0.0089     1.261     0.450     0.421  0.6593 -0.4410  0.6090
 
              Baa    -0.0048    -0.682    -0.243    -0.227  0.1935  0.7055 -0.6817
     2 Na(23) Bbb    -0.0016    -0.231    -0.083    -0.077  0.9811 -0.1405  0.1331
              Bcc     0.0065     0.913     0.326     0.305  0.0018  0.6946  0.7194
 
              Baa    -0.0257    -3.627    -1.294    -1.210  0.8188 -0.2742  0.5044
     3 Na(23) Bbb    -0.0240    -3.382    -1.207    -1.128  0.5384  0.6717 -0.5089
              Bcc     0.0496     7.010     2.501     2.338 -0.1993  0.6882  0.6976
 
              Baa    -0.0091    -1.279    -0.456    -0.427 -0.2786  0.4864  0.8281
     4 Na(23) Bbb     0.0032     0.451     0.161     0.151  0.9458  0.2886  0.1487
              Bcc     0.0059     0.827     0.295     0.276 -0.1667  0.8247 -0.5405
 
              Baa    -0.0439    -6.204    -2.214    -2.069  0.9878  0.0535  0.1465
     5 Na(23) Bbb    -0.0266    -3.753    -1.339    -1.252 -0.0950 -0.5386  0.8372
              Bcc     0.0705     9.957     3.553     3.321 -0.1237  0.8408  0.5270
 
              Baa    -0.0067    -0.947    -0.338    -0.316  0.7318  0.6393  0.2362
     6 Na(23) Bbb    -0.0029    -0.404    -0.144    -0.135  0.2323 -0.5598  0.7954
              Bcc     0.0096     1.350     0.482     0.450  0.6407 -0.5272 -0.5581
 
              Baa    -0.0015    -0.217    -0.077    -0.072  0.1193  0.7116  0.6924
     7 Na(23) Bbb    -0.0006    -0.080    -0.029    -0.027 -0.3139 -0.6346  0.7062
              Bcc     0.0021     0.297     0.106     0.099  0.9419 -0.3016  0.1477
 

 ---------------------------------------------------------------------------------

 No NMR shielding tensors so no spin-rotation constants.
 Leave Link  601 at Mon Nov 13 12:32:14 2023, MaxMem=  1879048192 cpu:               2.6 elap:               0.2
 (Enter /home/sekinelabo/g16/l701.exe)
 SCFChk:  SCF convergence  3.05D-04 required  1.00D-08


 SCF Error SCF Error SCF Error SCF Error SCF Error SCF Error SCF Error SCF Error

                                    ERROR!!!!

    SCF has not converged.  Gradients and post-SCF results would be GARBAGE!!

 SCF Error SCF Error SCF Error SCF Error SCF Error SCF Error SCF Error SCF Error


 Error termination via Lnk1e in /home/sekinelabo/g16/l701.exe at Mon Nov 13 12:32:14 2023.
 Job cpu time:       0 days  0 hours 18 minutes 29.0 seconds.
 Elapsed time:       0 days  0 hours  1 minutes 37.4 seconds.
 File lengths (MBytes):  RWF=     32 Int=      0 D2E=      0 Chk=      5 Scr=      1
