 Entering Gaussian System, Link 0=g16
 Initial command:
 /home/sekinelabo/g16/l1.exe "/home/sekinelabo/g16temp/Gau-3980834.inp" -scrdir="/home/sekinelabo/g16temp/"
 Entering Link 1 = /home/sekinelabo/g16/l1.exe PID=   3980836.
  
 Copyright (c) 1988-2017, Gaussian, Inc.  All Rights Reserved.
  
 This is part of the Gaussian(R) 16 program.  It is based on
 the Gaussian(R) 09 system (copyright 2009, Gaussian, Inc.),
 the Gaussian(R) 03 system (copyright 2003, Gaussian, Inc.),
 the Gaussian(R) 98 system (copyright 1998, Gaussian, Inc.),
 the Gaussian(R) 94 system (copyright 1995, Gaussian, Inc.),
 the Gaussian 92(TM) system (copyright 1992, Gaussian, Inc.),
 the Gaussian 90(TM) system (copyright 1990, Gaussian, Inc.),
 the Gaussian 88(TM) system (copyright 1988, Gaussian, Inc.),
 the Gaussian 86(TM) system (copyright 1986, Carnegie Mellon
 University), and the Gaussian 82(TM) system (copyright 1983,
 Carnegie Mellon University). Gaussian is a federally registered
 trademark of Gaussian, Inc.
  
 This software contains proprietary and confidential information,
 including trade secrets, belonging to Gaussian, Inc.
  
 This software is provided under written license and may be
 used, copied, transmitted, or stored only in accord with that
 written license.
  
 The following legend is applicable only to US Government
 contracts under FAR:
  
                    RESTRICTED RIGHTS LEGEND
  
 Use, reproduction and disclosure by the US Government is
 subject to restrictions as set forth in subparagraphs (a)
 and (c) of the Commercial Computer Software - Restricted
 Rights clause in FAR 52.227-19.
  
 Gaussian, Inc.
 340 Quinnipiac St., Bldg. 40, Wallingford CT 06492
  
  
 ---------------------------------------------------------------
 Warning -- This program may not be used in any manner that
 competes with the business of Gaussian, Inc. or will provide
 assistance to any competitor of Gaussian, Inc.  The licensee
 of this program is prohibited from giving any competitor of
 Gaussian, Inc. access to this program.  By using this program,
 the user acknowledges that Gaussian, Inc. is engaged in the
 business of creating and licensing software in the field of
 computational chemistry and represents and warrants to the
 licensee that it is not a competitor of Gaussian, Inc. and that
 it will not use this program in any manner prohibited above.
 ---------------------------------------------------------------
  

 Cite this work as:
 Gaussian 16, Revision B.01,
 M. J. Frisch, G. W. Trucks, H. B. Schlegel, G. E. Scuseria, 
 M. A. Robb, J. R. Cheeseman, G. Scalmani, V. Barone, 
 G. A. Petersson, H. Nakatsuji, X. Li, M. Caricato, A. V. Marenich, 
 J. Bloino, B. G. Janesko, R. Gomperts, B. Mennucci, H. P. Hratchian, 
 J. V. Ortiz, A. F. Izmaylov, J. L. Sonnenberg, D. Williams-Young, 
 F. Ding, F. Lipparini, F. Egidi, J. Goings, B. Peng, A. Petrone, 
 T. Henderson, D. Ranasinghe, V. G. Zakrzewski, J. Gao, N. Rega, 
 G. Zheng, W. Liang, M. Hada, M. Ehara, K. Toyota, R. Fukuda, 
 J. Hasegawa, M. Ishida, T. Nakajima, Y. Honda, O. Kitao, H. Nakai, 
 T. Vreven, K. Throssell, J. A. Montgomery, Jr., J. E. Peralta, 
 F. Ogliaro, M. J. Bearpark, J. J. Heyd, E. N. Brothers, K. N. Kudin, 
 V. N. Staroverov, T. A. Keith, R. Kobayashi, J. Normand, 
 K. Raghavachari, A. P. Rendell, J. C. Burant, S. S. Iyengar, 
 J. Tomasi, M. Cossi, J. M. Millam, M. Klene, C. Adamo, R. Cammi, 
 J. W. Ochterski, R. L. Martin, K. Morokuma, O. Farkas, 
 J. B. Foresman, and D. J. Fox, Gaussian, Inc., Wallingford CT, 2016.
 
 ******************************************
 Gaussian 16:  ES64L-G16RevB.01 20-Dec-2017
                13-Nov-2023 
 ******************************************
 %mem=14GB
 %chk=checkpoint.chk
 %nprocshared=16
 Will use up to   16 processors via shared memory.
 -------------------------
 #P B3LYP/6-311+g(d) force
 -------------------------
 1/10=7,30=1,38=1/1,3;
 2/12=2,17=6,18=5,40=1/2;
 3/5=4,6=6,7=11,11=2,25=1,30=1,71=1,74=-5/1,2,3;
 4//1;
 5/5=2,38=5/2;
 6/7=2,8=2,9=2,10=2,28=1/1;
 7/29=1/1,2,3,16;
 1/10=7,30=1/3;
 99//99;
 Leave Link    1 at Mon Nov 13 12:18:03 2023, MaxMem=  1879048192 cpu:               0.3 elap:               0.0
 (Enter /home/sekinelabo/g16/l101.exe)
 ------------------------------
 Gaussian input prepared by ASE
 ------------------------------
 Symbolic Z-matrix:
 Charge =  0 Multiplicity = 2
 Na                    0.28583   1.59562   3.35171 
 Na                    3.0752    0.        0. 
 Na                    0.2096    0.75256   0.47716 
 Na                    0.        3.65464   1.19199 
 Na                    2.75526   4.65374   0.54252 
 Na                    4.34774   2.28703   1.47356 
 Na                    3.15299   1.85699   4.19452 
 
 ITRead=  0  0  0  0  0  0  0
 MicOpt= -1 -1 -1 -1 -1 -1 -1
 NAtoms=      7 NQM=        7 NQMF=       0 NMMI=      0 NMMIF=      0
                NMic=       0 NMicF=      0.
                    Isotopes and Nuclear Properties:
 (Nuclear quadrupole moments (NQMom) in fm**2, nuclear magnetic moments (NMagM)
  in nuclear magnetons)

  Atom         1           2           3           4           5           6           7
 IAtWgt=          23          23          23          23          23          23          23
 AtmWgt=  22.9897697  22.9897697  22.9897697  22.9897697  22.9897697  22.9897697  22.9897697
 NucSpn=           3           3           3           3           3           3           3
 AtZEff=  -0.0000000  -0.0000000  -0.0000000  -0.0000000  -0.0000000  -0.0000000  -0.0000000
 NQMom=   10.4000000  10.4000000  10.4000000  10.4000000  10.4000000  10.4000000  10.4000000
 NMagM=    2.2175200   2.2175200   2.2175200   2.2175200   2.2175200   2.2175200   2.2175200
 AtZNuc=  11.0000000  11.0000000  11.0000000  11.0000000  11.0000000  11.0000000  11.0000000
 Leave Link  101 at Mon Nov 13 12:18:03 2023, MaxMem=  1879048192 cpu:               2.6 elap:               0.2
 (Enter /home/sekinelabo/g16/l103.exe)

 GradGradGradGradGradGradGradGradGradGradGradGradGradGradGradGradGradGrad
 Berny optimization.
 Initialization pass.
 Trust Radius=3.00D-01 FncErr=1.00D-07 GrdErr=1.00D-07 EigMax=2.50D+02 EigMin=1.00D-04
 Number of steps in this run=      2 maximum allowed number of steps=      2.
 GradGradGradGradGradGradGradGradGradGradGradGradGradGradGradGradGradGrad

 Leave Link  103 at Mon Nov 13 12:18:03 2023, MaxMem=  1879048192 cpu:               0.3 elap:               0.0
 (Enter /home/sekinelabo/g16/l202.exe)
                          Input orientation:                          
 ---------------------------------------------------------------------
 Center     Atomic      Atomic             Coordinates (Angstroms)
 Number     Number       Type             X           Y           Z
 ---------------------------------------------------------------------
      1         11           0        0.285830    1.595619    3.351714
      2         11           0        3.075197    0.000000    0.000000
      3         11           0        0.209604    0.752557    0.477165
      4         11           0        0.000000    3.654642    1.191985
      5         11           0        2.755263    4.653740    0.542523
      6         11           0        4.347736    2.287029    1.473556
      7         11           0        3.152989    1.856993    4.194520
 ---------------------------------------------------------------------
                    Distance matrix (angstroms):
                    1          2          3          4          5
     1  Na   0.000000
     2  Na   4.643335   0.000000
     3  Na   2.996598   3.000943   0.000000
     4  Na   2.997616   4.922812   2.996165   0.000000
     5  Na   4.831331   4.696167   4.658743   3.001912   0.000000
     6  Na   4.528201   3.003535   4.524548   4.566448   3.000685
     7  Na   2.999874   4.587861   4.868473   4.710425   4.617041
                    6          7
     6  Na   0.000000
     7  Na   3.002665   0.000000
 Stoichiometry    Na7(2)
 Framework group  C1[X(Na7)]
 Deg. of freedom    15
 Full point group                 C1      NOp   1
 Largest Abelian subgroup         C1      NOp   1
 Largest concise Abelian subgroup C1      NOp   1
                         Standard orientation:                         
 ---------------------------------------------------------------------
 Center     Atomic      Atomic             Coordinates (Angstroms)
 Number     Number       Type             X           Y           Z
 ---------------------------------------------------------------------
      1         11           0       -1.689401   -0.518749    1.747219
      2         11           0        1.099966   -2.114369   -1.604495
      3         11           0       -1.765628   -1.361812   -1.127330
      4         11           0       -1.975231    1.540274   -0.412509
      5         11           0        0.780032    2.539372   -1.061972
      6         11           0        2.372504    0.172660   -0.130939
      7         11           0        1.177758   -0.257376    2.590025
 ---------------------------------------------------------------------
 Rotational constants (GHZ):           0.7223463           0.6536911           0.6424254
 Leave Link  202 at Mon Nov 13 12:18:03 2023, MaxMem=  1879048192 cpu:               0.0 elap:               0.0
 (Enter /home/sekinelabo/g16/l301.exe)
 Standard basis: 6-311+G(d) (5D, 7F)
 Ernie: Thresh=  0.10000D-02 Tol=  0.10000D-05 Strict=F.
 There are   217 symmetry adapted cartesian basis functions of A   symmetry.
 There are   210 symmetry adapted basis functions of A   symmetry.
   210 basis functions,   350 primitive gaussians,   217 cartesian basis functions
    39 alpha electrons       38 beta electrons
       nuclear repulsion energy       356.4043760581 Hartrees.
 IExCor=  402 DFT=T Ex+Corr=B3LYP ExCW=0 ScaHFX=  0.200000
 ScaDFX=  0.800000  0.720000  1.000000  0.810000 ScalE2=  1.000000  1.000000
 IRadAn=      5 IRanWt=     -1 IRanGd=            0 ICorTp=0 IEmpDi=  4
 NAtoms=    7 NActive=    7 NUniq=    7 SFac= 1.00D+00 NAtFMM=   60 NAOKFM=F Big=F
 Integral buffers will be    131072 words long.
 Raffenetti 2 integral format.
 Two-electron integral symmetry is turned on.
 Leave Link  301 at Mon Nov 13 12:18:03 2023, MaxMem=  1879048192 cpu:               0.5 elap:               0.0
 (Enter /home/sekinelabo/g16/l302.exe)
 NPDir=0 NMtPBC=     1 NCelOv=     1 NCel=       1 NClECP=     1 NCelD=      1
         NCelK=      1 NCelE2=     1 NClLst=     1 CellRange=     0.0.
 One-electron integrals computed using PRISM.
 One-electron integral symmetry used in STVInt
 NBasis=   210 RedAO= T EigKep=  1.78D-06  NBF=   210
 NBsUse=   210 1.00D-06 EigRej= -1.00D+00 NBFU=   210
 Precomputing XC quadrature grid using
 IXCGrd= 4 IRadAn=           5 IRanWt=          -1 IRanGd=           0 AccXCQ= 0.00D+00.
 Generated NRdTot=       0 NPtTot=           0 NUsed=           0 NTot=          32
 NSgBfM=   208   208   208   208   208 MxSgAt=     7 MxSgA2=     7.
 Leave Link  302 at Mon Nov 13 12:18:04 2023, MaxMem=  1879048192 cpu:              16.2 elap:               1.1
 (Enter /home/sekinelabo/g16/l303.exe)
 DipDrv:  MaxL=1.
 Leave Link  303 at Mon Nov 13 12:18:04 2023, MaxMem=  1879048192 cpu:               3.2 elap:               0.2
 (Enter /home/sekinelabo/g16/l401.exe)
 ExpMin= 7.60D-03 ExpMax= 3.62D+04 ExpMxC= 1.21D+03 IAcc=3 IRadAn=         5 AccDes= 0.00D+00
 Harris functional with IExCor=  402 and IRadAn=       5 diagonalized for initial guess.
 HarFok:  IExCor=  402 AccDes= 0.00D+00 IRadAn=         5 IDoV= 1 UseB2=F ITyADJ=14
 ICtDFT=  3500011 ScaDFX=  1.000000  1.000000  1.000000  1.000000
 FoFCou: FMM=F IPFlag=           0 FMFlag=      100000 FMFlg1=           0
         NFxFlg=           0 DoJE=T BraDBF=F KetDBF=T FulRan=T
         wScrn=  0.000000 ICntrl=       500 IOpCl=  0 I1Cent=   200000004 NGrid=           0
         NMat0=    1 NMatS0=      1 NMatT0=    0 NMatD0=    1 NMtDS0=    0 NMtDT0=    0
 Petite list used in FoFCou.
 Harris En= -1135.87367755618    
 JPrj=0 DoOrth=F DoCkMO=F.
 Initial guess <Sx>= 0.0000 <Sy>= 0.0000 <Sz>= 0.5000 <S**2>= 0.7500 S= 0.5000
 Leave Link  401 at Mon Nov 13 12:18:05 2023, MaxMem=  1879048192 cpu:               4.8 elap:               0.3
 (Enter /home/sekinelabo/g16/l502.exe)
 Keep R1 and R2 ints in memory in canonical form, NReq=507620346.
 FoFCou: FMM=F IPFlag=           0 FMFlag=           0 FMFlg1=           0
         NFxFlg=           0 DoJE=F BraDBF=F KetDBF=F FulRan=T
         wScrn=  0.000000 ICntrl=       600 IOpCl=  0 I1Cent=           0 NGrid=           0
         NMat0=    1 NMatS0=  22155 NMatT0=    0 NMatD0=    1 NMtDS0=    0 NMtDT0=    0
 Symmetry not used in FoFCou.
 Two-electron integral symmetry not used.
 UHF open shell SCF:
 Using DIIS extrapolation, IDIIS=  1040.
 NGot=  1879048192 LenX=  1388082390 LenY=  1388034860
 Requested convergence on RMS density matrix=1.00D-08 within 128 cycles.
 Requested convergence on MAX density matrix=1.00D-06.
 Requested convergence on             energy=1.00D-06.
 No special actions if energy rises.

 Cycle   1  Pass 1  IDiag  1:
 E= -1136.07004055208    
 DIIS: error= 1.50D-02 at cycle   1 NSaved=   1.
 NSaved= 1 IEnMin= 1 EnMin= -1136.07004055208     IErMin= 1 ErrMin= 1.50D-02
 ErrMax= 1.50D-02  0.00D+00 EMaxC= 1.00D-01 BMatC= 1.94D-01 BMatP= 1.94D-01
 IDIUse=3 WtCom= 8.50D-01 WtEn= 1.50D-01
 Coeff-Com:  0.100D+01
 Coeff-En:   0.100D+01
 Coeff:      0.100D+01
 Gap=     0.089 Goal=   None    Shift=    0.000
 Gap=     0.016 Goal=   None    Shift=    0.000
 GapD=    0.016 DampG=0.250 DampE=0.500 DampFc=0.2500 IDamp=-1.
 Damping current iteration by 2.50D-01
 RMSDP=2.27D-02 MaxDP=1.87D+00              OVMax= 1.99D-01

 Cycle   2  Pass 1  IDiag  1:
 E= -1136.08161596810     Delta-E=       -0.011575416020 Rises=F Damp=T
 DIIS: error= 1.04D-02 at cycle   2 NSaved=   2.
 NSaved= 2 IEnMin= 2 EnMin= -1136.08161596810     IErMin= 2 ErrMin= 1.04D-02
 ErrMax= 1.04D-02  0.00D+00 EMaxC= 1.00D-01 BMatC= 7.40D-02 BMatP= 1.94D-01
 IDIUse=3 WtCom= 8.96D-01 WtEn= 1.04D-01
 Coeff-Com: -0.129D+01 0.229D+01
 Coeff-En:   0.000D+00 0.100D+01
 Coeff:     -0.115D+01 0.215D+01
 Gap=     0.074 Goal=   None    Shift=    0.000
 Gap=     0.028 Goal=   None    Shift=    0.000
 RMSDP=1.24D-02 MaxDP=1.06D+00 DE=-1.16D-02 OVMax= 1.43D-01

 Cycle   3  Pass 1  IDiag  1:
 E= -1136.10201917862     Delta-E=       -0.020403210526 Rises=F Damp=F
 DIIS: error= 2.27D-03 at cycle   3 NSaved=   3.
 NSaved= 3 IEnMin= 3 EnMin= -1136.10201917862     IErMin= 3 ErrMin= 2.27D-03
 ErrMax= 2.27D-03  0.00D+00 EMaxC= 1.00D-01 BMatC= 2.18D-03 BMatP= 7.40D-02
 IDIUse=3 WtCom= 9.77D-01 WtEn= 2.27D-02
 Coeff-Com: -0.119D+00 0.239D+00 0.880D+00
 Coeff-En:   0.000D+00 0.000D+00 0.100D+01
 Coeff:     -0.117D+00 0.234D+00 0.883D+00
 Gap=     0.067 Goal=   None    Shift=    0.000
 Gap=     0.020 Goal=   None    Shift=    0.000
 RMSDP=4.42D-03 MaxDP=3.13D-01 DE=-2.04D-02 OVMax= 9.51D-02

 Cycle   4  Pass 1  IDiag  1:
 E= -1136.09925133525     Delta-E=        0.002767843371 Rises=F Damp=F
 DIIS: error= 3.92D-03 at cycle   4 NSaved=   4.
 NSaved= 4 IEnMin= 3 EnMin= -1136.10201917862     IErMin= 3 ErrMin= 2.27D-03
 ErrMax= 3.92D-03  0.00D+00 EMaxC= 1.00D-01 BMatC= 4.36D-03 BMatP= 2.18D-03
 IDIUse=3 WtCom= 1.38D-01 WtEn= 8.62D-01
 Coeff-Com:  0.402D-01-0.519D-01 0.596D+00 0.416D+00
 Coeff-En:   0.000D+00 0.000D+00 0.666D+00 0.334D+00
 Coeff:      0.554D-02-0.715D-02 0.657D+00 0.345D+00
 Gap=     0.070 Goal=   None    Shift=    0.000
 Gap=     0.025 Goal=   None    Shift=    0.000
 RMSDP=1.80D-03 MaxDP=1.21D-01 DE= 2.77D-03 OVMax= 5.24D-02

 Cycle   5  Pass 1  IDiag  1:
 E= -1136.10397509189     Delta-E=       -0.004723756636 Rises=F Damp=F
 DIIS: error= 4.63D-04 at cycle   5 NSaved=   5.
 NSaved= 5 IEnMin= 5 EnMin= -1136.10397509189     IErMin= 5 ErrMin= 4.63D-04
 ErrMax= 4.63D-04  0.00D+00 EMaxC= 1.00D-01 BMatC= 1.51D-04 BMatP= 2.18D-03
 IDIUse=3 WtCom= 9.95D-01 WtEn= 4.63D-03
 Coeff-Com: -0.229D-02 0.254D-02 0.284D+00 0.103D+00 0.613D+00
 Coeff-En:   0.000D+00 0.000D+00 0.000D+00 0.000D+00 0.100D+01
 Coeff:     -0.228D-02 0.253D-02 0.283D+00 0.102D+00 0.615D+00
 Gap=     0.070 Goal=   None    Shift=    0.000
 Gap=     0.026 Goal=   None    Shift=    0.000
 RMSDP=3.90D-04 MaxDP=2.50D-02 DE=-4.72D-03 OVMax= 1.02D-02

 Cycle   6  Pass 1  IDiag  1:
 E= -1136.10407396532     Delta-E=       -0.000098873426 Rises=F Damp=F
 DIIS: error= 1.36D-04 at cycle   6 NSaved=   6.
 NSaved= 6 IEnMin= 6 EnMin= -1136.10407396532     IErMin= 6 ErrMin= 1.36D-04
 ErrMax= 1.36D-04  0.00D+00 EMaxC= 1.00D-01 BMatC= 5.47D-06 BMatP= 1.51D-04
 IDIUse=3 WtCom= 9.99D-01 WtEn= 1.36D-03
 Coeff-Com: -0.962D-02 0.124D-01-0.612D-02-0.382D-01 0.217D+00 0.825D+00
 Coeff-En:   0.000D+00 0.000D+00 0.000D+00 0.000D+00 0.000D+00 0.100D+01
 Coeff:     -0.961D-02 0.124D-01-0.612D-02-0.382D-01 0.216D+00 0.825D+00
 Gap=     0.070 Goal=   None    Shift=    0.000
 Gap=     0.026 Goal=   None    Shift=    0.000
 RMSDP=2.58D-04 MaxDP=1.73D-02 DE=-9.89D-05 OVMax= 5.66D-03

 Cycle   7  Pass 1  IDiag  1:
 E= -1136.10408115139     Delta-E=       -0.000007186077 Rises=F Damp=F
 DIIS: error= 1.24D-04 at cycle   7 NSaved=   7.
 NSaved= 7 IEnMin= 7 EnMin= -1136.10408115139     IErMin= 7 ErrMin= 1.24D-04
 ErrMax= 1.24D-04  0.00D+00 EMaxC= 1.00D-01 BMatC= 3.67D-06 BMatP= 5.47D-06
 IDIUse=3 WtCom= 9.99D-01 WtEn= 1.24D-03
 Coeff-Com: -0.585D-02 0.758D-02-0.691D-01-0.512D-01 0.154D-01 0.573D+00
 Coeff-Com:  0.530D+00
 Coeff-En:   0.000D+00 0.000D+00 0.000D+00 0.000D+00 0.000D+00 0.558D-01
 Coeff-En:   0.944D+00
 Coeff:     -0.585D-02 0.757D-02-0.690D-01-0.512D-01 0.154D-01 0.573D+00
 Coeff:      0.530D+00
 Gap=     0.070 Goal=   None    Shift=    0.000
 Gap=     0.026 Goal=   None    Shift=    0.000
 RMSDP=1.28D-04 MaxDP=6.74D-03 DE=-7.19D-06 OVMax= 4.27D-03

 Cycle   8  Pass 1  IDiag  1:
 E= -1136.10408685472     Delta-E=       -0.000005703328 Rises=F Damp=F
 DIIS: error= 3.18D-05 at cycle   8 NSaved=   8.
 NSaved= 8 IEnMin= 8 EnMin= -1136.10408685472     IErMin= 8 ErrMin= 3.18D-05
 ErrMax= 3.18D-05  0.00D+00 EMaxC= 1.00D-01 BMatC= 2.05D-07 BMatP= 3.67D-06
 IDIUse=1 WtCom= 1.00D+00 WtEn= 0.00D+00
 Coeff-Com:  0.166D-02-0.216D-02-0.136D-01-0.237D-02-0.480D-01-0.888D-01
 Coeff-Com:  0.919D-01 0.106D+01
 Coeff:      0.166D-02-0.216D-02-0.136D-01-0.237D-02-0.480D-01-0.888D-01
 Coeff:      0.919D-01 0.106D+01
 Gap=     0.070 Goal=   None    Shift=    0.000
 Gap=     0.026 Goal=   None    Shift=    0.000
 RMSDP=7.88D-05 MaxDP=5.62D-03 DE=-5.70D-06 OVMax= 1.95D-03

 Cycle   9  Pass 1  IDiag  1:
 E= -1136.10408796292     Delta-E=       -0.000001108198 Rises=F Damp=F
 DIIS: error= 1.42D-05 at cycle   9 NSaved=   9.
 NSaved= 9 IEnMin= 9 EnMin= -1136.10408796292     IErMin= 9 ErrMin= 1.42D-05
 ErrMax= 1.42D-05  0.00D+00 EMaxC= 1.00D-01 BMatC= 4.31D-08 BMatP= 2.05D-07
 IDIUse=1 WtCom= 1.00D+00 WtEn= 0.00D+00
 Coeff-Com:  0.901D-03-0.117D-02 0.498D-02 0.435D-02-0.554D-02-0.815D-01
 Coeff-Com: -0.274D-01 0.130D+00 0.975D+00
 Coeff:      0.901D-03-0.117D-02 0.498D-02 0.435D-02-0.554D-02-0.815D-01
 Coeff:     -0.274D-01 0.130D+00 0.975D+00
 Gap=     0.070 Goal=   None    Shift=    0.000
 Gap=     0.026 Goal=   None    Shift=    0.000
 RMSDP=2.48D-05 MaxDP=9.27D-04 DE=-1.11D-06 OVMax= 1.49D-03

 Cycle  10  Pass 1  IDiag  1:
 E= -1136.10408829690     Delta-E=       -0.000000333977 Rises=F Damp=F
 DIIS: error= 1.28D-05 at cycle  10 NSaved=  10.
 NSaved=10 IEnMin=10 EnMin= -1136.10408829690     IErMin=10 ErrMin= 1.28D-05
 ErrMax= 1.28D-05  0.00D+00 EMaxC= 1.00D-01 BMatC= 5.24D-08 BMatP= 4.31D-08
 IDIUse=1 WtCom= 1.00D+00 WtEn= 0.00D+00
 Coeff-Com:  0.163D-03-0.210D-03 0.717D-02 0.337D-02 0.984D-02-0.403D-01
 Coeff-Com: -0.298D-01-0.194D+00 0.706D+00 0.538D+00
 Coeff:      0.163D-03-0.210D-03 0.717D-02 0.337D-02 0.984D-02-0.403D-01
 Coeff:     -0.298D-01-0.194D+00 0.706D+00 0.538D+00
 Gap=     0.070 Goal=   None    Shift=    0.000
 Gap=     0.026 Goal=   None    Shift=    0.000
 RMSDP=1.33D-05 MaxDP=5.79D-04 DE=-3.34D-07 OVMax= 9.45D-04

 Cycle  11  Pass 1  IDiag  1:
 E= -1136.10408849959     Delta-E=       -0.000000202690 Rises=F Damp=F
 DIIS: error= 1.04D-05 at cycle  11 NSaved=  11.
 NSaved=11 IEnMin=11 EnMin= -1136.10408849959     IErMin=11 ErrMin= 1.04D-05
 ErrMax= 1.04D-05  0.00D+00 EMaxC= 1.00D-01 BMatC= 2.07D-08 BMatP= 4.31D-08
 IDIUse=1 WtCom= 1.00D+00 WtEn= 0.00D+00
 Coeff-Com: -0.832D-03 0.109D-02 0.204D-02-0.182D-02 0.173D-01 0.289D-01
 Coeff-Com:  0.197D-01-0.329D+00-0.105D+00 0.210D+00 0.116D+01
 Coeff:     -0.832D-03 0.109D-02 0.204D-02-0.182D-02 0.173D-01 0.289D-01
 Coeff:      0.197D-01-0.329D+00-0.105D+00 0.210D+00 0.116D+01
 Gap=     0.070 Goal=   None    Shift=    0.000
 Gap=     0.026 Goal=   None    Shift=    0.000
 RMSDP=2.15D-05 MaxDP=9.12D-04 DE=-2.03D-07 OVMax= 2.13D-03

 Cycle  12  Pass 1  IDiag  1:
 E= -1136.10408877132     Delta-E=       -0.000000271738 Rises=F Damp=F
 DIIS: error= 8.22D-06 at cycle  12 NSaved=  12.
 NSaved=12 IEnMin=12 EnMin= -1136.10408877132     IErMin=12 ErrMin= 8.22D-06
 ErrMax= 8.22D-06  0.00D+00 EMaxC= 1.00D-01 BMatC= 1.39D-08 BMatP= 2.07D-08
 IDIUse=1 WtCom= 1.00D+00 WtEn= 0.00D+00
 Coeff-Com: -0.356D-03 0.468D-03-0.664D-03-0.181D-02 0.663D-02 0.747D-02
 Coeff-Com:  0.261D-01-0.929D-01 0.418D-02-0.179D+00 0.105D+00 0.113D+01
 Coeff:     -0.356D-03 0.468D-03-0.664D-03-0.181D-02 0.663D-02 0.747D-02
 Coeff:      0.261D-01-0.929D-01 0.418D-02-0.179D+00 0.105D+00 0.113D+01
 Gap=     0.070 Goal=   None    Shift=    0.000
 Gap=     0.026 Goal=   None    Shift=    0.000
 RMSDP=1.69D-05 MaxDP=7.37D-04 DE=-2.72D-07 OVMax= 1.78D-03

 Cycle  13  Pass 1  IDiag  1:
 E= -1136.10408894404     Delta-E=       -0.000000172718 Rises=F Damp=F
 DIIS: error= 8.04D-06 at cycle  13 NSaved=  13.
 NSaved=13 IEnMin=13 EnMin= -1136.10408894404     IErMin=13 ErrMin= 8.04D-06
 ErrMax= 8.04D-06  0.00D+00 EMaxC= 1.00D-01 BMatC= 1.07D-08 BMatP= 1.39D-08
 IDIUse=1 WtCom= 1.00D+00 WtEn= 0.00D+00
 Coeff-Com:  0.174D-03-0.229D-03-0.310D-03 0.344D-03-0.154D-02-0.190D-01
 Coeff-Com:  0.164D-01 0.405D-01 0.214D+00-0.126D+00-0.608D+00-0.270D+00
 Coeff-Com:  0.175D+01
 Coeff:      0.174D-03-0.229D-03-0.310D-03 0.344D-03-0.154D-02-0.190D-01
 Coeff:      0.164D-01 0.405D-01 0.214D+00-0.126D+00-0.608D+00-0.270D+00
 Coeff:      0.175D+01
 Gap=     0.070 Goal=   None    Shift=    0.000
 Gap=     0.026 Goal=   None    Shift=    0.000
 RMSDP=2.84D-05 MaxDP=1.21D-03 DE=-1.73D-07 OVMax= 3.02D-03

 Cycle  14  Pass 1  IDiag  1:
 E= -1136.10408919373     Delta-E=       -0.000000249690 Rises=F Damp=F
 DIIS: error= 7.36D-06 at cycle  14 NSaved=  14.
 NSaved=14 IEnMin=14 EnMin= -1136.10408919373     IErMin=14 ErrMin= 7.36D-06
 ErrMax= 7.36D-06  0.00D+00 EMaxC= 1.00D-01 BMatC= 9.12D-09 BMatP= 1.07D-08
 IDIUse=1 WtCom= 1.00D+00 WtEn= 0.00D+00
 Coeff-Com: -0.196D-04 0.279D-04 0.980D-03 0.304D-03 0.256D-02-0.898D-02
 Coeff-Com:  0.130D-01-0.511D-01 0.109D+00 0.487D-01 0.149D-01-0.867D+00
 Coeff-Com:  0.201D+00 0.154D+01
 Coeff:     -0.196D-04 0.279D-04 0.980D-03 0.304D-03 0.256D-02-0.898D-02
 Coeff:      0.130D-01-0.511D-01 0.109D+00 0.487D-01 0.149D-01-0.867D+00
 Coeff:      0.201D+00 0.154D+01
 Gap=     0.070 Goal=   None    Shift=    0.000
 Gap=     0.026 Goal=   None    Shift=    0.000
 RMSDP=3.50D-05 MaxDP=1.50D-03 DE=-2.50D-07 OVMax= 3.50D-03

 Cycle  15  Pass 1  IDiag  1:
 E= -1136.10408945367     Delta-E=       -0.000000259940 Rises=F Damp=F
 DIIS: error= 6.61D-06 at cycle  15 NSaved=  15.
 NSaved=15 IEnMin=15 EnMin= -1136.10408945367     IErMin=15 ErrMin= 6.61D-06
 ErrMax= 6.61D-06  0.00D+00 EMaxC= 1.00D-01 BMatC= 7.20D-09 BMatP= 9.12D-09
 IDIUse=1 WtCom= 1.00D+00 WtEn= 0.00D+00
 Coeff-Com: -0.543D-03 0.718D-03 0.102D-02-0.142D-02 0.965D-02 0.204D-01
 Coeff-Com:  0.157D-01-0.189D+00-0.162D+00 0.114D+00 0.913D+00 0.894D-01
 Coeff-Com: -0.175D+01-0.455D+00 0.239D+01
 Coeff:     -0.543D-03 0.718D-03 0.102D-02-0.142D-02 0.965D-02 0.204D-01
 Coeff:      0.157D-01-0.189D+00-0.162D+00 0.114D+00 0.913D+00 0.894D-01
 Coeff:     -0.175D+01-0.455D+00 0.239D+01
 Gap=     0.070 Goal=   None    Shift=    0.000
 Gap=     0.026 Goal=   None    Shift=    0.000
 RMSDP=6.46D-05 MaxDP=2.86D-03 DE=-2.60D-07 OVMax= 6.20D-03

 Cycle  16  Pass 1  IDiag  1:
 E= -1136.10408985102     Delta-E=       -0.000000397349 Rises=F Damp=F
 DIIS: error= 5.25D-06 at cycle  16 NSaved=  16.
 NSaved=16 IEnMin=16 EnMin= -1136.10408985102     IErMin=16 ErrMin= 5.25D-06
 ErrMax= 5.25D-06  0.00D+00 EMaxC= 1.00D-01 BMatC= 4.73D-09 BMatP= 7.20D-09
 IDIUse=1 WtCom= 1.00D+00 WtEn= 0.00D+00
 Coeff-Com:  0.136D-03-0.186D-03-0.121D-02 0.536D-04-0.173D-02-0.854D-02
 Coeff-Com:  0.275D-03 0.576D-01 0.220D+00-0.153D+00-0.876D+00 0.561D+00
 Coeff-Com:  0.233D+01-0.233D+01-0.248D+01 0.368D+01
 Coeff:      0.136D-03-0.186D-03-0.121D-02 0.536D-04-0.173D-02-0.854D-02
 Coeff:      0.275D-03 0.576D-01 0.220D+00-0.153D+00-0.876D+00 0.561D+00
 Coeff:      0.233D+01-0.233D+01-0.248D+01 0.368D+01
 Gap=     0.070 Goal=   None    Shift=    0.000
 Gap=     0.026 Goal=   None    Shift=    0.000
 RMSDP=1.35D-04 MaxDP=6.02D-03 DE=-3.97D-07 OVMax= 1.28D-02

 Cycle  17  Pass 1  IDiag  1:
 E= -1136.10409041869     Delta-E=       -0.000000567672 Rises=F Damp=F
 DIIS: error= 2.51D-06 at cycle  17 NSaved=  17.
 NSaved=17 IEnMin=17 EnMin= -1136.10409041869     IErMin=17 ErrMin= 2.51D-06
 ErrMax= 2.51D-06  0.00D+00 EMaxC= 1.00D-01 BMatC= 1.72D-09 BMatP= 4.73D-09
 IDIUse=1 WtCom= 1.00D+00 WtEn= 0.00D+00
 Coeff-Com:  0.957D-04-0.122D-03-0.213D-03 0.290D-04-0.429D-03-0.288D-02
 Coeff-Com:  0.157D-02 0.251D-01 0.806D-01 0.113D-01-0.211D+00-0.104D+01
 Coeff-Com:  0.966D+00 0.190D+01-0.200D+01-0.608D+00 0.188D+01
 Coeff:      0.957D-04-0.122D-03-0.213D-03 0.290D-04-0.429D-03-0.288D-02
 Coeff:      0.157D-02 0.251D-01 0.806D-01 0.113D-01-0.211D+00-0.104D+01
 Coeff:      0.966D+00 0.190D+01-0.200D+01-0.608D+00 0.188D+01
 Gap=     0.070 Goal=   None    Shift=    0.000
 Gap=     0.026 Goal=   None    Shift=    0.000
 RMSDP=9.91D-05 MaxDP=4.49D-03 DE=-5.68D-07 OVMax= 9.54D-03

 Cycle  18  Pass 1  IDiag  1:
 E= -1136.10409060580     Delta-E=       -0.000000187112 Rises=F Damp=F
 DIIS: error= 1.13D-06 at cycle  18 NSaved=  18.
 NSaved=18 IEnMin=18 EnMin= -1136.10409060580     IErMin=18 ErrMin= 1.13D-06
 ErrMax= 1.13D-06  0.00D+00 EMaxC= 1.00D-01 BMatC= 4.07D-10 BMatP= 1.72D-09
 IDIUse=1 WtCom= 1.00D+00 WtEn= 0.00D+00
 Coeff-Com: -0.111D-03 0.150D-03 0.393D-03-0.353D-03 0.258D-02 0.710D-02
 Coeff-Com:  0.584D-03-0.447D-01-0.127D-01 0.657D-01 0.234D+00-0.523D+00
 Coeff-Com: -0.256D+00 0.116D+01 0.248D-01-0.112D+01 0.393D+00 0.107D+01
 Coeff:     -0.111D-03 0.150D-03 0.393D-03-0.353D-03 0.258D-02 0.710D-02
 Coeff:      0.584D-03-0.447D-01-0.127D-01 0.657D-01 0.234D+00-0.523D+00
 Coeff:     -0.256D+00 0.116D+01 0.248D-01-0.112D+01 0.393D+00 0.107D+01
 Gap=     0.070 Goal=   None    Shift=    0.000
 Gap=     0.026 Goal=   None    Shift=    0.000
 RMSDP=2.24D-05 MaxDP=1.09D-03 DE=-1.87D-07 OVMax= 1.99D-03

 Cycle  19  Pass 1  IDiag  1:
 E= -1136.10409062006     Delta-E=       -0.000000014258 Rises=F Damp=F
 DIIS: error= 6.61D-07 at cycle  19 NSaved=  19.
 NSaved=19 IEnMin=19 EnMin= -1136.10409062006     IErMin=19 ErrMin= 6.61D-07
 ErrMax= 6.61D-07  0.00D+00 EMaxC= 1.00D-01 BMatC= 8.39D-11 BMatP= 4.07D-10
 IDIUse=1 WtCom= 1.00D+00 WtEn= 0.00D+00
 Coeff-Com: -0.119D-04 0.149D-04 0.140D-03 0.772D-04-0.112D-03-0.248D-04
 Coeff-Com:  0.706D-03-0.597D-02-0.208D-01-0.177D-02 0.679D-01 0.184D+00
 Coeff-Com: -0.246D+00-0.416D+00 0.601D+00-0.829D-02-0.521D+00 0.294D+00
 Coeff-Com:  0.107D+01
 Coeff:     -0.119D-04 0.149D-04 0.140D-03 0.772D-04-0.112D-03-0.248D-04
 Coeff:      0.706D-03-0.597D-02-0.208D-01-0.177D-02 0.679D-01 0.184D+00
 Coeff:     -0.246D+00-0.416D+00 0.601D+00-0.829D-02-0.521D+00 0.294D+00
 Coeff:      0.107D+01
 Gap=     0.070 Goal=   None    Shift=    0.000
 Gap=     0.026 Goal=   None    Shift=    0.000
 RMSDP=1.88D-05 MaxDP=8.39D-04 DE=-1.43D-08 OVMax= 1.82D-03

 Cycle  20  Pass 1  IDiag  1:
 E= -1136.10409062372     Delta-E=       -0.000000003653 Rises=F Damp=F
 DIIS: error= 9.65D-08 at cycle  20 NSaved=  20.
 NSaved=20 IEnMin=20 EnMin= -1136.10409062372     IErMin=20 ErrMin= 9.65D-08
 ErrMax= 9.65D-08  0.00D+00 EMaxC= 1.00D-01 BMatC= 4.52D-12 BMatP= 8.39D-11
 IDIUse=1 WtCom= 1.00D+00 WtEn= 0.00D+00
 Coeff-Com:  0.351D-05-0.476D-05-0.129D-04 0.256D-04-0.147D-03-0.255D-03
 Coeff-Com:  0.409D-04 0.145D-02-0.531D-02 0.949D-04 0.296D-02 0.212D-01
 Coeff-Com: -0.197D-01-0.296D-01 0.217D-01 0.405D-01-0.319D-01-0.574D-01
 Coeff-Com: -0.532D-03 0.106D+01
 Coeff:      0.351D-05-0.476D-05-0.129D-04 0.256D-04-0.147D-03-0.255D-03
 Coeff:      0.409D-04 0.145D-02-0.531D-02 0.949D-04 0.296D-02 0.212D-01
 Coeff:     -0.197D-01-0.296D-01 0.217D-01 0.405D-01-0.319D-01-0.574D-01
 Coeff:     -0.532D-03 0.106D+01
 Gap=     0.070 Goal=   None    Shift=    0.000
 Gap=     0.026 Goal=   None    Shift=    0.000
 RMSDP=1.14D-06 MaxDP=5.72D-05 DE=-3.65D-09 OVMax= 9.38D-05

 Cycle  21  Pass 1  IDiag  1:
 E= -1136.10409062375     Delta-E=       -0.000000000036 Rises=F Damp=F
 DIIS: error= 5.07D-08 at cycle  21 NSaved=  20.
 NSaved=20 IEnMin=20 EnMin= -1136.10409062375     IErMin=20 ErrMin= 5.07D-08
 ErrMax= 5.07D-08  0.00D+00 EMaxC= 1.00D-01 BMatC= 1.84D-12 BMatP= 4.52D-12
 IDIUse=1 WtCom= 1.00D+00 WtEn= 0.00D+00
 Coeff-Com:  0.208D-06-0.299D-04-0.103D-04-0.210D-04 0.274D-04 0.376D-04
 Coeff-Com:  0.735D-03-0.884D-03 0.101D-02-0.289D-02-0.958D-02 0.127D-01
 Coeff-Com:  0.437D-01-0.637D-01 0.357D-02 0.723D-01-0.697D-01-0.165D+00
 Coeff-Com:  0.428D+00 0.750D+00
 Coeff:      0.208D-06-0.299D-04-0.103D-04-0.210D-04 0.274D-04 0.376D-04
 Coeff:      0.735D-03-0.884D-03 0.101D-02-0.289D-02-0.958D-02 0.127D-01
 Coeff:      0.437D-01-0.637D-01 0.357D-02 0.723D-01-0.697D-01-0.165D+00
 Coeff:      0.428D+00 0.750D+00
 Gap=     0.070 Goal=   None    Shift=    0.000
 Gap=     0.026 Goal=   None    Shift=    0.000
 RMSDP=1.67D-07 MaxDP=8.06D-06 DE=-3.62D-11 OVMax= 8.91D-06

 Cycle  22  Pass 1  IDiag  1:
 E= -1136.10409062376     Delta-E=       -0.000000000006 Rises=F Damp=F
 DIIS: error= 2.87D-08 at cycle  22 NSaved=  20.
 NSaved=20 IEnMin=20 EnMin= -1136.10409062376     IErMin=20 ErrMin= 2.87D-08
 ErrMax= 2.87D-08  0.00D+00 EMaxC= 1.00D-01 BMatC= 2.47D-13 BMatP= 1.84D-12
 IDIUse=1 WtCom= 1.00D+00 WtEn= 0.00D+00
 Coeff-Com:  0.113D-04 0.249D-05 0.820D-05-0.271D-05 0.334D-04-0.234D-03
 Coeff-Com: -0.402D-03 0.652D-03 0.464D-02-0.886D-02-0.980D-02 0.156D-01
 Coeff-Com:  0.186D-01-0.320D-01 0.276D-02 0.259D-01 0.219D-01-0.251D+00
 Coeff-Com: -0.236D+00 0.145D+01
 Coeff:      0.113D-04 0.249D-05 0.820D-05-0.271D-05 0.334D-04-0.234D-03
 Coeff:     -0.402D-03 0.652D-03 0.464D-02-0.886D-02-0.980D-02 0.156D-01
 Coeff:      0.186D-01-0.320D-01 0.276D-02 0.259D-01 0.219D-01-0.251D+00
 Coeff:     -0.236D+00 0.145D+01
 Gap=     0.070 Goal=   None    Shift=    0.000
 Gap=     0.026 Goal=   None    Shift=    0.000
 RMSDP=2.37D-07 MaxDP=1.21D-05 DE=-6.37D-12 OVMax= 2.25D-05

 Cycle  23  Pass 1  IDiag  1:
 E= -1136.10409062376     Delta-E=        0.000000000001 Rises=F Damp=F
 DIIS: error= 1.82D-08 at cycle  23 NSaved=  20.
 NSaved=20 IEnMin=19 EnMin= -1136.10409062376     IErMin=20 ErrMin= 1.82D-08
 ErrMax= 1.82D-08  0.00D+00 EMaxC= 1.00D-01 BMatC= 8.38D-14 BMatP= 2.47D-13
 IDIUse=1 WtCom= 1.00D+00 WtEn= 0.00D+00
 Coeff-Com:  0.161D-05 0.203D-05 0.268D-04-0.182D-04-0.584D-04 0.271D-03
 Coeff-Com: -0.174D-03-0.220D-03-0.140D-02 0.216D-02-0.262D-02 0.421D-02
 Coeff-Com:  0.926D-03-0.924D-02 0.617D-02 0.268D-01-0.673D-01-0.113D+00
 Coeff-Com:  0.121D+00 0.103D+01
 Coeff:      0.161D-05 0.203D-05 0.268D-04-0.182D-04-0.584D-04 0.271D-03
 Coeff:     -0.174D-03-0.220D-03-0.140D-02 0.216D-02-0.262D-02 0.421D-02
 Coeff:      0.926D-03-0.924D-02 0.617D-02 0.268D-01-0.673D-01-0.113D+00
 Coeff:      0.121D+00 0.103D+01
 Gap=     0.070 Goal=   None    Shift=    0.000
 Gap=     0.026 Goal=   None    Shift=    0.000
 RMSDP=3.93D-07 MaxDP=1.78D-05 DE= 9.09D-13 OVMax= 3.72D-05

 Cycle  24  Pass 1  IDiag  1:
 E= -1136.10409062375     Delta-E=        0.000000000003 Rises=F Damp=F
 DIIS: error= 8.04D-09 at cycle  24 NSaved=  20.
 NSaved=20 IEnMin=18 EnMin= -1136.10409062376     IErMin=20 ErrMin= 8.04D-09
 ErrMax= 8.04D-09  0.00D+00 EMaxC= 1.00D-01 BMatC= 1.82D-14 BMatP= 8.38D-14
 IDIUse=1 WtCom= 1.00D+00 WtEn= 0.00D+00
 Coeff-Com: -0.567D-06 0.984D-05 0.376D-05-0.145D-04-0.322D-03-0.677D-04
 Coeff-Com:  0.374D-03 0.243D-02-0.140D-02-0.378D-02 0.981D-03 0.377D-02
 Coeff-Com: -0.234D-02-0.348D-02 0.348D-02 0.397D-01-0.387D-02-0.307D+00
 Coeff-Com:  0.246D+00 0.103D+01
 Coeff:     -0.567D-06 0.984D-05 0.376D-05-0.145D-04-0.322D-03-0.677D-04
 Coeff:      0.374D-03 0.243D-02-0.140D-02-0.378D-02 0.981D-03 0.377D-02
 Coeff:     -0.234D-02-0.348D-02 0.348D-02 0.397D-01-0.387D-02-0.307D+00
 Coeff:      0.246D+00 0.103D+01
 Gap=     0.070 Goal=   None    Shift=    0.000
 Gap=     0.026 Goal=   None    Shift=    0.000
 RMSDP=9.46D-08 MaxDP=4.33D-06 DE= 2.50D-12 OVMax= 8.92D-06

 Cycle  25  Pass 1  IDiag  1:
 E= -1136.10409062376     Delta-E=       -0.000000000004 Rises=F Damp=F
 DIIS: error= 1.79D-09 at cycle  25 NSaved=  20.
 NSaved=20 IEnMin=20 EnMin= -1136.10409062376     IErMin=20 ErrMin= 1.79D-09
 ErrMax= 1.79D-09  0.00D+00 EMaxC= 1.00D-01 BMatC= 6.39D-16 BMatP= 1.82D-14
 IDIUse=1 WtCom= 1.00D+00 WtEn= 0.00D+00
 Large coefficients: NSaved= 20 BigCof=    0.00 CofMax=   10.00 Det=-1.81D-15
 Inversion failed.  Reducing to 19 matrices.
 Large coefficients: NSaved= 19 BigCof=    0.00 CofMax=   10.00 Det=-2.09D-15
 Inversion failed.  Reducing to 18 matrices.
 Large coefficients: NSaved= 18 BigCof=    0.00 CofMax=   10.00 Det=-2.10D-15
 Inversion failed.  Reducing to 17 matrices.
 Large coefficients: NSaved= 17 BigCof=    0.00 CofMax=   10.00 Det=-2.10D-15
 Inversion failed.  Reducing to 16 matrices.
 Large coefficients: NSaved= 16 BigCof=    0.00 CofMax=   10.00 Det=-2.63D-15
 Inversion failed.  Reducing to 15 matrices.
 Coeff-Com: -0.478D-04 0.239D-03-0.658D-04-0.557D-03 0.345D-03 0.227D-03
 Coeff-Com: -0.225D-03 0.529D-04-0.346D-03 0.353D-02 0.710D-02-0.113D-01
 Coeff-Com: -0.538D-01-0.758D-01 0.113D+01
 Coeff:     -0.478D-04 0.239D-03-0.658D-04-0.557D-03 0.345D-03 0.227D-03
 Coeff:     -0.225D-03 0.529D-04-0.346D-03 0.353D-02 0.710D-02-0.113D-01
 Coeff:     -0.538D-01-0.758D-01 0.113D+01
 Gap=     0.070 Goal=   None    Shift=    0.000
 Gap=     0.026 Goal=   None    Shift=    0.000
 RMSDP=6.39D-09 MaxDP=3.05D-07 DE=-3.64D-12 OVMax= 5.20D-07

 SCF Done:  E(UB3LYP) =  -1136.10409062     A.U. after   25 cycles
            NFock= 25  Conv=0.64D-08     -V/T= 2.0026
 <Sx>= 0.0000 <Sy>= 0.0000 <Sz>= 0.5000 <S**2>= 0.7690 S= 0.5095
 <L.S>= 0.000000000000E+00
 KE= 1.133142459139D+03 PE=-3.442013083119D+03 EE= 8.163621572976D+02
 Annihilation of the first spin contaminant:
 S**2 before annihilation     0.7690,   after     0.7501
 Leave Link  502 at Mon Nov 13 12:18:26 2023, MaxMem=  1879048192 cpu:             252.7 elap:              21.3
 (Enter /home/sekinelabo/g16/l601.exe)
 Copying SCF densities to generalized density rwf, IOpCl= 1 IROHF=0.

 **********************************************************************

            Population analysis using the SCF Density.

 **********************************************************************

 Orbital symmetries:
 Alpha Orbitals:
       Occupied  (A) (A) (A) (A) (A) (A) (A) (A) (A) (A) (A) (A)
                 (A) (A) (A) (A) (A) (A) (A) (A) (A) (A) (A) (A)
                 (A) (A) (A) (A) (A) (A) (A) (A) (A) (A) (A) (A)
                 (A) (A) (A)
       Virtual   (A) (A) (A) (A) (A) (A) (A) (A) (A) (A) (A) (A)
                 (A) (A) (A) (A) (A) (A) (A) (A) (A) (A) (A) (A)
                 (A) (A) (A) (A) (A) (A) (A) (A) (A) (A) (A) (A)
                 (A) (A) (A) (A) (A) (A) (A) (A) (A) (A) (A) (A)
                 (A) (A) (A) (A) (A) (A) (A) (A) (A) (A) (A) (A)
                 (A) (A) (A) (A) (A) (A) (A) (A) (A) (A) (A) (A)
                 (A) (A) (A) (A) (A) (A) (A) (A) (A) (A) (A) (A)
                 (A) (A) (A) (A) (A) (A) (A) (A) (A) (A) (A) (A)
                 (A) (A) (A) (A) (A) (A) (A) (A) (A) (A) (A) (A)
                 (A) (A) (A) (A) (A) (A) (A) (A) (A) (A) (A) (A)
                 (A) (A) (A) (A) (A) (A) (A) (A) (A) (A) (A) (A)
                 (A) (A) (A) (A) (A) (A) (A) (A) (A) (A) (A) (A)
                 (A) (A) (A) (A) (A) (A) (A) (A) (A) (A) (A) (A)
                 (A) (A) (A) (A) (A) (A) (A) (A) (A) (A) (A) (A)
                 (A) (A) (A)
 Beta  Orbitals:
       Occupied  (A) (A) (A) (A) (A) (A) (A) (A) (A) (A) (A) (A)
                 (A) (A) (A) (A) (A) (A) (A) (A) (A) (A) (A) (A)
                 (A) (A) (A) (A) (A) (A) (A) (A) (A) (A) (A) (A)
                 (A) (A)
       Virtual   (A) (A) (A) (A) (A) (A) (A) (A) (A) (A) (A) (A)
                 (A) (A) (A) (A) (A) (A) (A) (A) (A) (A) (A) (A)
                 (A) (A) (A) (A) (A) (A) (A) (A) (A) (A) (A) (A)
                 (A) (A) (A) (A) (A) (A) (A) (A) (A) (A) (A) (A)
                 (A) (A) (A) (A) (A) (A) (A) (A) (A) (A) (A) (A)
                 (A) (A) (A) (A) (A) (A) (A) (A) (A) (A) (A) (A)
                 (A) (A) (A) (A) (A) (A) (A) (A) (A) (A) (A) (A)
                 (A) (A) (A) (A) (A) (A) (A) (A) (A) (A) (A) (A)
                 (A) (A) (A) (A) (A) (A) (A) (A) (A) (A) (A) (A)
                 (A) (A) (A) (A) (A) (A) (A) (A) (A) (A) (A) (A)
                 (A) (A) (A) (A) (A) (A) (A) (A) (A) (A) (A) (A)
                 (A) (A) (A) (A) (A) (A) (A) (A) (A) (A) (A) (A)
                 (A) (A) (A) (A) (A) (A) (A) (A) (A) (A) (A) (A)
                 (A) (A) (A) (A) (A) (A) (A) (A) (A) (A) (A) (A)
                 (A) (A) (A) (A)
 The electronic state is 2-A.
 Alpha  occ. eigenvalues --  -38.45991 -38.44793 -38.44394 -38.43933 -38.43487
 Alpha  occ. eigenvalues --  -38.43289 -38.43289  -2.21889  -2.20776  -2.20287
 Alpha  occ. eigenvalues --   -2.19913  -2.19451  -2.19266  -2.19176  -1.15592
 Alpha  occ. eigenvalues --   -1.15534  -1.15466  -1.14468  -1.14438  -1.14400
 Alpha  occ. eigenvalues --   -1.14010  -1.13973  -1.13885  -1.13599  -1.13558
 Alpha  occ. eigenvalues --   -1.13529  -1.13176  -1.13137  -1.13090  -1.13012
 Alpha  occ. eigenvalues --   -1.12935  -1.12921  -1.12810  -1.12788  -1.12742
 Alpha  occ. eigenvalues --   -0.19308  -0.13470  -0.13220  -0.12142
 Alpha virt. eigenvalues --   -0.05112  -0.05087  -0.04503  -0.04366  -0.03517
 Alpha virt. eigenvalues --   -0.03396  -0.00672  -0.00594  -0.00373   0.00398
 Alpha virt. eigenvalues --    0.00434   0.00506   0.00726   0.00813   0.00901
 Alpha virt. eigenvalues --    0.01012   0.01023   0.01084   0.01202   0.01369
 Alpha virt. eigenvalues --    0.01388   0.01614   0.01740   0.01833   0.01906
 Alpha virt. eigenvalues --    0.02577   0.02599   0.02700   0.02755   0.02793
 Alpha virt. eigenvalues --    0.02907   0.02922   0.02951   0.02984   0.03001
 Alpha virt. eigenvalues --    0.03046   0.03088   0.03238   0.03315   0.03645
 Alpha virt. eigenvalues --    0.04026   0.04046   0.04113   0.04431   0.05168
 Alpha virt. eigenvalues --    0.05745   0.05832   0.06038   0.06112   0.06240
 Alpha virt. eigenvalues --    0.06386   0.06636   0.06748   0.06807   0.06850
 Alpha virt. eigenvalues --    0.07323   0.07964   0.08197   0.08369   0.08455
 Alpha virt. eigenvalues --    0.08744   0.08983   0.09236   0.09392   0.11442
 Alpha virt. eigenvalues --    0.11527   0.11871   0.12038   0.13239   0.13982
 Alpha virt. eigenvalues --    0.14267   0.14618   0.14709   0.14983   0.15217
 Alpha virt. eigenvalues --    0.15258   0.15353   0.17588   0.18488   0.18734
 Alpha virt. eigenvalues --    0.26271   0.27259   0.27481   0.27935   0.28934
 Alpha virt. eigenvalues --    0.29306   0.29843   0.30245   0.30387   0.31190
 Alpha virt. eigenvalues --    0.31700   0.33017   0.34882   0.35961   0.36186
 Alpha virt. eigenvalues --    0.37675   0.38097   0.38499   0.42816   0.43220
 Alpha virt. eigenvalues --    0.43735   0.43900   0.44343   0.44795   0.45431
 Alpha virt. eigenvalues --    0.45645   0.46130   0.46320   0.47928   0.48025
 Alpha virt. eigenvalues --    0.48085   0.48466   0.48795   0.50510   0.50917
 Alpha virt. eigenvalues --    0.51119   0.51282   0.51656   0.52256   0.52581
 Alpha virt. eigenvalues --    0.52693   0.56123   0.56183   0.56268   0.57067
 Alpha virt. eigenvalues --    0.60794   0.61286   0.63235   0.64422   0.65088
 Alpha virt. eigenvalues --    0.70624   0.73335   0.74663   0.75378   0.80452
 Alpha virt. eigenvalues --    0.81370   2.07661   2.12957   2.13909   2.15125
 Alpha virt. eigenvalues --    2.25187   2.27903   2.28779   4.40172   4.41265
 Alpha virt. eigenvalues --    4.41921   4.42694   4.42951   4.43375   4.43999
 Alpha virt. eigenvalues --    4.44237   4.44789   4.45919   4.46785   4.49994
 Alpha virt. eigenvalues --    4.56815   4.62725   4.64294   4.64868   4.65640
 Alpha virt. eigenvalues --    4.66787   4.68065   4.74822   4.75877  96.28450
 Alpha virt. eigenvalues --   96.35408  96.36407  96.37767  96.51645  96.55098
 Alpha virt. eigenvalues --   96.56060
  Beta  occ. eigenvalues --  -38.45885 -38.44737 -38.44342 -38.43909 -38.43482
  Beta  occ. eigenvalues --  -38.43285 -38.43281  -2.21698  -2.20678  -2.20194
  Beta  occ. eigenvalues --   -2.19869  -2.19446  -2.19259  -2.19162  -1.15441
  Beta  occ. eigenvalues --   -1.15407  -1.15340  -1.14398  -1.14350  -1.14336
  Beta  occ. eigenvalues --   -1.13938  -1.13912  -1.13823  -1.13570  -1.13524
  Beta  occ. eigenvalues --   -1.13487  -1.13156  -1.13121  -1.13090  -1.13004
  Beta  occ. eigenvalues --   -1.12929  -1.12909  -1.12796  -1.12779  -1.12737
  Beta  occ. eigenvalues --   -0.18507  -0.13112  -0.11825
  Beta virt. eigenvalues --   -0.09224  -0.04530  -0.04422  -0.04343  -0.04135
  Beta virt. eigenvalues --   -0.02947  -0.02745  -0.00618  -0.00338  -0.00300
  Beta virt. eigenvalues --    0.00447   0.00628   0.00794   0.00799   0.00850
  Beta virt. eigenvalues --    0.00917   0.01055   0.01096   0.01202   0.01280
  Beta virt. eigenvalues --    0.01433   0.01481   0.01630   0.01844   0.01942
  Beta virt. eigenvalues --    0.01970   0.02640   0.02734   0.02745   0.02805
  Beta virt. eigenvalues --    0.02850   0.02913   0.02917   0.02964   0.02983
  Beta virt. eigenvalues --    0.03019   0.03059   0.03158   0.03294   0.03352
  Beta virt. eigenvalues --    0.03738   0.04070   0.04141   0.04215   0.04515
  Beta virt. eigenvalues --    0.05241   0.05891   0.05938   0.06066   0.06196
  Beta virt. eigenvalues --    0.06340   0.06381   0.06799   0.06846   0.06924
  Beta virt. eigenvalues --    0.06946   0.07379   0.08263   0.08317   0.08548
  Beta virt. eigenvalues --    0.08562   0.08798   0.09349   0.09407   0.09561
  Beta virt. eigenvalues --    0.11605   0.11857   0.12144   0.12258   0.13482
  Beta virt. eigenvalues --    0.14324   0.14472   0.14793   0.14957   0.15095
  Beta virt. eigenvalues --    0.15302   0.15308   0.15373   0.17849   0.18785
  Beta virt. eigenvalues --    0.18922   0.26463   0.27712   0.27907   0.28101
  Beta virt. eigenvalues --    0.29436   0.29691   0.30424   0.30549   0.30753
  Beta virt. eigenvalues --    0.31585   0.31881   0.33505   0.34999   0.36436
  Beta virt. eigenvalues --    0.36511   0.38145   0.38575   0.38657   0.43051
  Beta virt. eigenvalues --    0.43466   0.43910   0.44114   0.44514   0.44879
  Beta virt. eigenvalues --    0.45608   0.45717   0.46337   0.46464   0.48107
  Beta virt. eigenvalues --    0.48260   0.48380   0.48672   0.48907   0.50768
  Beta virt. eigenvalues --    0.51070   0.51278   0.51429   0.51743   0.52436
  Beta virt. eigenvalues --    0.52648   0.52782   0.56294   0.56366   0.56402
  Beta virt. eigenvalues --    0.57283   0.61057   0.61388   0.63387   0.64650
  Beta virt. eigenvalues --    0.65162   0.70803   0.73508   0.74864   0.75395
  Beta virt. eigenvalues --    0.80640   0.81406   2.07826   2.13290   2.14011
  Beta virt. eigenvalues --    2.15210   2.25262   2.28082   2.28825   4.40325
  Beta virt. eigenvalues --    4.41348   4.41951   4.42744   4.43018   4.43409
  Beta virt. eigenvalues --    4.44063   4.44358   4.44849   4.45988   4.46805
  Beta virt. eigenvalues --    4.50039   4.56861   4.62824   4.64353   4.64911
  Beta virt. eigenvalues --    4.65653   4.66864   4.68074   4.74902   4.75894
  Beta virt. eigenvalues --   96.28505  96.35512  96.36442  96.37804  96.51677
  Beta virt. eigenvalues --   96.55161  96.56081
          Condensed to atoms (all electrons):
               1          2          3          4          5          6
     1  Na  15.460761   1.139840  -2.140042  -2.523891   1.187354   0.219813
     2  Na   1.139840  12.048162  -2.091236   0.875839  -0.371655  -0.062620
     3  Na  -2.140042  -2.091236  14.853962  -1.852497   0.800065  -0.069687
     4  Na  -2.523891   0.875839  -1.852497  15.469873  -2.091543   0.331849
     5  Na   1.187354  -0.371655   0.800065  -2.091543  11.978796  -0.207404
     6  Na   0.219813  -0.062620  -0.069687   0.331849  -0.207404  11.453762
     7  Na  -2.352013  -0.613352   1.322466   0.980335  -0.466736  -0.084280
               7
     1  Na  -2.352013
     2  Na  -0.613352
     3  Na   1.322466
     4  Na   0.980335
     5  Na  -0.466736
     6  Na  -0.084280
     7  Na  11.873472
          Atomic-Atomic Spin Densities.
               1          2          3          4          5          6
     1  Na  -0.315924  -0.072223  -0.106629   0.213523  -0.077859   0.015235
     2  Na  -0.072223   0.124962   0.012117   0.049385  -0.002846   0.051721
     3  Na  -0.106629   0.012117   0.277897   0.030149   0.162622  -0.030512
     4  Na   0.213523   0.049385   0.030149  -0.017959  -0.203750   0.047097
     5  Na  -0.077859  -0.002846   0.162622  -0.203750   0.359260  -0.200886
     6  Na   0.015235   0.051721  -0.030512   0.047097  -0.200886   0.040851
     7  Na   0.154552  -0.027143  -0.008927   0.068441  -0.018118   0.075785
               7
     1  Na   0.154552
     2  Na  -0.027143
     3  Na  -0.008927
     4  Na   0.068441
     5  Na  -0.018118
     6  Na   0.075785
     7  Na   0.267446
 Mulliken charges and spin densities:
               1          2
     1  Na   0.008177  -0.189325
     2  Na   0.075022   0.135973
     3  Na   0.176969   0.336717
     4  Na  -0.189965   0.186887
     5  Na   0.171122   0.018423
     6  Na  -0.581433  -0.000710
     7  Na   0.340108   0.512035
 Sum of Mulliken charges =  -0.00000   1.00000
 Mulliken charges and spin densities with hydrogens summed into heavy atoms:
               1          2
     1  Na   0.008177  -0.189325
     2  Na   0.075022   0.135973
     3  Na   0.176969   0.336717
     4  Na  -0.189965   0.186887
     5  Na   0.171122   0.018423
     6  Na  -0.581433  -0.000710
     7  Na   0.340108   0.512035
 Electronic spatial extent (au):  <R**2>=           2079.9509
 Charge=             -0.0000 electrons
 Dipole moment (field-independent basis, Debye):
    X=              0.1201    Y=             -0.4193    Z=              0.6381  Tot=              0.7730
 Quadrupole moment (field-independent basis, Debye-Ang):
   XX=            -67.6582   YY=            -73.4125   ZZ=            -60.2215
   XY=             -0.2385   XZ=              0.3770   YZ=              0.8518
 Traceless Quadrupole moment (field-independent basis, Debye-Ang):
   XX=             -0.5608   YY=             -6.3151   ZZ=              6.8759
   XY=             -0.2385   XZ=              0.3770   YZ=              0.8518
 Octapole moment (field-independent basis, Debye-Ang**2):
  XXX=             -2.7631  YYY=              1.1318  ZZZ=             23.7217  XYY=              1.4904
  XXY=             -1.3600  XXZ=              1.8766  XZZ=              4.7705  YZZ=             -8.0819
  YYZ=            -11.8868  XYZ=              0.9310
 Hexadecapole moment (field-independent basis, Debye-Ang**3):
 XXXX=          -1403.1794 YYYY=          -1275.0179 ZZZZ=          -1038.5919 XXXY=             -7.1897
 XXXZ=              5.7565 YYYX=             -1.1780 YYYZ=              2.0521 ZZZX=             24.8718
 ZZZY=              8.5389 XXYY=           -431.6209 XXZZ=           -376.4643 YYZZ=           -383.7942
 XXYZ=              5.9275 YYXZ=            -19.5340 ZZXY=              1.1095
 N-N= 3.564043760581D+02 E-N=-3.442013082986D+03  KE= 1.133142459139D+03
                          Isotropic Fermi Contact Couplings
        Atom                 a.u.       MegaHertz       Gauss      10(-4) cm-1
     1  Na(23)             0.19025     225.07298      80.31164      75.07627
     2  Na(23)             0.20468     242.14474      86.40327      80.77079
     3  Na(23)             0.07952      94.07860      33.56958      31.38124
     4  Na(23)             0.00496       5.86360       2.09228       1.95589
     5  Na(23)             0.02593      30.67257      10.94474      10.23127
     6  Na(23)            -0.02296     -27.15890      -9.69097      -9.05923
     7  Na(23)             0.42636     504.39346     179.98013     168.24755
 --------------------------------------------------------
       Center         ----  Spin Dipole Couplings  ----
                      3XX-RR        3YY-RR        3ZZ-RR
 --------------------------------------------------------
     1   Atom        0.015670     -0.019012      0.003343
     2   Atom        0.005877      0.003542     -0.009419
     3   Atom        0.006350     -0.005649     -0.000700
     4   Atom       -0.005307     -0.014612      0.019919
     5   Atom       -0.003539      0.003056      0.000483
     6   Atom       -0.015379     -0.024571      0.039950
     7   Atom        0.024187     -0.008834     -0.015353
 --------------------------------------------------------
                        XY            XZ            YZ
 --------------------------------------------------------
     1   Atom        0.006667      0.031965      0.002289
     2   Atom       -0.004932      0.005053     -0.006787
     3   Atom       -0.001656     -0.018380      0.000055
     4   Atom       -0.005610     -0.006258      0.004437
     5   Atom        0.002642      0.001749      0.005755
     6   Atom       -0.000386      0.005592      0.006533
     7   Atom        0.002475     -0.003748     -0.003804
 --------------------------------------------------------


 ---------------------------------------------------------------------------------
              Anisotropic Spin Dipole Couplings in Principal Axis System
 ---------------------------------------------------------------------------------

       Atom             a.u.   MegaHertz   Gauss  10(-4) cm-1        Axes

              Baa    -0.0244    -3.440    -1.227    -1.147 -0.5980  0.4668  0.6515
     1 Na(23) Bbb    -0.0184    -2.599    -0.928    -0.867  0.2248  0.8779 -0.4227
              Bcc     0.0428     6.039     2.155     2.014  0.7693  0.1064  0.6299
 
              Baa    -0.0128    -1.803    -0.643    -0.601 -0.1622  0.3369  0.9275
     2 Na(23) Bbb    -0.0001    -0.009    -0.003    -0.003  0.6979  0.7036 -0.1335
              Bcc     0.0128     1.812     0.647     0.604  0.6976 -0.6256  0.3493
 
              Baa    -0.0160    -2.258    -0.806    -0.753  0.6366  0.0979  0.7649
     3 Na(23) Bbb    -0.0056    -0.793    -0.283    -0.264 -0.0254  0.9940 -0.1061
              Bcc     0.0216     3.051     1.089     1.018  0.7708 -0.0481 -0.6353
 
              Baa    -0.0173    -2.443    -0.872    -0.815  0.4058  0.9131 -0.0406
     4 Na(23) Bbb    -0.0049    -0.699    -0.249    -0.233  0.8796 -0.3781  0.2888
              Bcc     0.0223     3.142     1.121     1.048 -0.2483  0.1529  0.9565
 
              Baa    -0.0045    -0.642    -0.229    -0.214  0.8087 -0.5068  0.2986
     5 Na(23) Bbb    -0.0039    -0.557    -0.199    -0.186 -0.5307 -0.4097  0.7420
              Bcc     0.0085     1.200     0.428     0.400  0.2537  0.7585  0.6003
 
              Baa    -0.0253    -3.575    -1.276    -1.193  0.0989  0.9893 -0.1075
     6 Na(23) Bbb    -0.0158    -2.235    -0.797    -0.745  0.9903 -0.1084 -0.0866
              Bcc     0.0411     5.810     2.073     1.938  0.0973  0.0979  0.9904
 
              Baa    -0.0172    -2.435    -0.869    -0.812  0.0591  0.3969  0.9159
     7 Na(23) Bbb    -0.0075    -1.064    -0.380    -0.355 -0.1172  0.9140 -0.3885
              Bcc     0.0248     3.499     1.249     1.167  0.9913  0.0844 -0.1006
 

 ---------------------------------------------------------------------------------

 No NMR shielding tensors so no spin-rotation constants.
 Leave Link  601 at Mon Nov 13 12:18:26 2023, MaxMem=  1879048192 cpu:               2.6 elap:               0.2
 (Enter /home/sekinelabo/g16/l701.exe)
 ... and contract with generalized density number  0.
 Compute integral first derivatives.
 Leave Link  701 at Mon Nov 13 12:18:27 2023, MaxMem=  1879048192 cpu:               1.7 elap:               0.1
 (Enter /home/sekinelabo/g16/l702.exe)
 L702 exits ... SP integral derivatives will be done elsewhere.
 Leave Link  702 at Mon Nov 13 12:18:27 2023, MaxMem=  1879048192 cpu:               0.5 elap:               0.0
 (Enter /home/sekinelabo/g16/l703.exe)
 Integral derivatives from FoFJK, PRISM(SPDF).
 Compute integral first derivatives, UseDBF=F ICtDFT=           0.
 Calling FoFJK, ICntrl=      2127 FMM=F ISym2X=0 I1Cent= 0 IOpClX= 1 NMat=1 NMatS=1 NMatT=0.
 FoFJK:  IHMeth= 1 ICntrl=    2127 DoSepK=F KAlg= 0 I1Cent=           0 FoldK=F
 IRaf=         0 NMat=       1 IRICut=       1 DoRegI=T DoRafI=F ISym2E= 0 IDoP0=0 IntGTp=1.
 FoFCou: FMM=F IPFlag=           0 FMFlag=      100000 FMFlg1=         800
         NFxFlg=           0 DoJE=F BraDBF=F KetDBF=F FulRan=T
         wScrn=  0.000000 ICntrl=      2127 IOpCl=  1 I1Cent=           0 NGrid=           0
         NMat0=    1 NMatS0=      1 NMatT0=    0 NMatD0=    1 NMtDS0=    0 NMtDT0=    0
 Symmetry not used in FoFCou.
 Leave Link  703 at Mon Nov 13 12:18:29 2023, MaxMem=  1879048192 cpu:              36.1 elap:               2.4
 (Enter /home/sekinelabo/g16/l716.exe)
 Dipole        = 4.72581949D-02-1.64980982D-01 2.51051694D-01
 ***** Axes restored to original set *****
 -------------------------------------------------------------------
 Center     Atomic                   Forces (Hartrees/Bohr)
 Number     Number              X              Y              Z
 -------------------------------------------------------------------
      1       11          -0.005455621   -0.003917711    0.005677233
      2       11           0.002952468   -0.006577245   -0.000548073
      3       11          -0.005126645   -0.006832070   -0.004945492
      4       11          -0.005646891    0.009922515   -0.001346054
      5       11           0.001675543    0.006772995   -0.001326747
      6       11           0.007394154    0.001208498   -0.000922243
      7       11           0.004206992   -0.000576983    0.003411376
 -------------------------------------------------------------------
 Cartesian Forces:  Max     0.009922515 RMS     0.004861358
 Z-matrix is all fixed cartesians, so copy forces.
 Force constants in Cartesian coordinates: 
                1             2             3             4             5 
      1  0.729378D-01
      2  0.534920D-02  0.421374D-01
      3 -0.218704D-02 -0.106259D-01  0.850678D-01
      4  0.167584D-02 -0.247420D-03  0.501154D-04  0.493271D-01
      5  0.176228D-02 -0.204951D-03 -0.337369D-05 -0.214362D-02  0.455735D-01
      6  0.733162D-02 -0.154652D-02  0.266161D-03 -0.383655D-03  0.209133D-01
      7 -0.195798D-01  0.369472D-02  0.507296D-02 -0.372595D-01 -0.541883D-02
      8  0.480754D-03 -0.916889D-02  0.897364D-04  0.103159D-01 -0.175860D-01
      9 -0.767915D-02 -0.186010D-01 -0.406529D-01  0.613388D-02 -0.846006D-02
     10 -0.194384D-01 -0.544575D-02  0.228435D-02  0.218788D-02  0.737528D-02
     11  0.400790D-02 -0.250895D-01  0.920150D-02  0.215430D-03  0.706493D-03
     12 -0.100098D-01  0.266570D-01 -0.248902D-01 -0.110589D-03 -0.680318D-03
     13  0.301127D-02  0.347649D-03 -0.243017D-04  0.278035D-02 -0.270462D-02
     14 -0.476934D-02 -0.566401D-03  0.129790D-03  0.297460D-02 -0.296224D-02
     15  0.540762D-02  0.853238D-03  0.122665D-03  0.278622D-02 -0.285872D-02
     16 -0.189223D-02 -0.971902D-03  0.673545D-02 -0.205683D-01  0.122834D-03
     17 -0.190160D-03  0.180380D-03  0.545227D-03 -0.139608D-01 -0.272183D-01
     18 -0.841272D-03 -0.378203D-03  0.298131D-02 -0.974926D-02 -0.965925D-02
     19 -0.367145D-01 -0.272649D-02 -0.119315D-01  0.185656D-02  0.100667D-02
     20 -0.664063D-02 -0.728803D-02  0.663005D-03  0.284588D-02  0.169154D-02
     21  0.797798D-02  0.364134D-02 -0.228949D-01  0.127328D-02  0.748405D-03
                6             7             8             9            10 
      6  0.288872D-01
      7 -0.693694D-02  0.740175D-01
      8 -0.763548D-02  0.144890D-02  0.660135D-01
      9 -0.119193D-01  0.461929D-02  0.240150D-01  0.600929D-01
     10  0.148475D-02 -0.193852D-01 -0.686086D-02  0.112867D-02  0.747272D-01
     11  0.453011D-04  0.852625D-02 -0.407879D-01 -0.204540D-03 -0.732548D-02
     12  0.106351D-03  0.617738D-02 -0.173670D-01 -0.958507D-02 -0.142515D-02
     13  0.177616D-02  0.197694D-02  0.240185D-03 -0.459554D-03 -0.365038D-01
     14  0.204316D-02 -0.689112D-02 -0.980146D-03  0.194536D-02  0.809411D-02
     15  0.196610D-02 -0.221347D-02 -0.341704D-03  0.814193D-03  0.757916D-03
     16 -0.106859D-03 -0.209055D-02 -0.564211D-02 -0.363805D-02 -0.256856D-02
     17 -0.861183D-02  0.819708D-03  0.226082D-02  0.129109D-02 -0.137071D-02
     18 -0.170820D-01  0.498722D-03  0.126888D-02  0.106238D-02  0.837405D-03
     19 -0.316507D-02  0.232054D-02  0.172236D-04 -0.105091D-03  0.980929D-03
     20 -0.520796D-02 -0.217963D-02  0.248574D-03  0.142266D-04  0.553340D-02
     21 -0.222452D-02 -0.721794D-02 -0.293560D-04  0.187742D-03 -0.506794D-02
               11            12            13            14            15 
     11  0.814743D-01
     12 -0.134607D-01  0.430351D-01
     13 -0.112259D-01  0.760518D-02  0.494011D-01
     14 -0.209317D-01  0.524992D-02 -0.702830D-03  0.531527D-01
     15  0.733086D-02 -0.906063D-02 -0.280401D-02 -0.163236D-01  0.217066D-01
     16  0.560419D-02 -0.226829D-02 -0.230751D-01  0.125322D-02  0.112643D-03
     17  0.304636D-02 -0.115000D-02  0.170024D-01 -0.277568D-01  0.608852D-02
     18 -0.166141D-02  0.932266D-03 -0.669013D-02  0.697566D-02 -0.145578D-01
     19  0.197619D-03  0.312344D-04  0.240930D-02  0.413667D-04 -0.404692D-02
     20  0.158183D-02  0.751091D-03 -0.295688D-02  0.445821D-04  0.525142D-02
     21 -0.125100D-02 -0.537857D-03  0.596655D-03 -0.202560D-04 -0.991146D-03
               16            17            18            19            20 
     16  0.697684D-01
     17  0.530021D-03  0.619417D-01
     18 -0.608049D-03 -0.216241D-03  0.592732D-01
     19 -0.195736D-01 -0.283051D-02  0.165526D-01  0.487208D-01
     20 -0.896259D-03 -0.124541D-01  0.367058D-02  0.429412D-02  0.161756D-01
     21 -0.226848D-03  0.205322D-02 -0.326094D-01  0.266480D-02 -0.514236D-02
               21 
     21  0.590700D-01
 Leave Link  716 at Mon Nov 13 12:18:29 2023, MaxMem=  1879048192 cpu:               0.8 elap:               0.1
 (Enter /home/sekinelabo/g16/l103.exe)

 GradGradGradGradGradGradGradGradGradGradGradGradGradGradGradGradGradGrad
 Berny optimization.
 Search for a local minimum.
 Step number   1 out of a maximum of    2
 All quantities printed in internal units (Hartrees-Bohrs-Radians)
 Second derivative matrix not updated -- first step.
 ITU=  0
     Eigenvalues ---    0.01708   0.02185   0.02268   0.04665   0.04683
     Eigenvalues ---    0.04962   0.05877   0.08180   0.08476   0.09789
     Eigenvalues ---    0.11240   0.11465   0.12919   0.13125   0.14708
 Quadratic step=3.832D-01 exceeds max=3.000D-01 adjusted using Lamda=-1.291D-02.
 Angle between NR and scaled steps=   6.22 degrees.
 Angle between quadratic step and forces=  18.63 degrees.
 Linear search not attempted -- first point.
 B after Tr=     0.000000    0.000000    0.000000
         Rot=    1.000000   -0.000000   -0.000000    0.000000 Ang=   0.00 deg.
 Variable       Old X    -DE/DX   Delta X   Delta X   Delta X     New X
                                 (Linear)    (Quad)   (Total)
    X1        0.54014  -0.00546   0.00000  -0.07256  -0.07256   0.46758
    Y1        3.01528  -0.00392   0.00000  -0.03870  -0.03870   2.97658
    Z1        6.33382   0.00568   0.00000   0.03518   0.03518   6.36900
    X2        5.81128   0.00295   0.00000   0.04220   0.04220   5.85349
    Y2        0.00000  -0.00658   0.00000  -0.12763  -0.12763  -0.12763
    Z2        0.00000  -0.00055   0.00000   0.01926   0.01926   0.01926
    X3        0.39609  -0.00513   0.00000  -0.07405  -0.07405   0.32205
    Y3        1.42213  -0.00683   0.00000  -0.05776  -0.05776   1.36436
    Z3        0.90171  -0.00495   0.00000  -0.05580  -0.05580   0.84591
    X4        0.00000  -0.00565   0.00000  -0.08476  -0.08476  -0.08476
    Y4        6.90627   0.00992   0.00000   0.09400   0.09400   7.00027
    Z4        2.25253  -0.00135   0.00000  -0.01352  -0.01352   2.23901
    X5        5.20669   0.00168   0.00000   0.01919   0.01919   5.22589
    Y5        8.79429   0.00677   0.00000   0.13084   0.13084   8.92513
    Z5        1.02522  -0.00133   0.00000  -0.00441  -0.00441   1.02081
    X6        8.21603   0.00739   0.00000   0.09763   0.09763   8.31365
    Y6        4.32186   0.00121   0.00000   0.01938   0.01938   4.34124
    Z6        2.78462  -0.00092   0.00000  -0.02353  -0.02353   2.76109
    X7        5.95829   0.00421   0.00000   0.07234   0.07234   6.03063
    Y7        3.50921  -0.00058   0.00000  -0.02012  -0.02012   3.48909
    Z7        7.92649   0.00341   0.00000   0.04281   0.04281   7.96931
         Item               Value     Threshold  Converged?
 Maximum Force            0.009923     0.000450     NO 
 RMS     Force            0.004861     0.000300     NO 
 Maximum Displacement     0.130840     0.001800     NO 
 RMS     Displacement     0.065472     0.001200     NO 
 Predicted change in Energy=-3.747967D-03
 GradGradGradGradGradGradGradGradGradGradGradGradGradGradGradGradGradGrad

 Leave Link  103 at Mon Nov 13 12:18:29 2023, MaxMem=  1879048192 cpu:               0.3 elap:               0.0
 (Enter /home/sekinelabo/g16/l9999.exe)
 1\1\GINC-SEKINELABO-XA7R-R37\Force\UB3LYP\6-311+G(d)\Na7(2)\SEKINELABO
 \13-Nov-2023\0\\#P B3LYP/6-311+g(d) force\\Gaussian input prepared by 
 ASE\\0,2\Na,0.285830089,1.5956193053,3.3517137582\Na,3.0751974765,0.,0
 .\Na,0.2096036007,0.7525568431,0.4771647544\Na,0.,3.6546422657,1.19198
 5488\Na,2.7552633021,4.6537403835,0.5425231007\Na,4.3477355303,2.28702
 90765,1.4735555617\Na,3.1529894773,1.8569927487,4.1945198503\\Version=
 ES64L-G16RevB.01\State=2-A\HF=-1136.1040906\S2=0.768991\S2-1=0.\S2A=0.
 750127\RMSD=6.385e-09\RMSF=4.861e-03\Dipole=0.0472582,-0.164981,0.2510
 517\Quadrupole=-0.4169581,-4.6951055,5.1120637,-0.1773559,0.2802934,0.
 633268\PG=C01 [X(Na7)]\\@


 I WANT TO KNOW HOW GOD CREATED THE WORLD.  I AM NOT INTERESTED IN
 THIS OR THAT PHENOMENON, IN THE SPECTRUM OF THIS OR THAT ELEMENT.
 I WANT TO KNOW HIS THOUGHTS, THE REST ARE DETAILS.
     -- ALBERT EINSTEIN
 Job cpu time:       0 days  0 hours  5 minutes 23.6 seconds.
 Elapsed time:       0 days  0 hours  0 minutes 26.0 seconds.
 File lengths (MBytes):  RWF=     32 Int=      0 D2E=      0 Chk=      5 Scr=      1
 Normal termination of Gaussian 16 at Mon Nov 13 12:18:29 2023.
