 Entering Gaussian System, Link 0=g16
 Initial command:
 /home/sekinelabo/g16/l1.exe "/home/sekinelabo/g16temp/Gau-3979999.inp" -scrdir="/home/sekinelabo/g16temp/"
 Entering Link 1 = /home/sekinelabo/g16/l1.exe PID=   3980001.
  
 Copyright (c) 1988-2017, Gaussian, Inc.  All Rights Reserved.
  
 This is part of the Gaussian(R) 16 program.  It is based on
 the Gaussian(R) 09 system (copyright 2009, Gaussian, Inc.),
 the Gaussian(R) 03 system (copyright 2003, Gaussian, Inc.),
 the Gaussian(R) 98 system (copyright 1998, Gaussian, Inc.),
 the Gaussian(R) 94 system (copyright 1995, Gaussian, Inc.),
 the Gaussian 92(TM) system (copyright 1992, Gaussian, Inc.),
 the Gaussian 90(TM) system (copyright 1990, Gaussian, Inc.),
 the Gaussian 88(TM) system (copyright 1988, Gaussian, Inc.),
 the Gaussian 86(TM) system (copyright 1986, Carnegie Mellon
 University), and the Gaussian 82(TM) system (copyright 1983,
 Carnegie Mellon University). Gaussian is a federally registered
 trademark of Gaussian, Inc.
  
 This software contains proprietary and confidential information,
 including trade secrets, belonging to Gaussian, Inc.
  
 This software is provided under written license and may be
 used, copied, transmitted, or stored only in accord with that
 written license.
  
 The following legend is applicable only to US Government
 contracts under FAR:
  
                    RESTRICTED RIGHTS LEGEND
  
 Use, reproduction and disclosure by the US Government is
 subject to restrictions as set forth in subparagraphs (a)
 and (c) of the Commercial Computer Software - Restricted
 Rights clause in FAR 52.227-19.
  
 Gaussian, Inc.
 340 Quinnipiac St., Bldg. 40, Wallingford CT 06492
  
  
 ---------------------------------------------------------------
 Warning -- This program may not be used in any manner that
 competes with the business of Gaussian, Inc. or will provide
 assistance to any competitor of Gaussian, Inc.  The licensee
 of this program is prohibited from giving any competitor of
 Gaussian, Inc. access to this program.  By using this program,
 the user acknowledges that Gaussian, Inc. is engaged in the
 business of creating and licensing software in the field of
 computational chemistry and represents and warrants to the
 licensee that it is not a competitor of Gaussian, Inc. and that
 it will not use this program in any manner prohibited above.
 ---------------------------------------------------------------
  

 Cite this work as:
 Gaussian 16, Revision B.01,
 M. J. Frisch, G. W. Trucks, H. B. Schlegel, G. E. Scuseria, 
 M. A. Robb, J. R. Cheeseman, G. Scalmani, V. Barone, 
 G. A. Petersson, H. Nakatsuji, X. Li, M. Caricato, A. V. Marenich, 
 J. Bloino, B. G. Janesko, R. Gomperts, B. Mennucci, H. P. Hratchian, 
 J. V. Ortiz, A. F. Izmaylov, J. L. Sonnenberg, D. Williams-Young, 
 F. Ding, F. Lipparini, F. Egidi, J. Goings, B. Peng, A. Petrone, 
 T. Henderson, D. Ranasinghe, V. G. Zakrzewski, J. Gao, N. Rega, 
 G. Zheng, W. Liang, M. Hada, M. Ehara, K. Toyota, R. Fukuda, 
 J. Hasegawa, M. Ishida, T. Nakajima, Y. Honda, O. Kitao, H. Nakai, 
 T. Vreven, K. Throssell, J. A. Montgomery, Jr., J. E. Peralta, 
 F. Ogliaro, M. J. Bearpark, J. J. Heyd, E. N. Brothers, K. N. Kudin, 
 V. N. Staroverov, T. A. Keith, R. Kobayashi, J. Normand, 
 K. Raghavachari, A. P. Rendell, J. C. Burant, S. S. Iyengar, 
 J. Tomasi, M. Cossi, J. M. Millam, M. Klene, C. Adamo, R. Cammi, 
 J. W. Ochterski, R. L. Martin, K. Morokuma, O. Farkas, 
 J. B. Foresman, and D. J. Fox, Gaussian, Inc., Wallingford CT, 2016.
 
 ******************************************
 Gaussian 16:  ES64L-G16RevB.01 20-Dec-2017
                13-Nov-2023 
 ******************************************
 %mem=14GB
 %chk=checkpoint.chk
 %nprocshared=16
 Will use up to   16 processors via shared memory.
 -------------------------
 #P B3LYP/6-311+g(d) force
 -------------------------
 1/10=7,30=1,38=1/1,3;
 2/12=2,17=6,18=5,40=1/2;
 3/5=4,6=6,7=11,11=2,25=1,30=1,71=1,74=-5/1,2,3;
 4//1;
 5/5=2,38=5/2;
 6/7=2,8=2,9=2,10=2,28=1/1;
 7/29=1/1,2,3,16;
 1/10=7,30=1/3;
 99//99;
 Leave Link    1 at Mon Nov 13 12:16:47 2023, MaxMem=  1879048192 cpu:               0.3 elap:               0.0
 (Enter /home/sekinelabo/g16/l101.exe)
 ------------------------------
 Gaussian input prepared by ASE
 ------------------------------
 Symbolic Z-matrix:
 Charge =  0 Multiplicity = 2
 Na                    5.2742    3.48671   2.55964 
 Na                    3.419     0.        0.84729 
 Na                    7.92526   3.34246   1.16864 
 Na                    5.54597   1.94054   0. 
 Na                    3.23736   1.47242   3.45753 
 Na                    2.85791   2.94528   0.87159 
 Na                    0.        3.8609    0.84064 
 
 ITRead=  0  0  0  0  0  0  0
 MicOpt= -1 -1 -1 -1 -1 -1 -1
 NAtoms=      7 NQM=        7 NQMF=       0 NMMI=      0 NMMIF=      0
                NMic=       0 NMicF=      0.
                    Isotopes and Nuclear Properties:
 (Nuclear quadrupole moments (NQMom) in fm**2, nuclear magnetic moments (NMagM)
  in nuclear magnetons)

  Atom         1           2           3           4           5           6           7
 IAtWgt=          23          23          23          23          23          23          23
 AtmWgt=  22.9897697  22.9897697  22.9897697  22.9897697  22.9897697  22.9897697  22.9897697
 NucSpn=           3           3           3           3           3           3           3
 AtZEff=  -0.0000000  -0.0000000  -0.0000000  -0.0000000  -0.0000000  -0.0000000  -0.0000000
 NQMom=   10.4000000  10.4000000  10.4000000  10.4000000  10.4000000  10.4000000  10.4000000
 NMagM=    2.2175200   2.2175200   2.2175200   2.2175200   2.2175200   2.2175200   2.2175200
 AtZNuc=  11.0000000  11.0000000  11.0000000  11.0000000  11.0000000  11.0000000  11.0000000
 Leave Link  101 at Mon Nov 13 12:16:48 2023, MaxMem=  1879048192 cpu:               2.6 elap:               0.2
 (Enter /home/sekinelabo/g16/l103.exe)

 GradGradGradGradGradGradGradGradGradGradGradGradGradGradGradGradGradGrad
 Berny optimization.
 Initialization pass.
 Trust Radius=3.00D-01 FncErr=1.00D-07 GrdErr=1.00D-07 EigMax=2.50D+02 EigMin=1.00D-04
 Number of steps in this run=      2 maximum allowed number of steps=      2.
 GradGradGradGradGradGradGradGradGradGradGradGradGradGradGradGradGradGrad

 Leave Link  103 at Mon Nov 13 12:16:48 2023, MaxMem=  1879048192 cpu:               0.2 elap:               0.0
 (Enter /home/sekinelabo/g16/l202.exe)
                          Input orientation:                          
 ---------------------------------------------------------------------
 Center     Atomic      Atomic             Coordinates (Angstroms)
 Number     Number       Type             X           Y           Z
 ---------------------------------------------------------------------
      1         11           0        5.274200    3.486714    2.559637
      2         11           0        3.418997    0.000000    0.847291
      3         11           0        7.925263    3.342456    1.168639
      4         11           0        5.545974    1.940538    0.000000
      5         11           0        3.237356    1.472417    3.457533
      6         11           0        2.857913    2.945283    0.871585
      7         11           0        0.000000    3.860903    0.840644
 ---------------------------------------------------------------------
                    Distance matrix (angstroms):
                    1          2          3          4          5
     1  Na   0.000000
     2  Na   4.304774   0.000000
     3  Na   2.997302   5.619761   0.000000
     4  Na   3.002709   3.001270   2.998685   0.000000
     5  Na   3.002057   3.002394   5.541891   4.183705   0.000000
     6  Na   2.996850   2.998349   5.091565   2.999142   3.000073
     7  Na   5.559869   5.157146   7.948973   5.928939   4.799317
                    6          7
     6  Na   0.000000
     7  Na   3.001163   0.000000
 Stoichiometry    Na7(2)
 Framework group  C1[X(Na7)]
 Deg. of freedom    15
 Full point group                 C1      NOp   1
 Largest Abelian subgroup         C1      NOp   1
 Largest concise Abelian subgroup C1      NOp   1
                         Standard orientation:                         
 ---------------------------------------------------------------------
 Center     Atomic      Atomic             Coordinates (Angstroms)
 Number     Number       Type             X           Y           Z
 ---------------------------------------------------------------------
      1         11           0       -1.237100   -1.051241    1.167447
      2         11           0        0.618103    2.435473   -0.544899
      3         11           0       -3.888163   -0.906983   -0.223551
      4         11           0       -1.508874    0.494935   -1.392190
      5         11           0        0.799745    0.963056    2.065343
      6         11           0        1.179188   -0.509810   -0.520605
      7         11           0        4.037101   -1.425430   -0.551546
 ---------------------------------------------------------------------
 Rotational constants (GHZ):           1.1095499           0.4766005           0.4490067
 Leave Link  202 at Mon Nov 13 12:16:48 2023, MaxMem=  1879048192 cpu:               0.0 elap:               0.0
 (Enter /home/sekinelabo/g16/l301.exe)
 Standard basis: 6-311+G(d) (5D, 7F)
 Ernie: Thresh=  0.10000D-02 Tol=  0.10000D-05 Strict=F.
 There are   217 symmetry adapted cartesian basis functions of A   symmetry.
 There are   210 symmetry adapted basis functions of A   symmetry.
   210 basis functions,   350 primitive gaussians,   217 cartesian basis functions
    39 alpha electrons       38 beta electrons
       nuclear repulsion energy       356.6097459833 Hartrees.
 IExCor=  402 DFT=T Ex+Corr=B3LYP ExCW=0 ScaHFX=  0.200000
 ScaDFX=  0.800000  0.720000  1.000000  0.810000 ScalE2=  1.000000  1.000000
 IRadAn=      5 IRanWt=     -1 IRanGd=            0 ICorTp=0 IEmpDi=  4
 NAtoms=    7 NActive=    7 NUniq=    7 SFac= 1.00D+00 NAtFMM=   60 NAOKFM=F Big=F
 Integral buffers will be    131072 words long.
 Raffenetti 2 integral format.
 Two-electron integral symmetry is turned on.
 Leave Link  301 at Mon Nov 13 12:16:48 2023, MaxMem=  1879048192 cpu:               0.5 elap:               0.0
 (Enter /home/sekinelabo/g16/l302.exe)
 NPDir=0 NMtPBC=     1 NCelOv=     1 NCel=       1 NClECP=     1 NCelD=      1
         NCelK=      1 NCelE2=     1 NClLst=     1 CellRange=     0.0.
 One-electron integrals computed using PRISM.
 One-electron integral symmetry used in STVInt
 NBasis=   210 RedAO= T EigKep=  1.04D-06  NBF=   210
 NBsUse=   210 1.00D-06 EigRej= -1.00D+00 NBFU=   210
 Precomputing XC quadrature grid using
 IXCGrd= 4 IRadAn=           5 IRanWt=          -1 IRanGd=           0 AccXCQ= 0.00D+00.
 Generated NRdTot=       0 NPtTot=           0 NUsed=           0 NTot=          32
 NSgBfM=   209   209   209   209   209 MxSgAt=     7 MxSgA2=     7.
 Leave Link  302 at Mon Nov 13 12:16:48 2023, MaxMem=  1879048192 cpu:               2.1 elap:               0.1
 (Enter /home/sekinelabo/g16/l303.exe)
 DipDrv:  MaxL=1.
 Leave Link  303 at Mon Nov 13 12:16:48 2023, MaxMem=  1879048192 cpu:               0.6 elap:               0.0
 (Enter /home/sekinelabo/g16/l401.exe)
 ExpMin= 7.60D-03 ExpMax= 3.62D+04 ExpMxC= 1.21D+03 IAcc=3 IRadAn=         5 AccDes= 0.00D+00
 Harris functional with IExCor=  402 and IRadAn=       5 diagonalized for initial guess.
 HarFok:  IExCor=  402 AccDes= 0.00D+00 IRadAn=         5 IDoV= 1 UseB2=F ITyADJ=14
 ICtDFT=  3500011 ScaDFX=  1.000000  1.000000  1.000000  1.000000
 FoFCou: FMM=F IPFlag=           0 FMFlag=      100000 FMFlg1=           0
         NFxFlg=           0 DoJE=T BraDBF=F KetDBF=T FulRan=T
         wScrn=  0.000000 ICntrl=       500 IOpCl=  0 I1Cent=   200000004 NGrid=           0
         NMat0=    1 NMatS0=      1 NMatT0=    0 NMatD0=    1 NMtDS0=    0 NMtDT0=    0
 Petite list used in FoFCou.
 Harris En= -1135.86429222915    
 JPrj=0 DoOrth=F DoCkMO=F.
 Initial guess <Sx>= 0.0000 <Sy>= 0.0000 <Sz>= 0.5000 <S**2>= 0.7500 S= 0.5000
 Leave Link  401 at Mon Nov 13 12:16:48 2023, MaxMem=  1879048192 cpu:               4.6 elap:               0.3
 (Enter /home/sekinelabo/g16/l502.exe)
 Keep R1 and R2 ints in memory in canonical form, NReq=507620374.
 FoFCou: FMM=F IPFlag=           0 FMFlag=           0 FMFlg1=           0
         NFxFlg=           0 DoJE=F BraDBF=F KetDBF=F FulRan=T
         wScrn=  0.000000 ICntrl=       600 IOpCl=  0 I1Cent=           0 NGrid=           0
         NMat0=    1 NMatS0=  22155 NMatT0=    0 NMatD0=    1 NMtDS0=    0 NMtDT0=    0
 Symmetry not used in FoFCou.
 Two-electron integral symmetry not used.
 UHF open shell SCF:
 Using DIIS extrapolation, IDIIS=  1040.
 NGot=  1879048192 LenX=  1388082362 LenY=  1388034832
 Requested convergence on RMS density matrix=1.00D-08 within 128 cycles.
 Requested convergence on MAX density matrix=1.00D-06.
 Requested convergence on             energy=1.00D-06.
 No special actions if energy rises.

 Cycle   1  Pass 1  IDiag  1:
 E= -1136.05409580107    
 DIIS: error= 1.33D-02 at cycle   1 NSaved=   1.
 NSaved= 1 IEnMin= 1 EnMin= -1136.05409580107     IErMin= 1 ErrMin= 1.33D-02
 ErrMax= 1.33D-02  0.00D+00 EMaxC= 1.00D-01 BMatC= 1.97D-01 BMatP= 1.97D-01
 IDIUse=3 WtCom= 8.67D-01 WtEn= 1.33D-01
 Coeff-Com:  0.100D+01
 Coeff-En:   0.100D+01
 Coeff:      0.100D+01
 Gap=     0.043 Goal=   None    Shift=    0.000
 Gap=     0.032 Goal=   None    Shift=    0.000
 GapD=    0.032 DampG=0.250 DampE=0.500 DampFc=0.2500 IDamp=-1.
 Damping current iteration by 2.50D-01
 RMSDP=6.85D-02 MaxDP=8.67D+00              OVMax= 3.18D-01

 Cycle   2  Pass 1  IDiag  1:
 E= -1136.06739418293     Delta-E=       -0.013298381859 Rises=F Damp=T
 DIIS: error= 9.20D-03 at cycle   2 NSaved=   2.
 NSaved= 2 IEnMin= 2 EnMin= -1136.06739418293     IErMin= 2 ErrMin= 9.20D-03
 ErrMax= 9.20D-03  0.00D+00 EMaxC= 1.00D-01 BMatC= 7.43D-02 BMatP= 1.97D-01
 IDIUse=3 WtCom= 9.08D-01 WtEn= 9.20D-02
 Coeff-Com: -0.122D+01 0.222D+01
 Coeff-En:   0.000D+00 0.100D+01
 Coeff:     -0.111D+01 0.211D+01
 Gap=     0.053 Goal=   None    Shift=    0.000
 Gap=     0.028 Goal=   None    Shift=    0.000
 RMSDP=3.01D-02 MaxDP=4.11D+00 DE=-1.33D-02 OVMax= 3.17D-01

 Cycle   3  Pass 1  IDiag  1:
 E= -1136.08485242060     Delta-E=       -0.017458237664 Rises=F Damp=F
 DIIS: error= 5.44D-03 at cycle   3 NSaved=   3.
 NSaved= 3 IEnMin= 3 EnMin= -1136.08485242060     IErMin= 3 ErrMin= 5.44D-03
 ErrMax= 5.44D-03  0.00D+00 EMaxC= 1.00D-01 BMatC= 8.51D-03 BMatP= 7.43D-02
 IDIUse=3 WtCom= 9.46D-01 WtEn= 5.44D-02
 Coeff-Com: -0.434D+00 0.765D+00 0.669D+00
 Coeff-En:   0.000D+00 0.000D+00 0.100D+01
 Coeff:     -0.410D+00 0.724D+00 0.687D+00
 Gap=     0.047 Goal=   None    Shift=    0.000
 Gap=     0.033 Goal=   None    Shift=    0.000
 RMSDP=1.79D-02 MaxDP=1.55D+00 DE=-1.75D-02 OVMax= 2.16D-01

 Cycle   4  Pass 1  IDiag  1:
 E= -1136.08744331128     Delta-E=       -0.002590890687 Rises=F Damp=F
 DIIS: error= 4.25D-03 at cycle   4 NSaved=   4.
 NSaved= 4 IEnMin= 4 EnMin= -1136.08744331128     IErMin= 4 ErrMin= 4.25D-03
 ErrMax= 4.25D-03  0.00D+00 EMaxC= 1.00D-01 BMatC= 5.66D-03 BMatP= 8.51D-03
 IDIUse=3 WtCom= 9.57D-01 WtEn= 4.25D-02
 Coeff-Com: -0.128D-01 0.202D-01 0.447D+00 0.545D+00
 Coeff-En:   0.000D+00 0.000D+00 0.419D+00 0.581D+00
 Coeff:     -0.123D-01 0.194D-01 0.446D+00 0.547D+00
 Gap=     0.049 Goal=   None    Shift=    0.000
 Gap=     0.031 Goal=   None    Shift=    0.000
 RMSDP=7.27D-03 MaxDP=6.08D-01 DE=-2.59D-03 OVMax= 1.10D-01

 Cycle   5  Pass 1  IDiag  1:
 E= -1136.09245101174     Delta-E=       -0.005007700455 Rises=F Damp=F
 DIIS: error= 5.71D-04 at cycle   5 NSaved=   5.
 NSaved= 5 IEnMin= 5 EnMin= -1136.09245101174     IErMin= 5 ErrMin= 5.71D-04
 ErrMax= 5.71D-04  0.00D+00 EMaxC= 1.00D-01 BMatC= 1.41D-04 BMatP= 5.66D-03
 IDIUse=3 WtCom= 9.94D-01 WtEn= 5.71D-03
 Coeff-Com: -0.253D-02 0.210D-02 0.234D+00 0.292D+00 0.474D+00
 Coeff-En:   0.000D+00 0.000D+00 0.000D+00 0.000D+00 0.100D+01
 Coeff:     -0.251D-02 0.208D-02 0.233D+00 0.290D+00 0.477D+00
 Gap=     0.045 Goal=   None    Shift=    0.000
 Gap=     0.032 Goal=   None    Shift=    0.000
 RMSDP=2.21D-03 MaxDP=1.73D-01 DE=-5.01D-03 OVMax= 2.73D-02

 Cycle   6  Pass 1  IDiag  1:
 E= -1136.09260923878     Delta-E=       -0.000158227040 Rises=F Damp=F
 DIIS: error= 2.06D-04 at cycle   6 NSaved=   6.
 NSaved= 6 IEnMin= 6 EnMin= -1136.09260923878     IErMin= 6 ErrMin= 2.06D-04
 ErrMax= 2.06D-04  0.00D+00 EMaxC= 1.00D-01 BMatC= 2.48D-05 BMatP= 1.41D-04
 IDIUse=3 WtCom= 9.98D-01 WtEn= 2.06D-03
 Coeff-Com: -0.168D-03-0.587D-03-0.609D-04-0.125D-01 0.258D+00 0.755D+00
 Coeff-En:   0.000D+00 0.000D+00 0.000D+00 0.000D+00 0.989D-01 0.901D+00
 Coeff:     -0.168D-03-0.586D-03-0.608D-04-0.125D-01 0.258D+00 0.755D+00
 Gap=     0.045 Goal=   None    Shift=    0.000
 Gap=     0.032 Goal=   None    Shift=    0.000
 RMSDP=9.69D-04 MaxDP=1.26D-01 DE=-1.58D-04 OVMax= 1.17D-02

 Cycle   7  Pass 1  IDiag  1:
 E= -1136.09265643884     Delta-E=       -0.000047200064 Rises=F Damp=F
 DIIS: error= 1.06D-04 at cycle   7 NSaved=   7.
 NSaved= 7 IEnMin= 7 EnMin= -1136.09265643884     IErMin= 7 ErrMin= 1.06D-04
 ErrMax= 1.06D-04  0.00D+00 EMaxC= 1.00D-01 BMatC= 3.90D-06 BMatP= 2.48D-05
 IDIUse=3 WtCom= 9.99D-01 WtEn= 1.06D-03
 Coeff-Com:  0.418D-03-0.793D-03-0.292D-01-0.454D-01 0.674D-01 0.320D+00
 Coeff-Com:  0.688D+00
 Coeff-En:   0.000D+00 0.000D+00 0.000D+00 0.000D+00 0.000D+00 0.000D+00
 Coeff-En:   0.100D+01
 Coeff:      0.418D-03-0.792D-03-0.291D-01-0.453D-01 0.673D-01 0.319D+00
 Coeff:      0.688D+00
 Gap=     0.045 Goal=   None    Shift=    0.000
 Gap=     0.032 Goal=   None    Shift=    0.000
 RMSDP=4.25D-04 MaxDP=3.91D-02 DE=-4.72D-05 OVMax= 1.16D-02

 Cycle   8  Pass 1  IDiag  1:
 E= -1136.09267169218     Delta-E=       -0.000015253338 Rises=F Damp=F
 DIIS: error= 6.81D-05 at cycle   8 NSaved=   8.
 NSaved= 8 IEnMin= 8 EnMin= -1136.09267169218     IErMin= 8 ErrMin= 6.81D-05
 ErrMax= 6.81D-05  0.00D+00 EMaxC= 1.00D-01 BMatC= 2.04D-06 BMatP= 3.90D-06
 IDIUse=1 WtCom= 1.00D+00 WtEn= 0.00D+00
 Coeff-Com:  0.793D-03-0.964D-03-0.594D-02-0.891D-02-0.521D-01-0.186D+00
 Coeff-Com:  0.361D+00 0.892D+00
 Coeff:      0.793D-03-0.964D-03-0.594D-02-0.891D-02-0.521D-01-0.186D+00
 Coeff:      0.361D+00 0.892D+00
 Gap=     0.045 Goal=   None    Shift=    0.000
 Gap=     0.032 Goal=   None    Shift=    0.000
 RMSDP=4.44D-04 MaxDP=3.77D-02 DE=-1.53D-05 OVMax= 1.35D-02

 Cycle   9  Pass 1  IDiag  1:
 E= -1136.09268620489     Delta-E=       -0.000014512710 Rises=F Damp=F
 DIIS: error= 5.47D-05 at cycle   9 NSaved=   9.
 NSaved= 9 IEnMin= 9 EnMin= -1136.09268620489     IErMin= 9 ErrMin= 5.47D-05
 ErrMax= 5.47D-05  0.00D+00 EMaxC= 1.00D-01 BMatC= 7.97D-07 BMatP= 2.04D-06
 IDIUse=1 WtCom= 1.00D+00 WtEn= 0.00D+00
 Coeff-Com:  0.914D-03-0.110D-02 0.946D-02 0.127D-01-0.340D-01-0.222D+00
 Coeff-Com: -0.231D+00 0.716D-01 0.139D+01
 Coeff:      0.914D-03-0.110D-02 0.946D-02 0.127D-01-0.340D-01-0.222D+00
 Coeff:     -0.231D+00 0.716D-01 0.139D+01
 Gap=     0.045 Goal=   None    Shift=    0.000
 Gap=     0.032 Goal=   None    Shift=    0.000
 RMSDP=5.08D-04 MaxDP=4.00D-02 DE=-1.45D-05 OVMax= 1.90D-02

 Cycle  10  Pass 1  IDiag  1:
 E= -1136.09269954611     Delta-E=       -0.000013341221 Rises=F Damp=F
 DIIS: error= 3.09D-05 at cycle  10 NSaved=  10.
 NSaved=10 IEnMin=10 EnMin= -1136.09269954611     IErMin=10 ErrMin= 3.09D-05
 ErrMax= 3.09D-05  0.00D+00 EMaxC= 1.00D-01 BMatC= 3.32D-07 BMatP= 7.97D-07
 IDIUse=1 WtCom= 1.00D+00 WtEn= 0.00D+00
 Coeff-Com: -0.225D-03 0.330D-03 0.697D-02 0.774D-02 0.125D-01-0.149D-01
 Coeff-Com: -0.135D+00-0.310D+00 0.238D+00 0.119D+01
 Coeff:     -0.225D-03 0.330D-03 0.697D-02 0.774D-02 0.125D-01-0.149D-01
 Coeff:     -0.135D+00-0.310D+00 0.238D+00 0.119D+01
 Gap=     0.044 Goal=   None    Shift=    0.000
 Gap=     0.032 Goal=   None    Shift=    0.000
 RMSDP=3.99D-04 MaxDP=2.67D-02 DE=-1.33D-05 OVMax= 1.32D-02

 Cycle  11  Pass 1  IDiag  1:
 E= -1136.09270500248     Delta-E=       -0.000005456367 Rises=F Damp=F
 DIIS: error= 1.78D-05 at cycle  11 NSaved=  11.
 NSaved=11 IEnMin=11 EnMin= -1136.09270500248     IErMin=11 ErrMin= 1.78D-05
 ErrMax= 1.78D-05  0.00D+00 EMaxC= 1.00D-01 BMatC= 1.67D-07 BMatP= 3.32D-07
 IDIUse=1 WtCom= 1.00D+00 WtEn= 0.00D+00
 Coeff-Com: -0.753D-03 0.971D-03-0.698D-04-0.233D-02 0.309D-01 0.114D+00
 Coeff-Com:  0.981D-01-0.215D+00-0.793D+00 0.770D+00 0.996D+00
 Coeff:     -0.753D-03 0.971D-03-0.698D-04-0.233D-02 0.309D-01 0.114D+00
 Coeff:      0.981D-01-0.215D+00-0.793D+00 0.770D+00 0.996D+00
 Gap=     0.044 Goal=   None    Shift=    0.000
 Gap=     0.032 Goal=   None    Shift=    0.000
 RMSDP=3.55D-04 MaxDP=2.50D-02 DE=-5.46D-06 OVMax= 1.07D-02

 Cycle  12  Pass 1  IDiag  1:
 E= -1136.09270725484     Delta-E=       -0.000002252365 Rises=F Damp=F
 DIIS: error= 1.00D-05 at cycle  12 NSaved=  12.
 NSaved=12 IEnMin=12 EnMin= -1136.09270725484     IErMin=12 ErrMin= 1.00D-05
 ErrMax= 1.00D-05  0.00D+00 EMaxC= 1.00D-01 BMatC= 4.41D-08 BMatP= 1.67D-07
 IDIUse=1 WtCom= 1.00D+00 WtEn= 0.00D+00
 Coeff-Com: -0.187D-03 0.226D-03-0.591D-03-0.183D-02 0.130D-01 0.499D-01
 Coeff-Com:  0.660D-01-0.414D-01-0.439D+00 0.158D+00 0.497D+00 0.700D+00
 Coeff:     -0.187D-03 0.226D-03-0.591D-03-0.183D-02 0.130D-01 0.499D-01
 Coeff:      0.660D-01-0.414D-01-0.439D+00 0.158D+00 0.497D+00 0.700D+00
 Gap=     0.044 Goal=   None    Shift=    0.000
 Gap=     0.032 Goal=   None    Shift=    0.000
 RMSDP=1.12D-04 MaxDP=8.59D-03 DE=-2.25D-06 OVMax= 3.26D-03

 Cycle  13  Pass 1  IDiag  1:
 E= -1136.09270758081     Delta-E=       -0.000000325961 Rises=F Damp=F
 DIIS: error= 5.13D-06 at cycle  13 NSaved=  13.
 NSaved=13 IEnMin=13 EnMin= -1136.09270758081     IErMin=13 ErrMin= 5.13D-06
 ErrMax= 5.13D-06  0.00D+00 EMaxC= 1.00D-01 BMatC= 9.21D-09 BMatP= 4.41D-08
 IDIUse=1 WtCom= 1.00D+00 WtEn= 0.00D+00
 Coeff-Com:  0.226D-03-0.295D-03-0.156D-03 0.208D-03-0.765D-02-0.294D-01
 Coeff-Com: -0.421D-02 0.855D-01 0.115D+00-0.213D+00-0.223D+00 0.100D+00
 Coeff-Com:  0.118D+01
 Coeff:      0.226D-03-0.295D-03-0.156D-03 0.208D-03-0.765D-02-0.294D-01
 Coeff:     -0.421D-02 0.855D-01 0.115D+00-0.213D+00-0.223D+00 0.100D+00
 Coeff:      0.118D+01
 Gap=     0.044 Goal=   None    Shift=    0.000
 Gap=     0.032 Goal=   None    Shift=    0.000
 RMSDP=8.54D-05 MaxDP=6.83D-03 DE=-3.26D-07 OVMax= 1.97D-03

 Cycle  14  Pass 1  IDiag  1:
 E= -1136.09270772016     Delta-E=       -0.000000139355 Rises=F Damp=F
 DIIS: error= 3.52D-06 at cycle  14 NSaved=  14.
 NSaved=14 IEnMin=14 EnMin= -1136.09270772016     IErMin=14 ErrMin= 3.52D-06
 ErrMax= 3.52D-06  0.00D+00 EMaxC= 1.00D-01 BMatC= 3.45D-09 BMatP= 9.21D-09
 IDIUse=1 WtCom= 1.00D+00 WtEn= 0.00D+00
 Coeff-Com:  0.165D-04-0.186D-04 0.458D-04 0.257D-03-0.270D-02-0.130D-01
 Coeff-Com: -0.582D-02 0.133D-01 0.897D-01-0.516D-01-0.928D-01-0.136D+00
 Coeff-Com: -0.534D-01 0.125D+01
 Coeff:      0.165D-04-0.186D-04 0.458D-04 0.257D-03-0.270D-02-0.130D-01
 Coeff:     -0.582D-02 0.133D-01 0.897D-01-0.516D-01-0.928D-01-0.136D+00
 Coeff:     -0.534D-01 0.125D+01
 Gap=     0.044 Goal=   None    Shift=    0.000
 Gap=     0.032 Goal=   None    Shift=    0.000
 RMSDP=4.35D-05 MaxDP=3.57D-03 DE=-1.39D-07 OVMax= 9.35D-04

 Cycle  15  Pass 1  IDiag  1:
 E= -1136.09270778536     Delta-E=       -0.000000065203 Rises=F Damp=F
 DIIS: error= 3.39D-06 at cycle  15 NSaved=  15.
 NSaved=15 IEnMin=15 EnMin= -1136.09270778536     IErMin=15 ErrMin= 3.39D-06
 ErrMax= 3.39D-06  0.00D+00 EMaxC= 1.00D-01 BMatC= 2.23D-09 BMatP= 3.45D-09
 IDIUse=1 WtCom= 1.00D+00 WtEn= 0.00D+00
 Coeff-Com: -0.217D-04 0.271D-04 0.427D-03 0.134D-03 0.242D-02 0.611D-02
 Coeff-Com:  0.385D-02-0.193D-01-0.597D-01 0.754D-01 0.101D+00-0.356D-01
 Coeff-Com: -0.367D+00-0.387D+00 0.168D+01
 Coeff:     -0.217D-04 0.271D-04 0.427D-03 0.134D-03 0.242D-02 0.611D-02
 Coeff:      0.385D-02-0.193D-01-0.597D-01 0.754D-01 0.101D+00-0.356D-01
 Coeff:     -0.367D+00-0.387D+00 0.168D+01
 Gap=     0.044 Goal=   None    Shift=    0.000
 Gap=     0.032 Goal=   None    Shift=    0.000
 RMSDP=3.89D-05 MaxDP=2.96D-03 DE=-6.52D-08 OVMax= 9.80D-04

 Cycle  16  Pass 1  IDiag  1:
 E= -1136.09270784353     Delta-E=       -0.000000058165 Rises=F Damp=F
 DIIS: error= 2.18D-06 at cycle  16 NSaved=  16.
 NSaved=16 IEnMin=16 EnMin= -1136.09270784353     IErMin=16 ErrMin= 2.18D-06
 ErrMax= 2.18D-06  0.00D+00 EMaxC= 1.00D-01 BMatC= 1.07D-09 BMatP= 2.23D-09
 IDIUse=1 WtCom= 1.00D+00 WtEn= 0.00D+00
 Coeff-Com: -0.349D-04 0.455D-04-0.255D-03-0.174D-03 0.828D-03 0.562D-02
 Coeff-Com:  0.101D-01 0.776D-02-0.491D-01-0.105D-01 0.596D-02 0.101D+00
 Coeff-Com:  0.362D+00-0.652D+00-0.131D+01 0.253D+01
 Coeff:     -0.349D-04 0.455D-04-0.255D-03-0.174D-03 0.828D-03 0.562D-02
 Coeff:      0.101D-01 0.776D-02-0.491D-01-0.105D-01 0.596D-02 0.101D+00
 Coeff:      0.362D+00-0.652D+00-0.131D+01 0.253D+01
 Gap=     0.044 Goal=   None    Shift=    0.000
 Gap=     0.032 Goal=   None    Shift=    0.000
 RMSDP=5.14D-05 MaxDP=3.37D-03 DE=-5.82D-08 OVMax= 1.48D-03

 Cycle  17  Pass 1  IDiag  1:
 E= -1136.09270789537     Delta-E=       -0.000000051846 Rises=F Damp=F
 DIIS: error= 1.22D-06 at cycle  17 NSaved=  17.
 NSaved=17 IEnMin=17 EnMin= -1136.09270789537     IErMin=17 ErrMin= 1.22D-06
 ErrMax= 1.22D-06  0.00D+00 EMaxC= 1.00D-01 BMatC= 3.84D-10 BMatP= 1.07D-09
 IDIUse=1 WtCom= 1.00D+00 WtEn= 0.00D+00
 Coeff-Com:  0.189D-04-0.250D-04-0.989D-04-0.658D-05-0.627D-03-0.394D-02
 Coeff-Com: -0.887D-03 0.662D-02 0.253D-01-0.283D-01-0.319D-01 0.830D-02
 Coeff-Com:  0.906D-01 0.305D+00-0.826D+00 0.650D-01 0.139D+01
 Coeff:      0.189D-04-0.250D-04-0.989D-04-0.658D-05-0.627D-03-0.394D-02
 Coeff:     -0.887D-03 0.662D-02 0.253D-01-0.283D-01-0.319D-01 0.830D-02
 Coeff:      0.906D-01 0.305D+00-0.826D+00 0.650D-01 0.139D+01
 Gap=     0.044 Goal=   None    Shift=    0.000
 Gap=     0.032 Goal=   None    Shift=    0.000
 RMSDP=2.45D-05 MaxDP=1.65D-03 DE=-5.18D-08 OVMax= 7.19D-04

 Cycle  18  Pass 1  IDiag  1:
 E= -1136.09270790733     Delta-E=       -0.000000011955 Rises=F Damp=F
 DIIS: error= 4.91D-07 at cycle  18 NSaved=  18.
 NSaved=18 IEnMin=18 EnMin= -1136.09270790733     IErMin=18 ErrMin= 4.91D-07
 ErrMax= 4.91D-07  0.00D+00 EMaxC= 1.00D-01 BMatC= 8.71D-11 BMatP= 3.84D-10
 IDIUse=1 WtCom= 1.00D+00 WtEn= 0.00D+00
 Coeff-Com:  0.833D-05-0.103D-04 0.257D-04 0.183D-04-0.607D-03-0.237D-02
 Coeff-Com: -0.211D-02 0.124D-02 0.172D-01-0.426D-02-0.119D-01-0.336D-01
 Coeff-Com: -0.407D-01 0.266D+00 0.619D-01-0.641D+00 0.343D+00 0.105D+01
 Coeff:      0.833D-05-0.103D-04 0.257D-04 0.183D-04-0.607D-03-0.237D-02
 Coeff:     -0.211D-02 0.124D-02 0.172D-01-0.426D-02-0.119D-01-0.336D-01
 Coeff:     -0.407D-01 0.266D+00 0.619D-01-0.641D+00 0.343D+00 0.105D+01
 Gap=     0.044 Goal=   None    Shift=    0.000
 Gap=     0.032 Goal=   None    Shift=    0.000
 RMSDP=9.57D-06 MaxDP=7.12D-04 DE=-1.20D-08 OVMax= 3.01D-04

 Cycle  19  Pass 1  IDiag  1:
 E= -1136.09270790920     Delta-E=       -0.000000001873 Rises=F Damp=F
 DIIS: error= 2.29D-07 at cycle  19 NSaved=  19.
 NSaved=19 IEnMin=19 EnMin= -1136.09270790920     IErMin=19 ErrMin= 2.29D-07
 ErrMax= 2.29D-07  0.00D+00 EMaxC= 1.00D-01 BMatC= 1.99D-11 BMatP= 8.71D-11
 IDIUse=1 WtCom= 1.00D+00 WtEn= 0.00D+00
 Coeff-Com: -0.512D-05 0.680D-05 0.158D-04-0.208D-04 0.130D-03 0.623D-03
 Coeff-Com:  0.406D-03-0.243D-02-0.465D-02 0.795D-02 0.903D-02-0.139D-01
 Coeff-Com: -0.410D-01 0.179D-02 0.241D+00-0.242D+00-0.184D+00 0.243D+00
 Coeff-Com:  0.984D+00
 Coeff:     -0.512D-05 0.680D-05 0.158D-04-0.208D-04 0.130D-03 0.623D-03
 Coeff:      0.406D-03-0.243D-02-0.465D-02 0.795D-02 0.903D-02-0.139D-01
 Coeff:     -0.410D-01 0.179D-02 0.241D+00-0.242D+00-0.184D+00 0.243D+00
 Coeff:      0.984D+00
 Gap=     0.044 Goal=   None    Shift=    0.000
 Gap=     0.032 Goal=   None    Shift=    0.000
 RMSDP=4.04D-06 MaxDP=2.41D-04 DE=-1.87D-09 OVMax= 1.18D-04

 Cycle  20  Pass 1  IDiag  1:
 E= -1136.09270790946     Delta-E=       -0.000000000254 Rises=F Damp=F
 DIIS: error= 8.65D-08 at cycle  20 NSaved=  20.
 NSaved=20 IEnMin=20 EnMin= -1136.09270790946     IErMin=20 ErrMin= 8.65D-08
 ErrMax= 8.65D-08  0.00D+00 EMaxC= 1.00D-01 BMatC= 3.27D-12 BMatP= 1.99D-11
 IDIUse=1 WtCom= 1.00D+00 WtEn= 0.00D+00
 Coeff-Com:  0.381D-06-0.470D-06-0.251D-05 0.427D-06 0.976D-04 0.216D-03
 Coeff-Com:  0.384D-03 0.483D-03-0.243D-02-0.109D-02 0.574D-03 0.845D-02
 Coeff-Com:  0.113D-01-0.420D-01-0.436D-01 0.149D+00-0.530D-01-0.241D+00
 Coeff-Com: -0.110D+00 0.132D+01
 Coeff:      0.381D-06-0.470D-06-0.251D-05 0.427D-06 0.976D-04 0.216D-03
 Coeff:      0.384D-03 0.483D-03-0.243D-02-0.109D-02 0.574D-03 0.845D-02
 Coeff:      0.113D-01-0.420D-01-0.436D-01 0.149D+00-0.530D-01-0.241D+00
 Coeff:     -0.110D+00 0.132D+01
 Gap=     0.044 Goal=   None    Shift=    0.000
 Gap=     0.032 Goal=   None    Shift=    0.000
 RMSDP=2.45D-06 MaxDP=1.78D-04 DE=-2.54D-10 OVMax= 3.60D-05

 Cycle  21  Pass 1  IDiag  1:
 E= -1136.09270790948     Delta-E=       -0.000000000029 Rises=F Damp=F
 DIIS: error= 4.21D-08 at cycle  21 NSaved=  20.
 NSaved=20 IEnMin=20 EnMin= -1136.09270790948     IErMin=20 ErrMin= 4.21D-08
 ErrMax= 4.21D-08  0.00D+00 EMaxC= 1.00D-01 BMatC= 3.79D-13 BMatP= 3.27D-12
 IDIUse=1 WtCom= 1.00D+00 WtEn= 0.00D+00
 Coeff-Com:  0.791D-07 0.584D-06 0.282D-05-0.483D-05 0.464D-05-0.378D-04
 Coeff-Com:  0.122D-03 0.128D-03-0.217D-03-0.387D-03 0.794D-03 0.315D-02
 Coeff-Com: -0.997D-03-0.216D-01 0.246D-01 0.208D-01-0.253D-01-0.111D+00
 Coeff-Com: -0.735D-01 0.118D+01
 Coeff:      0.791D-07 0.584D-06 0.282D-05-0.483D-05 0.464D-05-0.378D-04
 Coeff:      0.122D-03 0.128D-03-0.217D-03-0.387D-03 0.794D-03 0.315D-02
 Coeff:     -0.997D-03-0.216D-01 0.246D-01 0.208D-01-0.253D-01-0.111D+00
 Coeff:     -0.735D-01 0.118D+01
 Gap=     0.044 Goal=   None    Shift=    0.000
 Gap=     0.032 Goal=   None    Shift=    0.000
 RMSDP=8.68D-07 MaxDP=7.97D-05 DE=-2.91D-11 OVMax= 4.63D-06

 Cycle  22  Pass 1  IDiag  1:
 E= -1136.09270790948     Delta-E=        0.000000000000 Rises=F Damp=F
 DIIS: error= 1.25D-08 at cycle  22 NSaved=  20.
 NSaved=20 IEnMin=19 EnMin= -1136.09270790948     IErMin=20 ErrMin= 1.25D-08
 ErrMax= 1.25D-08  0.00D+00 EMaxC= 1.00D-01 BMatC= 6.95D-14 BMatP= 3.79D-13
 IDIUse=1 WtCom= 1.00D+00 WtEn= 0.00D+00
 Coeff-Com: -0.159D-05-0.364D-06-0.252D-04-0.786D-04-0.595D-04 0.629D-04
 Coeff-Com:  0.599D-03-0.346D-03-0.453D-03-0.944D-03 0.235D-03 0.689D-02
 Coeff-Com: -0.246D-02-0.160D-01 0.130D-01 0.355D-01-0.351D-02-0.200D+00
 Coeff-Com:  0.483D-01 0.112D+01
 Coeff:     -0.159D-05-0.364D-06-0.252D-04-0.786D-04-0.595D-04 0.629D-04
 Coeff:      0.599D-03-0.346D-03-0.453D-03-0.944D-03 0.235D-03 0.689D-02
 Coeff:     -0.246D-02-0.160D-01 0.130D-01 0.355D-01-0.351D-02-0.200D+00
 Coeff:      0.483D-01 0.112D+01
 Gap=     0.044 Goal=   None    Shift=    0.000
 Gap=     0.032 Goal=   None    Shift=    0.000
 RMSDP=4.16D-07 MaxDP=3.45D-05 DE= 0.00D+00 OVMax= 4.04D-06

 Cycle  23  Pass 1  IDiag  1:
 E= -1136.09270790949     Delta-E=       -0.000000000002 Rises=F Damp=F
 DIIS: error= 5.58D-09 at cycle  23 NSaved=  20.
 NSaved=20 IEnMin=20 EnMin= -1136.09270790949     IErMin=20 ErrMin= 5.58D-09
 ErrMax= 5.58D-09  0.00D+00 EMaxC= 1.00D-01 BMatC= 1.16D-14 BMatP= 6.95D-14
 IDIUse=1 WtCom= 1.00D+00 WtEn= 0.00D+00
 Coeff-Com: -0.749D-07-0.228D-05-0.690D-05-0.848D-05-0.215D-04 0.847D-04
 Coeff-Com: -0.178D-04 0.107D-04-0.210D-03-0.484D-03 0.114D-02 0.281D-02
 Coeff-Com: -0.635D-02 0.434D-03 0.899D-02 0.113D-01-0.181D-01-0.154D+00
 Coeff-Com:  0.202D+00 0.952D+00
 Coeff:     -0.749D-07-0.228D-05-0.690D-05-0.848D-05-0.215D-04 0.847D-04
 Coeff:     -0.178D-04 0.107D-04-0.210D-03-0.484D-03 0.114D-02 0.281D-02
 Coeff:     -0.635D-02 0.434D-03 0.899D-02 0.113D-01-0.181D-01-0.154D+00
 Coeff:      0.202D+00 0.952D+00
 Gap=     0.044 Goal=   None    Shift=    0.000
 Gap=     0.032 Goal=   None    Shift=    0.000
 RMSDP=9.41D-08 MaxDP=9.33D-06 DE=-2.27D-12 OVMax= 4.53D-07

 Cycle  24  Pass 1  IDiag  1:
 E= -1136.09270790950     Delta-E=       -0.000000000016 Rises=F Damp=F
 DIIS: error= 1.68D-09 at cycle  24 NSaved=  20.
 NSaved=20 IEnMin=20 EnMin= -1136.09270790950     IErMin=20 ErrMin= 1.68D-09
 ErrMax= 1.68D-09  0.00D+00 EMaxC= 1.00D-01 BMatC= 2.15D-15 BMatP= 1.16D-14
 IDIUse=1 WtCom= 1.00D+00 WtEn= 0.00D+00
 Large coefficients: NSaved= 20 BigCof=    0.00 CofMax=   10.00 Det=-5.69D-15
 Inversion failed.  Reducing to 19 matrices.
 Large coefficients: NSaved= 19 BigCof=    0.00 CofMax=   10.00 Det=-5.72D-15
 Inversion failed.  Reducing to 18 matrices.
 Large coefficients: NSaved= 18 BigCof=    0.00 CofMax=   10.00 Det=-5.72D-15
 Inversion failed.  Reducing to 17 matrices.
 Large coefficients: NSaved= 17 BigCof=    0.00 CofMax=   10.00 Det=-5.72D-15
 Inversion failed.  Reducing to 16 matrices.
 Large coefficients: NSaved= 16 BigCof=    0.00 CofMax=   10.00 Det=-6.01D-15
 Inversion failed.  Reducing to 15 matrices.
 Coeff-Com:  0.305D-04-0.418D-04 0.365D-04-0.176D-05-0.124D-03 0.183D-03
 Coeff-Com:  0.702D-03-0.805D-03-0.317D-02 0.229D-02 0.204D-01-0.177D-01
 Coeff-Com: -0.150D+00 0.134D+00 0.101D+01
 Coeff:      0.305D-04-0.418D-04 0.365D-04-0.176D-05-0.124D-03 0.183D-03
 Coeff:      0.702D-03-0.805D-03-0.317D-02 0.229D-02 0.204D-01-0.177D-01
 Coeff:     -0.150D+00 0.134D+00 0.101D+01
 Gap=     0.044 Goal=   None    Shift=    0.000
 Gap=     0.032 Goal=   None    Shift=    0.000
 RMSDP=3.92D-08 MaxDP=5.22D-06 DE=-1.59D-11 OVMax= 5.61D-07

 Cycle  25  Pass 1  IDiag  1:
 E= -1136.09270790950     Delta-E=        0.000000000008 Rises=F Damp=F
 DIIS: error= 7.83D-10 at cycle  25 NSaved=  16.
 NSaved=16 IEnMin=15 EnMin= -1136.09270790950     IErMin=16 ErrMin= 7.83D-10
 ErrMax= 7.83D-10  0.00D+00 EMaxC= 1.00D-01 BMatC= 3.47D-16 BMatP= 2.15D-15
 IDIUse=1 WtCom= 1.00D+00 WtEn= 0.00D+00
 Large coefficients: NSaved= 16 BigCof=    0.00 CofMax=   10.00 Det=-8.99D-16
 Inversion failed.  Reducing to 15 matrices.
 Coeff-Com: -0.560D-05 0.305D-05-0.267D-04-0.709D-04 0.143D-03 0.343D-03
 Coeff-Com: -0.766D-03-0.786D-03 0.596D-03 0.379D-02 0.823D-02-0.335D-01
 Coeff-Com: -0.119D+00 0.648D-01 0.108D+01
 Coeff:     -0.560D-05 0.305D-05-0.267D-04-0.709D-04 0.143D-03 0.343D-03
 Coeff:     -0.766D-03-0.786D-03 0.596D-03 0.379D-02 0.823D-02-0.335D-01
 Coeff:     -0.119D+00 0.648D-01 0.108D+01
 Gap=     0.044 Goal=   None    Shift=    0.000
 Gap=     0.032 Goal=   None    Shift=    0.000
 RMSDP=2.14D-08 MaxDP=2.27D-06 DE= 7.73D-12 OVMax= 1.19D-07

 Cycle  26  Pass 1  IDiag  1:
 E= -1136.09270790950     Delta-E=       -0.000000000009 Rises=F Damp=F
 DIIS: error= 4.17D-10 at cycle  26 NSaved=  16.
 NSaved=16 IEnMin=16 EnMin= -1136.09270790950     IErMin=16 ErrMin= 4.17D-10
 ErrMax= 4.17D-10  0.00D+00 EMaxC= 1.00D-01 BMatC= 9.75D-17 BMatP= 3.47D-16
 IDIUse=1 WtCom= 1.00D+00 WtEn= 0.00D+00
 Large coefficients: NSaved= 16 BigCof=    0.00 CofMax=   10.00 Det=-2.19D-16
 Inversion failed.  Reducing to 15 matrices.
 Coeff-Com:  0.102D-04 0.121D-04-0.385D-04-0.137D-03 0.282D-03-0.366D-04
 Coeff-Com: -0.295D-03-0.561D-03 0.362D-03 0.736D-02 0.101D-02-0.722D-01
 Coeff-Com: -0.906D-01 0.323D+00 0.832D+00
 Coeff:      0.102D-04 0.121D-04-0.385D-04-0.137D-03 0.282D-03-0.366D-04
 Coeff:     -0.295D-03-0.561D-03 0.362D-03 0.736D-02 0.101D-02-0.722D-01
 Coeff:     -0.906D-01 0.323D+00 0.832D+00
 Gap=     0.044 Goal=   None    Shift=    0.000
 Gap=     0.032 Goal=   None    Shift=    0.000
 RMSDP=1.59D-08 MaxDP=1.11D-06 DE=-9.09D-12 OVMax= 1.57D-07

 Cycle  27  Pass 1  IDiag  1:
 E= -1136.09270790949     Delta-E=        0.000000000016 Rises=F Damp=F
 DIIS: error= 2.36D-10 at cycle  27 NSaved=  16.
 NSaved=16 IEnMin=15 EnMin= -1136.09270790950     IErMin=16 ErrMin= 2.36D-10
 ErrMax= 2.36D-10  0.00D+00 EMaxC= 1.00D-01 BMatC= 2.72D-17 BMatP= 9.75D-17
 IDIUse=1 WtCom= 1.00D+00 WtEn= 0.00D+00
 Large coefficients: NSaved= 16 BigCof=    0.00 CofMax=   10.00 Det=-8.94D-17
 Inversion failed.  Reducing to 15 matrices.
 Coeff-Com:  0.138D-04 0.885D-06-0.529D-04-0.948D-04 0.186D-03 0.436D-03
 Coeff-Com: -0.274D-03-0.279D-02 0.130D-02 0.180D-01-0.401D-02-0.839D-01
 Coeff-Com: -0.846D-01 0.319D+00 0.837D+00
 Coeff:      0.138D-04 0.885D-06-0.529D-04-0.948D-04 0.186D-03 0.436D-03
 Coeff:     -0.274D-03-0.279D-02 0.130D-02 0.180D-01-0.401D-02-0.839D-01
 Coeff:     -0.846D-01 0.319D+00 0.837D+00
 Gap=     0.044 Goal=   None    Shift=    0.000
 Gap=     0.032 Goal=   None    Shift=    0.000
 RMSDP=9.13D-09 MaxDP=8.37D-07 DE= 1.59D-11 OVMax= 4.03D-08

 SCF Done:  E(UB3LYP) =  -1136.09270791     A.U. after   27 cycles
            NFock= 27  Conv=0.91D-08     -V/T= 2.0025
 <Sx>= 0.0000 <Sy>= 0.0000 <Sz>= 0.5000 <S**2>= 0.7644 S= 0.5072
 <L.S>= 0.000000000000E+00
 KE= 1.133233143590D+03 PE=-3.442510846416D+03 EE= 8.165752489334D+02
 Annihilation of the first spin contaminant:
 S**2 before annihilation     0.7644,   after     0.7501
 Leave Link  502 at Mon Nov 13 12:17:11 2023, MaxMem=  1879048192 cpu:             266.7 elap:              22.8
 (Enter /home/sekinelabo/g16/l601.exe)
 Copying SCF densities to generalized density rwf, IOpCl= 1 IROHF=0.

 **********************************************************************

            Population analysis using the SCF Density.

 **********************************************************************

 Orbital symmetries:
 Alpha Orbitals:
       Occupied  (A) (A) (A) (A) (A) (A) (A) (A) (A) (A) (A) (A)
                 (A) (A) (A) (A) (A) (A) (A) (A) (A) (A) (A) (A)
                 (A) (A) (A) (A) (A) (A) (A) (A) (A) (A) (A) (A)
                 (A) (A) (A)
       Virtual   (A) (A) (A) (A) (A) (A) (A) (A) (A) (A) (A) (A)
                 (A) (A) (A) (A) (A) (A) (A) (A) (A) (A) (A) (A)
                 (A) (A) (A) (A) (A) (A) (A) (A) (A) (A) (A) (A)
                 (A) (A) (A) (A) (A) (A) (A) (A) (A) (A) (A) (A)
                 (A) (A) (A) (A) (A) (A) (A) (A) (A) (A) (A) (A)
                 (A) (A) (A) (A) (A) (A) (A) (A) (A) (A) (A) (A)
                 (A) (A) (A) (A) (A) (A) (A) (A) (A) (A) (A) (A)
                 (A) (A) (A) (A) (A) (A) (A) (A) (A) (A) (A) (A)
                 (A) (A) (A) (A) (A) (A) (A) (A) (A) (A) (A) (A)
                 (A) (A) (A) (A) (A) (A) (A) (A) (A) (A) (A) (A)
                 (A) (A) (A) (A) (A) (A) (A) (A) (A) (A) (A) (A)
                 (A) (A) (A) (A) (A) (A) (A) (A) (A) (A) (A) (A)
                 (A) (A) (A) (A) (A) (A) (A) (A) (A) (A) (A) (A)
                 (A) (A) (A) (A) (A) (A) (A) (A) (A) (A) (A) (A)
                 (A) (A) (A)
 Beta  Orbitals:
       Occupied  (A) (A) (A) (A) (A) (A) (A) (A) (A) (A) (A) (A)
                 (A) (A) (A) (A) (A) (A) (A) (A) (A) (A) (A) (A)
                 (A) (A) (A) (A) (A) (A) (A) (A) (A) (A) (A) (A)
                 (A) (A)
       Virtual   (A) (A) (A) (A) (A) (A) (A) (A) (A) (A) (A) (A)
                 (A) (A) (A) (A) (A) (A) (A) (A) (A) (A) (A) (A)
                 (A) (A) (A) (A) (A) (A) (A) (A) (A) (A) (A) (A)
                 (A) (A) (A) (A) (A) (A) (A) (A) (A) (A) (A) (A)
                 (A) (A) (A) (A) (A) (A) (A) (A) (A) (A) (A) (A)
                 (A) (A) (A) (A) (A) (A) (A) (A) (A) (A) (A) (A)
                 (A) (A) (A) (A) (A) (A) (A) (A) (A) (A) (A) (A)
                 (A) (A) (A) (A) (A) (A) (A) (A) (A) (A) (A) (A)
                 (A) (A) (A) (A) (A) (A) (A) (A) (A) (A) (A) (A)
                 (A) (A) (A) (A) (A) (A) (A) (A) (A) (A) (A) (A)
                 (A) (A) (A) (A) (A) (A) (A) (A) (A) (A) (A) (A)
                 (A) (A) (A) (A) (A) (A) (A) (A) (A) (A) (A) (A)
                 (A) (A) (A) (A) (A) (A) (A) (A) (A) (A) (A) (A)
                 (A) (A) (A) (A) (A) (A) (A) (A) (A) (A) (A) (A)
                 (A) (A) (A) (A)
 The electronic state is 2-A.
 Alpha  occ. eigenvalues --  -38.44801 -38.44703 -38.44549 -38.44246 -38.43463
 Alpha  occ. eigenvalues --  -38.43447 -38.43218  -2.20708  -2.20693  -2.20616
 Alpha  occ. eigenvalues --   -2.20332  -2.19444  -2.19376  -2.19272  -1.14536
 Alpha  occ. eigenvalues --   -1.14461  -1.14389  -1.14381  -1.14354  -1.14311
 Alpha  occ. eigenvalues --   -1.14288  -1.14202  -1.14149  -1.14054  -1.13937
 Alpha  occ. eigenvalues --   -1.13923  -1.13206  -1.13149  -1.13101  -1.13054
 Alpha  occ. eigenvalues --   -1.13035  -1.12943  -1.12912  -1.12907  -1.12846
 Alpha  occ. eigenvalues --   -0.20012  -0.14069  -0.12284  -0.11403
 Alpha virt. eigenvalues --   -0.06989  -0.04566  -0.04360  -0.03491  -0.02828
 Alpha virt. eigenvalues --   -0.02376  -0.01901  -0.01143  -0.00750  -0.00113
 Alpha virt. eigenvalues --    0.00258   0.00518   0.00556   0.00848   0.00919
 Alpha virt. eigenvalues --    0.00964   0.01048   0.01179   0.01342   0.01347
 Alpha virt. eigenvalues --    0.01445   0.01554   0.01766   0.01863   0.02025
 Alpha virt. eigenvalues --    0.02086   0.02482   0.02564   0.02704   0.02768
 Alpha virt. eigenvalues --    0.02838   0.02895   0.03005   0.03058   0.03213
 Alpha virt. eigenvalues --    0.03235   0.03360   0.03560   0.03607   0.03791
 Alpha virt. eigenvalues --    0.03957   0.04334   0.04379   0.04619   0.05086
 Alpha virt. eigenvalues --    0.05261   0.05363   0.05601   0.05693   0.06160
 Alpha virt. eigenvalues --    0.06396   0.06551   0.06686   0.07282   0.07918
 Alpha virt. eigenvalues --    0.08001   0.08206   0.08608   0.08673   0.09025
 Alpha virt. eigenvalues --    0.09218   0.09349   0.09728   0.10976   0.11814
 Alpha virt. eigenvalues --    0.12142   0.12466   0.12798   0.13001   0.13282
 Alpha virt. eigenvalues --    0.13503   0.14223   0.14632   0.14977   0.15220
 Alpha virt. eigenvalues --    0.15459   0.16210   0.16729   0.18311   0.19452
 Alpha virt. eigenvalues --    0.23025   0.26197   0.27044   0.28155   0.29280
 Alpha virt. eigenvalues --    0.29873   0.31398   0.33257   0.33880   0.34423
 Alpha virt. eigenvalues --    0.35598   0.36225   0.36933   0.37388   0.37894
 Alpha virt. eigenvalues --    0.38121   0.39539   0.40716   0.41015   0.41478
 Alpha virt. eigenvalues --    0.42527   0.43613   0.44002   0.44090   0.44695
 Alpha virt. eigenvalues --    0.44958   0.45066   0.45367   0.45742   0.46205
 Alpha virt. eigenvalues --    0.46615   0.47739   0.48109   0.48494   0.49526
 Alpha virt. eigenvalues --    0.50557   0.50991   0.51246   0.52289   0.52946
 Alpha virt. eigenvalues --    0.53788   0.54675   0.55909   0.56365   0.56687
 Alpha virt. eigenvalues --    0.65272   0.66108   0.67914   0.68499   0.70301
 Alpha virt. eigenvalues --    0.71136   0.73257   0.74625   0.77013   0.78631
 Alpha virt. eigenvalues --    0.83133   2.10158   2.13284   2.15421   2.22172
 Alpha virt. eigenvalues --    2.26198   2.29244   2.34996   4.39523   4.40513
 Alpha virt. eigenvalues --    4.41375   4.42480   4.43337   4.44371   4.44933
 Alpha virt. eigenvalues --    4.46184   4.46634   4.46858   4.47913   4.51300
 Alpha virt. eigenvalues --    4.56649   4.57467   4.61239   4.64658   4.70713
 Alpha virt. eigenvalues --    4.72121   4.74914   4.76147   4.81413  96.31054
 Alpha virt. eigenvalues --   96.35422  96.38597  96.47703  96.52837  96.57604
 Alpha virt. eigenvalues --   96.64210
  Beta  occ. eigenvalues --  -38.44798 -38.44625 -38.44491 -38.44193 -38.43449
  Beta  occ. eigenvalues --  -38.43429 -38.43194  -2.20687  -2.20568  -2.20515
  Beta  occ. eigenvalues --   -2.20238  -2.19416  -2.19340  -2.19247  -1.14470
  Beta  occ. eigenvalues --   -1.14411  -1.14360  -1.14312  -1.14284  -1.14277
  Beta  occ. eigenvalues --   -1.14201  -1.14145  -1.14056  -1.13988  -1.13875
  Beta  occ. eigenvalues --   -1.13842  -1.13188  -1.13125  -1.13058  -1.13029
  Beta  occ. eigenvalues --   -1.12966  -1.12922  -1.12894  -1.12888  -1.12827
  Beta  occ. eigenvalues --   -0.19211  -0.13894  -0.11221
  Beta virt. eigenvalues --   -0.07988  -0.06812  -0.04323  -0.03814  -0.02981
  Beta virt. eigenvalues --   -0.02409  -0.01759  -0.01715  -0.01037  -0.00366
  Beta virt. eigenvalues --   -0.00076   0.00309   0.00623   0.00712   0.00923
  Beta virt. eigenvalues --    0.00970   0.01003   0.01121   0.01290   0.01427
  Beta virt. eigenvalues --    0.01460   0.01499   0.01627   0.01839   0.02029
  Beta virt. eigenvalues --    0.02067   0.02100   0.02515   0.02667   0.02758
  Beta virt. eigenvalues --    0.02809   0.02886   0.02997   0.03060   0.03107
  Beta virt. eigenvalues --    0.03253   0.03294   0.03416   0.03596   0.03728
  Beta virt. eigenvalues --    0.03836   0.04084   0.04398   0.04553   0.04738
  Beta virt. eigenvalues --    0.05143   0.05398   0.05479   0.05714   0.05832
  Beta virt. eigenvalues --    0.06251   0.06548   0.06666   0.06836   0.07322
  Beta virt. eigenvalues --    0.07948   0.08142   0.08332   0.08662   0.08892
  Beta virt. eigenvalues --    0.09224   0.09354   0.09455   0.09945   0.11353
  Beta virt. eigenvalues --    0.11958   0.12385   0.12705   0.13014   0.13185
  Beta virt. eigenvalues --    0.13467   0.13684   0.14368   0.14845   0.15361
  Beta virt. eigenvalues --    0.15542   0.15743   0.16354   0.16988   0.18588
  Beta virt. eigenvalues --    0.19595   0.23434   0.26540   0.27458   0.28620
  Beta virt. eigenvalues --    0.29655   0.30222   0.31920   0.33461   0.34242
  Beta virt. eigenvalues --    0.34731   0.35717   0.36406   0.37148   0.37557
  Beta virt. eigenvalues --    0.38062   0.38451   0.39802   0.41128   0.41309
  Beta virt. eigenvalues --    0.41577   0.42652   0.43769   0.44087   0.44289
  Beta virt. eigenvalues --    0.44840   0.45073   0.45307   0.45526   0.45859
  Beta virt. eigenvalues --    0.46470   0.46803   0.47940   0.48308   0.48820
  Beta virt. eigenvalues --    0.49702   0.50742   0.51153   0.51495   0.52523
  Beta virt. eigenvalues --    0.53161   0.53969   0.54885   0.56033   0.56617
  Beta virt. eigenvalues --    0.56976   0.65412   0.66351   0.68116   0.68807
  Beta virt. eigenvalues --    0.70547   0.71414   0.73439   0.74799   0.77124
  Beta virt. eigenvalues --    0.78917   0.83178   2.10280   2.13338   2.15530
  Beta virt. eigenvalues --    2.22392   2.26377   2.29443   2.35060   4.39612
  Beta virt. eigenvalues --    4.40608   4.41430   4.42552   4.43404   4.44435
  Beta virt. eigenvalues --    4.44972   4.46219   4.46656   4.46906   4.47959
  Beta virt. eigenvalues --    4.51372   4.56705   4.57506   4.61335   4.64682
  Beta virt. eigenvalues --    4.70789   4.72216   4.74984   4.76192   4.81460
  Beta virt. eigenvalues --   96.31099  96.35442  96.38632  96.47768  96.52903
  Beta virt. eigenvalues --   96.57670  96.64239
          Condensed to atoms (all electrons):
               1          2          3          4          5          6
     1  Na  16.920273   0.461132  -1.834914   2.610096  -1.625032  -5.609154
     2  Na   0.461132  11.926142   0.275445  -2.261563  -0.181601   0.082909
     3  Na  -1.834914   0.275445  11.468006  -1.700649   0.387800   2.313349
     4  Na   2.610096  -2.261563  -1.700649  21.382233  -0.583608  -4.996249
     5  Na  -1.625032  -0.181601   0.387800  -0.583608  11.473000   1.103074
     6  Na  -5.609154   0.082909   2.313349  -4.996249   1.103074  21.044236
     7  Na  -0.401506   0.999204   0.308215  -5.185176   0.165704  -0.974743
               7
     1  Na  -0.401506
     2  Na   0.999204
     3  Na   0.308215
     4  Na  -5.185176
     5  Na   0.165704
     6  Na  -0.974743
     7  Na  16.080643
          Atomic-Atomic Spin Densities.
               1          2          3          4          5          6
     1  Na   0.003833  -0.059675   0.074533   0.149933  -0.110368   0.422331
     2  Na  -0.059675  -0.057579   0.005547   0.347830  -0.053359   0.234658
     3  Na   0.074533   0.005547  -0.024063   0.056759  -0.008971  -0.061494
     4  Na   0.149933   0.347830   0.056759  -0.117130  -0.076835  -0.392239
     5  Na  -0.110368  -0.053359  -0.008971  -0.076835   0.277878   0.136883
     6  Na   0.422331   0.234658  -0.061494  -0.392239   0.136883  -0.366200
     7  Na  -0.258591  -0.340882   0.002706   0.069259  -0.013411   0.555303
               7
     1  Na  -0.258591
     2  Na  -0.340882
     3  Na   0.002706
     4  Na   0.069259
     5  Na  -0.013411
     6  Na   0.555303
     7  Na  -0.076576
 Mulliken charges and spin densities:
               1          2
     1  Na   0.479105   0.221996
     2  Na  -0.301670   0.076541
     3  Na  -0.217251   0.045017
     4  Na   1.734917   0.037577
     5  Na   0.260662   0.151818
     6  Na  -1.963422   0.529242
     7  Na   0.007660  -0.062193
 Sum of Mulliken charges =  -0.00000   1.00000
 Mulliken charges and spin densities with hydrogens summed into heavy atoms:
               1          2
     1  Na   0.479105   0.221996
     2  Na  -0.301670   0.076541
     3  Na  -0.217251   0.045017
     4  Na   1.734917   0.037577
     5  Na   0.260662   0.151818
     6  Na  -1.963422   0.529242
     7  Na   0.007660  -0.062193
 Electronic spatial extent (au):  <R**2>=           2401.7255
 Charge=             -0.0000 electrons
 Dipole moment (field-independent basis, Debye):
    X=             -1.5027    Y=              1.0350    Z=              0.6254  Tot=              1.9289
 Quadrupole moment (field-independent basis, Debye-Ang):
   XX=            -55.0738   YY=            -72.3551   ZZ=            -67.7173
   XY=              5.3112   XZ=              2.4468   YZ=             -0.1454
 Traceless Quadrupole moment (field-independent basis, Debye-Ang):
   XX=              9.9749   YY=             -7.3064   ZZ=             -2.6686
   XY=              5.3112   XZ=              2.4468   YZ=             -0.1454
 Octapole moment (field-independent basis, Debye-Ang**2):
  XXX=            -45.2593  YYY=             19.9852  ZZZ=             15.0814  XYY=              1.9821
  XXY=            -13.6026  XXZ=             -4.5078  XZZ=             -3.3353  YZZ=              9.0773
  YYZ=              0.9193  XYZ=              4.6787
 Hexadecapole moment (field-independent basis, Debye-Ang**3):
 XXXX=          -1961.6941 YYYY=           -992.7901 ZZZZ=           -754.6526 XXXY=             29.8610
 XXXZ=              9.5195 YYYX=             58.6686 YYYZ=            -20.1034 ZZZX=             43.3433
 ZZZY=             18.1191 XXYY=           -557.2636 XXZZ=           -550.4772 YYZZ=           -297.3429
 XXYZ=             12.1628 YYXZ=             -2.7532 ZZXY=             24.8602
 N-N= 3.566097459833D+02 E-N=-3.442510846408D+03  KE= 1.133233143590D+03
                          Isotropic Fermi Contact Couplings
        Atom                 a.u.       MegaHertz       Gauss      10(-4) cm-1
     1  Na(23)             0.18824     222.68834      79.46074      74.28084
     2  Na(23)             0.02607      30.84721      11.00705      10.28952
     3  Na(23)             0.00213       2.51806       0.89851       0.83993
     4  Na(23)             0.19341     228.81119      81.64552      76.32320
     5  Na(23)             0.30897     365.52259     130.42755     121.92521
     6  Na(23)             0.01727      20.42657       7.28871       6.81357
     7  Na(23)             0.05584      66.06193      23.57254      22.03589
 --------------------------------------------------------
       Center         ----  Spin Dipole Couplings  ----
                      3XX-RR        3YY-RR        3ZZ-RR
 --------------------------------------------------------
     1   Atom       -0.004593     -0.014956      0.019549
     2   Atom       -0.014307     -0.010745      0.025053
     3   Atom       -0.005908     -0.005007      0.010916
     4   Atom        0.009432     -0.007422     -0.002011
     5   Atom        0.009763      0.008615     -0.018378
     6   Atom       -0.025591     -0.032873      0.058464
     7   Atom       -0.000047     -0.001069      0.001115
 --------------------------------------------------------
                        XY            XZ            YZ
 --------------------------------------------------------
     1   Atom        0.016468      0.028525      0.023187
     2   Atom        0.006173      0.010622      0.023312
     3   Atom        0.000564     -0.000822     -0.005630
     4   Atom        0.012838     -0.015751     -0.006127
     5   Atom        0.022072     -0.007776     -0.002479
     6   Atom       -0.001554     -0.011836     -0.024626
     7   Atom       -0.002172      0.004495     -0.002165
 --------------------------------------------------------


 ---------------------------------------------------------------------------------
              Anisotropic Spin Dipole Couplings in Principal Axis System
 ---------------------------------------------------------------------------------

       Atom             a.u.   MegaHertz   Gauss  10(-4) cm-1        Axes

              Baa    -0.0274    -3.874    -1.382    -1.292 -0.3886  0.8978 -0.2072
     1 Na(23) Bbb    -0.0233    -3.293    -1.175    -1.098  0.7667  0.1903 -0.6132
              Bcc     0.0508     7.167     2.557     2.391  0.5111  0.3971  0.7623
 
              Baa    -0.0224    -3.158    -1.127    -1.053 -0.1508  0.9001 -0.4087
     2 Na(23) Bbb    -0.0170    -2.398    -0.856    -0.800  0.9631  0.0406 -0.2659
              Bcc     0.0393     5.556     1.983     1.853  0.2228  0.4338  0.8731
 
              Baa    -0.0069    -0.972    -0.347    -0.324 -0.2961  0.9145  0.2756
     3 Na(23) Bbb    -0.0059    -0.829    -0.296    -0.276  0.9538  0.2677  0.1365
              Bcc     0.0128     1.801     0.643     0.601 -0.0511 -0.3032  0.9515
 
              Baa    -0.0153    -2.165    -0.773    -0.722 -0.6126  0.6728 -0.4148
     4 Na(23) Bbb    -0.0110    -1.552    -0.554    -0.518  0.1838  0.6317  0.7532
              Bcc     0.0263     3.718     1.327     1.240  0.7687  0.3852 -0.5106
 
              Baa    -0.0210    -2.970    -1.060    -0.991  0.3737 -0.2025  0.9052
     5 Na(23) Bbb    -0.0113    -1.595    -0.569    -0.532 -0.5886  0.7025  0.4001
              Bcc     0.0323     4.565     1.629     1.523  0.7169  0.6823 -0.1433
 
              Baa    -0.0405    -5.719    -2.041    -1.908  0.3051  0.9150  0.2642
     6 Na(23) Bbb    -0.0255    -3.605    -1.286    -1.202  0.9447 -0.3258  0.0376
              Bcc     0.0660     9.324     3.327     3.110 -0.1205 -0.2381  0.9637
 
              Baa    -0.0040    -0.568    -0.203    -0.189  0.7697  0.1045 -0.6298
     7 Na(23) Bbb    -0.0023    -0.327    -0.117    -0.109  0.1687  0.9181  0.3585
              Bcc     0.0063     0.894     0.319     0.298  0.6157 -0.3822  0.6891
 

 ---------------------------------------------------------------------------------

 No NMR shielding tensors so no spin-rotation constants.
 Leave Link  601 at Mon Nov 13 12:17:11 2023, MaxMem=  1879048192 cpu:               3.0 elap:               0.2
 (Enter /home/sekinelabo/g16/l701.exe)
 ... and contract with generalized density number  0.
 Compute integral first derivatives.
 Leave Link  701 at Mon Nov 13 12:17:12 2023, MaxMem=  1879048192 cpu:               2.5 elap:               0.2
 (Enter /home/sekinelabo/g16/l702.exe)
 L702 exits ... SP integral derivatives will be done elsewhere.
 Leave Link  702 at Mon Nov 13 12:17:12 2023, MaxMem=  1879048192 cpu:               0.4 elap:               0.0
 (Enter /home/sekinelabo/g16/l703.exe)
 Integral derivatives from FoFJK, PRISM(SPDF).
 Compute integral first derivatives, UseDBF=F ICtDFT=           0.
 Calling FoFJK, ICntrl=      2127 FMM=F ISym2X=0 I1Cent= 0 IOpClX= 1 NMat=1 NMatS=1 NMatT=0.
 FoFJK:  IHMeth= 1 ICntrl=    2127 DoSepK=F KAlg= 0 I1Cent=           0 FoldK=F
 IRaf=         0 NMat=       1 IRICut=       1 DoRegI=T DoRafI=F ISym2E= 0 IDoP0=0 IntGTp=1.
 FoFCou: FMM=F IPFlag=           0 FMFlag=      100000 FMFlg1=         800
         NFxFlg=           0 DoJE=F BraDBF=F KetDBF=F FulRan=T
         wScrn=  0.000000 ICntrl=      2127 IOpCl=  1 I1Cent=           0 NGrid=           0
         NMat0=    1 NMatS0=      1 NMatT0=    0 NMatD0=    1 NMtDS0=    0 NMtDT0=    0
 Symmetry not used in FoFCou.
 Leave Link  703 at Mon Nov 13 12:17:14 2023, MaxMem=  1879048192 cpu:              35.7 elap:               2.3
 (Enter /home/sekinelabo/g16/l716.exe)
 Dipole        =-5.91218555D-01 4.07209190D-01 2.46034744D-01
 ***** Axes restored to original set *****
 -------------------------------------------------------------------
 Center     Atomic                   Forces (Hartrees/Bohr)
 Number     Number              X              Y              Z
 -------------------------------------------------------------------
      1       11           0.003780663    0.009121201    0.009862813
      2       11          -0.001857133   -0.014845566   -0.003676760
      3       11           0.009074309    0.003792939   -0.000664818
      4       11           0.006325373   -0.005911049   -0.010315209
      5       11          -0.004238359   -0.004518509    0.011346436
      6       11          -0.010718938    0.010092064   -0.007342036
      7       11          -0.002365915    0.002268920    0.000789576
 -------------------------------------------------------------------
 Cartesian Forces:  Max     0.014845566 RMS     0.007431564
 Z-matrix is all fixed cartesians, so copy forces.
 Force constants in Cartesian coordinates: 
                1             2             3             4             5 
      1  0.115154D+00
      2  0.183946D-01  0.104898D+00
      3 -0.110286D-01  0.325497D-01  0.117293D+00
      4  0.301021D-02 -0.876270D-02 -0.485002D-02  0.535766D-01
      5 -0.229828D-02 -0.590124D-02 -0.358065D-02  0.171538D-01  0.992738D-01
      6 -0.406145D-02 -0.835552D-02  0.526836D-02 -0.488040D-02  0.157869D-01
      7 -0.342018D-01 -0.658201D-02  0.614917D-03 -0.310171D-03 -0.212481D-03
      8  0.106177D-01 -0.192466D-01 -0.104733D-01 -0.204604D-02  0.595768D-03
      9  0.248867D-01 -0.254432D-02 -0.252874D-01  0.291291D-02 -0.190633D-03
     10 -0.196333D-01 -0.723605D-02  0.100903D-02 -0.257969D-01 -0.254160D-02
     11 -0.116290D-02 -0.245012D-01 -0.169573D-01 -0.261662D-01 -0.260212D-01
     12  0.105546D-01 -0.133499D-01 -0.389879D-01  0.174062D-03 -0.791112D-02
     13 -0.247282D-01 -0.108342D-01  0.203266D-01 -0.873202D-02 -0.736293D-02
     14 -0.127091D-01 -0.349793D-01  0.119494D-01 -0.208245D-02 -0.211472D-01
     15 -0.322051D-02 -0.131551D-01 -0.215398D-01  0.764196D-02  0.319623D-02
     16 -0.389597D-01  0.137045D-01 -0.656828D-02 -0.241808D-01 -0.520091D-02
     17 -0.107092D-01 -0.244867D-01 -0.151882D-01  0.143012D-01 -0.482445D-01
     18 -0.132783D-01  0.161200D-02 -0.412207D-01 -0.123983D-02 -0.733500D-02
     19 -0.641613D-03  0.131589D-02  0.496347D-03  0.243306D-02  0.462431D-03
     20 -0.213284D-02  0.421685D-02  0.170044D-02  0.760245D-02  0.144454D-02
     21 -0.385249D-02  0.324319D-02  0.447425D-02  0.241324D-03  0.342785D-04
                6             7             8             9            10 
      6  0.651114D-01
      7 -0.127377D-02  0.690628D-01
      8 -0.353477D-02  0.126048D-01  0.280448D-01
      9  0.683495D-02 -0.516372D-02  0.120684D-01  0.379322D-01
     10  0.126802D-01 -0.298539D-01 -0.176526D-01 -0.204695D-01  0.117864D+00
     11  0.140975D-01 -0.296077D-02 -0.209407D-01 -0.122115D-01  0.182475D-01
     12 -0.296030D-01  0.509399D-02 -0.408441D-02 -0.286893D-01 -0.155043D-01
     13  0.218779D-02 -0.210251D-03 -0.495579D-02  0.251805D-03  0.339722D-03
     14 -0.282685D-01  0.387083D-03  0.620671D-02  0.468936D-04  0.215609D-02
     15 -0.356381D-01  0.381142D-03  0.283045D-02  0.519002D-03  0.488913D-02
     16 -0.478270D-02 -0.448398D-02  0.134041D-02 -0.234312D-02 -0.434551D-01
     17  0.981965D-02 -0.322815D-02  0.505828D-02  0.306373D-02  0.525997D-02
     18 -0.133913D-01  0.341769D-03  0.330498D-02  0.863838D-02  0.145524D-01
     19  0.130336D-03 -0.276909D-05  0.914883D-04 -0.750865D-04  0.535226D-03
     20  0.454728D-03 -0.845158D-05  0.281798D-03 -0.232603D-03  0.176667D-02
     21  0.141777D-02  0.566839D-05 -0.111360D-03  0.521973D-04  0.284309D-02
               11            12            13            14            15 
     11  0.935995D-01
     12  0.240313D-01  0.131918D+00
     13 -0.145157D-02  0.119655D-01  0.536437D-01
     14  0.771090D-02  0.898017D-03  0.123563D-01  0.641711D-01
     15  0.506795D-02 -0.641170D-02 -0.172403D-01 -0.733528D-02  0.100621D+00
     16  0.122518D-01 -0.125027D-01 -0.215366D-01 -0.211121D-03  0.766941D-02
     17 -0.337223D-01 -0.565321D-03  0.865523D-02 -0.223446D-01  0.970521D-02
     18 -0.139757D-01 -0.370545D-01 -0.107826D-01  0.209232D-01 -0.395518D-01
     19  0.124207D-02  0.218856D-03  0.122373D-02  0.103156D-03 -0.120807D-03
     20  0.387510D-02  0.981455D-03  0.359289D-02  0.382340D-03 -0.309428D-03
     21 -0.522247D-04  0.882859D-02 -0.670882D-02  0.178625D-02  0.200179D-02
               16            17            18            19            20 
     16  0.171409D+00
     17 -0.167153D-01  0.153403D+00
     18  0.116156D-01 -0.719575D-03  0.160705D+00
     19 -0.387923D-01  0.243629D-02 -0.120911D-02  0.352446D-01
     20 -0.516939D-02 -0.296635D-01 -0.380993D-02 -0.565133D-02  0.194629D-01
     21  0.691176D-02 -0.611547D-02 -0.381249D-01  0.559465D-03  0.121533D-02
               21 
     21  0.213503D-01
 Leave Link  716 at Mon Nov 13 12:17:14 2023, MaxMem=  1879048192 cpu:               0.7 elap:               0.0
 (Enter /home/sekinelabo/g16/l103.exe)

 GradGradGradGradGradGradGradGradGradGradGradGradGradGradGradGradGradGrad
 Berny optimization.
 Search for a local minimum.
 Step number   1 out of a maximum of    2
 All quantities printed in internal units (Hartrees-Bohrs-Radians)
 Second derivative matrix not updated -- first step.
 ITU=  0
     Eigenvalues ---    0.01903   0.03531   0.04264   0.04993   0.05330
     Eigenvalues ---    0.08121   0.10935   0.11835   0.14098   0.14377
     Eigenvalues ---    0.17992   0.18422   0.20424   0.21740   0.22887
 Quadratic step=3.945D-01 exceeds max=3.000D-01 adjusted using Lamda=-1.755D-02.
 Angle between NR and scaled steps=   7.58 degrees.
 Angle between quadratic step and forces=  27.65 degrees.
 Linear search not attempted -- first point.
 B after Tr=    -0.000000    0.000000    0.000000
         Rot=    1.000000    0.000000    0.000000    0.000000 Ang=   0.00 deg.
 Variable       Old X    -DE/DX   Delta X   Delta X   Delta X     New X
                                 (Linear)    (Quad)   (Total)
    X1        9.96679   0.00378   0.00000   0.03603   0.03603  10.00283
    Y1        6.58893   0.00912   0.00000   0.05387   0.05387   6.64281
    Z1        4.83701   0.00986   0.00000   0.05412   0.05412   4.89113
    X2        6.46097  -0.00186   0.00000  -0.02529  -0.02529   6.43568
    Y2        0.00000  -0.01485   0.00000  -0.13610  -0.13610  -0.13610
    Z2        1.60115  -0.00368   0.00000  -0.02344  -0.02344   1.57770
    X3       14.97658   0.00907   0.00000   0.13138   0.13138  15.10796
    Y3        6.31633   0.00379   0.00000   0.07308   0.07308   6.38941
    Z3        2.20841  -0.00066   0.00000  -0.01913  -0.01913   2.18928
    X4       10.48037   0.00633   0.00000   0.06221   0.06221  10.54258
    Y4        3.66708  -0.00591   0.00000  -0.04086  -0.04086   3.62623
    Z4        0.00000  -0.01032   0.00000  -0.06173  -0.06173  -0.06173
    X5        6.11772  -0.00424   0.00000  -0.05683  -0.05683   6.06089
    Y5        2.78246  -0.00452   0.00000  -0.04931  -0.04931   2.73316
    Z5        6.53379   0.01135   0.00000   0.08572   0.08572   6.61951
    X6        5.40067  -0.01072   0.00000  -0.06428  -0.06428   5.33639
    Y6        5.56578   0.01009   0.00000   0.02779   0.02779   5.59356
    Z6        1.64706  -0.00734   0.00000  -0.03042  -0.03042   1.61664
    X7        0.00000  -0.00237   0.00000  -0.08322  -0.08322  -0.08322
    Y7        7.29605   0.00227   0.00000   0.07153   0.07153   7.36758
    Z7        1.58859   0.00079   0.00000  -0.00511  -0.00511   1.58348
         Item               Value     Threshold  Converged?
 Maximum Force            0.014846     0.000450     NO 
 RMS     Force            0.007432     0.000300     NO 
 Maximum Displacement     0.136102     0.001800     NO 
 RMS     Displacement     0.065489     0.001200     NO 
 Predicted change in Energy=-5.316923D-03
 GradGradGradGradGradGradGradGradGradGradGradGradGradGradGradGradGradGrad

 Leave Link  103 at Mon Nov 13 12:17:14 2023, MaxMem=  1879048192 cpu:               1.3 elap:               0.1
 (Enter /home/sekinelabo/g16/l9999.exe)
 1\1\GINC-SEKINELABO-XA7R-R37\Force\UB3LYP\6-311+G(d)\Na7(2)\SEKINELABO
 \13-Nov-2023\0\\#P B3LYP/6-311+g(d) force\\Gaussian input prepared by 
 ASE\\0,2\Na,5.2742002741,3.4867139804,2.5596365283\Na,3.4189974676,0.,
 0.8472913587\Na,7.9252633317,3.3424563126,1.1686391483\Na,5.5459742613
 ,1.9405376753,0.\Na,3.2373559396,1.4724168862,3.457533097\Na,2.8579125
 345,2.9452829317,0.8715854448\Na,0.,3.8609030229,0.8406441526\\Version
 =ES64L-G16RevB.01\State=2-A\HF=-1136.0927079\S2=0.764411\S2-1=0.\S2A=0
 .750099\RMSD=9.133e-09\RMSF=7.432e-03\Dipole=0.5912186,-0.4072092,0.24
 60347\Quadrupole=7.4161284,-5.4320939,-1.9840346,3.9487347,-1.8191041,
 0.1080998\PG=C01 [X(Na7)]\\@


 WHEN YOU'VE SEEN ONE NUCLEAR WAR YOU'VE SEEN THEM ALL.
 Job cpu time:       0 days  0 hours  5 minutes 22.5 seconds.
 Elapsed time:       0 days  0 hours  0 minutes 26.4 seconds.
 File lengths (MBytes):  RWF=     32 Int=      0 D2E=      0 Chk=      5 Scr=      1
 Normal termination of Gaussian 16 at Mon Nov 13 12:17:14 2023.
