 Entering Gaussian System, Link 0=g16
 Initial command:
 /home/sekinelabo/g16/l1.exe "/home/sekinelabo/g16temp/Gau-3988483.inp" -scrdir="/home/sekinelabo/g16temp/"
 Entering Link 1 = /home/sekinelabo/g16/l1.exe PID=   3988485.
  
 Copyright (c) 1988-2017, Gaussian, Inc.  All Rights Reserved.
  
 This is part of the Gaussian(R) 16 program.  It is based on
 the Gaussian(R) 09 system (copyright 2009, Gaussian, Inc.),
 the Gaussian(R) 03 system (copyright 2003, Gaussian, Inc.),
 the Gaussian(R) 98 system (copyright 1998, Gaussian, Inc.),
 the Gaussian(R) 94 system (copyright 1995, Gaussian, Inc.),
 the Gaussian 92(TM) system (copyright 1992, Gaussian, Inc.),
 the Gaussian 90(TM) system (copyright 1990, Gaussian, Inc.),
 the Gaussian 88(TM) system (copyright 1988, Gaussian, Inc.),
 the Gaussian 86(TM) system (copyright 1986, Carnegie Mellon
 University), and the Gaussian 82(TM) system (copyright 1983,
 Carnegie Mellon University). Gaussian is a federally registered
 trademark of Gaussian, Inc.
  
 This software contains proprietary and confidential information,
 including trade secrets, belonging to Gaussian, Inc.
  
 This software is provided under written license and may be
 used, copied, transmitted, or stored only in accord with that
 written license.
  
 The following legend is applicable only to US Government
 contracts under FAR:
  
                    RESTRICTED RIGHTS LEGEND
  
 Use, reproduction and disclosure by the US Government is
 subject to restrictions as set forth in subparagraphs (a)
 and (c) of the Commercial Computer Software - Restricted
 Rights clause in FAR 52.227-19.
  
 Gaussian, Inc.
 340 Quinnipiac St., Bldg. 40, Wallingford CT 06492
  
  
 ---------------------------------------------------------------
 Warning -- This program may not be used in any manner that
 competes with the business of Gaussian, Inc. or will provide
 assistance to any competitor of Gaussian, Inc.  The licensee
 of this program is prohibited from giving any competitor of
 Gaussian, Inc. access to this program.  By using this program,
 the user acknowledges that Gaussian, Inc. is engaged in the
 business of creating and licensing software in the field of
 computational chemistry and represents and warrants to the
 licensee that it is not a competitor of Gaussian, Inc. and that
 it will not use this program in any manner prohibited above.
 ---------------------------------------------------------------
  

 Cite this work as:
 Gaussian 16, Revision B.01,
 M. J. Frisch, G. W. Trucks, H. B. Schlegel, G. E. Scuseria, 
 M. A. Robb, J. R. Cheeseman, G. Scalmani, V. Barone, 
 G. A. Petersson, H. Nakatsuji, X. Li, M. Caricato, A. V. Marenich, 
 J. Bloino, B. G. Janesko, R. Gomperts, B. Mennucci, H. P. Hratchian, 
 J. V. Ortiz, A. F. Izmaylov, J. L. Sonnenberg, D. Williams-Young, 
 F. Ding, F. Lipparini, F. Egidi, J. Goings, B. Peng, A. Petrone, 
 T. Henderson, D. Ranasinghe, V. G. Zakrzewski, J. Gao, N. Rega, 
 G. Zheng, W. Liang, M. Hada, M. Ehara, K. Toyota, R. Fukuda, 
 J. Hasegawa, M. Ishida, T. Nakajima, Y. Honda, O. Kitao, H. Nakai, 
 T. Vreven, K. Throssell, J. A. Montgomery, Jr., J. E. Peralta, 
 F. Ogliaro, M. J. Bearpark, J. J. Heyd, E. N. Brothers, K. N. Kudin, 
 V. N. Staroverov, T. A. Keith, R. Kobayashi, J. Normand, 
 K. Raghavachari, A. P. Rendell, J. C. Burant, S. S. Iyengar, 
 J. Tomasi, M. Cossi, J. M. Millam, M. Klene, C. Adamo, R. Cammi, 
 J. W. Ochterski, R. L. Martin, K. Morokuma, O. Farkas, 
 J. B. Foresman, and D. J. Fox, Gaussian, Inc., Wallingford CT, 2016.
 
 ******************************************
 Gaussian 16:  ES64L-G16RevB.01 20-Dec-2017
                13-Nov-2023 
 ******************************************
 %mem=14GB
 %chk=checkpoint.chk
 %nprocshared=16
 Will use up to   16 processors via shared memory.
 -------------------------
 #P B3LYP/6-311+g(d) force
 -------------------------
 1/10=7,30=1,38=1/1,3;
 2/12=2,17=6,18=5,40=1/2;
 3/5=4,6=6,7=11,11=2,25=1,30=1,71=1,74=-5/1,2,3;
 4//1;
 5/5=2,38=5/2;
 6/7=2,8=2,9=2,10=2,28=1/1;
 7/29=1/1,2,3,16;
 1/10=7,30=1/3;
 99//99;
 Leave Link    1 at Mon Nov 13 12:29:45 2023, MaxMem=  1879048192 cpu:               0.3 elap:               0.0
 (Enter /home/sekinelabo/g16/l101.exe)
 ------------------------------
 Gaussian input prepared by ASE
 ------------------------------
 Symbolic Z-matrix:
 Charge =  0 Multiplicity = 2
 Na                    0.01213   0.31425   1.96871 
 Na                    1.80833   1.56198   0. 
 Na                    4.68345   1.58058   1.96604 
 Na                    1.79953   1.58339   3.93421 
 Na                    2.50658   3.14799   1.96058 
 Na                    0.        2.82474   1.9561 
 Na                    2.5195    0.        1.97729 
 
 ITRead=  0  0  0  0  0  0  0
 MicOpt= -1 -1 -1 -1 -1 -1 -1
 NAtoms=      7 NQM=        7 NQMF=       0 NMMI=      0 NMMIF=      0
                NMic=       0 NMicF=      0.
                    Isotopes and Nuclear Properties:
 (Nuclear quadrupole moments (NQMom) in fm**2, nuclear magnetic moments (NMagM)
  in nuclear magnetons)

  Atom         1           2           3           4           5           6           7
 IAtWgt=          23          23          23          23          23          23          23
 AtmWgt=  22.9897697  22.9897697  22.9897697  22.9897697  22.9897697  22.9897697  22.9897697
 NucSpn=           3           3           3           3           3           3           3
 AtZEff=  -0.0000000  -0.0000000  -0.0000000  -0.0000000  -0.0000000  -0.0000000  -0.0000000
 NQMom=   10.4000000  10.4000000  10.4000000  10.4000000  10.4000000  10.4000000  10.4000000
 NMagM=    2.2175200   2.2175200   2.2175200   2.2175200   2.2175200   2.2175200   2.2175200
 AtZNuc=  11.0000000  11.0000000  11.0000000  11.0000000  11.0000000  11.0000000  11.0000000
 Leave Link  101 at Mon Nov 13 12:29:46 2023, MaxMem=  1879048192 cpu:               2.6 elap:               0.2
 (Enter /home/sekinelabo/g16/l103.exe)

 GradGradGradGradGradGradGradGradGradGradGradGradGradGradGradGradGradGrad
 Berny optimization.
 Initialization pass.
 Trust Radius=3.00D-01 FncErr=1.00D-07 GrdErr=1.00D-07 EigMax=2.50D+02 EigMin=1.00D-04
 Number of steps in this run=      2 maximum allowed number of steps=      2.
 GradGradGradGradGradGradGradGradGradGradGradGradGradGradGradGradGradGrad

 Leave Link  103 at Mon Nov 13 12:29:46 2023, MaxMem=  1879048192 cpu:               0.2 elap:               0.0
 (Enter /home/sekinelabo/g16/l202.exe)
                          Input orientation:                          
 ---------------------------------------------------------------------
 Center     Atomic      Atomic             Coordinates (Angstroms)
 Number     Number       Type             X           Y           Z
 ---------------------------------------------------------------------
      1         11           0        0.012133    0.314250    1.968713
      2         11           0        1.808331    1.561984    0.000000
      3         11           0        4.683446    1.580582    1.966044
      4         11           0        1.799534    1.583394    3.934215
      5         11           0        2.506581    3.147994    1.960577
      6         11           0        0.000000    2.824738    1.956097
      7         11           0        2.519500    0.000000    1.977292
 ---------------------------------------------------------------------
                    Distance matrix (angstroms):
                    1          2          3          4          5
     1  Na   0.000000
     2  Na   2.942618   0.000000
     3  Na   4.839915   3.483097   0.000000
     4  Na   2.944270   3.934283   3.491512   0.000000
     5  Na   3.775241   2.616647   2.682453   2.615939   0.000000
     6  Na   2.510549   2.948037   4.845895   2.948255   2.527343
     7  Na   2.526998   2.618251   2.679744   2.618212   3.148065
                    6          7
     6  Na   0.000000
     7  Na   3.785165   0.000000
 Stoichiometry    Na7(2)
 Framework group  C1[X(Na7)]
 Deg. of freedom    15
 Full point group                 C1      NOp   1
 Largest Abelian subgroup         C1      NOp   1
 Largest concise Abelian subgroup C1      NOp   1
                         Standard orientation:                         
 ---------------------------------------------------------------------
 Center     Atomic      Atomic             Coordinates (Angstroms)
 Number     Number       Type             X           Y           Z
 ---------------------------------------------------------------------
      1         11           0        1.892085    1.259028    0.002579
      2         11           0        0.095887    0.011294   -1.966134
      3         11           0       -2.779229   -0.007304   -0.000090
      4         11           0        0.104684   -0.010116    1.968081
      5         11           0       -0.602363   -1.574717   -0.005557
      6         11           0        1.904218   -1.251461   -0.010037
      7         11           0       -0.615282    1.573277    0.011158
 ---------------------------------------------------------------------
 Rotational constants (GHZ):           1.3872929           0.9381922           0.9237148
 Leave Link  202 at Mon Nov 13 12:29:46 2023, MaxMem=  1879048192 cpu:               0.0 elap:               0.0
 (Enter /home/sekinelabo/g16/l301.exe)
 Standard basis: 6-311+G(d) (5D, 7F)
 Ernie: Thresh=  0.10000D-02 Tol=  0.10000D-05 Strict=F.
 There are   217 symmetry adapted cartesian basis functions of A   symmetry.
 There are   210 symmetry adapted basis functions of A   symmetry.
   210 basis functions,   350 primitive gaussians,   217 cartesian basis functions
    39 alpha electrons       38 beta electrons
       nuclear repulsion energy       442.4026022385 Hartrees.
 IExCor=  402 DFT=T Ex+Corr=B3LYP ExCW=0 ScaHFX=  0.200000
 ScaDFX=  0.800000  0.720000  1.000000  0.810000 ScalE2=  1.000000  1.000000
 IRadAn=      5 IRanWt=     -1 IRanGd=            0 ICorTp=0 IEmpDi=  4
 NAtoms=    7 NActive=    7 NUniq=    7 SFac= 1.00D+00 NAtFMM=   60 NAOKFM=F Big=F
 Integral buffers will be    131072 words long.
 Raffenetti 2 integral format.
 Two-electron integral symmetry is turned on.
 Leave Link  301 at Mon Nov 13 12:29:46 2023, MaxMem=  1879048192 cpu:               0.5 elap:               0.0
 (Enter /home/sekinelabo/g16/l302.exe)
 NPDir=0 NMtPBC=     1 NCelOv=     1 NCel=       1 NClECP=     1 NCelD=      1
         NCelK=      1 NCelE2=     1 NClLst=     1 CellRange=     0.0.
 One-electron integrals computed using PRISM.
 One-electron integral symmetry used in STVInt
 NBasis=   210 RedAO= T EigKep=  3.51D-06  NBF=   210
 NBsUse=   208 1.00D-06 EigRej=  9.01D-07 NBFU=   208
 Precomputing XC quadrature grid using
 IXCGrd= 4 IRadAn=           5 IRanWt=          -1 IRanGd=           0 AccXCQ= 0.00D+00.
 Generated NRdTot=       0 NPtTot=           0 NUsed=           0 NTot=          32
 NSgBfM=   210   210   210   210   210 MxSgAt=     7 MxSgA2=     7.
 Leave Link  302 at Mon Nov 13 12:29:46 2023, MaxMem=  1879048192 cpu:               2.6 elap:               0.2
 (Enter /home/sekinelabo/g16/l303.exe)
 DipDrv:  MaxL=1.
 Leave Link  303 at Mon Nov 13 12:29:46 2023, MaxMem=  1879048192 cpu:               0.6 elap:               0.0
 (Enter /home/sekinelabo/g16/l401.exe)
 ExpMin= 7.60D-03 ExpMax= 3.62D+04 ExpMxC= 1.21D+03 IAcc=3 IRadAn=         5 AccDes= 0.00D+00
 Harris functional with IExCor=  402 and IRadAn=       5 diagonalized for initial guess.
 HarFok:  IExCor=  402 AccDes= 0.00D+00 IRadAn=         5 IDoV= 1 UseB2=F ITyADJ=14
 ICtDFT=  3500011 ScaDFX=  1.000000  1.000000  1.000000  1.000000
 FoFCou: FMM=F IPFlag=           0 FMFlag=      100000 FMFlg1=           0
         NFxFlg=           0 DoJE=T BraDBF=F KetDBF=T FulRan=T
         wScrn=  0.000000 ICntrl=       500 IOpCl=  0 I1Cent=   200000004 NGrid=           0
         NMat0=    1 NMatS0=      1 NMatT0=    0 NMatD0=    1 NMtDS0=    0 NMtDT0=    0
 Petite list used in FoFCou.
 Harris En= -1135.79487523528    
 JPrj=0 DoOrth=F DoCkMO=F.
 Initial guess <Sx>= 0.0000 <Sy>= 0.0000 <Sz>= 0.5000 <S**2>= 0.7500 S= 0.5000
 Leave Link  401 at Mon Nov 13 12:29:46 2023, MaxMem=  1879048192 cpu:               4.7 elap:               0.3
 (Enter /home/sekinelabo/g16/l502.exe)
 Keep R1 and R2 ints in memory in canonical form, NReq=507620388.
 FoFCou: FMM=F IPFlag=           0 FMFlag=           0 FMFlg1=           0
         NFxFlg=           0 DoJE=F BraDBF=F KetDBF=F FulRan=T
         wScrn=  0.000000 ICntrl=       600 IOpCl=  0 I1Cent=           0 NGrid=           0
         NMat0=    1 NMatS0=  22155 NMatT0=    0 NMatD0=    1 NMtDS0=    0 NMtDT0=    0
 Symmetry not used in FoFCou.
 Two-electron integral symmetry not used.
 UHF open shell SCF:
 Using DIIS extrapolation, IDIIS=  1040.
 NGot=  1879048192 LenX=  1388082348 LenY=  1388034818
 Requested convergence on RMS density matrix=1.00D-08 within 128 cycles.
 Requested convergence on MAX density matrix=1.00D-06.
 Requested convergence on             energy=1.00D-06.
 No special actions if energy rises.

 Cycle   1  Pass 1  IDiag  1:
 E= -1135.96724354467    
 DIIS: error= 1.78D-02 at cycle   1 NSaved=   1.
 NSaved= 1 IEnMin= 1 EnMin= -1135.96724354467     IErMin= 1 ErrMin= 1.78D-02
 ErrMax= 1.78D-02  0.00D+00 EMaxC= 1.00D-01 BMatC= 2.28D-01 BMatP= 2.28D-01
 IDIUse=3 WtCom= 8.22D-01 WtEn= 1.78D-01
 Coeff-Com:  0.100D+01
 Coeff-En:   0.100D+01
 Coeff:      0.100D+01
 Gap=     0.078 Goal=   None    Shift=    0.000
 Gap=     0.022 Goal=   None    Shift=    0.000
 GapD=    0.022 DampG=0.250 DampE=0.500 DampFc=0.2500 IDamp=-1.
 Damping current iteration by 2.50D-01
 RMSDP=1.34D-01 MaxDP=8.42D+00              OVMax= 2.74D-01

 Cycle   2  Pass 1  IDiag  1:
 E= -1135.98533504903     Delta-E=       -0.018091504361 Rises=F Damp=T
 DIIS: error= 8.80D-03 at cycle   2 NSaved=   2.
 NSaved= 2 IEnMin= 2 EnMin= -1135.98533504903     IErMin= 2 ErrMin= 8.80D-03
 ErrMax= 8.80D-03  0.00D+00 EMaxC= 1.00D-01 BMatC= 8.52D-02 BMatP= 2.28D-01
 IDIUse=3 WtCom= 9.12D-01 WtEn= 8.80D-02
 Coeff-Com: -0.126D+01 0.226D+01
 Coeff-En:   0.000D+00 0.100D+01
 Coeff:     -0.115D+01 0.215D+01
 Gap=     0.072 Goal=   None    Shift=    0.000
 Gap=     0.028 Goal=   None    Shift=    0.000
 RMSDP=4.82D-02 MaxDP=2.90D+00 DE=-1.81D-02 OVMax= 1.80D-01

 Cycle   3  Pass 1  IDiag  1:
 E= -1136.01586523651     Delta-E=       -0.030530187476 Rises=F Damp=F
 DIIS: error= 4.21D-03 at cycle   3 NSaved=   3.
 NSaved= 3 IEnMin= 3 EnMin= -1136.01586523651     IErMin= 3 ErrMin= 4.21D-03
 ErrMax= 4.21D-03  0.00D+00 EMaxC= 1.00D-01 BMatC= 4.86D-03 BMatP= 8.52D-02
 IDIUse=3 WtCom= 9.58D-01 WtEn= 4.21D-02
 Coeff-Com: -0.265D+00 0.495D+00 0.770D+00
 Coeff-En:   0.000D+00 0.000D+00 0.100D+01
 Coeff:     -0.254D+00 0.474D+00 0.780D+00
 Gap=     0.067 Goal=   None    Shift=    0.000
 Gap=     0.027 Goal=   None    Shift=    0.000
 RMSDP=2.86D-02 MaxDP=1.87D+00 DE=-3.05D-02 OVMax= 5.33D-02

 Cycle   4  Pass 1  IDiag  1:
 E= -1136.01660036587     Delta-E=       -0.000735129364 Rises=F Damp=F
 DIIS: error= 3.51D-03 at cycle   4 NSaved=   4.
 NSaved= 4 IEnMin= 4 EnMin= -1136.01660036587     IErMin= 4 ErrMin= 3.51D-03
 ErrMax= 3.51D-03  0.00D+00 EMaxC= 1.00D-01 BMatC= 3.01D-03 BMatP= 4.86D-03
 IDIUse=3 WtCom= 9.65D-01 WtEn= 3.51D-02
 Coeff-Com:  0.126D-01-0.153D-01 0.441D+00 0.561D+00
 Coeff-En:   0.000D+00 0.000D+00 0.412D+00 0.588D+00
 Coeff:      0.121D-01-0.148D-01 0.440D+00 0.562D+00
 Gap=     0.068 Goal=   None    Shift=    0.000
 Gap=     0.028 Goal=   None    Shift=    0.000
 RMSDP=9.83D-03 MaxDP=6.40D-01 DE=-7.35D-04 OVMax= 2.66D-02

 Cycle   5  Pass 1  IDiag  1:
 E= -1136.01807259295     Delta-E=       -0.001472227075 Rises=F Damp=F
 DIIS: error= 5.02D-04 at cycle   5 NSaved=   5.
 NSaved= 5 IEnMin= 5 EnMin= -1136.01807259295     IErMin= 5 ErrMin= 5.02D-04
 ErrMax= 5.02D-04  0.00D+00 EMaxC= 1.00D-01 BMatC= 4.76D-05 BMatP= 3.01D-03
 IDIUse=3 WtCom= 9.95D-01 WtEn= 5.02D-03
 Coeff-Com:  0.652D-02-0.850D-02 0.254D+00 0.326D+00 0.422D+00
 Coeff-En:   0.000D+00 0.000D+00 0.000D+00 0.000D+00 0.100D+01
 Coeff:      0.649D-02-0.846D-02 0.253D+00 0.324D+00 0.425D+00
 Gap=     0.068 Goal=   None    Shift=    0.000
 Gap=     0.028 Goal=   None    Shift=    0.000
 RMSDP=9.66D-04 MaxDP=7.32D-02 DE=-1.47D-03 OVMax= 8.01D-03

 Cycle   6  Pass 1  IDiag  1:
 E= -1136.01811555434     Delta-E=       -0.000042961396 Rises=F Damp=F
 DIIS: error= 1.88D-04 at cycle   6 NSaved=   6.
 NSaved= 6 IEnMin= 6 EnMin= -1136.01811555434     IErMin= 6 ErrMin= 1.88D-04
 ErrMax= 1.88D-04  0.00D+00 EMaxC= 1.00D-01 BMatC= 5.75D-06 BMatP= 4.76D-05
 IDIUse=3 WtCom= 9.98D-01 WtEn= 1.88D-03
 Coeff-Com: -0.268D-02 0.307D-02-0.400D-01-0.560D-01 0.232D+00 0.863D+00
 Coeff-En:   0.000D+00 0.000D+00 0.000D+00 0.000D+00 0.104D+00 0.896D+00
 Coeff:     -0.267D-02 0.307D-02-0.399D-01-0.559D-01 0.232D+00 0.863D+00
 Gap=     0.068 Goal=   None    Shift=    0.000
 Gap=     0.029 Goal=   None    Shift=    0.000
 RMSDP=4.01D-04 MaxDP=3.16D-02 DE=-4.30D-05 OVMax= 3.36D-03

 Cycle   7  Pass 1  IDiag  1:
 E= -1136.01812282743     Delta-E=       -0.000007273084 Rises=F Damp=F
 DIIS: error= 2.85D-05 at cycle   7 NSaved=   7.
 NSaved= 7 IEnMin= 7 EnMin= -1136.01812282743     IErMin= 7 ErrMin= 2.85D-05
 ErrMax= 2.85D-05  0.00D+00 EMaxC= 1.00D-01 BMatC= 1.27D-07 BMatP= 5.75D-06
 IDIUse=1 WtCom= 1.00D+00 WtEn= 0.00D+00
 Coeff-Com:  0.125D-03-0.158D-03-0.166D-01-0.187D-01-0.583D-01-0.136D+00
 Coeff-Com:  0.123D+01
 Coeff:      0.125D-03-0.158D-03-0.166D-01-0.187D-01-0.583D-01-0.136D+00
 Coeff:      0.123D+01
 Gap=     0.068 Goal=   None    Shift=    0.000
 Gap=     0.029 Goal=   None    Shift=    0.000
 RMSDP=1.58D-04 MaxDP=1.62D-02 DE=-7.27D-06 OVMax= 1.13D-03

 Cycle   8  Pass 1  IDiag  1:
 E= -1136.01812329478     Delta-E=       -0.000000467350 Rises=F Damp=F
 DIIS: error= 7.88D-06 at cycle   8 NSaved=   8.
 NSaved= 8 IEnMin= 8 EnMin= -1136.01812329478     IErMin= 8 ErrMin= 7.88D-06
 ErrMax= 7.88D-06  0.00D+00 EMaxC= 1.00D-01 BMatC= 1.86D-08 BMatP= 1.27D-07
 IDIUse=1 WtCom= 1.00D+00 WtEn= 0.00D+00
 Coeff-Com:  0.369D-03-0.462D-03-0.333D-03 0.111D-02-0.318D-01-0.923D-01
 Coeff-Com:  0.262D+00 0.862D+00
 Coeff:      0.369D-03-0.462D-03-0.333D-03 0.111D-02-0.318D-01-0.923D-01
 Coeff:      0.262D+00 0.862D+00
 Gap=     0.068 Goal=   None    Shift=    0.000
 Gap=     0.029 Goal=   None    Shift=    0.000
 RMSDP=3.22D-05 MaxDP=3.56D-03 DE=-4.67D-07 OVMax= 3.09D-04

 Cycle   9  Pass 1  IDiag  1:
 E= -1136.01812333649     Delta-E=       -0.000000041707 Rises=F Damp=F
 DIIS: error= 2.99D-06 at cycle   9 NSaved=   9.
 NSaved= 9 IEnMin= 9 EnMin= -1136.01812333649     IErMin= 9 ErrMin= 2.99D-06
 ErrMax= 2.99D-06  0.00D+00 EMaxC= 1.00D-01 BMatC= 4.82D-09 BMatP= 1.86D-08
 IDIUse=1 WtCom= 1.00D+00 WtEn= 0.00D+00
 Coeff-Com:  0.967D-04-0.114D-03 0.168D-02 0.236D-02-0.509D-02-0.168D-01
 Coeff-Com: -0.550D-01 0.326D+00 0.747D+00
 Coeff:      0.967D-04-0.114D-03 0.168D-02 0.236D-02-0.509D-02-0.168D-01
 Coeff:     -0.550D-01 0.326D+00 0.747D+00
 Gap=     0.068 Goal=   None    Shift=    0.000
 Gap=     0.029 Goal=   None    Shift=    0.000
 RMSDP=1.92D-05 MaxDP=1.55D-03 DE=-4.17D-08 OVMax= 2.67D-04

 Cycle  10  Pass 1  IDiag  1:
 E= -1136.01812334940     Delta-E=       -0.000000012918 Rises=F Damp=F
 DIIS: error= 2.52D-06 at cycle  10 NSaved=  10.
 NSaved=10 IEnMin=10 EnMin= -1136.01812334940     IErMin=10 ErrMin= 2.52D-06
 ErrMax= 2.52D-06  0.00D+00 EMaxC= 1.00D-01 BMatC= 1.82D-09 BMatP= 4.82D-09
 IDIUse=1 WtCom= 1.00D+00 WtEn= 0.00D+00
 Coeff-Com: -0.211D-04 0.319D-04 0.834D-03 0.917D-03 0.211D-02 0.525D-02
 Coeff-Com: -0.658D-01 0.303D-01 0.337D+00 0.689D+00
 Coeff:     -0.211D-04 0.319D-04 0.834D-03 0.917D-03 0.211D-02 0.525D-02
 Coeff:     -0.658D-01 0.303D-01 0.337D+00 0.689D+00
 Gap=     0.068 Goal=   None    Shift=    0.000
 Gap=     0.029 Goal=   None    Shift=    0.000
 RMSDP=7.39D-06 MaxDP=5.16D-04 DE=-1.29D-08 OVMax= 2.54D-04

 Cycle  11  Pass 1  IDiag  1:
 E= -1136.01812335738     Delta-E=       -0.000000007974 Rises=F Damp=F
 DIIS: error= 2.64D-06 at cycle  11 NSaved=  11.
 NSaved=11 IEnMin=11 EnMin= -1136.01812335738     IErMin=10 ErrMin= 2.52D-06
 ErrMax= 2.64D-06  0.00D+00 EMaxC= 1.00D-01 BMatC= 1.26D-09 BMatP= 1.82D-09
 IDIUse=1 WtCom= 1.00D+00 WtEn= 0.00D+00
 Coeff-Com: -0.562D-04 0.712D-04-0.489D-04-0.273D-03 0.364D-02 0.107D-01
 Coeff-Com: -0.259D-01-0.116D+00-0.824D-01 0.501D+00 0.709D+00
 Coeff:     -0.562D-04 0.712D-04-0.489D-04-0.273D-03 0.364D-02 0.107D-01
 Coeff:     -0.259D-01-0.116D+00-0.824D-01 0.501D+00 0.709D+00
 Gap=     0.068 Goal=   None    Shift=    0.000
 Gap=     0.029 Goal=   None    Shift=    0.000
 RMSDP=4.22D-06 MaxDP=2.88D-04 DE=-7.97D-09 OVMax= 3.33D-04

 Cycle  12  Pass 1  IDiag  1:
 E= -1136.01812336631     Delta-E=       -0.000000008935 Rises=F Damp=F
 DIIS: error= 2.67D-06 at cycle  12 NSaved=  12.
 NSaved=12 IEnMin=12 EnMin= -1136.01812336631     IErMin=10 ErrMin= 2.52D-06
 ErrMax= 2.67D-06  0.00D+00 EMaxC= 1.00D-01 BMatC= 6.93D-10 BMatP= 1.26D-09
 IDIUse=1 WtCom= 1.00D+00 WtEn= 0.00D+00
 Coeff-Com: -0.157D-04 0.187D-04-0.779D-04-0.182D-03 0.124D-02 0.375D-02
 Coeff-Com: -0.366D-02-0.516D-01-0.622D-01 0.134D+00 0.281D+00 0.698D+00
 Coeff:     -0.157D-04 0.187D-04-0.779D-04-0.182D-03 0.124D-02 0.375D-02
 Coeff:     -0.366D-02-0.516D-01-0.622D-01 0.134D+00 0.281D+00 0.698D+00
 Gap=     0.068 Goal=   None    Shift=    0.000
 Gap=     0.029 Goal=   None    Shift=    0.000
 RMSDP=2.37D-06 MaxDP=1.53D-04 DE=-8.94D-09 OVMax= 2.56D-04

 Cycle  13  Pass 1  IDiag  1:
 E= -1136.01812337243     Delta-E=       -0.000000006116 Rises=F Damp=F
 DIIS: error= 2.72D-06 at cycle  13 NSaved=  13.
 NSaved=13 IEnMin=13 EnMin= -1136.01812337243     IErMin=10 ErrMin= 2.52D-06
 ErrMax= 2.72D-06  0.00D+00 EMaxC= 1.00D-01 BMatC= 6.84D-10 BMatP= 6.93D-10
 IDIUse=1 WtCom= 1.00D+00 WtEn= 0.00D+00
 Coeff-Com:  0.305D-05-0.484D-05-0.463D-04-0.709D-04 0.489D-04 0.198D-03
 Coeff-Com:  0.374D-02-0.113D-01-0.258D-01-0.180D-01 0.393D-01 0.513D+00
 Coeff-Com:  0.499D+00
 Coeff:      0.305D-05-0.484D-05-0.463D-04-0.709D-04 0.489D-04 0.198D-03
 Coeff:      0.374D-02-0.113D-01-0.258D-01-0.180D-01 0.393D-01 0.513D+00
 Coeff:      0.499D+00
 Gap=     0.068 Goal=   None    Shift=    0.000
 Gap=     0.029 Goal=   None    Shift=    0.000
 RMSDP=1.85D-06 MaxDP=1.17D-04 DE=-6.12D-09 OVMax= 2.22D-04

 Cycle  14  Pass 1  IDiag  1:
 E= -1136.01812337774     Delta-E=       -0.000000005316 Rises=F Damp=F
 DIIS: error= 2.76D-06 at cycle  14 NSaved=  14.
 NSaved=14 IEnMin=14 EnMin= -1136.01812337774     IErMin=10 ErrMin= 2.52D-06
 ErrMax= 2.76D-06  0.00D+00 EMaxC= 1.00D-01 BMatC= 6.74D-10 BMatP= 6.84D-10
 IDIUse=1 WtCom= 1.00D+00 WtEn= 0.00D+00
 Coeff-Com:  0.319D-04-0.437D-04-0.106D-03-0.105D-03-0.120D-02-0.329D-02
 Coeff-Com:  0.211D-01 0.693D-02-0.483D-01-0.251D+00-0.152D+00 0.166D+01
 Coeff-Com:  0.238D+01-0.261D+01
 Coeff:      0.319D-04-0.437D-04-0.106D-03-0.105D-03-0.120D-02-0.329D-02
 Coeff:      0.211D-01 0.693D-02-0.483D-01-0.251D+00-0.152D+00 0.166D+01
 Coeff:      0.238D+01-0.261D+01
 Gap=     0.068 Goal=   None    Shift=    0.000
 Gap=     0.029 Goal=   None    Shift=    0.000
 RMSDP=3.99D-06 MaxDP=1.37D-04 DE=-5.32D-09 OVMax= 5.99D-04

 Cycle  15  Pass 1  IDiag  1:
 E= -1136.01812336374     Delta-E=        0.000000014003 Rises=F Damp=F
 DIIS: error= 2.65D-06 at cycle  15 NSaved=  15.
 NSaved=15 IEnMin=14 EnMin= -1136.01812337774     IErMin=10 ErrMin= 2.52D-06
 ErrMax= 2.65D-06  0.00D+00 EMaxC= 1.00D-01 BMatC= 6.31D-10 BMatP= 6.74D-10
 IDIUse=1 WtCom= 1.00D+00 WtEn= 0.00D+00
 Large coefficients: NSaved= 15 BigCof=   12.99 CofMax=   10.00 Det=-1.31D-12
 Inversion failed.  Reducing to 14 matrices.
 Large coefficients: NSaved= 14 BigCof=   12.78 CofMax=   10.00 Det=-1.57D-12
 Inversion failed.  Reducing to 13 matrices.
 Large coefficients: NSaved= 13 BigCof=   12.52 CofMax=   10.00 Det=-1.62D-12
 Inversion failed.  Reducing to 12 matrices.
 Large coefficients: NSaved= 12 BigCof=   12.30 CofMax=   10.00 Det=-1.76D-12
 Inversion failed.  Reducing to 11 matrices.
 Coeff-Com:  0.929D-03 0.213D-02-0.865D-02 0.118D-01-0.184D-01-0.815D-01
 Coeff-Com: -0.959D-01-0.100D+00 0.119D+01-0.636D+01 0.647D+01
 Coeff:      0.929D-03 0.213D-02-0.865D-02 0.118D-01-0.184D-01-0.815D-01
 Coeff:     -0.959D-01-0.100D+00 0.119D+01-0.636D+01 0.647D+01
 Gap=     0.068 Goal=   None    Shift=    0.000
 Gap=     0.029 Goal=   None    Shift=    0.000
 RMSDP=1.90D-05 MaxDP=6.38D-04 DE= 1.40D-08 OVMax= 3.07D-03

 Cycle  16  Pass 1  IDiag  1:
 E= -1136.01812330101     Delta-E=        0.000000062731 Rises=F Damp=F
 DIIS: error= 2.09D-06 at cycle  16 NSaved=  12.
 NSaved=12 IEnMin=10 EnMin= -1136.01812337774     IErMin=12 ErrMin= 2.09D-06
 ErrMax= 2.09D-06  0.00D+00 EMaxC= 1.00D-01 BMatC= 4.73D-10 BMatP= 6.31D-10
 IDIUse=1 WtCom= 1.00D+00 WtEn= 0.00D+00
 Coeff-Com: -0.119D-02-0.404D-02-0.142D-01 0.137D+00 0.255D+00-0.115D-01
 Coeff-Com: -0.567D+00-0.429D+01-0.364D+01-0.164D+01 0.797D+01 0.280D+01
 Coeff:     -0.119D-02-0.404D-02-0.142D-01 0.137D+00 0.255D+00-0.115D-01
 Coeff:     -0.567D+00-0.429D+01-0.364D+01-0.164D+01 0.797D+01 0.280D+01
 Gap=     0.068 Goal=   None    Shift=    0.000
 Gap=     0.029 Goal=   None    Shift=    0.000
 RMSDP=5.22D-05 MaxDP=1.76D-03 DE= 6.27D-08 OVMax= 8.48D-03

 Cycle  17  Pass 1  IDiag  1:
 E= -1136.01812320462     Delta-E=        0.000000096388 Rises=F Damp=F
 DIIS: error= 5.60D-07 at cycle  17 NSaved=  13.
 NSaved=13 IEnMin=10 EnMin= -1136.01812337774     IErMin=13 ErrMin= 5.60D-07
 ErrMax= 5.60D-07  0.00D+00 EMaxC= 1.00D-01 BMatC= 9.73D-11 BMatP= 4.73D-10
 IDIUse=1 WtCom= 1.00D+00 WtEn= 0.00D+00
 Coeff-Com: -0.212D-03-0.774D-03-0.716D-02 0.579D-01 0.137D+00-0.766D-01
 Coeff-Com: -0.341D+00-0.140D+01-0.102D+01-0.659D+00 0.242D+01 0.111D+01
 Coeff-Com:  0.783D+00
 Coeff:     -0.212D-03-0.774D-03-0.716D-02 0.579D-01 0.137D+00-0.766D-01
 Coeff:     -0.341D+00-0.140D+01-0.102D+01-0.659D+00 0.242D+01 0.111D+01
 Coeff:      0.783D+00
 Gap=     0.068 Goal=   None    Shift=    0.000
 Gap=     0.029 Goal=   None    Shift=    0.000
 RMSDP=1.14D-05 MaxDP=3.85D-04 DE= 9.64D-08 OVMax= 1.85D-03

 Cycle  18  Pass 1  IDiag  1:
 E= -1136.01812319863     Delta-E=        0.000000005987 Rises=F Damp=F
 DIIS: error= 2.58D-07 at cycle  18 NSaved=  14.
 NSaved=14 IEnMin=10 EnMin= -1136.01812337774     IErMin=14 ErrMin= 2.58D-07
 ErrMax= 2.58D-07  0.00D+00 EMaxC= 1.00D-01 BMatC= 2.27D-11 BMatP= 9.73D-11
 IDIUse=1 WtCom= 1.00D+00 WtEn= 0.00D+00
 Coeff-Com:  0.901D-03 0.283D-02-0.782D-02 0.307D-02-0.227D-01-0.374D-01
 Coeff-Com:  0.238D-01 0.470D+00 0.542D+00-0.439D+00-0.219D+00-0.447D+00
 Coeff-Com: -0.362D+00 0.149D+01
 Coeff:      0.901D-03 0.283D-02-0.782D-02 0.307D-02-0.227D-01-0.374D-01
 Coeff:      0.238D-01 0.470D+00 0.542D+00-0.439D+00-0.219D+00-0.447D+00
 Coeff:     -0.362D+00 0.149D+01
 Gap=     0.068 Goal=   None    Shift=    0.000
 Gap=     0.029 Goal=   None    Shift=    0.000
 RMSDP=6.35D-06 MaxDP=2.09D-04 DE= 5.99D-09 OVMax= 9.99D-04

 Cycle  19  Pass 1  IDiag  1:
 E= -1136.01812319763     Delta-E=        0.000000001002 Rises=F Damp=F
 DIIS: error= 9.48D-08 at cycle  19 NSaved=  15.
 NSaved=15 IEnMin=10 EnMin= -1136.01812337774     IErMin=15 ErrMin= 9.48D-08
 ErrMax= 9.48D-08  0.00D+00 EMaxC= 1.00D-01 BMatC= 3.29D-12 BMatP= 2.27D-11
 IDIUse=1 WtCom= 1.00D+00 WtEn= 0.00D+00
 Coeff-Com:  0.146D-03 0.314D-03 0.187D-02-0.132D-01-0.361D-01 0.129D-01
 Coeff-Com:  0.823D-01 0.362D+00 0.269D+00 0.161D+00-0.627D+00-0.305D+00
 Coeff-Com: -0.125D+00 0.343D+00 0.874D+00
 Coeff:      0.146D-03 0.314D-03 0.187D-02-0.132D-01-0.361D-01 0.129D-01
 Coeff:      0.823D-01 0.362D+00 0.269D+00 0.161D+00-0.627D+00-0.305D+00
 Coeff:     -0.125D+00 0.343D+00 0.874D+00
 Gap=     0.068 Goal=   None    Shift=    0.000
 Gap=     0.029 Goal=   None    Shift=    0.000
 RMSDP=1.13D-06 MaxDP=4.88D-05 DE= 1.00D-09 OVMax= 1.48D-04

 Cycle  20  Pass 1  IDiag  1:
 E= -1136.01812319760     Delta-E=        0.000000000027 Rises=F Damp=F
 DIIS: error= 6.26D-08 at cycle  20 NSaved=  16.
 NSaved=16 IEnMin=10 EnMin= -1136.01812337774     IErMin=16 ErrMin= 6.26D-08
 ErrMax= 6.26D-08  0.00D+00 EMaxC= 1.00D-01 BMatC= 8.96D-13 BMatP= 3.29D-12
 IDIUse=1 WtCom= 1.00D+00 WtEn= 0.00D+00
 Coeff-Com: -0.175D-03-0.537D-03 0.159D-02-0.206D-02 0.478D-02 0.134D-01
 Coeff-Com:  0.135D-02-0.100D+00-0.140D+00 0.195D+00-0.589D-01 0.907D-01
 Coeff-Com:  0.115D+00-0.195D+00 0.165D+00 0.910D+00
 Coeff:     -0.175D-03-0.537D-03 0.159D-02-0.206D-02 0.478D-02 0.134D-01
 Coeff:      0.135D-02-0.100D+00-0.140D+00 0.195D+00-0.589D-01 0.907D-01
 Coeff:      0.115D+00-0.195D+00 0.165D+00 0.910D+00
 Gap=     0.068 Goal=   None    Shift=    0.000
 Gap=     0.029 Goal=   None    Shift=    0.000
 RMSDP=4.29D-07 MaxDP=3.88D-05 DE= 2.73D-11 OVMax= 1.97D-05

 Cycle  21  Pass 1  IDiag  1:
 E= -1136.01812319761     Delta-E=       -0.000000000005 Rises=F Damp=F
 DIIS: error= 2.95D-08 at cycle  21 NSaved=  17.
 NSaved=17 IEnMin=10 EnMin= -1136.01812337774     IErMin=17 ErrMin= 2.95D-08
 ErrMax= 2.95D-08  0.00D+00 EMaxC= 1.00D-01 BMatC= 1.76D-13 BMatP= 8.96D-13
 IDIUse=1 WtCom= 1.00D+00 WtEn= 0.00D+00
 Coeff-Com:  0.297D-04 0.121D-03-0.379D-03-0.357D-03-0.234D-03 0.106D-03
 Coeff-Com:  0.159D-02 0.179D-01 0.205D-01-0.103D-01-0.112D-01-0.169D-01
 Coeff-Com: -0.199D-01-0.103D-01-0.534D-01 0.120D+00 0.963D+00
 Coeff:      0.297D-04 0.121D-03-0.379D-03-0.357D-03-0.234D-03 0.106D-03
 Coeff:      0.159D-02 0.179D-01 0.205D-01-0.103D-01-0.112D-01-0.169D-01
 Coeff:     -0.199D-01-0.103D-01-0.534D-01 0.120D+00 0.963D+00
 Gap=     0.068 Goal=   None    Shift=    0.000
 Gap=     0.029 Goal=   None    Shift=    0.000
 RMSDP=1.61D-07 MaxDP=1.00D-05 DE=-5.00D-12 OVMax= 1.12D-05

 Cycle  22  Pass 1  IDiag  1:
 E= -1136.01812319760     Delta-E=        0.000000000006 Rises=F Damp=F
 DIIS: error= 1.67D-08 at cycle  22 NSaved=  18.
 NSaved=18 IEnMin=10 EnMin= -1136.01812337774     IErMin=18 ErrMin= 1.67D-08
 ErrMax= 1.67D-08  0.00D+00 EMaxC= 1.00D-01 BMatC= 3.12D-14 BMatP= 1.76D-13
 IDIUse=1 WtCom= 1.00D+00 WtEn= 0.00D+00
 Coeff-Com:  0.270D-04 0.548D-04-0.267D-03 0.121D-02-0.365D-03-0.425D-02
 Coeff-Com: -0.319D-02 0.980D-02 0.200D-01-0.440D-01 0.293D-01-0.713D-02
 Coeff-Com: -0.169D-01 0.451D-01-0.521D-01-0.316D+00-0.114D+00 0.145D+01
 Coeff:      0.270D-04 0.548D-04-0.267D-03 0.121D-02-0.365D-03-0.425D-02
 Coeff:     -0.319D-02 0.980D-02 0.200D-01-0.440D-01 0.293D-01-0.713D-02
 Coeff:     -0.169D-01 0.451D-01-0.521D-01-0.316D+00-0.114D+00 0.145D+01
 Gap=     0.068 Goal=   None    Shift=    0.000
 Gap=     0.029 Goal=   None    Shift=    0.000
 RMSDP=1.25D-07 MaxDP=8.11D-06 DE= 6.37D-12 OVMax= 4.75D-06

 Cycle  23  Pass 1  IDiag  1:
 E= -1136.01812319761     Delta-E=       -0.000000000009 Rises=F Damp=F
 DIIS: error= 3.70D-09 at cycle  23 NSaved=  19.
 NSaved=19 IEnMin=10 EnMin= -1136.01812337774     IErMin=19 ErrMin= 3.70D-09
 ErrMax= 3.70D-09  0.00D+00 EMaxC= 1.00D-01 BMatC= 1.76D-15 BMatP= 3.12D-14
 IDIUse=1 WtCom= 1.00D+00 WtEn= 0.00D+00
 Large coefficients: NSaved= 19 BigCof=    0.00 CofMax=   10.00 Det=-2.40D-15
 Inversion failed.  Reducing to 18 matrices.
 Large coefficients: NSaved= 18 BigCof=    0.00 CofMax=   10.00 Det=-2.86D-15
 Inversion failed.  Reducing to 17 matrices.
 Large coefficients: NSaved= 17 BigCof=    0.00 CofMax=   10.00 Det=-4.32D-15
 Inversion failed.  Reducing to 16 matrices.
 Large coefficients: NSaved= 16 BigCof=    0.00 CofMax=   10.00 Det=-5.34D-15
 Inversion failed.  Reducing to 15 matrices.
 Coeff-Com: -0.120D-03-0.526D-04 0.292D-03 0.416D-03 0.909D-03 0.664D-03
 Coeff-Com:  0.280D-03-0.172D-02-0.212D-02 0.222D-02 0.279D-02 0.162D-02
 Coeff-Com: -0.419D-01-0.121D+00 0.116D+01
 Coeff:     -0.120D-03-0.526D-04 0.292D-03 0.416D-03 0.909D-03 0.664D-03
 Coeff:      0.280D-03-0.172D-02-0.212D-02 0.222D-02 0.279D-02 0.162D-02
 Coeff:     -0.419D-01-0.121D+00 0.116D+01
 Gap=     0.068 Goal=   None    Shift=    0.000
 Gap=     0.029 Goal=   None    Shift=    0.000
 RMSDP=3.63D-08 MaxDP=2.33D-06 DE=-8.64D-12 OVMax= 3.66D-06

 Cycle  24  Pass 1  IDiag  1:
 E= -1136.01812319760     Delta-E=        0.000000000014 Rises=F Damp=F
 DIIS: error= 1.56D-09 at cycle  24 NSaved=  16.
 NSaved=16 IEnMin= 7 EnMin= -1136.01812337774     IErMin=16 ErrMin= 1.56D-09
 ErrMax= 1.56D-09  0.00D+00 EMaxC= 1.00D-01 BMatC= 4.97D-16 BMatP= 1.76D-15
 IDIUse=1 WtCom= 1.00D+00 WtEn= 0.00D+00
 Large coefficients: NSaved= 16 BigCof=    0.00 CofMax=   10.00 Det=-1.09D-15
 Inversion failed.  Reducing to 15 matrices.
 Coeff-Com:  0.147D-04 0.973D-04-0.118D-04-0.172D-03-0.404D-03-0.287D-03
 Coeff-Com:  0.269D-03 0.110D-03 0.258D-03 0.126D-02-0.180D-03-0.365D-02
 Coeff-Com: -0.231D-01 0.336D+00 0.690D+00
 Coeff:      0.147D-04 0.973D-04-0.118D-04-0.172D-03-0.404D-03-0.287D-03
 Coeff:      0.269D-03 0.110D-03 0.258D-03 0.126D-02-0.180D-03-0.365D-02
 Coeff:     -0.231D-01 0.336D+00 0.690D+00
 Gap=     0.068 Goal=   None    Shift=    0.000
 Gap=     0.029 Goal=   None    Shift=    0.000
 RMSDP=1.23D-08 MaxDP=7.96D-07 DE= 1.41D-11 OVMax= 1.28D-06

 Cycle  25  Pass 1  IDiag  1:
 E= -1136.01812319760     Delta-E=        0.000000000002 Rises=F Damp=F
 DIIS: error= 1.36D-09 at cycle  25 NSaved=  16.
 NSaved=16 IEnMin= 7 EnMin= -1136.01812337774     IErMin=16 ErrMin= 1.36D-09
 ErrMax= 1.36D-09  0.00D+00 EMaxC= 1.00D-01 BMatC= 2.53D-16 BMatP= 4.97D-16
 IDIUse=1 WtCom= 1.00D+00 WtEn= 0.00D+00
 Large coefficients: NSaved= 16 BigCof=    0.00 CofMax=   10.00 Det=-8.08D-16
 Inversion failed.  Reducing to 15 matrices.
 Coeff-Com:  0.931D-05-0.440D-05-0.819D-05-0.180D-04-0.202D-03-0.110D-03
 Coeff-Com: -0.490D-03 0.920D-03 0.125D-03-0.374D-03-0.335D-03-0.137D-02
 Coeff-Com: -0.232D-01 0.429D+00 0.596D+00
 Coeff:      0.931D-05-0.440D-05-0.819D-05-0.180D-04-0.202D-03-0.110D-03
 Coeff:     -0.490D-03 0.920D-03 0.125D-03-0.374D-03-0.335D-03-0.137D-02
 Coeff:     -0.232D-01 0.429D+00 0.596D+00
 Gap=     0.068 Goal=   None    Shift=    0.000
 Gap=     0.029 Goal=   None    Shift=    0.000
 RMSDP=1.03D-08 MaxDP=8.63D-07 DE= 1.82D-12 OVMax= 1.42D-07

 Cycle  26  Pass 1  IDiag  1:
 E= -1136.01812319761     Delta-E=       -0.000000000013 Rises=F Damp=F
 DIIS: error= 6.24D-10 at cycle  26 NSaved=  16.
 NSaved=16 IEnMin= 7 EnMin= -1136.01812337774     IErMin=16 ErrMin= 6.24D-10
 ErrMax= 6.24D-10  0.00D+00 EMaxC= 1.00D-01 BMatC= 5.42D-17 BMatP= 2.53D-16
 IDIUse=1 WtCom= 1.00D+00 WtEn= 0.00D+00
 Large coefficients: NSaved= 16 BigCof=    0.00 CofMax=   10.00 Det=-2.91D-16
 Inversion failed.  Reducing to 15 matrices.
 Coeff-Com:  0.170D-04-0.413D-05-0.592D-04-0.518D-04 0.524D-04 0.130D-03
 Coeff-Com: -0.308D-03 0.182D-03 0.112D-03-0.282D-03 0.171D-03 0.101D-02
 Coeff-Com: -0.121D+00 0.342D+00 0.779D+00
 Coeff:      0.170D-04-0.413D-05-0.592D-04-0.518D-04 0.524D-04 0.130D-03
 Coeff:     -0.308D-03 0.182D-03 0.112D-03-0.282D-03 0.171D-03 0.101D-02
 Coeff:     -0.121D+00 0.342D+00 0.779D+00
 Gap=     0.068 Goal=   None    Shift=    0.000
 Gap=     0.029 Goal=   None    Shift=    0.000
 RMSDP=4.33D-09 MaxDP=3.04D-07 DE=-1.34D-11 OVMax= 2.11D-07

 SCF Done:  E(UB3LYP) =  -1136.01812320     A.U. after   26 cycles
            NFock= 26  Conv=0.43D-08     -V/T= 2.0020
 <Sx>= 0.0000 <Sy>= 0.0000 <Sz>= 0.5000 <S**2>= 0.7606 S= 0.5053
 <L.S>= 0.000000000000E+00
 KE= 1.133794692128D+03 PE=-3.613751519188D+03 EE= 9.015361016238D+02
 Annihilation of the first spin contaminant:
 S**2 before annihilation     0.7606,   after     0.7501
 Leave Link  502 at Mon Nov 13 12:30:08 2023, MaxMem=  1879048192 cpu:             248.7 elap:              21.3
 (Enter /home/sekinelabo/g16/l601.exe)
 Copying SCF densities to generalized density rwf, IOpCl= 1 IROHF=0.

 **********************************************************************

            Population analysis using the SCF Density.

 **********************************************************************

 Orbital symmetries:
 Alpha Orbitals:
       Occupied  (A) (A) (A) (A) (A) (A) (A) (A) (A) (A) (A) (A)
                 (A) (A) (A) (A) (A) (A) (A) (A) (A) (A) (A) (A)
                 (A) (A) (A) (A) (A) (A) (A) (A) (A) (A) (A) (A)
                 (A) (A) (A)
       Virtual   (A) (A) (A) (A) (A) (A) (A) (A) (A) (A) (A) (A)
                 (A) (A) (A) (A) (A) (A) (A) (A) (A) (A) (A) (A)
                 (A) (A) (A) (A) (A) (A) (A) (A) (A) (A) (A) (A)
                 (A) (A) (A) (A) (A) (A) (A) (A) (A) (A) (A) (A)
                 (A) (A) (A) (A) (A) (A) (A) (A) (A) (A) (A) (A)
                 (A) (A) (A) (A) (A) (A) (A) (A) (A) (A) (A) (A)
                 (A) (A) (A) (A) (A) (A) (A) (A) (A) (A) (A) (A)
                 (A) (A) (A) (A) (A) (A) (A) (A) (A) (A) (A) (A)
                 (A) (A) (A) (A) (A) (A) (A) (A) (A) (A) (A) (A)
                 (A) (A) (A) (A) (A) (A) (A) (A) (A) (A) (A) (A)
                 (A) (A) (A) (A) (A) (A) (A) (A) (A) (A) (A) (A)
                 (A) (A) (A) (A) (A) (A) (A) (A) (A) (A) (A) (A)
                 (A) (A) (A) (A) (A) (A) (A) (A) (A) (A) (A) (A)
                 (A) (A) (A) (A) (A) (A) (A) (A) (A) (A) (A) (A)
                 (A)
 Beta  Orbitals:
       Occupied  (A) (A) (A) (A) (A) (A) (A) (A) (A) (A) (A) (A)
                 (A) (A) (A) (A) (A) (A) (A) (A) (A) (A) (A) (A)
                 (A) (A) (A) (A) (A) (A) (A) (A) (A) (A) (A) (A)
                 (A) (A)
       Virtual   (A) (A) (A) (A) (A) (A) (A) (A) (A) (A) (A) (A)
                 (A) (A) (A) (A) (A) (A) (A) (A) (A) (A) (A) (A)
                 (A) (A) (A) (A) (A) (A) (A) (A) (A) (A) (A) (A)
                 (A) (A) (A) (A) (A) (A) (A) (A) (A) (A) (A) (A)
                 (A) (A) (A) (A) (A) (A) (A) (A) (A) (A) (A) (A)
                 (A) (A) (A) (A) (A) (A) (A) (A) (A) (A) (A) (A)
                 (A) (A) (A) (A) (A) (A) (A) (A) (A) (A) (A) (A)
                 (A) (A) (A) (A) (A) (A) (A) (A) (A) (A) (A) (A)
                 (A) (A) (A) (A) (A) (A) (A) (A) (A) (A) (A) (A)
                 (A) (A) (A) (A) (A) (A) (A) (A) (A) (A) (A) (A)
                 (A) (A) (A) (A) (A) (A) (A) (A) (A) (A) (A) (A)
                 (A) (A) (A) (A) (A) (A) (A) (A) (A) (A) (A) (A)
                 (A) (A) (A) (A) (A) (A) (A) (A) (A) (A) (A) (A)
                 (A) (A) (A) (A) (A) (A) (A) (A) (A) (A) (A) (A)
                 (A) (A)
 The electronic state is 2-A.
 Alpha  occ. eigenvalues --  -38.45674 -38.45671 -38.45335 -38.45329 -38.44502
 Alpha  occ. eigenvalues --  -38.43067 -38.43065  -2.22183  -2.22160  -2.21695
 Alpha  occ. eigenvalues --   -2.21544  -2.20566  -2.19337  -2.19330  -1.16380
 Alpha  occ. eigenvalues --   -1.16283  -1.16063  -1.15860  -1.15829  -1.15790
 Alpha  occ. eigenvalues --   -1.15731  -1.15179  -1.15153  -1.15069  -1.14986
 Alpha  occ. eigenvalues --   -1.14814  -1.14246  -1.14240  -1.14062  -1.13082
 Alpha  occ. eigenvalues --   -1.13074  -1.13025  -1.12984  -1.12820  -1.12812
 Alpha  occ. eigenvalues --   -0.22576  -0.14158  -0.13586  -0.12301
 Alpha virt. eigenvalues --   -0.05505  -0.04317  -0.04231  -0.03491  -0.03195
 Alpha virt. eigenvalues --   -0.02561  -0.01207  -0.00327  -0.00129   0.00286
 Alpha virt. eigenvalues --    0.00768   0.00959   0.01063   0.01199   0.01358
 Alpha virt. eigenvalues --    0.01359   0.01474   0.01481   0.01513   0.01695
 Alpha virt. eigenvalues --    0.01702   0.01794   0.01872   0.01963   0.01980
 Alpha virt. eigenvalues --    0.02693   0.02820   0.02974   0.03035   0.03064
 Alpha virt. eigenvalues --    0.03087   0.03173   0.03314   0.03475   0.03548
 Alpha virt. eigenvalues --    0.03821   0.03832   0.04004   0.04092   0.04744
 Alpha virt. eigenvalues --    0.05024   0.05138   0.05371   0.05520   0.05561
 Alpha virt. eigenvalues --    0.05626   0.06055   0.06198   0.06463   0.06764
 Alpha virt. eigenvalues --    0.07045   0.07105   0.07645   0.08040   0.09037
 Alpha virt. eigenvalues --    0.09307   0.09438   0.09880   0.10254   0.10298
 Alpha virt. eigenvalues --    0.11240   0.11892   0.12897   0.13284   0.13788
 Alpha virt. eigenvalues --    0.13884   0.14026   0.14239   0.14389   0.14578
 Alpha virt. eigenvalues --    0.15536   0.16060   0.16244   0.17613   0.17819
 Alpha virt. eigenvalues --    0.19086   0.19737   0.20151   0.23060   0.24905
 Alpha virt. eigenvalues --    0.25508   0.25897   0.26671   0.30607   0.32313
 Alpha virt. eigenvalues --    0.33644   0.34701   0.34919   0.35505   0.36944
 Alpha virt. eigenvalues --    0.37989   0.39402   0.39650   0.40795   0.40919
 Alpha virt. eigenvalues --    0.43795   0.44257   0.44650   0.44863   0.45795
 Alpha virt. eigenvalues --    0.46117   0.46492   0.46750   0.47972   0.48792
 Alpha virt. eigenvalues --    0.49298   0.49558   0.50465   0.51031   0.51504
 Alpha virt. eigenvalues --    0.52298   0.52543   0.52955   0.54110   0.54426
 Alpha virt. eigenvalues --    0.56529   0.57730   0.57849   0.58038   0.59197
 Alpha virt. eigenvalues --    0.60251   0.70010   0.71096   0.71609   0.76234
 Alpha virt. eigenvalues --    0.80871   0.81743   0.84948   0.88104   0.90084
 Alpha virt. eigenvalues --    0.90460   0.90841   0.91690   0.95177   2.14824
 Alpha virt. eigenvalues --    2.17128   2.26196   2.29786   2.31707   2.36126
 Alpha virt. eigenvalues --    2.36353   4.41370   4.42305   4.44401   4.44582
 Alpha virt. eigenvalues --    4.47056   4.47429   4.50162   4.50522   4.53304
 Alpha virt. eigenvalues --    4.57296   4.62649   4.71224   4.72221   4.75902
 Alpha virt. eigenvalues --    4.80471   4.86367   4.87287   4.90832   4.93635
 Alpha virt. eigenvalues --    4.96866   4.98344  96.39105  96.45297  96.53700
 Alpha virt. eigenvalues --   96.58939  96.62177  96.68830  96.69560
  Beta  occ. eigenvalues --  -38.45582 -38.45580 -38.45283 -38.45277 -38.44496
  Beta  occ. eigenvalues --  -38.43050 -38.43048  -2.22024  -2.22000  -2.21604
  Beta  occ. eigenvalues --   -2.21452  -2.20558  -2.19315  -2.19308  -1.16257
  Beta  occ. eigenvalues --   -1.16152  -1.15972  -1.15785  -1.15715  -1.15672
  Beta  occ. eigenvalues --   -1.15621  -1.15094  -1.15090  -1.14981  -1.14926
  Beta  occ. eigenvalues --   -1.14742  -1.14231  -1.14210  -1.14063  -1.13076
  Beta  occ. eigenvalues --   -1.13069  -1.12937  -1.12896  -1.12816  -1.12808
  Beta  occ. eigenvalues --   -0.21783  -0.13968  -0.11894
  Beta virt. eigenvalues --   -0.09032  -0.05481  -0.03474  -0.03469  -0.03339
  Beta virt. eigenvalues --   -0.02227  -0.02100  -0.01195  -0.00115  -0.00091
  Beta virt. eigenvalues --    0.00311   0.00820   0.01133   0.01146   0.01251
  Beta virt. eigenvalues --    0.01321   0.01466   0.01490   0.01573   0.01620
  Beta virt. eigenvalues --    0.01757   0.01819   0.01865   0.01901   0.02006
  Beta virt. eigenvalues --    0.02028   0.02711   0.02989   0.03023   0.03048
  Beta virt. eigenvalues --    0.03085   0.03109   0.03225   0.03289   0.03593
  Beta virt. eigenvalues --    0.03611   0.03962   0.04038   0.04187   0.04283
  Beta virt. eigenvalues --    0.04791   0.05150   0.05174   0.05557   0.05570
  Beta virt. eigenvalues --    0.05616   0.05822   0.06103   0.06516   0.06563
  Beta virt. eigenvalues --    0.06892   0.07025   0.07121   0.07838   0.08110
  Beta virt. eigenvalues --    0.09258   0.09292   0.09577   0.10463   0.10573
  Beta virt. eigenvalues --    0.10627   0.11323   0.12300   0.12904   0.13406
  Beta virt. eigenvalues --    0.14047   0.14127   0.14229   0.14415   0.14576
  Beta virt. eigenvalues --    0.14655   0.15802   0.16449   0.16667   0.17563
  Beta virt. eigenvalues --    0.17837   0.19506   0.20001   0.20517   0.23354
  Beta virt. eigenvalues --    0.25755   0.25933   0.26371   0.26959   0.31120
  Beta virt. eigenvalues --    0.32762   0.34047   0.34727   0.35600   0.35880
  Beta virt. eigenvalues --    0.37324   0.38263   0.39629   0.39991   0.41158
  Beta virt. eigenvalues --    0.41276   0.43958   0.44401   0.44964   0.45019
  Beta virt. eigenvalues --    0.46000   0.46102   0.46673   0.46857   0.48111
  Beta virt. eigenvalues --    0.49364   0.49480   0.49818   0.50507   0.51332
  Beta virt. eigenvalues --    0.51602   0.52392   0.52573   0.53166   0.54396
  Beta virt. eigenvalues --    0.54828   0.57190   0.57742   0.58126   0.58657
  Beta virt. eigenvalues --    0.59782   0.60532   0.70442   0.71117   0.71791
  Beta virt. eigenvalues --    0.76319   0.81073   0.82207   0.85309   0.88055
  Beta virt. eigenvalues --    0.90343   0.90664   0.91109   0.91916   0.95555
  Beta virt. eigenvalues --    2.14854   2.17338   2.26249   2.29792   2.31850
  Beta virt. eigenvalues --    2.36403   2.36737   4.41414   4.42425   4.44434
  Beta virt. eigenvalues --    4.44658   4.47187   4.47494   4.50253   4.50569
  Beta virt. eigenvalues --    4.53397   4.57407   4.62683   4.71262   4.72356
  Beta virt. eigenvalues --    4.75932   4.80565   4.86516   4.87369   4.90936
  Beta virt. eigenvalues --    4.93749   4.96957   4.98361  96.39121  96.45371
  Beta virt. eigenvalues --   96.53731  96.58952  96.62257  96.68914  96.69680
          Condensed to atoms (all electrons):
               1          2          3          4          5          6
     1  Na  16.449986  -0.561313  -4.382647  -0.551715  -3.046553   5.193276
     2  Na  -0.561313  11.945802  -0.460239  -0.286737   0.264408  -0.568226
     3  Na  -4.382647  -0.460239  16.927174  -0.465591   1.858118  -4.379858
     4  Na  -0.551715  -0.286737  -0.465591  11.939960   0.260999  -0.559282
     5  Na  -3.046553   0.264408   1.858118   0.260999  13.467747  -2.365060
     6  Na   5.193276  -0.568226  -4.379858  -0.559282  -2.365060  16.482381
     7  Na  -2.371081   0.267822   1.871725   0.263861   1.251343  -3.078273
               7
     1  Na  -2.371081
     2  Na   0.267822
     3  Na   1.871725
     4  Na   0.263861
     5  Na   1.251343
     6  Na  -3.078273
     7  Na  13.476997
          Atomic-Atomic Spin Densities.
               1          2          3          4          5          6
     1  Na   0.513310  -0.015349  -0.202775  -0.017777  -0.469806   0.004442
     2  Na  -0.015349  -0.055615   0.204431  -0.086186   0.062925  -0.018447
     3  Na  -0.202775   0.204431  -0.260752   0.200090   0.119209  -0.196429
     4  Na  -0.017777  -0.086186   0.200090  -0.051668   0.066386  -0.016882
     5  Na  -0.469806   0.062925   0.119209   0.066386   0.789576   0.186108
     6  Na   0.004442  -0.018447  -0.196429  -0.016882   0.186108   0.506876
     7  Na   0.187966   0.068558   0.107971   0.065459  -0.397787  -0.465269
               7
     1  Na   0.187966
     2  Na   0.068558
     3  Na   0.107971
     4  Na   0.065459
     5  Na  -0.397787
     6  Na  -0.465269
     7  Na   0.784597
 Mulliken charges and spin densities:
               1          2
     1  Na   0.270049   0.000011
     2  Na   0.398485   0.160318
     3  Na   0.031318  -0.028255
     4  Na   0.398504   0.159423
     5  Na  -0.691002   0.356610
     6  Na   0.275042   0.000399
     7  Na  -0.682395   0.351495
 Sum of Mulliken charges =  -0.00000   1.00000
 Mulliken charges and spin densities with hydrogens summed into heavy atoms:
               1          2
     1  Na   0.270049   0.000011
     2  Na   0.398485   0.160318
     3  Na   0.031318  -0.028255
     4  Na   0.398504   0.159423
     5  Na  -0.691002   0.356610
     6  Na   0.275042   0.000399
     7  Na  -0.682395   0.351495
 Electronic spatial extent (au):  <R**2>=           1386.4412
 Charge=             -0.0000 electrons
 Dipole moment (field-independent basis, Debye):
    X=             -0.2662    Y=             -0.0035    Z=              0.0009  Tot=              0.2662
 Quadrupole moment (field-independent basis, Debye-Ang):
   XX=            -58.5916   YY=            -63.6717   ZZ=            -76.2550
   XY=              0.0049   XZ=             -0.0010   YZ=             -0.0582
 Traceless Quadrupole moment (field-independent basis, Debye-Ang):
   XX=              7.5812   YY=              2.5011   ZZ=            -10.0822
   XY=              0.0049   XZ=             -0.0010   YZ=             -0.0582
 Octapole moment (field-independent basis, Debye-Ang**2):
  XXX=            -16.1281  YYY=              0.0212  ZZZ=              0.0373  XYY=              5.0910
  XXY=             -0.1312  XXZ=             -0.0302  XZZ=             -1.4351  YZZ=             -0.0115
  YYZ=              0.0042  XYZ=              0.0117
 Hexadecapole moment (field-independent basis, Debye-Ang**3):
 XXXX=           -935.8043 YYYY=           -669.5672 ZZZZ=           -758.3474 XXXY=              0.0987
 XXXZ=             -0.2031 YYYX=              0.0358 YYYZ=             -0.0013 ZZZX=              0.2833
 ZZZY=             -1.0636 XXYY=           -273.6118 XXZZ=           -355.7883 YYZZ=           -272.7224
 XXYZ=              0.1125 YYXZ=             -0.1288 ZZXY=              0.0104
 N-N= 4.424026022385D+02 E-N=-3.613751519141D+03  KE= 1.133794692128D+03
                          Isotropic Fermi Contact Couplings
        Atom                 a.u.       MegaHertz       Gauss      10(-4) cm-1
     1  Na(23)             0.16764     198.32518      70.76735      66.15416
     2  Na(23)            -0.02077     -24.57067      -8.76743      -8.19589
     3  Na(23)            -0.00476      -5.62898      -2.00856      -1.87762
     4  Na(23)            -0.02086     -24.68230      -8.80726      -8.23313
     5  Na(23)             0.34516     408.33443     145.70388     136.20570
     6  Na(23)             0.16525     195.49933      69.75902      65.21156
     7  Na(23)             0.34368     406.58847     145.08088     135.62332
 --------------------------------------------------------
       Center         ----  Spin Dipole Couplings  ----
                      3XX-RR        3YY-RR        3ZZ-RR
 --------------------------------------------------------
     1   Atom        0.018976     -0.000460     -0.018515
     2   Atom       -0.040478      0.080056     -0.039578
     3   Atom       -0.012525      0.030084     -0.017559
     4   Atom       -0.040408      0.079942     -0.039534
     5   Atom        0.020460     -0.016003     -0.004457
     6   Atom        0.018623     -0.000002     -0.018621
     7   Atom        0.020523     -0.015879     -0.004644
 --------------------------------------------------------
                        XY            XZ            YZ
 --------------------------------------------------------
     1   Atom       -0.042817      0.000398     -0.000285
     2   Atom        0.000121     -0.000380      0.001111
     3   Atom       -0.000313     -0.000004     -0.000187
     4   Atom       -0.000119      0.000386      0.000934
     5   Atom       -0.026122      0.000350     -0.000245
     6   Atom        0.042850     -0.000538     -0.000494
     7   Atom        0.026513     -0.000560     -0.000403
 --------------------------------------------------------


 ---------------------------------------------------------------------------------
              Anisotropic Spin Dipole Couplings in Principal Axis System
 ---------------------------------------------------------------------------------

       Atom             a.u.   MegaHertz   Gauss  10(-4) cm-1        Axes

              Baa    -0.0346    -4.893    -1.746    -1.632  0.6240  0.7814 -0.0016
     1 Na(23) Bbb    -0.0185    -2.615    -0.933    -0.872 -0.0043  0.0055  1.0000
              Bcc     0.0532     7.508     2.679     2.504  0.7814 -0.6239  0.0068
 
              Baa    -0.0406    -5.736    -2.047    -1.913  0.9381 -0.0041  0.3464
     2 Na(23) Bbb    -0.0394    -5.571    -1.988    -1.858 -0.3464 -0.0084  0.9381
              Bcc     0.0801    11.306     4.034     3.771  0.0010  1.0000  0.0093
 
              Baa    -0.0176    -2.480    -0.885    -0.827  0.0010  0.0039  1.0000
     3 Na(23) Bbb    -0.0125    -1.769    -0.631    -0.590  1.0000  0.0073 -0.0010
              Bcc     0.0301     4.249     1.516     1.417 -0.0073  1.0000 -0.0039
 
              Baa    -0.0406    -5.727    -2.044    -1.910  0.9345  0.0037 -0.3560
     4 Na(23) Bbb    -0.0394    -5.563    -1.985    -1.856  0.3560 -0.0070  0.9344
              Bcc     0.0799    11.290     4.029     3.766 -0.0010  1.0000  0.0078
 
              Baa    -0.0296    -4.184    -1.493    -1.396  0.4624  0.8867  0.0022
     5 Na(23) Bbb    -0.0045    -0.630    -0.225    -0.210 -0.0107  0.0031  0.9999
              Bcc     0.0341     4.814     1.718     1.606  0.8866 -0.4624  0.0110
 
              Baa    -0.0345    -4.877    -1.740    -1.627 -0.6275  0.7786  0.0029
     6 Na(23) Bbb    -0.0186    -2.631    -0.939    -0.877  0.0098  0.0041  0.9999
              Bcc     0.0532     7.508     2.679     2.504  0.7785  0.6275 -0.0102
 
              Baa    -0.0298    -4.214    -1.503    -1.405 -0.4658  0.8849  0.0038
     7 Na(23) Bbb    -0.0047    -0.657    -0.235    -0.219  0.0172  0.0048  0.9998
              Bcc     0.0345     4.871     1.738     1.625  0.8847  0.4658 -0.0175
 

 ---------------------------------------------------------------------------------

 No NMR shielding tensors so no spin-rotation constants.
 Leave Link  601 at Mon Nov 13 12:30:08 2023, MaxMem=  1879048192 cpu:               2.6 elap:               0.2
 (Enter /home/sekinelabo/g16/l701.exe)
 ... and contract with generalized density number  0.
 Compute integral first derivatives.
 Leave Link  701 at Mon Nov 13 12:30:08 2023, MaxMem=  1879048192 cpu:               1.7 elap:               0.1
 (Enter /home/sekinelabo/g16/l702.exe)
 L702 exits ... SP integral derivatives will be done elsewhere.
 Leave Link  702 at Mon Nov 13 12:30:08 2023, MaxMem=  1879048192 cpu:               0.5 elap:               0.0
 (Enter /home/sekinelabo/g16/l703.exe)
 Integral derivatives from FoFJK, PRISM(SPDF).
 Compute integral first derivatives, UseDBF=F ICtDFT=           0.
 Calling FoFJK, ICntrl=      2127 FMM=F ISym2X=0 I1Cent= 0 IOpClX= 1 NMat=1 NMatS=1 NMatT=0.
 FoFJK:  IHMeth= 1 ICntrl=    2127 DoSepK=F KAlg= 0 I1Cent=           0 FoldK=F
 IRaf=         0 NMat=       1 IRICut=       1 DoRegI=T DoRafI=F ISym2E= 0 IDoP0=0 IntGTp=1.
 FoFCou: FMM=F IPFlag=           0 FMFlag=      100000 FMFlg1=         800
         NFxFlg=           0 DoJE=F BraDBF=F KetDBF=F FulRan=T
         wScrn=  0.000000 ICntrl=      2127 IOpCl=  1 I1Cent=           0 NGrid=           0
         NMat0=    1 NMatS0=      1 NMatT0=    0 NMatD0=    1 NMtDS0=    0 NMtDT0=    0
 Symmetry not used in FoFCou.
 Leave Link  703 at Mon Nov 13 12:30:11 2023, MaxMem=  1879048192 cpu:              38.7 elap:               2.5
 (Enter /home/sekinelabo/g16/l716.exe)
 Dipole        =-1.04716815D-01-1.36682704D-03 3.55325752D-04
 ***** Axes restored to original set *****
 -------------------------------------------------------------------
 Center     Atomic                   Forces (Hartrees/Bohr)
 Number     Number              X              Y              Z
 -------------------------------------------------------------------
      1       11          -0.030736069   -0.024925275    0.000099024
      2       11           0.000293139   -0.000136782   -0.040911225
      3       11           0.025582555    0.000135712    0.000001045
      4       11           0.000140662    0.000141084    0.040886041
      5       11           0.017704119    0.033304324   -0.000158942
      6       11          -0.030839948    0.024719594   -0.000244328
      7       11           0.017855542   -0.033238656    0.000328385
 -------------------------------------------------------------------
 Cartesian Forces:  Max     0.040911225 RMS     0.021794066
 Z-matrix is all fixed cartesians, so copy forces.
 Force constants in Cartesian coordinates: 
                1             2             3             4             5 
      1  0.282363D+00
      2  0.331754D-01  0.284845D+00
      3 -0.140510D-03  0.122544D-03  0.270384D+00
      4 -0.500893D-01 -0.446453D-02  0.494410D-01  0.253658D+00
      5 -0.858546D-02 -0.448999D-01  0.394098D-01 -0.319328D-04  0.245340D+00
      6 -0.240985D-01 -0.156192D-01 -0.574681D-01  0.540735D-02  0.713252D-03
      7 -0.125520D-01 -0.522880D-02 -0.316212D-04 -0.242679D-01  0.756121D-04
      8 -0.124990D-01  0.231067D-01  0.283691D-03 -0.316001D-03 -0.863518D-02
      9 -0.712308D-04  0.244348D-03  0.515204D-01 -0.495588D-01 -0.320309D-03
     10 -0.498770D-01 -0.506044D-02 -0.493356D-01  0.341431D-01 -0.185433D-04
     11 -0.814531D-02 -0.450009D-01 -0.395729D-01 -0.372727D-04  0.219391D-01
     12  0.242043D-01  0.154328D-01 -0.572155D-01 -0.140253D-02 -0.370794D-03
     13 -0.394078D-02 -0.407089D-01  0.120911D-03 -0.819511D-01 -0.168535D-02
     14 -0.123478D-01 -0.184144D-01  0.166359D-03 -0.112106D-02 -0.849433D-01
     15  0.743342D-05  0.921678D-04  0.285897D-01 -0.264275D-01 -0.784299D-01
     16 -0.495671D-01 -0.424618D-01  0.302096D-03 -0.498075D-01  0.830354D-02
     17  0.429284D-01 -0.122953D+00  0.254733D-03  0.504552D-02 -0.446611D-01
     18 -0.121782D-03  0.810388D-05 -0.966556D-01  0.494580D-01 -0.391560D-01
     19 -0.116337D+00  0.647491D-01 -0.356355D-03 -0.816858D-01  0.194213D-02
     20 -0.345262D-01 -0.766835D-01 -0.664256D-03  0.925268D-03 -0.841399D-01
     21  0.220221D-03 -0.280739D-03 -0.139155D+00 -0.269176D-01  0.781539D-01
                6             7             8             9            10 
      6  0.357333D+00
      7  0.210594D-01  0.204334D+00
      8 -0.130805D-03  0.289813D-03  0.146812D+00
      9 -0.371265D-01 -0.398262D-04  0.234559D-03  0.186277D+00
     10  0.168780D-02 -0.240342D-01  0.224591D-03  0.495551D-01  0.253465D+00
     11 -0.331515D-03 -0.160073D-03 -0.827845D-02  0.281466D-05 -0.928430D-04
     12 -0.440052D-01 -0.208958D-01 -0.183565D-03 -0.366968D-01 -0.571138D-02
     13  0.100404D-01 -0.654119D-01  0.582788D-01 -0.166957D-03 -0.821369D-01
     14  0.195411D-01 -0.266679D-01 -0.878995D-01 -0.230819D-04 -0.840947D-03
     15 -0.805376D-01  0.126046D-03  0.000000D+00 -0.107887D+00  0.264295D-01
     16 -0.243567D-01 -0.126149D-01  0.122647D-01 -0.183667D-03 -0.496735D-01
     17  0.153827D-01  0.500876D-02  0.231482D-01  0.716557D-04  0.459278D-02
     18 -0.571244D-01 -0.755907D-04  0.287914D-04  0.516223D-01 -0.494950D-01
     19  0.102603D-01 -0.654527D-01 -0.582430D-01  0.465370D-03 -0.818861D-01
     20 -0.195555D-01  0.266826D-01 -0.882538D-01 -0.209986D-03  0.119540D-02
     21 -0.810717D-01 -0.142568D-03 -0.232837D-03 -0.107709D+00  0.268696D-01
               11            12            13            14            15 
     11  0.245135D+00
     12  0.461807D-03  0.356899D+00
     13 -0.205387D-02 -0.100966D-01  0.359393D+00
     14 -0.845171D-01 -0.195913D-01  0.288248D-01  0.415116D+00
     15  0.784706D-01 -0.811660D-01 -0.175445D-03 -0.120179D-03  0.402017D+00
     16  0.842144D-02  0.242714D-01 -0.116130D+00  0.342092D-01 -0.141466D-03
     17 -0.443462D-01 -0.154691D-01 -0.650419D-01 -0.768540D-01 -0.388566D-03
     18  0.390425D-01 -0.574473D-01  0.324038D-03 -0.434696D-04 -0.139138D+00
     19  0.206793D-02 -0.103694D-01 -0.982269D-02 -0.220563D-01  0.181455D-03
     20 -0.849314D-01  0.197201D-01  0.223864D-01 -0.624875D-01  0.375743D-03
     21 -0.780733D-01 -0.803686D-01 -0.463417D-04  0.705529D-04 -0.218770D-01
               16            17            18            19            20 
     16  0.281912D+00
     17 -0.332057D-01  0.283554D+00
     18  0.230758D-03 -0.228822D-03  0.269856D+00
     19 -0.411953D-02  0.406721D-01 -0.320405D-03  0.359304D+00
     20  0.124686D-01 -0.178876D-01  0.348853D-03 -0.291320D-01  0.414384D+00
     21 -0.122418D-03  0.377384D-03  0.288879D-01  0.139090D-03 -0.149641D-04
               21 
     21  0.401293D+00
 Leave Link  716 at Mon Nov 13 12:30:11 2023, MaxMem=  1879048192 cpu:               0.5 elap:               0.0
 (Enter /home/sekinelabo/g16/l103.exe)

 GradGradGradGradGradGradGradGradGradGradGradGradGradGradGradGradGradGrad
 Berny optimization.
 Search for a local minimum.
 Step number   1 out of a maximum of    2
 All quantities printed in internal units (Hartrees-Bohrs-Radians)
 Second derivative matrix not updated -- first step.
 ITU=  0
     Eigenvalues ---    0.19851   0.24181   0.28795   0.32190   0.37126
     Eigenvalues ---    0.37335   0.37368   0.41039   0.44488   0.47552
     Eigenvalues ---    0.48659   0.52392   0.53411   0.55060   0.58091
 Quadratic step=4.113D-01 exceeds max=3.000D-01 adjusted using Lamda=-8.376D-02.
 Angle between NR and scaled steps=   3.35 degrees.
 Angle between quadratic step and forces=  11.89 degrees.
 Linear search not attempted -- first point.
 B after Tr=     0.000000    0.000000    0.000000
         Rot=    1.000000   -0.000000    0.000000    0.000000 Ang=   0.00 deg.
 Variable       Old X    -DE/DX   Delta X   Delta X   Delta X     New X
                                 (Linear)    (Quad)   (Total)
    X1        0.02293  -0.03074   0.00000  -0.10241  -0.10241  -0.07948
    Y1        0.59385  -0.02493   0.00000  -0.07059  -0.07059   0.52326
    Z1        3.72033   0.00010   0.00000   0.00025   0.00025   3.72057
    X2        3.41725   0.00029   0.00000  -0.00024  -0.00024   3.41701
    Y2        2.95172  -0.00014   0.00000  -0.00047  -0.00047   2.95125
    Z2        0.00000  -0.04091   0.00000  -0.11303  -0.11303  -0.11303
    X3        8.85043   0.02558   0.00000   0.12725   0.12725   8.97768
    Y3        2.98687   0.00014   0.00000   0.00044   0.00044   2.98730
    Z3        3.71528   0.00000   0.00000   0.00001   0.00001   3.71529
    X4        3.40063   0.00014   0.00000  -0.00070  -0.00070   3.39993
    Y4        2.99218   0.00014   0.00000   0.00044   0.00044   2.99262
    Z4        7.43459   0.04089   0.00000   0.11310   0.11310   7.54769
    X5        4.73675   0.01770   0.00000   0.03922   0.03922   4.77597
    Y5        5.94885   0.03330   0.00000   0.08418   0.08418   6.03302
    Z5        3.70495  -0.00016   0.00000  -0.00038  -0.00038   3.70458
    X6        0.00000  -0.03084   0.00000  -0.10294  -0.10294  -0.10294
    Y6        5.33798   0.02472   0.00000   0.07013   0.07013   5.40811
    Z6        3.69649  -0.00024   0.00000  -0.00068  -0.00068   3.69580
    X7        4.76117   0.01786   0.00000   0.03981   0.03981   4.80097
    Y7        0.00000  -0.03324   0.00000  -0.08412  -0.08412  -0.08412
    Z7        3.73654   0.00033   0.00000   0.00074   0.00074   3.73728
         Item               Value     Threshold  Converged?
 Maximum Force            0.040911     0.000450     NO 
 RMS     Force            0.021794     0.000300     NO 
 Maximum Displacement     0.127251     0.001800     NO 
 RMS     Displacement     0.065477     0.001200     NO 
 Predicted change in Energy=-1.843241D-02
 GradGradGradGradGradGradGradGradGradGradGradGradGradGradGradGradGradGrad

 Leave Link  103 at Mon Nov 13 12:30:11 2023, MaxMem=  1879048192 cpu:               0.3 elap:               0.0
 (Enter /home/sekinelabo/g16/l9999.exe)
 1\1\GINC-SEKINELABO-XA7R-R37\Force\UB3LYP\6-311+G(d)\Na7(2)\SEKINELABO
 \13-Nov-2023\0\\#P B3LYP/6-311+g(d) force\\Gaussian input prepared by 
 ASE\\0,2\Na,0.0121327474,0.3142496973,1.9687133471\Na,1.8083307703,1.5
 619836294,0.\Na,4.6834464398,1.5805815243,1.9660439405\Na,1.7995340077
 ,1.5833937358,3.9342145536\Na,2.506581141,3.1479942659,1.9605765854\Na
 ,0.,2.8247378167,1.9560971912\Na,2.5195001076,0.,1.9772920319\\Version
 =ES64L-G16RevB.01\State=2-A\HF=-1136.0181232\S2=0.760586\S2-1=0.\S2A=0
 .750053\RMSD=4.329e-09\RMSF=2.179e-02\Dipole=0.1047168,0.0013668,0.000
 3553\Quadrupole=5.6364231,1.8594763,-7.4958994,0.0036495,0.0007429,0.0
 432578\PG=C01 [X(Na7)]\\@


 WE STILL HAVE JUDGEMENT HERE,
 THAT WE TEACH BUT BLOODY INSTRUCTIONS,
 WHICH, BEING TAUGHT,
 RETURN TO PLAGUE THE INVENTOR.
           MACBETH ACT I, SCENE VII
 Job cpu time:       0 days  0 hours  5 minutes  5.4 seconds.
 Elapsed time:       0 days  0 hours  0 minutes 24.9 seconds.
 File lengths (MBytes):  RWF=     32 Int=      0 D2E=      0 Chk=      5 Scr=      1
 Normal termination of Gaussian 16 at Mon Nov 13 12:30:11 2023.
