 Entering Gaussian System, Link 0=g16
 Initial command:
 /home/sekinelabo/g16/l1.exe "/home/sekinelabo/g16temp/Gau-3986761.inp" -scrdir="/home/sekinelabo/g16temp/"
 Entering Link 1 = /home/sekinelabo/g16/l1.exe PID=   3986763.
  
 Copyright (c) 1988-2017, Gaussian, Inc.  All Rights Reserved.
  
 This is part of the Gaussian(R) 16 program.  It is based on
 the Gaussian(R) 09 system (copyright 2009, Gaussian, Inc.),
 the Gaussian(R) 03 system (copyright 2003, Gaussian, Inc.),
 the Gaussian(R) 98 system (copyright 1998, Gaussian, Inc.),
 the Gaussian(R) 94 system (copyright 1995, Gaussian, Inc.),
 the Gaussian 92(TM) system (copyright 1992, Gaussian, Inc.),
 the Gaussian 90(TM) system (copyright 1990, Gaussian, Inc.),
 the Gaussian 88(TM) system (copyright 1988, Gaussian, Inc.),
 the Gaussian 86(TM) system (copyright 1986, Carnegie Mellon
 University), and the Gaussian 82(TM) system (copyright 1983,
 Carnegie Mellon University). Gaussian is a federally registered
 trademark of Gaussian, Inc.
  
 This software contains proprietary and confidential information,
 including trade secrets, belonging to Gaussian, Inc.
  
 This software is provided under written license and may be
 used, copied, transmitted, or stored only in accord with that
 written license.
  
 The following legend is applicable only to US Government
 contracts under FAR:
  
                    RESTRICTED RIGHTS LEGEND
  
 Use, reproduction and disclosure by the US Government is
 subject to restrictions as set forth in subparagraphs (a)
 and (c) of the Commercial Computer Software - Restricted
 Rights clause in FAR 52.227-19.
  
 Gaussian, Inc.
 340 Quinnipiac St., Bldg. 40, Wallingford CT 06492
  
  
 ---------------------------------------------------------------
 Warning -- This program may not be used in any manner that
 competes with the business of Gaussian, Inc. or will provide
 assistance to any competitor of Gaussian, Inc.  The licensee
 of this program is prohibited from giving any competitor of
 Gaussian, Inc. access to this program.  By using this program,
 the user acknowledges that Gaussian, Inc. is engaged in the
 business of creating and licensing software in the field of
 computational chemistry and represents and warrants to the
 licensee that it is not a competitor of Gaussian, Inc. and that
 it will not use this program in any manner prohibited above.
 ---------------------------------------------------------------
  

 Cite this work as:
 Gaussian 16, Revision B.01,
 M. J. Frisch, G. W. Trucks, H. B. Schlegel, G. E. Scuseria, 
 M. A. Robb, J. R. Cheeseman, G. Scalmani, V. Barone, 
 G. A. Petersson, H. Nakatsuji, X. Li, M. Caricato, A. V. Marenich, 
 J. Bloino, B. G. Janesko, R. Gomperts, B. Mennucci, H. P. Hratchian, 
 J. V. Ortiz, A. F. Izmaylov, J. L. Sonnenberg, D. Williams-Young, 
 F. Ding, F. Lipparini, F. Egidi, J. Goings, B. Peng, A. Petrone, 
 T. Henderson, D. Ranasinghe, V. G. Zakrzewski, J. Gao, N. Rega, 
 G. Zheng, W. Liang, M. Hada, M. Ehara, K. Toyota, R. Fukuda, 
 J. Hasegawa, M. Ishida, T. Nakajima, Y. Honda, O. Kitao, H. Nakai, 
 T. Vreven, K. Throssell, J. A. Montgomery, Jr., J. E. Peralta, 
 F. Ogliaro, M. J. Bearpark, J. J. Heyd, E. N. Brothers, K. N. Kudin, 
 V. N. Staroverov, T. A. Keith, R. Kobayashi, J. Normand, 
 K. Raghavachari, A. P. Rendell, J. C. Burant, S. S. Iyengar, 
 J. Tomasi, M. Cossi, J. M. Millam, M. Klene, C. Adamo, R. Cammi, 
 J. W. Ochterski, R. L. Martin, K. Morokuma, O. Farkas, 
 J. B. Foresman, and D. J. Fox, Gaussian, Inc., Wallingford CT, 2016.
 
 ******************************************
 Gaussian 16:  ES64L-G16RevB.01 20-Dec-2017
                13-Nov-2023 
 ******************************************
 %mem=14GB
 %chk=checkpoint.chk
 %nprocshared=16
 Will use up to   16 processors via shared memory.
 -------------------------
 #P B3LYP/6-311+g(d) force
 -------------------------
 1/10=7,30=1,38=1/1,3;
 2/12=2,17=6,18=5,40=1/2;
 3/5=4,6=6,7=11,11=2,25=1,30=1,71=1,74=-5/1,2,3;
 4//1;
 5/5=2,38=5/2;
 6/7=2,8=2,9=2,10=2,28=1/1;
 7/29=1/1,2,3,16;
 1/10=7,30=1/3;
 99//99;
 Leave Link    1 at Mon Nov 13 12:27:06 2023, MaxMem=  1879048192 cpu:               0.3 elap:               0.0
 (Enter /home/sekinelabo/g16/l101.exe)
 ------------------------------
 Gaussian input prepared by ASE
 ------------------------------
 Symbolic Z-matrix:
 Charge =  0 Multiplicity = 2
 Na                    0.        1.37911   2.2992 
 Na                    2.78821   1.75656   2.40174 
 Na                    3.60226   1.06214   0. 
 Na                    4.9456    2.3612    3.76853 
 Na                    3.11935   4.41059   1.46728 
 Na                    5.4439    2.81729   1.21304 
 Na                    5.23149   0.        2.14101 
 
 ITRead=  0  0  0  0  0  0  0
 MicOpt= -1 -1 -1 -1 -1 -1 -1
 NAtoms=      7 NQM=        7 NQMF=       0 NMMI=      0 NMMIF=      0
                NMic=       0 NMicF=      0.
                    Isotopes and Nuclear Properties:
 (Nuclear quadrupole moments (NQMom) in fm**2, nuclear magnetic moments (NMagM)
  in nuclear magnetons)

  Atom         1           2           3           4           5           6           7
 IAtWgt=          23          23          23          23          23          23          23
 AtmWgt=  22.9897697  22.9897697  22.9897697  22.9897697  22.9897697  22.9897697  22.9897697
 NucSpn=           3           3           3           3           3           3           3
 AtZEff=  -0.0000000  -0.0000000  -0.0000000  -0.0000000  -0.0000000  -0.0000000  -0.0000000
 NQMom=   10.4000000  10.4000000  10.4000000  10.4000000  10.4000000  10.4000000  10.4000000
 NMagM=    2.2175200   2.2175200   2.2175200   2.2175200   2.2175200   2.2175200   2.2175200
 AtZNuc=  11.0000000  11.0000000  11.0000000  11.0000000  11.0000000  11.0000000  11.0000000
 Leave Link  101 at Mon Nov 13 12:27:07 2023, MaxMem=  1879048192 cpu:               3.4 elap:               0.2
 (Enter /home/sekinelabo/g16/l103.exe)

 GradGradGradGradGradGradGradGradGradGradGradGradGradGradGradGradGradGrad
 Berny optimization.
 Initialization pass.
 Trust Radius=3.00D-01 FncErr=1.00D-07 GrdErr=1.00D-07 EigMax=2.50D+02 EigMin=1.00D-04
 Number of steps in this run=      2 maximum allowed number of steps=      2.
 GradGradGradGradGradGradGradGradGradGradGradGradGradGradGradGradGradGrad

 Leave Link  103 at Mon Nov 13 12:27:07 2023, MaxMem=  1879048192 cpu:               0.3 elap:               0.0
 (Enter /home/sekinelabo/g16/l202.exe)
                          Input orientation:                          
 ---------------------------------------------------------------------
 Center     Atomic      Atomic             Coordinates (Angstroms)
 Number     Number       Type             X           Y           Z
 ---------------------------------------------------------------------
      1         11           0        0.000000    1.379106    2.299196
      2         11           0        2.788213    1.756562    2.401743
      3         11           0        3.602260    1.062137    0.000000
      4         11           0        4.945599    2.361199    3.768533
      5         11           0        3.119353    4.410592    1.467279
      6         11           0        5.443897    2.817286    1.213039
      7         11           0        5.231493    0.000000    2.141007
 ---------------------------------------------------------------------
                    Distance matrix (angstroms):
                    1          2          3          4          5
     1  Na   0.000000
     2  Na   2.815514   0.000000
     3  Na   4.285213   2.629310   0.000000
     4  Na   5.251896   2.624503   4.206419   0.000000
     5  Na   4.428584   2.833152   3.687582   3.582032   0.000000
     6  Na   5.734467   3.096903   2.818446   2.643267   2.829623
     7  Na   5.412530   3.020449   2.892481   2.881985   4.936433
                    6          7
     6  Na   0.000000
     7  Na   2.973775   0.000000
 Stoichiometry    Na7(2)
 Framework group  C1[X(Na7)]
 Deg. of freedom    15
 Full point group                 C1      NOp   1
 Largest Abelian subgroup         C1      NOp   1
 Largest concise Abelian subgroup C1      NOp   1
                         Standard orientation:                         
 ---------------------------------------------------------------------
 Center     Atomic      Atomic             Coordinates (Angstroms)
 Number     Number       Type             X           Y           Z
 ---------------------------------------------------------------------
      1         11           0        3.590116   -0.590448   -0.400510
      2         11           0        0.801903   -0.212992   -0.503058
      3         11           0       -0.012144   -0.907418    1.898685
      4         11           0       -1.355483    0.391644   -1.869847
      5         11           0        0.470763    2.441038    0.431406
      6         11           0       -1.853780    0.847731    0.685646
      7         11           0       -1.641376   -1.969555   -0.242322
 ---------------------------------------------------------------------
 Rotational constants (GHZ):           1.0905780           0.7339469           0.6532976
 Leave Link  202 at Mon Nov 13 12:27:07 2023, MaxMem=  1879048192 cpu:               0.0 elap:               0.0
 (Enter /home/sekinelabo/g16/l301.exe)
 Standard basis: 6-311+G(d) (5D, 7F)
 Ernie: Thresh=  0.10000D-02 Tol=  0.10000D-05 Strict=F.
 There are   217 symmetry adapted cartesian basis functions of A   symmetry.
 There are   210 symmetry adapted basis functions of A   symmetry.
   210 basis functions,   350 primitive gaussians,   217 cartesian basis functions
    39 alpha electrons       38 beta electrons
       nuclear repulsion energy       399.4445415662 Hartrees.
 IExCor=  402 DFT=T Ex+Corr=B3LYP ExCW=0 ScaHFX=  0.200000
 ScaDFX=  0.800000  0.720000  1.000000  0.810000 ScalE2=  1.000000  1.000000
 IRadAn=      5 IRanWt=     -1 IRanGd=            0 ICorTp=0 IEmpDi=  4
 NAtoms=    7 NActive=    7 NUniq=    7 SFac= 1.00D+00 NAtFMM=   60 NAOKFM=F Big=F
 Integral buffers will be    131072 words long.
 Raffenetti 2 integral format.
 Two-electron integral symmetry is turned on.
 Leave Link  301 at Mon Nov 13 12:27:07 2023, MaxMem=  1879048192 cpu:               0.5 elap:               0.0
 (Enter /home/sekinelabo/g16/l302.exe)
 NPDir=0 NMtPBC=     1 NCelOv=     1 NCel=       1 NClECP=     1 NCelD=      1
         NCelK=      1 NCelE2=     1 NClLst=     1 CellRange=     0.0.
 One-electron integrals computed using PRISM.
 One-electron integral symmetry used in STVInt
 NBasis=   210 RedAO= T EigKep=  1.03D-06  NBF=   210
 NBsUse=   209 1.00D-06 EigRej=  6.52D-07 NBFU=   209
 Precomputing XC quadrature grid using
 IXCGrd= 4 IRadAn=           5 IRanWt=          -1 IRanGd=           0 AccXCQ= 0.00D+00.
 Generated NRdTot=       0 NPtTot=           0 NUsed=           0 NTot=          32
 NSgBfM=   211   211   211   211   211 MxSgAt=     7 MxSgA2=     7.
 Leave Link  302 at Mon Nov 13 12:27:07 2023, MaxMem=  1879048192 cpu:               2.2 elap:               0.1
 (Enter /home/sekinelabo/g16/l303.exe)
 DipDrv:  MaxL=1.
 Leave Link  303 at Mon Nov 13 12:27:07 2023, MaxMem=  1879048192 cpu:               0.5 elap:               0.0
 (Enter /home/sekinelabo/g16/l401.exe)
 ExpMin= 7.60D-03 ExpMax= 3.62D+04 ExpMxC= 1.21D+03 IAcc=3 IRadAn=         5 AccDes= 0.00D+00
 Harris functional with IExCor=  402 and IRadAn=       5 diagonalized for initial guess.
 HarFok:  IExCor=  402 AccDes= 0.00D+00 IRadAn=         5 IDoV= 1 UseB2=F ITyADJ=14
 ICtDFT=  3500011 ScaDFX=  1.000000  1.000000  1.000000  1.000000
 FoFCou: FMM=F IPFlag=           0 FMFlag=      100000 FMFlg1=           0
         NFxFlg=           0 DoJE=T BraDBF=F KetDBF=T FulRan=T
         wScrn=  0.000000 ICntrl=       500 IOpCl=  0 I1Cent=   200000004 NGrid=           0
         NMat0=    1 NMatS0=      1 NMatT0=    0 NMatD0=    1 NMtDS0=    0 NMtDT0=    0
 Petite list used in FoFCou.
 Harris En= -1135.84197497753    
 JPrj=0 DoOrth=F DoCkMO=F.
 Initial guess <Sx>= 0.0000 <Sy>= 0.0000 <Sz>= 0.5000 <S**2>= 0.7500 S= 0.5000
 Leave Link  401 at Mon Nov 13 12:27:07 2023, MaxMem=  1879048192 cpu:               5.2 elap:               0.3
 (Enter /home/sekinelabo/g16/l502.exe)
 Keep R1 and R2 ints in memory in canonical form, NReq=507620388.
 FoFCou: FMM=F IPFlag=           0 FMFlag=           0 FMFlg1=           0
         NFxFlg=           0 DoJE=F BraDBF=F KetDBF=F FulRan=T
         wScrn=  0.000000 ICntrl=       600 IOpCl=  0 I1Cent=           0 NGrid=           0
         NMat0=    1 NMatS0=  22155 NMatT0=    0 NMatD0=    1 NMtDS0=    0 NMtDT0=    0
 Symmetry not used in FoFCou.
 Two-electron integral symmetry not used.
 UHF open shell SCF:
 Using DIIS extrapolation, IDIIS=  1040.
 NGot=  1879048192 LenX=  1388082348 LenY=  1388034818
 Requested convergence on RMS density matrix=1.00D-08 within 128 cycles.
 Requested convergence on MAX density matrix=1.00D-06.
 Requested convergence on             energy=1.00D-06.
 No special actions if energy rises.

 Cycle   1  Pass 1  IDiag  1:
 E= -1136.01707868490    
 DIIS: error= 1.54D-02 at cycle   1 NSaved=   1.
 NSaved= 1 IEnMin= 1 EnMin= -1136.01707868490     IErMin= 1 ErrMin= 1.54D-02
 ErrMax= 1.54D-02  0.00D+00 EMaxC= 1.00D-01 BMatC= 2.15D-01 BMatP= 2.15D-01
 IDIUse=3 WtCom= 8.46D-01 WtEn= 1.54D-01
 Coeff-Com:  0.100D+01
 Coeff-En:   0.100D+01
 Coeff:      0.100D+01
 Gap=     0.053 Goal=   None    Shift=    0.000
 Gap=     0.035 Goal=   None    Shift=    0.000
 GapD=    0.035 DampG=0.250 DampE=0.500 DampFc=0.2500 IDamp=-1.
 Damping current iteration by 2.50D-01
 RMSDP=1.20D-01 MaxDP=9.82D+00              OVMax= 3.23D-01

 Cycle   2  Pass 1  IDiag  1:
 E= -1136.03464669842     Delta-E=       -0.017568013526 Rises=F Damp=T
 DIIS: error= 7.61D-03 at cycle   2 NSaved=   2.
 NSaved= 2 IEnMin= 2 EnMin= -1136.03464669842     IErMin= 2 ErrMin= 7.61D-03
 ErrMax= 7.61D-03  0.00D+00 EMaxC= 1.00D-01 BMatC= 8.02D-02 BMatP= 2.15D-01
 IDIUse=3 WtCom= 9.24D-01 WtEn= 7.61D-02
 Coeff-Com: -0.122D+01 0.222D+01
 Coeff-En:   0.000D+00 0.100D+01
 Coeff:     -0.112D+01 0.212D+01
 Gap=     0.069 Goal=   None    Shift=    0.000
 Gap=     0.039 Goal=   None    Shift=    0.000
 RMSDP=6.30D-02 MaxDP=6.49D+00 DE=-1.76D-02 OVMax= 2.57D-01

 Cycle   3  Pass 1  IDiag  1:
 E= -1136.05929131033     Delta-E=       -0.024644611906 Rises=F Damp=F
 DIIS: error= 5.57D-03 at cycle   3 NSaved=   3.
 NSaved= 3 IEnMin= 3 EnMin= -1136.05929131033     IErMin= 3 ErrMin= 5.57D-03
 ErrMax= 5.57D-03  0.00D+00 EMaxC= 1.00D-01 BMatC= 1.00D-02 BMatP= 8.02D-02
 IDIUse=3 WtCom= 9.44D-01 WtEn= 5.57D-02
 Coeff-Com: -0.456D+00 0.810D+00 0.646D+00
 Coeff-En:   0.000D+00 0.000D+00 0.100D+01
 Coeff:     -0.431D+00 0.765D+00 0.666D+00
 Gap=     0.065 Goal=   None    Shift=    0.000
 Gap=     0.039 Goal=   None    Shift=    0.000
 RMSDP=1.95D-02 MaxDP=9.70D-01 DE=-2.46D-02 OVMax= 1.59D-01

 Cycle   4  Pass 1  IDiag  1:
 E= -1136.06199350949     Delta-E=       -0.002702199161 Rises=F Damp=F
 DIIS: error= 3.95D-03 at cycle   4 NSaved=   4.
 NSaved= 4 IEnMin= 4 EnMin= -1136.06199350949     IErMin= 4 ErrMin= 3.95D-03
 ErrMax= 3.95D-03  0.00D+00 EMaxC= 1.00D-01 BMatC= 5.46D-03 BMatP= 1.00D-02
 IDIUse=3 WtCom= 9.60D-01 WtEn= 3.95D-02
 Coeff-Com: -0.359D-01 0.577D-01 0.419D+00 0.559D+00
 Coeff-En:   0.000D+00 0.000D+00 0.407D+00 0.593D+00
 Coeff:     -0.345D-01 0.554D-01 0.419D+00 0.560D+00
 Gap=     0.064 Goal=   None    Shift=    0.000
 Gap=     0.037 Goal=   None    Shift=    0.000
 RMSDP=5.94D-03 MaxDP=4.61D-01 DE=-2.70D-03 OVMax= 8.25D-02

 Cycle   5  Pass 1  IDiag  1:
 E= -1136.06601522414     Delta-E=       -0.004021714651 Rises=F Damp=F
 DIIS: error= 1.20D-03 at cycle   5 NSaved=   5.
 NSaved= 5 IEnMin= 5 EnMin= -1136.06601522414     IErMin= 5 ErrMin= 1.20D-03
 ErrMax= 1.20D-03  0.00D+00 EMaxC= 1.00D-01 BMatC= 5.51D-04 BMatP= 5.46D-03
 IDIUse=3 WtCom= 9.88D-01 WtEn= 1.20D-02
 Coeff-Com: -0.998D-02 0.125D-01 0.246D+00 0.359D+00 0.392D+00
 Coeff-En:   0.000D+00 0.000D+00 0.000D+00 0.789D-01 0.921D+00
 Coeff:     -0.986D-02 0.124D-01 0.243D+00 0.356D+00 0.398D+00
 Gap=     0.063 Goal=   None    Shift=    0.000
 Gap=     0.037 Goal=   None    Shift=    0.000
 RMSDP=2.69D-03 MaxDP=2.93D-01 DE=-4.02D-03 OVMax= 2.54D-02

 Cycle   6  Pass 1  IDiag  1:
 E= -1136.06655264245     Delta-E=       -0.000537418306 Rises=F Damp=F
 DIIS: error= 1.55D-04 at cycle   6 NSaved=   6.
 NSaved= 6 IEnMin= 6 EnMin= -1136.06655264245     IErMin= 6 ErrMin= 1.55D-04
 ErrMax= 1.55D-04  0.00D+00 EMaxC= 1.00D-01 BMatC= 6.92D-06 BMatP= 5.51D-04
 IDIUse=3 WtCom= 9.98D-01 WtEn= 1.55D-03
 Coeff-Com:  0.567D-03-0.125D-02-0.264D-01-0.475D-01 0.482D-01 0.103D+01
 Coeff-En:   0.000D+00 0.000D+00 0.000D+00 0.000D+00 0.000D+00 0.100D+01
 Coeff:      0.566D-03-0.125D-02-0.264D-01-0.474D-01 0.481D-01 0.103D+01
 Gap=     0.063 Goal=   None    Shift=    0.000
 Gap=     0.037 Goal=   None    Shift=    0.000
 RMSDP=9.45D-04 MaxDP=9.66D-02 DE=-5.37D-04 OVMax= 3.58D-03

 Cycle   7  Pass 1  IDiag  1:
 E= -1136.06656305870     Delta-E=       -0.000010416253 Rises=F Damp=F
 DIIS: error= 5.56D-05 at cycle   7 NSaved=   7.
 NSaved= 7 IEnMin= 7 EnMin= -1136.06656305870     IErMin= 7 ErrMin= 5.56D-05
 ErrMax= 5.56D-05  0.00D+00 EMaxC= 1.00D-01 BMatC= 7.37D-07 BMatP= 6.92D-06
 IDIUse=1 WtCom= 1.00D+00 WtEn= 0.00D+00
 Coeff-Com:  0.578D-03-0.952D-03-0.177D-01-0.280D-01 0.462D-02 0.363D+00
 Coeff-Com:  0.679D+00
 Coeff:      0.578D-03-0.952D-03-0.177D-01-0.280D-01 0.462D-02 0.363D+00
 Coeff:      0.679D+00
 Gap=     0.063 Goal=   None    Shift=    0.000
 Gap=     0.037 Goal=   None    Shift=    0.000
 RMSDP=1.79D-04 MaxDP=1.11D-02 DE=-1.04D-05 OVMax= 2.26D-03

 Cycle   8  Pass 1  IDiag  1:
 E= -1136.06656409921     Delta-E=       -0.000001040508 Rises=F Damp=F
 DIIS: error= 4.71D-05 at cycle   8 NSaved=   8.
 NSaved= 8 IEnMin= 8 EnMin= -1136.06656409921     IErMin= 8 ErrMin= 4.71D-05
 ErrMax= 4.71D-05  0.00D+00 EMaxC= 1.00D-01 BMatC= 5.13D-07 BMatP= 7.37D-07
 IDIUse=1 WtCom= 1.00D+00 WtEn= 0.00D+00
 Coeff-Com:  0.245D-03-0.283D-03-0.194D-02-0.230D-07-0.163D-01-0.168D+00
 Coeff-Com:  0.495D+00 0.691D+00
 Coeff:      0.245D-03-0.283D-03-0.194D-02-0.230D-07-0.163D-01-0.168D+00
 Coeff:      0.495D+00 0.691D+00
 Gap=     0.063 Goal=   None    Shift=    0.000
 Gap=     0.037 Goal=   None    Shift=    0.000
 RMSDP=1.49D-04 MaxDP=1.12D-02 DE=-1.04D-06 OVMax= 1.83D-03

 Cycle   9  Pass 1  IDiag  1:
 E= -1136.06656510592     Delta-E=       -0.000001006715 Rises=F Damp=F
 DIIS: error= 1.22D-05 at cycle   9 NSaved=   9.
 NSaved= 9 IEnMin= 9 EnMin= -1136.06656510592     IErMin= 9 ErrMin= 1.22D-05
 ErrMax= 1.22D-05  0.00D+00 EMaxC= 1.00D-01 BMatC= 3.76D-08 BMatP= 5.13D-07
 IDIUse=1 WtCom= 1.00D+00 WtEn= 0.00D+00
 Coeff-Com:  0.107D-03-0.117D-03 0.967D-03 0.188D-02-0.374D-02-0.635D-01
 Coeff-Com: -0.441D-01-0.110D-01 0.112D+01
 Coeff:      0.107D-03-0.117D-03 0.967D-03 0.188D-02-0.374D-02-0.635D-01
 Coeff:     -0.441D-01-0.110D-01 0.112D+01
 Gap=     0.063 Goal=   None    Shift=    0.000
 Gap=     0.037 Goal=   None    Shift=    0.000
 RMSDP=8.37D-05 MaxDP=6.27D-03 DE=-1.01D-06 OVMax= 1.41D-03

 Cycle  10  Pass 1  IDiag  1:
 E= -1136.06656539767     Delta-E=       -0.000000291747 Rises=F Damp=F
 DIIS: error= 7.85D-06 at cycle  10 NSaved=  10.
 NSaved=10 IEnMin=10 EnMin= -1136.06656539767     IErMin=10 ErrMin= 7.85D-06
 ErrMax= 7.85D-06  0.00D+00 EMaxC= 1.00D-01 BMatC= 1.75D-08 BMatP= 3.76D-08
 IDIUse=1 WtCom= 1.00D+00 WtEn= 0.00D+00
 Coeff-Com: -0.511D-04 0.798D-04 0.170D-02 0.155D-02 0.261D-02 0.981D-02
 Coeff-Com: -0.142D+00-0.191D+00 0.380D+00 0.937D+00
 Coeff:     -0.511D-04 0.798D-04 0.170D-02 0.155D-02 0.261D-02 0.981D-02
 Coeff:     -0.142D+00-0.191D+00 0.380D+00 0.937D+00
 Gap=     0.063 Goal=   None    Shift=    0.000
 Gap=     0.037 Goal=   None    Shift=    0.000
 RMSDP=5.15D-05 MaxDP=5.55D-03 DE=-2.92D-07 OVMax= 9.84D-04

 Cycle  11  Pass 1  IDiag  1:
 E= -1136.06656552363     Delta-E=       -0.000000125959 Rises=F Damp=F
 DIIS: error= 4.73D-06 at cycle  11 NSaved=  11.
 NSaved=11 IEnMin=11 EnMin= -1136.06656552363     IErMin=11 ErrMin= 4.73D-06
 ErrMax= 4.73D-06  0.00D+00 EMaxC= 1.00D-01 BMatC= 4.43D-09 BMatP= 1.75D-08
 IDIUse=1 WtCom= 1.00D+00 WtEn= 0.00D+00
 Coeff-Com: -0.731D-04 0.889D-04-0.277D-03-0.732D-03 0.228D-02 0.314D-01
 Coeff-Com:  0.129D-02-0.325D-01-0.337D+00-0.616D-01 0.140D+01
 Coeff:     -0.731D-04 0.889D-04-0.277D-03-0.732D-03 0.228D-02 0.314D-01
 Coeff:      0.129D-02-0.325D-01-0.337D+00-0.616D-01 0.140D+01
 Gap=     0.063 Goal=   None    Shift=    0.000
 Gap=     0.037 Goal=   None    Shift=    0.000
 RMSDP=3.58D-05 MaxDP=2.03D-03 DE=-1.26D-07 OVMax= 1.08D-03

 Cycle  12  Pass 1  IDiag  1:
 E= -1136.06656558692     Delta-E=       -0.000000063292 Rises=F Damp=F
 DIIS: error= 2.09D-06 at cycle  12 NSaved=  12.
 NSaved=12 IEnMin=12 EnMin= -1136.06656558692     IErMin=12 ErrMin= 2.09D-06
 ErrMax= 2.09D-06  0.00D+00 EMaxC= 1.00D-01 BMatC= 1.30D-09 BMatP= 4.43D-09
 IDIUse=1 WtCom= 1.00D+00 WtEn= 0.00D+00
 Coeff-Com:  0.216D-05-0.581D-05-0.359D-03-0.215D-03-0.470D-03-0.210D-02
 Coeff-Com:  0.278D-01 0.359D-01-0.874D-01-0.174D+00-0.611D-03 0.120D+01
 Coeff:      0.216D-05-0.581D-05-0.359D-03-0.215D-03-0.470D-03-0.210D-02
 Coeff:      0.278D-01 0.359D-01-0.874D-01-0.174D+00-0.611D-03 0.120D+01
 Gap=     0.063 Goal=   None    Shift=    0.000
 Gap=     0.037 Goal=   None    Shift=    0.000
 RMSDP=1.70D-05 MaxDP=1.12D-03 DE=-6.33D-08 OVMax= 5.83D-04

 Cycle  13  Pass 1  IDiag  1:
 E= -1136.06656560247     Delta-E=       -0.000000015554 Rises=F Damp=F
 DIIS: error= 1.49D-06 at cycle  13 NSaved=  13.
 NSaved=13 IEnMin=13 EnMin= -1136.06656560247     IErMin=13 ErrMin= 1.49D-06
 ErrMax= 1.49D-06  0.00D+00 EMaxC= 1.00D-01 BMatC= 8.55D-10 BMatP= 1.30D-09
 IDIUse=1 WtCom= 1.00D+00 WtEn= 0.00D+00
 Coeff-Com:  0.265D-04-0.341D-04-0.138D-03 0.140D-03-0.118D-02-0.128D-01
 Coeff-Com:  0.134D-01 0.317D-01 0.859D-01-0.776D-01-0.543D+00 0.767D+00
 Coeff-Com:  0.736D+00
 Coeff:      0.265D-04-0.341D-04-0.138D-03 0.140D-03-0.118D-02-0.128D-01
 Coeff:      0.134D-01 0.317D-01 0.859D-01-0.776D-01-0.543D+00 0.767D+00
 Coeff:      0.736D+00
 Gap=     0.063 Goal=   None    Shift=    0.000
 Gap=     0.037 Goal=   None    Shift=    0.000
 RMSDP=9.23D-06 MaxDP=5.52D-04 DE=-1.56D-08 OVMax= 3.45D-04

 Cycle  14  Pass 1  IDiag  1:
 E= -1136.06656560804     Delta-E=       -0.000000005561 Rises=F Damp=F
 DIIS: error= 9.49D-07 at cycle  14 NSaved=  14.
 NSaved=14 IEnMin=14 EnMin= -1136.06656560804     IErMin=14 ErrMin= 9.49D-07
 ErrMax= 9.49D-07  0.00D+00 EMaxC= 1.00D-01 BMatC= 2.55D-10 BMatP= 8.55D-10
 IDIUse=1 WtCom= 1.00D+00 WtEn= 0.00D+00
 Coeff-Com:  0.518D-05-0.518D-05 0.949D-04 0.852D-04-0.177D-03-0.168D-02
 Coeff-Com: -0.134D-01-0.117D-01 0.827D-01 0.723D-01-0.200D+00-0.358D+00
 Coeff-Com:  0.310D+00 0.112D+01
 Coeff:      0.518D-05-0.518D-05 0.949D-04 0.852D-04-0.177D-03-0.168D-02
 Coeff:     -0.134D-01-0.117D-01 0.827D-01 0.723D-01-0.200D+00-0.358D+00
 Coeff:      0.310D+00 0.112D+01
 Gap=     0.063 Goal=   None    Shift=    0.000
 Gap=     0.037 Goal=   None    Shift=    0.000
 RMSDP=8.47D-06 MaxDP=7.13D-04 DE=-5.56D-09 OVMax= 2.83D-04

 Cycle  15  Pass 1  IDiag  1:
 E= -1136.06656561062     Delta-E=       -0.000000002585 Rises=F Damp=F
 DIIS: error= 5.13D-07 at cycle  15 NSaved=  15.
 NSaved=15 IEnMin=15 EnMin= -1136.06656561062     IErMin=15 ErrMin= 5.13D-07
 ErrMax= 5.13D-07  0.00D+00 EMaxC= 1.00D-01 BMatC= 4.43D-11 BMatP= 2.55D-10
 IDIUse=1 WtCom= 1.00D+00 WtEn= 0.00D+00
 Coeff-Com: -0.709D-05 0.928D-05 0.810D-04 0.204D-04 0.322D-03 0.321D-02
 Coeff-Com: -0.665D-02-0.117D-01-0.791D-02 0.239D-01 0.124D+00-0.229D+00
 Coeff-Com: -0.159D+00 0.211D-01 0.124D+01
 Coeff:     -0.709D-05 0.928D-05 0.810D-04 0.204D-04 0.322D-03 0.321D-02
 Coeff:     -0.665D-02-0.117D-01-0.791D-02 0.239D-01 0.124D+00-0.229D+00
 Coeff:     -0.159D+00 0.211D-01 0.124D+01
 Gap=     0.063 Goal=   None    Shift=    0.000
 Gap=     0.037 Goal=   None    Shift=    0.000
 RMSDP=5.06D-06 MaxDP=4.36D-04 DE=-2.59D-09 OVMax= 1.49D-04

 Cycle  16  Pass 1  IDiag  1:
 E= -1136.06656561126     Delta-E=       -0.000000000636 Rises=F Damp=F
 DIIS: error= 2.33D-07 at cycle  16 NSaved=  16.
 NSaved=16 IEnMin=16 EnMin= -1136.06656561126     IErMin=16 ErrMin= 2.33D-07
 ErrMax= 2.33D-07  0.00D+00 EMaxC= 1.00D-01 BMatC= 1.29D-11 BMatP= 4.43D-11
 IDIUse=1 WtCom= 1.00D+00 WtEn= 0.00D+00
 Coeff-Com: -0.178D-05 0.198D-05-0.306D-04-0.229D-04 0.480D-04 0.435D-03
 Coeff-Com:  0.259D-02 0.301D-02-0.157D-01-0.249D-01 0.389D-01 0.120D+00
 Coeff-Com: -0.491D-01-0.350D+00 0.120D-01 0.126D+01
 Coeff:     -0.178D-05 0.198D-05-0.306D-04-0.229D-04 0.480D-04 0.435D-03
 Coeff:      0.259D-02 0.301D-02-0.157D-01-0.249D-01 0.389D-01 0.120D+00
 Coeff:     -0.491D-01-0.350D+00 0.120D-01 0.126D+01
 Gap=     0.063 Goal=   None    Shift=    0.000
 Gap=     0.037 Goal=   None    Shift=    0.000
 RMSDP=2.75D-06 MaxDP=2.03D-04 DE=-6.36D-10 OVMax= 6.24D-05

 Cycle  17  Pass 1  IDiag  1:
 E= -1136.06656561142     Delta-E=       -0.000000000163 Rises=F Damp=F
 DIIS: error= 9.97D-08 at cycle  17 NSaved=  17.
 NSaved=17 IEnMin=17 EnMin= -1136.06656561142     IErMin=17 ErrMin= 9.97D-08
 ErrMax= 9.97D-08  0.00D+00 EMaxC= 1.00D-01 BMatC= 4.27D-12 BMatP= 1.29D-11
 IDIUse=1 WtCom= 1.00D+00 WtEn= 0.00D+00
 Coeff-Com: -0.105D-06 0.198D-07-0.244D-04-0.710D-05-0.695D-04-0.384D-03
 Coeff-Com:  0.135D-02 0.205D-02 0.731D-03-0.500D-02-0.198D-01 0.474D-01
 Coeff-Com:  0.404D-01-0.838D-02-0.401D+00 0.140D+00 0.120D+01
 Coeff:     -0.105D-06 0.198D-07-0.244D-04-0.710D-05-0.695D-04-0.384D-03
 Coeff:      0.135D-02 0.205D-02 0.731D-03-0.500D-02-0.198D-01 0.474D-01
 Coeff:      0.404D-01-0.838D-02-0.401D+00 0.140D+00 0.120D+01
 Gap=     0.063 Goal=   None    Shift=    0.000
 Gap=     0.037 Goal=   None    Shift=    0.000
 RMSDP=1.53D-06 MaxDP=1.24D-04 DE=-1.63D-10 OVMax= 3.01D-05

 Cycle  18  Pass 1  IDiag  1:
 E= -1136.06656561147     Delta-E=       -0.000000000048 Rises=F Damp=F
 DIIS: error= 4.85D-08 at cycle  18 NSaved=  18.
 NSaved=18 IEnMin=18 EnMin= -1136.06656561147     IErMin=18 ErrMin= 4.85D-08
 ErrMax= 4.85D-08  0.00D+00 EMaxC= 1.00D-01 BMatC= 5.90D-13 BMatP= 4.27D-12
 IDIUse=1 WtCom= 1.00D+00 WtEn= 0.00D+00
 Coeff-Com:  0.129D-05-0.157D-05 0.669D-05 0.721D-05-0.282D-04-0.320D-03
 Coeff-Com: -0.612D-03-0.585D-03 0.469D-02 0.701D-02-0.182D-01-0.189D-01
 Coeff-Com:  0.133D-01 0.705D-01 0.172D-01-0.284D+00-0.760D-01 0.129D+01
 Coeff:      0.129D-05-0.157D-05 0.669D-05 0.721D-05-0.282D-04-0.320D-03
 Coeff:     -0.612D-03-0.585D-03 0.469D-02 0.701D-02-0.182D-01-0.189D-01
 Coeff:      0.133D-01 0.705D-01 0.172D-01-0.284D+00-0.760D-01 0.129D+01
 Gap=     0.063 Goal=   None    Shift=    0.000
 Gap=     0.037 Goal=   None    Shift=    0.000
 RMSDP=5.72D-07 MaxDP=6.31D-05 DE=-4.82D-11 OVMax= 1.38D-05

 Cycle  19  Pass 1  IDiag  1:
 E= -1136.06656561147     Delta-E=        0.000000000001 Rises=F Damp=F
 DIIS: error= 2.40D-08 at cycle  19 NSaved=  19.
 NSaved=19 IEnMin=18 EnMin= -1136.06656561147     IErMin=19 ErrMin= 2.40D-08
 ErrMax= 2.40D-08  0.00D+00 EMaxC= 1.00D-01 BMatC= 1.11D-13 BMatP= 5.90D-13
 IDIUse=1 WtCom= 1.00D+00 WtEn= 0.00D+00
 Coeff-Com: -0.646D-06 0.823D-06 0.185D-05-0.212D-05 0.241D-04 0.215D-03
 Coeff-Com: -0.149D-03-0.274D-03-0.137D-02-0.103D-02 0.978D-02-0.571D-02
 Coeff-Com: -0.116D-01-0.129D-01 0.747D-01 0.182D-01-0.226D+00-0.145D+00
 Coeff-Com:  0.130D+01
 Coeff:     -0.646D-06 0.823D-06 0.185D-05-0.212D-05 0.241D-04 0.215D-03
 Coeff:     -0.149D-03-0.274D-03-0.137D-02-0.103D-02 0.978D-02-0.571D-02
 Coeff:     -0.116D-01-0.129D-01 0.747D-01 0.182D-01-0.226D+00-0.145D+00
 Coeff:      0.130D+01
 Gap=     0.063 Goal=   None    Shift=    0.000
 Gap=     0.037 Goal=   None    Shift=    0.000
 RMSDP=1.80D-07 MaxDP=2.32D-05 DE= 1.14D-12 OVMax= 2.98D-06

 Cycle  20  Pass 1  IDiag  1:
 E= -1136.06656561147     Delta-E=       -0.000000000008 Rises=F Damp=F
 DIIS: error= 8.61D-09 at cycle  20 NSaved=  20.
 NSaved=20 IEnMin=20 EnMin= -1136.06656561147     IErMin=20 ErrMin= 8.61D-09
 ErrMax= 8.61D-09  0.00D+00 EMaxC= 1.00D-01 BMatC= 1.71D-14 BMatP= 1.11D-13
 IDIUse=1 WtCom= 1.00D+00 WtEn= 0.00D+00
 Coeff-Com: -0.420D-07 0.414D-07-0.120D-06 0.488D-06 0.214D-05 0.112D-04
 Coeff-Com:  0.836D-04 0.116D-03-0.413D-03-0.119D-02 0.162D-02 0.387D-02
 Coeff-Com: -0.679D-03-0.120D-01-0.667D-02 0.510D-01 0.248D-01-0.220D+00
 Coeff-Com: -0.416D-01 0.120D+01
 Coeff:     -0.420D-07 0.414D-07-0.120D-06 0.488D-06 0.214D-05 0.112D-04
 Coeff:      0.836D-04 0.116D-03-0.413D-03-0.119D-02 0.162D-02 0.387D-02
 Coeff:     -0.679D-03-0.120D-01-0.667D-02 0.510D-01 0.248D-01-0.220D+00
 Coeff:     -0.416D-01 0.120D+01
 Gap=     0.063 Goal=   None    Shift=    0.000
 Gap=     0.037 Goal=   None    Shift=    0.000
 RMSDP=7.03D-08 MaxDP=4.87D-06 DE=-7.96D-12 OVMax= 1.15D-06

 Cycle  21  Pass 1  IDiag  1:
 E= -1136.06656561148     Delta-E=       -0.000000000005 Rises=F Damp=F
 DIIS: error= 2.70D-09 at cycle  21 NSaved=  20.
 NSaved=20 IEnMin=20 EnMin= -1136.06656561148     IErMin=20 ErrMin= 2.70D-09
 ErrMax= 2.70D-09  0.00D+00 EMaxC= 1.00D-01 BMatC= 3.20D-15 BMatP= 1.71D-14
 IDIUse=1 WtCom= 1.00D+00 WtEn= 0.00D+00
 Large coefficients: NSaved= 20 BigCof=    0.00 CofMax=   10.00 Det=-5.61D-15
 Inversion failed.  Reducing to 19 matrices.
 Large coefficients: NSaved= 19 BigCof=    0.00 CofMax=   10.00 Det=-5.62D-15
 Inversion failed.  Reducing to 18 matrices.
 Large coefficients: NSaved= 18 BigCof=    0.00 CofMax=   10.00 Det=-5.62D-15
 Inversion failed.  Reducing to 17 matrices.
 Large coefficients: NSaved= 17 BigCof=    0.00 CofMax=   10.00 Det=-5.89D-15
 Inversion failed.  Reducing to 16 matrices.
 Large coefficients: NSaved= 16 BigCof=    0.00 CofMax=   10.00 Det=-6.17D-15
 Inversion failed.  Reducing to 15 matrices.
 Coeff-Com: -0.697D-05-0.151D-04 0.204D-05 0.172D-03-0.287D-03 0.193D-03
 Coeff-Com:  0.725D-03 0.269D-03-0.785D-02 0.510D-02 0.273D-01-0.727D-02
 Coeff-Com: -0.189D+00 0.138D+00 0.103D+01
 Coeff:     -0.697D-05-0.151D-04 0.204D-05 0.172D-03-0.287D-03 0.193D-03
 Coeff:      0.725D-03 0.269D-03-0.785D-02 0.510D-02 0.273D-01-0.727D-02
 Coeff:     -0.189D+00 0.138D+00 0.103D+01
 Gap=     0.063 Goal=   None    Shift=    0.000
 Gap=     0.037 Goal=   None    Shift=    0.000
 RMSDP=3.26D-08 MaxDP=1.77D-06 DE=-4.55D-12 OVMax= 3.18D-07

 Cycle  22  Pass 1  IDiag  1:
 E= -1136.06656561147     Delta-E=        0.000000000007 Rises=F Damp=F
 DIIS: error= 1.48D-09 at cycle  22 NSaved=  16.
 NSaved=16 IEnMin=15 EnMin= -1136.06656561148     IErMin=16 ErrMin= 1.48D-09
 ErrMax= 1.48D-09  0.00D+00 EMaxC= 1.00D-01 BMatC= 7.89D-16 BMatP= 3.20D-15
 IDIUse=1 WtCom= 1.00D+00 WtEn= 0.00D+00
 Large coefficients: NSaved= 16 BigCof=    0.00 CofMax=   10.00 Det=-1.71D-15
 Inversion failed.  Reducing to 15 matrices.
 Coeff-Com: -0.271D-05-0.417D-05 0.111D-03-0.111D-03-0.266D-03 0.322D-05
 Coeff-Com:  0.745D-03 0.121D-02-0.529D-02-0.533D-02 0.333D-01-0.135D-01
 Coeff-Com: -0.199D+00 0.226D+00 0.963D+00
 Coeff:     -0.271D-05-0.417D-05 0.111D-03-0.111D-03-0.266D-03 0.322D-05
 Coeff:      0.745D-03 0.121D-02-0.529D-02-0.533D-02 0.333D-01-0.135D-01
 Coeff:     -0.199D+00 0.226D+00 0.963D+00
 Gap=     0.063 Goal=   None    Shift=    0.000
 Gap=     0.037 Goal=   None    Shift=    0.000
 RMSDP=1.89D-08 MaxDP=2.12D-06 DE= 6.59D-12 OVMax= 1.59D-07

 Cycle  23  Pass 1  IDiag  1:
 E= -1136.06656561149     Delta-E=       -0.000000000019 Rises=F Damp=F
 DIIS: error= 8.63D-10 at cycle  23 NSaved=  16.
 NSaved=16 IEnMin=16 EnMin= -1136.06656561149     IErMin=16 ErrMin= 8.63D-10
 ErrMax= 8.63D-10  0.00D+00 EMaxC= 1.00D-01 BMatC= 2.15D-16 BMatP= 7.89D-16
 IDIUse=1 WtCom= 1.00D+00 WtEn= 0.00D+00
 Large coefficients: NSaved= 16 BigCof=    0.00 CofMax=   10.00 Det=-5.03D-16
 Inversion failed.  Reducing to 15 matrices.
 Coeff-Com:  0.322D-05 0.204D-05-0.489D-04-0.296D-04 0.660D-04 0.313D-03
 Coeff-Com:  0.297D-03-0.213D-02-0.210D-02 0.971D-02 0.238D-01-0.931D-01
 Coeff-Com: -0.112D+00 0.302D+00 0.874D+00
 Coeff:      0.322D-05 0.204D-05-0.489D-04-0.296D-04 0.660D-04 0.313D-03
 Coeff:      0.297D-03-0.213D-02-0.210D-02 0.971D-02 0.238D-01-0.931D-01
 Coeff:     -0.112D+00 0.302D+00 0.874D+00
 Gap=     0.063 Goal=   None    Shift=    0.000
 Gap=     0.037 Goal=   None    Shift=    0.000
 RMSDP=9.79D-09 MaxDP=1.27D-06 DE=-1.93D-11 OVMax= 6.57D-08

 Cycle  24  Pass 1  IDiag  1:
 E= -1136.06656561147     Delta-E=        0.000000000019 Rises=F Damp=F
 DIIS: error= 3.70D-10 at cycle  24 NSaved=  16.
 NSaved=16 IEnMin=15 EnMin= -1136.06656561149     IErMin=16 ErrMin= 3.70D-10
 ErrMax= 3.70D-10  0.00D+00 EMaxC= 1.00D-01 BMatC= 5.09D-17 BMatP= 2.15D-16
 IDIUse=1 WtCom= 1.00D+00 WtEn= 0.00D+00
 Large coefficients: NSaved= 16 BigCof=    0.00 CofMax=   10.00 Det=-1.46D-16
 Inversion failed.  Reducing to 15 matrices.
 Coeff-Com: -0.163D-04 0.382D-04-0.660D-05-0.883D-04-0.111D-03 0.729D-03
 Coeff-Com: -0.321D-03-0.219D-02-0.664D-03 0.193D-01-0.146D-01-0.106D+00
 Coeff-Com:  0.843D-02 0.341D+00 0.754D+00
 Coeff:     -0.163D-04 0.382D-04-0.660D-05-0.883D-04-0.111D-03 0.729D-03
 Coeff:     -0.321D-03-0.219D-02-0.664D-03 0.193D-01-0.146D-01-0.106D+00
 Coeff:      0.843D-02 0.341D+00 0.754D+00
 Gap=     0.063 Goal=   None    Shift=    0.000
 Gap=     0.037 Goal=   None    Shift=    0.000
 RMSDP=5.84D-09 MaxDP=4.53D-07 DE= 1.86D-11 OVMax= 3.60D-08

 SCF Done:  E(UB3LYP) =  -1136.06656561     A.U. after   24 cycles
            NFock= 24  Conv=0.58D-08     -V/T= 2.0023
 <Sx>= 0.0000 <Sy>= 0.0000 <Sz>= 0.5000 <S**2>= 0.7599 S= 0.5050
 <L.S>= 0.000000000000E+00
 KE= 1.133470230028D+03 PE=-3.528253850555D+03 EE= 8.592725133488D+02
 Annihilation of the first spin contaminant:
 S**2 before annihilation     0.7599,   after     0.7501
 Leave Link  502 at Mon Nov 13 12:27:29 2023, MaxMem=  1879048192 cpu:             248.5 elap:              21.5
 (Enter /home/sekinelabo/g16/l601.exe)
 Copying SCF densities to generalized density rwf, IOpCl= 1 IROHF=0.

 **********************************************************************

            Population analysis using the SCF Density.

 **********************************************************************

 Orbital symmetries:
 Alpha Orbitals:
       Occupied  (A) (A) (A) (A) (A) (A) (A) (A) (A) (A) (A) (A)
                 (A) (A) (A) (A) (A) (A) (A) (A) (A) (A) (A) (A)
                 (A) (A) (A) (A) (A) (A) (A) (A) (A) (A) (A) (A)
                 (A) (A) (A)
       Virtual   (A) (A) (A) (A) (A) (A) (A) (A) (A) (A) (A) (A)
                 (A) (A) (A) (A) (A) (A) (A) (A) (A) (A) (A) (A)
                 (A) (A) (A) (A) (A) (A) (A) (A) (A) (A) (A) (A)
                 (A) (A) (A) (A) (A) (A) (A) (A) (A) (A) (A) (A)
                 (A) (A) (A) (A) (A) (A) (A) (A) (A) (A) (A) (A)
                 (A) (A) (A) (A) (A) (A) (A) (A) (A) (A) (A) (A)
                 (A) (A) (A) (A) (A) (A) (A) (A) (A) (A) (A) (A)
                 (A) (A) (A) (A) (A) (A) (A) (A) (A) (A) (A) (A)
                 (A) (A) (A) (A) (A) (A) (A) (A) (A) (A) (A) (A)
                 (A) (A) (A) (A) (A) (A) (A) (A) (A) (A) (A) (A)
                 (A) (A) (A) (A) (A) (A) (A) (A) (A) (A) (A) (A)
                 (A) (A) (A) (A) (A) (A) (A) (A) (A) (A) (A) (A)
                 (A) (A) (A) (A) (A) (A) (A) (A) (A) (A) (A) (A)
                 (A) (A) (A) (A) (A) (A) (A) (A) (A) (A) (A) (A)
                 (A) (A)
 Beta  Orbitals:
       Occupied  (A) (A) (A) (A) (A) (A) (A) (A) (A) (A) (A) (A)
                 (A) (A) (A) (A) (A) (A) (A) (A) (A) (A) (A) (A)
                 (A) (A) (A) (A) (A) (A) (A) (A) (A) (A) (A) (A)
                 (A) (A)
       Virtual   (A) (A) (A) (A) (A) (A) (A) (A) (A) (A) (A) (A)
                 (A) (A) (A) (A) (A) (A) (A) (A) (A) (A) (A) (A)
                 (A) (A) (A) (A) (A) (A) (A) (A) (A) (A) (A) (A)
                 (A) (A) (A) (A) (A) (A) (A) (A) (A) (A) (A) (A)
                 (A) (A) (A) (A) (A) (A) (A) (A) (A) (A) (A) (A)
                 (A) (A) (A) (A) (A) (A) (A) (A) (A) (A) (A) (A)
                 (A) (A) (A) (A) (A) (A) (A) (A) (A) (A) (A) (A)
                 (A) (A) (A) (A) (A) (A) (A) (A) (A) (A) (A) (A)
                 (A) (A) (A) (A) (A) (A) (A) (A) (A) (A) (A) (A)
                 (A) (A) (A) (A) (A) (A) (A) (A) (A) (A) (A) (A)
                 (A) (A) (A) (A) (A) (A) (A) (A) (A) (A) (A) (A)
                 (A) (A) (A) (A) (A) (A) (A) (A) (A) (A) (A) (A)
                 (A) (A) (A) (A) (A) (A) (A) (A) (A) (A) (A) (A)
                 (A) (A) (A) (A) (A) (A) (A) (A) (A) (A) (A) (A)
                 (A) (A) (A)
 The electronic state is 2-A.
 Alpha  occ. eigenvalues --  -38.45023 -38.44723 -38.44639 -38.43920 -38.43469
 Alpha  occ. eigenvalues --  -38.43192 -38.43162  -2.21198  -2.20855  -2.20466
 Alpha  occ. eigenvalues --   -2.20223  -2.19931  -2.19279  -2.19193  -1.15147
 Alpha  occ. eigenvalues --   -1.14963  -1.14817  -1.14713  -1.14521  -1.14423
 Alpha  occ. eigenvalues --   -1.14257  -1.14085  -1.14078  -1.13912  -1.13849
 Alpha  occ. eigenvalues --   -1.13800  -1.13578  -1.13508  -1.13503  -1.12980
 Alpha  occ. eigenvalues --   -1.12928  -1.12874  -1.12865  -1.12813  -1.12758
 Alpha  occ. eigenvalues --   -0.21127  -0.13321  -0.12593  -0.12207
 Alpha virt. eigenvalues --   -0.05905  -0.04073  -0.03597  -0.03360  -0.02917
 Alpha virt. eigenvalues --   -0.02880  -0.01426  -0.00669  -0.00340   0.00277
 Alpha virt. eigenvalues --    0.00571   0.00759   0.00797   0.00955   0.01095
 Alpha virt. eigenvalues --    0.01126   0.01251   0.01326   0.01390   0.01424
 Alpha virt. eigenvalues --    0.01701   0.01717   0.01812   0.01826   0.02056
 Alpha virt. eigenvalues --    0.02517   0.02721   0.02740   0.02890   0.02924
 Alpha virt. eigenvalues --    0.02967   0.03068   0.03159   0.03268   0.03296
 Alpha virt. eigenvalues --    0.03352   0.03471   0.03738   0.03893   0.04284
 Alpha virt. eigenvalues --    0.04600   0.04893   0.05170   0.05292   0.05420
 Alpha virt. eigenvalues --    0.05544   0.05578   0.05951   0.06287   0.06451
 Alpha virt. eigenvalues --    0.06757   0.07010   0.07584   0.08041   0.08210
 Alpha virt. eigenvalues --    0.08660   0.08883   0.08966   0.09312   0.10061
 Alpha virt. eigenvalues --    0.10190   0.10863   0.11088   0.12907   0.13295
 Alpha virt. eigenvalues --    0.13427   0.13625   0.13967   0.14119   0.14495
 Alpha virt. eigenvalues --    0.14571   0.14856   0.15317   0.16353   0.16750
 Alpha virt. eigenvalues --    0.17647   0.18292   0.18799   0.20291   0.24063
 Alpha virt. eigenvalues --    0.24936   0.27210   0.27518   0.29907   0.31891
 Alpha virt. eigenvalues --    0.32459   0.33470   0.34355   0.34964   0.35827
 Alpha virt. eigenvalues --    0.36358   0.37669   0.38766   0.39447   0.40542
 Alpha virt. eigenvalues --    0.41597   0.41698   0.42790   0.43632   0.43822
 Alpha virt. eigenvalues --    0.44423   0.44757   0.45150   0.45798   0.46588
 Alpha virt. eigenvalues --    0.46671   0.46915   0.47404   0.48119   0.49192
 Alpha virt. eigenvalues --    0.49881   0.50875   0.51663   0.51969   0.52355
 Alpha virt. eigenvalues --    0.53022   0.53922   0.54357   0.55680   0.55984
 Alpha virt. eigenvalues --    0.57692   0.58656   0.60393   0.66505   0.68222
 Alpha virt. eigenvalues --    0.70545   0.72127   0.76090   0.77031   0.79033
 Alpha virt. eigenvalues --    0.81071   0.83912   0.86180   0.86621   0.95113
 Alpha virt. eigenvalues --    2.13876   2.16993   2.23919   2.25067   2.25991
 Alpha virt. eigenvalues --    2.33654   2.43540   4.41863   4.42076   4.43157
 Alpha virt. eigenvalues --    4.43492   4.45498   4.46032   4.47029   4.48540
 Alpha virt. eigenvalues --    4.49679   4.50714   4.51819   4.55312   4.64785
 Alpha virt. eigenvalues --    4.69958   4.71462   4.74772   4.78387   4.83396
 Alpha virt. eigenvalues --    4.86710   4.89184   4.94504  96.36633  96.40294
 Alpha virt. eigenvalues --   96.51180  96.52074  96.54057  96.64557  96.77200
  Beta  occ. eigenvalues --  -38.44939 -38.44640 -38.44633 -38.43882 -38.43433
  Beta  occ. eigenvalues --  -38.43181 -38.43147  -2.21046  -2.20707  -2.20455
  Beta  occ. eigenvalues --   -2.20163  -2.19875  -2.19258  -2.19176  -1.15058
  Beta  occ. eigenvalues --   -1.14849  -1.14723  -1.14601  -1.14399  -1.14315
  Beta  occ. eigenvalues --   -1.14243  -1.14076  -1.14071  -1.13868  -1.13797
  Beta  occ. eigenvalues --   -1.13709  -1.13507  -1.13482  -1.13431  -1.12973
  Beta  occ. eigenvalues --   -1.12865  -1.12856  -1.12845  -1.12785  -1.12742
  Beta  occ. eigenvalues --   -0.20213  -0.13023  -0.11991
  Beta virt. eigenvalues --   -0.08258  -0.05667  -0.03992  -0.03198  -0.02836
  Beta virt. eigenvalues --   -0.02348  -0.01837  -0.01333  -0.00604  -0.00101
  Beta virt. eigenvalues --    0.00330   0.00605   0.00776   0.00961   0.00991
  Beta virt. eigenvalues --    0.01146   0.01184   0.01319   0.01385   0.01517
  Beta virt. eigenvalues --    0.01558   0.01746   0.01805   0.01859   0.01959
  Beta virt. eigenvalues --    0.02113   0.02546   0.02739   0.02858   0.02885
  Beta virt. eigenvalues --    0.02974   0.02999   0.03117   0.03189   0.03329
  Beta virt. eigenvalues --    0.03392   0.03497   0.03538   0.03831   0.04141
  Beta virt. eigenvalues --    0.04423   0.04741   0.04990   0.05258   0.05405
  Beta virt. eigenvalues --    0.05539   0.05656   0.05789   0.06138   0.06319
  Beta virt. eigenvalues --    0.06511   0.06849   0.07069   0.07665   0.08247
  Beta virt. eigenvalues --    0.08289   0.08721   0.09030   0.09094   0.09463
  Beta virt. eigenvalues --    0.10204   0.10693   0.11185   0.11284   0.13066
  Beta virt. eigenvalues --    0.13553   0.13744   0.13847   0.14104   0.14438
  Beta virt. eigenvalues --    0.14637   0.14739   0.15139   0.15373   0.16483
  Beta virt. eigenvalues --    0.17000   0.18088   0.18403   0.19026   0.20551
  Beta virt. eigenvalues --    0.24696   0.25561   0.27436   0.27785   0.30244
  Beta virt. eigenvalues --    0.32370   0.33070   0.33703   0.34638   0.35345
  Beta virt. eigenvalues --    0.35989   0.36670   0.37770   0.38873   0.39657
  Beta virt. eigenvalues --    0.40861   0.41828   0.41953   0.43190   0.43782
  Beta virt. eigenvalues --    0.44067   0.44695   0.45054   0.45227   0.45921
  Beta virt. eigenvalues --    0.46669   0.47016   0.47160   0.47543   0.48351
  Beta virt. eigenvalues --    0.49387   0.50125   0.51171   0.51949   0.52273
  Beta virt. eigenvalues --    0.52652   0.53240   0.54123   0.54424   0.55845
  Beta virt. eigenvalues --    0.56201   0.58035   0.58991   0.60614   0.66680
  Beta virt. eigenvalues --    0.68348   0.70604   0.72352   0.76227   0.77241
  Beta virt. eigenvalues --    0.79310   0.81157   0.84160   0.86361   0.86903
  Beta virt. eigenvalues --    0.95311   2.13912   2.17131   2.24101   2.25220
  Beta virt. eigenvalues --    2.26240   2.33746   2.43629   4.41914   4.42183
  Beta virt. eigenvalues --    4.43267   4.43571   4.45521   4.46056   4.47120
  Beta virt. eigenvalues --    4.48622   4.49720   4.50789   4.51902   4.55400
  Beta virt. eigenvalues --    4.64854   4.70070   4.71508   4.74822   4.78506
  Beta virt. eigenvalues --    4.83469   4.86749   4.89233   4.94615  96.36647
  Beta virt. eigenvalues --   96.40334  96.51235  96.52129  96.54158  96.64600
  Beta virt. eigenvalues --   96.77239
          Condensed to atoms (all electrons):
               1          2          3          4          5          6
     1  Na  12.315648  -2.519981  -0.106149   1.299533  -0.239144  -0.390345
     2  Na  -2.519981  19.875668  -2.002508  -2.165482   0.550382   1.059385
     3  Na  -0.106149  -2.002508  12.582096   0.499658  -0.365626  -0.552872
     4  Na   1.299533  -2.165482   0.499658  13.116242   0.087043  -2.086491
     5  Na  -0.239144   0.550382  -0.365626   0.087043  12.443740   0.026571
     6  Na  -0.390345   1.059385  -0.552872  -2.086491   0.026571  14.095906
     7  Na   0.614567  -3.354536   0.787168  -0.090183  -1.331414  -1.295610
               7
     1  Na   0.614567
     2  Na  -3.354536
     3  Na   0.787168
     4  Na  -0.090183
     5  Na  -1.331414
     6  Na  -1.295610
     7  Na  15.722769
          Atomic-Atomic Spin Densities.
               1          2          3          4          5          6
     1  Na  -0.006720   0.162526  -0.166899  -0.186853   0.174621   0.325322
     2  Na   0.162526  -0.592158   0.305728   0.629630  -0.579606  -0.506765
     3  Na  -0.166899   0.305728   0.148571  -0.164902   0.276298   0.015892
     4  Na  -0.186853   0.629630  -0.164902   0.021376   0.350650   0.134665
     5  Na   0.174621  -0.579606   0.276298   0.350650  -0.092208  -0.423465
     6  Na   0.325322  -0.506765   0.015892   0.134665  -0.423465   0.150100
     7  Na  -0.409416   0.443832   0.096300  -0.530200   0.386312   0.513839
               7
     1  Na  -0.409416
     2  Na   0.443832
     3  Na   0.096300
     4  Na  -0.530200
     5  Na   0.386312
     6  Na   0.513839
     7  Na  -0.323978
 Mulliken charges and spin densities:
               1          2
     1  Na   0.025871  -0.107419
     2  Na  -0.442927  -0.136813
     3  Na   0.158232   0.510989
     4  Na   0.339681   0.254365
     5  Na  -0.171552   0.092601
     6  Na   0.143456   0.209588
     7  Na  -0.052762   0.176689
 Sum of Mulliken charges =  -0.00000   1.00000
 Mulliken charges and spin densities with hydrogens summed into heavy atoms:
               1          2
     1  Na   0.025871  -0.107419
     2  Na  -0.442927  -0.136813
     3  Na   0.158232   0.510989
     4  Na   0.339681   0.254365
     5  Na  -0.171552   0.092601
     6  Na   0.143456   0.209588
     7  Na  -0.052762   0.176689
 Electronic spatial extent (au):  <R**2>=           1788.8044
 Charge=              0.0000 electrons
 Dipole moment (field-independent basis, Debye):
    X=              0.3714    Y=              0.0667    Z=              0.0928  Tot=              0.3886
 Quadrupole moment (field-independent basis, Debye-Ang):
   XX=            -58.2153   YY=            -70.0838   ZZ=            -65.0325
   XY=              1.2395   XZ=              0.3350   YZ=              1.3322
 Traceless Quadrupole moment (field-independent basis, Debye-Ang):
   XX=              6.2286   YY=             -5.6399   ZZ=             -0.5886
   XY=              1.2395   XZ=              0.3350   YZ=              1.3322
 Octapole moment (field-independent basis, Debye-Ang**2):
  XXX=             41.5447  YYY=              7.5796  ZZZ=              1.1497  XYY=             -0.0704
  XXY=             -8.1173  XXZ=             -8.0682  XZZ=             -6.8441  YZZ=             -1.2570
  YYZ=              4.7157  XYZ=             -0.5328
 Hexadecapole moment (field-independent basis, Debye-Ang**3):
 XXXX=          -1228.8099 YYYY=           -952.5222 ZZZZ=           -677.6662 XXXY=            -49.2835
 XXXZ=            -43.7153 YYYX=             71.3889 YYYZ=             33.4238 ZZZX=             30.2479
 ZZZY=            -21.8579 XXYY=           -407.0705 XXZZ=           -372.8651 YYZZ=           -296.7918
 XXYZ=             18.8809 YYXZ=              9.0138 ZZXY=             -9.7536
 N-N= 3.994445415662D+02 E-N=-3.528253850575D+03  KE= 1.133470230028D+03
                          Isotropic Fermi Contact Couplings
        Atom                 a.u.       MegaHertz       Gauss      10(-4) cm-1
     1  Na(23)             0.02014      23.82949       8.50295       7.94866
     2  Na(23)             0.04526      53.54516      19.10624      17.86074
     3  Na(23)             0.32177     380.66792     135.83178     126.97715
     4  Na(23)             0.34374     406.64840     145.10226     135.64331
     5  Na(23)             0.00493       5.83230       2.08111       1.94545
     6  Na(23)             0.05866      69.39551      24.76204      23.14785
     7  Na(23)            -0.01387     -16.40941      -5.85529      -5.47359
 --------------------------------------------------------
       Center         ----  Spin Dipole Couplings  ----
                      3XX-RR        3YY-RR        3ZZ-RR
 --------------------------------------------------------
     1   Atom        0.001312     -0.004352      0.003041
     2   Atom       -0.045350     -0.044658      0.090008
     3   Atom        0.003352      0.020604     -0.023956
     4   Atom        0.006879      0.013807     -0.020686
     5   Atom       -0.015850     -0.009231      0.025081
     6   Atom       -0.018648     -0.040628      0.059276
     7   Atom       -0.031541     -0.031323      0.062864
 --------------------------------------------------------
                        XY            XZ            YZ
 --------------------------------------------------------
     1   Atom       -0.000376      0.006235     -0.000762
     2   Atom       -0.000999      0.006557      0.012432
     3   Atom       -0.017093     -0.005800      0.003313
     4   Atom       -0.009064     -0.003992      0.003139
     5   Atom        0.006181     -0.016068     -0.015672
     6   Atom       -0.003021      0.048982     -0.016386
     7   Atom        0.000845     -0.004046     -0.016927
 --------------------------------------------------------


 ---------------------------------------------------------------------------------
              Anisotropic Spin Dipole Couplings in Principal Axis System
 ---------------------------------------------------------------------------------

       Atom             a.u.   MegaHertz   Gauss  10(-4) cm-1        Axes

              Baa    -0.0045    -0.638    -0.228    -0.213 -0.3208  0.8789  0.3531
     1 Na(23) Bbb    -0.0040    -0.565    -0.202    -0.189  0.6846  0.4728 -0.5549
              Bcc     0.0085     1.204     0.430     0.402  0.6546 -0.0637  0.7533
 
              Baa    -0.0473    -6.682    -2.384    -2.229  0.6903  0.7168 -0.0979
     2 Na(23) Bbb    -0.0441    -6.232    -2.224    -2.079  0.7220 -0.6913  0.0288
              Bcc     0.0914    12.914     4.608     4.308  0.0470  0.0905  0.9948
 
              Baa    -0.0251    -3.550    -1.267    -1.184  0.2021  0.0046  0.9793
     3 Na(23) Bbb    -0.0066    -0.933    -0.333    -0.311  0.8245  0.5389 -0.1727
              Bcc     0.0317     4.483     1.600     1.495 -0.5286  0.8423  0.1051
 
              Baa    -0.0214    -3.016    -1.076    -1.006  0.1218 -0.0571  0.9909
     4 Na(23) Bbb     0.0007     0.105     0.037     0.035  0.8123  0.5794 -0.0664
              Bcc     0.0206     2.911     1.039     0.971 -0.5704  0.8130  0.1169
 
              Baa    -0.0215    -3.033    -1.082    -1.012  0.9504 -0.1053  0.2926
     5 Na(23) Bbb    -0.0153    -2.162    -0.771    -0.721 -0.0072  0.9332  0.3592
              Bcc     0.0368     5.196     1.854     1.733 -0.3108 -0.3435  0.8862
 
              Baa    -0.0468    -6.616    -2.361    -2.207 -0.5832  0.7179  0.3800
     6 Na(23) Bbb    -0.0381    -5.382    -1.920    -1.795  0.6911  0.6844 -0.2324
              Bcc     0.0850    11.998     4.281     4.002  0.4270 -0.1271  0.8953
 
              Baa    -0.0343    -4.841    -1.727    -1.615 -0.0536  0.9841  0.1693
     7 Na(23) Bbb    -0.0317    -4.478    -1.598    -1.494  0.9977  0.0455  0.0508
              Bcc     0.0660     9.318     3.325     3.108 -0.0423 -0.1716  0.9843
 

 ---------------------------------------------------------------------------------

 No NMR shielding tensors so no spin-rotation constants.
 Leave Link  601 at Mon Nov 13 12:27:29 2023, MaxMem=  1879048192 cpu:               2.7 elap:               0.2
 (Enter /home/sekinelabo/g16/l701.exe)
 ... and contract with generalized density number  0.
 Compute integral first derivatives.
 Leave Link  701 at Mon Nov 13 12:27:29 2023, MaxMem=  1879048192 cpu:               1.7 elap:               0.1
 (Enter /home/sekinelabo/g16/l702.exe)
 L702 exits ... SP integral derivatives will be done elsewhere.
 Leave Link  702 at Mon Nov 13 12:27:29 2023, MaxMem=  1879048192 cpu:               0.4 elap:               0.0
 (Enter /home/sekinelabo/g16/l703.exe)
 Integral derivatives from FoFJK, PRISM(SPDF).
 Compute integral first derivatives, UseDBF=F ICtDFT=           0.
 Calling FoFJK, ICntrl=      2127 FMM=F ISym2X=0 I1Cent= 0 IOpClX= 1 NMat=1 NMatS=1 NMatT=0.
 FoFJK:  IHMeth= 1 ICntrl=    2127 DoSepK=F KAlg= 0 I1Cent=           0 FoldK=F
 IRaf=         0 NMat=       1 IRICut=       1 DoRegI=T DoRafI=F ISym2E= 0 IDoP0=0 IntGTp=1.
 FoFCou: FMM=F IPFlag=           0 FMFlag=      100000 FMFlg1=         800
         NFxFlg=           0 DoJE=F BraDBF=F KetDBF=F FulRan=T
         wScrn=  0.000000 ICntrl=      2127 IOpCl=  1 I1Cent=           0 NGrid=           0
         NMat0=    1 NMatS0=      1 NMatT0=    0 NMatD0=    1 NMtDS0=    0 NMtDT0=    0
 Symmetry not used in FoFCou.
 Leave Link  703 at Mon Nov 13 12:27:32 2023, MaxMem=  1879048192 cpu:              37.0 elap:               2.4
 (Enter /home/sekinelabo/g16/l716.exe)
 Dipole        = 1.46123766D-01 2.62285376D-02 3.65255803D-02
 ***** Axes restored to original set *****
 -------------------------------------------------------------------
 Center     Atomic                   Forces (Hartrees/Bohr)
 Number     Number              X              Y              Z
 -------------------------------------------------------------------
      1       11          -0.005733392   -0.000816425   -0.002373183
      2       11          -0.018359996   -0.005892002    0.011303278
      3       11          -0.009615133   -0.008769638   -0.023498679
      4       11           0.009011238    0.010448277    0.028171871
      5       11          -0.008429266    0.016250256   -0.001004127
      6       11           0.022958170    0.013039960   -0.015138217
      7       11           0.010168380   -0.024260428    0.002539055
 -------------------------------------------------------------------
 Cartesian Forces:  Max     0.028171871 RMS     0.014150777
 Z-matrix is all fixed cartesians, so copy forces.
 Force constants in Cartesian coordinates: 
                1             2             3             4             5 
      1  0.503304D-01
      2  0.851913D-04  0.513859D-01
      3  0.140888D-02 -0.596827D-02  0.340549D-01
      4 -0.512675D-01  0.104992D-01 -0.148880D-01  0.338811D+00
      5  0.562118D-02 -0.947131D-01  0.102934D-01 -0.384960D-02  0.375980D+00
      6 -0.100731D-02  0.106135D-01 -0.620714D-01 -0.927543D-02 -0.227583D-01
      7 -0.724485D-03  0.268771D-02  0.980550D-02 -0.499790D-01  0.138317D-01
      8 -0.369311D-03  0.243713D-02  0.107080D-02 -0.285407D-02 -0.468850D-01
      9 -0.138777D-03  0.206315D-03  0.301387D-02 -0.952408D-02 -0.166058D-01
     10  0.745671D-03 -0.393299D-02 -0.579791D-02 -0.812764D-01 -0.525630D-02
     11 -0.246799D-02  0.189674D-01 -0.271192D-02 -0.138712D-02 -0.891759D-01
     12 -0.852113D-04 -0.218281D-02  0.103513D-01  0.967794D-02  0.563757D-02
     13  0.147683D-02 -0.119876D-01  0.396969D-02 -0.516566D-01 -0.280807D-01
     14 -0.280198D-03  0.201126D-02  0.215390D-03  0.188954D-01 -0.646994D-01
     15 -0.272474D-03  0.146435D-02  0.201846D-02 -0.304413D-02  0.175843D-01
     16  0.463309D-03 -0.482098D-02  0.514789D-02 -0.493553D-01 -0.117435D-01
     17 -0.115133D-02  0.927808D-02 -0.284670D-02 -0.431631D-02 -0.328237D-01
     18  0.770829D-05 -0.249139D-02  0.896069D-02  0.115971D-01  0.123610D-01
     19 -0.102420D-02  0.746947D-02  0.353956D-03 -0.552758D-01  0.294772D-01
     20 -0.143755D-02  0.106333D-01 -0.527451D-04 -0.169875D-01 -0.476825D-01
     21  0.871852D-04 -0.164168D-02  0.367216D-02  0.154566D-01 -0.651206D-02
                6             7             8             9            10 
      6  0.318732D+00
      7  0.333559D-01  0.119571D+00
      8  0.285742D-02  0.308337D-02  0.123911D+00
      9 -0.869796D-01  0.273543D-01  0.285021D-01  0.178621D+00
     10 -0.426482D-01  0.147862D-01 -0.360699D-02 -0.883159D-02  0.127586D+00
     11 -0.112315D-01 -0.606509D-02  0.207229D-01 -0.139361D-01  0.361742D-03
     12 -0.628921D-01 -0.105776D-01 -0.812816D-02 -0.105602D-01  0.260659D-01
     13  0.109338D-01 -0.291554D-02 -0.671973D-02 -0.860525D-02 -0.869201D-02
     14  0.177216D-02  0.131846D-01 -0.219153D-01  0.943275D-02 -0.268535D-02
     15 -0.447474D-01  0.514064D-02 -0.291289D-01 -0.971943D-02 -0.183836D-01
     16  0.105616D-01 -0.512376D-01 -0.101497D-01  0.845961D-02 -0.321662D-01
     17  0.101379D-01 -0.218948D-01 -0.463549D-01  0.985846D-02 -0.306192D-03
     18 -0.334930D-01 -0.366840D-01 -0.245063D-01 -0.299394D-01  0.421197D-01
     19 -0.192045D-02 -0.295003D-01  0.206164D-01 -0.871421D-02 -0.209837D-01
     20  0.860888D-02 -0.482746D-02 -0.319157D-01 -0.174577D-01  0.154261D-01
     21 -0.285488D-01 -0.283948D-01  0.293331D-01 -0.444364D-01  0.747565D-02
               11            12            13            14            15 
     11  0.140509D+00
     12  0.174057D-01  0.207103D+00
     13  0.143824D-01 -0.194181D-02  0.113839D+00
     14 -0.104229D-01 -0.136681D-01 -0.247226D-01  0.139909D+00
     15  0.294575D-01 -0.193407D-01  0.129167D-02 -0.920689D-02  0.822454D-01
     16  0.885520D-03 -0.953634D-02 -0.672460D-01 -0.171822D-01  0.165417D-01
     17 -0.358346D-01 -0.626584D-02  0.428845D-01 -0.384036D-01 -0.134540D-01
     18  0.252075D-01 -0.843946D-01 -0.288041D-02  0.638797D-02 -0.300941D-01
     19 -0.570941D-02 -0.136029D-01  0.151948D-01  0.127904D-01 -0.127382D-02
     20 -0.447663D-01  0.720165D-02  0.142437D-01 -0.647879D-02  0.328364D-02
     21 -0.441913D-01 -0.402664D-01 -0.276773D-02  0.506673D-02  0.196378D-01
               16            17            18            19            20 
     16  0.225229D+00
     17  0.220804D-01  0.200457D+00
     18 -0.262189D-01 -0.227615D-01  0.191516D+00
     19 -0.256871D-01 -0.372963D-01  0.120587D-01  0.117276D+00
     20  0.209305D-01 -0.563179D-01  0.580279D-02 -0.273478D-01  0.176528D+00
     21 -0.495562D-02  0.253317D-01 -0.225554D-01  0.130987D-01 -0.738647D-02
               21 
     21  0.112497D+00
 Leave Link  716 at Mon Nov 13 12:27:32 2023, MaxMem=  1879048192 cpu:               0.5 elap:               0.0
 (Enter /home/sekinelabo/g16/l103.exe)

 GradGradGradGradGradGradGradGradGradGradGradGradGradGradGradGradGradGrad
 Berny optimization.
 Search for a local minimum.
 Step number   1 out of a maximum of    2
 All quantities printed in internal units (Hartrees-Bohrs-Radians)
 Second derivative matrix not updated -- first step.
 ITU=  0
     Eigenvalues ---    0.05125   0.06274   0.07153   0.14227   0.15205
     Eigenvalues ---    0.15999   0.19919   0.21537   0.24198   0.26628
     Eigenvalues ---    0.27849   0.31154   0.39409   0.40512   0.46287
 Quadratic step=3.906D-01 exceeds max=3.000D-01 adjusted using Lamda=-3.646D-02.
 Angle between NR and scaled steps=   8.34 degrees.
 Angle between quadratic step and forces=  19.87 degrees.
 Linear search not attempted -- first point.
 B after Tr=     0.000000    0.000000   -0.000000
         Rot=    1.000000   -0.000000    0.000000    0.000000 Ang=   0.00 deg.
 Variable       Old X    -DE/DX   Delta X   Delta X   Delta X     New X
                                 (Linear)    (Quad)   (Total)
    X1        0.00000  -0.00573   0.00000  -0.09465  -0.09465  -0.09465
    Y1        2.60613  -0.00082   0.00000  -0.02066  -0.02066   2.58547
    Z1        4.34485  -0.00237   0.00000  -0.00935  -0.00935   4.33550
    X2        5.26896  -0.01836   0.00000  -0.05084  -0.05084   5.21812
    Y2        3.31942  -0.00589   0.00000  -0.01144  -0.01144   3.30799
    Z2        4.53864   0.01130   0.00000   0.03316   0.03316   4.57179
    X3        6.80729  -0.00962   0.00000  -0.03645  -0.03645   6.77084
    Y3        2.00715  -0.00877   0.00000  -0.04991  -0.04991   1.95724
    Z3        0.00000  -0.02350   0.00000  -0.09919  -0.09919  -0.09919
    X4        9.34583   0.00901   0.00000   0.06436   0.06436   9.41018
    Y4        4.46202   0.01045   0.00000   0.04297   0.04297   4.50499
    Z4        7.12149   0.02817   0.00000   0.11266   0.11266   7.23415
    X5        5.89472  -0.00843   0.00000  -0.03720  -0.03720   5.85753
    Y5        8.33481   0.01625   0.00000   0.11218   0.11218   8.44699
    Z5        2.77276  -0.00100   0.00000  -0.00492  -0.00492   2.76783
    X6       10.28747   0.02296   0.00000   0.08813   0.08813  10.37560
    Y6        5.32390   0.01304   0.00000   0.04476   0.04476   5.36865
    Z6        2.29231  -0.01514   0.00000  -0.04645  -0.04645   2.24587
    X7        9.88609   0.01017   0.00000   0.06665   0.06665   9.95274
    Y7        0.00000  -0.02426   0.00000  -0.11789  -0.11789  -0.11789
    Z7        4.04592   0.00254   0.00000   0.01410   0.01410   4.06001
         Item               Value     Threshold  Converged?
 Maximum Force            0.028172     0.000450     NO 
 RMS     Force            0.014151     0.000300     NO 
 Maximum Displacement     0.117892     0.001800     NO 
 RMS     Displacement     0.065496     0.001200     NO 
 Predicted change in Energy=-1.079429D-02
 GradGradGradGradGradGradGradGradGradGradGradGradGradGradGradGradGradGrad

 Leave Link  103 at Mon Nov 13 12:27:32 2023, MaxMem=  1879048192 cpu:               0.3 elap:               0.0
 (Enter /home/sekinelabo/g16/l9999.exe)
 1\1\GINC-SEKINELABO-XA7R-R37\Force\UB3LYP\6-311+G(d)\Na7(2)\SEKINELABO
 \13-Nov-2023\0\\#P B3LYP/6-311+g(d) force\\Gaussian input prepared by 
 ASE\\0,2\Na,0.,1.3791063804,2.2991956623\Na,2.7882129902,1.7565623463,
 2.4017431271\Na,3.6022602821,1.0621371117,0.\Na,4.9455991532,2.3611991
 49,3.7685325763\Na,3.1193530092,4.4105924279,1.4672791895\Na,5.4438967
 27,2.8172855537,1.2130393345\Na,5.2314928977,0.,2.1410069626\\Version=
 ES64L-G16RevB.01\State=2-A\HF=-1136.0665656\S2=0.75993\S2-1=0.\S2A=0.7
 50061\RMSD=5.835e-09\RMSF=1.415e-02\Dipole=-0.1461238,0.0262285,-0.036
 5256\Quadrupole=4.6307923,-4.1931633,-0.437629,-0.9215423,0.2490571,-0
 .9904949\PG=C01 [X(Na7)]\\@


 THE ONLY DIFFERENCE BETWEEN ECCENTRICS AND JOGGERS
 IS THAT JOGGERS WEAR SWEATBANDS WHEN THEY RUN IN THE RAIN.
 Job cpu time:       0 days  0 hours  5 minutes  4.3 seconds.
 Elapsed time:       0 days  0 hours  0 minutes 25.1 seconds.
 File lengths (MBytes):  RWF=     32 Int=      0 D2E=      0 Chk=      5 Scr=      1
 Normal termination of Gaussian 16 at Mon Nov 13 12:27:32 2023.
