 Entering Gaussian System, Link 0=g16
 Initial command:
 /home/sekinelabo/g16/l1.exe "/home/sekinelabo/g16temp/Gau-1046113.inp" -scrdir="/home/sekinelabo/g16temp/"
 Entering Link 1 = /home/sekinelabo/g16/l1.exe PID=   1046125.
  
 Copyright (c) 1988-2017, Gaussian, Inc.  All Rights Reserved.
  
 This is part of the Gaussian(R) 16 program.  It is based on
 the Gaussian(R) 09 system (copyright 2009, Gaussian, Inc.),
 the Gaussian(R) 03 system (copyright 2003, Gaussian, Inc.),
 the Gaussian(R) 98 system (copyright 1998, Gaussian, Inc.),
 the Gaussian(R) 94 system (copyright 1995, Gaussian, Inc.),
 the Gaussian 92(TM) system (copyright 1992, Gaussian, Inc.),
 the Gaussian 90(TM) system (copyright 1990, Gaussian, Inc.),
 the Gaussian 88(TM) system (copyright 1988, Gaussian, Inc.),
 the Gaussian 86(TM) system (copyright 1986, Carnegie Mellon
 University), and the Gaussian 82(TM) system (copyright 1983,
 Carnegie Mellon University). Gaussian is a federally registered
 trademark of Gaussian, Inc.
  
 This software contains proprietary and confidential information,
 including trade secrets, belonging to Gaussian, Inc.
  
 This software is provided under written license and may be
 used, copied, transmitted, or stored only in accord with that
 written license.
  
 The following legend is applicable only to US Government
 contracts under FAR:
  
                    RESTRICTED RIGHTS LEGEND
  
 Use, reproduction and disclosure by the US Government is
 subject to restrictions as set forth in subparagraphs (a)
 and (c) of the Commercial Computer Software - Restricted
 Rights clause in FAR 52.227-19.
  
 Gaussian, Inc.
 340 Quinnipiac St., Bldg. 40, Wallingford CT 06492
  
  
 ---------------------------------------------------------------
 Warning -- This program may not be used in any manner that
 competes with the business of Gaussian, Inc. or will provide
 assistance to any competitor of Gaussian, Inc.  The licensee
 of this program is prohibited from giving any competitor of
 Gaussian, Inc. access to this program.  By using this program,
 the user acknowledges that Gaussian, Inc. is engaged in the
 business of creating and licensing software in the field of
 computational chemistry and represents and warrants to the
 licensee that it is not a competitor of Gaussian, Inc. and that
 it will not use this program in any manner prohibited above.
 ---------------------------------------------------------------
  

 Cite this work as:
 Gaussian 16, Revision B.01,
 M. J. Frisch, G. W. Trucks, H. B. Schlegel, G. E. Scuseria, 
 M. A. Robb, J. R. Cheeseman, G. Scalmani, V. Barone, 
 G. A. Petersson, H. Nakatsuji, X. Li, M. Caricato, A. V. Marenich, 
 J. Bloino, B. G. Janesko, R. Gomperts, B. Mennucci, H. P. Hratchian, 
 J. V. Ortiz, A. F. Izmaylov, J. L. Sonnenberg, D. Williams-Young, 
 F. Ding, F. Lipparini, F. Egidi, J. Goings, B. Peng, A. Petrone, 
 T. Henderson, D. Ranasinghe, V. G. Zakrzewski, J. Gao, N. Rega, 
 G. Zheng, W. Liang, M. Hada, M. Ehara, K. Toyota, R. Fukuda, 
 J. Hasegawa, M. Ishida, T. Nakajima, Y. Honda, O. Kitao, H. Nakai, 
 T. Vreven, K. Throssell, J. A. Montgomery, Jr., J. E. Peralta, 
 F. Ogliaro, M. J. Bearpark, J. J. Heyd, E. N. Brothers, K. N. Kudin, 
 V. N. Staroverov, T. A. Keith, R. Kobayashi, J. Normand, 
 K. Raghavachari, A. P. Rendell, J. C. Burant, S. S. Iyengar, 
 J. Tomasi, M. Cossi, J. M. Millam, M. Klene, C. Adamo, R. Cammi, 
 J. W. Ochterski, R. L. Martin, K. Morokuma, O. Farkas, 
 J. B. Foresman, and D. J. Fox, Gaussian, Inc., Wallingford CT, 2016.
 
 ******************************************
 Gaussian 16:  ES64L-G16RevB.01 20-Dec-2017
                23-Nov-2023 
 ******************************************
 %nprocshared=14
 Will use up to   14 processors via shared memory.
 -------------------------
 #P B3LYP/6-311+g(d) force
 -------------------------
 1/10=7,30=1,38=1/1,3;
 2/12=2,17=6,18=5,40=1/2;
 3/5=4,6=6,7=11,11=2,25=1,30=1,71=1,74=-5/1,2,3;
 4//1;
 5/5=2,38=5/2;
 6/7=2,8=2,9=2,10=2,28=1/1;
 7/29=1/1,2,3,16;
 1/10=7,30=1/3;
 99//99;
 Leave Link    1 at Thu Nov 23 12:30:20 2023, MaxMem=           0 cpu:               0.7 elap:               0.3
 (Enter /home/sekinelabo/g16/l101.exe)
 -----
 DPGEN
 -----
 Symbolic Z-matrix:
 Charge =  0 Multiplicity = 2
 Na                    15.2191   99.046    1.55356 
 Na                    12.4498   0.03534   1.64436 
 Na                    9.03482   3.02481   1.82663 
 Na                    6.11485   3.86809   1.70705 
 Na                    2.49356   5.74176   0.0435 
 Na                    99.7884   4.11813   99.6054 
 Na                    99.2085   2.31782   2.58722 
 
 ITRead=  0  0  0  0  0  0  0
 MicOpt= -1 -1 -1 -1 -1 -1 -1
 NAtoms=      7 NQM=        7 NQMF=       0 NMMI=      0 NMMIF=      0
                NMic=       0 NMicF=      0.
                    Isotopes and Nuclear Properties:
 (Nuclear quadrupole moments (NQMom) in fm**2, nuclear magnetic moments (NMagM)
  in nuclear magnetons)

  Atom         1           2           3           4           5           6           7
 IAtWgt=          23          23          23          23          23          23          23
 AtmWgt=  22.9897697  22.9897697  22.9897697  22.9897697  22.9897697  22.9897697  22.9897697
 NucSpn=           3           3           3           3           3           3           3
 AtZEff=  -0.0000000  -0.0000000  -0.0000000  -0.0000000  -0.0000000  -0.0000000  -0.0000000
 NQMom=   10.4000000  10.4000000  10.4000000  10.4000000  10.4000000  10.4000000  10.4000000
 NMagM=    2.2175200   2.2175200   2.2175200   2.2175200   2.2175200   2.2175200   2.2175200
 AtZNuc=  11.0000000  11.0000000  11.0000000  11.0000000  11.0000000  11.0000000  11.0000000
 Leave Link  101 at Thu Nov 23 12:30:23 2023, MaxMem=   104857600 cpu:               2.4 elap:               2.8
 (Enter /home/sekinelabo/g16/l103.exe)

 GradGradGradGradGradGradGradGradGradGradGradGradGradGradGradGradGradGrad
 Berny optimization.
 Initialization pass.
 Trust Radius=3.00D-01 FncErr=1.00D-07 GrdErr=1.00D-07 EigMax=2.50D+02 EigMin=1.00D-04
 Number of steps in this run=      2 maximum allowed number of steps=      2.
 GradGradGradGradGradGradGradGradGradGradGradGradGradGradGradGradGradGrad

 Leave Link  103 at Thu Nov 23 12:30:23 2023, MaxMem=   104857600 cpu:               0.5 elap:               0.5
 (Enter /home/sekinelabo/g16/l202.exe)
                          Input orientation:                          
 ---------------------------------------------------------------------
 Center     Atomic      Atomic             Coordinates (Angstroms)
 Number     Number       Type             X           Y           Z
 ---------------------------------------------------------------------
      1         11           0       15.219100   99.046000    1.553560
      2         11           0       12.449800    0.035339    1.644360
      3         11           0        9.034820    3.024810    1.826630
      4         11           0        6.114850    3.868090    1.707050
      5         11           0        2.493560    5.741760    0.043504
      6         11           0       99.788400    4.118130   99.605400
      7         11           0       99.208500    2.317820    2.587220
 ---------------------------------------------------------------------
                    Distance matrix (angstroms):
                    1          2          3          4          5
     1  Na   0.000000
     2  Na  99.049423   0.000000
     3  Na  96.220522   4.542273   0.000000
     4  Na  95.612476   7.404424   3.041652   0.000000
     5  Na  94.180151  11.586747   7.304070   4.403608   0.000000
     6  Na 160.553512 131.305238 133.409503 135.494957 139.217431
     7  Na 128.107879  86.793840  90.179659  93.110717  96.808953
                    6          7
     6  Na   0.000000
     7  Na  97.036615   0.000000
 Stoichiometry    Na7(2)
 Framework group  C1[X(Na7)]
 Deg. of freedom    15
 Full point group                 C1      NOp   1
 Largest Abelian subgroup         C1      NOp   1
 Largest concise Abelian subgroup C1      NOp   1
                         Standard orientation:                         
 ---------------------------------------------------------------------
 Center     Atomic      Atomic             Coordinates (Angstroms)
 Number     Number       Type             X           Y           Z
 ---------------------------------------------------------------------
      1         11           0       42.888451   74.102154    2.156859
      2         11           0       21.574791  -22.469901   -3.352619
      3         11           0       24.818160  -20.098012   -5.470861
      4         11           0       27.348238  -19.780849   -7.129100
      5         11           0       31.571426  -18.847015   -7.956387
      6         11           0     -102.596569   12.897373  -27.262759
      7         11           0      -45.604497   -5.803752   49.014867
 ---------------------------------------------------------------------
 Rotational constants (GHZ):           0.0020637           0.0010683           0.0008930
 Leave Link  202 at Thu Nov 23 12:30:24 2023, MaxMem=   104857600 cpu:               0.7 elap:               0.8
 (Enter /home/sekinelabo/g16/l301.exe)
 Standard basis: 6-311+G(d) (5D, 7F)
 Ernie: Thresh=  0.10000D-02 Tol=  0.10000D-05 Strict=F.
 There are   217 symmetry adapted cartesian basis functions of A   symmetry.
 There are   210 symmetry adapted basis functions of A   symmetry.
   210 basis functions,   350 primitive gaussians,   217 cartesian basis functions
    39 alpha electrons       38 beta electrons
       nuclear repulsion energy        81.5452982004 Hartrees.
 IExCor=  402 DFT=T Ex+Corr=B3LYP ExCW=0 ScaHFX=  0.200000
 ScaDFX=  0.800000  0.720000  1.000000  0.810000 ScalE2=  1.000000  1.000000
 IRadAn=      5 IRanWt=     -1 IRanGd=            0 ICorTp=0 IEmpDi=  4
 NAtoms=    7 NActive=    7 NUniq=    7 SFac= 1.00D+00 NAtFMM=   60 NAOKFM=F Big=F
 Integral buffers will be    131072 words long.
 Raffenetti 2 integral format.
 Two-electron integral symmetry is turned on.
 Leave Link  301 at Thu Nov 23 12:30:25 2023, MaxMem=   104857600 cpu:               0.7 elap:               0.9
 (Enter /home/sekinelabo/g16/l302.exe)
 NPDir=0 NMtPBC=     1 NCelOv=     1 NCel=       1 NClECP=     1 NCelD=      1
         NCelK=      1 NCelE2=     1 NClLst=     1 CellRange=     0.0.
 One-electron integrals computed using PRISM.
 One-electron integral symmetry used in STVInt
 NBasis=   210 RedAO= T EigKep=  9.90D-06  NBF=   210
 NBsUse=   210 1.00D-06 EigRej= -1.00D+00 NBFU=   210
 Precomputing XC quadrature grid using
 IXCGrd= 4 IRadAn=           5 IRanWt=          -1 IRanGd=           0 AccXCQ= 0.00D+00.
 Generated NRdTot=       0 NPtTot=           0 NUsed=           0 NTot=          32
 NSgBfM=   111   111   111   111   111 MxSgAt=     7 MxSgA2=     4.
 Leave Link  302 at Thu Nov 23 12:30:58 2023, MaxMem=   104857600 cpu:              26.7 elap:              33.1
 (Enter /home/sekinelabo/g16/l303.exe)
 DipDrv:  MaxL=1.
 Leave Link  303 at Thu Nov 23 12:31:01 2023, MaxMem=   104857600 cpu:               2.2 elap:               2.9
 (Enter /home/sekinelabo/g16/l401.exe)
 ExpMin= 7.60D-03 ExpMax= 3.62D+04 ExpMxC= 1.21D+03 IAcc=3 IRadAn=         5 AccDes= 0.00D+00
 Harris functional with IExCor=  402 and IRadAn=       5 diagonalized for initial guess.
 HarFok:  IExCor=  402 AccDes= 0.00D+00 IRadAn=         5 IDoV= 1 UseB2=F ITyADJ=14
 ICtDFT=  3500011 ScaDFX=  1.000000  1.000000  1.000000  1.000000
 FoFCou: FMM=F IPFlag=           0 FMFlag=      100000 FMFlg1=           0
         NFxFlg=           0 DoJE=T BraDBF=F KetDBF=T FulRan=T
         wScrn=  0.000000 ICntrl=       500 IOpCl=  0 I1Cent=   200000004 NGrid=           0
         NMat0=    1 NMatS0=      1 NMatT0=    0 NMatD0=    1 NMtDS0=    0 NMtDT0=    0
 Petite list used in FoFCou.
 Harris En= -1135.79529973722    
 JPrj=0 DoOrth=F DoCkMO=F.
 Initial guess <Sx>= 0.0000 <Sy>= 0.0000 <Sz>= 0.5000 <S**2>= 0.7500 S= 0.5000
 Leave Link  401 at Thu Nov 23 12:31:23 2023, MaxMem=   104857600 cpu:              17.5 elap:              21.8
 (Enter /home/sekinelabo/g16/l502.exe)
 Integral symmetry usage will be decided dynamically.
 UHF open shell SCF:
 Using DIIS extrapolation, IDIIS=  1040.
 NGot=   104857600 LenX=   104758440 LenY=   104710910
 Requested convergence on RMS density matrix=1.00D-08 within 128 cycles.
 Requested convergence on MAX density matrix=1.00D-06.
 Requested convergence on             energy=1.00D-06.
 No special actions if energy rises.
 Fock matrices will be formed incrementally for  20 cycles.

 Cycle   1  Pass 1  IDiag  1:
 FoFJK:  IHMeth= 1 ICntrl=       0 DoSepK=F KAlg= 0 I1Cent=           0 FoldK=F
 IRaf= 350000000 NMat=       1 IRICut=       1 DoRegI=T DoRafI=F ISym2E= 0 IDoP0=0 IntGTp=1.
 FoFCou: FMM=F IPFlag=           0 FMFlag=      100000 FMFlg1=           0
         NFxFlg=           0 DoJE=F BraDBF=F KetDBF=F FulRan=T
         wScrn=  0.000000 ICntrl=         0 IOpCl=  1 I1Cent=           0 NGrid=           0
         NMat0=    1 NMatS0=      1 NMatT0=    0 NMatD0=    1 NMtDS0=    0 NMtDT0=    0
 Symmetry not used in FoFCou.
 E= -1135.84055259889    
 DIIS: error= 2.09D-02 at cycle   1 NSaved=   1.
 NSaved= 1 IEnMin= 1 EnMin= -1135.84055259889     IErMin= 1 ErrMin= 2.09D-02
 ErrMax= 2.09D-02  0.00D+00 EMaxC= 1.00D-01 BMatC= 2.01D-01 BMatP= 2.01D-01
 IDIUse=3 WtCom= 7.91D-01 WtEn= 2.09D-01
 Coeff-Com:  0.100D+01
 Coeff-En:   0.100D+01
 Coeff:      0.100D+01
 Gap=    -0.056 Goal=   None    Shift=    0.000
 Gap=    -0.189 Goal=   None    Shift=    0.000
 GapD=   -0.189 DampG=0.250 DampE=0.500 DampFc=0.2500 IDamp=-1.
 Damping current iteration by 2.50D-01
 RMSDP=1.11D-02 MaxDP=1.17D+00              OVMax= 1.00D+00

 Cycle   2  Pass 1  IDiag  1:
 RMSU=  2.67D-03    CP:  9.61D-01
 E= -1135.76525096799     Delta-E=        0.075301630900 Rises=F Damp=T
 DIIS: error= 1.40D-02 at cycle   2 NSaved=   2.
 NSaved= 2 IEnMin= 1 EnMin= -1135.84055259889     IErMin= 2 ErrMin= 1.40D-02
 ErrMax= 1.40D-02  0.00D+00 EMaxC= 1.00D-01 BMatC= 8.19D-02 BMatP= 2.01D-01
 IDIUse=3 WtCom= 8.60D-01 WtEn= 1.40D-01
 Coeff-Com: -0.449D+00 0.145D+01
 Coeff-En:   0.648D+00 0.352D+00
 Coeff:     -0.295D+00 0.130D+01
 Gap=     0.015 Goal=   None    Shift=    0.000
 Gap=     0.016 Goal=   None    Shift=    0.000
 RMSDP=8.51D-03 MaxDP=6.82D-01 DE= 7.53D-02 OVMax= 1.00D+00

 Cycle   3  Pass 1  IDiag  1:
 RMSU=  8.09D-03    CP:  9.86D-01  3.01D-02
 E= -1135.11910516272     Delta-E=        0.646145805268 Rises=F Damp=F
 DIIS: error= 1.71D-02 at cycle   3 NSaved=   3.
 NSaved= 3 IEnMin= 1 EnMin= -1135.84055259889     IErMin= 2 ErrMin= 1.40D-02
 ErrMax= 1.71D-02  0.00D+00 EMaxC= 1.00D-01 BMatC= 1.34D-01 BMatP= 8.19D-02
 IDIUse=2 WtCom= 0.00D+00 WtEn= 1.00D+00
 EnCoef did     4 forward-backward iterations
 Coeff-En:   0.445D+00 0.415D+00 0.140D+00
 Coeff:      0.445D+00 0.415D+00 0.140D+00
 Gap=     0.034 Goal=   None    Shift=    0.000
 Gap=     0.047 Goal=   None    Shift=    0.000
 RMSDP=1.07D-02 MaxDP=7.46D-01 DE= 6.46D-01 OVMax= 1.00D+00

 Cycle   4  Pass 1  IDiag  1:
 RMSU=  5.29D-03    CP:  9.05D-01  2.09D+00  9.18D-02
 E= -1135.64063874305     Delta-E=       -0.521533580329 Rises=F Damp=F
 DIIS: error= 1.23D-02 at cycle   4 NSaved=   4.
 NSaved= 4 IEnMin= 1 EnMin= -1135.84055259889     IErMin= 4 ErrMin= 1.23D-02
 ErrMax= 1.23D-02  0.00D+00 EMaxC= 1.00D-01 BMatC= 9.11D-02 BMatP= 8.19D-02
 IDIUse=2 WtCom= 0.00D+00 WtEn= 1.00D+00
 EnCoef did   100 forward-backward iterations
 Coeff-En:   0.544D+00 0.885D-02 0.786D-01 0.369D+00
 Coeff:      0.544D+00 0.885D-02 0.786D-01 0.369D+00
 Gap=     0.025 Goal=   None    Shift=    0.000
 Gap=     0.023 Goal=   None    Shift=    0.000
 RMSDP=5.98D-03 MaxDP=7.46D-01 DE=-5.22D-01 OVMax= 9.86D-01

 Cycle   5  Pass 1  IDiag  1:
 RMSU=  4.00D-03    CP:  9.35D-01  1.31D+00  2.90D-01  3.33D-01
 E= -1135.68243748566     Delta-E=       -0.041798742607 Rises=F Damp=F
 DIIS: error= 1.13D-02 at cycle   5 NSaved=   5.
 NSaved= 5 IEnMin= 1 EnMin= -1135.84055259889     IErMin= 5 ErrMin= 1.13D-02
 ErrMax= 1.13D-02  0.00D+00 EMaxC= 1.00D-01 BMatC= 3.51D-02 BMatP= 8.19D-02
 IDIUse=3 WtCom= 8.87D-01 WtEn= 1.13D-01
 EnCoef did   100 forward-backward iterations
 Coeff-Com:  0.194D+00 0.970D-01 0.932D-01 0.183D+00 0.432D+00
 Coeff-En:   0.534D+00 0.303D-02 0.122D-02 0.252D+00 0.210D+00
 Coeff:      0.232D+00 0.864D-01 0.828D-01 0.191D+00 0.407D+00
 Gap=    -0.091 Goal=   None    Shift=    0.000
 Gap=    -0.024 Goal=   None    Shift=    0.000
 RMSDP=8.58D-03 MaxDP=9.11D-01 DE=-4.18D-02 OVMax= 1.00D+00

 Cycle   6  Pass 1  IDiag  1:
 RMSU=  4.79D-03    CP:  9.27D-01  1.07D+00 -1.09D-01  6.57D-01 -5.18D-01
 E= -1135.62938883782     Delta-E=        0.053048647836 Rises=F Damp=F
 DIIS: error= 1.39D-02 at cycle   6 NSaved=   6.
 NSaved= 6 IEnMin= 1 EnMin= -1135.84055259889     IErMin= 5 ErrMin= 1.13D-02
 ErrMax= 1.39D-02  0.00D+00 EMaxC= 1.00D-01 BMatC= 5.90D-02 BMatP= 3.51D-02
 IDIUse=2 WtCom= 0.00D+00 WtEn= 1.00D+00
 EnCoef did   100 forward-backward iterations
 Rare condition: small coef for last iteration:  0.137D-15
 Coeff-En:   0.302D-01 0.000D+00 0.000D+00 0.000D+00 0.505D+00 0.464D+00
 Coeff:      0.302D-01 0.000D+00 0.000D+00 0.000D+00 0.505D+00 0.464D+00
 Gap=     0.017 Goal=   None    Shift=    0.000
 Gap=     0.036 Goal=   None    Shift=    0.000
 RMSDP=6.54D-03 MaxDP=9.11D-01 DE= 5.30D-02 OVMax= 9.85D-01

 Cycle   7  Pass 1  IDiag  1:
 RMSU=  3.56D-03    CP:  9.35D-01  8.87D-01  2.24D-01  4.65D-01  2.70D-01
                    CP:  2.92D-01
 E= -1135.67390418602     Delta-E=       -0.044515348193 Rises=F Damp=F
 DIIS: error= 1.16D-02 at cycle   7 NSaved=   7.
 NSaved= 7 IEnMin= 1 EnMin= -1135.84055259889     IErMin= 5 ErrMin= 1.13D-02
 ErrMax= 1.16D-02  0.00D+00 EMaxC= 1.00D-01 BMatC= 2.47D-02 BMatP= 3.51D-02
 IDIUse=3 WtCom= 8.87D-01 WtEn= 1.13D-01
 EnCoef did   100 forward-backward iterations
 Coeff-Com: -0.669D-01 0.205D+00-0.455D-03-0.126D+00 0.451D+00 0.251D+00
 Coeff-Com:  0.285D+00
 Coeff-En:   0.508D+00 0.000D+00 0.000D+00 0.235D+00 0.212D+00 0.663D-02
 Coeff-En:   0.381D-01
 Coeff:     -0.187D-02 0.182D+00-0.403D-03-0.848D-01 0.424D+00 0.224D+00
 Coeff:      0.257D+00
 Gap=     0.008 Goal=   None    Shift=    0.000
 Gap=     0.001 Goal=   None    Shift=    0.000
 RMSDP=7.17D-03 MaxDP=7.85D-01 DE=-4.45D-02 OVMax= 1.00D+00

 Cycle   8  Pass 1  IDiag  1:
 RMSU=  3.44D-03    CP:  8.97D-01  1.70D+00 -1.33D-01  4.98D-01 -2.86D-01
                    CP:  8.00D-01 -8.81D-02
 E= -1135.56904416743     Delta-E=        0.104860018588 Rises=F Damp=F
 DIIS: error= 1.31D-02 at cycle   8 NSaved=   8.
 NSaved= 8 IEnMin= 1 EnMin= -1135.84055259889     IErMin= 5 ErrMin= 1.13D-02
 ErrMax= 1.31D-02  0.00D+00 EMaxC= 1.00D-01 BMatC= 4.20D-02 BMatP= 2.47D-02
 IDIUse=2 WtCom= 0.00D+00 WtEn= 1.00D+00
 EnCoef did   100 forward-backward iterations
 Rare condition: small coef for last iteration:  0.110D-14
 Coeff-En:   0.268D+00 0.000D+00 0.000D+00 0.000D+00 0.275D+00 0.000D+00
 Coeff-En:   0.255D+00 0.202D+00
 Coeff:      0.268D+00 0.000D+00 0.000D+00 0.000D+00 0.275D+00 0.000D+00
 Coeff:      0.255D+00 0.202D+00
 Gap=     0.026 Goal=   None    Shift=    0.000
 Gap=    -0.054 Goal=   None    Shift=    0.000
 RMSDP=5.54D-03 MaxDP=6.87D-01 DE= 1.05D-01 OVMax= 1.00D+00

 Cycle   9  Pass 1  IDiag  1:
 RMSU=  2.05D-03    CP:  9.12D-01  1.69D+00  1.26D-02  4.57D-01  3.60D-01
                    CP:  5.01D-01 -8.55D-01  1.41D-01
 E= -1135.64160786636     Delta-E=       -0.072563698935 Rises=F Damp=F
 DIIS: error= 1.22D-02 at cycle   9 NSaved=   9.
 NSaved= 9 IEnMin= 1 EnMin= -1135.84055259889     IErMin= 5 ErrMin= 1.13D-02
 ErrMax= 1.22D-02  0.00D+00 EMaxC= 1.00D-01 BMatC= 4.09D-02 BMatP= 2.47D-02
 IDIUse=2 WtCom= 0.00D+00 WtEn= 1.00D+00
 EnCoef did   100 forward-backward iterations
 Coeff-En:   0.813D-06 0.000D+00 0.000D+00 0.497D-02 0.192D-01 0.696D-02
 Coeff-En:   0.497D+00 0.571D-03 0.471D+00
 Coeff:      0.813D-06 0.000D+00 0.000D+00 0.497D-02 0.192D-01 0.696D-02
 Coeff:      0.497D+00 0.571D-03 0.471D+00
 Gap=    -0.009 Goal=   None    Shift=    0.000
 Gap=    -0.003 Goal=   None    Shift=    0.000
 RMSDP=5.84D-03 MaxDP=6.87D-01 DE=-7.26D-02 OVMax= 9.78D-01

 Cycle  10  Pass 1  IDiag  1:
 RMSU=  1.76D-03    CP:  9.49D-01  4.96D-01  1.34D-01  5.42D-02  5.24D-01
                    CP:  6.42D-01  1.47D-01  8.76D-02  5.02D-01
 E= -1135.67603868822     Delta-E=       -0.034430821854 Rises=F Damp=F
 DIIS: error= 1.15D-02 at cycle  10 NSaved=  10.
 NSaved=10 IEnMin= 1 EnMin= -1135.84055259889     IErMin= 5 ErrMin= 1.13D-02
 ErrMax= 1.15D-02  0.00D+00 EMaxC= 1.00D-01 BMatC= 2.30D-02 BMatP= 2.47D-02
 IDIUse=3 WtCom= 8.87D-01 WtEn= 1.13D-01
 EnCoef did   100 forward-backward iterations
 Coeff-Com: -0.730D-01 0.181D+00 0.312D-01-0.899D-01 0.208D+00-0.460D-02
 Coeff-Com:  0.356D+00 0.172D+00 0.146D+00 0.733D-01
 Coeff-En:   0.745D-06 0.000D+00 0.000D+00 0.456D-02 0.208D-01 0.638D-02
 Coeff-En:   0.483D+00 0.523D-03 0.455D+00 0.302D-01
 Coeff:     -0.647D-01 0.160D+00 0.276D-01-0.792D-01 0.187D+00-0.336D-02
 Coeff:      0.371D+00 0.152D+00 0.181D+00 0.684D-01
 Gap=     0.007 Goal=   None    Shift=    0.000
 Gap=     0.017 Goal=   None    Shift=    0.000
 RMSDP=5.61D-03 MaxDP=5.86D-01 DE=-3.44D-02 OVMax= 1.00D+00

 Cycle  11  Pass 1  IDiag  1:
 RMSU=  9.55D-04    CP:  9.16D-01  1.15D+00 -3.75D-02  5.80D-01 -3.34D-01
                    CP:  8.30D-01  1.17D-01  1.23D-01  7.75D-01 -2.10D-01
 E= -1135.65304161288     Delta-E=        0.022997075334 Rises=F Damp=F
 DIIS: error= 1.18D-02 at cycle  11 NSaved=  11.
 NSaved=11 IEnMin= 1 EnMin= -1135.84055259889     IErMin= 5 ErrMin= 1.13D-02
 ErrMax= 1.18D-02  0.00D+00 EMaxC= 1.00D-01 BMatC= 3.23D-02 BMatP= 2.30D-02
 IDIUse=2 WtCom= 0.00D+00 WtEn= 1.00D+00
 EnCoef did   100 forward-backward iterations
 Rare condition: small coef for last iteration: -0.211D-15
 Coeff-En:   0.373D-01 0.000D+00 0.000D+00 0.114D+00 0.197D+00 0.000D+00
 Coeff-En:   0.227D+00 0.000D+00 0.139D+00 0.149D+00 0.138D+00
 Coeff:      0.373D-01 0.000D+00 0.000D+00 0.114D+00 0.197D+00 0.000D+00
 Coeff:      0.227D+00 0.000D+00 0.139D+00 0.149D+00 0.138D+00
 Gap=    -0.012 Goal=   None    Shift=    0.000
 Gap=     0.004 Goal=   None    Shift=    0.000
 RMSDP=4.94D-03 MaxDP=6.24D-01 DE= 2.30D-02 OVMax= 1.00D+00

 Cycle  12  Pass 1  IDiag  1:
 RMSU=  6.34D-04    CP:  9.09D-01  1.66D+00  3.64D-03  4.31D-01  3.46D-01
                    CP:  5.32D-01 -7.94D-01  1.83D-01  9.85D-01 -2.07D-03
                    CP: -6.53D-02
 E= -1135.65531305531     Delta-E=       -0.002271442422 Rises=F Damp=F
 DIIS: error= 1.20D-02 at cycle  12 NSaved=  12.
 NSaved=12 IEnMin= 1 EnMin= -1135.84055259889     IErMin= 5 ErrMin= 1.13D-02
 ErrMax= 1.20D-02  0.00D+00 EMaxC= 1.00D-01 BMatC= 3.05D-02 BMatP= 2.30D-02
 IDIUse=2 WtCom= 0.00D+00 WtEn= 1.00D+00
 EnCoef did   100 forward-backward iterations
 Coeff-En:   0.321D-01 0.000D+00 0.000D+00 0.467D-02 0.371D-01 0.535D-02
 Coeff-En:   0.465D+00 0.000D+00 0.282D-03 0.452D-02 0.602D-02 0.445D+00
 Coeff:      0.321D-01 0.000D+00 0.000D+00 0.467D-02 0.371D-01 0.535D-02
 Coeff:      0.465D+00 0.000D+00 0.282D-03 0.452D-02 0.602D-02 0.445D+00
 Gap=    -0.001 Goal=   None    Shift=    0.000
 Gap=     0.000 Goal=   None    Shift=    0.000
 RMSDP=6.67D-03 MaxDP=6.18D-01 DE=-2.27D-03 OVMax= 9.96D-01

 Cycle  13  Pass 1  IDiag  1:
 RMSU=  2.19D-03    CP:  9.39D-01  1.16D+00  2.14D-01  3.01D-01  5.91D-01
                    CP:  6.80D-02  5.29D-01 -2.33D-01  6.00D-02  1.89D-01
                    CP:  1.42D-01  3.30D-01
 E= -1135.88002835195     Delta-E=       -0.224715296647 Rises=F Damp=F
 DIIS: error= 5.89D-03 at cycle  13 NSaved=  13.
 NSaved=13 IEnMin=13 EnMin= -1135.88002835195     IErMin=13 ErrMin= 5.89D-03
 ErrMax= 5.89D-03  0.00D+00 EMaxC= 1.00D-01 BMatC= 8.09D-03 BMatP= 2.30D-02
 IDIUse=3 WtCom= 9.41D-01 WtEn= 5.89D-02
 EnCoef did   100 forward-backward iterations
 Coeff-Com:  0.473D-01-0.381D-01 0.134D-01 0.145D+00 0.222D+00-0.313D+00
 Coeff-Com: -0.502D+00 0.850D-02-0.108D+01-0.402D-01 0.771D+00 0.895D+00
 Coeff-Com:  0.871D+00
 Coeff-En:   0.000D+00 0.000D+00 0.000D+00 0.000D+00 0.000D+00 0.000D+00
 Coeff-En:   0.839D-02 0.000D+00 0.000D+00 0.000D+00 0.227D+00 0.218D+00
 Coeff-En:   0.547D+00
 Coeff:      0.445D-01-0.359D-01 0.126D-01 0.136D+00 0.209D+00-0.295D+00
 Coeff:     -0.472D+00 0.800D-02-0.102D+01-0.378D-01 0.739D+00 0.855D+00
 Coeff:      0.852D+00
 Gap=     0.064 Goal=   None    Shift=    0.000
 Gap=    -0.073 Goal=   None    Shift=    0.000
 RMSDP=6.76D-03 MaxDP=9.60D-01 DE=-2.25D-01 OVMax= 1.00D+00

 Cycle  14  Pass 1  IDiag  1:
 RMSU=  1.71D-03    CP:  9.27D-01  1.22D+00 -8.68D-02  3.93D-01 -1.19D-01
                    CP:  8.29D-01 -4.86D-01 -1.54D-01  4.49D-01  7.76D-02
                    CP:  9.87D-02  1.90D+00  7.51D-01
 E= -1135.85060137723     Delta-E=        0.029426974720 Rises=F Damp=F
 DIIS: error= 1.43D-02 at cycle  14 NSaved=  14.
 NSaved=14 IEnMin=13 EnMin= -1135.88002835195     IErMin=13 ErrMin= 5.89D-03
 ErrMax= 1.43D-02  0.00D+00 EMaxC= 1.00D-01 BMatC= 2.82D-02 BMatP= 8.09D-03
 IDIUse=2 WtCom= 0.00D+00 WtEn= 1.00D+00
 Coeff-En:   0.000D+00 0.000D+00 0.000D+00 0.000D+00 0.000D+00 0.000D+00
 Coeff-En:   0.000D+00 0.000D+00 0.000D+00 0.000D+00 0.000D+00 0.000D+00
 Coeff-En:   0.526D+00 0.474D+00
 Coeff:      0.000D+00 0.000D+00 0.000D+00 0.000D+00 0.000D+00 0.000D+00
 Coeff:      0.000D+00 0.000D+00 0.000D+00 0.000D+00 0.000D+00 0.000D+00
 Coeff:      0.526D+00 0.474D+00
 Gap=     0.029 Goal=   None    Shift=    0.000
 Gap=     0.030 Goal=   None    Shift=    0.000
 RMSDP=6.79D-03 MaxDP=9.60D-01 DE= 2.94D-02 OVMax= 9.86D-01

 Cycle  15  Pass 1  IDiag  1:
 RMSU=  1.24D-03    CP:  9.43D-01  1.09D+00  2.28D-01  2.69D-01  5.27D-01
                    CP:  4.84D-02  5.13D-01 -2.00D-01 -2.04D-02 -1.32D-01
                    CP:  2.55D-01  5.94D-01  9.68D-01  1.54D-01
 E= -1135.88795426024     Delta-E=       -0.037352883010 Rises=F Damp=F
 DIIS: error= 6.60D-03 at cycle  15 NSaved=  15.
 NSaved=15 IEnMin=15 EnMin= -1135.88795426024     IErMin=13 ErrMin= 5.89D-03
 ErrMax= 6.60D-03  0.00D+00 EMaxC= 1.00D-01 BMatC= 7.81D-03 BMatP= 8.09D-03
 IDIUse=3 WtCom= 9.41D-01 WtEn= 5.89D-02
 EnCoef did    95 forward-backward iterations
 Coeff-Com:  0.726D-02 0.613D-02-0.820D-02 0.190D+00 0.422D+00-0.350D+00
 Coeff-Com: -0.478D+00-0.795D-01-0.123D+01-0.765D-01 0.791D+00 0.746D+00
 Coeff-Com:  0.349D+00 0.399D+00 0.316D+00
 Coeff-En:   0.000D+00 0.000D+00 0.000D+00 0.000D+00 0.000D+00 0.000D+00
 Coeff-En:   0.000D+00 0.000D+00 0.000D+00 0.000D+00 0.000D+00 0.000D+00
 Coeff-En:   0.333D-01 0.467D+00 0.500D+00
 Coeff:      0.683D-02 0.577D-02-0.772D-02 0.179D+00 0.397D+00-0.330D+00
 Coeff:     -0.450D+00-0.748D-01-0.116D+01-0.720D-01 0.744D+00 0.702D+00
 Coeff:      0.330D+00 0.403D+00 0.327D+00
 Gap=    -0.077 Goal=   None    Shift=    0.000
 Gap=    -0.083 Goal=   None    Shift=    0.000
 RMSDP=7.06D-03 MaxDP=1.03D+00 DE=-3.74D-02 OVMax= 1.00D+00

 Cycle  16  Pass 1  IDiag  1:
 RMSU=  5.97D-04    CP:  9.28D-01  1.18D+00 -9.77D-02  3.83D-01 -1.17D-01
                    CP:  8.44D-01 -5.35D-01 -9.45D-02  2.95D-01  2.89D-01
                    CP: -1.04D-01  2.26D+00  7.36D-01  1.16D+00  2.48D-02
 E= -1135.84967036998     Delta-E=        0.038283890263 Rises=F Damp=F
 DIIS: error= 1.47D-02 at cycle  16 NSaved=  16.
 NSaved=16 IEnMin=15 EnMin= -1135.88795426024     IErMin=13 ErrMin= 5.89D-03
 ErrMax= 1.47D-02  0.00D+00 EMaxC= 1.00D-01 BMatC= 2.98D-02 BMatP= 7.81D-03
 IDIUse=2 WtCom= 0.00D+00 WtEn= 1.00D+00
 Rare condition: small coef for last iteration: -0.444D-15
 Coeff-En:   0.000D+00 0.000D+00 0.000D+00 0.000D+00 0.000D+00 0.000D+00
 Coeff-En:   0.000D+00 0.000D+00 0.000D+00 0.000D+00 0.000D+00 0.000D+00
 Coeff-En:   0.000D+00 0.398D-02 0.532D+00 0.464D+00
 Coeff:      0.000D+00 0.000D+00 0.000D+00 0.000D+00 0.000D+00 0.000D+00
 Coeff:      0.000D+00 0.000D+00 0.000D+00 0.000D+00 0.000D+00 0.000D+00
 Coeff:      0.000D+00 0.398D-02 0.532D+00 0.464D+00
 Gap=     0.031 Goal=   None    Shift=    0.000
 Gap=     0.035 Goal=   None    Shift=    0.000
 RMSDP=6.98D-03 MaxDP=1.03D+00 DE= 3.83D-02 OVMax= 9.97D-01

 Cycle  17  Pass 1  IDiag  1:
 RMSU=  3.77D-04    CP:  9.39D-01  1.14D+00  2.23D-01  2.87D-01  5.71D-01
                    CP:  7.88D-02  5.27D-01 -2.35D-01  2.00D-02 -6.49D-02
                    CP:  3.37D-01  4.78D-01  9.40D-01  2.36D-01  7.15D-01
                    CP: -1.48D-01
 E= -1135.88826390229     Delta-E=       -0.038593532304 Rises=F Damp=F
 DIIS: error= 5.13D-03 at cycle  17 NSaved=  17.
 NSaved=17 IEnMin=17 EnMin= -1135.88826390229     IErMin=17 ErrMin= 5.13D-03
 ErrMax= 5.13D-03  0.00D+00 EMaxC= 1.00D-01 BMatC= 6.12D-03 BMatP= 7.81D-03
 IDIUse=3 WtCom= 9.49D-01 WtEn= 5.13D-02
 EnCoef did    81 forward-backward iterations
 Coeff-Com:  0.113D-02 0.126D-01-0.315D-02 0.158D+00 0.411D+00-0.322D+00
 Coeff-Com: -0.450D+00-0.780D-01-0.117D+01-0.124D+00 0.771D+00 0.723D+00
 Coeff-Com:  0.287D+00 0.235D+00 0.188D+00 0.150D+00 0.211D+00
 Coeff-En:   0.000D+00 0.000D+00 0.000D+00 0.000D+00 0.000D+00 0.000D+00
 Coeff-En:   0.000D+00 0.000D+00 0.000D+00 0.000D+00 0.000D+00 0.000D+00
 Coeff-En:   0.000D+00 0.464D+00 0.174D-02 0.241D-02 0.532D+00
 Coeff:      0.107D-02 0.119D-01-0.299D-02 0.150D+00 0.390D+00-0.306D+00
 Coeff:     -0.427D+00-0.740D-01-0.111D+01-0.118D+00 0.732D+00 0.685D+00
 Coeff:      0.272D+00 0.247D+00 0.179D+00 0.142D+00 0.228D+00
 Gap=    -0.082 Goal=   None    Shift=    0.000
 Gap=    -0.087 Goal=   None    Shift=    0.000
 RMSDP=7.08D-03 MaxDP=1.06D+00 DE=-3.86D-02 OVMax= 1.00D+00

 Cycle  18  Pass 1  IDiag  1:
 RMSU=  5.63D-05    CP:  9.28D-01  1.17D+00 -9.88D-02  3.81D-01 -1.16D-01
                    CP:  8.61D-01 -5.50D-01 -9.16D-02  2.79D-01  2.81D-01
                    CP: -1.51D-01  2.23D+00  7.34D-01  1.20D+00  1.48D-02
                    CP:  1.12D+00 -3.29D-02
 E= -1135.84832469862     Delta-E=        0.039939203661 Rises=F Damp=F
 DIIS: error= 1.48D-02 at cycle  18 NSaved=  18.
 NSaved=18 IEnMin=17 EnMin= -1135.88826390229     IErMin=17 ErrMin= 5.13D-03
 ErrMax= 1.48D-02  0.00D+00 EMaxC= 1.00D-01 BMatC= 3.06D-02 BMatP= 6.12D-03
 IDIUse=2 WtCom= 0.00D+00 WtEn= 1.00D+00
 Rare condition: small coef for last iteration:  0.244D-14
 Coeff-En:   0.000D+00 0.000D+00 0.000D+00 0.000D+00 0.000D+00 0.000D+00
 Coeff-En:   0.000D+00 0.000D+00 0.000D+00 0.000D+00 0.000D+00 0.000D+00
 Coeff-En:   0.000D+00 0.115D-01 0.374D-02 0.152D-02 0.527D+00 0.457D+00
 Coeff:      0.000D+00 0.000D+00 0.000D+00 0.000D+00 0.000D+00 0.000D+00
 Coeff:      0.000D+00 0.000D+00 0.000D+00 0.000D+00 0.000D+00 0.000D+00
 Coeff:      0.000D+00 0.115D-01 0.374D-02 0.152D-02 0.527D+00 0.457D+00
 Gap=     0.032 Goal=   None    Shift=    0.000
 Gap=     0.036 Goal=   None    Shift=    0.000
 RMSDP=7.19D-03 MaxDP=1.06D+00 DE= 3.99D-02 OVMax= 9.86D-01

 Cycle  19  Pass 1  IDiag  1:
 RMSU=  3.61D-04    CP:  9.43D-01  1.09D+00  2.33D-01  2.61D-01  5.22D-01
                    CP:  3.97D-02  4.68D-01 -2.11D-01 -7.93D-02 -2.72D-01
                    CP:  5.39D-01  6.14D-01  9.34D-01  1.82D-01  1.13D+00
                    CP:  5.60D-02  5.73D-01  7.68D-01
 E= -1135.88865594206     Delta-E=       -0.040331243436 Rises=F Damp=F
 DIIS: error= 5.86D-03 at cycle  19 NSaved=  19.
 NSaved=19 IEnMin=19 EnMin= -1135.88865594206     IErMin=17 ErrMin= 5.13D-03
 ErrMax= 5.86D-03  0.00D+00 EMaxC= 1.00D-01 BMatC= 6.70D-03 BMatP= 6.12D-03
 IDIUse=3 WtCom= 9.49D-01 WtEn= 5.13D-02
 EnCoef did   100 forward-backward iterations
 Coeff-Com: -0.935D-04 0.143D-01-0.295D-02 0.139D+00 0.435D+00-0.301D+00
 Coeff-Com: -0.463D+00-0.783D-01-0.115D+01-0.138D+00 0.771D+00 0.698D+00
 Coeff-Com:  0.274D+00 0.246D+00 0.307D+00 0.853D+00 0.204D+00-0.710D+00
 Coeff-Com: -0.947D-01
 Coeff-En:   0.000D+00 0.000D+00 0.000D+00 0.000D+00 0.000D+00 0.000D+00
 Coeff-En:   0.000D+00 0.000D+00 0.000D+00 0.000D+00 0.000D+00 0.000D+00
 Coeff-En:   0.000D+00 0.344D+00 0.147D+00 0.195D-03 0.385D+00 0.122D+00
 Coeff-En:   0.187D-02
 Coeff:     -0.887D-04 0.136D-01-0.280D-02 0.132D+00 0.412D+00-0.285D+00
 Coeff:     -0.440D+00-0.743D-01-0.109D+01-0.131D+00 0.731D+00 0.662D+00
 Coeff:      0.260D+00 0.251D+00 0.298D+00 0.809D+00 0.213D+00-0.667D+00
 Coeff:     -0.897D-01
 Gap=    -0.081 Goal=   None    Shift=    0.000
 Gap=    -0.087 Goal=   None    Shift=    0.000
 RMSDP=7.17D-03 MaxDP=1.05D+00 DE=-4.03D-02 OVMax= 1.00D+00

 Cycle  20  Pass 1  IDiag  1:
 RMSU=  3.44D-05    CP:  9.28D-01  1.17D+00 -9.82D-02  3.82D-01 -1.17D-01
                    CP:  8.60D-01 -5.45D-01 -9.49D-02  2.87D-01  2.69D-01
                    CP: -1.23D-01  2.22D+00  7.35D-01  1.19D+00  1.65D-02
                    CP:  1.04D+00 -3.94D-02  8.15D-01 -2.50D-02
 E= -1135.84853275133     Delta-E=        0.040123190733 Rises=F Damp=F
 DIIS: error= 1.48D-02 at cycle  20 NSaved=  20.
 NSaved=20 IEnMin=19 EnMin= -1135.88865594206     IErMin=17 ErrMin= 5.13D-03
 ErrMax= 1.48D-02  0.00D+00 EMaxC= 1.00D-01 BMatC= 3.04D-02 BMatP= 6.12D-03
 IDIUse=2 WtCom= 0.00D+00 WtEn= 1.00D+00
 EnCoef did   100 forward-backward iterations
 Coeff-En:   0.000D+00 0.000D+00 0.000D+00 0.000D+00 0.000D+00 0.000D+00
 Coeff-En:   0.000D+00 0.000D+00 0.000D+00 0.000D+00 0.000D+00 0.000D+00
 Coeff-En:   0.000D+00 0.464D+00 0.615D-03 0.299D-03 0.530D+00 0.323D-03
 Coeff-En:   0.286D-02 0.146D-02
 Coeff:      0.000D+00 0.000D+00 0.000D+00 0.000D+00 0.000D+00 0.000D+00
 Coeff:      0.000D+00 0.000D+00 0.000D+00 0.000D+00 0.000D+00 0.000D+00
 Coeff:      0.000D+00 0.464D+00 0.615D-03 0.299D-03 0.530D+00 0.323D-03
 Coeff:      0.286D-02 0.146D-02
 Gap=     0.030 Goal=   None    Shift=    0.000
 Gap=     0.033 Goal=   None    Shift=    0.000
 RMSDP=7.01D-03 MaxDP=1.05D+00 DE= 4.01D-02 OVMax= 9.96D-01

 Cycle  21  Pass 1  IDiag  1:
 Restarting incremental Fock formation.
 E= -1135.88496241589     Delta-E=       -0.036429664560 Rises=F Damp=F
 DIIS: error= 5.48D-03 at cycle  21 NSaved=  20.
 NSaved=20 IEnMin=17 EnMin= -1135.88826390229     IErMin=17 ErrMin= 5.13D-03
 ErrMax= 5.48D-03  0.00D+00 EMaxC= 1.00D-01 BMatC= 7.31D-03 BMatP= 6.12D-03
 IDIUse=3 WtCom= 9.49D-01 WtEn= 5.13D-02
 EnCoef did   100 forward-backward iterations
 Coeff-Com: -0.795D-02 0.261D-01-0.249D-02 0.105D+00 0.486D+00-0.241D+00
 Coeff-Com: -0.498D+00-0.836D-01-0.113D+01-0.187D+00 0.750D+00 0.658D+00
 Coeff-Com:  0.156D+00 0.217D+00 0.118D+00 0.151D+01-0.353D-01-0.427D+01
 Coeff-Com:  0.295D+01 0.479D+00
 Coeff-En:   0.000D+00 0.000D+00 0.000D+00 0.000D+00 0.000D+00 0.000D+00
 Coeff-En:   0.000D+00 0.000D+00 0.000D+00 0.000D+00 0.000D+00 0.000D+00
 Coeff-En:   0.000D+00 0.465D+00 0.623D-03 0.303D-03 0.424D+00 0.328D-03
 Coeff-En:   0.148D-02 0.108D+00
 Coeff:     -0.754D-02 0.248D-01-0.236D-02 0.992D-01 0.461D+00-0.229D+00
 Coeff:     -0.472D+00-0.793D-01-0.107D+01-0.177D+00 0.711D+00 0.624D+00
 Coeff:      0.148D+00 0.230D+00 0.112D+00 0.143D+01-0.117D-01-0.405D+01
 Coeff:      0.280D+01 0.460D+00
 Gap=    -0.084 Goal=   None    Shift=    0.000
 Gap=    -0.087 Goal=   None    Shift=    0.000
 RMSDP=6.51D-03 MaxDP=1.07D+00 DE=-3.64D-02 OVMax= 1.00D+00

 Cycle  22  Pass 1  IDiag  1:
 RMSU=  6.47D-03    CP:  9.67D-01
 E= -1135.80726772677     Delta-E=        0.077694689122 Rises=F Damp=F
 DIIS: error= 1.49D-02 at cycle  22 NSaved=  20.
 NSaved=20 IEnMin=16 EnMin= -1135.88826390229     IErMin=16 ErrMin= 5.13D-03
 ErrMax= 1.49D-02  0.00D+00 EMaxC= 1.00D-01 BMatC= 3.30D-02 BMatP= 6.12D-03
 IDIUse=2 WtCom= 0.00D+00 WtEn= 1.00D+00
 EnCoef did   100 forward-backward iterations
 Rare condition: small coef for last iteration:  0.103D-14
 Coeff-En:   0.000D+00 0.000D+00 0.000D+00 0.000D+00 0.000D+00 0.000D+00
 Coeff-En:   0.000D+00 0.000D+00 0.000D+00 0.000D+00 0.000D+00 0.831D-01
 Coeff-En:   0.952D-01 0.103D+00 0.964D-01 0.123D+00 0.000D+00 0.137D+00
 Coeff-En:   0.212D+00 0.151D+00
 Coeff:      0.000D+00 0.000D+00 0.000D+00 0.000D+00 0.000D+00 0.000D+00
 Coeff:      0.000D+00 0.000D+00 0.000D+00 0.000D+00 0.000D+00 0.831D-01
 Coeff:      0.952D-01 0.103D+00 0.964D-01 0.123D+00 0.000D+00 0.137D+00
 Coeff:      0.212D+00 0.151D+00
 Gap=     0.049 Goal=   None    Shift=    0.000
 Gap=    -0.064 Goal=   None    Shift=    0.000
 RMSDP=6.89D-03 MaxDP=1.07D+00 DE= 7.77D-02 OVMax= 1.00D+00

 Cycle  23  Pass 1  IDiag  1:
 RMSU=  5.26D-03    CP:  9.51D-01  3.15D-01
 E= -1135.84804960643     Delta-E=       -0.040781879668 Rises=F Damp=F
 DIIS: error= 1.21D-02 at cycle  23 NSaved=  20.
 NSaved=20 IEnMin=16 EnMin= -1135.88826390229     IErMin=16 ErrMin= 5.13D-03
 ErrMax= 1.21D-02  0.00D+00 EMaxC= 1.00D-01 BMatC= 2.17D-02 BMatP= 6.12D-03
 IDIUse=2 WtCom= 0.00D+00 WtEn= 1.00D+00
 EnCoef did   100 forward-backward iterations
 Coeff-En:   0.000D+00 0.000D+00 0.000D+00 0.000D+00 0.000D+00 0.000D+00
 Coeff-En:   0.000D+00 0.000D+00 0.000D+00 0.000D+00 0.000D+00 0.175D-02
 Coeff-En:   0.269D+00 0.271D+00 0.139D+00 0.257D+00 0.106D-01 0.426D-01
 Coeff-En:   0.118D-02 0.739D-02
 Coeff:      0.000D+00 0.000D+00 0.000D+00 0.000D+00 0.000D+00 0.000D+00
 Coeff:      0.000D+00 0.000D+00 0.000D+00 0.000D+00 0.000D+00 0.175D-02
 Coeff:      0.269D+00 0.271D+00 0.139D+00 0.257D+00 0.106D-01 0.426D-01
 Coeff:      0.118D-02 0.739D-02
 Gap=    -0.025 Goal=   None    Shift=    0.000
 Gap=    -0.006 Goal=   None    Shift=    0.000
 RMSDP=5.71D-03 MaxDP=6.45D-01 DE=-4.08D-02 OVMax= 9.89D-01

 Cycle  24  Pass 1  IDiag  1:
 RMSU=  1.79D-04    CP:  1.00D+00  4.60D-05  3.01D-03
 E= -1135.88535256567     Delta-E=       -0.037302959232 Rises=F Damp=F
 DIIS: error= 5.26D-03 at cycle  24 NSaved=  20.
 NSaved=20 IEnMin=16 EnMin= -1135.88826390229     IErMin=16 ErrMin= 5.13D-03
 ErrMax= 5.26D-03  0.00D+00 EMaxC= 1.00D-01 BMatC= 7.05D-03 BMatP= 6.12D-03
 IDIUse=3 WtCom= 9.49D-01 WtEn= 5.13D-02
 EnCoef did   100 forward-backward iterations
 Coeff-Com: -0.998D-02 0.245D-01 0.121D+00 0.463D+00-0.355D+00-0.399D+00
 Coeff-Com: -0.476D-01-0.107D+01 0.266D+00 0.711D+00 0.398D-03 0.764D-01
 Coeff-Com:  0.404D+00 0.551D+00 0.288D+01-0.502D+00-0.105D+01-0.166D+01
 Coeff-Com:  0.613D+00-0.236D-01
 Coeff-En:   0.000D+00 0.000D+00 0.000D+00 0.000D+00 0.000D+00 0.000D+00
 Coeff-En:   0.000D+00 0.000D+00 0.000D+00 0.000D+00 0.000D+00 0.270D-02
 Coeff-En:   0.459D+00 0.781D-03 0.680D-04 0.459D+00 0.559D-05 0.239D-03
 Coeff-En:   0.114D-01 0.669D-01
 Coeff:     -0.947D-02 0.233D-01 0.115D+00 0.439D+00-0.336D+00-0.378D+00
 Coeff:     -0.452D-01-0.101D+01 0.253D+00 0.674D+00 0.377D-03 0.726D-01
 Coeff:      0.407D+00 0.522D+00 0.273D+01-0.453D+00-0.996D+00-0.157D+01
 Coeff:      0.582D+00-0.189D-01
 Gap=     0.011 Goal=   None    Shift=    0.000
 Gap=    -0.030 Goal=   None    Shift=    0.000
 RMSDP=5.88D-03 MaxDP=7.03D-01 DE=-3.73D-02 OVMax= 1.00D+00

 Cycle  25  Pass 1  IDiag  1:
 RMSU=  4.28D-03    CP:  9.55D-01  4.89D-01  4.40D-01  1.42D-05
 E= -1135.83167740268     Delta-E=        0.053675162982 Rises=F Damp=F
 DIIS: error= 1.25D-02 at cycle  25 NSaved=  20.
 NSaved=20 IEnMin=15 EnMin= -1135.88826390229     IErMin=15 ErrMin= 5.13D-03
 ErrMax= 1.25D-02  0.00D+00 EMaxC= 1.00D-01 BMatC= 1.83D-02 BMatP= 6.12D-03
 IDIUse=2 WtCom= 0.00D+00 WtEn= 1.00D+00
 EnCoef did   100 forward-backward iterations
 Rare condition: small coef for last iteration:  0.544D-15
 Coeff-En:   0.000D+00 0.000D+00 0.000D+00 0.000D+00 0.000D+00 0.000D+00
 Coeff-En:   0.000D+00 0.000D+00 0.699D-02 0.000D+00 0.769D-01 0.880D-01
 Coeff-En:   0.982D-01 0.931D-01 0.116D+00 0.000D+00 0.853D-01 0.988D-01
 Coeff-En:   0.189D+00 0.148D+00
 Coeff:      0.000D+00 0.000D+00 0.000D+00 0.000D+00 0.000D+00 0.000D+00
 Coeff:      0.000D+00 0.000D+00 0.699D-02 0.000D+00 0.769D-01 0.880D-01
 Coeff:      0.982D-01 0.931D-01 0.116D+00 0.000D+00 0.853D-01 0.988D-01
 Coeff:      0.189D+00 0.148D+00
 Gap=    -0.057 Goal=   None    Shift=    0.000
 Gap=     0.021 Goal=   None    Shift=    0.000
 RMSDP=3.91D-03 MaxDP=6.86D-01 DE= 5.37D-02 OVMax= 1.00D+00

 Cycle  26  Pass 1  IDiag  1:
 RMSU=  2.28D-03    CP:  9.65D-01  2.26D-01  5.86D-01  6.07D-02  4.02D-01
 E= -1136.03935521993     Delta-E=       -0.207677817246 Rises=F Damp=F
 DIIS: error= 1.74D-03 at cycle  26 NSaved=  20.
 NSaved=20 IEnMin=20 EnMin= -1136.03935521993     IErMin=20 ErrMin= 1.74D-03
 ErrMax= 1.74D-03  0.00D+00 EMaxC= 1.00D-01 BMatC= 9.18D-04 BMatP= 6.12D-03
 IDIUse=3 WtCom= 9.83D-01 WtEn= 1.74D-02
 Coeff-Com:  0.106D-01-0.843D-02 0.894D-01 0.129D+00-0.244D+00-0.160D+00
 Coeff-Com: -0.473D+00 0.959D-01 0.323D+00 0.715D-01 0.170D+00 0.100D+00
 Coeff-Com:  0.159D-01-0.104D+01-0.194D+00 0.985D+00 0.421D-01 0.239D+00
 Coeff-Com:  0.196D+00 0.652D+00
 Coeff-En:   0.000D+00 0.000D+00 0.000D+00 0.000D+00 0.000D+00 0.000D+00
 Coeff-En:   0.000D+00 0.000D+00 0.000D+00 0.000D+00 0.000D+00 0.000D+00
 Coeff-En:   0.000D+00 0.000D+00 0.000D+00 0.000D+00 0.000D+00 0.000D+00
 Coeff-En:   0.000D+00 0.100D+01
 Coeff:      0.105D-01-0.828D-02 0.878D-01 0.127D+00-0.240D+00-0.157D+00
 Coeff:     -0.464D+00 0.942D-01 0.318D+00 0.703D-01 0.167D+00 0.982D-01
 Coeff:      0.156D-01-0.102D+01-0.191D+00 0.968D+00 0.414D-01 0.235D+00
 Coeff:      0.192D+00 0.658D+00
 Gap=     0.056 Goal=   None    Shift=    0.000
 Gap=     0.055 Goal=   None    Shift=    0.000
 RMSDP=7.12D-04 MaxDP=8.84D-02 DE=-2.08D-01 OVMax= 4.71D-02

 Cycle  27  Pass 1  IDiag  1:
 RMSU=  6.40D-04    CP:  9.67D-01  2.06D-01  5.82D-01  3.64D-01  4.50D-01
                    CP:  9.18D-01
 E= -1136.04039922954     Delta-E=       -0.001044009612 Rises=F Damp=F
 DIIS: error= 5.24D-04 at cycle  27 NSaved=  20.
 NSaved=20 IEnMin=20 EnMin= -1136.04039922954     IErMin=20 ErrMin= 5.24D-04
 ErrMax= 5.24D-04  0.00D+00 EMaxC= 1.00D-01 BMatC= 6.80D-05 BMatP= 9.18D-04
 IDIUse=3 WtCom= 9.95D-01 WtEn= 5.24D-03
 Coeff-Com: -0.833D-02 0.123D-01 0.636D-02-0.359D-01-0.207D-01 0.174D-01
 Coeff-Com:  0.359D-01 0.555D-02-0.643D-02-0.680D-01-0.965D-01-0.486D-01
 Coeff-Com: -0.473D+00 0.170D+00-0.181D+00 0.721D+00 0.299D-01-0.130D-01
 Coeff-Com: -0.494D-01 0.100D+01
 Coeff-En:   0.000D+00 0.000D+00 0.000D+00 0.000D+00 0.000D+00 0.000D+00
 Coeff-En:   0.000D+00 0.000D+00 0.000D+00 0.000D+00 0.000D+00 0.000D+00
 Coeff-En:   0.000D+00 0.000D+00 0.000D+00 0.000D+00 0.000D+00 0.000D+00
 Coeff-En:   0.000D+00 0.100D+01
 Coeff:     -0.828D-02 0.123D-01 0.633D-02-0.357D-01-0.205D-01 0.173D-01
 Coeff:      0.357D-01 0.552D-02-0.639D-02-0.676D-01-0.960D-01-0.483D-01
 Coeff:     -0.471D+00 0.169D+00-0.180D+00 0.717D+00 0.297D-01-0.129D-01
 Coeff:     -0.492D-01 0.100D+01
 Gap=     0.055 Goal=   None    Shift=    0.000
 Gap=     0.040 Goal=   None    Shift=    0.000
 RMSDP=3.02D-04 MaxDP=2.41D-02 DE=-1.04D-03 OVMax= 2.61D-02

 Cycle  28  Pass 1  IDiag  1:
 RMSU=  2.52D-04    CP:  9.66D-01  2.04D-01  5.92D-01  8.19D-01  4.48D-01
                    CP:  8.95D-01  1.19D+00
 E= -1136.04060845168     Delta-E=       -0.000209222140 Rises=F Damp=F
 DIIS: error= 2.50D-04 at cycle  28 NSaved=  20.
 NSaved=20 IEnMin=20 EnMin= -1136.04060845168     IErMin=20 ErrMin= 2.50D-04
 ErrMax= 2.50D-04  0.00D+00 EMaxC= 1.00D-01 BMatC= 9.21D-06 BMatP= 6.80D-05
 IDIUse=3 WtCom= 9.98D-01 WtEn= 2.50D-03
 Coeff-Com: -0.402D-02 0.571D-02-0.124D-01-0.641D-02 0.206D-01 0.170D-01
 Coeff-Com:  0.663D-02 0.111D-01-0.319D-01 0.155D-01-0.721D-02 0.957D-01
 Coeff-Com:  0.533D-01 0.517D+00-0.630D+00-0.209D-01-0.451D-01-0.623D-01
 Coeff-Com:  0.967D-01 0.981D+00
 Coeff-En:   0.000D+00 0.000D+00 0.000D+00 0.000D+00 0.000D+00 0.000D+00
 Coeff-En:   0.000D+00 0.000D+00 0.000D+00 0.000D+00 0.000D+00 0.000D+00
 Coeff-En:   0.000D+00 0.000D+00 0.000D+00 0.000D+00 0.000D+00 0.000D+00
 Coeff-En:   0.000D+00 0.100D+01
 Coeff:     -0.401D-02 0.569D-02-0.123D-01-0.639D-02 0.205D-01 0.170D-01
 Coeff:      0.661D-02 0.110D-01-0.318D-01 0.154D-01-0.719D-02 0.955D-01
 Coeff:      0.532D-01 0.516D+00-0.628D+00-0.209D-01-0.450D-01-0.622D-01
 Coeff:      0.965D-01 0.981D+00
 Gap=     0.057 Goal=   None    Shift=    0.000
 Gap=     0.043 Goal=   None    Shift=    0.000
 RMSDP=1.34D-04 MaxDP=1.46D-02 DE=-2.09D-04 OVMax= 1.90D-02

 Cycle  29  Pass 1  IDiag  1:
 RMSU=  6.30D-05    CP:  9.66D-01  2.00D-01  5.94D-01  7.53D-01  4.52D-01
                    CP:  8.80D-01  1.30D+00  1.32D+00
 E= -1136.04064121128     Delta-E=       -0.000032759593 Rises=F Damp=F
 DIIS: error= 1.19D-04 at cycle  29 NSaved=  20.
 NSaved=20 IEnMin=20 EnMin= -1136.04064121128     IErMin=20 ErrMin= 1.19D-04
 ErrMax= 1.19D-04  0.00D+00 EMaxC= 1.00D-01 BMatC= 3.71D-06 BMatP= 9.21D-06
 IDIUse=3 WtCom= 9.99D-01 WtEn= 1.19D-03
 Coeff-Com: -0.113D-02 0.171D-02 0.310D-02 0.244D-02 0.646D-02 0.277D-03
 Coeff-Com:  0.457D-02-0.663D-02 0.206D-01 0.629D-02 0.328D-01-0.899D-02
 Coeff-Com: -0.127D+00 0.858D-01-0.113D-01-0.191D-01 0.360D-02-0.317D-01
 Coeff-Com:  0.173D-01 0.102D+01
 Coeff-En:   0.000D+00 0.000D+00 0.000D+00 0.000D+00 0.000D+00 0.000D+00
 Coeff-En:   0.000D+00 0.000D+00 0.000D+00 0.000D+00 0.000D+00 0.000D+00
 Coeff-En:   0.000D+00 0.000D+00 0.000D+00 0.000D+00 0.000D+00 0.000D+00
 Coeff-En:   0.000D+00 0.100D+01
 Coeff:     -0.113D-02 0.171D-02 0.310D-02 0.244D-02 0.646D-02 0.277D-03
 Coeff:      0.456D-02-0.662D-02 0.205D-01 0.628D-02 0.328D-01-0.898D-02
 Coeff:     -0.127D+00 0.857D-01-0.113D-01-0.191D-01 0.359D-02-0.317D-01
 Coeff:      0.173D-01 0.102D+01
 Gap=     0.054 Goal=   None    Shift=    0.000
 Gap=     0.042 Goal=   None    Shift=    0.000
 RMSDP=4.19D-05 MaxDP=2.42D-03 DE=-3.28D-05 OVMax= 5.72D-03

 Cycle  30  Pass 1  IDiag  1:
 RMSU=  2.95D-05    CP:  9.66D-01  2.01D-01  5.95D-01  7.43D-01  4.51D-01
                    CP:  8.81D-01  1.32D+00  1.42D+00  1.05D+00
 E= -1136.04064605177     Delta-E=       -0.000004840495 Rises=F Damp=F
 DIIS: error= 1.03D-04 at cycle  30 NSaved=  20.
 NSaved=20 IEnMin=20 EnMin= -1136.04064605177     IErMin=20 ErrMin= 1.03D-04
 ErrMax= 1.03D-04  0.00D+00 EMaxC= 1.00D-01 BMatC= 1.86D-06 BMatP= 3.71D-06
 IDIUse=3 WtCom= 9.99D-01 WtEn= 1.03D-03
 Coeff-Com: -0.366D-03 0.422D-03 0.965D-03 0.394D-03 0.985D-03 0.249D-02
 Coeff-Com: -0.157D-02 0.357D-04-0.157D-02-0.247D-01 0.226D-02-0.309D+00
 Coeff-Com:  0.339D+00-0.585D-02-0.630D-02 0.788D-02 0.781D-03-0.208D-01
 Coeff-Com: -0.294D+00 0.131D+01
 Coeff-En:   0.000D+00 0.000D+00 0.000D+00 0.000D+00 0.000D+00 0.000D+00
 Coeff-En:   0.000D+00 0.000D+00 0.000D+00 0.000D+00 0.000D+00 0.000D+00
 Coeff-En:   0.000D+00 0.000D+00 0.000D+00 0.000D+00 0.000D+00 0.000D+00
 Coeff-En:   0.000D+00 0.100D+01
 Coeff:     -0.366D-03 0.422D-03 0.964D-03 0.393D-03 0.984D-03 0.249D-02
 Coeff:     -0.157D-02 0.356D-04-0.156D-02-0.247D-01 0.226D-02-0.309D+00
 Coeff:      0.339D+00-0.584D-02-0.630D-02 0.787D-02 0.781D-03-0.208D-01
 Coeff:     -0.293D+00 0.131D+01
 Gap=     0.055 Goal=   None    Shift=    0.000
 Gap=     0.043 Goal=   None    Shift=    0.000
 RMSDP=3.90D-05 MaxDP=5.68D-03 DE=-4.84D-06 OVMax= 2.23D-03

 Cycle  31  Pass 1  IDiag  1:
 RMSU=  2.09D-05    CP:  9.66D-01  2.03D-01  5.94D-01  7.27D-01  4.49D-01
                    CP:  8.89D-01  1.31D+00  1.45D+00  1.04D+00  1.69D+00
 E= -1136.04064915884     Delta-E=       -0.000003107071 Rises=F Damp=F
 DIIS: error= 3.90D-05 at cycle  31 NSaved=  20.
 NSaved=20 IEnMin=20 EnMin= -1136.04064915884     IErMin=20 ErrMin= 3.90D-05
 ErrMax= 3.90D-05  0.00D+00 EMaxC= 1.00D-01 BMatC= 2.66D-07 BMatP= 1.86D-06
 IDIUse=1 WtCom= 1.00D+00 WtEn= 0.00D+00
 Coeff-Com: -0.128D-03 0.307D-03-0.136D-03-0.503D-04-0.739D-03-0.205D-02
 Coeff-Com:  0.782D-02-0.292D-02-0.339D-02 0.643D-02-0.508D-01 0.475D-01
 Coeff-Com: -0.113D-02 0.154D-03-0.180D-02-0.917D-02 0.339D-01-0.164D+00
 Coeff-Com: -0.774D-02 0.115D+01
 Coeff:     -0.128D-03 0.307D-03-0.136D-03-0.503D-04-0.739D-03-0.205D-02
 Coeff:      0.782D-02-0.292D-02-0.339D-02 0.643D-02-0.508D-01 0.475D-01
 Coeff:     -0.113D-02 0.154D-03-0.180D-02-0.917D-02 0.339D-01-0.164D+00
 Coeff:     -0.774D-02 0.115D+01
 Gap=     0.056 Goal=   None    Shift=    0.000
 Gap=     0.044 Goal=   None    Shift=    0.000
 RMSDP=2.11D-05 MaxDP=2.64D-03 DE=-3.11D-06 OVMax= 1.19D-03

 Cycle  32  Pass 1  IDiag  1:
 RMSU=  1.02D-05    CP:  9.66D-01  2.04D-01  5.94D-01  7.85D-01  4.49D-01
                    CP:  8.93D-01  1.31D+00  1.45D+00  1.01D+00  1.98D+00
                    CP:  1.33D+00
 E= -1136.04064969807     Delta-E=       -0.000000539232 Rises=F Damp=F
 DIIS: error= 3.68D-05 at cycle  32 NSaved=  20.
 NSaved=20 IEnMin=20 EnMin= -1136.04064969807     IErMin=20 ErrMin= 3.68D-05
 ErrMax= 3.68D-05  0.00D+00 EMaxC= 1.00D-01 BMatC= 6.74D-08 BMatP= 2.66D-07
 IDIUse=1 WtCom= 1.00D+00 WtEn= 0.00D+00
 Coeff-Com:  0.104D-03-0.100D-03 0.993D-04-0.668D-03 0.854D-03 0.415D-02
 Coeff-Com:  0.138D-02-0.153D-02-0.151D-02 0.737D-02-0.999D-02-0.417D-03
 Coeff-Com:  0.508D-03 0.196D-02-0.108D-01-0.767D-02 0.346D-01-0.157D+00
 Coeff-Com:  0.410D+00 0.729D+00
 Coeff:      0.104D-03-0.100D-03 0.993D-04-0.668D-03 0.854D-03 0.415D-02
 Coeff:      0.138D-02-0.153D-02-0.151D-02 0.737D-02-0.999D-02-0.417D-03
 Coeff:      0.508D-03 0.196D-02-0.108D-01-0.767D-02 0.346D-01-0.157D+00
 Coeff:      0.410D+00 0.729D+00
 Gap=     0.055 Goal=   None    Shift=    0.000
 Gap=     0.044 Goal=   None    Shift=    0.000
 RMSDP=7.47D-06 MaxDP=5.52D-04 DE=-5.39D-07 OVMax= 1.38D-03

 Cycle  33  Pass 1  IDiag  1:
 RMSU=  3.37D-06    CP:  9.66D-01  2.04D-01  5.94D-01  7.80D-01  4.48D-01
                    CP:  8.93D-01  1.30D+00  1.47D+00  1.06D+00  2.00D+00
                    CP:  1.49D+00  9.68D-01
 E= -1136.04064989608     Delta-E=       -0.000000198010 Rises=F Damp=F
 DIIS: error= 8.06D-06 at cycle  33 NSaved=  20.
 NSaved=20 IEnMin=20 EnMin= -1136.04064989608     IErMin=20 ErrMin= 8.06D-06
 ErrMax= 8.06D-06  0.00D+00 EMaxC= 1.00D-01 BMatC= 1.46D-08 BMatP= 6.74D-08
 IDIUse=1 WtCom= 1.00D+00 WtEn= 0.00D+00
 Coeff-Com:  0.921D-05 0.372D-05 0.133D-03-0.928D-04 0.128D-02 0.273D-03
 Coeff-Com: -0.183D-02 0.860D-04-0.893D-02 0.936D-02-0.275D-03-0.265D-04
 Coeff-Com:  0.402D-03 0.191D-02-0.109D-01 0.127D-01 0.638D-01-0.112D+00
 Coeff-Com:  0.355D-01 0.101D+01
 Coeff:      0.921D-05 0.372D-05 0.133D-03-0.928D-04 0.128D-02 0.273D-03
 Coeff:     -0.183D-02 0.860D-04-0.893D-02 0.936D-02-0.275D-03-0.265D-04
 Coeff:      0.402D-03 0.191D-02-0.109D-01 0.127D-01 0.638D-01-0.112D+00
 Coeff:      0.355D-01 0.101D+01
 Gap=     0.055 Goal=   None    Shift=    0.000
 Gap=     0.044 Goal=   None    Shift=    0.000
 RMSDP=3.05D-06 MaxDP=2.49D-04 DE=-1.98D-07 OVMax= 3.55D-04

 Cycle  34  Pass 1  IDiag  1:
 RMSU=  1.65D-06    CP:  9.66D-01  2.04D-01  5.94D-01  7.83D-01  4.48D-01
                    CP:  8.93D-01  1.30D+00  1.47D+00  1.08D+00  2.00D+00
                    CP:  1.42D+00  1.05D+00  1.39D+00
 E= -1136.04064992388     Delta-E=       -0.000000027797 Rises=F Damp=F
 DIIS: error= 5.26D-06 at cycle  34 NSaved=  20.
 NSaved=20 IEnMin=20 EnMin= -1136.04064992388     IErMin=20 ErrMin= 5.26D-06
 ErrMax= 5.26D-06  0.00D+00 EMaxC= 1.00D-01 BMatC= 4.82D-09 BMatP= 1.46D-08
 IDIUse=1 WtCom= 1.00D+00 WtEn= 0.00D+00
 Coeff-Com:  0.217D-04-0.220D-04 0.108D-03-0.443D-03-0.303D-04-0.524D-02
 Coeff-Com:  0.267D-03-0.895D-02 0.145D-01-0.797D-04-0.113D-03-0.769D-03
 Coeff-Com:  0.111D-02-0.115D-02 0.419D-02 0.210D-01-0.599D-01-0.557D-01
 Coeff-Com:  0.378D-01 0.105D+01
 Coeff:      0.217D-04-0.220D-04 0.108D-03-0.443D-03-0.303D-04-0.524D-02
 Coeff:      0.267D-03-0.895D-02 0.145D-01-0.797D-04-0.113D-03-0.769D-03
 Coeff:      0.111D-02-0.115D-02 0.419D-02 0.210D-01-0.599D-01-0.557D-01
 Coeff:      0.378D-01 0.105D+01
 Gap=     0.055 Goal=   None    Shift=    0.000
 Gap=     0.044 Goal=   None    Shift=    0.000
 RMSDP=1.93D-06 MaxDP=1.32D-04 DE=-2.78D-08 OVMax= 3.04D-04

 Cycle  35  Pass 1  IDiag  1:
 RMSU=  9.89D-07    CP:  9.66D-01  2.04D-01  5.94D-01  7.85D-01  4.48D-01
                    CP:  8.93D-01  1.30D+00  1.47D+00  1.09D+00  2.01D+00
                    CP:  1.44D+00  1.09D+00  1.63D+00  1.26D+00
 E= -1136.04064993450     Delta-E=       -0.000000010618 Rises=F Damp=F
 DIIS: error= 5.70D-06 at cycle  35 NSaved=  20.
 NSaved=20 IEnMin=20 EnMin= -1136.04064993450     IErMin=19 ErrMin= 5.26D-06
 ErrMax= 5.70D-06  0.00D+00 EMaxC= 1.00D-01 BMatC= 3.41D-09 BMatP= 4.82D-09
 IDIUse=1 WtCom= 1.00D+00 WtEn= 0.00D+00
 Coeff-Com:  0.480D-05 0.876D-04 0.917D-04 0.571D-04-0.611D-03 0.161D-03
 Coeff-Com: -0.526D-02 0.576D-02-0.626D-04-0.170D-03-0.252D-03 0.896D-03
 Coeff-Com:  0.642D-03-0.280D-02 0.425D-02 0.230D-02 0.326D-01-0.148D+00
 Coeff-Com: -0.119D+00 0.123D+01
 Coeff:      0.480D-05 0.876D-04 0.917D-04 0.571D-04-0.611D-03 0.161D-03
 Coeff:     -0.526D-02 0.576D-02-0.626D-04-0.170D-03-0.252D-03 0.896D-03
 Coeff:      0.642D-03-0.280D-02 0.425D-02 0.230D-02 0.326D-01-0.148D+00
 Coeff:     -0.119D+00 0.123D+01
 Gap=     0.055 Goal=   None    Shift=    0.000
 Gap=     0.044 Goal=   None    Shift=    0.000
 RMSDP=1.22D-06 MaxDP=1.12D-04 DE=-1.06D-08 OVMax= 1.33D-04

 Cycle  36  Pass 1  IDiag  1:
 RMSU=  4.33D-07    CP:  9.66D-01  2.04D-01  5.94D-01  7.86D-01  4.48D-01
                    CP:  8.93D-01  1.30D+00  1.47D+00  1.10D+00  2.01D+00
                    CP:  1.45D+00  1.12D+00  1.67D+00  1.56D+00  1.61D+00
 E= -1136.04064994024     Delta-E=       -0.000000005746 Rises=F Damp=F
 DIIS: error= 4.93D-06 at cycle  36 NSaved=  20.
 NSaved=20 IEnMin=20 EnMin= -1136.04064994024     IErMin=20 ErrMin= 4.93D-06
 ErrMax= 4.93D-06  0.00D+00 EMaxC= 1.00D-01 BMatC= 2.24D-09 BMatP= 3.41D-09
 IDIUse=1 WtCom= 1.00D+00 WtEn= 0.00D+00
 Coeff-Com:  0.163D-05 0.257D-04 0.265D-04 0.509D-04 0.107D-03 0.822D-04
 Coeff-Com: -0.745D-02 0.722D-02-0.334D-04 0.622D-04 0.404D-03-0.138D-02
 Coeff-Com: -0.516D-02 0.419D-02 0.146D-01-0.122D-01-0.108D+00-0.154D-01
 Coeff-Com: -0.461D+00 0.158D+01
 Coeff:      0.163D-05 0.257D-04 0.265D-04 0.509D-04 0.107D-03 0.822D-04
 Coeff:     -0.745D-02 0.722D-02-0.334D-04 0.622D-04 0.404D-03-0.138D-02
 Coeff:     -0.516D-02 0.419D-02 0.146D-01-0.122D-01-0.108D+00-0.154D-01
 Coeff:     -0.461D+00 0.158D+01
 Gap=     0.055 Goal=   None    Shift=    0.000
 Gap=     0.044 Goal=   None    Shift=    0.000
 RMSDP=1.41D-06 MaxDP=1.68D-04 DE=-5.75D-09 OVMax= 1.66D-04

 Cycle  37  Pass 1  IDiag  1:
 RMSU=  4.26D-07    CP:  9.66D-01  2.04D-01  5.94D-01  7.86D-01  4.48D-01
                    CP:  8.93D-01  1.30D+00  1.47D+00  1.11D+00  2.03D+00
                    CP:  1.46D+00  1.13D+00  1.77D+00  1.97D+00  1.72D+00
                    CP:  2.60D+00
 E= -1136.04064994479     Delta-E=       -0.000000004551 Rises=F Damp=F
 DIIS: error= 2.83D-06 at cycle  37 NSaved=  20.
 NSaved=20 IEnMin=20 EnMin= -1136.04064994479     IErMin=20 ErrMin= 2.83D-06
 ErrMax= 2.83D-06  0.00D+00 EMaxC= 1.00D-01 BMatC= 7.09D-10 BMatP= 2.24D-09
 IDIUse=1 WtCom= 1.00D+00 WtEn= 0.00D+00
 Coeff-Com: -0.554D-04-0.114D-04 0.854D-06-0.203D-02 0.837D-04 0.808D-03
 Coeff-Com:  0.119D-02-0.394D-04-0.226D-03-0.602D-04-0.854D-03 0.856D-02
 Coeff-Com: -0.133D-02-0.811D-02-0.253D-01 0.651D-01 0.137D-01-0.300D+00
 Coeff-Com: -0.356D+00 0.160D+01
 Coeff:     -0.554D-04-0.114D-04 0.854D-06-0.203D-02 0.837D-04 0.808D-03
 Coeff:      0.119D-02-0.394D-04-0.226D-03-0.602D-04-0.854D-03 0.856D-02
 Coeff:     -0.133D-02-0.811D-02-0.253D-01 0.651D-01 0.137D-01-0.300D+00
 Coeff:     -0.356D+00 0.160D+01
 Gap=     0.056 Goal=   None    Shift=    0.000
 Gap=     0.044 Goal=   None    Shift=    0.000
 RMSDP=1.05D-06 MaxDP=1.65D-04 DE=-4.55D-09 OVMax= 1.22D-04

 Cycle  38  Pass 1  IDiag  1:
 RMSU=  3.15D-07    CP:  9.66D-01  2.04D-01  5.94D-01  7.87D-01  4.48D-01
                    CP:  8.93D-01  1.30D+00  1.47D+00  1.12D+00  2.03D+00
                    CP:  1.47D+00  1.14D+00  1.86D+00  2.17D+00  1.83D+00
                    CP:  3.00D+00  1.83D+00
 E= -1136.04064994620     Delta-E=       -0.000000001401 Rises=F Damp=F
 DIIS: error= 8.91D-07 at cycle  38 NSaved=  20.
 NSaved=20 IEnMin=20 EnMin= -1136.04064994620     IErMin=20 ErrMin= 8.91D-07
 ErrMax= 8.91D-07  0.00D+00 EMaxC= 1.00D-01 BMatC= 7.62D-11 BMatP= 7.09D-10
 IDIUse=1 WtCom= 1.00D+00 WtEn= 0.00D+00
 Coeff-Com: -0.435D-05-0.969D-04-0.226D-04-0.112D-02 0.529D-04 0.392D-03
 Coeff-Com:  0.803D-03-0.189D-04 0.369D-03-0.267D-03 0.135D-02 0.172D-02
 Coeff-Com: -0.451D-02-0.797D-02 0.387D-01 0.251D-01-0.506D-01-0.189D+00
 Coeff-Com:  0.145D+00 0.104D+01
 Coeff:     -0.435D-05-0.969D-04-0.226D-04-0.112D-02 0.529D-04 0.392D-03
 Coeff:      0.803D-03-0.189D-04 0.369D-03-0.267D-03 0.135D-02 0.172D-02
 Coeff:     -0.451D-02-0.797D-02 0.387D-01 0.251D-01-0.506D-01-0.189D+00
 Coeff:      0.145D+00 0.104D+01
 Gap=     0.056 Goal=   None    Shift=    0.000
 Gap=     0.044 Goal=   None    Shift=    0.000
 RMSDP=2.25D-07 MaxDP=3.25D-05 DE=-1.40D-09 OVMax= 1.17D-05

 Cycle  39  Pass 1  IDiag  1:
 RMSU=  9.12D-08    CP:  9.66D-01  2.04D-01  5.94D-01  7.87D-01  4.48D-01
                    CP:  8.93D-01  1.30D+00  1.47D+00  1.12D+00  2.03D+00
                    CP:  1.47D+00  1.14D+00  1.88D+00  2.15D+00  1.84D+00
                    CP:  3.00D+00  2.03D+00  1.25D+00
 E= -1136.04064994633     Delta-E=       -0.000000000131 Rises=F Damp=F
 DIIS: error= 4.65D-07 at cycle  39 NSaved=  20.
 NSaved=20 IEnMin=20 EnMin= -1136.04064994633     IErMin=20 ErrMin= 4.65D-07
 ErrMax= 4.65D-07  0.00D+00 EMaxC= 1.00D-01 BMatC= 2.45D-11 BMatP= 7.62D-11
 IDIUse=1 WtCom= 1.00D+00 WtEn= 0.00D+00
 Coeff-Com: -0.623D-05-0.313D-04 0.102D-04-0.471D-04 0.695D-05 0.729D-04
 Coeff-Com: -0.374D-04-0.183D-04-0.104D-03 0.719D-03 0.459D-04-0.127D-02
 Coeff-Com:  0.172D-02 0.191D-01 0.327D-01-0.566D-01-0.582D-01-0.377D-01
 Coeff-Com:  0.717D-01 0.103D+01
 Coeff:     -0.623D-05-0.313D-04 0.102D-04-0.471D-04 0.695D-05 0.729D-04
 Coeff:     -0.374D-04-0.183D-04-0.104D-03 0.719D-03 0.459D-04-0.127D-02
 Coeff:      0.172D-02 0.191D-01 0.327D-01-0.566D-01-0.582D-01-0.377D-01
 Coeff:      0.717D-01 0.103D+01
 Gap=     0.056 Goal=   None    Shift=    0.000
 Gap=     0.044 Goal=   None    Shift=    0.000
 RMSDP=1.41D-07 MaxDP=2.46D-05 DE=-1.31D-10 OVMax= 1.17D-05

 Cycle  40  Pass 1  IDiag  1:
 RMSU=  4.17D-08    CP:  9.66D-01  2.04D-01  5.94D-01  7.87D-01  4.48D-01
                    CP:  8.93D-01  1.30D+00  1.47D+00  1.12D+00  2.03D+00
                    CP:  1.47D+00  1.14D+00  1.87D+00  2.15D+00  1.81D+00
                    CP:  3.00D+00  2.15D+00  1.41D+00  1.37D+00
 E= -1136.04064994638     Delta-E=       -0.000000000054 Rises=F Damp=F
 DIIS: error= 1.77D-07 at cycle  40 NSaved=  20.
 NSaved=20 IEnMin=20 EnMin= -1136.04064994638     IErMin=20 ErrMin= 1.77D-07
 ErrMax= 1.77D-07  0.00D+00 EMaxC= 1.00D-01 BMatC= 4.04D-12 BMatP= 2.45D-11
 IDIUse=1 WtCom= 1.00D+00 WtEn= 0.00D+00
 Coeff-Com:  0.805D-05-0.639D-06 0.744D-05-0.122D-05-0.146D-04-0.182D-04
 Coeff-Com: -0.840D-04 0.993D-04 0.403D-03-0.892D-03 0.595D-03-0.445D-03
 Coeff-Com: -0.771D-02 0.144D-01 0.573D-02-0.338D-02 0.226D-01-0.216D+00
 Coeff-Com: -0.232D+00 0.142D+01
 Coeff:      0.805D-05-0.639D-06 0.744D-05-0.122D-05-0.146D-04-0.182D-04
 Coeff:     -0.840D-04 0.993D-04 0.403D-03-0.892D-03 0.595D-03-0.445D-03
 Coeff:     -0.771D-02 0.144D-01 0.573D-02-0.338D-02 0.226D-01-0.216D+00
 Coeff:     -0.232D+00 0.142D+01
 Gap=     0.056 Goal=   None    Shift=    0.000
 Gap=     0.044 Goal=   None    Shift=    0.000
 RMSDP=9.96D-08 MaxDP=1.05D-05 DE=-5.43D-11 OVMax= 1.55D-05

 Cycle  41  Pass 1  IDiag  1:
 Restarting incremental Fock formation.
 E= -1136.04064994641     Delta-E=       -0.000000000030 Rises=F Damp=F
 DIIS: error= 6.24D-08 at cycle  41 NSaved=  20.
 NSaved=20 IEnMin=20 EnMin= -1136.04064994641     IErMin=20 ErrMin= 6.24D-08
 ErrMax= 6.24D-08  0.00D+00 EMaxC= 1.00D-01 BMatC= 6.40D-13 BMatP= 4.04D-12
 IDIUse=1 WtCom= 1.00D+00 WtEn= 0.00D+00
 Coeff-Com: -0.620D-05-0.209D-06-0.559D-05 0.114D-04 0.282D-05 0.392D-04
 Coeff-Com: -0.353D-04-0.150D-03 0.126D-03 0.659D-03-0.146D-02-0.142D-02
 Coeff-Com: -0.629D-02 0.150D-01 0.571D-02 0.938D-02-0.487D-02-0.155D+00
 Coeff-Com: -0.179D+00 0.132D+01
 Coeff:     -0.620D-05-0.209D-06-0.559D-05 0.114D-04 0.282D-05 0.392D-04
 Coeff:     -0.353D-04-0.150D-03 0.126D-03 0.659D-03-0.146D-02-0.142D-02
 Coeff:     -0.629D-02 0.150D-01 0.571D-02 0.938D-02-0.487D-02-0.155D+00
 Coeff:     -0.179D+00 0.132D+01
 Gap=     0.056 Goal=   None    Shift=    0.000
 Gap=     0.044 Goal=   None    Shift=    0.000
 RMSDP=6.32D-08 MaxDP=6.11D-06 DE=-3.05D-11 OVMax= 1.02D-05

 Cycle  42  Pass 1  IDiag  1:
 RMSU=  6.32D-08    CP:  1.00D+00
 E= -1136.04064994641     Delta-E=        0.000000000003 Rises=F Damp=F
 DIIS: error= 2.37D-08 at cycle  42 NSaved=  20.
 NSaved=20 IEnMin=19 EnMin= -1136.04064994641     IErMin=20 ErrMin= 2.37D-08
 ErrMax= 2.37D-08  0.00D+00 EMaxC= 1.00D-01 BMatC= 7.84D-14 BMatP= 6.40D-13
 IDIUse=1 WtCom= 1.00D+00 WtEn= 0.00D+00
 Coeff-Com: -0.502D-06 0.741D-06-0.374D-06 0.378D-05 0.933D-05-0.363D-04
 Coeff-Com:  0.122D-04 0.804D-04-0.219D-03-0.459D-03 0.188D-02-0.218D-02
 Coeff-Com: -0.324D-02 0.386D-02-0.125D-02 0.305D-01 0.406D-01-0.247D+00
 Coeff-Com: -0.215D-01 0.120D+01
 Coeff:     -0.502D-06 0.741D-06-0.374D-06 0.378D-05 0.933D-05-0.363D-04
 Coeff:      0.122D-04 0.804D-04-0.219D-03-0.459D-03 0.188D-02-0.218D-02
 Coeff:     -0.324D-02 0.386D-02-0.125D-02 0.305D-01 0.406D-01-0.247D+00
 Coeff:     -0.215D-01 0.120D+01
 Gap=     0.056 Goal=   None    Shift=    0.000
 Gap=     0.044 Goal=   None    Shift=    0.000
 RMSDP=2.27D-08 MaxDP=1.86D-06 DE= 2.73D-12 OVMax= 3.06D-06

 Cycle  43  Pass 1  IDiag  1:
 RMSU=  8.08D-09    CP:  1.00D+00  1.34D+00
 E= -1136.04064994642     Delta-E=       -0.000000000006 Rises=F Damp=F
 DIIS: error= 4.78D-09 at cycle  43 NSaved=  20.
 NSaved=20 IEnMin=20 EnMin= -1136.04064994642     IErMin=20 ErrMin= 4.78D-09
 ErrMax= 4.78D-09  0.00D+00 EMaxC= 1.00D-01 BMatC= 5.73D-15 BMatP= 7.84D-14
 IDIUse=1 WtCom= 1.00D+00 WtEn= 0.00D+00
 Coeff-Com:  0.383D-06-0.388D-06 0.795D-06-0.199D-05 0.833D-06 0.247D-04
 Coeff-Com: -0.657D-04 0.513D-04 0.196D-03-0.781D-04-0.106D-02 0.183D-02
 Coeff-Com: -0.195D-02-0.256D-03 0.365D-02 0.112D-01-0.141D-01-0.388D-01
 Coeff-Com: -0.691D-01 0.111D+01
 Coeff:      0.383D-06-0.388D-06 0.795D-06-0.199D-05 0.833D-06 0.247D-04
 Coeff:     -0.657D-04 0.513D-04 0.196D-03-0.781D-04-0.106D-02 0.183D-02
 Coeff:     -0.195D-02-0.256D-03 0.365D-02 0.112D-01-0.141D-01-0.388D-01
 Coeff:     -0.691D-01 0.111D+01
 Gap=     0.056 Goal=   None    Shift=    0.000
 Gap=     0.044 Goal=   None    Shift=    0.000
 RMSDP=4.89D-09 MaxDP=2.60D-07 DE=-6.14D-12 OVMax= 5.64D-07

 SCF Done:  E(UB3LYP) =  -1136.04064995     A.U. after   43 cycles
            NFock= 43  Conv=0.49D-08     -V/T= 2.0029
 <Sx>= 0.0000 <Sy>= 0.0000 <Sz>= 0.5000 <S**2>= 2.7523 S= 1.2327
 <L.S>= 0.000000000000E+00
 KE= 1.132808753582D+03 PE=-2.891331032021D+03 EE= 5.409363302928D+02
 Annihilation of the first spin contaminant:
 S**2 before annihilation     2.7523,   after     3.6272
 Leave Link  502 at Thu Nov 23 12:43:53 2023, MaxMem=   104857600 cpu:             994.6 elap:             750.0
 (Enter /home/sekinelabo/g16/l601.exe)
 Copying SCF densities to generalized density rwf, IOpCl= 1 IROHF=0.

 **********************************************************************

            Population analysis using the SCF Density.

 **********************************************************************

 Orbital symmetries:
 Alpha Orbitals:
       Occupied  (A) (A) (A) (A) (A) (A) (A) (A) (A) (A) (A) (A)
                 (A) (A) (A) (A) (A) (A) (A) (A) (A) (A) (A) (A)
                 (A) (A) (A) (A) (A) (A) (A) (A) (A) (A) (A) (A)
                 (A) (A) (A)
       Virtual   (A) (A) (A) (A) (A) (A) (A) (A) (A) (A) (A) (A)
                 (A) (A) (A) (A) (A) (A) (A) (A) (A) (A) (A) (A)
                 (A) (A) (A) (A) (A) (A) (A) (A) (A) (A) (A) (A)
                 (A) (A) (A) (A) (A) (A) (A) (A) (A) (A) (A) (A)
                 (A) (A) (A) (A) (A) (A) (A) (A) (A) (A) (A) (A)
                 (A) (A) (A) (A) (A) (A) (A) (A) (A) (A) (A) (A)
                 (A) (A) (A) (A) (A) (A) (A) (A) (A) (A) (A) (A)
                 (A) (A) (A) (A) (A) (A) (A) (A) (A) (A) (A) (A)
                 (A) (A) (A) (A) (A) (A) (A) (A) (A) (A) (A) (A)
                 (A) (A) (A) (A) (A) (A) (A) (A) (A) (A) (A) (A)
                 (A) (A) (A) (A) (A) (A) (A) (A) (A) (A) (A) (A)
                 (A) (A) (A) (A) (A) (A) (A) (A) (A) (A) (A) (A)
                 (A) (A) (A) (A) (A) (A) (A) (A) (A) (A) (A) (A)
                 (A) (A) (A) (A) (A) (A) (A) (A) (A) (A) (A) (A)
                 (A) (A) (A)
 Beta  Orbitals:
       Occupied  (A) (A) (A) (A) (A) (A) (A) (A) (A) (A) (A) (A)
                 (A) (A) (A) (A) (A) (A) (A) (A) (A) (A) (A) (A)
                 (A) (A) (A) (A) (A) (A) (A) (A) (A) (A) (A) (A)
                 (A) (A)
       Virtual   (A) (A) (A) (A) (A) (A) (A) (A) (A) (A) (A) (A)
                 (A) (A) (A) (A) (A) (A) (A) (A) (A) (A) (A) (A)
                 (A) (A) (A) (A) (A) (A) (A) (A) (A) (A) (A) (A)
                 (A) (A) (A) (A) (A) (A) (A) (A) (A) (A) (A) (A)
                 (A) (A) (A) (A) (A) (A) (A) (A) (A) (A) (A) (A)
                 (A) (A) (A) (A) (A) (A) (A) (A) (A) (A) (A) (A)
                 (A) (A) (A) (A) (A) (A) (A) (A) (A) (A) (A) (A)
                 (A) (A) (A) (A) (A) (A) (A) (A) (A) (A) (A) (A)
                 (A) (A) (A) (A) (A) (A) (A) (A) (A) (A) (A) (A)
                 (A) (A) (A) (A) (A) (A) (A) (A) (A) (A) (A) (A)
                 (A) (A) (A) (A) (A) (A) (A) (A) (A) (A) (A) (A)
                 (A) (A) (A) (A) (A) (A) (A) (A) (A) (A) (A) (A)
                 (A) (A) (A) (A) (A) (A) (A) (A) (A) (A) (A) (A)
                 (A) (A) (A) (A) (A) (A) (A) (A) (A) (A) (A) (A)
                 (A) (A) (A) (A)
 The electronic state is 2-A.
 Alpha  occ. eigenvalues --  -38.46177 -38.46123 -38.45773 -38.45588 -38.45588
 Alpha  occ. eigenvalues --  -38.44015 -38.43937  -2.21958  -2.21903  -2.21558
 Alpha  occ. eigenvalues --   -2.21213  -2.21212  -2.19817  -2.19735  -1.15576
 Alpha  occ. eigenvalues --   -1.15576  -1.15563  -1.15523  -1.15522  -1.15506
 Alpha  occ. eigenvalues --   -1.15171  -1.15171  -1.15171  -1.14937  -1.14937
 Alpha  occ. eigenvalues --   -1.14937  -1.14937  -1.14937  -1.14937  -1.13564
 Alpha  occ. eigenvalues --   -1.13471  -1.13469  -1.13389  -1.13387  -1.13319
 Alpha  occ. eigenvalues --   -0.14421  -0.13489  -0.12801  -0.11774
 Alpha virt. eigenvalues --   -0.06221  -0.06221  -0.05391  -0.03036  -0.03031
 Alpha virt. eigenvalues --   -0.02617  -0.02326  -0.02250  -0.02100  -0.02100
 Alpha virt. eigenvalues --   -0.02100  -0.01091  -0.00898  -0.00134  -0.00087
 Alpha virt. eigenvalues --   -0.00087  -0.00087  -0.00087  -0.00087  -0.00087
 Alpha virt. eigenvalues --   -0.00008   0.00118   0.00846   0.00846   0.00850
 Alpha virt. eigenvalues --    0.01068   0.01178   0.01186   0.01249   0.01300
 Alpha virt. eigenvalues --    0.01332   0.01332   0.01332   0.01698   0.01870
 Alpha virt. eigenvalues --    0.01949   0.02050   0.02246   0.02246   0.02246
 Alpha virt. eigenvalues --    0.02246   0.02246   0.02246   0.02296   0.02548
 Alpha virt. eigenvalues --    0.02856   0.03027   0.03323   0.03527   0.03878
 Alpha virt. eigenvalues --    0.04371   0.05395   0.06989   0.07244   0.07341
 Alpha virt. eigenvalues --    0.07469   0.07469   0.07469   0.07582   0.07597
 Alpha virt. eigenvalues --    0.07693   0.08016   0.08233   0.08334   0.08607
 Alpha virt. eigenvalues --    0.08824   0.08824   0.08824   0.08824   0.08824
 Alpha virt. eigenvalues --    0.08824   0.09082   0.09455   0.09456   0.10520
 Alpha virt. eigenvalues --    0.10548   0.11452   0.12536   0.12802   0.17270
 Alpha virt. eigenvalues --    0.29292   0.29367   0.30554   0.32667   0.32688
 Alpha virt. eigenvalues --    0.33092   0.33108   0.33184   0.33211   0.33225
 Alpha virt. eigenvalues --    0.33225   0.33225   0.33225   0.33225   0.33713
 Alpha virt. eigenvalues --    0.33738   0.34388   0.34458   0.35322   0.35322
 Alpha virt. eigenvalues --    0.35322   0.35322   0.35322   0.35323   0.35323
 Alpha virt. eigenvalues --    0.35323   0.35323   0.35323   0.37113   0.38092
 Alpha virt. eigenvalues --    0.38414   0.39416   0.41761   0.41939   0.41939
 Alpha virt. eigenvalues --    0.41939   0.41956   0.42098   0.42229   0.43432
 Alpha virt. eigenvalues --    0.43432   0.43432   0.43433   0.43433   0.43433
 Alpha virt. eigenvalues --    0.43514   0.43600   0.44621   0.44919   0.45417
 Alpha virt. eigenvalues --    0.45524   0.47402   0.50472   0.50791   0.50973
 Alpha virt. eigenvalues --    0.70945   1.98666   1.99534   1.99534   1.99572
 Alpha virt. eigenvalues --    2.02955   2.05726   2.15694   4.41779   4.42588
 Alpha virt. eigenvalues --    4.42633   4.42689   4.42769   4.42809   4.42809
 Alpha virt. eigenvalues --    4.42809   4.43131   4.43131   4.43131   4.43131
 Alpha virt. eigenvalues --    4.43131   4.43131   4.43258   4.44030   4.45156
 Alpha virt. eigenvalues --    4.45787   4.46849   4.47232   4.65142  96.17682
 Alpha virt. eigenvalues --   96.17951  96.17951  96.18667  96.22820  96.25710
 Alpha virt. eigenvalues --   96.38715
  Beta  occ. eigenvalues --  -38.46004 -38.45955 -38.45774 -38.45774 -38.45588
  Beta  occ. eigenvalues --  -38.43984 -38.43915  -2.21637  -2.21589  -2.21558
  Beta  occ. eigenvalues --   -2.21558  -2.21212  -2.19764  -2.19699  -1.15358
  Beta  occ. eigenvalues --   -1.15358  -1.15343  -1.15310  -1.15310  -1.15292
  Beta  occ. eigenvalues --   -1.15171  -1.15171  -1.15171  -1.15171  -1.15171
  Beta  occ. eigenvalues --   -1.15171  -1.14936  -1.14936  -1.14936  -1.13506
  Beta  occ. eigenvalues --   -1.13439  -1.13434  -1.13369  -1.13366  -1.13263
  Beta  occ. eigenvalues --   -0.13008  -0.12801  -0.12801
  Beta virt. eigenvalues --   -0.08449  -0.07015  -0.06221  -0.04202  -0.02533
  Beta virt. eigenvalues --   -0.02498  -0.02100  -0.02100  -0.02100  -0.02100
  Beta virt. eigenvalues --   -0.02100  -0.02100  -0.01293  -0.01118  -0.00915
  Beta virt. eigenvalues --   -0.00113  -0.00087  -0.00087  -0.00087  -0.00060
  Beta virt. eigenvalues --    0.00117   0.00118   0.00177   0.00344   0.00846
  Beta virt. eigenvalues --    0.01143   0.01241   0.01331   0.01331   0.01331
  Beta virt. eigenvalues --    0.01332   0.01332   0.01332   0.01432   0.01471
  Beta virt. eigenvalues --    0.01480   0.01545   0.02121   0.02179   0.02207
  Beta virt. eigenvalues --    0.02246   0.02246   0.02246   0.02350   0.02670
  Beta virt. eigenvalues --    0.02802   0.03054   0.03138   0.03461   0.03642
  Beta virt. eigenvalues --    0.04052   0.04791   0.05657   0.07469   0.07469
  Beta virt. eigenvalues --    0.07469   0.07469   0.07469   0.07469   0.07617
  Beta virt. eigenvalues --    0.07726   0.07838   0.08003   0.08015   0.08016
  Beta virt. eigenvalues --    0.08551   0.08563   0.08825   0.08825   0.08825
  Beta virt. eigenvalues --    0.08888   0.08921   0.09103   0.09456   0.09772
  Beta virt. eigenvalues --    0.10583   0.10878   0.12082   0.12865   0.13149
  Beta virt. eigenvalues --    0.17560   0.29831   0.29913   0.31359   0.33138
  Beta virt. eigenvalues --    0.33151   0.33225   0.33225   0.33225   0.33225
  Beta virt. eigenvalues --    0.33225   0.33225   0.33225   0.33225   0.33225
  Beta virt. eigenvalues --    0.33225   0.34883   0.34894   0.34923   0.34944
  Beta virt. eigenvalues --    0.35323   0.35323   0.35323   0.35323   0.35323
  Beta virt. eigenvalues --    0.35345   0.35381   0.35820   0.35927   0.38165
  Beta virt. eigenvalues --    0.38343   0.38605   0.40282   0.41938   0.41938
  Beta virt. eigenvalues --    0.41938   0.41939   0.41939   0.41939   0.42435
  Beta virt. eigenvalues --    0.42634   0.42832   0.42901   0.43433   0.43433
  Beta virt. eigenvalues --    0.43433   0.43944   0.44023   0.44872   0.45201
  Beta virt. eigenvalues --    0.45419   0.45501   0.47613   0.50647   0.50901
  Beta virt. eigenvalues --    0.51198   0.71038   1.98665   1.98665   1.99534
  Beta virt. eigenvalues --    2.00157   2.03721   2.06018   2.15767   4.41915
  Beta virt. eigenvalues --    4.42809   4.42809   4.42809   4.42809   4.42809
  Beta virt. eigenvalues --    4.42809   4.42832   4.42875   4.42928   4.43007
  Beta virt. eigenvalues --    4.43131   4.43131   4.43131   4.43434   4.44076
  Beta virt. eigenvalues --    4.45279   4.45918   4.46876   4.47299   4.65200
  Beta virt. eigenvalues --   96.17682  96.17682  96.17951  96.18848  96.23060
  Beta virt. eigenvalues --   96.25810  96.38751
          Condensed to atoms (all electrons):
               1          2          3          4          5          6
     1  Na  11.000000   0.000000   0.000000   0.000000   0.000000   0.000000
     2  Na   0.000000  10.983739   0.044531  -0.163861   0.000799   0.000000
     3  Na   0.000000   0.044531  10.894746   0.287412  -0.133294   0.000000
     4  Na   0.000000  -0.163861   0.287412  11.041360   0.032191   0.000000
     5  Na   0.000000   0.000799  -0.133294   0.032191  10.944600   0.000000
     6  Na   0.000000   0.000000   0.000000   0.000000   0.000000  11.000000
     7  Na   0.000000   0.000000   0.000000   0.000000   0.000000   0.000000
               7
     1  Na   0.000000
     2  Na   0.000000
     3  Na   0.000000
     4  Na   0.000000
     5  Na   0.000000
     6  Na   0.000000
     7  Na  11.000000
          Atomic-Atomic Spin Densities.
               1          2          3          4          5          6
     1  Na   1.000000   0.000000   0.000000   0.000000   0.000000   0.000000
     2  Na   0.000000   0.937044   0.075880  -0.105614  -0.002945   0.000000
     3  Na   0.000000   0.075880   0.160343  -0.026786  -0.081689   0.000000
     4  Na   0.000000  -0.105614  -0.026786   0.167276   0.064773   0.000000
     5  Na   0.000000  -0.002945  -0.081689   0.064773   0.888098   0.000000
     6  Na   0.000000   0.000000   0.000000   0.000000   0.000000  -1.000000
     7  Na   0.000000   0.000000   0.000000   0.000000   0.000000   0.000000
               7
     1  Na   0.000000
     2  Na   0.000000
     3  Na   0.000000
     4  Na   0.000000
     5  Na   0.000000
     6  Na   0.000000
     7  Na  -1.000000
 Mulliken charges and spin densities:
               1          2
     1  Na  -0.000000   1.000000
     2  Na   0.134793   0.904365
     3  Na  -0.093395   0.127749
     4  Na  -0.197101   0.099649
     5  Na   0.155704   0.868237
     6  Na  -0.000000  -1.000000
     7  Na  -0.000000  -1.000000
 Sum of Mulliken charges =  -0.00000   1.00000
 Mulliken charges and spin densities with hydrogens summed into heavy atoms:
               1          2
     1  Na  -0.000000   1.000000
     2  Na   0.134793   0.904365
     3  Na  -0.093395   0.127749
     4  Na  -0.197101   0.099649
     5  Na   0.155704   0.868237
     6  Na  -0.000000  -1.000000
     7  Na  -0.000000  -1.000000
 Electronic spatial extent (au):  <R**2>=        1097030.7621
 Charge=             -0.0000 electrons
 Dipole moment (field-independent basis, Debye):
    X=              0.1522    Y=             -0.2317    Z=              0.2308  Tot=              0.3607
 Quadrupole moment (field-independent basis, Debye-Ang):
   XX=            -55.4751   YY=            -67.0289   ZZ=            -77.4965
   XY=             -4.4601   XZ=             -1.8621   YZ=             -5.4188
 Traceless Quadrupole moment (field-independent basis, Debye-Ang):
   XX=             11.1918   YY=             -0.3621   ZZ=            -10.8297
   XY=             -4.4601   XZ=             -1.8621   YZ=             -5.4188
 Octapole moment (field-independent basis, Debye-Ang**2):
  XXX=           1633.9880  YYY=           -503.5805  ZZZ=            -66.2511  XYY=            205.6751
  XXY=           -408.0974  XXZ=           -355.1864  XZZ=            150.8200  YZZ=            -35.0635
  YYZ=            107.8010  XYZ=             -6.5649
 Hexadecapole moment (field-independent basis, Debye-Ang**3):
 XXXX=       -1101370.4290 YYYY=        -486824.3127 ZZZZ=        -225843.2352 XXXY=         -27399.7431
 XXXZ=         -20302.8755 YYYX=          -8361.2411 YYYZ=          -1804.9146 ZZZX=          -2569.3102
 ZZZY=           1189.5165 XXYY=        -272401.4249 XXZZ=        -228095.6253 YYZZ=        -121196.2248
 XXYZ=           5316.7293 YYXZ=            560.5679 ZZXY=          -2520.0946
 N-N= 8.154529820039D+01 E-N=-2.891331032036D+03  KE= 1.132808753582D+03
                          Isotropic Fermi Contact Couplings
        Atom                 a.u.       MegaHertz       Gauss      10(-4) cm-1
     1  Na(23)             0.79296     938.09920     334.73712     312.91621
     2  Na(23)             0.73407     868.42249     309.87474     289.67456
     3  Na(23)             0.09459     111.89887      39.92830      37.32545
     4  Na(23)             0.04778      56.52850      20.17077      18.85588
     5  Na(23)             0.71640     847.52369     302.41753     282.70347
     6  Na(23)            -0.79296    -938.09920    -334.73712    -312.91621
     7  Na(23)            -0.79296    -938.09919    -334.73712    -312.91621
 --------------------------------------------------------
       Center         ----  Spin Dipole Couplings  ----
                      3XX-RR        3YY-RR        3ZZ-RR
 --------------------------------------------------------
     1   Atom       -0.000000      0.000001     -0.000000
     2   Atom        0.000590     -0.000208     -0.000383
     3   Atom        0.011849     -0.009568     -0.002281
     4   Atom        0.028215     -0.017076     -0.011139
     5   Atom        0.001325     -0.000677     -0.000647
     6   Atom        0.000000      0.000000     -0.000000
     7   Atom        0.000000     -0.000000     -0.000000
 --------------------------------------------------------
                        XY            XZ            YZ
 --------------------------------------------------------
     1   Atom        0.000000      0.000000      0.000000
     2   Atom        0.001160     -0.001092     -0.000761
     3   Atom        0.011966     -0.018484     -0.007968
     4   Atom        0.007606     -0.018263     -0.002766
     5   Atom        0.000474     -0.000415     -0.000088
     6   Atom        0.000000     -0.000000      0.000000
     7   Atom       -0.000000     -0.000001      0.000000
 --------------------------------------------------------


 ---------------------------------------------------------------------------------
              Anisotropic Spin Dipole Couplings in Principal Axis System
 ---------------------------------------------------------------------------------

       Atom             a.u.   MegaHertz   Gauss  10(-4) cm-1        Axes

              Baa    -0.0000    -0.000    -0.000    -0.000  0.9508  0.0056 -0.3098
     1 Na(23) Bbb    -0.0000    -0.000    -0.000    -0.000  0.3074 -0.1421  0.9409
              Bcc     0.0000     0.000     0.000     0.000  0.0388  0.9898  0.1368
 
              Baa    -0.0011    -0.154    -0.055    -0.051  0.5028  0.0810  0.8606
     2 Na(23) Bbb    -0.0010    -0.146    -0.052    -0.049 -0.4778  0.8557  0.1986
              Bcc     0.0021     0.300     0.107     0.100  0.7203  0.5111 -0.4689
 
              Baa    -0.0151    -2.138    -0.763    -0.713  0.6286 -0.5077  0.5892
     3 Na(23) Bbb    -0.0147    -2.073    -0.740    -0.692  0.0677  0.7904  0.6088
              Bcc     0.0298     4.211     1.503     1.405  0.7748  0.3428 -0.5312
 
              Baa    -0.0185    -2.613    -0.932    -0.872 -0.3585  0.6887 -0.6302
     4 Na(23) Bbb    -0.0181    -2.556    -0.912    -0.853  0.1546  0.7095  0.6875
              Bcc     0.0366     5.169     1.844     1.724  0.9207  0.1490 -0.3608
 
              Baa    -0.0008    -0.111    -0.040    -0.037 -0.2352  0.9679 -0.0890
     5 Na(23) Bbb    -0.0007    -0.103    -0.037    -0.034  0.1671  0.1305  0.9773
              Bcc     0.0015     0.214     0.076     0.071  0.9575  0.2150 -0.1925
 
              Baa    -0.0000    -0.000    -0.000    -0.000  0.2454 -0.1799  0.9526
     6 Na(23) Bbb     0.0000     0.000     0.000     0.000  0.0869  0.9828  0.1632
              Bcc     0.0000     0.000     0.000     0.000  0.9655 -0.0427 -0.2568
 
              Baa    -0.0000    -0.000    -0.000    -0.000  0.5765 -0.1876  0.7953
     7 Na(23) Bbb    -0.0000    -0.000    -0.000    -0.000  0.1737  0.9792  0.1051
              Bcc     0.0000     0.000     0.000     0.000  0.7984 -0.0776 -0.5971
 

 ---------------------------------------------------------------------------------

 No NMR shielding tensors so no spin-rotation constants.
 Leave Link  601 at Thu Nov 23 12:43:54 2023, MaxMem=   104857600 cpu:               5.8 elap:               0.8
 (Enter /home/sekinelabo/g16/l701.exe)
 ... and contract with generalized density number  0.
 Compute integral first derivatives.
 Leave Link  701 at Thu Nov 23 12:43:55 2023, MaxMem=   104857600 cpu:               6.8 elap:               0.9
 (Enter /home/sekinelabo/g16/l702.exe)
 L702 exits ... SP integral derivatives will be done elsewhere.
 Leave Link  702 at Thu Nov 23 12:43:55 2023, MaxMem=   104857600 cpu:               0.5 elap:               0.1
 (Enter /home/sekinelabo/g16/l703.exe)
 Integral derivatives from FoFJK, PRISM(SPDF).
 Compute integral first derivatives, UseDBF=F ICtDFT=           0.
 Calling FoFJK, ICntrl=      2127 FMM=F ISym2X=0 I1Cent= 0 IOpClX= 1 NMat=1 NMatS=1 NMatT=0.
 FoFJK:  IHMeth= 1 ICntrl=    2127 DoSepK=F KAlg= 0 I1Cent=           0 FoldK=F
 IRaf=         0 NMat=       1 IRICut=       1 DoRegI=T DoRafI=F ISym2E= 0 IDoP0=0 IntGTp=1.
 FoFCou: FMM=F IPFlag=           0 FMFlag=      100000 FMFlg1=         800
         NFxFlg=           0 DoJE=F BraDBF=F KetDBF=F FulRan=T
         wScrn=  0.000000 ICntrl=      2127 IOpCl=  1 I1Cent=           0 NGrid=           0
         NMat0=    1 NMatS0=      1 NMatT0=    0 NMatD0=    1 NMtDS0=    0 NMtDT0=    0
 Symmetry not used in FoFCou.
 Leave Link  703 at Thu Nov 23 12:43:56 2023, MaxMem=   104857600 cpu:               8.7 elap:               1.3
 (Enter /home/sekinelabo/g16/l716.exe)
 Dipole        = 5.98696017D-02-9.11389294D-02 9.08192708D-02
 ***** Axes restored to original set *****
 -------------------------------------------------------------------
 Center     Atomic                   Forces (Hartrees/Bohr)
 Number     Number              X              Y              Z
 -------------------------------------------------------------------
      1       11           0.000000000   -0.000000000    0.000000000
      2       11          -0.001061772    0.000974852    0.000059305
      3       11           0.002406679   -0.001447605    0.000035699
      4       11          -0.002758818    0.001229472   -0.000779447
      5       11           0.001413910   -0.000756720    0.000684443
      6       11          -0.000000000    0.000000000   -0.000000000
      7       11          -0.000000000   -0.000000000   -0.000000000
 -------------------------------------------------------------------
 Cartesian Forces:  Max     0.002758818 RMS     0.001040618
 Z-matrix is all fixed cartesians, so copy forces.
 Force constants in Cartesian coordinates: 
                1             2             3             4             5 
      1  0.100000D+01
      2  0.000000D+00  0.100000D+01
      3  0.000000D+00  0.000000D+00  0.100000D+01
      4  0.000000D+00  0.000000D+00  0.000000D+00  0.100000D+01
      5  0.000000D+00  0.000000D+00  0.000000D+00  0.000000D+00  0.100000D+01
      6  0.000000D+00  0.000000D+00  0.000000D+00  0.000000D+00  0.000000D+00
      7  0.000000D+00  0.000000D+00  0.000000D+00  0.000000D+00  0.000000D+00
      8  0.000000D+00  0.000000D+00  0.000000D+00  0.000000D+00  0.000000D+00
      9  0.000000D+00  0.000000D+00  0.000000D+00  0.000000D+00  0.000000D+00
     10  0.000000D+00  0.000000D+00  0.000000D+00  0.000000D+00  0.000000D+00
     11  0.000000D+00  0.000000D+00  0.000000D+00  0.000000D+00  0.000000D+00
     12  0.000000D+00  0.000000D+00  0.000000D+00  0.000000D+00  0.000000D+00
     13  0.000000D+00  0.000000D+00  0.000000D+00  0.000000D+00  0.000000D+00
     14  0.000000D+00  0.000000D+00  0.000000D+00  0.000000D+00  0.000000D+00
     15  0.000000D+00  0.000000D+00  0.000000D+00  0.000000D+00  0.000000D+00
     16  0.000000D+00  0.000000D+00  0.000000D+00  0.000000D+00  0.000000D+00
     17  0.000000D+00  0.000000D+00  0.000000D+00  0.000000D+00  0.000000D+00
     18  0.000000D+00  0.000000D+00  0.000000D+00  0.000000D+00  0.000000D+00
     19  0.000000D+00  0.000000D+00  0.000000D+00  0.000000D+00  0.000000D+00
     20  0.000000D+00  0.000000D+00  0.000000D+00  0.000000D+00  0.000000D+00
     21  0.000000D+00  0.000000D+00  0.000000D+00  0.000000D+00  0.000000D+00
                6             7             8             9            10 
      6  0.100000D+01
      7  0.000000D+00  0.320688D-01
      8  0.000000D+00 -0.926139D-02  0.267467D-02
      9  0.000000D+00  0.131330D-02 -0.379277D-03  0.537828D-04
     10  0.000000D+00 -0.320688D-01  0.926139D-02 -0.131330D-02  0.320688D-01
     11  0.000000D+00  0.926139D-02 -0.267467D-02  0.379277D-03 -0.926139D-02
     12  0.000000D+00 -0.131330D-02  0.379277D-03 -0.537828D-04  0.131330D-02
     13  0.000000D+00  0.000000D+00  0.000000D+00  0.000000D+00  0.000000D+00
     14  0.000000D+00  0.000000D+00  0.000000D+00  0.000000D+00  0.000000D+00
     15  0.000000D+00  0.000000D+00  0.000000D+00  0.000000D+00  0.000000D+00
     16  0.000000D+00  0.000000D+00  0.000000D+00  0.000000D+00  0.000000D+00
     17  0.000000D+00  0.000000D+00  0.000000D+00  0.000000D+00  0.000000D+00
     18  0.000000D+00  0.000000D+00  0.000000D+00  0.000000D+00  0.000000D+00
     19  0.000000D+00  0.000000D+00  0.000000D+00  0.000000D+00  0.000000D+00
     20  0.000000D+00  0.000000D+00  0.000000D+00  0.000000D+00  0.000000D+00
     21  0.000000D+00  0.000000D+00  0.000000D+00  0.000000D+00  0.000000D+00
               11            12            13            14            15 
     11  0.267467D-02
     12 -0.379277D-03  0.537828D-04
     13  0.000000D+00  0.000000D+00  0.100000D+01
     14  0.000000D+00  0.000000D+00  0.000000D+00  0.100000D+01
     15  0.000000D+00  0.000000D+00  0.000000D+00  0.000000D+00  0.100000D+01
     16  0.000000D+00  0.000000D+00  0.000000D+00  0.000000D+00  0.000000D+00
     17  0.000000D+00  0.000000D+00  0.000000D+00  0.000000D+00  0.000000D+00
     18  0.000000D+00  0.000000D+00  0.000000D+00  0.000000D+00  0.000000D+00
     19  0.000000D+00  0.000000D+00  0.000000D+00  0.000000D+00  0.000000D+00
     20  0.000000D+00  0.000000D+00  0.000000D+00  0.000000D+00  0.000000D+00
     21  0.000000D+00  0.000000D+00  0.000000D+00  0.000000D+00  0.000000D+00
               16            17            18            19            20 
     16  0.100000D+01
     17  0.000000D+00  0.100000D+01
     18  0.000000D+00  0.000000D+00  0.100000D+01
     19  0.000000D+00  0.000000D+00  0.000000D+00  0.100000D+01
     20  0.000000D+00  0.000000D+00  0.000000D+00  0.000000D+00  0.100000D+01
     21  0.000000D+00  0.000000D+00  0.000000D+00  0.000000D+00  0.000000D+00
               21 
     21  0.100000D+01
 Leave Link  716 at Thu Nov 23 12:43:56 2023, MaxMem=   104857600 cpu:               0.6 elap:               0.1
 (Enter /home/sekinelabo/g16/l103.exe)

 GradGradGradGradGradGradGradGradGradGradGradGradGradGradGradGradGradGrad
 Berny optimization.
 Search for a local minimum.
 Step number   1 out of a maximum of    2
 All quantities printed in internal units (Hartrees-Bohrs-Radians)
 Second derivative matrix not updated -- first step.
 ITU=  0
     Eigenvalues ---    0.00017   0.00023   0.06959   0.28571   0.37788
     Eigenvalues ---    0.43330   1.00000   1.00000   1.00000   1.00000
     Eigenvalues ---    1.00000   1.00000   1.00000   1.00000   1.00000
 Quadratic step=4.036D+00 exceeds max=3.000D-01 adjusted using Lamda=-2.851D-03.
 Angle between NR and scaled steps=  10.48 degrees.
 Angle between quadratic step and forces=  69.52 degrees.
 Linear search not attempted -- first point.
 B after Tr=     0.000000    0.000000   -0.000000
         Rot=    1.000000   -0.000000    0.000000    0.000000 Ang=   0.00 deg.
 Variable       Old X    -DE/DX   Delta X   Delta X   Delta X     New X
                                 (Linear)    (Quad)   (Total)
    X1       28.75993   0.00000   0.00000  -0.00238  -0.00238  28.75755
    Y1      187.16981  -0.00000   0.00000   0.00031   0.00031 187.17012
    Z1        2.93580   0.00000   0.00000   0.00172   0.00172   2.93753
    X2       23.52671  -0.00106   0.00000  -0.00079  -0.00079  23.52592
    Y2        0.06678   0.00097   0.00000   0.00121   0.00121   0.06799
    Z2        3.10739   0.00006   0.00000   0.00031   0.00031   3.10770
    X3       17.07334   0.00241   0.00000  -0.01710  -0.01710  17.05624
    Y3        5.71606  -0.00145   0.00000  -0.19053  -0.19053   5.52553
    Z3        3.45183   0.00004   0.00000   0.09529   0.09529   3.54712
    X4       11.55539  -0.00276   0.00000   0.01712   0.01712  11.57251
    Y4        7.30963   0.00123   0.00000   0.18616   0.18616   7.49579
    Z4        3.22586  -0.00078   0.00000  -0.09681  -0.09681   3.12904
    X5        4.71215   0.00141   0.00000   0.00150   0.00150   4.71365
    Y5       10.85035  -0.00076   0.00000  -0.00076  -0.00076  10.84959
    Z5        0.08221   0.00068   0.00000   0.00115   0.00115   0.08336
    X6      188.57275  -0.00000   0.00000   0.00143   0.00143 188.57418
    Y6        7.78214   0.00000   0.00000   0.00108   0.00108   7.78321
    Z6      188.22693  -0.00000   0.00000  -0.00082  -0.00082 188.22610
    X7      187.47689  -0.00000   0.00000   0.00022   0.00022 187.47711
    Y7        4.38005  -0.00000   0.00000   0.00254   0.00254   4.38258
    Z7        4.88914  -0.00000   0.00000  -0.00084  -0.00084   4.88829
         Item               Value     Threshold  Converged?
 Maximum Force            0.002759     0.000450     NO 
 RMS     Force            0.001041     0.000300     NO 
 Maximum Displacement     0.190530     0.001800     NO 
 RMS     Displacement     0.065474     0.001200     NO 
 Predicted change in Energy=-3.786557D-04
 GradGradGradGradGradGradGradGradGradGradGradGradGradGradGradGradGradGrad

 Leave Link  103 at Thu Nov 23 12:43:56 2023, MaxMem=   104857600 cpu:               0.3 elap:               0.1
 (Enter /home/sekinelabo/g16/l9999.exe)
 1\1\GINC-SEKINELABO-XA7R-R37\Force\UB3LYP\6-311+G(d)\Na7(2)\SEKINELABO
 \23-Nov-2023\0\\#P B3LYP/6-311+g(d) force\\DPGEN\\0,2\Na,15.2191,99.04
 6,1.55356\Na,12.4498,0.035339,1.64436\Na,9.03482,3.02481,1.82663\Na,6.
 11485,3.86809,1.70705\Na,2.49356,5.74176,0.043504\Na,99.7884,4.11813,9
 9.6054\Na,99.2085,2.31782,2.58722\\Version=ES64L-G16RevB.01\State=2-A\
 HF=-1136.0406499\S2=2.75228\S2-1=0.\S2A=3.627209\RMSD=4.894e-09\RMSF=1
 .041e-03\Dipole=-0.0058478,-0.0709017,-0.1227908\Quadrupole=3.3164049,
 -1.6430845,-1.6733204,-1.9638002,8.1781475,4.1500975\PG=C01 [X(Na7)]\\
 @


 IF YOU GIVE EVERYONE A PIECE OF YOUR MIND,
 PRETTY SOON IT WILL BE ALL GONE.
 Job cpu time:       0 days  0 hours 17 minutes 49.6 seconds.
 Elapsed time:       0 days  0 hours 13 minutes 36.4 seconds.
 File lengths (MBytes):  RWF=     46 Int=      0 D2E=      0 Chk=      4 Scr=      1
 Normal termination of Gaussian 16 at Thu Nov 23 12:43:57 2023.
