0.000000000000000000e+00 0.000000000000000000e+00 0.000000000000000000e+00 -1.531290999999999958e+00 0.000000000000000000e+00 -2.296567000000000025e+00 0.000000000000000000e+00 0.000000000000000000e+00 5.138685999999999865e+00 -4.044592999999999883e+00 -1.339539999999999953e+00 7.779050999999999938e+00
0.000000000000000000e+00 0.000000000000000000e+00 0.000000000000000000e+00 -4.961077999999999655e+00 0.000000000000000000e+00 -1.748928999999999956e+00 0.000000000000000000e+00 0.000000000000000000e+00 5.283717000000000219e+00 -3.857788000000000217e+00 -1.073631000000000002e+00 2.230586999999999875e+00
0.000000000000000000e+00 0.000000000000000000e+00 0.000000000000000000e+00 -2.809630999999999990e+00 0.000000000000000000e+00 2.857990000000000252e-01 0.000000000000000000e+00 0.000000000000000000e+00 4.902759999999999785e+00 -2.120932999999999957e+00 -4.061480000000000090e-01 5.494148000000000032e+00
0.000000000000000000e+00 0.000000000000000000e+00 0.000000000000000000e+00 -3.759065999999999796e+00 0.000000000000000000e+00 2.901221000000000050e+00 0.000000000000000000e+00 0.000000000000000000e+00 3.722849000000000075e+00 -3.532246999999999915e+00 -1.624284000000000061e+00 4.420060000000000322e+00
0.000000000000000000e+00 0.000000000000000000e+00 0.000000000000000000e+00 -3.063931000000000182e+00 0.000000000000000000e+00 -3.148759999999999892e-01 0.000000000000000000e+00 0.000000000000000000e+00 5.423624000000000223e+00 -3.725890000000000035e-01 -2.682462000000000124e+00 2.575835000000000097e+00
