-1.766494988280502730e+04
-1.766469415966664747e+04
-1.766502350718337766e+04
-1.766496173154057760e+04
-1.766551493983929686e+04
