2.351733748638242527e-01 -1.450770789709584065e-03 4.066494634137114428e-01 -2.360612282808705054e-01 1.087165350584483282e-03 -3.602400704970452061e-01 -2.745277629668735342e-01 -9.043717277816641642e-02 1.321116217216125321e-01 2.754156163839197591e-01 9.080072679522405155e-02 -1.785209632162113036e-01
-2.408780361855129282e-01 -5.141805655506280492e-02 3.607639070984265395e-01 1.163804285730524746e-01 -9.353190706509413588e-02 3.156267989752595815e-01 -2.906601510858838888e-02 -1.806657776506488330e-02 -2.742870048469494004e-01 1.535636741431163077e-01 1.630165413852218415e-01 -4.021037012267367206e-01
2.971669966602031865e-01 -1.072458639286254234e-03 -4.238376494221456764e-02 -2.834005378657786234e-01 2.728814854766189665e-03 3.523445205684602038e-02 1.714743093463525048e+00 3.329737763280607443e-01 -4.980622670781061911e-01 -1.728509552257949222e+00 -3.346301325435406815e-01 5.052115799634746551e-01
5.944930931971781352e-02 2.408964452856694402e-02 3.185457212134857330e-01 -1.143661233458698467e-01 1.334561545199160593e+00 -1.225252473657182373e+00 -6.325166267718726476e-02 7.241975450960889613e-03 -4.099151760749979445e-01 1.181684767033392841e-01 -1.365893113756620814e+00 1.316621928518694640e+00
-9.471636296734382149e-03 -2.937218209834243157e-02 4.965499954956949236e-02 -9.017682285053377558e-03 -2.392360267268588830e-02 -4.561250513698560105e-02 4.338994053652384065e-04 -2.733463409666049282e-01 -2.402665763811519528e-01 1.805547059848999769e-02 3.266421257376332377e-01 2.362240305465005408e-01
