 Entering Gaussian System, Link 0=g16
 Initial command:
 /home/sekinelabo/g16/l1.exe "/home/sekinelabo/g16temp/Gau-934243.inp" -scrdir="/home/sekinelabo/g16temp/"
 Entering Link 1 = /home/sekinelabo/g16/l1.exe PID=    934289.
  
 Copyright (c) 1988-2017, Gaussian, Inc.  All Rights Reserved.
  
 This is part of the Gaussian(R) 16 program.  It is based on
 the Gaussian(R) 09 system (copyright 2009, Gaussian, Inc.),
 the Gaussian(R) 03 system (copyright 2003, Gaussian, Inc.),
 the Gaussian(R) 98 system (copyright 1998, Gaussian, Inc.),
 the Gaussian(R) 94 system (copyright 1995, Gaussian, Inc.),
 the Gaussian 92(TM) system (copyright 1992, Gaussian, Inc.),
 the Gaussian 90(TM) system (copyright 1990, Gaussian, Inc.),
 the Gaussian 88(TM) system (copyright 1988, Gaussian, Inc.),
 the Gaussian 86(TM) system (copyright 1986, Carnegie Mellon
 University), and the Gaussian 82(TM) system (copyright 1983,
 Carnegie Mellon University). Gaussian is a federally registered
 trademark of Gaussian, Inc.
  
 This software contains proprietary and confidential information,
 including trade secrets, belonging to Gaussian, Inc.
  
 This software is provided under written license and may be
 used, copied, transmitted, or stored only in accord with that
 written license.
  
 The following legend is applicable only to US Government
 contracts under FAR:
  
                    RESTRICTED RIGHTS LEGEND
  
 Use, reproduction and disclosure by the US Government is
 subject to restrictions as set forth in subparagraphs (a)
 and (c) of the Commercial Computer Software - Restricted
 Rights clause in FAR 52.227-19.
  
 Gaussian, Inc.
 340 Quinnipiac St., Bldg. 40, Wallingford CT 06492
  
  
 ---------------------------------------------------------------
 Warning -- This program may not be used in any manner that
 competes with the business of Gaussian, Inc. or will provide
 assistance to any competitor of Gaussian, Inc.  The licensee
 of this program is prohibited from giving any competitor of
 Gaussian, Inc. access to this program.  By using this program,
 the user acknowledges that Gaussian, Inc. is engaged in the
 business of creating and licensing software in the field of
 computational chemistry and represents and warrants to the
 licensee that it is not a competitor of Gaussian, Inc. and that
 it will not use this program in any manner prohibited above.
 ---------------------------------------------------------------
  

 Cite this work as:
 Gaussian 16, Revision B.01,
 M. J. Frisch, G. W. Trucks, H. B. Schlegel, G. E. Scuseria, 
 M. A. Robb, J. R. Cheeseman, G. Scalmani, V. Barone, 
 G. A. Petersson, H. Nakatsuji, X. Li, M. Caricato, A. V. Marenich, 
 J. Bloino, B. G. Janesko, R. Gomperts, B. Mennucci, H. P. Hratchian, 
 J. V. Ortiz, A. F. Izmaylov, J. L. Sonnenberg, D. Williams-Young, 
 F. Ding, F. Lipparini, F. Egidi, J. Goings, B. Peng, A. Petrone, 
 T. Henderson, D. Ranasinghe, V. G. Zakrzewski, J. Gao, N. Rega, 
 G. Zheng, W. Liang, M. Hada, M. Ehara, K. Toyota, R. Fukuda, 
 J. Hasegawa, M. Ishida, T. Nakajima, Y. Honda, O. Kitao, H. Nakai, 
 T. Vreven, K. Throssell, J. A. Montgomery, Jr., J. E. Peralta, 
 F. Ogliaro, M. J. Bearpark, J. J. Heyd, E. N. Brothers, K. N. Kudin, 
 V. N. Staroverov, T. A. Keith, R. Kobayashi, J. Normand, 
 K. Raghavachari, A. P. Rendell, J. C. Burant, S. S. Iyengar, 
 J. Tomasi, M. Cossi, J. M. Millam, M. Klene, C. Adamo, R. Cammi, 
 J. W. Ochterski, R. L. Martin, K. Morokuma, O. Farkas, 
 J. B. Foresman, and D. J. Fox, Gaussian, Inc., Wallingford CT, 2016.
 
 ******************************************
 Gaussian 16:  ES64L-G16RevB.01 20-Dec-2017
                21-Nov-2023 
 ******************************************
 %nprocshared=14
 Will use up to   14 processors via shared memory.
 -------------------------
 #P B3LYP/6-311+g(d) force
 -------------------------
 1/10=7,30=1,38=1/1,3;
 2/12=2,17=6,18=5,40=1/2;
 3/5=4,6=6,7=11,11=2,25=1,30=1,71=1,74=-5/1,2,3;
 4//1;
 5/5=2,38=5/2;
 6/7=2,8=2,9=2,10=2,28=1/1;
 7/29=1/1,2,3,16;
 1/10=7,30=1/3;
 99//99;
 Leave Link    1 at Tue Nov 21 11:40:17 2023, MaxMem=           0 cpu:               0.5 elap:               0.5
 (Enter /home/sekinelabo/g16/l101.exe)
 -----
 DPGEN
 -----
 Symbolic Z-matrix:
 Charge =  0 Multiplicity = 2
 Na                    9.05671   0.63589   0.14875 
 Na                    11.4873   2.29346   28.6882 
 Na                    9.90356   5.22265   29.3702 
 Na                    6.99009   4.67462   0.99599 
 Na                    5.05644   2.79141   2.43226 
 Na                    2.39281   1.35941   4.0673 
 Na                    29.422    1.17453   3.26497 
 
 ITRead=  0  0  0  0  0  0  0
 MicOpt= -1 -1 -1 -1 -1 -1 -1
 NAtoms=      7 NQM=        7 NQMF=       0 NMMI=      0 NMMIF=      0
                NMic=       0 NMicF=      0.
                    Isotopes and Nuclear Properties:
 (Nuclear quadrupole moments (NQMom) in fm**2, nuclear magnetic moments (NMagM)
  in nuclear magnetons)

  Atom         1           2           3           4           5           6           7
 IAtWgt=          23          23          23          23          23          23          23
 AtmWgt=  22.9897697  22.9897697  22.9897697  22.9897697  22.9897697  22.9897697  22.9897697
 NucSpn=           3           3           3           3           3           3           3
 AtZEff=  -0.0000000  -0.0000000  -0.0000000  -0.0000000  -0.0000000  -0.0000000  -0.0000000
 NQMom=   10.4000000  10.4000000  10.4000000  10.4000000  10.4000000  10.4000000  10.4000000
 NMagM=    2.2175200   2.2175200   2.2175200   2.2175200   2.2175200   2.2175200   2.2175200
 AtZNuc=  11.0000000  11.0000000  11.0000000  11.0000000  11.0000000  11.0000000  11.0000000
 Leave Link  101 at Tue Nov 21 11:40:20 2023, MaxMem=   104857600 cpu:               2.4 elap:               2.6
 (Enter /home/sekinelabo/g16/l103.exe)

 GradGradGradGradGradGradGradGradGradGradGradGradGradGradGradGradGradGrad
 Berny optimization.
 Initialization pass.
 Trust Radius=3.00D-01 FncErr=1.00D-07 GrdErr=1.00D-07 EigMax=2.50D+02 EigMin=1.00D-04
 Number of steps in this run=      2 maximum allowed number of steps=      2.
 GradGradGradGradGradGradGradGradGradGradGradGradGradGradGradGradGradGrad

 Leave Link  103 at Tue Nov 21 11:40:20 2023, MaxMem=   104857600 cpu:               0.5 elap:               0.4
 (Enter /home/sekinelabo/g16/l202.exe)
                          Input orientation:                          
 ---------------------------------------------------------------------
 Center     Atomic      Atomic             Coordinates (Angstroms)
 Number     Number       Type             X           Y           Z
 ---------------------------------------------------------------------
      1         11           0        9.056710    0.635885    0.148747
      2         11           0       11.487300    2.293460   28.688200
      3         11           0        9.903560    5.222650   29.370200
      4         11           0        6.990090    4.674620    0.995993
      5         11           0        5.056440    2.791410    2.432260
      6         11           0        2.392810    1.359410    4.067300
      7         11           0       29.422000    1.174530    3.264970
 ---------------------------------------------------------------------
                    Distance matrix (angstroms):
                    1          2          3          4          5
     1  Na   0.000000
     2  Na  28.690690   0.000000
     3  Na  29.591365   3.399046   0.000000
     4  Na   4.615206  28.155872  28.528657   0.000000
     5  Na   5.085556  27.036610  27.478321   3.057506   0.000000
     6  Na   7.764413  26.263490  26.675321   6.446590   3.437863
     7  Na  20.609367  31.132717  32.845697  22.816430  24.433342
                    6          7
     6  Na   0.000000
     7  Na  27.041727   0.000000
 Stoichiometry    Na7(2)
 Framework group  C1[X(Na7)]
 Deg. of freedom    15
 Full point group                 C1      NOp   1
 Largest Abelian subgroup         C1      NOp   1
 Largest concise Abelian subgroup C1      NOp   1
                         Standard orientation:                         
 ---------------------------------------------------------------------
 Center     Atomic      Atomic             Coordinates (Angstroms)
 Number     Number       Type             X           Y           Z
 ---------------------------------------------------------------------
      1         11           0       -9.835717   -1.254935   -1.451880
      2         11           0       18.800155    0.516556   -1.385561
      3         11           0       19.617360   -1.242783    1.405570
      4         11           0       -8.799173   -3.562047    2.408552
      5         11           0       -7.521490   -5.414420    0.338628
      6         11           0       -6.035575   -8.024800   -1.333758
      7         11           0       -6.225559   18.982429    0.018450
 ---------------------------------------------------------------------
 Rotational constants (GHZ):           0.0454360           0.0207794           0.0145165
 Leave Link  202 at Tue Nov 21 11:40:21 2023, MaxMem=   104857600 cpu:               0.9 elap:               0.9
 (Enter /home/sekinelabo/g16/l301.exe)
 Standard basis: 6-311+G(d) (5D, 7F)
 Ernie: Thresh=  0.10000D-02 Tol=  0.10000D-05 Strict=F.
 There are   217 symmetry adapted cartesian basis functions of A   symmetry.
 There are   210 symmetry adapted basis functions of A   symmetry.
   210 basis functions,   350 primitive gaussians,   217 cartesian basis functions
    39 alpha electrons       38 beta electrons
       nuclear repulsion energy       136.4072209995 Hartrees.
 IExCor=  402 DFT=T Ex+Corr=B3LYP ExCW=0 ScaHFX=  0.200000
 ScaDFX=  0.800000  0.720000  1.000000  0.810000 ScalE2=  1.000000  1.000000
 IRadAn=      5 IRanWt=     -1 IRanGd=            0 ICorTp=0 IEmpDi=  4
 NAtoms=    7 NActive=    7 NUniq=    7 SFac= 1.00D+00 NAtFMM=   60 NAOKFM=F Big=F
 Integral buffers will be    131072 words long.
 Raffenetti 2 integral format.
 Two-electron integral symmetry is turned on.
 Leave Link  301 at Tue Nov 21 11:40:22 2023, MaxMem=   104857600 cpu:               0.7 elap:               0.8
 (Enter /home/sekinelabo/g16/l302.exe)
 NPDir=0 NMtPBC=     1 NCelOv=     1 NCel=       1 NClECP=     1 NCelD=      1
         NCelK=      1 NCelE2=     1 NClLst=     1 CellRange=     0.0.
 One-electron integrals computed using PRISM.
 One-electron integral symmetry used in STVInt
 NBasis=   210 RedAO= T EigKep=  7.69D-06  NBF=   210
 NBsUse=   210 1.00D-06 EigRej= -1.00D+00 NBFU=   210
 Precomputing XC quadrature grid using
 IXCGrd= 4 IRadAn=           5 IRanWt=          -1 IRanGd=           0 AccXCQ= 0.00D+00.
 Generated NRdTot=       0 NPtTot=           0 NUsed=           0 NTot=          32
 NSgBfM=   154   154   154   154   154 MxSgAt=     7 MxSgA2=     7.
 Leave Link  302 at Tue Nov 21 11:40:54 2023, MaxMem=   104857600 cpu:              29.6 elap:              31.8
 (Enter /home/sekinelabo/g16/l303.exe)
 DipDrv:  MaxL=1.
 Leave Link  303 at Tue Nov 21 11:40:57 2023, MaxMem=   104857600 cpu:               2.7 elap:               2.7
 (Enter /home/sekinelabo/g16/l401.exe)
 ExpMin= 7.60D-03 ExpMax= 3.62D+04 ExpMxC= 1.21D+03 IAcc=3 IRadAn=         5 AccDes= 0.00D+00
 Harris functional with IExCor=  402 and IRadAn=       5 diagonalized for initial guess.
 HarFok:  IExCor=  402 AccDes= 0.00D+00 IRadAn=         5 IDoV= 1 UseB2=F ITyADJ=14
 ICtDFT=  3500011 ScaDFX=  1.000000  1.000000  1.000000  1.000000
 FoFCou: FMM=F IPFlag=           0 FMFlag=      100000 FMFlg1=           0
         NFxFlg=           0 DoJE=T BraDBF=F KetDBF=T FulRan=T
         wScrn=  0.000000 ICntrl=       500 IOpCl=  0 I1Cent=   200000004 NGrid=           0
         NMat0=    1 NMatS0=      1 NMatT0=    0 NMatD0=    1 NMtDS0=    0 NMtDT0=    0
 Petite list used in FoFCou.
 Harris En= -1135.84486094911    
 JPrj=0 DoOrth=F DoCkMO=F.
 Initial guess <Sx>= 0.0000 <Sy>= 0.0000 <Sz>= 0.5000 <S**2>= 0.7500 S= 0.5000
 Leave Link  401 at Tue Nov 21 11:41:14 2023, MaxMem=   104857600 cpu:              16.1 elap:              17.3
 (Enter /home/sekinelabo/g16/l502.exe)
 Integral symmetry usage will be decided dynamically.
 UHF open shell SCF:
 Using DIIS extrapolation, IDIIS=  1040.
 NGot=   104857600 LenX=   104758426 LenY=   104710896
 Requested convergence on RMS density matrix=1.00D-08 within 128 cycles.
 Requested convergence on MAX density matrix=1.00D-06.
 Requested convergence on             energy=1.00D-06.
 No special actions if energy rises.
 Fock matrices will be formed incrementally for  20 cycles.

 Cycle   1  Pass 1  IDiag  1:
 FoFJK:  IHMeth= 1 ICntrl=       0 DoSepK=F KAlg= 0 I1Cent=           0 FoldK=F
 IRaf= 520000000 NMat=       1 IRICut=       1 DoRegI=T DoRafI=F ISym2E= 0 IDoP0=0 IntGTp=1.
 FoFCou: FMM=F IPFlag=           0 FMFlag=      100000 FMFlg1=           0
         NFxFlg=           0 DoJE=F BraDBF=F KetDBF=F FulRan=T
         wScrn=  0.000000 ICntrl=         0 IOpCl=  1 I1Cent=           0 NGrid=           0
         NMat0=    1 NMatS0=      1 NMatT0=    0 NMatD0=    1 NMtDS0=    0 NMtDT0=    0
 Symmetry not used in FoFCou.
 E= -1136.03234171224    
 DIIS: error= 1.96D-02 at cycle   1 NSaved=   1.
 NSaved= 1 IEnMin= 1 EnMin= -1136.03234171224     IErMin= 1 ErrMin= 1.96D-02
 ErrMax= 1.96D-02  0.00D+00 EMaxC= 1.00D-01 BMatC= 1.90D-01 BMatP= 1.90D-01
 IDIUse=3 WtCom= 8.04D-01 WtEn= 1.96D-01
 Coeff-Com:  0.100D+01
 Coeff-En:   0.100D+01
 Coeff:      0.100D+01
 Gap=     0.033 Goal=   None    Shift=    0.000
 Gap=     0.024 Goal=   None    Shift=    0.000
 GapD=    0.024 DampG=0.250 DampE=0.500 DampFc=0.2500 IDamp=-1.
 Damping current iteration by 2.50D-01
 RMSDP=8.64D-03 MaxDP=6.02D-01              OVMax= 7.26D-01

 Cycle   2  Pass 1  IDiag  1:
 RMSU=  2.15D-03    CP:  9.90D-01
 E= -1136.04274825426     Delta-E=       -0.010406542022 Rises=F Damp=T
 DIIS: error= 1.36D-02 at cycle   2 NSaved=   2.
 NSaved= 2 IEnMin= 2 EnMin= -1136.04274825426     IErMin= 2 ErrMin= 1.36D-02
 ErrMax= 1.36D-02  0.00D+00 EMaxC= 1.00D-01 BMatC= 7.08D-02 BMatP= 1.90D-01
 IDIUse=3 WtCom= 8.64D-01 WtEn= 1.36D-01
 Coeff-Com: -0.103D+01 0.203D+01
 Coeff-En:   0.210D+00 0.790D+00
 Coeff:     -0.857D+00 0.186D+01
 Gap=    -0.019 Goal=   None    Shift=    0.000
 Gap=    -0.019 Goal=   None    Shift=    0.000
 RMSDP=9.30D-03 MaxDP=7.99D-01 DE=-1.04D-02 OVMax= 7.34D-01

 Cycle   3  Pass 1  IDiag  1:
 RMSU=  7.93D-03    CP:  8.19D-01 -3.43D-01
 E= -1135.96464381021     Delta-E=        0.078104444054 Rises=F Damp=F
 DIIS: error= 1.25D-02 at cycle   3 NSaved=   3.
 NSaved= 3 IEnMin= 2 EnMin= -1136.04274825426     IErMin= 3 ErrMin= 1.25D-02
 ErrMax= 1.25D-02  0.00D+00 EMaxC= 1.00D-01 BMatC= 4.60D-02 BMatP= 7.08D-02
 IDIUse=3 WtCom= 8.75D-01 WtEn= 1.25D-01
 Rare condition: small coef for last iteration:  0.000D+00
 Coeff-Com: -0.651D+00 0.122D+01 0.428D+00
 Coeff-En:   0.109D+00 0.835D+00 0.560D-01
 Coeff:     -0.651D+00 0.122D+01 0.428D+00
 Gap=     0.051 Goal=   None    Shift=    0.000
 Gap=     0.051 Goal=   None    Shift=    0.000
 RMSDP=7.90D-03 MaxDP=4.82D-01 DE= 7.81D-02 OVMax= 6.62D-01

 Cycle   4  Pass 1  IDiag  1:
 RMSU=  2.42D-03    CP:  9.16D-01  1.82D+00  3.08D-01
 E= -1136.05502668800     Delta-E=       -0.090382877790 Rises=F Damp=F
 DIIS: error= 6.09D-03 at cycle   4 NSaved=   4.
 NSaved= 4 IEnMin= 4 EnMin= -1136.05502668800     IErMin= 4 ErrMin= 6.09D-03
 ErrMax= 6.09D-03  0.00D+00 EMaxC= 1.00D-01 BMatC= 8.91D-03 BMatP= 4.60D-02
 IDIUse=3 WtCom= 9.39D-01 WtEn= 6.09D-02
 EnCoef did    21 forward-backward iterations
 Coeff-Com: -0.501D-01 0.125D+00 0.265D+00 0.660D+00
 Coeff-En:   0.911D-01 0.000D+00 0.135D+00 0.774D+00
 Coeff:     -0.416D-01 0.117D+00 0.257D+00 0.667D+00
 Gap=     0.022 Goal=   None    Shift=    0.000
 Gap=     0.022 Goal=   None    Shift=    0.000
 RMSDP=3.76D-03 MaxDP=2.30D-01 DE=-9.04D-02 OVMax= 3.26D-01

 Cycle   5  Pass 1  IDiag  1:
 RMSU=  1.62D-03    CP:  8.86D-01  4.81D-01  4.95D-01  6.92D-01
 E= -1136.06566338240     Delta-E=       -0.010636694406 Rises=F Damp=F
 DIIS: error= 2.55D-03 at cycle   5 NSaved=   5.
 NSaved= 5 IEnMin= 5 EnMin= -1136.06566338240     IErMin= 5 ErrMin= 2.55D-03
 ErrMax= 2.55D-03  0.00D+00 EMaxC= 1.00D-01 BMatC= 2.47D-03 BMatP= 8.91D-03
 IDIUse=3 WtCom= 9.75D-01 WtEn= 2.55D-02
 Coeff-Com: -0.219D-01 0.311D-01 0.206D-01 0.330D+00 0.640D+00
 Coeff-En:   0.000D+00 0.000D+00 0.000D+00 0.319D+00 0.681D+00
 Coeff:     -0.213D-01 0.303D-01 0.200D-01 0.330D+00 0.641D+00
 Gap=     0.028 Goal=   None    Shift=    0.000
 Gap=     0.028 Goal=   None    Shift=    0.000
 RMSDP=1.63D-03 MaxDP=1.06D-01 DE=-1.06D-02 OVMax= 1.38D-01

 Cycle   6  Pass 1  IDiag  1:
 RMSU=  7.26D-04    CP:  9.01D-01  9.93D-01  4.04D-01  7.44D-01  6.95D-01
 E= -1136.07006945363     Delta-E=       -0.004406071228 Rises=F Damp=F
 DIIS: error= 1.37D-03 at cycle   6 NSaved=   6.
 NSaved= 6 IEnMin= 6 EnMin= -1136.07006945363     IErMin= 6 ErrMin= 1.37D-03
 ErrMax= 1.37D-03  0.00D+00 EMaxC= 1.00D-01 BMatC= 6.27D-04 BMatP= 2.47D-03
 IDIUse=3 WtCom= 9.86D-01 WtEn= 1.37D-02
 Coeff-Com: -0.188D-01 0.271D-01-0.202D-01 0.856D-01 0.408D+00 0.518D+00
 Coeff-En:   0.000D+00 0.000D+00 0.000D+00 0.000D+00 0.170D+00 0.830D+00
 Coeff:     -0.186D-01 0.267D-01-0.200D-01 0.844D-01 0.405D+00 0.523D+00
 Gap=     0.028 Goal=   None    Shift=    0.000
 Gap=     0.028 Goal=   None    Shift=    0.000
 RMSDP=6.33D-04 MaxDP=3.22D-02 DE=-4.41D-03 OVMax= 3.59D-02

 Cycle   7  Pass 1  IDiag  1:
 RMSU=  3.61D-04    CP:  9.02D-01  8.26D-01  4.01D-01  7.03D-01  9.13D-01
                    CP:  9.03D-01
 E= -1136.07089441656     Delta-E=       -0.000824962928 Rises=F Damp=F
 DIIS: error= 2.08D-04 at cycle   7 NSaved=   7.
 NSaved= 7 IEnMin= 7 EnMin= -1136.07089441656     IErMin= 7 ErrMin= 2.08D-04
 ErrMax= 2.08D-04  0.00D+00 EMaxC= 1.00D-01 BMatC= 1.85D-05 BMatP= 6.27D-04
 IDIUse=3 WtCom= 9.98D-01 WtEn= 2.08D-03
 Coeff-Com: -0.962D-02 0.137D-01-0.109D-01 0.114D-01 0.118D+00 0.180D+00
 Coeff-Com:  0.697D+00
 Coeff-En:   0.000D+00 0.000D+00 0.000D+00 0.000D+00 0.000D+00 0.000D+00
 Coeff-En:   0.100D+01
 Coeff:     -0.960D-02 0.137D-01-0.109D-01 0.114D-01 0.118D+00 0.180D+00
 Coeff:      0.698D+00
 Gap=     0.029 Goal=   None    Shift=    0.000
 Gap=     0.029 Goal=   None    Shift=    0.000
 RMSDP=1.88D-04 MaxDP=1.59D-02 DE=-8.25D-04 OVMax= 6.59D-03

 Cycle   8  Pass 1  IDiag  1:
 RMSU=  6.03D-05    CP:  8.98D-01  8.00D-01  4.15D-01  6.95D-01  9.68D-01
                    CP:  9.44D-01  9.41D-01
 E= -1136.07089722955     Delta-E=       -0.000002812989 Rises=F Damp=F
 DIIS: error= 1.78D-04 at cycle   8 NSaved=   8.
 NSaved= 8 IEnMin= 8 EnMin= -1136.07089722955     IErMin= 8 ErrMin= 1.78D-04
 ErrMax= 1.78D-04  0.00D+00 EMaxC= 1.00D-01 BMatC= 6.75D-06 BMatP= 1.85D-05
 IDIUse=3 WtCom= 9.98D-01 WtEn= 1.78D-03
 Coeff-Com: -0.495D-02 0.679D-02-0.222D-02 0.409D-02-0.912D-02-0.529D-02
 Coeff-Com:  0.279D+00 0.732D+00
 Coeff-En:   0.000D+00 0.000D+00 0.000D+00 0.000D+00 0.000D+00 0.000D+00
 Coeff-En:   0.399D+00 0.601D+00
 Coeff:     -0.494D-02 0.678D-02-0.222D-02 0.409D-02-0.910D-02-0.528D-02
 Coeff:      0.279D+00 0.732D+00
 Gap=     0.029 Goal=   None    Shift=    0.000
 Gap=     0.029 Goal=   None    Shift=    0.000
 RMSDP=4.87D-05 MaxDP=2.39D-03 DE=-2.81D-06 OVMax= 3.77D-03

 Cycle   9  Pass 1  IDiag  1:
 RMSU=  9.36D-06    CP:  8.99D-01  8.02D-01  4.12D-01  6.95D-01  9.78D-01
                    CP:  9.51D-01  1.04D+00  1.10D+00
 E= -1136.07090548975     Delta-E=       -0.000008260198 Rises=F Damp=F
 DIIS: error= 5.74D-05 at cycle   9 NSaved=   9.
 NSaved= 9 IEnMin= 9 EnMin= -1136.07090548975     IErMin= 9 ErrMin= 5.74D-05
 ErrMax= 5.74D-05  0.00D+00 EMaxC= 1.00D-01 BMatC= 8.20D-07 BMatP= 6.75D-06
 IDIUse=1 WtCom= 1.00D+00 WtEn= 0.00D+00
 Coeff-Com: -0.154D-02 0.207D-02 0.276D-03 0.253D-02-0.194D-01-0.154D-01
 Coeff-Com:  0.488D-02 0.123D+00 0.903D+00
 Coeff:     -0.154D-02 0.207D-02 0.276D-03 0.253D-02-0.194D-01-0.154D-01
 Coeff:      0.488D-02 0.123D+00 0.903D+00
 Gap=     0.029 Goal=   None    Shift=    0.000
 Gap=     0.029 Goal=   None    Shift=    0.000
 RMSDP=3.14D-05 MaxDP=2.75D-03 DE=-8.26D-06 OVMax= 2.01D-03

 Cycle  10  Pass 1  IDiag  1:
 RMSU=  3.88D-06    CP:  8.99D-01  8.08D-01  4.09D-01  6.94D-01  9.76D-01
                    CP:  9.65D-01  1.05D+00  1.09D+00  1.48D+00
 E= -1136.07090723172     Delta-E=       -0.000001741970 Rises=F Damp=F
 DIIS: error= 8.28D-06 at cycle  10 NSaved=  10.
 NSaved=10 IEnMin=10 EnMin= -1136.07090723172     IErMin=10 ErrMin= 8.28D-06
 ErrMax= 8.28D-06  0.00D+00 EMaxC= 1.00D-01 BMatC= 1.30D-08 BMatP= 8.20D-07
 IDIUse=1 WtCom= 1.00D+00 WtEn= 0.00D+00
 Coeff-Com: -0.267D-03 0.389D-03 0.165D-03 0.139D-03-0.521D-02-0.532D-02
 Coeff-Com: -0.152D-01-0.981D-02 0.173D+00 0.862D+00
 Coeff:     -0.267D-03 0.389D-03 0.165D-03 0.139D-03-0.521D-02-0.532D-02
 Coeff:     -0.152D-01-0.981D-02 0.173D+00 0.862D+00
 Gap=     0.029 Goal=   None    Shift=    0.000
 Gap=     0.029 Goal=   None    Shift=    0.000
 RMSDP=6.79D-06 MaxDP=5.00D-04 DE=-1.74D-06 OVMax= 3.07D-04

 Cycle  11  Pass 1  IDiag  1:
 RMSU=  1.18D-06    CP:  8.99D-01  8.09D-01  4.09D-01  6.93D-01  9.77D-01
                    CP:  9.68D-01  1.06D+00  1.10D+00  1.61D+00  1.44D+00
 E= -1136.07090725247     Delta-E=       -0.000000020759 Rises=F Damp=F
 DIIS: error= 1.95D-06 at cycle  11 NSaved=  11.
 NSaved=11 IEnMin=11 EnMin= -1136.07090725247     IErMin=11 ErrMin= 1.95D-06
 ErrMax= 1.95D-06  0.00D+00 EMaxC= 1.00D-01 BMatC= 9.98D-10 BMatP= 1.30D-08
 IDIUse=1 WtCom= 1.00D+00 WtEn= 0.00D+00
 Coeff-Com:  0.117D-04-0.149D-04 0.185D-04-0.162D-03 0.262D-03 0.513D-03
 Coeff-Com: -0.129D-02-0.573D-02-0.214D-01 0.212D+00 0.816D+00
 Coeff:      0.117D-04-0.149D-04 0.185D-04-0.162D-03 0.262D-03 0.513D-03
 Coeff:     -0.129D-02-0.573D-02-0.214D-01 0.212D+00 0.816D+00
 Gap=     0.029 Goal=   None    Shift=    0.000
 Gap=     0.029 Goal=   None    Shift=    0.000
 RMSDP=1.23D-06 MaxDP=8.72D-05 DE=-2.08D-08 OVMax= 6.36D-05

 Cycle  12  Pass 1  IDiag  1:
 RMSU=  2.66D-07    CP:  8.99D-01  8.09D-01  4.09D-01  6.93D-01  9.77D-01
                    CP:  9.68D-01  1.06D+00  1.10D+00  1.63D+00  1.51D+00
                    CP:  9.32D-01
 E= -1136.07090725420     Delta-E=       -0.000000001723 Rises=F Damp=F
 DIIS: error= 3.26D-07 at cycle  12 NSaved=  12.
 NSaved=12 IEnMin=12 EnMin= -1136.07090725420     IErMin=12 ErrMin= 3.26D-07
 ErrMax= 3.26D-07  0.00D+00 EMaxC= 1.00D-01 BMatC= 4.48D-11 BMatP= 9.98D-10
 IDIUse=1 WtCom= 1.00D+00 WtEn= 0.00D+00
 Coeff-Com:  0.153D-04-0.200D-04 0.808D-05-0.563D-04 0.183D-03 0.195D-03
 Coeff-Com:  0.230D-03-0.151D-02-0.115D-01 0.197D-01 0.203D+00 0.789D+00
 Coeff:      0.153D-04-0.200D-04 0.808D-05-0.563D-04 0.183D-03 0.195D-03
 Coeff:      0.230D-03-0.151D-02-0.115D-01 0.197D-01 0.203D+00 0.789D+00
 Gap=     0.029 Goal=   None    Shift=    0.000
 Gap=     0.029 Goal=   None    Shift=    0.000
 RMSDP=3.99D-07 MaxDP=2.97D-05 DE=-1.72D-09 OVMax= 2.75D-05

 Cycle  13  Pass 1  IDiag  1:
 RMSU=  1.08D-07    CP:  8.99D-01  8.09D-01  4.09D-01  6.93D-01  9.77D-01
                    CP:  9.67D-01  1.06D+00  1.10D+00  1.64D+00  1.52D+00
                    CP:  9.40D-01  1.09D+00
 E= -1136.07090725417     Delta-E=        0.000000000027 Rises=F Damp=F
 DIIS: error= 5.14D-07 at cycle  13 NSaved=  13.
 NSaved=13 IEnMin=12 EnMin= -1136.07090725420     IErMin=12 ErrMin= 3.26D-07
 ErrMax= 5.14D-07  0.00D+00 EMaxC= 1.00D-01 BMatC= 4.53D-11 BMatP= 4.48D-11
 IDIUse=1 WtCom= 1.00D+00 WtEn= 0.00D+00
 Coeff-Com:  0.820D-05-0.107D-04 0.248D-05-0.267D-04 0.495D-04 0.404D-04
 Coeff-Com:  0.117D-03-0.426D-04-0.917D-03-0.572D-02-0.778D-02 0.321D+00
 Coeff-Com:  0.693D+00
 Coeff:      0.820D-05-0.107D-04 0.248D-05-0.267D-04 0.495D-04 0.404D-04
 Coeff:      0.117D-03-0.426D-04-0.917D-03-0.572D-02-0.778D-02 0.321D+00
 Coeff:      0.693D+00
 Gap=     0.029 Goal=   None    Shift=    0.000
 Gap=     0.029 Goal=   None    Shift=    0.000
 RMSDP=9.80D-08 MaxDP=5.34D-06 DE= 2.73D-11 OVMax= 1.06D-05

 Cycle  14  Pass 1  IDiag  1:
 RMSU=  3.72D-08    CP:  8.99D-01  8.09D-01  4.09D-01  6.93D-01  9.77D-01
                    CP:  9.67D-01  1.06D+00  1.10D+00  1.64D+00  1.53D+00
                    CP:  9.30D-01  1.18D+00  9.80D-01
 E= -1136.07090725424     Delta-E=       -0.000000000071 Rises=F Damp=F
 DIIS: error= 2.17D-07 at cycle  14 NSaved=  14.
 NSaved=14 IEnMin=14 EnMin= -1136.07090725424     IErMin=14 ErrMin= 2.17D-07
 ErrMax= 2.17D-07  0.00D+00 EMaxC= 1.00D-01 BMatC= 7.15D-12 BMatP= 4.48D-11
 IDIUse=1 WtCom= 1.00D+00 WtEn= 0.00D+00
 Coeff-Com:  0.347D-05-0.461D-05 0.221D-06-0.128D-04 0.129D-04 0.128D-04
 Coeff-Com:  0.245D-04 0.169D-03 0.128D-02-0.345D-02-0.316D-01 0.745D-01
 Coeff-Com:  0.341D+00 0.618D+00
 Coeff:      0.347D-05-0.461D-05 0.221D-06-0.128D-04 0.129D-04 0.128D-04
 Coeff:      0.245D-04 0.169D-03 0.128D-02-0.345D-02-0.316D-01 0.745D-01
 Coeff:      0.341D+00 0.618D+00
 Gap=     0.029 Goal=   None    Shift=    0.000
 Gap=     0.029 Goal=   None    Shift=    0.000
 RMSDP=5.76D-08 MaxDP=3.67D-06 DE=-7.09D-11 OVMax= 6.66D-06

 Cycle  15  Pass 1  IDiag  1:
 RMSU=  1.08D-08    CP:  8.99D-01  8.09D-01  4.09D-01  6.93D-01  9.77D-01
                    CP:  9.67D-01  1.06D+00  1.10D+00  1.64D+00  1.53D+00
                    CP:  9.26D-01  1.20D+00  1.07D+00  8.89D-01
 E= -1136.07090725426     Delta-E=       -0.000000000018 Rises=F Damp=F
 DIIS: error= 3.41D-08 at cycle  15 NSaved=  15.
 NSaved=15 IEnMin=15 EnMin= -1136.07090725426     IErMin=15 ErrMin= 3.41D-08
 ErrMax= 3.41D-08  0.00D+00 EMaxC= 1.00D-01 BMatC= 1.79D-13 BMatP= 7.15D-12
 IDIUse=1 WtCom= 1.00D+00 WtEn= 0.00D+00
 Coeff-Com:  0.694D-06-0.917D-06-0.149D-07-0.252D-05 0.414D-05 0.244D-05
 Coeff-Com:  0.570D-06-0.187D-06 0.246D-03 0.992D-04-0.557D-02 0.578D-02
 Coeff-Com:  0.265D-01 0.101D+00 0.872D+00
 Coeff:      0.694D-06-0.917D-06-0.149D-07-0.252D-05 0.414D-05 0.244D-05
 Coeff:      0.570D-06-0.187D-06 0.246D-03 0.992D-04-0.557D-02 0.578D-02
 Coeff:      0.265D-01 0.101D+00 0.872D+00
 Gap=     0.029 Goal=   None    Shift=    0.000
 Gap=     0.029 Goal=   None    Shift=    0.000
 RMSDP=1.39D-08 MaxDP=1.02D-06 DE=-1.82D-11 OVMax= 1.88D-06

 Cycle  16  Pass 1  IDiag  1:
 RMSU=  6.19D-09    CP:  8.99D-01  8.09D-01  4.09D-01  6.93D-01  9.77D-01
                    CP:  9.67D-01  1.06D+00  1.10D+00  1.64D+00  1.53D+00
                    CP:  9.25D-01  1.21D+00  1.08D+00  9.55D-01  1.51D+00
 E= -1136.07090725427     Delta-E=       -0.000000000006 Rises=F Damp=F
 DIIS: error= 1.81D-08 at cycle  16 NSaved=  16.
 NSaved=16 IEnMin=16 EnMin= -1136.07090725427     IErMin=16 ErrMin= 1.81D-08
 ErrMax= 1.81D-08  0.00D+00 EMaxC= 1.00D-01 BMatC= 2.98D-14 BMatP= 1.79D-13
 IDIUse=1 WtCom= 1.00D+00 WtEn= 0.00D+00
 Coeff-Com:  0.263D-06-0.348D-06-0.279D-07-0.886D-06 0.120D-05-0.434D-06
 Coeff-Com: -0.636D-06 0.140D-05 0.972D-04 0.426D-04-0.214D-02 0.137D-02
 Coeff-Com:  0.289D-02 0.213D-01 0.367D+00 0.610D+00
 Coeff:      0.263D-06-0.348D-06-0.279D-07-0.886D-06 0.120D-05-0.434D-06
 Coeff:     -0.636D-06 0.140D-05 0.972D-04 0.426D-04-0.214D-02 0.137D-02
 Coeff:      0.289D-02 0.213D-01 0.367D+00 0.610D+00
 Gap=     0.029 Goal=   None    Shift=    0.000
 Gap=     0.029 Goal=   None    Shift=    0.000
 RMSDP=8.55D-09 MaxDP=7.09D-07 DE=-6.37D-12 OVMax= 1.39D-06

 SCF Done:  E(UB3LYP) =  -1136.07090725     A.U. after   16 cycles
            NFock= 16  Conv=0.86D-08     -V/T= 2.0029
 <Sx>= 0.0000 <Sy>= 0.0000 <Sz>= 0.5000 <S**2>= 0.7500 S= 0.5000
 <L.S>= 0.000000000000E+00
 KE= 1.132763542839D+03 PE=-3.001344417753D+03 EE= 5.961027466604D+02
 Annihilation of the first spin contaminant:
 S**2 before annihilation     0.7500,   after     0.7500
 Leave Link  502 at Tue Nov 21 11:48:23 2023, MaxMem=   104857600 cpu:             427.3 elap:             428.9
 (Enter /home/sekinelabo/g16/l601.exe)
 Copying SCF densities to generalized density rwf, IOpCl= 1 IROHF=0.

 **********************************************************************

            Population analysis using the SCF Density.

 **********************************************************************

 Orbital symmetries:
 Alpha Orbitals:
       Occupied  (A) (A) (A) (A) (A) (A) (A) (A) (A) (A) (A) (A)
                 (A) (A) (A) (A) (A) (A) (A) (A) (A) (A) (A) (A)
                 (A) (A) (A) (A) (A) (A) (A) (A) (A) (A) (A) (A)
                 (A) (A) (A)
       Virtual   (A) (A) (A) (A) (A) (A) (A) (A) (A) (A) (A) (A)
                 (A) (A) (A) (A) (A) (A) (A) (A) (A) (A) (A) (A)
                 (A) (A) (A) (A) (A) (A) (A) (A) (A) (A) (A) (A)
                 (A) (A) (A) (A) (A) (A) (A) (A) (A) (A) (A) (A)
                 (A) (A) (A) (A) (A) (A) (A) (A) (A) (A) (A) (A)
                 (A) (A) (A) (A) (A) (A) (A) (A) (A) (A) (A) (A)
                 (A) (A) (A) (A) (A) (A) (A) (A) (A) (A) (A) (A)
                 (A) (A) (A) (A) (A) (A) (A) (A) (A) (A) (A) (A)
                 (A) (A) (A) (A) (A) (A) (A) (A) (A) (A) (A) (A)
                 (A) (A) (A) (A) (A) (A) (A) (A) (A) (A) (A) (A)
                 (A) (A) (A) (A) (A) (A) (A) (A) (A) (A) (A) (A)
                 (A) (A) (A) (A) (A) (A) (A) (A) (A) (A) (A) (A)
                 (A) (A) (A) (A) (A) (A) (A) (A) (A) (A) (A) (A)
                 (A) (A) (A) (A) (A) (A) (A) (A) (A) (A) (A) (A)
                 (A) (A) (A)
 Beta  Orbitals:
       Occupied  (A) (A) (A) (A) (A) (A) (A) (A) (A) (A) (A) (A)
                 (A) (A) (A) (A) (A) (A) (A) (A) (A) (A) (A) (A)
                 (A) (A) (A) (A) (A) (A) (A) (A) (A) (A) (A) (A)
                 (A) (A)
       Virtual   (A) (A) (A) (A) (A) (A) (A) (A) (A) (A) (A) (A)
                 (A) (A) (A) (A) (A) (A) (A) (A) (A) (A) (A) (A)
                 (A) (A) (A) (A) (A) (A) (A) (A) (A) (A) (A) (A)
                 (A) (A) (A) (A) (A) (A) (A) (A) (A) (A) (A) (A)
                 (A) (A) (A) (A) (A) (A) (A) (A) (A) (A) (A) (A)
                 (A) (A) (A) (A) (A) (A) (A) (A) (A) (A) (A) (A)
                 (A) (A) (A) (A) (A) (A) (A) (A) (A) (A) (A) (A)
                 (A) (A) (A) (A) (A) (A) (A) (A) (A) (A) (A) (A)
                 (A) (A) (A) (A) (A) (A) (A) (A) (A) (A) (A) (A)
                 (A) (A) (A) (A) (A) (A) (A) (A) (A) (A) (A) (A)
                 (A) (A) (A) (A) (A) (A) (A) (A) (A) (A) (A) (A)
                 (A) (A) (A) (A) (A) (A) (A) (A) (A) (A) (A) (A)
                 (A) (A) (A) (A) (A) (A) (A) (A) (A) (A) (A) (A)
                 (A) (A) (A) (A) (A) (A) (A) (A) (A) (A) (A) (A)
                 (A) (A) (A) (A)
 The electronic state is 2-A.
 Alpha  occ. eigenvalues --  -38.46337 -38.45963 -38.45795 -38.44505 -38.44504
 Alpha  occ. eigenvalues --  -38.43862 -38.43507  -2.22014  -2.21725  -2.21580
 Alpha  occ. eigenvalues --   -2.20250  -2.20242  -2.19613  -2.19324  -1.15697
 Alpha  occ. eigenvalues --   -1.15695  -1.15641  -1.15435  -1.15386  -1.15333
 Alpha  occ. eigenvalues --   -1.15192  -1.15192  -1.15192  -1.13922  -1.13922
 Alpha  occ. eigenvalues --   -1.13915  -1.13912  -1.13912  -1.13834  -1.13281
 Alpha  occ. eigenvalues --   -1.13279  -1.13258  -1.13020  -1.13002  -1.12942
 Alpha  occ. eigenvalues --   -0.14400  -0.12823  -0.12716  -0.11212
 Alpha virt. eigenvalues --   -0.08322  -0.06013  -0.04529  -0.03078  -0.02905
 Alpha virt. eigenvalues --   -0.02230  -0.02229  -0.02122  -0.02121  -0.02121
 Alpha virt. eigenvalues --   -0.01655  -0.01287  -0.01255  -0.01234  -0.00456
 Alpha virt. eigenvalues --   -0.00405   0.00089   0.00270   0.00397   0.00450
 Alpha virt. eigenvalues --    0.00451   0.00576   0.00709   0.00916   0.00946
 Alpha virt. eigenvalues --    0.01118   0.01295   0.01309   0.01311   0.01320
 Alpha virt. eigenvalues --    0.01322   0.01376   0.01527   0.01734   0.01754
 Alpha virt. eigenvalues --    0.01972   0.01988   0.02080   0.02133   0.02291
 Alpha virt. eigenvalues --    0.02544   0.02649   0.02661   0.02663   0.02915
 Alpha virt. eigenvalues --    0.03303   0.03542   0.03628   0.03872   0.04065
 Alpha virt. eigenvalues --    0.04453   0.05585   0.06493   0.07081   0.07311
 Alpha virt. eigenvalues --    0.07435   0.07450   0.07474   0.07586   0.07602
 Alpha virt. eigenvalues --    0.07611   0.07921   0.08026   0.08298   0.08372
 Alpha virt. eigenvalues --    0.08434   0.08553   0.08714   0.09122   0.09432
 Alpha virt. eigenvalues --    0.09433   0.10253   0.10541   0.10725   0.11026
 Alpha virt. eigenvalues --    0.11368   0.14143   0.14158   0.14620   0.17672
 Alpha virt. eigenvalues --    0.28076   0.28333   0.30201   0.30201   0.31257
 Alpha virt. eigenvalues --    0.31415   0.31816   0.32794   0.33203   0.33203
 Alpha virt. eigenvalues --    0.33204   0.33204   0.33204   0.33765   0.33978
 Alpha virt. eigenvalues --    0.33978   0.34302   0.34532   0.34761   0.35298
 Alpha virt. eigenvalues --    0.35823   0.36573   0.36966   0.36966   0.37434
 Alpha virt. eigenvalues --    0.38123   0.39520   0.39610   0.40904   0.41916
 Alpha virt. eigenvalues --    0.41918   0.41927   0.42081   0.42377   0.43325
 Alpha virt. eigenvalues --    0.43430   0.43430   0.43597   0.43679   0.43679
 Alpha virt. eigenvalues --    0.44162   0.44289   0.45183   0.45183   0.45337
 Alpha virt. eigenvalues --    0.45433   0.46116   0.47134   0.47298   0.47317
 Alpha virt. eigenvalues --    0.48616   0.50924   0.52058   0.58863   0.60293
 Alpha virt. eigenvalues --    0.72399   1.98651   2.00092   2.00095   2.03383
 Alpha virt. eigenvalues --    2.10483   2.11308   2.16573   4.40817   4.42258
 Alpha virt. eigenvalues --    4.42308   4.42684   4.42787   4.42788   4.42818
 Alpha virt. eigenvalues --    4.43202   4.43238   4.44086   4.44086   4.44766
 Alpha virt. eigenvalues --    4.44766   4.44984   4.45228   4.46012   4.46507
 Alpha virt. eigenvalues --    4.47230   4.50755   4.51918   4.63851  96.17669
 Alpha virt. eigenvalues --   96.18760  96.19027  96.22770  96.31784  96.32406
 Alpha virt. eigenvalues --   96.38851
  Beta  occ. eigenvalues --  -38.46337 -38.45963 -38.45609 -38.44505 -38.44504
  Beta  occ. eigenvalues --  -38.43862 -38.43507  -2.22014  -2.21725  -2.21234
  Beta  occ. eigenvalues --   -2.20250  -2.20242  -2.19613  -2.19324  -1.15697
  Beta  occ. eigenvalues --   -1.15695  -1.15641  -1.15435  -1.15386  -1.15333
  Beta  occ. eigenvalues --   -1.14958  -1.14958  -1.14958  -1.13922  -1.13922
  Beta  occ. eigenvalues --   -1.13915  -1.13912  -1.13912  -1.13834  -1.13281
  Beta  occ. eigenvalues --   -1.13279  -1.13258  -1.13020  -1.13002  -1.12942
  Beta  occ. eigenvalues --   -0.14400  -0.12716  -0.11212
  Beta virt. eigenvalues --   -0.08322  -0.06244  -0.06013  -0.04529  -0.03078
  Beta virt. eigenvalues --   -0.02905  -0.02230  -0.02229  -0.01655  -0.01287
  Beta virt. eigenvalues --   -0.01255  -0.01234  -0.00456  -0.00407  -0.00113
  Beta virt. eigenvalues --   -0.00112  -0.00103   0.00269   0.00396   0.00450
  Beta virt. eigenvalues --    0.00451   0.00576   0.00709   0.00806   0.00935
  Beta virt. eigenvalues --    0.00955   0.01128   0.01320   0.01321   0.01362
  Beta virt. eigenvalues --    0.01521   0.01702   0.01734   0.01931   0.01973
  Beta virt. eigenvalues --    0.02035   0.02081   0.02209   0.02231   0.02280
  Beta virt. eigenvalues --    0.02428   0.02544   0.02648   0.02661   0.02663
  Beta virt. eigenvalues --    0.02917   0.03303   0.03541   0.03629   0.03874
  Beta virt. eigenvalues --    0.04065   0.04452   0.05585   0.06497   0.07081
  Beta virt. eigenvalues --    0.07356   0.07573   0.07602   0.07607   0.07935
  Beta virt. eigenvalues --    0.08159   0.08371   0.08416   0.08514   0.08714
  Beta virt. eigenvalues --    0.08809   0.08810   0.08929   0.09126   0.09432
  Beta virt. eigenvalues --    0.09433   0.09470   0.10253   0.10542   0.10726
  Beta virt. eigenvalues --    0.11026   0.11368   0.14143   0.14158   0.14620
  Beta virt. eigenvalues --    0.17672   0.28076   0.28333   0.30201   0.30201
  Beta virt. eigenvalues --    0.31257   0.31415   0.31816   0.32794   0.33765
  Beta virt. eigenvalues --    0.33978   0.33978   0.34302   0.34532   0.34761
  Beta virt. eigenvalues --    0.35298   0.35301   0.35301   0.35301   0.35301
  Beta virt. eigenvalues --    0.35301   0.35823   0.36573   0.36966   0.36966
  Beta virt. eigenvalues --    0.37434   0.38123   0.39520   0.39610   0.40905
  Beta virt. eigenvalues --    0.42081   0.42346   0.43316   0.43402   0.43411
  Beta virt. eigenvalues --    0.43422   0.43430   0.43430   0.43638   0.43679
  Beta virt. eigenvalues --    0.43679   0.44163   0.44290   0.45183   0.45183
  Beta virt. eigenvalues --    0.45338   0.45433   0.46116   0.47134   0.47298
  Beta virt. eigenvalues --    0.47317   0.48616   0.50924   0.52058   0.58863
  Beta virt. eigenvalues --    0.60293   0.72399   1.99520   2.00092   2.00095
  Beta virt. eigenvalues --    2.03383   2.10483   2.11308   2.16573   4.40817
  Beta virt. eigenvalues --    4.42258   4.42311   4.42699   4.43079   4.43109
  Beta virt. eigenvalues --    4.43110   4.43204   4.43280   4.44086   4.44086
  Beta virt. eigenvalues --    4.44766   4.44766   4.44984   4.45228   4.46012
  Beta virt. eigenvalues --    4.46507   4.47230   4.50755   4.51918   4.63851
  Beta virt. eigenvalues --   96.17938  96.18760  96.19027  96.22770  96.31784
  Beta virt. eigenvalues --   96.32406  96.38851
          Condensed to atoms (all electrons):
               1          2          3          4          5          6
     1  Na  10.921123   0.000000  -0.000000  -0.343354   0.235186   0.134119
     2  Na   0.000000  10.680883   0.319132   0.000000  -0.000000  -0.000000
     3  Na  -0.000000   0.319132  10.680852  -0.000000   0.000000  -0.000000
     4  Na  -0.343354   0.000000  -0.000000  11.039277  -0.292493  -0.367842
     5  Na   0.235186  -0.000000   0.000000  -0.292493  11.719703   0.425558
     6  Na   0.134119  -0.000000  -0.000000  -0.367842   0.425558  10.737549
     7  Na  -0.000001  -0.000000  -0.000000  -0.000001   0.000000   0.000000
               7
     1  Na  -0.000001
     2  Na  -0.000000
     3  Na  -0.000000
     4  Na  -0.000001
     5  Na   0.000000
     6  Na   0.000000
     7  Na  11.000002
          Atomic-Atomic Spin Densities.
               1          2          3          4          5          6
     1  Na  -0.000026  -0.000000  -0.000000  -0.000005   0.000014   0.000004
     2  Na  -0.000000  -0.000000   0.000000   0.000000   0.000000  -0.000000
     3  Na  -0.000000   0.000000   0.000000   0.000000   0.000000  -0.000000
     4  Na  -0.000005   0.000000   0.000000   0.000042  -0.000013  -0.000015
     5  Na   0.000014   0.000000   0.000000  -0.000013   0.000012  -0.000003
     6  Na   0.000004  -0.000000  -0.000000  -0.000015  -0.000003   0.000009
     7  Na  -0.000001  -0.000000  -0.000000  -0.000000   0.000000   0.000000
               7
     1  Na  -0.000001
     2  Na  -0.000000
     3  Na  -0.000000
     4  Na  -0.000000
     5  Na   0.000000
     6  Na   0.000000
     7  Na   1.000001
 Mulliken charges and spin densities:
               1          2
     1  Na   0.052926  -0.000014
     2  Na  -0.000015  -0.000000
     3  Na   0.000015   0.000000
     4  Na   0.964414   0.000009
     5  Na  -1.087954   0.000010
     6  Na   0.070615  -0.000006
     7  Na  -0.000001   1.000001
 Sum of Mulliken charges =  -0.00000   1.00000
 Mulliken charges and spin densities with hydrogens summed into heavy atoms:
               1          2
     1  Na   0.052926  -0.000014
     2  Na  -0.000015  -0.000000
     3  Na   0.000015   0.000000
     4  Na   0.964414   0.000009
     5  Na  -1.087954   0.000010
     6  Na   0.070615  -0.000006
     7  Na  -0.000001   1.000001
 Electronic spatial extent (au):  <R**2>=          60174.1930
 Charge=             -0.0000 electrons
 Dipole moment (field-independent basis, Debye):
    X=             -0.8177    Y=              1.3513    Z=              0.2162  Tot=              1.5942
 Quadrupole moment (field-independent basis, Debye-Ang):
   XX=            -63.4545   YY=            -82.3002   ZZ=            -56.7110
   XY=            -11.6966   XZ=             -0.2239   YZ=             -6.3037
 Traceless Quadrupole moment (field-independent basis, Debye-Ang):
   XX=              4.0341   YY=            -14.8117   ZZ=             10.7775
   XY=            -11.6966   XZ=             -0.2239   YZ=             -6.3037
 Octapole moment (field-independent basis, Debye-Ang**2):
  XXX=           -181.7630  YYY=             -7.2355  ZZZ=             28.1937  XYY=            129.1760
  XXY=              0.5059  XXZ=            117.7352  XZZ=             32.3998  YZZ=            -54.6756
  YYZ=            -18.9822  XYZ=            -74.1933
 Hexadecapole moment (field-independent basis, Debye-Ang**3):
 XXXX=         -67398.5006 YYYY=         -31863.2872 ZZZZ=           -926.3907 XXXY=          -1999.2156
 XXXZ=           2565.3606 YYYX=           -324.2244 YYYZ=            332.5287 ZZZX=           -230.3811
 ZZZY=           -138.3140 XXYY=         -16591.3767 XXZZ=          -7869.1708 YYZZ=          -5353.2846
 XXYZ=          -2352.3293 YYXZ=             95.8247 ZZXY=            358.5570
 N-N= 1.364072209995D+02 E-N=-3.001344417710D+03  KE= 1.132763542839D+03
                          Isotropic Fermi Contact Couplings
        Atom                 a.u.       MegaHertz       Gauss      10(-4) cm-1
     1  Na(23)            -0.00001      -0.00912      -0.00326      -0.00304
     2  Na(23)            -0.00000      -0.00000      -0.00000      -0.00000
     3  Na(23)             0.00000       0.00000       0.00000       0.00000
     4  Na(23)             0.00000       0.00402       0.00143       0.00134
     5  Na(23)            -0.00000      -0.00158      -0.00057      -0.00053
     6  Na(23)             0.00001       0.00648       0.00231       0.00216
     7  Na(23)             0.79297     938.10247     334.73829     312.91730
 --------------------------------------------------------
       Center         ----  Spin Dipole Couplings  ----
                      3XX-RR        3YY-RR        3ZZ-RR
 --------------------------------------------------------
     1   Atom       -0.000015      0.000032     -0.000017
     2   Atom        0.000005      0.000000     -0.000005
     3   Atom        0.000004      0.000001     -0.000004
     4   Atom       -0.000012      0.000024     -0.000012
     5   Atom       -0.000010      0.000020     -0.000010
     6   Atom       -0.000007      0.000015     -0.000007
     7   Atom        0.000000      0.000000     -0.000000
 --------------------------------------------------------
                        XY            XZ            YZ
 --------------------------------------------------------
     1   Atom        0.000009      0.000001      0.000004
     2   Atom       -0.000007     -0.000001      0.000000
     3   Atom       -0.000006      0.000000     -0.000000
     4   Atom        0.000004     -0.000000     -0.000004
     5   Atom        0.000001     -0.000000      0.000000
     6   Atom       -0.000000      0.000000      0.000001
     7   Atom       -0.000000      0.000000     -0.000000
 --------------------------------------------------------


 ---------------------------------------------------------------------------------
              Anisotropic Spin Dipole Couplings in Principal Axis System
 ---------------------------------------------------------------------------------

       Atom             a.u.   MegaHertz   Gauss  10(-4) cm-1        Axes

              Baa    -0.0000    -0.002    -0.001    -0.001  0.9650 -0.1567 -0.2104
     1 Na(23) Bbb    -0.0000    -0.002    -0.001    -0.001  0.1955 -0.1052  0.9750
              Bcc     0.0000     0.005     0.002     0.002  0.1750  0.9820  0.0709
 
              Baa    -0.0000    -0.001    -0.000    -0.000  0.0775  0.0293  0.9966
     2 Na(23) Bbb    -0.0000    -0.001    -0.000    -0.000  0.5898  0.8046 -0.0695
              Bcc     0.0000     0.001     0.000     0.000  0.8039 -0.5931 -0.0451
 
              Baa    -0.0000    -0.001    -0.000    -0.000 -0.0483  0.0068  0.9988
     3 Na(23) Bbb    -0.0000    -0.001    -0.000    -0.000  0.6153  0.7879  0.0244
              Bcc     0.0000     0.001     0.000     0.000  0.7868 -0.6157  0.0422
 
              Baa    -0.0000    -0.002    -0.001    -0.001  0.9903 -0.1077  0.0877
     4 Na(23) Bbb    -0.0000    -0.002    -0.001    -0.001 -0.0754  0.1135  0.9907
              Bcc     0.0000     0.004     0.001     0.001  0.1166  0.9877 -0.1043
 
              Baa    -0.0000    -0.002    -0.001    -0.001  0.7450 -0.0333  0.6662
     5 Na(23) Bbb    -0.0000    -0.001    -0.000    -0.000 -0.6659  0.0220  0.7457
              Bcc     0.0000     0.003     0.001     0.001  0.0395  0.9992  0.0058
 
              Baa    -0.0000    -0.001    -0.000    -0.000 -0.4087 -0.0478  0.9114
     6 Na(23) Bbb    -0.0000    -0.001    -0.000    -0.000  0.9126 -0.0138  0.4086
              Bcc     0.0000     0.002     0.001     0.001 -0.0069  0.9988  0.0493
 
              Baa    -0.0000    -0.000    -0.000    -0.000  0.6954  0.6381  0.3305
     7 Na(23) Bbb    -0.0000    -0.000    -0.000    -0.000 -0.3354 -0.1186  0.9346
              Bcc     0.0000     0.000     0.000     0.000 -0.6356  0.7607 -0.1316
 

 ---------------------------------------------------------------------------------

 No NMR shielding tensors so no spin-rotation constants.
 Leave Link  601 at Tue Nov 21 11:48:34 2023, MaxMem=   104857600 cpu:              17.2 elap:              10.1
 (Enter /home/sekinelabo/g16/l701.exe)
 ... and contract with generalized density number  0.
 Compute integral first derivatives.
 Leave Link  701 at Tue Nov 21 11:48:38 2023, MaxMem=   104857600 cpu:               7.4 elap:               4.4
 (Enter /home/sekinelabo/g16/l702.exe)
 L702 exits ... SP integral derivatives will be done elsewhere.
 Leave Link  702 at Tue Nov 21 11:48:39 2023, MaxMem=   104857600 cpu:               0.6 elap:               0.4
 (Enter /home/sekinelabo/g16/l703.exe)
 Integral derivatives from FoFJK, PRISM(SPDF).
 Compute integral first derivatives, UseDBF=F ICtDFT=           0.
 Calling FoFJK, ICntrl=      2127 FMM=F ISym2X=0 I1Cent= 0 IOpClX= 1 NMat=1 NMatS=1 NMatT=0.
 FoFJK:  IHMeth= 1 ICntrl=    2127 DoSepK=F KAlg= 0 I1Cent=           0 FoldK=F
 IRaf=         0 NMat=       1 IRICut=       1 DoRegI=T DoRafI=F ISym2E= 0 IDoP0=0 IntGTp=1.
 FoFCou: FMM=F IPFlag=           0 FMFlag=      100000 FMFlg1=         800
         NFxFlg=           0 DoJE=F BraDBF=F KetDBF=F FulRan=T
         wScrn=  0.000000 ICntrl=      2127 IOpCl=  1 I1Cent=           0 NGrid=           0
         NMat0=    1 NMatS0=      1 NMatT0=    0 NMatD0=    1 NMtDS0=    0 NMtDT0=    0
 Symmetry not used in FoFCou.
 Leave Link  703 at Tue Nov 21 11:48:52 2023, MaxMem=   104857600 cpu:              23.4 elap:              13.5
 (Enter /home/sekinelabo/g16/l716.exe)
 Dipole        =-3.21698548D-01 5.31655524D-01 8.50666362D-02
 ***** Axes restored to original set *****
 -------------------------------------------------------------------
 Center     Atomic                   Forces (Hartrees/Bohr)
 Number     Number              X              Y              Z
 -------------------------------------------------------------------
      1       11          -0.002763446    0.005780339    0.001120916
      2       11          -0.002481571    0.004589569    0.001068487
      3       11           0.002481593   -0.004589557   -0.001068413
      4       11           0.005519140   -0.002601216   -0.003198036
      5       11          -0.004901317   -0.004986554    0.003425724
      6       11           0.002145774    0.001807432   -0.001348643
      7       11          -0.000000173   -0.000000013   -0.000000034
 -------------------------------------------------------------------
 Cartesian Forces:  Max     0.005780339 RMS     0.003213084
 Z-matrix is all fixed cartesians, so copy forces.
 Force constants in Cartesian coordinates: 
                1             2             3             4             5 
      1  0.100000D+01
      2  0.000000D+00  0.100000D+01
      3  0.000000D+00  0.000000D+00  0.100000D+01
      4  0.000000D+00  0.000000D+00  0.000000D+00  0.455679D-02
      5  0.000000D+00  0.000000D+00  0.000000D+00 -0.842797D-02  0.155879D-01
      6  0.000000D+00  0.000000D+00  0.000000D+00 -0.196227D-02  0.362930D-02
      7  0.000000D+00  0.000000D+00  0.000000D+00 -0.455679D-02  0.842797D-02
      8  0.000000D+00  0.000000D+00  0.000000D+00  0.842797D-02 -0.155879D-01
      9  0.000000D+00  0.000000D+00  0.000000D+00  0.196227D-02 -0.362930D-02
     10  0.000000D+00  0.000000D+00  0.000000D+00  0.000000D+00  0.000000D+00
     11  0.000000D+00  0.000000D+00  0.000000D+00  0.000000D+00  0.000000D+00
     12  0.000000D+00  0.000000D+00  0.000000D+00  0.000000D+00  0.000000D+00
     13  0.000000D+00  0.000000D+00  0.000000D+00  0.000000D+00  0.000000D+00
     14  0.000000D+00  0.000000D+00  0.000000D+00  0.000000D+00  0.000000D+00
     15  0.000000D+00  0.000000D+00  0.000000D+00  0.000000D+00  0.000000D+00
     16  0.000000D+00  0.000000D+00  0.000000D+00  0.000000D+00  0.000000D+00
     17  0.000000D+00  0.000000D+00  0.000000D+00  0.000000D+00  0.000000D+00
     18  0.000000D+00  0.000000D+00  0.000000D+00  0.000000D+00  0.000000D+00
     19  0.000000D+00  0.000000D+00  0.000000D+00  0.000000D+00  0.000000D+00
     20  0.000000D+00  0.000000D+00  0.000000D+00  0.000000D+00  0.000000D+00
     21  0.000000D+00  0.000000D+00  0.000000D+00  0.000000D+00  0.000000D+00
                6             7             8             9            10 
      6  0.845007D-03
      7  0.196227D-02  0.455679D-02
      8 -0.362930D-02 -0.842797D-02  0.155879D-01
      9 -0.845007D-03 -0.196227D-02  0.362930D-02  0.845007D-03
     10  0.000000D+00  0.000000D+00  0.000000D+00  0.000000D+00  0.168791D-01
     11  0.000000D+00  0.000000D+00  0.000000D+00  0.000000D+00  0.953385D-02
     12  0.000000D+00  0.000000D+00  0.000000D+00  0.000000D+00 -0.104968D-01
     13  0.000000D+00  0.000000D+00  0.000000D+00  0.000000D+00 -0.190426D-01
     14  0.000000D+00  0.000000D+00  0.000000D+00  0.000000D+00 -0.568443D-02
     15  0.000000D+00  0.000000D+00  0.000000D+00  0.000000D+00  0.103436D-01
     16  0.000000D+00  0.000000D+00  0.000000D+00  0.000000D+00  0.216356D-02
     17  0.000000D+00  0.000000D+00  0.000000D+00  0.000000D+00 -0.384943D-02
     18  0.000000D+00  0.000000D+00  0.000000D+00  0.000000D+00  0.153239D-03
     19  0.000000D+00  0.000000D+00  0.000000D+00  0.000000D+00  0.000000D+00
     20  0.000000D+00  0.000000D+00  0.000000D+00  0.000000D+00  0.000000D+00
     21  0.000000D+00  0.000000D+00  0.000000D+00  0.000000D+00  0.000000D+00
               11            12            13            14            15 
     11  0.170262D-01
     12 -0.936914D-02  0.754443D-02
     13 -0.710830D-02  0.107643D-01  0.346108D-01
     14 -0.213418D-01  0.889313D-02  0.717487D-02  0.336171D-01
     15  0.954094D-02 -0.752549D-02 -0.178670D-01 -0.131988D-01  0.120293D-01
     16 -0.242556D-02 -0.267542D-03 -0.155682D-01 -0.149044D-02  0.752341D-02
     17  0.431557D-02  0.476013D-03 -0.665732D-04 -0.122753D-01  0.365789D-02
     18 -0.171796D-03 -0.189493D-04  0.710263D-02  0.430569D-02 -0.450386D-02
     19  0.000000D+00  0.000000D+00  0.000000D+00  0.000000D+00  0.000000D+00
     20  0.000000D+00  0.000000D+00  0.000000D+00  0.000000D+00  0.000000D+00
     21  0.000000D+00  0.000000D+00  0.000000D+00  0.000000D+00  0.000000D+00
               16            17            18            19            20 
     16  0.134046D-01
     17  0.391600D-02  0.795973D-02
     18 -0.725587D-02 -0.413390D-02  0.452281D-02
     19  0.000000D+00  0.000000D+00  0.000000D+00  0.100000D+01
     20  0.000000D+00  0.000000D+00  0.000000D+00  0.000000D+00  0.100000D+01
     21  0.000000D+00  0.000000D+00  0.000000D+00  0.000000D+00  0.000000D+00
               21 
     21  0.100000D+01
 Leave Link  716 at Tue Nov 21 11:48:53 2023, MaxMem=   104857600 cpu:               0.7 elap:               0.5
 (Enter /home/sekinelabo/g16/l103.exe)

 GradGradGradGradGradGradGradGradGradGradGradGradGradGradGradGradGradGrad
 Berny optimization.
 Search for a local minimum.
 Step number   1 out of a maximum of    2
 All quantities printed in internal units (Hartrees-Bohrs-Radians)
 Second derivative matrix not updated -- first step.
 ITU=  0
     Eigenvalues ---   -0.00000  -0.00000  -0.00000   0.00000   0.00000
     Eigenvalues ---    0.02387   0.03922   0.04087   0.04198   0.08285
     Eigenvalues ---    0.45958   0.71429   0.79316   0.92569   1.00000
 Eigenvalue     1 is  -1.11D-15 should be greater than     0.000000 Eigenvector:
                          Z5        Z6        Z4        X5        Z3
   1                    0.60648  -0.44150  -0.42164   0.29070   0.20492
                          X6        Y5        X4        Y4        Y6
   1                   -0.20201   0.19837  -0.15611  -0.12697  -0.08171
 Eigenvalue     2 is  -4.44D-16 should be greater than     0.000000 Eigenvector:
                          Z3        Z5        X3        Z6        Z2
   1                    0.59980  -0.46188   0.35471  -0.30576   0.28900
                          X2        Y3        Y6        X5        Y4
   1                   -0.16379   0.13879  -0.13354  -0.13230   0.12527
 Eigenvalue     3 is  -1.11D-16 should be greater than     0.000000 Eigenvector:
                          X2        Z6        X6        Z4        X4
   1                    0.44758  -0.44582  -0.37372   0.37037   0.30605
                          X3        Y2        Y3        Z5        Z3
   1                   -0.28587   0.22921  -0.17543  -0.12389   0.11702
 Eigenvalue     4 is   2.22D-16 Eigenvector:
                          Z2        Z3        Z6        Y2        Y3
   1                    0.74587  -0.57180  -0.18132  -0.17529   0.12924
                          Y4        Y6        X4        X2        X3
   1                    0.11702  -0.10901  -0.05961   0.04924   0.04507
 Eigenvalue     5 is   6.66D-16 Eigenvector:
                          Z4        X2        Z2        X3        Z6
   1                    0.55983  -0.34210  -0.32361   0.31449  -0.31034
                          Y6        Z5        Y4        Y3        Z3
   1                   -0.28276   0.21742   0.20328   0.19334  -0.14330
 Quadratic step=2.285D+01 exceeds max=3.000D-01 adjusted using Lamda=-1.012D-02.
 Angle between NR and scaled steps=  41.23 degrees.
 Angle between quadratic step and forces=  47.40 degrees.
 Linear search not attempted -- first point.
 B after Tr=     0.000000    0.000000    0.000000
         Rot=    1.000000   -0.000000    0.000000   -0.000000 Ang=   0.00 deg.
 Variable       Old X    -DE/DX   Delta X   Delta X   Delta X     New X
                                 (Linear)    (Quad)   (Total)
    X1       17.11470  -0.00276   0.00000  -0.00243  -0.00243  17.11227
    Y1        1.20165   0.00578   0.00000   0.01053   0.01053   1.21218
    Z1        0.28109   0.00112   0.00000   0.00070   0.00070   0.28179
    X2       21.70785  -0.00248   0.00000   0.03600   0.03600  21.74385
    Y2        4.33401   0.00459   0.00000   0.13397   0.13397   4.46798
    Z2       54.21284   0.00107   0.00000   0.00062   0.00062  54.21346
    X3       18.71502   0.00248   0.00000  -0.03324  -0.03324  18.68177
    Y3        9.86938  -0.00459   0.00000  -0.14667  -0.14667   9.72271
    Z3       55.50163  -0.00107   0.00000   0.02617   0.02617  55.52780
    X4       13.20936   0.00552   0.00000   0.07539   0.07539  13.28475
    Y4        8.83375  -0.00260   0.00000  -0.10469  -0.10469   8.72906
    Z4        1.88215  -0.00320   0.00000  -0.08464  -0.08464   1.79751
    X5        9.55529  -0.00490   0.00000  -0.06763  -0.06763   9.48766
    Y5        5.27500  -0.00499   0.00000  -0.02965  -0.02965   5.24535
    Z5        4.59631   0.00343   0.00000   0.05750   0.05750   4.65380
    X6        4.52176   0.00215   0.00000  -0.00824  -0.00824   4.51351
    Y6        2.56891   0.00181   0.00000   0.12048   0.12048   2.68939
    Z6        7.68608  -0.00135   0.00000   0.00103   0.00103   7.68712
    X7       55.59952  -0.00000   0.00000   0.00016   0.00016  55.59968
    Y7        2.21954  -0.00000   0.00000   0.01603   0.01603   2.23557
    Z7        6.16990  -0.00000   0.00000  -0.00138  -0.00138   6.16852
         Item               Value     Threshold  Converged?
 Maximum Force            0.005780     0.000450     NO 
 RMS     Force            0.003213     0.000300     NO 
 Maximum Displacement     0.146669     0.001800     NO 
 RMS     Displacement     0.065492     0.001200     NO 
 Predicted change in Energy=-1.953846D-03
 GradGradGradGradGradGradGradGradGradGradGradGradGradGradGradGradGradGrad

 Leave Link  103 at Tue Nov 21 11:48:55 2023, MaxMem=   104857600 cpu:               2.9 elap:               1.7
 (Enter /home/sekinelabo/g16/l9999.exe)
 1\1\GINC-SEKINELABO-XA7R-R37\Force\UB3LYP\6-311+G(d)\Na7(2)\SEKINELABO
 \21-Nov-2023\0\\#P B3LYP/6-311+g(d) force\\DPGEN\\0,2\Na,9.05671,0.635
 885,0.148747\Na,11.4873,2.29346,28.6882\Na,9.90356,5.22265,29.3702\Na,
 6.99009,4.67462,0.995993\Na,5.05644,2.79141,2.43226\Na,2.39281,1.35941
 ,4.0673\Na,29.422,1.17453,3.26497\\Version=ES64L-G16RevB.01\State=2-A\
 HF=-1136.0709073\S2=0.750009\S2-1=0.\S2A=0.75\RMSD=8.554e-09\RMSF=3.21
 3e-03\Dipole=0.5279929,0.035834,-0.3366352\Quadrupole=-11.8618826,8.49
 9491,3.3623916,-4.090918,-8.1227307,0.0933937\PG=C01 [X(Na7)]\\@


 DO NOT LET SELFISH MEN OR GREEDY INTERESTS SKIN YOUR COUNTRY OF ITS
 BEAUTY, ITS RICHES, OR ITS ROMANCE. -- THEODORE ROOSEVELT
 Job cpu time:       0 days  0 hours  8 minutes 54.2 seconds.
 Elapsed time:       0 days  0 hours  8 minutes 37.2 seconds.
 File lengths (MBytes):  RWF=     46 Int=      0 D2E=      0 Chk=      4 Scr=      1
 Normal termination of Gaussian 16 at Tue Nov 21 11:48:55 2023.
