 Entering Gaussian System, Link 0=g16
 Initial command:
 /home/sekinelabo/g16/l1.exe "/home/sekinelabo/g16temp/Gau-1046222.inp" -scrdir="/home/sekinelabo/g16temp/"
 Entering Link 1 = /home/sekinelabo/g16/l1.exe PID=   1046255.
  
 Copyright (c) 1988-2017, Gaussian, Inc.  All Rights Reserved.
  
 This is part of the Gaussian(R) 16 program.  It is based on
 the Gaussian(R) 09 system (copyright 2009, Gaussian, Inc.),
 the Gaussian(R) 03 system (copyright 2003, Gaussian, Inc.),
 the Gaussian(R) 98 system (copyright 1998, Gaussian, Inc.),
 the Gaussian(R) 94 system (copyright 1995, Gaussian, Inc.),
 the Gaussian 92(TM) system (copyright 1992, Gaussian, Inc.),
 the Gaussian 90(TM) system (copyright 1990, Gaussian, Inc.),
 the Gaussian 88(TM) system (copyright 1988, Gaussian, Inc.),
 the Gaussian 86(TM) system (copyright 1986, Carnegie Mellon
 University), and the Gaussian 82(TM) system (copyright 1983,
 Carnegie Mellon University). Gaussian is a federally registered
 trademark of Gaussian, Inc.
  
 This software contains proprietary and confidential information,
 including trade secrets, belonging to Gaussian, Inc.
  
 This software is provided under written license and may be
 used, copied, transmitted, or stored only in accord with that
 written license.
  
 The following legend is applicable only to US Government
 contracts under FAR:
  
                    RESTRICTED RIGHTS LEGEND
  
 Use, reproduction and disclosure by the US Government is
 subject to restrictions as set forth in subparagraphs (a)
 and (c) of the Commercial Computer Software - Restricted
 Rights clause in FAR 52.227-19.
  
 Gaussian, Inc.
 340 Quinnipiac St., Bldg. 40, Wallingford CT 06492
  
  
 ---------------------------------------------------------------
 Warning -- This program may not be used in any manner that
 competes with the business of Gaussian, Inc. or will provide
 assistance to any competitor of Gaussian, Inc.  The licensee
 of this program is prohibited from giving any competitor of
 Gaussian, Inc. access to this program.  By using this program,
 the user acknowledges that Gaussian, Inc. is engaged in the
 business of creating and licensing software in the field of
 computational chemistry and represents and warrants to the
 licensee that it is not a competitor of Gaussian, Inc. and that
 it will not use this program in any manner prohibited above.
 ---------------------------------------------------------------
  

 Cite this work as:
 Gaussian 16, Revision B.01,
 M. J. Frisch, G. W. Trucks, H. B. Schlegel, G. E. Scuseria, 
 M. A. Robb, J. R. Cheeseman, G. Scalmani, V. Barone, 
 G. A. Petersson, H. Nakatsuji, X. Li, M. Caricato, A. V. Marenich, 
 J. Bloino, B. G. Janesko, R. Gomperts, B. Mennucci, H. P. Hratchian, 
 J. V. Ortiz, A. F. Izmaylov, J. L. Sonnenberg, D. Williams-Young, 
 F. Ding, F. Lipparini, F. Egidi, J. Goings, B. Peng, A. Petrone, 
 T. Henderson, D. Ranasinghe, V. G. Zakrzewski, J. Gao, N. Rega, 
 G. Zheng, W. Liang, M. Hada, M. Ehara, K. Toyota, R. Fukuda, 
 J. Hasegawa, M. Ishida, T. Nakajima, Y. Honda, O. Kitao, H. Nakai, 
 T. Vreven, K. Throssell, J. A. Montgomery, Jr., J. E. Peralta, 
 F. Ogliaro, M. J. Bearpark, J. J. Heyd, E. N. Brothers, K. N. Kudin, 
 V. N. Staroverov, T. A. Keith, R. Kobayashi, J. Normand, 
 K. Raghavachari, A. P. Rendell, J. C. Burant, S. S. Iyengar, 
 J. Tomasi, M. Cossi, J. M. Millam, M. Klene, C. Adamo, R. Cammi, 
 J. W. Ochterski, R. L. Martin, K. Morokuma, O. Farkas, 
 J. B. Foresman, and D. J. Fox, Gaussian, Inc., Wallingford CT, 2016.
 
 ******************************************
 Gaussian 16:  ES64L-G16RevB.01 20-Dec-2017
                23-Nov-2023 
 ******************************************
 %nprocshared=14
 Will use up to   14 processors via shared memory.
 -------------------------
 #P B3LYP/6-311+g(d) force
 -------------------------
 1/10=7,30=1,38=1/1,3;
 2/12=2,17=6,18=5,40=1/2;
 3/5=4,6=6,7=11,11=2,25=1,30=1,71=1,74=-5/1,2,3;
 4//1;
 5/5=2,38=5/2;
 6/7=2,8=2,9=2,10=2,28=1/1;
 7/29=1/1,2,3,16;
 1/10=7,30=1/3;
 99//99;
 Leave Link    1 at Thu Nov 23 12:30:20 2023, MaxMem=           0 cpu:               0.4 elap:               0.3
 (Enter /home/sekinelabo/g16/l101.exe)
 -----
 DPGEN
 -----
 Symbolic Z-matrix:
 Charge =  0 Multiplicity = 2
 Na                    10.3596   1.57799   98.72 
 Na                    10.6434   3.38753   1.13845 
 Na                    8.80658   0.5584    4.25064 
 Na                    5.94078   1.4246    5.45136 
 Na                    4.71362   2.54073   2.85932 
 Na                    2.12055   3.69785   99.567 
 Na                    1.72448   4.96487   96.981 
 
 ITRead=  0  0  0  0  0  0  0
 MicOpt= -1 -1 -1 -1 -1 -1 -1
 NAtoms=      7 NQM=        7 NQMF=       0 NMMI=      0 NMMIF=      0
                NMic=       0 NMicF=      0.
                    Isotopes and Nuclear Properties:
 (Nuclear quadrupole moments (NQMom) in fm**2, nuclear magnetic moments (NMagM)
  in nuclear magnetons)

  Atom         1           2           3           4           5           6           7
 IAtWgt=          23          23          23          23          23          23          23
 AtmWgt=  22.9897697  22.9897697  22.9897697  22.9897697  22.9897697  22.9897697  22.9897697
 NucSpn=           3           3           3           3           3           3           3
 AtZEff=  -0.0000000  -0.0000000  -0.0000000  -0.0000000  -0.0000000  -0.0000000  -0.0000000
 NQMom=   10.4000000  10.4000000  10.4000000  10.4000000  10.4000000  10.4000000  10.4000000
 NMagM=    2.2175200   2.2175200   2.2175200   2.2175200   2.2175200   2.2175200   2.2175200
 AtZNuc=  11.0000000  11.0000000  11.0000000  11.0000000  11.0000000  11.0000000  11.0000000
 Leave Link  101 at Thu Nov 23 12:30:23 2023, MaxMem=   104857600 cpu:               2.5 elap:               2.9
 (Enter /home/sekinelabo/g16/l103.exe)

 GradGradGradGradGradGradGradGradGradGradGradGradGradGradGradGradGradGrad
 Berny optimization.
 Initialization pass.
 Trust Radius=3.00D-01 FncErr=1.00D-07 GrdErr=1.00D-07 EigMax=2.50D+02 EigMin=1.00D-04
 Number of steps in this run=      2 maximum allowed number of steps=      2.
 GradGradGradGradGradGradGradGradGradGradGradGradGradGradGradGradGradGrad

 Leave Link  103 at Thu Nov 23 12:30:23 2023, MaxMem=   104857600 cpu:               0.5 elap:               0.6
 (Enter /home/sekinelabo/g16/l202.exe)
                          Input orientation:                          
 ---------------------------------------------------------------------
 Center     Atomic      Atomic             Coordinates (Angstroms)
 Number     Number       Type             X           Y           Z
 ---------------------------------------------------------------------
      1         11           0       10.359600    1.577990   98.720000
      2         11           0       10.643400    3.387530    1.138450
      3         11           0        8.806580    0.558396    4.250640
      4         11           0        5.940780    1.424600    5.451360
      5         11           0        4.713620    2.540730    2.859320
      6         11           0        2.120550    3.697850   99.567000
      7         11           0        1.724480    4.964870   96.981000
 ---------------------------------------------------------------------
                    Distance matrix (angstroms):
                    1          2          3          4          5
     1  Na   0.000000
     2  Na  97.598739   0.000000
     3  Na  94.487626   4.589513   0.000000
     4  Na  93.373383   6.675996   3.225655   0.000000
     5  Na  96.031630   6.232235   4.755811   3.077392   0.000000
     6  Na   8.549454  98.797342  95.602132  94.220568  96.749358
     7  Na   9.437180  96.269567  93.104741  91.695069  94.200329
                    6          7
     6  Na   0.000000
     7  Na   2.906821   0.000000
 Stoichiometry    Na7(2)
 Framework group  C1[X(Na7)]
 Deg. of freedom    15
 Full point group                 C1      NOp   1
 Largest Abelian subgroup         C1      NOp   1
 Largest concise Abelian subgroup C1      NOp   1
                         Standard orientation:                         
 ---------------------------------------------------------------------
 Center     Atomic      Atomic             Coordinates (Angstroms)
 Number     Number       Type             X           Y           Z
 ---------------------------------------------------------------------
      1         11           0       54.416864    5.914698   -0.507706
      2         11           0      -43.093036    2.638524    2.061363
      3         11           0      -39.969132    1.577770   -1.129196
      4         11           0      -38.671068   -1.368561   -0.931695
      5         11           0      -41.208840   -2.896094   -0.097010
      6         11           0       55.539751   -2.557668   -0.281233
      7         11           0       52.985462   -3.308669    0.885477
 ---------------------------------------------------------------------
 Rotational constants (GHZ):           0.2757955           0.0014174           0.0014115
 Leave Link  202 at Thu Nov 23 12:30:24 2023, MaxMem=   104857600 cpu:               0.9 elap:               1.0
 (Enter /home/sekinelabo/g16/l301.exe)
 Standard basis: 6-311+G(d) (5D, 7F)
 Ernie: Thresh=  0.10000D-02 Tol=  0.10000D-05 Strict=F.
 There are   217 symmetry adapted cartesian basis functions of A   symmetry.
 There are   210 symmetry adapted basis functions of A   symmetry.
   210 basis functions,   350 primitive gaussians,   217 cartesian basis functions
    39 alpha electrons       38 beta electrons
       nuclear repulsion energy       132.3157378381 Hartrees.
 IExCor=  402 DFT=T Ex+Corr=B3LYP ExCW=0 ScaHFX=  0.200000
 ScaDFX=  0.800000  0.720000  1.000000  0.810000 ScalE2=  1.000000  1.000000
 IRadAn=      5 IRanWt=     -1 IRanGd=            0 ICorTp=0 IEmpDi=  4
 NAtoms=    7 NActive=    7 NUniq=    7 SFac= 1.00D+00 NAtFMM=   60 NAOKFM=F Big=F
 Integral buffers will be    131072 words long.
 Raffenetti 2 integral format.
 Two-electron integral symmetry is turned on.
 Leave Link  301 at Thu Nov 23 12:30:25 2023, MaxMem=   104857600 cpu:               0.7 elap:               0.9
 (Enter /home/sekinelabo/g16/l302.exe)
 NPDir=0 NMtPBC=     1 NCelOv=     1 NCel=       1 NClECP=     1 NCelD=      1
         NCelK=      1 NCelE2=     1 NClLst=     1 CellRange=     0.0.
 One-electron integrals computed using PRISM.
 One-electron integral symmetry used in STVInt
 NBasis=   210 RedAO= T EigKep=  8.55D-05  NBF=   210
 NBsUse=   210 1.00D-06 EigRej= -1.00D+00 NBFU=   210
 Precomputing XC quadrature grid using
 IXCGrd= 4 IRadAn=           5 IRanWt=          -1 IRanGd=           0 AccXCQ= 0.00D+00.
 Generated NRdTot=       0 NPtTot=           0 NUsed=           0 NTot=          32
 NSgBfM=   116   116   116   116   116 MxSgAt=     7 MxSgA2=     4.
 Leave Link  302 at Thu Nov 23 12:31:02 2023, MaxMem=   104857600 cpu:              29.7 elap:              36.5
 (Enter /home/sekinelabo/g16/l303.exe)
 DipDrv:  MaxL=1.
 Leave Link  303 at Thu Nov 23 12:31:05 2023, MaxMem=   104857600 cpu:               2.4 elap:               3.0
 (Enter /home/sekinelabo/g16/l401.exe)
 ExpMin= 7.60D-03 ExpMax= 3.62D+04 ExpMxC= 1.21D+03 IAcc=3 IRadAn=         5 AccDes= 0.00D+00
 Harris functional with IExCor=  402 and IRadAn=       5 diagonalized for initial guess.
 HarFok:  IExCor=  402 AccDes= 0.00D+00 IRadAn=         5 IDoV= 1 UseB2=F ITyADJ=14
 ICtDFT=  3500011 ScaDFX=  1.000000  1.000000  1.000000  1.000000
 FoFCou: FMM=F IPFlag=           0 FMFlag=      100000 FMFlg1=           0
         NFxFlg=           0 DoJE=T BraDBF=F KetDBF=T FulRan=T
         wScrn=  0.000000 ICntrl=       500 IOpCl=  0 I1Cent=   200000004 NGrid=           0
         NMat0=    1 NMatS0=      1 NMatT0=    0 NMatD0=    1 NMtDS0=    0 NMtDT0=    0
 Petite list used in FoFCou.
 Harris En= -1135.84242256082    
 JPrj=0 DoOrth=F DoCkMO=F.
 Initial guess <Sx>= 0.0000 <Sy>= 0.0000 <Sz>= 0.5000 <S**2>= 0.7500 S= 0.5000
 Leave Link  401 at Thu Nov 23 12:31:25 2023, MaxMem=   104857600 cpu:              16.0 elap:              19.5
 (Enter /home/sekinelabo/g16/l502.exe)
 Integral symmetry usage will be decided dynamically.
 UHF open shell SCF:
 Using DIIS extrapolation, IDIIS=  1040.
 NGot=   104857600 LenX=   104758426 LenY=   104710896
 Requested convergence on RMS density matrix=1.00D-08 within 128 cycles.
 Requested convergence on MAX density matrix=1.00D-06.
 Requested convergence on             energy=1.00D-06.
 No special actions if energy rises.
 Fock matrices will be formed incrementally for  20 cycles.

 Cycle   1  Pass 1  IDiag  1:
 FoFJK:  IHMeth= 1 ICntrl=       0 DoSepK=F KAlg= 0 I1Cent=           0 FoldK=F
 IRaf= 450000000 NMat=       1 IRICut=       1 DoRegI=T DoRafI=F ISym2E= 0 IDoP0=0 IntGTp=1.
 FoFCou: FMM=F IPFlag=           0 FMFlag=      100000 FMFlg1=           0
         NFxFlg=           0 DoJE=F BraDBF=F KetDBF=F FulRan=T
         wScrn=  0.000000 ICntrl=         0 IOpCl=  1 I1Cent=           0 NGrid=           0
         NMat0=    1 NMatS0=      1 NMatT0=    0 NMatD0=    1 NMtDS0=    0 NMtDT0=    0
 Symmetry not used in FoFCou.
 E= -1136.04824758851    
 DIIS: error= 1.58D-02 at cycle   1 NSaved=   1.
 NSaved= 1 IEnMin= 1 EnMin= -1136.04824758851     IErMin= 1 ErrMin= 1.58D-02
 ErrMax= 1.58D-02  0.00D+00 EMaxC= 1.00D-01 BMatC= 1.83D-01 BMatP= 1.83D-01
 IDIUse=3 WtCom= 8.42D-01 WtEn= 1.58D-01
 Coeff-Com:  0.100D+01
 Coeff-En:   0.100D+01
 Coeff:      0.100D+01
 Gap=     0.055 Goal=   None    Shift=    0.000
 Gap=     0.031 Goal=   None    Shift=    0.000
 GapD=    0.031 DampG=0.250 DampE=0.500 DampFc=0.2500 IDamp=-1.
 Damping current iteration by 2.50D-01
 RMSDP=1.94D-03 MaxDP=1.52D-01              OVMax= 2.37D-01

 Cycle   2  Pass 1  IDiag  1:
 RMSU=  4.85D-04    CP:  9.99D-01
 E= -1136.05548703324     Delta-E=       -0.007239444737 Rises=F Damp=T
 DIIS: error= 1.13D-02 at cycle   2 NSaved=   2.
 NSaved= 2 IEnMin= 2 EnMin= -1136.05548703324     IErMin= 2 ErrMin= 1.13D-02
 ErrMax= 1.13D-02  0.00D+00 EMaxC= 1.00D-01 BMatC= 7.10D-02 BMatP= 1.83D-01
 IDIUse=3 WtCom= 8.87D-01 WtEn= 1.13D-01
 Coeff-Com: -0.129D+01 0.229D+01
 Coeff-En:   0.000D+00 0.100D+01
 Coeff:     -0.114D+01 0.214D+01
 Gap=     0.028 Goal=   None    Shift=    0.000
 Gap=     0.028 Goal=   None    Shift=    0.000
 RMSDP=1.70D-03 MaxDP=9.16D-02 DE=-7.24D-03 OVMax= 3.62D-01

 Cycle   3  Pass 1  IDiag  1:
 RMSU=  1.68D-03    CP:  9.91D-01  1.39D+00
 E= -1136.05843826906     Delta-E=       -0.002951235818 Rises=F Damp=F
 DIIS: error= 3.39D-03 at cycle   3 NSaved=   3.
 NSaved= 3 IEnMin= 3 EnMin= -1136.05843826906     IErMin= 3 ErrMin= 3.39D-03
 ErrMax= 3.39D-03  0.00D+00 EMaxC= 1.00D-01 BMatC= 6.07D-03 BMatP= 7.10D-02
 IDIUse=3 WtCom= 9.66D-01 WtEn= 3.39D-02
 Coeff-Com: -0.350D+00 0.626D+00 0.724D+00
 Coeff-En:   0.000D+00 0.387D+00 0.613D+00
 Coeff:     -0.338D+00 0.618D+00 0.721D+00
 Gap=     0.014 Goal=   None    Shift=    0.000
 Gap=     0.014 Goal=   None    Shift=    0.000
 RMSDP=3.18D-03 MaxDP=2.94D-01 DE=-2.95D-03 OVMax= 6.03D-01

 Cycle   4  Pass 1  IDiag  1:
 RMSU=  1.60D-03    CP:  9.90D-01  3.00D+00 -3.58D-01
 E= -1136.01849118995     Delta-E=        0.039947079109 Rises=F Damp=F
 DIIS: error= 9.92D-03 at cycle   4 NSaved=   4.
 NSaved= 4 IEnMin= 3 EnMin= -1136.05843826906     IErMin= 3 ErrMin= 3.39D-03
 ErrMax= 9.92D-03  0.00D+00 EMaxC= 1.00D-01 BMatC= 2.08D-02 BMatP= 6.07D-03
 IDIUse=3 WtCom= 9.12D-02 WtEn= 9.09D-01
 Coeff-Com: -0.152D-01 0.487D-01 0.643D+00 0.324D+00
 Coeff-En:   0.000D+00 0.000D+00 0.723D+00 0.277D+00
 Coeff:     -0.139D-02 0.445D-02 0.716D+00 0.281D+00
 Gap=     0.024 Goal=   None    Shift=    0.000
 Gap=     0.024 Goal=   None    Shift=    0.000
 RMSDP=1.66D-03 MaxDP=1.12D-01 DE= 3.99D-02 OVMax= 3.16D-01

 Cycle   5  Pass 1  IDiag  1:
 RMSU=  4.64D-04    CP:  9.92D-01  3.00D+00  2.35D-01  2.22D-01
 E= -1136.06686065133     Delta-E=       -0.048369461379 Rises=F Damp=F
 DIIS: error= 2.35D-03 at cycle   5 NSaved=   5.
 NSaved= 5 IEnMin= 5 EnMin= -1136.06686065133     IErMin= 5 ErrMin= 2.35D-03
 ErrMax= 2.35D-03  0.00D+00 EMaxC= 1.00D-01 BMatC= 2.00D-03 BMatP= 6.07D-03
 IDIUse=3 WtCom= 9.76D-01 WtEn= 2.35D-02
 Coeff-Com: -0.503D-02 0.775D-02 0.339D+00-0.323D-01 0.690D+00
 Coeff-En:   0.000D+00 0.000D+00 0.326D+00 0.000D+00 0.674D+00
 Coeff:     -0.492D-02 0.756D-02 0.339D+00-0.315D-01 0.690D+00
 Gap=     0.027 Goal=   None    Shift=    0.000
 Gap=     0.027 Goal=   None    Shift=    0.000
 RMSDP=6.11D-04 MaxDP=5.55D-02 DE=-4.84D-02 OVMax= 1.17D-01

 Cycle   6  Pass 1  IDiag  1:
 RMSU=  1.41D-04    CP:  9.92D-01  2.68D+00  5.04D-01  6.23D-02  7.90D-01
 E= -1136.07111992946     Delta-E=       -0.004259278132 Rises=F Damp=F
 DIIS: error= 2.12D-04 at cycle   6 NSaved=   6.
 NSaved= 6 IEnMin= 6 EnMin= -1136.07111992946     IErMin= 6 ErrMin= 2.12D-04
 ErrMax= 2.12D-04  0.00D+00 EMaxC= 1.00D-01 BMatC= 1.69D-05 BMatP= 2.00D-03
 IDIUse=3 WtCom= 9.98D-01 WtEn= 2.12D-03
 Coeff-Com: -0.375D-02 0.474D-02 0.640D-01-0.267D-01 0.165D+00 0.797D+00
 Coeff-En:   0.000D+00 0.000D+00 0.000D+00 0.000D+00 0.000D+00 0.100D+01
 Coeff:     -0.374D-02 0.473D-02 0.638D-01-0.266D-01 0.165D+00 0.797D+00
 Gap=     0.029 Goal=   None    Shift=    0.000
 Gap=     0.029 Goal=   None    Shift=    0.000
 RMSDP=7.67D-05 MaxDP=5.37D-03 DE=-4.26D-03 OVMax= 7.53D-03

 Cycle   7  Pass 1  IDiag  1:
 RMSU=  6.93D-05    CP:  9.92D-01  2.70D+00  5.07D-01  6.81D-02  8.38D-01
                    CP:  8.64D-01
 E= -1136.07113832632     Delta-E=       -0.000018396856 Rises=F Damp=F
 DIIS: error= 1.20D-04 at cycle   7 NSaved=   7.
 NSaved= 7 IEnMin= 7 EnMin= -1136.07113832632     IErMin= 7 ErrMin= 1.20D-04
 ErrMax= 1.20D-04  0.00D+00 EMaxC= 1.00D-01 BMatC= 6.57D-06 BMatP= 1.69D-05
 IDIUse=3 WtCom= 9.99D-01 WtEn= 1.20D-03
 Coeff-Com: -0.134D-02 0.173D-02 0.155D-01-0.122D-01 0.336D-01 0.380D+00
 Coeff-Com:  0.583D+00
 Coeff-En:   0.000D+00 0.000D+00 0.000D+00 0.000D+00 0.000D+00 0.000D+00
 Coeff-En:   0.100D+01
 Coeff:     -0.134D-02 0.173D-02 0.155D-01-0.121D-01 0.336D-01 0.379D+00
 Coeff:      0.583D+00
 Gap=     0.029 Goal=   None    Shift=    0.000
 Gap=     0.029 Goal=   None    Shift=    0.000
 RMSDP=2.08D-05 MaxDP=1.77D-03 DE=-1.84D-05 OVMax= 2.85D-03

 Cycle   8  Pass 1  IDiag  1:
 RMSU=  1.75D-05    CP:  9.92D-01  2.72D+00  5.08D-01  6.71D-02  8.35D-01
                    CP:  9.00D-01  8.86D-01
 E= -1136.07114178105     Delta-E=       -0.000003454733 Rises=F Damp=F
 DIIS: error= 5.64D-05 at cycle   8 NSaved=   8.
 NSaved= 8 IEnMin= 8 EnMin= -1136.07114178105     IErMin= 8 ErrMin= 5.64D-05
 ErrMax= 5.64D-05  0.00D+00 EMaxC= 1.00D-01 BMatC= 1.09D-06 BMatP= 6.57D-06
 IDIUse=1 WtCom= 1.00D+00 WtEn= 0.00D+00
 Coeff-Com:  0.429D-03-0.582D-03 0.577D-02-0.359D-02-0.291D-02 0.104D+00
 Coeff-Com:  0.203D+00 0.694D+00
 Coeff:      0.429D-03-0.582D-03 0.577D-02-0.359D-02-0.291D-02 0.104D+00
 Coeff:      0.203D+00 0.694D+00
 Gap=     0.029 Goal=   None    Shift=    0.000
 Gap=     0.029 Goal=   None    Shift=    0.000
 RMSDP=1.47D-05 MaxDP=1.34D-03 DE=-3.45D-06 OVMax= 2.39D-03

 Cycle   9  Pass 1  IDiag  1:
 RMSU=  6.18D-06    CP:  9.92D-01  2.70D+00  5.13D-01  6.72D-02  8.34D-01
                    CP:  9.13D-01  9.07D-01  6.52D-01
 E= -1136.07114371328     Delta-E=       -0.000001932225 Rises=F Damp=F
 DIIS: error= 2.43D-05 at cycle   9 NSaved=   9.
 NSaved= 9 IEnMin= 9 EnMin= -1136.07114371328     IErMin= 9 ErrMin= 2.43D-05
 ErrMax= 2.43D-05  0.00D+00 EMaxC= 1.00D-01 BMatC= 1.87D-07 BMatP= 1.09D-06
 IDIUse=1 WtCom= 1.00D+00 WtEn= 0.00D+00
 Coeff-Com:  0.555D-03-0.728D-03 0.181D-02-0.838D-03-0.758D-02 0.933D-02
 Coeff-Com:  0.343D-01 0.398D+00 0.565D+00
 Coeff:      0.555D-03-0.728D-03 0.181D-02-0.838D-03-0.758D-02 0.933D-02
 Coeff:      0.343D-01 0.398D+00 0.565D+00
 Gap=     0.029 Goal=   None    Shift=    0.000
 Gap=     0.029 Goal=   None    Shift=    0.000
 RMSDP=4.73D-06 MaxDP=3.90D-04 DE=-1.93D-06 OVMax= 7.23D-04

 Cycle  10  Pass 1  IDiag  1:
 RMSU=  1.72D-06    CP:  9.92D-01  2.69D+00  5.14D-01  6.64D-02  8.32D-01
                    CP:  9.16D-01  8.99D-01  8.06D-01  9.66D-01
 E= -1136.07114400646     Delta-E=       -0.000000293185 Rises=F Damp=F
 DIIS: error= 2.83D-06 at cycle  10 NSaved=  10.
 NSaved=10 IEnMin=10 EnMin= -1136.07114400646     IErMin=10 ErrMin= 2.83D-06
 ErrMax= 2.83D-06  0.00D+00 EMaxC= 1.00D-01 BMatC= 3.53D-09 BMatP= 1.87D-07
 IDIUse=1 WtCom= 1.00D+00 WtEn= 0.00D+00
 Coeff-Com:  0.160D-03-0.217D-03-0.256D-03 0.180D-03-0.274D-02-0.109D-01
 Coeff-Com: -0.688D-02 0.496D-01 0.797D-01 0.891D+00
 Coeff:      0.160D-03-0.217D-03-0.256D-03 0.180D-03-0.274D-02-0.109D-01
 Coeff:     -0.688D-02 0.496D-01 0.797D-01 0.891D+00
 Gap=     0.029 Goal=   None    Shift=    0.000
 Gap=     0.029 Goal=   None    Shift=    0.000
 RMSDP=1.32D-06 MaxDP=4.45D-05 DE=-2.93D-07 OVMax= 2.14D-04

 Cycle  11  Pass 1  IDiag  1:
 RMSU=  3.94D-07    CP:  9.92D-01  2.69D+00  5.15D-01  6.63D-02  8.31D-01
                    CP:  9.16D-01  9.05D-01  8.20D-01  9.98D-01  1.55D+00
 E= -1136.07114401358     Delta-E=       -0.000000007116 Rises=F Damp=F
 DIIS: error= 9.29D-07 at cycle  11 NSaved=  11.
 NSaved=11 IEnMin=11 EnMin= -1136.07114401358     IErMin=11 ErrMin= 9.29D-07
 ErrMax= 9.29D-07  0.00D+00 EMaxC= 1.00D-01 BMatC= 3.51D-10 BMatP= 3.53D-09
 IDIUse=1 WtCom= 1.00D+00 WtEn= 0.00D+00
 Coeff-Com: -0.504D-04 0.666D-04-0.263D-03 0.711D-04 0.819D-05 0.127D-02
 Coeff-Com:  0.203D-02-0.765D-02-0.191D-01-0.123D+00 0.115D+01
 Coeff:     -0.504D-04 0.666D-04-0.263D-03 0.711D-04 0.819D-05 0.127D-02
 Coeff:      0.203D-02-0.765D-02-0.191D-01-0.123D+00 0.115D+01
 Gap=     0.029 Goal=   None    Shift=    0.000
 Gap=     0.029 Goal=   None    Shift=    0.000
 RMSDP=3.67D-07 MaxDP=1.37D-05 DE=-7.12D-09 OVMax= 4.13D-05

 Cycle  12  Pass 1  IDiag  1:
 RMSU=  9.45D-08    CP:  9.92D-01  2.69D+00  5.15D-01  6.62D-02  8.31D-01
                    CP:  9.16D-01  9.05D-01  8.22D-01  1.02D+00  1.69D+00
                    CP:  1.41D+00
 E= -1136.07114401399     Delta-E=       -0.000000000411 Rises=F Damp=F
 DIIS: error= 6.27D-07 at cycle  12 NSaved=  12.
 NSaved=12 IEnMin=12 EnMin= -1136.07114401399     IErMin=12 ErrMin= 6.27D-07
 ErrMax= 6.27D-07  0.00D+00 EMaxC= 1.00D-01 BMatC= 1.65D-10 BMatP= 3.51D-10
 IDIUse=1 WtCom= 1.00D+00 WtEn= 0.00D+00
 Coeff-Com: -0.210D-04 0.279D-04-0.898D-04 0.138D-04 0.126D-03 0.890D-03
 Coeff-Com:  0.938D-03 0.726D-03-0.171D-03-0.937D-01 0.183D+00 0.908D+00
 Coeff:     -0.210D-04 0.279D-04-0.898D-04 0.138D-04 0.126D-03 0.890D-03
 Coeff:      0.938D-03 0.726D-03-0.171D-03-0.937D-01 0.183D+00 0.908D+00
 Gap=     0.029 Goal=   None    Shift=    0.000
 Gap=     0.029 Goal=   None    Shift=    0.000
 RMSDP=1.38D-07 MaxDP=1.19D-05 DE=-4.11D-10 OVMax= 2.02D-05

 Cycle  13  Pass 1  IDiag  1:
 RMSU=  5.10D-08    CP:  9.92D-01  2.69D+00  5.15D-01  6.62D-02  8.31D-01
                    CP:  9.16D-01  9.05D-01  8.22D-01  1.02D+00  1.71D+00
                    CP:  1.46D+00  1.18D+00
 E= -1136.07114401427     Delta-E=       -0.000000000284 Rises=F Damp=F
 DIIS: error= 2.49D-07 at cycle  13 NSaved=  13.
 NSaved=13 IEnMin=13 EnMin= -1136.07114401427     IErMin=13 ErrMin= 2.49D-07
 ErrMax= 2.49D-07  0.00D+00 EMaxC= 1.00D-01 BMatC= 1.80D-11 BMatP= 1.65D-10
 IDIUse=1 WtCom= 1.00D+00 WtEn= 0.00D+00
 Coeff-Com: -0.303D-05 0.403D-05-0.173D-04 0.834D-06 0.509D-04 0.705D-04
 Coeff-Com: -0.110D-03 0.144D-02 0.140D-02-0.140D-01-0.588D-01 0.173D+00
 Coeff-Com:  0.897D+00
 Coeff:     -0.303D-05 0.403D-05-0.173D-04 0.834D-06 0.509D-04 0.705D-04
 Coeff:     -0.110D-03 0.144D-02 0.140D-02-0.140D-01-0.588D-01 0.173D+00
 Coeff:      0.897D+00
 Gap=     0.029 Goal=   None    Shift=    0.000
 Gap=     0.029 Goal=   None    Shift=    0.000
 RMSDP=6.26D-08 MaxDP=5.73D-06 DE=-2.84D-10 OVMax= 9.66D-06

 Cycle  14  Pass 1  IDiag  1:
 RMSU=  1.40D-08    CP:  9.92D-01  2.69D+00  5.15D-01  6.62D-02  8.31D-01
                    CP:  9.16D-01  9.05D-01  8.23D-01  1.02D+00  1.71D+00
                    CP:  1.49D+00  1.31D+00  1.24D+00
 E= -1136.07114401431     Delta-E=       -0.000000000041 Rises=F Damp=F
 DIIS: error= 3.83D-08 at cycle  14 NSaved=  14.
 NSaved=14 IEnMin=14 EnMin= -1136.07114401431     IErMin=14 ErrMin= 3.83D-08
 ErrMax= 3.83D-08  0.00D+00 EMaxC= 1.00D-01 BMatC= 5.00D-13 BMatP= 1.80D-11
 IDIUse=1 WtCom= 1.00D+00 WtEn= 0.00D+00
 Coeff-Com:  0.122D-05-0.162D-05 0.483D-05-0.682D-06-0.521D-05-0.110D-03
 Coeff-Com: -0.772D-04-0.274D-03 0.287D-03 0.863D-02-0.151D-01-0.924D-01
 Coeff-Com:  0.892D-03 0.110D+01
 Coeff:      0.122D-05-0.162D-05 0.483D-05-0.682D-06-0.521D-05-0.110D-03
 Coeff:     -0.772D-04-0.274D-03 0.287D-03 0.863D-02-0.151D-01-0.924D-01
 Coeff:      0.892D-03 0.110D+01
 Gap=     0.029 Goal=   None    Shift=    0.000
 Gap=     0.029 Goal=   None    Shift=    0.000
 RMSDP=2.00D-08 MaxDP=1.69D-06 DE=-4.07D-11 OVMax= 2.61D-06

 Cycle  15  Pass 1  IDiag  1:
 RMSU=  5.54D-09    CP:  9.92D-01  2.69D+00  5.15D-01  6.62D-02  8.31D-01
                    CP:  9.16D-01  9.05D-01  8.22D-01  1.02D+00  1.71D+00
                    CP:  1.49D+00  1.37D+00  1.40D+00  1.74D+00
 E= -1136.07114401431     Delta-E=       -0.000000000002 Rises=F Damp=F
 DIIS: error= 2.30D-08 at cycle  15 NSaved=  15.
 NSaved=15 IEnMin=15 EnMin= -1136.07114401431     IErMin=15 ErrMin= 2.30D-08
 ErrMax= 2.30D-08  0.00D+00 EMaxC= 1.00D-01 BMatC= 1.16D-13 BMatP= 5.00D-13
 IDIUse=1 WtCom= 1.00D+00 WtEn= 0.00D+00
 Coeff-Com:  0.887D-06-0.118D-05 0.552D-05-0.486D-06-0.120D-04-0.302D-04
 Coeff-Com:  0.137D-04-0.340D-03-0.455D-03 0.460D-02 0.111D-01-0.482D-01
 Coeff-Com: -0.185D+00 0.166D+00 0.105D+01
 Coeff:      0.887D-06-0.118D-05 0.552D-05-0.486D-06-0.120D-04-0.302D-04
 Coeff:      0.137D-04-0.340D-03-0.455D-03 0.460D-02 0.111D-01-0.482D-01
 Coeff:     -0.185D+00 0.166D+00 0.105D+01
 Gap=     0.029 Goal=   None    Shift=    0.000
 Gap=     0.029 Goal=   None    Shift=    0.000
 RMSDP=1.04D-08 MaxDP=1.16D-06 DE=-1.82D-12 OVMax= 1.81D-06

 Cycle  16  Pass 1  IDiag  1:
 RMSU=  1.56D-09    CP:  9.92D-01  2.69D+00  5.15D-01  6.62D-02  8.31D-01
                    CP:  9.16D-01  9.05D-01  8.23D-01  1.02D+00  1.71D+00
                    CP:  1.49D+00  1.40D+00  1.49D+00  2.20D+00  2.00D+00
 E= -1136.07114401432     Delta-E=       -0.000000000003 Rises=F Damp=F
 DIIS: error= 1.19D-08 at cycle  16 NSaved=  16.
 NSaved=16 IEnMin=16 EnMin= -1136.07114401432     IErMin=16 ErrMin= 1.19D-08
 ErrMax= 1.19D-08  0.00D+00 EMaxC= 1.00D-01 BMatC= 4.62D-14 BMatP= 1.16D-13
 IDIUse=1 WtCom= 1.00D+00 WtEn= 0.00D+00
 Coeff-Com:  0.516D-07-0.697D-07 0.240D-06-0.838D-07-0.826D-06 0.368D-04
 Coeff-Com:  0.127D-04 0.122D-03 0.120D-04-0.232D-02 0.999D-03 0.293D-01
 Coeff-Com:  0.251D-01-0.415D+00-0.115D+00 0.148D+01
 Coeff:      0.516D-07-0.697D-07 0.240D-06-0.838D-07-0.826D-06 0.368D-04
 Coeff:      0.127D-04 0.122D-03 0.120D-04-0.232D-02 0.999D-03 0.293D-01
 Coeff:      0.251D-01-0.415D+00-0.115D+00 0.148D+01
 Gap=     0.029 Goal=   None    Shift=    0.000
 Gap=     0.029 Goal=   None    Shift=    0.000
 RMSDP=9.53D-09 MaxDP=1.07D-06 DE=-3.18D-12 OVMax= 1.64D-06

 Cycle  17  Pass 1  IDiag  1:
 RMSU=  9.66D-10    CP:  9.92D-01  2.69D+00  5.15D-01  6.62D-02  8.31D-01
                    CP:  9.16D-01  9.05D-01  8.23D-01  1.02D+00  1.71D+00
                    CP:  1.49D+00  1.42D+00  1.55D+00  2.63D+00  3.00D+00
                    CP:  2.24D+00
 E= -1136.07114401431     Delta-E=        0.000000000005 Rises=F Damp=F
 DIIS: error= 2.13D-09 at cycle  17 NSaved=  17.
 NSaved=17 IEnMin=16 EnMin= -1136.07114401432     IErMin=17 ErrMin= 2.13D-09
 ErrMax= 2.13D-09  0.00D+00 EMaxC= 1.00D-01 BMatC= 9.99D-16 BMatP= 4.62D-14
 IDIUse=1 WtCom= 1.00D+00 WtEn= 0.00D+00
 Large coefficients: NSaved= 17 BigCof=    0.00 CofMax=   10.00 Det=-1.61D-15
 Inversion failed.  Reducing to 16 matrices.
 Large coefficients: NSaved= 16 BigCof=    0.00 CofMax=   10.00 Det=-1.61D-15
 Inversion failed.  Reducing to 15 matrices.
 Coeff-Com: -0.348D-08-0.124D-06 0.441D-06 0.337D-05-0.155D-05 0.168D-04
 Coeff-Com: -0.883D-06-0.263D-03-0.889D-03 0.347D-02 0.121D-01-0.421D-01
 Coeff-Com: -0.667D-01 0.962D-01 0.998D+00
 Coeff:     -0.348D-08-0.124D-06 0.441D-06 0.337D-05-0.155D-05 0.168D-04
 Coeff:     -0.883D-06-0.263D-03-0.889D-03 0.347D-02 0.121D-01-0.421D-01
 Coeff:     -0.667D-01 0.962D-01 0.998D+00
 Gap=     0.029 Goal=   None    Shift=    0.000
 Gap=     0.029 Goal=   None    Shift=    0.000
 RMSDP=1.36D-09 MaxDP=1.58D-07 DE= 4.55D-12 OVMax= 2.39D-07

 SCF Done:  E(UB3LYP) =  -1136.07114401     A.U. after   17 cycles
            NFock= 17  Conv=0.14D-08     -V/T= 2.0029
 <Sx>= 0.0000 <Sy>= 0.0000 <Sz>= 0.5000 <S**2>= 0.7500 S= 0.5000
 <L.S>= 0.000000000000E+00
 KE= 1.132837731813D+03 PE=-2.993270539607D+03 EE= 5.920459259418D+02
 Annihilation of the first spin contaminant:
 S**2 before annihilation     0.7500,   after     0.7500
 Leave Link  502 at Thu Nov 23 12:40:40 2023, MaxMem=   104857600 cpu:             449.3 elap:             555.4
 (Enter /home/sekinelabo/g16/l601.exe)
 Copying SCF densities to generalized density rwf, IOpCl= 1 IROHF=0.

 **********************************************************************

            Population analysis using the SCF Density.

 **********************************************************************

 Orbital symmetries:
 Alpha Orbitals:
       Occupied  (A) (A) (A) (A) (A) (A) (A) (A) (A) (A) (A) (A)
                 (A) (A) (A) (A) (A) (A) (A) (A) (A) (A) (A) (A)
                 (A) (A) (A) (A) (A) (A) (A) (A) (A) (A) (A) (A)
                 (A) (A) (A)
       Virtual   (A) (A) (A) (A) (A) (A) (A) (A) (A) (A) (A) (A)
                 (A) (A) (A) (A) (A) (A) (A) (A) (A) (A) (A) (A)
                 (A) (A) (A) (A) (A) (A) (A) (A) (A) (A) (A) (A)
                 (A) (A) (A) (A) (A) (A) (A) (A) (A) (A) (A) (A)
                 (A) (A) (A) (A) (A) (A) (A) (A) (A) (A) (A) (A)
                 (A) (A) (A) (A) (A) (A) (A) (A) (A) (A) (A) (A)
                 (A) (A) (A) (A) (A) (A) (A) (A) (A) (A) (A) (A)
                 (A) (A) (A) (A) (A) (A) (A) (A) (A) (A) (A) (A)
                 (A) (A) (A) (A) (A) (A) (A) (A) (A) (A) (A) (A)
                 (A) (A) (A) (A) (A) (A) (A) (A) (A) (A) (A) (A)
                 (A) (A) (A) (A) (A) (A) (A) (A) (A) (A) (A) (A)
                 (A) (A) (A) (A) (A) (A) (A) (A) (A) (A) (A) (A)
                 (A) (A) (A) (A) (A) (A) (A) (A) (A) (A) (A) (A)
                 (A) (A) (A) (A) (A) (A) (A) (A) (A) (A) (A) (A)
                 (A) (A) (A)
 Beta  Orbitals:
       Occupied  (A) (A) (A) (A) (A) (A) (A) (A) (A) (A) (A) (A)
                 (A) (A) (A) (A) (A) (A) (A) (A) (A) (A) (A) (A)
                 (A) (A) (A) (A) (A) (A) (A) (A) (A) (A) (A) (A)
                 (A) (A)
       Virtual   (A) (A) (A) (A) (A) (A) (A) (A) (A) (A) (A) (A)
                 (A) (A) (A) (A) (A) (A) (A) (A) (A) (A) (A) (A)
                 (A) (A) (A) (A) (A) (A) (A) (A) (A) (A) (A) (A)
                 (A) (A) (A) (A) (A) (A) (A) (A) (A) (A) (A) (A)
                 (A) (A) (A) (A) (A) (A) (A) (A) (A) (A) (A) (A)
                 (A) (A) (A) (A) (A) (A) (A) (A) (A) (A) (A) (A)
                 (A) (A) (A) (A) (A) (A) (A) (A) (A) (A) (A) (A)
                 (A) (A) (A) (A) (A) (A) (A) (A) (A) (A) (A) (A)
                 (A) (A) (A) (A) (A) (A) (A) (A) (A) (A) (A) (A)
                 (A) (A) (A) (A) (A) (A) (A) (A) (A) (A) (A) (A)
                 (A) (A) (A) (A) (A) (A) (A) (A) (A) (A) (A) (A)
                 (A) (A) (A) (A) (A) (A) (A) (A) (A) (A) (A) (A)
                 (A) (A) (A) (A) (A) (A) (A) (A) (A) (A) (A) (A)
                 (A) (A) (A) (A) (A) (A) (A) (A) (A) (A) (A) (A)
                 (A) (A) (A) (A)
 The electronic state is 2-A.
 Alpha  occ. eigenvalues --  -38.45712 -38.45417 -38.45048 -38.44623 -38.44577
 Alpha  occ. eigenvalues --  -38.44169 -38.44168  -2.21498  -2.21193  -2.20791
 Alpha  occ. eigenvalues --   -2.20422  -2.20317  -2.19988  -2.19967  -1.15110
 Alpha  occ. eigenvalues --   -1.15109  -1.15109  -1.14872  -1.14852  -1.14841
 Alpha  occ. eigenvalues --   -1.14486  -1.14461  -1.14428  -1.14078  -1.14074
 Alpha  occ. eigenvalues --   -1.14065  -1.14001  -1.13995  -1.13950  -1.13838
 Alpha  occ. eigenvalues --   -1.13641  -1.13641  -1.13599  -1.13599  -1.13500
 Alpha  occ. eigenvalues --   -0.15048  -0.13228  -0.12736  -0.10813
 Alpha virt. eigenvalues --   -0.07937  -0.05370  -0.05038  -0.03306  -0.02756
 Alpha virt. eigenvalues --   -0.02592  -0.02447  -0.02059  -0.01996  -0.01963
 Alpha virt. eigenvalues --   -0.01681  -0.01219  -0.00862  -0.00739  -0.00480
 Alpha virt. eigenvalues --   -0.00003   0.00294   0.00394   0.00467   0.00691
 Alpha virt. eigenvalues --    0.00700   0.00795   0.00881   0.00899   0.01048
 Alpha virt. eigenvalues --    0.01073   0.01241   0.01254   0.01562   0.01572
 Alpha virt. eigenvalues --    0.01661   0.01737   0.01747   0.01773   0.01855
 Alpha virt. eigenvalues --    0.01931   0.02054   0.02202   0.02211   0.02448
 Alpha virt. eigenvalues --    0.02466   0.02621   0.02641   0.02643   0.02889
 Alpha virt. eigenvalues --    0.02898   0.03032   0.03044   0.03708   0.04313
 Alpha virt. eigenvalues --    0.04557   0.05040   0.06320   0.06940   0.07069
 Alpha virt. eigenvalues --    0.07079   0.07190   0.07201   0.07535   0.07669
 Alpha virt. eigenvalues --    0.07722   0.07792   0.08285   0.08320   0.08528
 Alpha virt. eigenvalues --    0.08681   0.08897   0.09266   0.09833   0.09995
 Alpha virt. eigenvalues --    0.10021   0.10133   0.10175   0.10889   0.10990
 Alpha virt. eigenvalues --    0.11138   0.12312   0.13977   0.15177   0.15572
 Alpha virt. eigenvalues --    0.27328   0.28526   0.29493   0.29783   0.29840
 Alpha virt. eigenvalues --    0.29869   0.32317   0.32589   0.32603   0.32682
 Alpha virt. eigenvalues --    0.33283   0.33285   0.33297   0.33340   0.33449
 Alpha virt. eigenvalues --    0.33680   0.34319   0.35253   0.35436   0.35554
 Alpha virt. eigenvalues --    0.35741   0.36129   0.37038   0.37780   0.38499
 Alpha virt. eigenvalues --    0.38501   0.39410   0.41887   0.42042   0.42170
 Alpha virt. eigenvalues --    0.42258   0.42388   0.42683   0.43051   0.43230
 Alpha virt. eigenvalues --    0.43578   0.43596   0.43710   0.44069   0.44101
 Alpha virt. eigenvalues --    0.44491   0.44799   0.45014   0.46512   0.46683
 Alpha virt. eigenvalues --    0.47516   0.47944   0.48370   0.49307   0.50226
 Alpha virt. eigenvalues --    0.50380   0.50384   0.52353   0.61982   0.70581
 Alpha virt. eigenvalues --    0.75558   1.99297   2.01798   2.03724   2.04119
 Alpha virt. eigenvalues --    2.08829   2.12172   2.16292   4.40604   4.41419
 Alpha virt. eigenvalues --    4.41660   4.42847   4.42882   4.42963   4.43066
 Alpha virt. eigenvalues --    4.43459   4.43519   4.43739   4.44048   4.44317
 Alpha virt. eigenvalues --    4.44550   4.45292   4.45660   4.46289   4.46468
 Alpha virt. eigenvalues --    4.47501   4.56806   4.61879   4.68954  96.18417
 Alpha virt. eigenvalues --   96.20961  96.23106  96.23725  96.29639  96.34876
 Alpha virt. eigenvalues --   96.39420
  Beta  occ. eigenvalues --  -38.45526 -38.45417 -38.45048 -38.44623 -38.44577
  Beta  occ. eigenvalues --  -38.44169 -38.44167  -2.21193  -2.21151  -2.20791
  Beta  occ. eigenvalues --   -2.20422  -2.20317  -2.19987  -2.19967  -1.14875
  Beta  occ. eigenvalues --   -1.14875  -1.14875  -1.14872  -1.14852  -1.14841
  Beta  occ. eigenvalues --   -1.14486  -1.14461  -1.14428  -1.14078  -1.14074
  Beta  occ. eigenvalues --   -1.14065  -1.14001  -1.13995  -1.13950  -1.13838
  Beta  occ. eigenvalues --   -1.13641  -1.13641  -1.13599  -1.13599  -1.13500
  Beta  occ. eigenvalues --   -0.15048  -0.13223  -0.10813
  Beta virt. eigenvalues --   -0.07937  -0.06226  -0.05373  -0.05038  -0.03306
  Beta virt. eigenvalues --   -0.02756  -0.02451  -0.02432  -0.01963  -0.01219
  Beta virt. eigenvalues --   -0.00970  -0.00739  -0.00480  -0.00162  -0.00064
  Beta virt. eigenvalues --   -0.00003   0.00132   0.00294   0.00467   0.00675
  Beta virt. eigenvalues --    0.00686   0.00795   0.00878   0.00899   0.01031
  Beta virt. eigenvalues --    0.01048   0.01241   0.01274   0.01345   0.01661
  Beta virt. eigenvalues --    0.01747   0.01773   0.01836   0.01931   0.02054
  Beta virt. eigenvalues --    0.02211   0.02212   0.02315   0.02345   0.02448
  Beta virt. eigenvalues --    0.02466   0.02468   0.02621   0.02643   0.02726
  Beta virt. eigenvalues --    0.02889   0.02889   0.03032   0.03070   0.03708
  Beta virt. eigenvalues --    0.04313   0.04553   0.05040   0.06320   0.06940
  Beta virt. eigenvalues --    0.07069   0.07242   0.07300   0.07308   0.07535
  Beta virt. eigenvalues --    0.08285   0.08320   0.08406   0.08681   0.08897
  Beta virt. eigenvalues --    0.09032   0.09133   0.09253   0.09266   0.09823
  Beta virt. eigenvalues --    0.09995   0.10133   0.10190   0.10560   0.10889
  Beta virt. eigenvalues --    0.11138   0.11313   0.12312   0.13977   0.15177
  Beta virt. eigenvalues --    0.15560   0.27328   0.28526   0.29493   0.29783
  Beta virt. eigenvalues --    0.29841   0.29877   0.32320   0.32589   0.32604
  Beta virt. eigenvalues --    0.32693   0.33680   0.34319   0.35253   0.35385
  Beta virt. eigenvalues --    0.35387   0.35403   0.35436   0.35437   0.35521
  Beta virt. eigenvalues --    0.35554   0.35741   0.36129   0.37038   0.37780
  Beta virt. eigenvalues --    0.38500   0.38507   0.39410   0.41945   0.42388
  Beta virt. eigenvalues --    0.42683   0.43051   0.43114   0.43191   0.43491
  Beta virt. eigenvalues --    0.43538   0.43596   0.43710   0.43810   0.44069
  Beta virt. eigenvalues --    0.44099   0.44707   0.44799   0.45014   0.46512
  Beta virt. eigenvalues --    0.46683   0.47516   0.47945   0.48370   0.49307
  Beta virt. eigenvalues --    0.50226   0.50382   0.50385   0.52353   0.61982
  Beta virt. eigenvalues --    0.70581   0.75558   2.00151   2.01798   2.03745
  Beta virt. eigenvalues --    2.04119   2.08829   2.12171   2.16292   4.40604
  Beta virt. eigenvalues --    4.41419   4.41660   4.42847   4.43156   4.43272
  Beta virt. eigenvalues --    4.43307   4.43498   4.43519   4.43811   4.44048
  Beta virt. eigenvalues --    4.44317   4.44550   4.45292   4.45660   4.46290
  Beta virt. eigenvalues --    4.46471   4.47501   4.56806   4.61879   4.68954
  Beta virt. eigenvalues --   96.18679  96.20961  96.23114  96.23725  96.29639
  Beta virt. eigenvalues --   96.34876  96.39420
          Condensed to atoms (all electrons):
               1          2          3          4          5          6
     1  Na  11.008345   0.000000   0.000000   0.000000   0.000000   0.001201
     2  Na   0.000000  11.029682   0.250919  -0.105198  -0.144584   0.000000
     3  Na   0.000000   0.250919  10.920478   0.049770  -0.071310   0.000000
     4  Na   0.000000  -0.105198   0.049770  10.577443   0.365385   0.000000
     5  Na   0.000000  -0.144584  -0.071310   0.365385  10.782434   0.000000
     6  Na   0.001201   0.000000   0.000000   0.000000   0.000000  10.678863
     7  Na  -0.012891   0.000000   0.000000   0.000000   0.000000   0.359418
               7
     1  Na  -0.012891
     2  Na   0.000000
     3  Na   0.000000
     4  Na   0.000000
     5  Na   0.000000
     6  Na   0.359418
     7  Na  10.617336
          Atomic-Atomic Spin Densities.
               1          2          3          4          5          6
     1  Na   1.007320   0.000000   0.000000   0.000000   0.000000   0.004899
     2  Na   0.000000   0.000000  -0.000000   0.000000  -0.000000   0.000000
     3  Na   0.000000  -0.000000  -0.000000   0.000000  -0.000000   0.000000
     4  Na   0.000000   0.000000   0.000000   0.000000  -0.000000   0.000000
     5  Na   0.000000  -0.000000  -0.000000  -0.000000  -0.000000   0.000000
     6  Na   0.004899   0.000000   0.000000   0.000000   0.000000   0.000026
     7  Na  -0.009040   0.000000   0.000000   0.000000   0.000000  -0.004389
               7
     1  Na  -0.009040
     2  Na   0.000000
     3  Na   0.000000
     4  Na   0.000000
     5  Na   0.000000
     6  Na  -0.004389
     7  Na   0.009714
 Mulliken charges and spin densities:
               1          2
     1  Na   0.003345   1.003179
     2  Na  -0.030820   0.000000
     3  Na  -0.149856  -0.000000
     4  Na   0.112601   0.000000
     5  Na   0.068075  -0.000000
     6  Na  -0.039482   0.000536
     7  Na   0.036137  -0.003715
 Sum of Mulliken charges =  -0.00000   1.00000
 Mulliken charges and spin densities with hydrogens summed into heavy atoms:
               1          2
     1  Na   0.003345   1.003179
     2  Na  -0.030820   0.000000
     3  Na  -0.149856  -0.000000
     4  Na   0.112601   0.000000
     5  Na   0.068075  -0.000000
     6  Na  -0.039482   0.000536
     7  Na   0.036137  -0.003715
 Electronic spatial extent (au):  <R**2>=         612236.3354
 Charge=             -0.0000 electrons
 Dipole moment (field-independent basis, Debye):
    X=              0.3119    Y=             -1.7460    Z=             -0.3669  Tot=              1.8112
 Quadrupole moment (field-independent basis, Debye-Ang):
   XX=            -90.9499   YY=            -79.6013   ZZ=            -72.4271
   XY=             74.1450   XZ=              7.6270   YZ=             -3.9341
 Traceless Quadrupole moment (field-independent basis, Debye-Ang):
   XX=             -9.9572   YY=              1.3915   ZZ=              8.5657
   XY=             74.1450   XZ=              7.6270   YZ=             -3.9341
 Octapole moment (field-independent basis, Debye-Ang**2):
  XXX=           1550.3266  YYY=            -44.4294  ZZZ=             -4.0668  XYY=             32.1929
  XXY=          -3132.2751  XXZ=           -594.4482  XZZ=           -108.7034  YZZ=             -4.9331
  YYZ=              9.6416  XYZ=             71.5807
 Hexadecapole moment (field-independent basis, Debye-Ang**3):
 XXXX=        -912816.3416 YYYY=          -5290.7507 ZZZZ=           -776.1675 XXXY=         149506.1360
 XXXZ=         -29247.5205 YYYX=            596.6330 YYYZ=            -63.2789 ZZZX=            296.9443
 ZZZY=            -21.8207 XXYY=        -177161.3734 XXZZ=        -162297.8502 YYZZ=           -975.7463
 XXYZ=          -6109.2150 YYXZ=            261.0139 ZZXY=           -475.4016
 N-N= 1.323157378381D+02 E-N=-2.993270539447D+03  KE= 1.132837731813D+03
                          Isotropic Fermi Contact Couplings
        Atom                 a.u.       MegaHertz       Gauss      10(-4) cm-1
     1  Na(23)             0.79358     938.82266     334.99527     313.15753
     2  Na(23)             0.00000       0.00000       0.00000       0.00000
     3  Na(23)            -0.00000      -0.00000      -0.00000      -0.00000
     4  Na(23)            -0.00000      -0.00000      -0.00000      -0.00000
     5  Na(23)            -0.00000      -0.00000      -0.00000      -0.00000
     6  Na(23)             0.00004       0.04894       0.01746       0.01632
     7  Na(23)             0.00140       1.65695       0.59124       0.55270
 --------------------------------------------------------
       Center         ----  Spin Dipole Couplings  ----
                      3XX-RR        3YY-RR        3ZZ-RR
 --------------------------------------------------------
     1   Atom       -0.000018      0.000029     -0.000011
     2   Atom        0.000000     -0.000000     -0.000000
     3   Atom        0.000000     -0.000000     -0.000000
     4   Atom        0.000000     -0.000000     -0.000000
     5   Atom        0.000000     -0.000000     -0.000000
     6   Atom       -0.000195      0.000472     -0.000277
     7   Atom       -0.000124      0.000291     -0.000167
 --------------------------------------------------------
                        XY            XZ            YZ
 --------------------------------------------------------
     1   Atom        0.000015      0.000002     -0.000010
     2   Atom        0.000000     -0.000000     -0.000000
     3   Atom        0.000000      0.000000      0.000000
     4   Atom        0.000000      0.000000      0.000000
     5   Atom        0.000000     -0.000000     -0.000000
     6   Atom        0.000039     -0.000051     -0.000082
     7   Atom        0.000029     -0.000028     -0.000052
 --------------------------------------------------------


 ---------------------------------------------------------------------------------
              Anisotropic Spin Dipole Couplings in Principal Axis System
 ---------------------------------------------------------------------------------

       Atom             a.u.   MegaHertz   Gauss  10(-4) cm-1        Axes

              Baa    -0.0000    -0.003    -0.001    -0.001  0.8825 -0.3068 -0.3565
     1 Na(23) Bbb    -0.0000    -0.002    -0.001    -0.001  0.3965  0.0774  0.9148
              Bcc     0.0000     0.005     0.002     0.002  0.2531  0.9486 -0.1900
 
              Baa    -0.0000    -0.000    -0.000    -0.000  0.0211  0.1485  0.9887
     2 Na(23) Bbb    -0.0000    -0.000    -0.000    -0.000 -0.0371  0.9883 -0.1476
              Bcc     0.0000     0.000     0.000     0.000  0.9991  0.0336 -0.0263
 
              Baa    -0.0000    -0.000    -0.000    -0.000 -0.0135  0.1532  0.9881
     3 Na(23) Bbb    -0.0000    -0.000    -0.000    -0.000 -0.0444  0.9871 -0.1537
              Bcc     0.0000     0.000     0.000     0.000  0.9989  0.0459  0.0066
 
              Baa    -0.0000    -0.000    -0.000    -0.000 -0.0165  0.1530  0.9881
     4 Na(23) Bbb    -0.0000    -0.000    -0.000    -0.000 -0.0764  0.9851 -0.1539
              Bcc     0.0000     0.000     0.000     0.000  0.9969  0.0780  0.0045
 
              Baa    -0.0000    -0.000    -0.000    -0.000 -0.0097  0.1519  0.9883
     5 Na(23) Bbb    -0.0000    -0.000    -0.000    -0.000 -0.0913  0.9841 -0.1522
              Bcc     0.0000     0.000     0.000     0.000  0.9958  0.0917 -0.0043
 
              Baa    -0.0003    -0.043    -0.015    -0.014  0.3955  0.0769  0.9152
     6 Na(23) Bbb    -0.0002    -0.025    -0.009    -0.008  0.9162 -0.1034 -0.3872
              Bcc     0.0005     0.068     0.024     0.023  0.0649  0.9917 -0.1113
 
              Baa    -0.0002    -0.026    -0.009    -0.009  0.3954  0.0769  0.9153
     7 Na(23) Bbb    -0.0001    -0.016    -0.006    -0.005  0.9153 -0.1159 -0.3857
              Bcc     0.0003     0.042     0.015     0.014  0.0764  0.9903 -0.1162
 

 ---------------------------------------------------------------------------------

 No NMR shielding tensors so no spin-rotation constants.
 Leave Link  601 at Thu Nov 23 12:40:56 2023, MaxMem=   104857600 cpu:              17.0 elap:              15.6
 (Enter /home/sekinelabo/g16/l701.exe)
 ... and contract with generalized density number  0.
 Compute integral first derivatives.
 Leave Link  701 at Thu Nov 23 12:41:03 2023, MaxMem=   104857600 cpu:               7.5 elap:               6.3
 (Enter /home/sekinelabo/g16/l702.exe)
 L702 exits ... SP integral derivatives will be done elsewhere.
 Leave Link  702 at Thu Nov 23 12:41:03 2023, MaxMem=   104857600 cpu:               0.6 elap:               0.6
 (Enter /home/sekinelabo/g16/l703.exe)
 Integral derivatives from FoFJK, PRISM(SPDF).
 Compute integral first derivatives, UseDBF=F ICtDFT=           0.
 Calling FoFJK, ICntrl=      2127 FMM=F ISym2X=0 I1Cent= 0 IOpClX= 1 NMat=1 NMatS=1 NMatT=0.
 FoFJK:  IHMeth= 1 ICntrl=    2127 DoSepK=F KAlg= 0 I1Cent=           0 FoldK=F
 IRaf=         0 NMat=       1 IRICut=       1 DoRegI=T DoRafI=F ISym2E= 0 IDoP0=0 IntGTp=1.
 FoFCou: FMM=F IPFlag=           0 FMFlag=      100000 FMFlg1=         800
         NFxFlg=           0 DoJE=F BraDBF=F KetDBF=F FulRan=T
         wScrn=  0.000000 ICntrl=      2127 IOpCl=  1 I1Cent=           0 NGrid=           0
         NMat0=    1 NMatS0=      1 NMatT0=    0 NMatD0=    1 NMtDS0=    0 NMtDT0=    0
 Symmetry not used in FoFCou.
 Leave Link  703 at Thu Nov 23 12:41:21 2023, MaxMem=   104857600 cpu:              23.0 elap:              17.0
 (Enter /home/sekinelabo/g16/l716.exe)
 Dipole        = 1.22728628D-01-6.86919554D-01-1.44335942D-01
 ***** Axes restored to original set *****
 -------------------------------------------------------------------
 Center     Atomic                   Forces (Hartrees/Bohr)
 Number     Number              X              Y              Z
 -------------------------------------------------------------------
      1       11          -0.000005506    0.000001315    0.000000769
      2       11          -0.001186341   -0.004032795    0.004197703
      3       11           0.004676941    0.003902428   -0.006313194
      4       11          -0.002713605    0.000563568    0.002007269
      5       11          -0.000776994   -0.000433201    0.000108222
      6       11           0.000486001   -0.001534456    0.003129069
      7       11          -0.000480494    0.001533141   -0.003129837
 -------------------------------------------------------------------
 Cartesian Forces:  Max     0.006313194 RMS     0.002668362
 Z-matrix is all fixed cartesians, so copy forces.
 Force constants in Cartesian coordinates: 
                1             2             3             4             5 
      1  0.100000D+01
      2  0.000000D+00  0.100000D+01
      3  0.000000D+00  0.000000D+00  0.100000D+01
      4  0.000000D+00  0.000000D+00  0.000000D+00  0.100000D+01
      5  0.000000D+00  0.000000D+00  0.000000D+00  0.000000D+00  0.100000D+01
      6  0.000000D+00  0.000000D+00  0.000000D+00  0.000000D+00  0.000000D+00
      7  0.000000D+00  0.000000D+00  0.000000D+00  0.000000D+00  0.000000D+00
      8  0.000000D+00  0.000000D+00  0.000000D+00  0.000000D+00  0.000000D+00
      9  0.000000D+00  0.000000D+00  0.000000D+00  0.000000D+00  0.000000D+00
     10  0.000000D+00  0.000000D+00  0.000000D+00  0.000000D+00  0.000000D+00
     11  0.000000D+00  0.000000D+00  0.000000D+00  0.000000D+00  0.000000D+00
     12  0.000000D+00  0.000000D+00  0.000000D+00  0.000000D+00  0.000000D+00
     13  0.000000D+00  0.000000D+00  0.000000D+00  0.000000D+00  0.000000D+00
     14  0.000000D+00  0.000000D+00  0.000000D+00  0.000000D+00  0.000000D+00
     15  0.000000D+00  0.000000D+00  0.000000D+00  0.000000D+00  0.000000D+00
     16  0.000000D+00  0.000000D+00  0.000000D+00  0.000000D+00  0.000000D+00
     17  0.000000D+00  0.000000D+00  0.000000D+00  0.000000D+00  0.000000D+00
     18  0.000000D+00  0.000000D+00  0.000000D+00  0.000000D+00  0.000000D+00
     19  0.000000D+00  0.000000D+00  0.000000D+00  0.000000D+00  0.000000D+00
     20  0.000000D+00  0.000000D+00  0.000000D+00  0.000000D+00  0.000000D+00
     21  0.000000D+00  0.000000D+00  0.000000D+00  0.000000D+00  0.000000D+00
                6             7             8             9            10 
      6  0.100000D+01
      7  0.000000D+00  0.214717D-01
      8  0.000000D+00 -0.694845D-02  0.264102D-02
      9  0.000000D+00 -0.708516D-02  0.657073D-03  0.915607D-02
     10  0.000000D+00 -0.198178D-01  0.499765D-02  0.124398D-01  0.286370D-01
     11  0.000000D+00  0.651494D-02 -0.212969D-02 -0.206061D-02 -0.107014D-01
     12  0.000000D+00  0.611549D-02  0.486677D-03 -0.122955D-01 -0.347173D-02
     13  0.000000D+00 -0.165388D-02  0.195079D-02 -0.535468D-02 -0.881921D-02
     14  0.000000D+00  0.433505D-03 -0.511330D-03  0.140354D-02  0.570371D-02
     15  0.000000D+00  0.969670D-03 -0.114375D-02  0.313945D-02 -0.896811D-02
     16  0.000000D+00  0.000000D+00  0.000000D+00  0.000000D+00  0.000000D+00
     17  0.000000D+00  0.000000D+00  0.000000D+00  0.000000D+00  0.000000D+00
     18  0.000000D+00  0.000000D+00  0.000000D+00  0.000000D+00  0.000000D+00
     19  0.000000D+00  0.000000D+00  0.000000D+00  0.000000D+00  0.000000D+00
     20  0.000000D+00  0.000000D+00  0.000000D+00  0.000000D+00  0.000000D+00
     21  0.000000D+00  0.000000D+00  0.000000D+00  0.000000D+00  0.000000D+00
               11            12            13            14            15 
     11  0.631217D-02
     12 -0.834446D-02  0.406099D-01
     13  0.418642D-02 -0.264376D-02  0.104731D-01
     14 -0.418249D-02  0.785779D-02 -0.613721D-02  0.469382D-02
     15  0.104051D-01 -0.283143D-01  0.799844D-02 -0.926132D-02  0.251749D-01
     16  0.000000D+00  0.000000D+00  0.000000D+00  0.000000D+00  0.000000D+00
     17  0.000000D+00  0.000000D+00  0.000000D+00  0.000000D+00  0.000000D+00
     18  0.000000D+00  0.000000D+00  0.000000D+00  0.000000D+00  0.000000D+00
     19  0.000000D+00  0.000000D+00  0.000000D+00  0.000000D+00  0.000000D+00
     20  0.000000D+00  0.000000D+00  0.000000D+00  0.000000D+00  0.000000D+00
     21  0.000000D+00  0.000000D+00  0.000000D+00  0.000000D+00  0.000000D+00
               16            17            18            19            20 
     16  0.801196D-03
     17 -0.256301D-02  0.819901D-02
     18  0.523113D-02 -0.167343D-01  0.341548D-01
     19 -0.801196D-03  0.256301D-02 -0.523113D-02  0.801196D-03
     20  0.256301D-02 -0.819901D-02  0.167343D-01 -0.256301D-02  0.819901D-02
     21 -0.523113D-02  0.167343D-01 -0.341548D-01  0.523113D-02 -0.167343D-01
               21 
     21  0.341548D-01
 Leave Link  716 at Thu Nov 23 12:41:21 2023, MaxMem=   104857600 cpu:               0.7 elap:               0.5
 (Enter /home/sekinelabo/g16/l103.exe)

 GradGradGradGradGradGradGradGradGradGradGradGradGradGradGradGradGradGrad
 Berny optimization.
 Search for a local minimum.
 Step number   1 out of a maximum of    2
 All quantities printed in internal units (Hartrees-Bohrs-Radians)
 Second derivative matrix not updated -- first step.
 ITU=  0
     Eigenvalues ---    0.00000   0.00000   0.00000   0.00000   0.00000
     Eigenvalues ---    0.01880   0.05911   0.07125   0.08631   0.10387
     Eigenvalues ---    0.65667   0.71429   0.71678   0.74542   1.00000
 Eigenvalue     1 is   2.22D-16 Eigenvector:
                          Z3        Z5        X4        X5        Z4
   1                    0.70350  -0.45801  -0.37786   0.33087  -0.11722
                          Y3        X6        Z6        Z7        Y5
   1                    0.09771   0.07787  -0.06449  -0.06379  -0.04665
 Eigenvalue     2 is   2.22D-16 Eigenvector:
                          Y7        Y6        Z6        Z7        X7
   1                    0.59648  -0.57669  -0.32428   0.32003  -0.23071
                          X6        Y5        Y4        X4        Y3
   1                    0.22311  -0.02309   0.01431   0.01120  -0.01102
 Eigenvalue     3 is   8.88D-16 Eigenvector:
                          Z6        Z7        Z5        Z4        Z3
   1                    0.50959   0.49740  -0.44346  -0.31064  -0.25288
                          Y4        X7        X6        Y3        Y5
   1                    0.20486  -0.18899   0.13959  -0.12080  -0.10624
 Eigenvalue     4 is   1.11D-15 Eigenvector:
                          X7        X6        Y5        Y7        Y6
   1                    0.59916  -0.58911  -0.30379   0.21593  -0.21336
                          Z5        Y4        Y3        Z7        X5
   1                   -0.18042   0.17429   0.12692   0.10520  -0.09013
 Eigenvalue     5 is   1.33D-15 Eigenvector:
                          Y4        Y5        Y3        Z4        X4
   1                    0.69777  -0.39481  -0.27274   0.26134   0.21481
                          Z7        Z6        Z3        X6        X7
   1                   -0.19482  -0.16915   0.15951   0.14274  -0.12959
 Quadratic step=4.160D+01 exceeds max=3.000D-01 adjusted using Lamda=-1.481D-02.
 Angle between NR and scaled steps=  21.51 degrees.
 Angle between quadratic step and forces=  52.42 degrees.
 Linear search not attempted -- first point.
 B after Tr=    -0.000000    0.000000    0.000000
         Rot=    1.000000    0.000000   -0.000000   -0.000000 Ang=   0.00 deg.
 Variable       Old X    -DE/DX   Delta X   Delta X   Delta X     New X
                                 (Linear)    (Quad)   (Total)
    X1       19.57681  -0.00001   0.00000  -0.00299  -0.00299  19.57382
    Y1        2.98197   0.00000   0.00000  -0.00878  -0.00878   2.97319
    Z1      186.55376   0.00000   0.00000   0.00094   0.00094 186.55470
    X2       20.11311  -0.00119   0.00000   0.00057   0.00057  20.11368
    Y2        6.40150  -0.00403   0.00000  -0.00956  -0.00956   6.39194
    Z2        2.15136   0.00420   0.00000   0.00515   0.00515   2.15650
    X3       16.64202   0.00468   0.00000   0.05950   0.05950  16.70153
    Y3        1.05522   0.00390   0.00000   0.03956   0.03956   1.09478
    Z3        8.03255  -0.00631   0.00000  -0.23225  -0.23225   7.80029
    X4       11.22645  -0.00271   0.00000   0.00661   0.00661  11.23306
    Y4        2.69210   0.00056   0.00000  -0.06482  -0.06482   2.62728
    Z4       10.30158   0.00201   0.00000   0.02471   0.02471  10.32629
    X5        8.90745  -0.00078   0.00000  -0.05453  -0.05453   8.85293
    Y5        4.80128  -0.00043   0.00000   0.02669   0.02669   4.82798
    Z5        5.40333   0.00011   0.00000   0.09382   0.09382   5.49715
    X6        4.00726   0.00049   0.00000  -0.04751  -0.04751   3.95975
    Y6        6.98792  -0.00153   0.00000  -0.02406  -0.02406   6.96387
    Z6      188.15436   0.00313   0.00000   0.08358   0.08358 188.23794
    X7        3.25879  -0.00048   0.00000   0.03834   0.03834   3.29714
    Y7        9.38224   0.00153   0.00000   0.04097   0.04097   9.42321
    Z7      183.26753  -0.00313   0.00000   0.02406   0.02406 183.29159
         Item               Value     Threshold  Converged?
 Maximum Force            0.006313     0.000450     NO 
 RMS     Force            0.002668     0.000300     NO 
 Maximum Displacement     0.232254     0.001800     NO 
 RMS     Displacement     0.065518     0.001200     NO 
 Predicted change in Energy=-1.790980D-03
 GradGradGradGradGradGradGradGradGradGradGradGradGradGradGradGradGradGrad

 Leave Link  103 at Thu Nov 23 12:41:23 2023, MaxMem=   104857600 cpu:               3.3 elap:               2.1
 (Enter /home/sekinelabo/g16/l9999.exe)
 1\1\GINC-SEKINELABO-XA7R-R37\Force\UB3LYP\6-311+G(d)\Na7(2)\SEKINELABO
 \23-Nov-2023\0\\#P B3LYP/6-311+g(d) force\\DPGEN\\0,2\Na,10.3596,1.577
 99,98.72\Na,10.6434,3.38753,1.13845\Na,8.80658,0.558396,4.25064\Na,5.9
 4078,1.4246,5.45136\Na,4.71362,2.54073,2.85932\Na,2.12055,3.69785,99.5
 67\Na,1.72448,4.96487,96.981\\Version=ES64L-G16RevB.01\State=2-A\HF=-1
 136.071144\S2=0.75002\S2-1=0.\S2A=0.75\RMSD=1.365e-09\RMSF=2.668e-03\D
 ipole=-0.7051573,0.0137235,0.1015797\Quadrupole=-3.252796,7.173153,-3.
 920357,-0.4704361,55.140124,-6.9520491\PG=C01 [X(Na7)]\\@


 YOU WILL NEVER "FIND" TIME FOR ANYTHING.
 IF YOU WANT TIME, YOU MUST MAKE IT.

                        -- CHARLES BIXTON
 Job cpu time:       0 days  0 hours  9 minutes 15.6 seconds.
 Elapsed time:       0 days  0 hours 11 minutes  2.8 seconds.
 File lengths (MBytes):  RWF=     46 Int=      0 D2E=      0 Chk=      4 Scr=      1
 Normal termination of Gaussian 16 at Thu Nov 23 12:41:24 2023.
