 Entering Gaussian System, Link 0=g16
 Initial command:
 /home/sekinelabo/g16/l1.exe "/home/sekinelabo/g16temp/Gau-1046613.inp" -scrdir="/home/sekinelabo/g16temp/"
 Entering Link 1 = /home/sekinelabo/g16/l1.exe PID=   1046654.
  
 Copyright (c) 1988-2017, Gaussian, Inc.  All Rights Reserved.
  
 This is part of the Gaussian(R) 16 program.  It is based on
 the Gaussian(R) 09 system (copyright 2009, Gaussian, Inc.),
 the Gaussian(R) 03 system (copyright 2003, Gaussian, Inc.),
 the Gaussian(R) 98 system (copyright 1998, Gaussian, Inc.),
 the Gaussian(R) 94 system (copyright 1995, Gaussian, Inc.),
 the Gaussian 92(TM) system (copyright 1992, Gaussian, Inc.),
 the Gaussian 90(TM) system (copyright 1990, Gaussian, Inc.),
 the Gaussian 88(TM) system (copyright 1988, Gaussian, Inc.),
 the Gaussian 86(TM) system (copyright 1986, Carnegie Mellon
 University), and the Gaussian 82(TM) system (copyright 1983,
 Carnegie Mellon University). Gaussian is a federally registered
 trademark of Gaussian, Inc.
  
 This software contains proprietary and confidential information,
 including trade secrets, belonging to Gaussian, Inc.
  
 This software is provided under written license and may be
 used, copied, transmitted, or stored only in accord with that
 written license.
  
 The following legend is applicable only to US Government
 contracts under FAR:
  
                    RESTRICTED RIGHTS LEGEND
  
 Use, reproduction and disclosure by the US Government is
 subject to restrictions as set forth in subparagraphs (a)
 and (c) of the Commercial Computer Software - Restricted
 Rights clause in FAR 52.227-19.
  
 Gaussian, Inc.
 340 Quinnipiac St., Bldg. 40, Wallingford CT 06492
  
  
 ---------------------------------------------------------------
 Warning -- This program may not be used in any manner that
 competes with the business of Gaussian, Inc. or will provide
 assistance to any competitor of Gaussian, Inc.  The licensee
 of this program is prohibited from giving any competitor of
 Gaussian, Inc. access to this program.  By using this program,
 the user acknowledges that Gaussian, Inc. is engaged in the
 business of creating and licensing software in the field of
 computational chemistry and represents and warrants to the
 licensee that it is not a competitor of Gaussian, Inc. and that
 it will not use this program in any manner prohibited above.
 ---------------------------------------------------------------
  

 Cite this work as:
 Gaussian 16, Revision B.01,
 M. J. Frisch, G. W. Trucks, H. B. Schlegel, G. E. Scuseria, 
 M. A. Robb, J. R. Cheeseman, G. Scalmani, V. Barone, 
 G. A. Petersson, H. Nakatsuji, X. Li, M. Caricato, A. V. Marenich, 
 J. Bloino, B. G. Janesko, R. Gomperts, B. Mennucci, H. P. Hratchian, 
 J. V. Ortiz, A. F. Izmaylov, J. L. Sonnenberg, D. Williams-Young, 
 F. Ding, F. Lipparini, F. Egidi, J. Goings, B. Peng, A. Petrone, 
 T. Henderson, D. Ranasinghe, V. G. Zakrzewski, J. Gao, N. Rega, 
 G. Zheng, W. Liang, M. Hada, M. Ehara, K. Toyota, R. Fukuda, 
 J. Hasegawa, M. Ishida, T. Nakajima, Y. Honda, O. Kitao, H. Nakai, 
 T. Vreven, K. Throssell, J. A. Montgomery, Jr., J. E. Peralta, 
 F. Ogliaro, M. J. Bearpark, J. J. Heyd, E. N. Brothers, K. N. Kudin, 
 V. N. Staroverov, T. A. Keith, R. Kobayashi, J. Normand, 
 K. Raghavachari, A. P. Rendell, J. C. Burant, S. S. Iyengar, 
 J. Tomasi, M. Cossi, J. M. Millam, M. Klene, C. Adamo, R. Cammi, 
 J. W. Ochterski, R. L. Martin, K. Morokuma, O. Farkas, 
 J. B. Foresman, and D. J. Fox, Gaussian, Inc., Wallingford CT, 2016.
 
 ******************************************
 Gaussian 16:  ES64L-G16RevB.01 20-Dec-2017
                23-Nov-2023 
 ******************************************
 %nprocshared=14
 Will use up to   14 processors via shared memory.
 -------------------------
 #P B3LYP/6-311+g(d) force
 -------------------------
 1/10=7,30=1,38=1/1,3;
 2/12=2,17=6,18=5,40=1/2;
 3/5=4,6=6,7=11,11=2,25=1,30=1,71=1,74=-5/1,2,3;
 4//1;
 5/5=2,38=5/2;
 6/7=2,8=2,9=2,10=2,28=1/1;
 7/29=1/1,2,3,16;
 1/10=7,30=1/3;
 99//99;
 Leave Link    1 at Thu Nov 23 12:30:21 2023, MaxMem=           0 cpu:               0.4 elap:               0.7
 (Enter /home/sekinelabo/g16/l101.exe)
 -----
 DPGEN
 -----
 Symbolic Z-matrix:
 Charge =  0 Multiplicity = 2
 Na                    14.6446   98.2385   1.7332 
 Na                    12.5741   0.58942   1.60732 
 Na                    9.0178    3.13901   1.68653 
 Na                    6.59192   4.98229   1.12595 
 Na                    2.82171   6.18263   0.57435 
 Na                    99.795    3.70132   0.09016 
 Na                    98.8639   1.31883   2.15018 
 
 ITRead=  0  0  0  0  0  0  0
 MicOpt= -1 -1 -1 -1 -1 -1 -1
 NAtoms=      7 NQM=        7 NQMF=       0 NMMI=      0 NMMIF=      0
                NMic=       0 NMicF=      0.
                    Isotopes and Nuclear Properties:
 (Nuclear quadrupole moments (NQMom) in fm**2, nuclear magnetic moments (NMagM)
  in nuclear magnetons)

  Atom         1           2           3           4           5           6           7
 IAtWgt=          23          23          23          23          23          23          23
 AtmWgt=  22.9897697  22.9897697  22.9897697  22.9897697  22.9897697  22.9897697  22.9897697
 NucSpn=           3           3           3           3           3           3           3
 AtZEff=  -0.0000000  -0.0000000  -0.0000000  -0.0000000  -0.0000000  -0.0000000  -0.0000000
 NQMom=   10.4000000  10.4000000  10.4000000  10.4000000  10.4000000  10.4000000  10.4000000
 NMagM=    2.2175200   2.2175200   2.2175200   2.2175200   2.2175200   2.2175200   2.2175200
 AtZNuc=  11.0000000  11.0000000  11.0000000  11.0000000  11.0000000  11.0000000  11.0000000
 Leave Link  101 at Thu Nov 23 12:30:24 2023, MaxMem=   104857600 cpu:               2.6 elap:               2.9
 (Enter /home/sekinelabo/g16/l103.exe)

 GradGradGradGradGradGradGradGradGradGradGradGradGradGradGradGradGradGrad
 Berny optimization.
 Initialization pass.
 Trust Radius=3.00D-01 FncErr=1.00D-07 GrdErr=1.00D-07 EigMax=2.50D+02 EigMin=1.00D-04
 Number of steps in this run=      2 maximum allowed number of steps=      2.
 GradGradGradGradGradGradGradGradGradGradGradGradGradGradGradGradGradGrad

 Leave Link  103 at Thu Nov 23 12:30:25 2023, MaxMem=   104857600 cpu:               0.5 elap:               0.6
 (Enter /home/sekinelabo/g16/l202.exe)
                          Input orientation:                          
 ---------------------------------------------------------------------
 Center     Atomic      Atomic             Coordinates (Angstroms)
 Number     Number       Type             X           Y           Z
 ---------------------------------------------------------------------
      1         11           0       14.644600   98.238500    1.733200
      2         11           0       12.574100    0.589420    1.607320
      3         11           0        9.017800    3.139010    1.686530
      4         11           0        6.591920    4.982290    1.125950
      5         11           0        2.821710    6.182630    0.574345
      6         11           0       99.795000    3.701320    0.090163
      7         11           0       98.863900    1.318830    2.150180
 ---------------------------------------------------------------------
                    Distance matrix (angstroms):
                    1          2          3          4          5
     1  Na   0.000000
     2  Na  97.671110   0.000000
     3  Na  95.265818   4.376523   0.000000
     4  Na  93.605209   7.437439   3.097874   0.000000
     5  Na  92.819216  11.289825   6.992289   3.994943   0.000000
     6  Na 127.242165  87.289582  90.792977  93.217637  97.006238
     7  Na 128.399715  86.294590  89.865732  92.350356  96.178179
                    6          7
     6  Na   0.000000
     7  Na   3.284338   0.000000
 Stoichiometry    Na7(2)
 Framework group  C1[X(Na7)]
 Deg. of freedom    15
 Full point group                 C1      NOp   1
 Largest Abelian subgroup         C1      NOp   1
 Largest concise Abelian subgroup C1      NOp   1
                         Standard orientation:                         
 ---------------------------------------------------------------------
 Center     Atomic      Atomic             Coordinates (Angstroms)
 Number     Number       Type             X           Y           Z
 ---------------------------------------------------------------------
      1         11           0       50.803869   66.700020   -0.060147
      2         11           0       14.058001  -23.794654   -0.377679
      3         11           0       18.333186  -22.860492   -0.441614
      4         11           0       21.288961  -22.129982    0.129854
      5         11           0       25.224858  -22.521935    0.690790
      6         11           0      -64.813338   13.577844    1.064354
      7         11           0      -64.895538   11.029200   -1.005557
 ---------------------------------------------------------------------
 Rotational constants (GHZ):           0.0032121           0.0017420           0.0011298
 Leave Link  202 at Thu Nov 23 12:30:26 2023, MaxMem=   104857600 cpu:               0.9 elap:               1.0
 (Enter /home/sekinelabo/g16/l301.exe)
 Standard basis: 6-311+G(d) (5D, 7F)
 Ernie: Thresh=  0.10000D-02 Tol=  0.10000D-05 Strict=F.
 There are   217 symmetry adapted cartesian basis functions of A   symmetry.
 There are   210 symmetry adapted basis functions of A   symmetry.
   210 basis functions,   350 primitive gaussians,   217 cartesian basis functions
    39 alpha electrons       38 beta electrons
       nuclear repulsion energy       103.5639919710 Hartrees.
 IExCor=  402 DFT=T Ex+Corr=B3LYP ExCW=0 ScaHFX=  0.200000
 ScaDFX=  0.800000  0.720000  1.000000  0.810000 ScalE2=  1.000000  1.000000
 IRadAn=      5 IRanWt=     -1 IRanGd=            0 ICorTp=0 IEmpDi=  4
 NAtoms=    7 NActive=    7 NUniq=    7 SFac= 1.00D+00 NAtFMM=   60 NAOKFM=F Big=F
 Integral buffers will be    131072 words long.
 Raffenetti 2 integral format.
 Two-electron integral symmetry is turned on.
 Leave Link  301 at Thu Nov 23 12:30:27 2023, MaxMem=   104857600 cpu:               0.7 elap:               0.9
 (Enter /home/sekinelabo/g16/l302.exe)
 NPDir=0 NMtPBC=     1 NCelOv=     1 NCel=       1 NClECP=     1 NCelD=      1
         NCelK=      1 NCelE2=     1 NClLst=     1 CellRange=     0.0.
 One-electron integrals computed using PRISM.
 One-electron integral symmetry used in STVInt
 NBasis=   210 RedAO= T EigKep=  3.03D-06  NBF=   210
 NBsUse=   210 1.00D-06 EigRej= -1.00D+00 NBFU=   210
 Precomputing XC quadrature grid using
 IXCGrd= 4 IRadAn=           5 IRanWt=          -1 IRanGd=           0 AccXCQ= 0.00D+00.
 Generated NRdTot=       0 NPtTot=           0 NUsed=           0 NTot=          32
 NSgBfM=   112   112   112   112   112 MxSgAt=     7 MxSgA2=     4.
 Leave Link  302 at Thu Nov 23 12:31:02 2023, MaxMem=   104857600 cpu:              27.9 elap:              35.3
 (Enter /home/sekinelabo/g16/l303.exe)
 DipDrv:  MaxL=1.
 Leave Link  303 at Thu Nov 23 12:31:06 2023, MaxMem=   104857600 cpu:               2.5 elap:               3.2
 (Enter /home/sekinelabo/g16/l401.exe)
 ExpMin= 7.60D-03 ExpMax= 3.62D+04 ExpMxC= 1.21D+03 IAcc=3 IRadAn=         5 AccDes= 0.00D+00
 Harris functional with IExCor=  402 and IRadAn=       5 diagonalized for initial guess.
 HarFok:  IExCor=  402 AccDes= 0.00D+00 IRadAn=         5 IDoV= 1 UseB2=F ITyADJ=14
 ICtDFT=  3500011 ScaDFX=  1.000000  1.000000  1.000000  1.000000
 FoFCou: FMM=F IPFlag=           0 FMFlag=      100000 FMFlg1=           0
         NFxFlg=           0 DoJE=T BraDBF=F KetDBF=T FulRan=T
         wScrn=  0.000000 ICntrl=       500 IOpCl=  0 I1Cent=   200000004 NGrid=           0
         NMat0=    1 NMatS0=      1 NMatT0=    0 NMatD0=    1 NMtDS0=    0 NMtDT0=    0
 Petite list used in FoFCou.
 Harris En= -1135.84178052343    
 JPrj=0 DoOrth=F DoCkMO=F.
 Initial guess <Sx>= 0.0000 <Sy>= 0.0000 <Sz>= 0.5000 <S**2>= 0.7500 S= 0.5000
 Leave Link  401 at Thu Nov 23 12:31:26 2023, MaxMem=   104857600 cpu:              16.5 elap:              20.6
 (Enter /home/sekinelabo/g16/l502.exe)
 Integral symmetry usage will be decided dynamically.
 UHF open shell SCF:
 Using DIIS extrapolation, IDIIS=  1040.
 NGot=   104857600 LenX=   104758440 LenY=   104710910
 Requested convergence on RMS density matrix=1.00D-08 within 128 cycles.
 Requested convergence on MAX density matrix=1.00D-06.
 Requested convergence on             energy=1.00D-06.
 No special actions if energy rises.
 Fock matrices will be formed incrementally for  20 cycles.

 Cycle   1  Pass 1  IDiag  1:
 FoFJK:  IHMeth= 1 ICntrl=       0 DoSepK=F KAlg= 0 I1Cent=           0 FoldK=F
 IRaf= 390000000 NMat=       1 IRICut=       1 DoRegI=T DoRafI=F ISym2E= 0 IDoP0=0 IntGTp=1.
 FoFCou: FMM=F IPFlag=           0 FMFlag=      100000 FMFlg1=           0
         NFxFlg=           0 DoJE=F BraDBF=F KetDBF=F FulRan=T
         wScrn=  0.000000 ICntrl=         0 IOpCl=  1 I1Cent=           0 NGrid=           0
         NMat0=    1 NMatS0=      1 NMatT0=    0 NMatD0=    1 NMtDS0=    0 NMtDT0=    0
 Symmetry not used in FoFCou.
 E= -1136.04195320695    
 DIIS: error= 2.00D-02 at cycle   1 NSaved=   1.
 NSaved= 1 IEnMin= 1 EnMin= -1136.04195320695     IErMin= 1 ErrMin= 2.00D-02
 ErrMax= 2.00D-02  0.00D+00 EMaxC= 1.00D-01 BMatC= 1.86D-01 BMatP= 1.86D-01
 IDIUse=3 WtCom= 8.00D-01 WtEn= 2.00D-01
 Coeff-Com:  0.100D+01
 Coeff-En:   0.100D+01
 Coeff:      0.100D+01
 Gap=     0.042 Goal=   None    Shift=    0.000
 Gap=     0.046 Goal=   None    Shift=    0.000
 GapD=    0.042 DampG=0.250 DampE=0.500 DampFc=0.2500 IDamp=-1.
 Damping current iteration by 2.50D-01
 RMSDP=5.48D-03 MaxDP=2.80D-01              OVMax= 4.34D-01

 Cycle   2  Pass 1  IDiag  1:
 RMSU=  1.34D-03    CP:  9.86D-01
 E= -1136.05076753982     Delta-E=       -0.008814332866 Rises=F Damp=T
 DIIS: error= 1.39D-02 at cycle   2 NSaved=   2.
 NSaved= 2 IEnMin= 2 EnMin= -1136.05076753982     IErMin= 2 ErrMin= 1.39D-02
 ErrMax= 1.39D-02  0.00D+00 EMaxC= 1.00D-01 BMatC= 7.08D-02 BMatP= 1.86D-01
 IDIUse=3 WtCom= 8.61D-01 WtEn= 1.39D-01
 Coeff-Com: -0.121D+01 0.221D+01
 Coeff-En:   0.000D+00 0.100D+01
 Coeff:     -0.105D+01 0.205D+01
 Gap=     0.037 Goal=   None    Shift=    0.000
 Gap=     0.037 Goal=   None    Shift=    0.000
 RMSDP=4.26D-03 MaxDP=2.20D-01 DE=-8.81D-03 OVMax= 5.74D-01

 Cycle   3  Pass 1  IDiag  1:
 RMSU=  3.53D-03    CP:  9.98D-01 -7.79D-01
 E= -1136.02289148663     Delta-E=        0.027876053191 Rises=F Damp=F
 DIIS: error= 1.54D-02 at cycle   3 NSaved=   3.
 NSaved= 3 IEnMin= 2 EnMin= -1136.05076753982     IErMin= 2 ErrMin= 1.39D-02
 ErrMax= 1.54D-02  0.00D+00 EMaxC= 1.00D-01 BMatC= 2.05D-02 BMatP= 7.08D-02
 IDIUse=3 WtCom= 8.46D-01 WtEn= 1.54D-01
 Coeff-Com: -0.616D+00 0.111D+01 0.506D+00
 Coeff-En:   0.000D+00 0.864D+00 0.136D+00
 Coeff:     -0.521D+00 0.107D+01 0.449D+00
 Gap=     0.009 Goal=   None    Shift=    0.000
 Gap=     0.009 Goal=   None    Shift=    0.000
 RMSDP=7.19D-03 MaxDP=4.40D-01 DE= 2.79D-02 OVMax= 5.40D-01

 Cycle   4  Pass 1  IDiag  1:
 RMSU=  2.70D-03    CP:  9.40D-01  3.00D+00  9.75D-02
 E= -1135.99694695576     Delta-E=        0.025944530868 Rises=F Damp=F
 DIIS: error= 1.61D-02 at cycle   4 NSaved=   4.
 NSaved= 4 IEnMin= 2 EnMin= -1136.05076753982     IErMin= 2 ErrMin= 1.39D-02
 ErrMax= 1.61D-02  0.00D+00 EMaxC= 1.00D-01 BMatC= 2.83D-02 BMatP= 2.05D-02
 IDIUse=2 WtCom= 0.00D+00 WtEn= 1.00D+00
 Coeff-En:   0.000D+00 0.000D+00 0.572D+00 0.428D+00
 Coeff:      0.000D+00 0.000D+00 0.572D+00 0.428D+00
 Gap=     0.022 Goal=   None    Shift=    0.000
 Gap=     0.022 Goal=   None    Shift=    0.000
 RMSDP=3.89D-03 MaxDP=2.41D-01 DE= 2.59D-02 OVMax= 4.10D-01

 Cycle   5  Pass 1  IDiag  1:
 RMSU=  1.17D-03    CP:  9.61D-01  2.42D+00  2.82D-02 -2.73D-01
 E= -1136.05600312812     Delta-E=       -0.059056172362 Rises=F Damp=F
 DIIS: error= 9.47D-03 at cycle   5 NSaved=   5.
 NSaved= 5 IEnMin= 5 EnMin= -1136.05600312812     IErMin= 5 ErrMin= 9.47D-03
 ErrMax= 9.47D-03  0.00D+00 EMaxC= 1.00D-01 BMatC= 8.97D-03 BMatP= 2.05D-02
 IDIUse=3 WtCom= 9.05D-01 WtEn= 9.47D-02
 EnCoef did     3 forward-backward iterations
 Coeff-Com:  0.209D-02 0.204D-01 0.349D+00 0.235D+00 0.394D+00
 Coeff-En:   0.000D+00 0.000D+00 0.297D+00 0.202D+00 0.500D+00
 Coeff:      0.189D-02 0.185D-01 0.344D+00 0.232D+00 0.404D+00
 Gap=     0.026 Goal=   None    Shift=    0.000
 Gap=     0.026 Goal=   None    Shift=    0.000
 RMSDP=2.57D-03 MaxDP=1.43D-01 DE=-5.91D-02 OVMax= 2.07D-01

 Cycle   6  Pass 1  IDiag  1:
 RMSU=  1.35D-03    CP:  9.64D-01  1.47D+00  1.75D-01  3.41D-01  7.02D-01
 E= -1136.06563452912     Delta-E=       -0.009631400997 Rises=F Damp=F
 DIIS: error= 4.60D-03 at cycle   6 NSaved=   6.
 NSaved= 6 IEnMin= 6 EnMin= -1136.06563452912     IErMin= 6 ErrMin= 4.60D-03
 ErrMax= 4.60D-03  0.00D+00 EMaxC= 1.00D-01 BMatC= 1.71D-03 BMatP= 8.97D-03
 IDIUse=3 WtCom= 9.54D-01 WtEn= 4.60D-02
 EnCoef did     1 forward-backward iterations
 Coeff-Com: -0.187D-01 0.244D-01 0.128D+00-0.299D-01 0.262D+00 0.634D+00
 Coeff-En:   0.000D+00 0.000D+00 0.488D-01 0.000D+00 0.207D+00 0.744D+00
 Coeff:     -0.178D-01 0.233D-01 0.124D+00-0.286D-01 0.260D+00 0.639D+00
 Gap=     0.028 Goal=   None    Shift=    0.000
 Gap=     0.028 Goal=   None    Shift=    0.000
 RMSDP=4.83D-04 MaxDP=4.12D-02 DE=-9.63D-03 OVMax= 5.85D-02

 Cycle   7  Pass 1  IDiag  1:
 RMSU=  2.90D-04    CP:  9.64D-01  1.47D+00  2.23D-01  2.15D-01  7.45D-01
                    CP:  9.65D-01
 E= -1136.06871770113     Delta-E=       -0.003083172011 Rises=F Damp=F
 DIIS: error= 1.55D-03 at cycle   7 NSaved=   7.
 NSaved= 7 IEnMin= 7 EnMin= -1136.06871770113     IErMin= 7 ErrMin= 1.55D-03
 ErrMax= 1.55D-03  0.00D+00 EMaxC= 1.00D-01 BMatC= 1.61D-04 BMatP= 1.71D-03
 IDIUse=3 WtCom= 9.85D-01 WtEn= 1.55D-02
 Coeff-Com:  0.533D-02-0.794D-02 0.675D-01-0.298D-01 0.532D-01 0.103D+00
 Coeff-Com:  0.808D+00
 Coeff-En:   0.000D+00 0.000D+00 0.000D+00 0.000D+00 0.000D+00 0.000D+00
 Coeff-En:   0.100D+01
 Coeff:      0.525D-02-0.782D-02 0.665D-01-0.293D-01 0.524D-01 0.102D+00
 Coeff:      0.811D+00
 Gap=     0.029 Goal=   None    Shift=    0.000
 Gap=     0.029 Goal=   None    Shift=    0.000
 RMSDP=1.96D-04 MaxDP=1.12D-02 DE=-3.08D-03 OVMax= 1.36D-02

 Cycle   8  Pass 1  IDiag  1:
 RMSU=  6.69D-05    CP:  9.65D-01  1.36D+00  2.52D-01  2.17D-01  7.59D-01
                    CP:  9.72D-01  1.02D+00
 E= -1136.06893653800     Delta-E=       -0.000218836875 Rises=F Damp=F
 DIIS: error= 9.16D-04 at cycle   8 NSaved=   8.
 NSaved= 8 IEnMin= 8 EnMin= -1136.06893653800     IErMin= 8 ErrMin= 9.16D-04
 ErrMax= 9.16D-04  0.00D+00 EMaxC= 1.00D-01 BMatC= 5.20D-05 BMatP= 1.61D-04
 IDIUse=3 WtCom= 9.91D-01 WtEn= 9.16D-03
 Coeff-Com:  0.888D-02-0.119D-01 0.287D-01-0.109D-01-0.124D-01-0.799D-01
 Coeff-Com:  0.498D-01 0.103D+01
 Coeff-En:   0.000D+00 0.000D+00 0.000D+00 0.000D+00 0.000D+00 0.000D+00
 Coeff-En:   0.000D+00 0.100D+01
 Coeff:      0.880D-02-0.118D-01 0.285D-01-0.108D-01-0.123D-01-0.791D-01
 Coeff:      0.493D-01 0.103D+01
 Gap=     0.029 Goal=   None    Shift=    0.000
 Gap=     0.029 Goal=   None    Shift=    0.000
 RMSDP=1.35D-04 MaxDP=6.33D-03 DE=-2.19D-04 OVMax= 1.08D-02

 Cycle   9  Pass 1  IDiag  1:
 RMSU=  2.75D-05    CP:  9.66D-01  1.29D+00  2.72D-01  2.04D-01  7.52D-01
                    CP:  9.70D-01  1.03D+00  8.98D-01
 E= -1136.06903128646     Delta-E=       -0.000094748462 Rises=F Damp=F
 DIIS: error= 3.51D-04 at cycle   9 NSaved=   9.
 NSaved= 9 IEnMin= 9 EnMin= -1136.06903128646     IErMin= 9 ErrMin= 3.51D-04
 ErrMax= 3.51D-04  0.00D+00 EMaxC= 1.00D-01 BMatC= 7.24D-06 BMatP= 5.20D-05
 IDIUse=3 WtCom= 9.96D-01 WtEn= 3.51D-03
 Coeff-Com:  0.218D-02-0.290D-02 0.578D-02-0.178D-03-0.129D-02-0.413D-01
 Coeff-Com: -0.123D+00 0.108D+00 0.105D+01
 Coeff-En:   0.000D+00 0.000D+00 0.000D+00 0.000D+00 0.000D+00 0.000D+00
 Coeff-En:   0.000D+00 0.000D+00 0.100D+01
 Coeff:      0.217D-02-0.289D-02 0.576D-02-0.177D-03-0.128D-02-0.412D-01
 Coeff:     -0.122D+00 0.108D+00 0.105D+01
 Gap=     0.029 Goal=   None    Shift=    0.000
 Gap=     0.029 Goal=   None    Shift=    0.000
 RMSDP=4.64D-05 MaxDP=2.70D-03 DE=-9.47D-05 OVMax= 5.33D-03

 Cycle  10  Pass 1  IDiag  1:
 RMSU=  8.73D-06    CP:  9.66D-01  1.26D+00  2.79D-01  1.96D-01  7.55D-01
                    CP:  9.64D-01  1.06D+00  9.59D-01  1.03D+00
 E= -1136.06904590044     Delta-E=       -0.000014613979 Rises=F Damp=F
 DIIS: error= 6.96D-05 at cycle  10 NSaved=  10.
 NSaved=10 IEnMin=10 EnMin= -1136.06904590044     IErMin=10 ErrMin= 6.96D-05
 ErrMax= 6.96D-05  0.00D+00 EMaxC= 1.00D-01 BMatC= 2.81D-07 BMatP= 7.24D-06
 IDIUse=1 WtCom= 1.00D+00 WtEn= 0.00D+00
 Coeff-Com:  0.270D-03-0.343D-03 0.467D-03 0.943D-03-0.349D-04-0.130D-01
 Coeff-Com: -0.669D-01-0.310D-01 0.378D+00 0.732D+00
 Coeff:      0.270D-03-0.343D-03 0.467D-03 0.943D-03-0.349D-04-0.130D-01
 Coeff:     -0.669D-01-0.310D-01 0.378D+00 0.732D+00
 Gap=     0.029 Goal=   None    Shift=    0.000
 Gap=     0.029 Goal=   None    Shift=    0.000
 RMSDP=1.71D-05 MaxDP=9.73D-04 DE=-1.46D-05 OVMax= 1.80D-03

 Cycle  11  Pass 1  IDiag  1:
 RMSU=  2.00D-06    CP:  9.66D-01  1.26D+00  2.81D-01  1.93D-01  7.55D-01
                    CP:  9.62D-01  1.05D+00  9.60D-01  1.07D+00  1.24D+00
 E= -1136.06904644295     Delta-E=       -0.000000542510 Rises=F Damp=F
 DIIS: error= 2.47D-05 at cycle  11 NSaved=  11.
 NSaved=11 IEnMin=11 EnMin= -1136.06904644295     IErMin=11 ErrMin= 2.47D-05
 ErrMax= 2.47D-05  0.00D+00 EMaxC= 1.00D-01 BMatC= 3.97D-08 BMatP= 2.81D-07
 IDIUse=1 WtCom= 1.00D+00 WtEn= 0.00D+00
 Coeff-Com: -0.175D-03 0.231D-03 0.681D-04 0.344D-04 0.747D-03 0.153D-02
 Coeff-Com:  0.300D-02 0.408D-02-0.654D-02 0.132D+00 0.865D+00
 Coeff:     -0.175D-03 0.231D-03 0.681D-04 0.344D-04 0.747D-03 0.153D-02
 Coeff:      0.300D-02 0.408D-02-0.654D-02 0.132D+00 0.865D+00
 Gap=     0.029 Goal=   None    Shift=    0.000
 Gap=     0.029 Goal=   None    Shift=    0.000
 RMSDP=7.10D-06 MaxDP=3.40D-04 DE=-5.43D-07 OVMax= 5.49D-04

 Cycle  12  Pass 1  IDiag  1:
 RMSU=  9.22D-07    CP:  9.66D-01  1.26D+00  2.80D-01  1.94D-01  7.56D-01
                    CP:  9.61D-01  1.05D+00  9.57D-01  1.07D+00  1.27D+00
                    CP:  1.43D+00
 E= -1136.06904653091     Delta-E=       -0.000000087953 Rises=F Damp=F
 DIIS: error= 2.68D-06 at cycle  12 NSaved=  12.
 NSaved=12 IEnMin=12 EnMin= -1136.06904653091     IErMin=12 ErrMin= 2.68D-06
 ErrMax= 2.68D-06  0.00D+00 EMaxC= 1.00D-01 BMatC= 4.75D-10 BMatP= 3.97D-08
 IDIUse=1 WtCom= 1.00D+00 WtEn= 0.00D+00
 Coeff-Com: -0.536D-04 0.702D-04-0.653D-04 0.459D-04 0.184D-03 0.571D-03
 Coeff-Com:  0.996D-03-0.574D-03-0.118D-01 0.193D-01 0.187D+00 0.804D+00
 Coeff:     -0.536D-04 0.702D-04-0.653D-04 0.459D-04 0.184D-03 0.571D-03
 Coeff:      0.996D-03-0.574D-03-0.118D-01 0.193D-01 0.187D+00 0.804D+00
 Gap=     0.029 Goal=   None    Shift=    0.000
 Gap=     0.029 Goal=   None    Shift=    0.000
 RMSDP=9.13D-07 MaxDP=5.49D-05 DE=-8.80D-08 OVMax= 9.72D-05

 Cycle  13  Pass 1  IDiag  1:
 RMSU=  1.68D-07    CP:  9.66D-01  1.26D+00  2.80D-01  1.94D-01  7.56D-01
                    CP:  9.61D-01  1.05D+00  9.62D-01  1.06D+00  1.29D+00
                    CP:  1.51D+00  1.07D+00
 E= -1136.06904653146     Delta-E=       -0.000000000554 Rises=F Damp=F
 DIIS: error= 1.99D-06 at cycle  13 NSaved=  13.
 NSaved=13 IEnMin=13 EnMin= -1136.06904653146     IErMin=13 ErrMin= 1.99D-06
 ErrMax= 1.99D-06  0.00D+00 EMaxC= 1.00D-01 BMatC= 2.80D-10 BMatP= 4.75D-10
 IDIUse=1 WtCom= 1.00D+00 WtEn= 0.00D+00
 Coeff-Com:  0.161D-05-0.219D-05 0.245D-05 0.244D-05 0.233D-04 0.507D-04
 Coeff-Com:  0.137D-03 0.150D-02-0.271D-02-0.100D-01-0.142D-01 0.331D+00
 Coeff-Com:  0.694D+00
 Coeff:      0.161D-05-0.219D-05 0.245D-05 0.244D-05 0.233D-04 0.507D-04
 Coeff:      0.137D-03 0.150D-02-0.271D-02-0.100D-01-0.142D-01 0.331D+00
 Coeff:      0.694D+00
 Gap=     0.029 Goal=   None    Shift=    0.000
 Gap=     0.029 Goal=   None    Shift=    0.000
 RMSDP=4.91D-07 MaxDP=2.28D-05 DE=-5.54D-10 OVMax= 4.04D-05

 Cycle  14  Pass 1  IDiag  1:
 RMSU=  3.46D-08    CP:  9.66D-01  1.26D+00  2.80D-01  1.94D-01  7.56D-01
                    CP:  9.61D-01  1.05D+00  9.61D-01  1.06D+00  1.28D+00
                    CP:  1.55D+00  1.17D+00  1.11D+00
 E= -1136.06904653204     Delta-E=       -0.000000000577 Rises=F Damp=F
 DIIS: error= 4.55D-08 at cycle  14 NSaved=  14.
 NSaved=14 IEnMin=14 EnMin= -1136.06904653204     IErMin=14 ErrMin= 4.55D-08
 ErrMax= 4.55D-08  0.00D+00 EMaxC= 1.00D-01 BMatC= 1.01D-12 BMatP= 2.80D-10
 IDIUse=1 WtCom= 1.00D+00 WtEn= 0.00D+00
 Coeff-Com: -0.756D-06 0.102D-05-0.141D-05-0.372D-06 0.715D-05 0.240D-04
 Coeff-Com: -0.711D-04-0.402D-03 0.515D-03-0.751D-03-0.176D-01-0.152D-01
 Coeff-Com:  0.579D-01 0.976D+00
 Coeff:     -0.756D-06 0.102D-05-0.141D-05-0.372D-06 0.715D-05 0.240D-04
 Coeff:     -0.711D-04-0.402D-03 0.515D-03-0.751D-03-0.176D-01-0.152D-01
 Coeff:      0.579D-01 0.976D+00
 Gap=     0.029 Goal=   None    Shift=    0.000
 Gap=     0.029 Goal=   None    Shift=    0.000
 RMSDP=5.74D-08 MaxDP=2.29D-06 DE=-5.77D-10 OVMax= 1.44D-06

 Cycle  15  Pass 1  IDiag  1:
 RMSU=  1.44D-08    CP:  9.66D-01  1.26D+00  2.80D-01  1.94D-01  7.56D-01
                    CP:  9.61D-01  1.05D+00  9.62D-01  1.06D+00  1.28D+00
                    CP:  1.56D+00  1.19D+00  1.15D+00  1.16D+00
 E= -1136.06904653203     Delta-E=        0.000000000007 Rises=F Damp=F
 DIIS: error= 6.52D-09 at cycle  15 NSaved=  15.
 NSaved=15 IEnMin=14 EnMin= -1136.06904653204     IErMin=15 ErrMin= 6.52D-09
 ErrMax= 6.52D-09  0.00D+00 EMaxC= 1.00D-01 BMatC= 2.04D-14 BMatP= 1.01D-12
 IDIUse=1 WtCom= 1.00D+00 WtEn= 0.00D+00
 Coeff-Com: -0.387D-06 0.502D-06 0.160D-07-0.593D-07 0.864D-06-0.429D-06
 Coeff-Com: -0.167D-04-0.366D-04 0.130D-03 0.167D-03 0.469D-03-0.741D-02
 Coeff-Com: -0.165D-01 0.727D-01 0.950D+00
 Coeff:     -0.387D-06 0.502D-06 0.160D-07-0.593D-07 0.864D-06-0.429D-06
 Coeff:     -0.167D-04-0.366D-04 0.130D-03 0.167D-03 0.469D-03-0.741D-02
 Coeff:     -0.165D-01 0.727D-01 0.950D+00
 Gap=     0.029 Goal=   None    Shift=    0.000
 Gap=     0.029 Goal=   None    Shift=    0.000
 RMSDP=6.78D-09 MaxDP=3.28D-07 DE= 6.82D-12 OVMax= 1.39D-07

 SCF Done:  E(UB3LYP) =  -1136.06904653     A.U. after   15 cycles
            NFock= 15  Conv=0.68D-08     -V/T= 2.0029
 <Sx>= 0.0000 <Sy>= 0.0000 <Sz>= 0.5000 <S**2>= 0.7500 S= 0.5000
 <L.S>= 0.000000000000E+00
 KE= 1.132744278026D+03 PE=-2.935491795182D+03 EE= 5.631144786534D+02
 Annihilation of the first spin contaminant:
 S**2 before annihilation     0.7500,   after     0.7500
 Leave Link  502 at Thu Nov 23 12:39:31 2023, MaxMem=   104857600 cpu:             386.5 elap:             484.7
 (Enter /home/sekinelabo/g16/l601.exe)
 Copying SCF densities to generalized density rwf, IOpCl= 1 IROHF=0.

 **********************************************************************

            Population analysis using the SCF Density.

 **********************************************************************

 Orbital symmetries:
 Alpha Orbitals:
       Occupied  (A) (A) (A) (A) (A) (A) (A) (A) (A) (A) (A) (A)
                 (A) (A) (A) (A) (A) (A) (A) (A) (A) (A) (A) (A)
                 (A) (A) (A) (A) (A) (A) (A) (A) (A) (A) (A) (A)
                 (A) (A) (A)
       Virtual   (A) (A) (A) (A) (A) (A) (A) (A) (A) (A) (A) (A)
                 (A) (A) (A) (A) (A) (A) (A) (A) (A) (A) (A) (A)
                 (A) (A) (A) (A) (A) (A) (A) (A) (A) (A) (A) (A)
                 (A) (A) (A) (A) (A) (A) (A) (A) (A) (A) (A) (A)
                 (A) (A) (A) (A) (A) (A) (A) (A) (A) (A) (A) (A)
                 (A) (A) (A) (A) (A) (A) (A) (A) (A) (A) (A) (A)
                 (A) (A) (A) (A) (A) (A) (A) (A) (A) (A) (A) (A)
                 (A) (A) (A) (A) (A) (A) (A) (A) (A) (A) (A) (A)
                 (A) (A) (A) (A) (A) (A) (A) (A) (A) (A) (A) (A)
                 (A) (A) (A) (A) (A) (A) (A) (A) (A) (A) (A) (A)
                 (A) (A) (A) (A) (A) (A) (A) (A) (A) (A) (A) (A)
                 (A) (A) (A) (A) (A) (A) (A) (A) (A) (A) (A) (A)
                 (A) (A) (A) (A) (A) (A) (A) (A) (A) (A) (A) (A)
                 (A) (A) (A) (A) (A) (A) (A) (A) (A) (A) (A) (A)
                 (A) (A) (A)
 Beta  Orbitals:
       Occupied  (A) (A) (A) (A) (A) (A) (A) (A) (A) (A) (A) (A)
                 (A) (A) (A) (A) (A) (A) (A) (A) (A) (A) (A) (A)
                 (A) (A) (A) (A) (A) (A) (A) (A) (A) (A) (A) (A)
                 (A) (A)
       Virtual   (A) (A) (A) (A) (A) (A) (A) (A) (A) (A) (A) (A)
                 (A) (A) (A) (A) (A) (A) (A) (A) (A) (A) (A) (A)
                 (A) (A) (A) (A) (A) (A) (A) (A) (A) (A) (A) (A)
                 (A) (A) (A) (A) (A) (A) (A) (A) (A) (A) (A) (A)
                 (A) (A) (A) (A) (A) (A) (A) (A) (A) (A) (A) (A)
                 (A) (A) (A) (A) (A) (A) (A) (A) (A) (A) (A) (A)
                 (A) (A) (A) (A) (A) (A) (A) (A) (A) (A) (A) (A)
                 (A) (A) (A) (A) (A) (A) (A) (A) (A) (A) (A) (A)
                 (A) (A) (A) (A) (A) (A) (A) (A) (A) (A) (A) (A)
                 (A) (A) (A) (A) (A) (A) (A) (A) (A) (A) (A) (A)
                 (A) (A) (A) (A) (A) (A) (A) (A) (A) (A) (A) (A)
                 (A) (A) (A) (A) (A) (A) (A) (A) (A) (A) (A) (A)
                 (A) (A) (A) (A) (A) (A) (A) (A) (A) (A) (A) (A)
                 (A) (A) (A) (A) (A) (A) (A) (A) (A) (A) (A) (A)
                 (A) (A) (A) (A)
 The electronic state is 2-A.
 Alpha  occ. eigenvalues --  -38.46157 -38.45962 -38.45773 -38.44780 -38.44499
 Alpha  occ. eigenvalues --  -38.44394 -38.44393  -2.21842  -2.21659  -2.21558
 Alpha  occ. eigenvalues --   -2.20540  -2.20270  -2.20151  -2.20145  -1.15519
 Alpha  occ. eigenvalues --   -1.15519  -1.15473  -1.15336  -1.15335  -1.15287
 Alpha  occ. eigenvalues --   -1.15171  -1.15171  -1.15171  -1.14230  -1.14214
 Alpha  occ. eigenvalues --   -1.14206  -1.13945  -1.13944  -1.13884  -1.13841
 Alpha  occ. eigenvalues --   -1.13822  -1.13822  -1.13808  -1.13808  -1.13728
 Alpha  occ. eigenvalues --   -0.14073  -0.12832  -0.12801  -0.11675
 Alpha virt. eigenvalues --   -0.08821  -0.05868  -0.04703  -0.02907  -0.02897
 Alpha virt. eigenvalues --   -0.02271  -0.02271  -0.02100  -0.02100  -0.02100
 Alpha virt. eigenvalues --   -0.01956  -0.01819  -0.01703  -0.01190  -0.00544
 Alpha virt. eigenvalues --   -0.00495   0.00058   0.00080   0.00118   0.00501
 Alpha virt. eigenvalues --    0.00502   0.00598   0.00736   0.00914   0.01165
 Alpha virt. eigenvalues --    0.01282   0.01300   0.01300   0.01307   0.01328
 Alpha virt. eigenvalues --    0.01332   0.01332   0.01332   0.01369   0.01752
 Alpha virt. eigenvalues --    0.01989   0.02044   0.02182   0.02311   0.02497
 Alpha virt. eigenvalues --    0.02542   0.02631   0.02708   0.02710   0.03281
 Alpha virt. eigenvalues --    0.03503   0.03740   0.03861   0.04096   0.04147
 Alpha virt. eigenvalues --    0.04797   0.05490   0.07103   0.07156   0.07402
 Alpha virt. eigenvalues --    0.07447   0.07469   0.07469   0.07469   0.07530
 Alpha virt. eigenvalues --    0.07530   0.07671   0.08016   0.08048   0.08078
 Alpha virt. eigenvalues --    0.08605   0.08660   0.08690   0.08936   0.09514
 Alpha virt. eigenvalues --    0.09514   0.10205   0.10364   0.10624   0.11040
 Alpha virt. eigenvalues --    0.12352   0.13573   0.14458   0.14648   0.17626
 Alpha virt. eigenvalues --    0.28468   0.28860   0.30026   0.30026   0.30284
 Alpha virt. eigenvalues --    0.31487   0.32709   0.32731   0.33225   0.33225
 Alpha virt. eigenvalues --    0.33225   0.33225   0.33225   0.33727   0.33727
 Alpha virt. eigenvalues --    0.34318   0.34328   0.34455   0.34487   0.34816
 Alpha virt. eigenvalues --    0.34847   0.35989   0.36094   0.37281   0.37281
 Alpha virt. eigenvalues --    0.38165   0.38240   0.39718   0.41268   0.41939
 Alpha virt. eigenvalues --    0.41939   0.41939   0.42045   0.42369   0.42784
 Alpha virt. eigenvalues --    0.42967   0.43001   0.43241   0.43588   0.43588
 Alpha virt. eigenvalues --    0.43773   0.43773   0.43774   0.44738   0.45188
 Alpha virt. eigenvalues --    0.45331   0.45784   0.46081   0.46081   0.47416
 Alpha virt. eigenvalues --    0.48255   0.49653   0.50607   0.52341   0.63239
 Alpha virt. eigenvalues --    0.68765   1.98666   1.99117   2.00572   2.04406
 Alpha virt. eigenvalues --    2.07299   2.12025   2.15345   4.41516   4.41607
 Alpha virt. eigenvalues --    4.42758   4.42783   4.42809   4.42809   4.42809
 Alpha virt. eigenvalues --    4.43046   4.43120   4.43536   4.43730   4.43998
 Alpha virt. eigenvalues --    4.43998   4.44694   4.45041   4.45041   4.45833
 Alpha virt. eigenvalues --    4.46119   4.46718   4.55070   4.63674  96.17682
 Alpha virt. eigenvalues --   96.17812  96.19329  96.24121  96.27517  96.33482
 Alpha virt. eigenvalues --   96.37984
  Beta  occ. eigenvalues --  -38.46157 -38.45962 -38.45588 -38.44780 -38.44499
  Beta  occ. eigenvalues --  -38.44394 -38.44393  -2.21842  -2.21659  -2.21212
  Beta  occ. eigenvalues --   -2.20540  -2.20270  -2.20151  -2.20145  -1.15519
  Beta  occ. eigenvalues --   -1.15519  -1.15473  -1.15336  -1.15335  -1.15287
  Beta  occ. eigenvalues --   -1.14936  -1.14936  -1.14936  -1.14230  -1.14214
  Beta  occ. eigenvalues --   -1.14206  -1.13945  -1.13944  -1.13884  -1.13841
  Beta  occ. eigenvalues --   -1.13822  -1.13822  -1.13808  -1.13808  -1.13728
  Beta  occ. eigenvalues --   -0.14073  -0.12832  -0.11675
  Beta virt. eigenvalues --   -0.08821  -0.06221  -0.05868  -0.04703  -0.02907
  Beta virt. eigenvalues --   -0.02897  -0.02271  -0.02271  -0.01956  -0.01819
  Beta virt. eigenvalues --   -0.01703  -0.01190  -0.00544  -0.00495  -0.00087
  Beta virt. eigenvalues --   -0.00087  -0.00087   0.00058   0.00080   0.00501
  Beta virt. eigenvalues --    0.00502   0.00598   0.00736   0.00846   0.00914
  Beta virt. eigenvalues --    0.01165   0.01282   0.01300   0.01300   0.01307
  Beta virt. eigenvalues --    0.01328   0.01369   0.01752   0.01989   0.02044
  Beta virt. eigenvalues --    0.02182   0.02246   0.02246   0.02246   0.02311
  Beta virt. eigenvalues --    0.02497   0.02542   0.02631   0.02708   0.02710
  Beta virt. eigenvalues --    0.03281   0.03503   0.03740   0.03861   0.04096
  Beta virt. eigenvalues --    0.04147   0.04797   0.05490   0.07103   0.07156
  Beta virt. eigenvalues --    0.07402   0.07447   0.07530   0.07530   0.07671
  Beta virt. eigenvalues --    0.08048   0.08078   0.08605   0.08660   0.08690
  Beta virt. eigenvalues --    0.08825   0.08825   0.08825   0.08936   0.09456
  Beta virt. eigenvalues --    0.09514   0.09514   0.10205   0.10364   0.10624
  Beta virt. eigenvalues --    0.11040   0.12352   0.13573   0.14458   0.14648
  Beta virt. eigenvalues --    0.17626   0.28468   0.28860   0.30026   0.30026
  Beta virt. eigenvalues --    0.30284   0.31487   0.32709   0.32731   0.33727
  Beta virt. eigenvalues --    0.33727   0.34318   0.34328   0.34455   0.34487
  Beta virt. eigenvalues --    0.34816   0.34847   0.35323   0.35323   0.35323
  Beta virt. eigenvalues --    0.35323   0.35323   0.35989   0.36094   0.37281
  Beta virt. eigenvalues --    0.37281   0.38165   0.38240   0.39718   0.41268
  Beta virt. eigenvalues --    0.42045   0.42369   0.42784   0.42967   0.43001
  Beta virt. eigenvalues --    0.43241   0.43433   0.43433   0.43433   0.43588
  Beta virt. eigenvalues --    0.43588   0.43773   0.43773   0.43774   0.44738
  Beta virt. eigenvalues --    0.45188   0.45331   0.45784   0.46081   0.46081
  Beta virt. eigenvalues --    0.47416   0.48255   0.49653   0.50607   0.52341
  Beta virt. eigenvalues --    0.63239   0.68765   1.99117   1.99534   2.00572
  Beta virt. eigenvalues --    2.04406   2.07299   2.12025   2.15345   4.41516
  Beta virt. eigenvalues --    4.41607   4.42758   4.42783   4.43046   4.43120
  Beta virt. eigenvalues --    4.43131   4.43131   4.43131   4.43536   4.43730
  Beta virt. eigenvalues --    4.43998   4.43998   4.44694   4.45041   4.45041
  Beta virt. eigenvalues --    4.45833   4.46119   4.46718   4.55070   4.63674
  Beta virt. eigenvalues --   96.17812  96.17951  96.19329  96.24121  96.27517
  Beta virt. eigenvalues --   96.33482  96.37984
          Condensed to atoms (all electrons):
               1          2          3          4          5          6
     1  Na  11.000000   0.000000   0.000000   0.000000   0.000000   0.000000
     2  Na   0.000000  10.824352   0.221039  -0.121431  -0.026588   0.000000
     3  Na   0.000000   0.221039  11.251301   0.003858  -0.187857   0.000000
     4  Na   0.000000  -0.121431   0.003858  11.013340   0.159741   0.000000
     5  Na   0.000000  -0.026588  -0.187857   0.159741  10.813480   0.000000
     6  Na   0.000000   0.000000   0.000000   0.000000   0.000000  10.670378
     7  Na   0.000000   0.000000   0.000000   0.000000   0.000000   0.329620
               7
     1  Na   0.000000
     2  Na   0.000000
     3  Na   0.000000
     4  Na   0.000000
     5  Na   0.000000
     6  Na   0.329620
     7  Na  10.670381
          Atomic-Atomic Spin Densities.
               1          2          3          4          5          6
     1  Na   1.000000   0.000000   0.000000   0.000000   0.000000   0.000000
     2  Na   0.000000   0.000000   0.000000  -0.000000  -0.000000   0.000000
     3  Na   0.000000   0.000000   0.000000  -0.000000  -0.000000   0.000000
     4  Na   0.000000  -0.000000  -0.000000   0.000000   0.000000   0.000000
     5  Na   0.000000  -0.000000  -0.000000   0.000000   0.000000   0.000000
     6  Na   0.000000   0.000000   0.000000   0.000000   0.000000  -0.000000
     7  Na   0.000000   0.000000   0.000000   0.000000   0.000000  -0.000000
               7
     1  Na   0.000000
     2  Na   0.000000
     3  Na   0.000000
     4  Na   0.000000
     5  Na   0.000000
     6  Na  -0.000000
     7  Na   0.000000
 Mulliken charges and spin densities:
               1          2
     1  Na  -0.000000   1.000000
     2  Na   0.102627   0.000000
     3  Na  -0.288342   0.000000
     4  Na  -0.055509  -0.000000
     5  Na   0.241224   0.000000
     6  Na   0.000001  -0.000000
     7  Na  -0.000001   0.000000
 Sum of Mulliken charges =  -0.00000   1.00000
 Mulliken charges and spin densities with hydrogens summed into heavy atoms:
               1          2
     1  Na  -0.000000   1.000000
     2  Na   0.102627   0.000000
     3  Na  -0.288342   0.000000
     4  Na  -0.055509  -0.000000
     5  Na   0.241224   0.000000
     6  Na   0.000001  -0.000000
     7  Na  -0.000001   0.000000
 Electronic spatial extent (au):  <R**2>=         764558.1047
 Charge=             -0.0000 electrons
 Dipole moment (field-independent basis, Debye):
    X=              0.1633    Y=             -0.2252    Z=              0.1290  Tot=              0.3066
 Quadrupole moment (field-independent basis, Debye-Ang):
   XX=            -42.6866   YY=            -60.4661   ZZ=            -73.7337
   XY=             -5.1411   XZ=              5.3511   YZ=              3.0860
 Traceless Quadrupole moment (field-independent basis, Debye-Ang):
   XX=             16.2755   YY=             -1.5040   ZZ=            -14.7715
   XY=             -5.1411   XZ=              5.3511   YZ=              3.0860
 Octapole moment (field-independent basis, Debye-Ang**2):
  XXX=           1977.4390  YYY=           -195.9151  ZZZ=              1.0234  XYY=           -285.7571
  XXY=           -876.2498  XXZ=            141.5290  XZZ=           -293.9770  YZZ=             33.6296
  YYZ=            207.5738  XYZ=           -497.6951
 Hexadecapole moment (field-independent basis, Debye-Ang**3):
 XXXX=        -781295.1970 YYYY=        -445999.7062 ZZZZ=           -484.6800 XXXY=         -43042.8539
 XXXZ=           7383.1719 YYYX=         -24335.7803 YYYZ=           1386.7455 ZZZX=             -2.8923
 ZZZY=             30.2800 XXYY=        -171674.5703 XXZZ=        -122637.1227 YYZZ=         -76829.1220
 XXYZ=          20803.6335 YYXZ=          -6792.6690 ZZXY=          -4608.4109
 N-N= 1.035639919710D+02 E-N=-2.935491795589D+03  KE= 1.132744278026D+03
                          Isotropic Fermi Contact Couplings
        Atom                 a.u.       MegaHertz       Gauss      10(-4) cm-1
     1  Na(23)             0.79296     938.09920     334.73712     312.91621
     2  Na(23)            -0.00000      -0.00000      -0.00000      -0.00000
     3  Na(23)            -0.00000      -0.00000      -0.00000      -0.00000
     4  Na(23)            -0.00000      -0.00000      -0.00000      -0.00000
     5  Na(23)             0.00000       0.00000       0.00000       0.00000
     6  Na(23)             0.00000       0.00000       0.00000       0.00000
     7  Na(23)            -0.00000      -0.00000      -0.00000      -0.00000
 --------------------------------------------------------
       Center         ----  Spin Dipole Couplings  ----
                      3XX-RR        3YY-RR        3ZZ-RR
 --------------------------------------------------------
     1   Atom        0.000000      0.000000     -0.000000
     2   Atom       -0.000000      0.000000     -0.000000
     3   Atom       -0.000000      0.000000     -0.000000
     4   Atom       -0.000000      0.000000     -0.000000
     5   Atom       -0.000000      0.000000     -0.000000
     6   Atom        0.000000     -0.000000     -0.000000
     7   Atom        0.000000     -0.000000     -0.000000
 --------------------------------------------------------
                        XY            XZ            YZ
 --------------------------------------------------------
     1   Atom        0.000000      0.000000      0.000000
     2   Atom        0.000000      0.000000      0.000000
     3   Atom        0.000000      0.000000      0.000000
     4   Atom        0.000000     -0.000000     -0.000000
     5   Atom        0.000000     -0.000000     -0.000000
     6   Atom        0.000000     -0.000000     -0.000000
     7   Atom        0.000000      0.000000      0.000000
 --------------------------------------------------------


 ---------------------------------------------------------------------------------
              Anisotropic Spin Dipole Couplings in Principal Axis System
 ---------------------------------------------------------------------------------

       Atom             a.u.   MegaHertz   Gauss  10(-4) cm-1        Axes

              Baa    -0.0000    -0.000    -0.000    -0.000 -0.6914  0.7099 -0.1342
     1 Na(23) Bbb    -0.0000    -0.000    -0.000    -0.000 -0.1918 -0.0012  0.9814
              Bcc     0.0000     0.000     0.000     0.000  0.6965  0.7043  0.1370
 
              Baa    -0.0000    -0.000    -0.000    -0.000 -0.4862  0.1944  0.8520
     2 Na(23) Bbb    -0.0000    -0.000    -0.000    -0.000  0.7887 -0.3221  0.5236
              Bcc     0.0000     0.000     0.000     0.000  0.3762  0.9265  0.0033
 
              Baa    -0.0000    -0.000    -0.000    -0.000  0.8962 -0.3262  0.3008
     3 Na(23) Bbb    -0.0000    -0.000    -0.000    -0.000 -0.2841  0.0989  0.9537
              Bcc     0.0000     0.000     0.000     0.000  0.3408  0.9401  0.0040
 
              Baa    -0.0000    -0.000    -0.000    -0.000  0.0499 -0.0144  0.9986
     4 Na(23) Bbb    -0.0000    -0.000    -0.000    -0.000  0.9477 -0.3150 -0.0519
              Bcc     0.0000     0.000     0.000     0.000  0.3153  0.9490 -0.0020
 
              Baa    -0.0000    -0.000    -0.000    -0.000 -0.6169  0.1833  0.7654
     5 Na(23) Bbb    -0.0000    -0.000    -0.000    -0.000  0.7372 -0.2059  0.6435
              Bcc     0.0000     0.000     0.000     0.000  0.2756  0.9612 -0.0081
 
              Baa    -0.0000    -0.000    -0.000    -0.000 -0.4166  0.9077  0.0508
     6 Na(23) Bbb    -0.0000    -0.000    -0.000    -0.000  0.0292 -0.0424  0.9987
              Bcc     0.0000     0.000     0.000     0.000  0.9086  0.4175 -0.0088
 
              Baa    -0.0000    -0.000    -0.000    -0.000 -0.3185  0.6733 -0.6673
     7 Na(23) Bbb    -0.0000    -0.000    -0.000    -0.000 -0.2943  0.5989  0.7448
              Bcc     0.0000     0.000     0.000     0.000  0.9011  0.4336  0.0074
 

 ---------------------------------------------------------------------------------

 No NMR shielding tensors so no spin-rotation constants.
 Leave Link  601 at Thu Nov 23 12:39:52 2023, MaxMem=   104857600 cpu:              17.4 elap:              21.0
 (Enter /home/sekinelabo/g16/l701.exe)
 ... and contract with generalized density number  0.
 Compute integral first derivatives.
 Leave Link  701 at Thu Nov 23 12:40:01 2023, MaxMem=   104857600 cpu:               7.3 elap:               7.9
 (Enter /home/sekinelabo/g16/l702.exe)
 L702 exits ... SP integral derivatives will be done elsewhere.
 Leave Link  702 at Thu Nov 23 12:40:02 2023, MaxMem=   104857600 cpu:               0.7 elap:               1.0
 (Enter /home/sekinelabo/g16/l703.exe)
 Integral derivatives from FoFJK, PRISM(SPDF).
 Compute integral first derivatives, UseDBF=F ICtDFT=           0.
 Calling FoFJK, ICntrl=      2127 FMM=F ISym2X=0 I1Cent= 0 IOpClX= 1 NMat=1 NMatS=1 NMatT=0.
 FoFJK:  IHMeth= 1 ICntrl=    2127 DoSepK=F KAlg= 0 I1Cent=           0 FoldK=F
 IRaf=         0 NMat=       1 IRICut=       1 DoRegI=T DoRafI=F ISym2E= 0 IDoP0=0 IntGTp=1.
 FoFCou: FMM=F IPFlag=           0 FMFlag=      100000 FMFlg1=         800
         NFxFlg=           0 DoJE=F BraDBF=F KetDBF=F FulRan=T
         wScrn=  0.000000 ICntrl=      2127 IOpCl=  1 I1Cent=           0 NGrid=           0
         NMat0=    1 NMatS0=      1 NMatT0=    0 NMatD0=    1 NMtDS0=    0 NMtDT0=    0
 Symmetry not used in FoFCou.
 Leave Link  703 at Thu Nov 23 12:40:25 2023, MaxMem=   104857600 cpu:              21.2 elap:              22.9
 (Enter /home/sekinelabo/g16/l716.exe)
 Dipole        = 6.42606493D-02-8.86088854D-02 5.07328450D-02
 ***** Axes restored to original set *****
 -------------------------------------------------------------------
 Center     Atomic                   Forces (Hartrees/Bohr)
 Number     Number              X              Y              Z
 -------------------------------------------------------------------
      1       11           0.000000000   -0.000000000    0.000000000
      2       11          -0.005044038    0.003651413    0.000121632
      3       11           0.007757309   -0.005765236    0.000523080
      4       11          -0.008439089    0.003937092   -0.001502404
      5       11           0.005725818   -0.001823268    0.000857692
      6       11          -0.001126667   -0.002883589    0.002493153
      7       11           0.001126667    0.002883589   -0.002493153
 -------------------------------------------------------------------
 Cartesian Forces:  Max     0.008439089 RMS     0.003715469
 Z-matrix is all fixed cartesians, so copy forces.
 Force constants in Cartesian coordinates: 
                1             2             3             4             5 
      1  0.100000D+01
      2  0.000000D+00  0.100000D+01
      3  0.000000D+00  0.000000D+00  0.100000D+01
      4  0.000000D+00  0.000000D+00  0.000000D+00  0.100000D+01
      5  0.000000D+00  0.000000D+00  0.000000D+00  0.000000D+00  0.100000D+01
      6  0.000000D+00  0.000000D+00  0.000000D+00  0.000000D+00  0.000000D+00
      7  0.000000D+00  0.000000D+00  0.000000D+00  0.000000D+00  0.000000D+00
      8  0.000000D+00  0.000000D+00  0.000000D+00  0.000000D+00  0.000000D+00
      9  0.000000D+00  0.000000D+00  0.000000D+00  0.000000D+00  0.000000D+00
     10  0.000000D+00  0.000000D+00  0.000000D+00  0.000000D+00  0.000000D+00
     11  0.000000D+00  0.000000D+00  0.000000D+00  0.000000D+00  0.000000D+00
     12  0.000000D+00  0.000000D+00  0.000000D+00  0.000000D+00  0.000000D+00
     13  0.000000D+00  0.000000D+00  0.000000D+00  0.000000D+00  0.000000D+00
     14  0.000000D+00  0.000000D+00  0.000000D+00  0.000000D+00  0.000000D+00
     15  0.000000D+00  0.000000D+00  0.000000D+00  0.000000D+00  0.000000D+00
     16  0.000000D+00  0.000000D+00  0.000000D+00  0.000000D+00  0.000000D+00
     17  0.000000D+00  0.000000D+00  0.000000D+00  0.000000D+00  0.000000D+00
     18  0.000000D+00  0.000000D+00  0.000000D+00  0.000000D+00  0.000000D+00
     19  0.000000D+00  0.000000D+00  0.000000D+00  0.000000D+00  0.000000D+00
     20  0.000000D+00  0.000000D+00  0.000000D+00  0.000000D+00  0.000000D+00
     21  0.000000D+00  0.000000D+00  0.000000D+00  0.000000D+00  0.000000D+00
                6             7             8             9            10 
      6  0.100000D+01
      7  0.000000D+00  0.223626D-01
      8  0.000000D+00 -0.113733D-01  0.157659D-01
      9  0.000000D+00  0.408863D-02 -0.399624D-02  0.111564D-02
     10  0.000000D+00 -0.234782D-01  0.995881D-02 -0.391201D-02  0.344207D-01
     11  0.000000D+00  0.811327D-02 -0.198994D-01  0.451237D-02 -0.837183D-02
     12  0.000000D+00 -0.355760D-02  0.466955D-02 -0.119971D-02  0.453919D-02
     13  0.000000D+00  0.111561D-02  0.141450D-02 -0.176622D-03 -0.109425D-01
     14  0.000000D+00  0.326005D-02  0.413348D-02 -0.516127D-03 -0.158699D-02
     15  0.000000D+00 -0.531032D-03 -0.673306D-03  0.840724D-04 -0.627180D-03
     16  0.000000D+00  0.000000D+00  0.000000D+00  0.000000D+00  0.000000D+00
     17  0.000000D+00  0.000000D+00  0.000000D+00  0.000000D+00  0.000000D+00
     18  0.000000D+00  0.000000D+00  0.000000D+00  0.000000D+00  0.000000D+00
     19  0.000000D+00  0.000000D+00  0.000000D+00  0.000000D+00  0.000000D+00
     20  0.000000D+00  0.000000D+00  0.000000D+00  0.000000D+00  0.000000D+00
     21  0.000000D+00  0.000000D+00  0.000000D+00  0.000000D+00  0.000000D+00
               11            12            13            14            15 
     11  0.288190D-01
     12 -0.624728D-02  0.158629D-02
     13  0.258559D-03 -0.981590D-03  0.982688D-02
     14 -0.891962D-02  0.157773D-02 -0.167306D-02  0.478614D-02
     15  0.173490D-02 -0.386578D-03  0.115821D-02 -0.106160D-02  0.302506D-03
     16  0.000000D+00  0.000000D+00  0.000000D+00  0.000000D+00  0.000000D+00
     17  0.000000D+00  0.000000D+00  0.000000D+00  0.000000D+00  0.000000D+00
     18  0.000000D+00  0.000000D+00  0.000000D+00  0.000000D+00  0.000000D+00
     19  0.000000D+00  0.000000D+00  0.000000D+00  0.000000D+00  0.000000D+00
     20  0.000000D+00  0.000000D+00  0.000000D+00  0.000000D+00  0.000000D+00
     21  0.000000D+00  0.000000D+00  0.000000D+00  0.000000D+00  0.000000D+00
               16            17            18            19            20 
     16  0.845309D+00
     17 -0.358420D+00  0.169508D+00
     18 -0.687182D-02 -0.100440D-01  0.963178D-02
     19 -0.196615D-02 -0.503098D-02  0.435003D-02  0.845309D+00
     20 -0.503098D-02 -0.128732D-01  0.111308D-01 -0.358420D+00  0.169508D+00
     21  0.435003D-02  0.111308D-01 -0.962424D-02 -0.687182D-02 -0.100440D-01
               21 
     21  0.963178D-02
 Leave Link  716 at Thu Nov 23 12:40:26 2023, MaxMem=   104857600 cpu:               0.8 elap:               1.0
 (Enter /home/sekinelabo/g16/l103.exe)

 GradGradGradGradGradGradGradGradGradGradGradGradGradGradGradGradGradGrad
 Berny optimization.
 Search for a local minimum.
 Step number   1 out of a maximum of    2
 All quantities printed in internal units (Hartrees-Bohrs-Radians)
 Second derivative matrix not updated -- first step.
 ITU=  0
     Eigenvalues ---   -0.00000  -0.00000   0.00000   0.00109   0.01411
     Eigenvalues ---    0.03466   0.04889   0.07022   0.28271   0.57873
     Eigenvalues ---    0.76012   0.86514   0.99989   0.99999   1.00000
 Eigenvalue     1 is  -7.77D-16 should be greater than     0.000000 Eigenvector:
                          Y5        Y3        X3        X5        Z5
   1                    0.58402  -0.54481  -0.34712   0.29858  -0.29195
                          Z3        Z4        Y4        Y6        Z7
   1                    0.21612   0.09752  -0.08743   0.03686  -0.02809
 Eigenvalue     2 is  -1.11D-16 should be greater than     0.000000 Eigenvector:
                          Z3        Z7        Z6        Z5        Y7
   1                    0.51635  -0.40895   0.37384  -0.37087  -0.29577
                          Y6        Y3        Y5        X7        X6
   1                    0.28272   0.20410  -0.18799  -0.12869   0.12296
 Eigenvalue     3 is   2.22D-16 Eigenvector:
                          Z4        Z5        Z3        Y5        Y4
   1                    0.78515  -0.47255  -0.30125  -0.17423   0.16452
                          X4        X3        Z7        Y7        Y3
   1                   -0.07081   0.06926  -0.02882  -0.02148   0.01846
 Quadratic step=8.153D+00 exceeds max=3.000D-01 adjusted using Lamda=-6.130D-03.
 Angle between NR and scaled steps=  60.69 degrees.
 Angle between quadratic step and forces=  41.49 degrees.
 Linear search not attempted -- first point.
 B after Tr=     0.000000    0.000000    0.000000
         Rot=    1.000000   -0.000000    0.000000   -0.000000 Ang=   0.00 deg.
 Variable       Old X    -DE/DX   Delta X   Delta X   Delta X     New X
                                 (Linear)    (Quad)   (Total)
    X1       27.67428   0.00000   0.00000  -0.00118  -0.00118  27.67311
    Y1      185.64386  -0.00000   0.00000   0.00117   0.00117 185.64503
    Z1        3.27527   0.00000   0.00000  -0.00321  -0.00321   3.27206
    X2       23.76161  -0.00504   0.00000  -0.00668  -0.00668  23.75492
    Y2        1.11384   0.00365   0.00000   0.00480   0.00480   1.11865
    Z2        3.03739   0.00012   0.00000   0.00029   0.00029   3.03769
    X3       17.04117   0.00776   0.00000   0.03486   0.03486  17.07603
    Y3        5.93187  -0.00577   0.00000  -0.09005  -0.09005   5.84182
    Z3        3.18708   0.00052   0.00000  -0.10613  -0.10613   3.08095
    X4       12.45692  -0.00844   0.00000  -0.16678  -0.16678  12.29014
    Y4        9.41516   0.00394   0.00000   0.06633   0.06633   9.48149
    Z4        2.12774  -0.00150   0.00000   0.03270   0.03270   2.16044
    X5        5.33226   0.00573   0.00000   0.14249   0.14249   5.47475
    Y5       11.68348  -0.00182   0.00000   0.01490   0.01490  11.69837
    Z5        1.08535   0.00086   0.00000   0.07096   0.07096   1.15632
    X6      188.58522  -0.00113   0.00000  -0.02541  -0.02541 188.55981
    Y6        6.99448  -0.00288   0.00000  -0.05476  -0.05476   6.93972
    Z6        0.17038   0.00249   0.00000   0.04192   0.04192   0.21230
    X7      186.82569   0.00113   0.00000   0.02271   0.02271 186.84841
    Y7        2.49223   0.00288   0.00000   0.05761   0.05761   2.54984
    Z7        4.06325  -0.00249   0.00000  -0.03654  -0.03654   4.02672
         Item               Value     Threshold  Converged?
 Maximum Force            0.008439     0.000450     NO 
 RMS     Force            0.003715     0.000300     NO 
 Maximum Displacement     0.166784     0.001800     NO 
 RMS     Displacement     0.065497     0.001200     NO 
 Predicted change in Energy=-2.191134D-03
 GradGradGradGradGradGradGradGradGradGradGradGradGradGradGradGradGradGrad

 Leave Link  103 at Thu Nov 23 12:40:29 2023, MaxMem=   104857600 cpu:               2.9 elap:               3.1
 (Enter /home/sekinelabo/g16/l9999.exe)
 1\1\GINC-SEKINELABO-XA7R-R37\Force\UB3LYP\6-311+G(d)\Na7(2)\SEKINELABO
 \23-Nov-2023\0\\#P B3LYP/6-311+g(d) force\\DPGEN\\0,2\Na,14.6446,98.23
 85,1.7332\Na,12.5741,0.58942,1.60732\Na,9.0178,3.13901,1.68653\Na,6.59
 192,4.98229,1.12595\Na,2.82171,6.18263,0.574345\Na,99.795,3.70132,0.09
 0163\Na,98.8639,1.31883,2.15018\\Version=ES64L-G16RevB.01\State=2-A\HF
 =-1136.0690465\S2=0.750009\S2-1=0.\S2A=0.75\RMSD=6.782e-09\RMSF=3.715e
 -03\Dipole=-0.0941351,-0.0557086,-0.0508912\Quadrupole=12.8139216,-1.7
 926655,-11.0212561,-2.1958621,2.7111575,-3.637421\PG=C01 [X(Na7)]\\@


 THERE IS MORE TO LIFE THAN INCREASING ITS SPEED.

                                       -- GANDHI
 Job cpu time:       0 days  0 hours  8 minutes 10.1 seconds.
 Elapsed time:       0 days  0 hours 10 minutes  8.1 seconds.
 File lengths (MBytes):  RWF=     46 Int=      0 D2E=      0 Chk=      4 Scr=      1
 Normal termination of Gaussian 16 at Thu Nov 23 12:40:30 2023.
