 Entering Gaussian System, Link 0=g16
 Initial command:
 /home/sekinelabo/g16/l1.exe "/home/sekinelabo/g16temp/Gau-1046273.inp" -scrdir="/home/sekinelabo/g16temp/"
 Entering Link 1 = /home/sekinelabo/g16/l1.exe PID=   1046296.
  
 Copyright (c) 1988-2017, Gaussian, Inc.  All Rights Reserved.
  
 This is part of the Gaussian(R) 16 program.  It is based on
 the Gaussian(R) 09 system (copyright 2009, Gaussian, Inc.),
 the Gaussian(R) 03 system (copyright 2003, Gaussian, Inc.),
 the Gaussian(R) 98 system (copyright 1998, Gaussian, Inc.),
 the Gaussian(R) 94 system (copyright 1995, Gaussian, Inc.),
 the Gaussian 92(TM) system (copyright 1992, Gaussian, Inc.),
 the Gaussian 90(TM) system (copyright 1990, Gaussian, Inc.),
 the Gaussian 88(TM) system (copyright 1988, Gaussian, Inc.),
 the Gaussian 86(TM) system (copyright 1986, Carnegie Mellon
 University), and the Gaussian 82(TM) system (copyright 1983,
 Carnegie Mellon University). Gaussian is a federally registered
 trademark of Gaussian, Inc.
  
 This software contains proprietary and confidential information,
 including trade secrets, belonging to Gaussian, Inc.
  
 This software is provided under written license and may be
 used, copied, transmitted, or stored only in accord with that
 written license.
  
 The following legend is applicable only to US Government
 contracts under FAR:
  
                    RESTRICTED RIGHTS LEGEND
  
 Use, reproduction and disclosure by the US Government is
 subject to restrictions as set forth in subparagraphs (a)
 and (c) of the Commercial Computer Software - Restricted
 Rights clause in FAR 52.227-19.
  
 Gaussian, Inc.
 340 Quinnipiac St., Bldg. 40, Wallingford CT 06492
  
  
 ---------------------------------------------------------------
 Warning -- This program may not be used in any manner that
 competes with the business of Gaussian, Inc. or will provide
 assistance to any competitor of Gaussian, Inc.  The licensee
 of this program is prohibited from giving any competitor of
 Gaussian, Inc. access to this program.  By using this program,
 the user acknowledges that Gaussian, Inc. is engaged in the
 business of creating and licensing software in the field of
 computational chemistry and represents and warrants to the
 licensee that it is not a competitor of Gaussian, Inc. and that
 it will not use this program in any manner prohibited above.
 ---------------------------------------------------------------
  

 Cite this work as:
 Gaussian 16, Revision B.01,
 M. J. Frisch, G. W. Trucks, H. B. Schlegel, G. E. Scuseria, 
 M. A. Robb, J. R. Cheeseman, G. Scalmani, V. Barone, 
 G. A. Petersson, H. Nakatsuji, X. Li, M. Caricato, A. V. Marenich, 
 J. Bloino, B. G. Janesko, R. Gomperts, B. Mennucci, H. P. Hratchian, 
 J. V. Ortiz, A. F. Izmaylov, J. L. Sonnenberg, D. Williams-Young, 
 F. Ding, F. Lipparini, F. Egidi, J. Goings, B. Peng, A. Petrone, 
 T. Henderson, D. Ranasinghe, V. G. Zakrzewski, J. Gao, N. Rega, 
 G. Zheng, W. Liang, M. Hada, M. Ehara, K. Toyota, R. Fukuda, 
 J. Hasegawa, M. Ishida, T. Nakajima, Y. Honda, O. Kitao, H. Nakai, 
 T. Vreven, K. Throssell, J. A. Montgomery, Jr., J. E. Peralta, 
 F. Ogliaro, M. J. Bearpark, J. J. Heyd, E. N. Brothers, K. N. Kudin, 
 V. N. Staroverov, T. A. Keith, R. Kobayashi, J. Normand, 
 K. Raghavachari, A. P. Rendell, J. C. Burant, S. S. Iyengar, 
 J. Tomasi, M. Cossi, J. M. Millam, M. Klene, C. Adamo, R. Cammi, 
 J. W. Ochterski, R. L. Martin, K. Morokuma, O. Farkas, 
 J. B. Foresman, and D. J. Fox, Gaussian, Inc., Wallingford CT, 2016.
 
 ******************************************
 Gaussian 16:  ES64L-G16RevB.01 20-Dec-2017
                23-Nov-2023 
 ******************************************
 %nprocshared=14
 Will use up to   14 processors via shared memory.
 -------------------------
 #P B3LYP/6-311+g(d) force
 -------------------------
 1/10=7,30=1,38=1/1,3;
 2/12=2,17=6,18=5,40=1/2;
 3/5=4,6=6,7=11,11=2,25=1,30=1,71=1,74=-5/1,2,3;
 4//1;
 5/5=2,38=5/2;
 6/7=2,8=2,9=2,10=2,28=1/1;
 7/29=1/1,2,3,16;
 1/10=7,30=1/3;
 99//99;
 Leave Link    1 at Thu Nov 23 12:30:20 2023, MaxMem=           0 cpu:               0.5 elap:               0.4
 (Enter /home/sekinelabo/g16/l101.exe)
 -----
 DPGEN
 -----
 Symbolic Z-matrix:
 Charge =  0 Multiplicity = 2
 Na                    15.3033   99.4214   1.4771 
 Na                    12.2816   0.06137   1.68842 
 Na                    8.90898   2.75919   1.85098 
 Na                    6.04155   3.57155   1.79356 
 Na                    3.09049   5.57886   99.967 
 Na                    99.4392   4.05259   99.6119 
 Na                    99.2438   2.70701   2.57872 
 
 ITRead=  0  0  0  0  0  0  0
 MicOpt= -1 -1 -1 -1 -1 -1 -1
 NAtoms=      7 NQM=        7 NQMF=       0 NMMI=      0 NMMIF=      0
                NMic=       0 NMicF=      0.
                    Isotopes and Nuclear Properties:
 (Nuclear quadrupole moments (NQMom) in fm**2, nuclear magnetic moments (NMagM)
  in nuclear magnetons)

  Atom         1           2           3           4           5           6           7
 IAtWgt=          23          23          23          23          23          23          23
 AtmWgt=  22.9897697  22.9897697  22.9897697  22.9897697  22.9897697  22.9897697  22.9897697
 NucSpn=           3           3           3           3           3           3           3
 AtZEff=  -0.0000000  -0.0000000  -0.0000000  -0.0000000  -0.0000000  -0.0000000  -0.0000000
 NQMom=   10.4000000  10.4000000  10.4000000  10.4000000  10.4000000  10.4000000  10.4000000
 NMagM=    2.2175200   2.2175200   2.2175200   2.2175200   2.2175200   2.2175200   2.2175200
 AtZNuc=  11.0000000  11.0000000  11.0000000  11.0000000  11.0000000  11.0000000  11.0000000
 Leave Link  101 at Thu Nov 23 12:30:23 2023, MaxMem=   104857600 cpu:               2.6 elap:               3.1
 (Enter /home/sekinelabo/g16/l103.exe)

 GradGradGradGradGradGradGradGradGradGradGradGradGradGradGradGradGradGrad
 Berny optimization.
 Initialization pass.
 Trust Radius=3.00D-01 FncErr=1.00D-07 GrdErr=1.00D-07 EigMax=2.50D+02 EigMin=1.00D-04
 Number of steps in this run=      2 maximum allowed number of steps=      2.
 GradGradGradGradGradGradGradGradGradGradGradGradGradGradGradGradGradGrad

 Leave Link  103 at Thu Nov 23 12:30:24 2023, MaxMem=   104857600 cpu:               0.5 elap:               0.5
 (Enter /home/sekinelabo/g16/l202.exe)
                          Input orientation:                          
 ---------------------------------------------------------------------
 Center     Atomic      Atomic             Coordinates (Angstroms)
 Number     Number       Type             X           Y           Z
 ---------------------------------------------------------------------
      1         11           0       15.303300   99.421400    1.477100
      2         11           0       12.281600    0.061374    1.688420
      3         11           0        8.908980    2.759190    1.850980
      4         11           0        6.041550    3.571550    1.793560
      5         11           0        3.090490    5.578860   99.967004
      6         11           0       99.439200    4.052590   99.611900
      7         11           0       99.243800    2.707010    2.578720
 ---------------------------------------------------------------------
                    Distance matrix (angstroms):
                    1          2          3          4          5
     1  Na   0.000000
     2  Na  99.406187   0.000000
     3  Na  96.874197   4.321944   0.000000
     4  Na  96.296801   7.160350   2.980836   0.000000
     5  Na 136.586369  98.861515  98.328834  98.238298   0.000000
     6  Na 160.637787 131.154051 133.246355 135.247107  96.361452
     7  Na 128.065977  87.006990  90.337766  93.209567 136.887488
                    6          7
     6  Na   0.000000
     7  Na  97.042706   0.000000
 Stoichiometry    Na7(2)
 Framework group  C1[X(Na7)]
 Deg. of freedom    15
 Full point group                 C1      NOp   1
 Largest Abelian subgroup         C1      NOp   1
 Largest concise Abelian subgroup C1      NOp   1
                         Standard orientation:                         
 ---------------------------------------------------------------------
 Center     Atomic      Atomic             Coordinates (Angstroms)
 Number     Number       Type             X           Y           Z
 ---------------------------------------------------------------------
      1         11           0      -58.734682   -0.585854   67.471559
      2         11           0      -28.954086   -0.548303  -27.368858
      3         11           0      -31.594628   -3.401569  -25.480575
      4         11           0      -33.521298   -5.670847  -25.326620
      5         11           0       38.852617  -67.419826   -0.834923
      6         11           0       93.726189    9.544488   17.897802
      7         11           0       20.225888   68.081911   -6.358385
 ---------------------------------------------------------------------
 Rotational constants (GHZ):           0.0013512           0.0009134           0.0008318
 Leave Link  202 at Thu Nov 23 12:30:25 2023, MaxMem=   104857600 cpu:               0.9 elap:               1.1
 (Enter /home/sekinelabo/g16/l301.exe)
 Standard basis: 6-311+G(d) (5D, 7F)
 Ernie: Thresh=  0.10000D-02 Tol=  0.10000D-05 Strict=F.
 There are   217 symmetry adapted cartesian basis functions of A   symmetry.
 There are   210 symmetry adapted basis functions of A   symmetry.
   210 basis functions,   350 primitive gaussians,   217 cartesian basis functions
    39 alpha electrons       38 beta electrons
       nuclear repulsion energy        55.8922101353 Hartrees.
 IExCor=  402 DFT=T Ex+Corr=B3LYP ExCW=0 ScaHFX=  0.200000
 ScaDFX=  0.800000  0.720000  1.000000  0.810000 ScalE2=  1.000000  1.000000
 IRadAn=      5 IRanWt=     -1 IRanGd=            0 ICorTp=0 IEmpDi=  4
 NAtoms=    7 NActive=    7 NUniq=    7 SFac= 1.00D+00 NAtFMM=   60 NAOKFM=F Big=F
 Integral buffers will be    131072 words long.
 Raffenetti 2 integral format.
 Two-electron integral symmetry is turned on.
 Leave Link  301 at Thu Nov 23 12:30:26 2023, MaxMem=   104857600 cpu:               0.7 elap:               0.8
 (Enter /home/sekinelabo/g16/l302.exe)
 NPDir=0 NMtPBC=     1 NCelOv=     1 NCel=       1 NClECP=     1 NCelD=      1
         NCelK=      1 NCelE2=     1 NClLst=     1 CellRange=     0.0.
 One-electron integrals computed using PRISM.
 One-electron integral symmetry used in STVInt
 NBasis=   210 RedAO= T EigKep=  2.52D-05  NBF=   210
 NBsUse=   210 1.00D-06 EigRej= -1.00D+00 NBFU=   210
 Precomputing XC quadrature grid using
 IXCGrd= 4 IRadAn=           5 IRanWt=          -1 IRanGd=           0 AccXCQ= 0.00D+00.
 Generated NRdTot=       0 NPtTot=           0 NUsed=           0 NTot=          32
 NSgBfM=    86    86    86    86    86 MxSgAt=     7 MxSgA2=     3.
 Leave Link  302 at Thu Nov 23 12:30:58 2023, MaxMem=   104857600 cpu:              25.3 elap:              32.1
 (Enter /home/sekinelabo/g16/l303.exe)
 DipDrv:  MaxL=1.
 Leave Link  303 at Thu Nov 23 12:31:01 2023, MaxMem=   104857600 cpu:               2.3 elap:               3.0
 (Enter /home/sekinelabo/g16/l401.exe)
 ExpMin= 7.60D-03 ExpMax= 3.62D+04 ExpMxC= 1.21D+03 IAcc=3 IRadAn=         5 AccDes= 0.00D+00
 Harris functional with IExCor=  402 and IRadAn=       5 diagonalized for initial guess.
 HarFok:  IExCor=  402 AccDes= 0.00D+00 IRadAn=         5 IDoV= 1 UseB2=F ITyADJ=14
 ICtDFT=  3500011 ScaDFX=  1.000000  1.000000  1.000000  1.000000
 FoFCou: FMM=F IPFlag=           0 FMFlag=      100000 FMFlg1=           0
         NFxFlg=           0 DoJE=T BraDBF=F KetDBF=T FulRan=T
         wScrn=  0.000000 ICntrl=       500 IOpCl=  0 I1Cent=   200000004 NGrid=           0
         NMat0=    1 NMatS0=      1 NMatT0=    0 NMatD0=    1 NMtDS0=    0 NMtDT0=    0
 Petite list used in FoFCou.
 Harris En= -1135.78674518730    
 JPrj=0 DoOrth=F DoCkMO=F.
 Initial guess <Sx>= 0.0000 <Sy>= 0.0000 <Sz>= 0.5000 <S**2>= 0.7500 S= 0.5000
 Leave Link  401 at Thu Nov 23 12:31:22 2023, MaxMem=   104857600 cpu:              17.2 elap:              20.8
 (Enter /home/sekinelabo/g16/l502.exe)
 Integral symmetry usage will be decided dynamically.
 UHF open shell SCF:
 Using DIIS extrapolation, IDIIS=  1040.
 NGot=   104857600 LenX=   104758440 LenY=   104710910
 Requested convergence on RMS density matrix=1.00D-08 within 128 cycles.
 Requested convergence on MAX density matrix=1.00D-06.
 Requested convergence on             energy=1.00D-06.
 No special actions if energy rises.
 Fock matrices will be formed incrementally for  20 cycles.

 Cycle   1  Pass 1  IDiag  1:
 FoFJK:  IHMeth= 1 ICntrl=       0 DoSepK=F KAlg= 0 I1Cent=           0 FoldK=F
 IRaf= 260000000 NMat=       1 IRICut=       1 DoRegI=T DoRafI=F ISym2E= 0 IDoP0=0 IntGTp=1.
 FoFCou: FMM=F IPFlag=           0 FMFlag=      100000 FMFlg1=           0
         NFxFlg=           0 DoJE=F BraDBF=F KetDBF=F FulRan=T
         wScrn=  0.000000 ICntrl=         0 IOpCl=  1 I1Cent=           0 NGrid=           0
         NMat0=    1 NMatS0=      1 NMatT0=    0 NMatD0=    1 NMtDS0=    0 NMtDT0=    0
 Symmetry not used in FoFCou.
 E= -1135.77485758403    
 DIIS: error= 2.07D-02 at cycle   1 NSaved=   1.
 NSaved= 1 IEnMin= 1 EnMin= -1135.77485758403     IErMin= 1 ErrMin= 2.07D-02
 ErrMax= 2.07D-02  0.00D+00 EMaxC= 1.00D-01 BMatC= 2.22D-01 BMatP= 2.22D-01
 IDIUse=3 WtCom= 7.93D-01 WtEn= 2.07D-01
 Coeff-Com:  0.100D+01
 Coeff-En:   0.100D+01
 Coeff:      0.100D+01
 Gap=    -0.065 Goal=   None    Shift=    0.000
 Gap=    -0.077 Goal=   None    Shift=    0.000
 GapD=   -0.077 DampG=0.250 DampE=0.500 DampFc=0.2500 IDamp=-1.
 Damping current iteration by 2.50D-01
 RMSDP=9.76D-03 MaxDP=1.07D+00              OVMax= 1.00D+00

 Cycle   2  Pass 1  IDiag  1:
 RMSU=  2.41D-03    CP:  9.81D-01
 E= -1135.91226102250     Delta-E=       -0.137403438469 Rises=F Damp=T
 DIIS: error= 1.37D-02 at cycle   2 NSaved=   2.
 NSaved= 2 IEnMin= 2 EnMin= -1135.91226102250     IErMin= 2 ErrMin= 1.37D-02
 ErrMax= 1.37D-02  0.00D+00 EMaxC= 1.00D-01 BMatC= 7.09D-02 BMatP= 2.22D-01
 IDIUse=3 WtCom= 8.63D-01 WtEn= 1.37D-01
 Coeff-Com: -0.662D+00 0.166D+01
 Coeff-En:   0.354D-01 0.965D+00
 Coeff:     -0.566D+00 0.157D+01
 Gap=     0.025 Goal=   None    Shift=    0.000
 Gap=     0.101 Goal=   None    Shift=    0.000
 RMSDP=9.23D-03 MaxDP=5.02D-01 DE=-1.37D-01 OVMax= 1.00D+00

 Cycle   3  Pass 1  IDiag  1:
 RMSU=  8.85D-03    CP:  9.88D-01 -8.06D-02
 E= -1135.02739683703     Delta-E=        0.884864185474 Rises=F Damp=F
 DIIS: error= 2.10D-02 at cycle   3 NSaved=   3.
 NSaved= 3 IEnMin= 2 EnMin= -1135.91226102250     IErMin= 2 ErrMin= 1.37D-02
 ErrMax= 2.10D-02  0.00D+00 EMaxC= 1.00D-01 BMatC= 1.29D-01 BMatP= 7.09D-02
 IDIUse=2 WtCom= 0.00D+00 WtEn= 1.00D+00
 Rare condition: small coef for last iteration:  0.000D+00
 Coeff-En:   0.000D+00 0.000D+00 0.100D+01
 Coeff:      0.000D+00 0.000D+00 0.100D+01
 Gap=     0.506 Goal=   None    Shift=    0.000
 Gap=     0.061 Goal=   None    Shift=    0.000
 RMSDP=1.67D-02 MaxDP=1.44D+00 DE= 8.85D-01 OVMax= 1.00D+00

 Cycle   4  Pass 1  IDiag  1:
 RMSU=  7.93D-03    CP:  9.30D-01  3.00D+00 -2.67D-02
 E= -1134.40220071463     Delta-E=        0.625196122398 Rises=F Damp=F
 DIIS: error= 4.01D-02 at cycle   4 NSaved=   4.
 NSaved= 4 IEnMin= 2 EnMin= -1135.91226102250     IErMin= 2 ErrMin= 1.37D-02
 ErrMax= 4.01D-02  0.00D+00 EMaxC= 1.00D-01 BMatC= 3.69D-01 BMatP= 7.09D-02
 IDIUse=2 WtCom= 0.00D+00 WtEn= 1.00D+00
 EnCoef did   100 forward-backward iterations
 Coeff-En:   0.774D+00 0.000D+00 0.589D-02 0.220D+00
 Coeff:      0.774D+00 0.000D+00 0.589D-02 0.220D+00
 Gap=     0.009 Goal=   None    Shift=    0.000
 Gap=     0.063 Goal=   None    Shift=    0.000
 RMSDP=1.09D-02 MaxDP=1.43D+00 DE= 6.25D-01 OVMax= 1.00D+00

 Cycle   5  Pass 1  IDiag  1:
 RMSU=  3.96D-03    CP:  9.53D-01  2.15D+00  8.27D-02 -1.07D-01
 E= -1135.60831456178     Delta-E=       -1.206113847145 Rises=F Damp=F
 DIIS: error= 1.31D-02 at cycle   5 NSaved=   5.
 NSaved= 5 IEnMin= 2 EnMin= -1135.91226102250     IErMin= 5 ErrMin= 1.31D-02
 ErrMax= 1.31D-02  0.00D+00 EMaxC= 1.00D-01 BMatC= 1.08D-01 BMatP= 7.09D-02
 IDIUse=2 WtCom= 0.00D+00 WtEn= 1.00D+00
 EnCoef did   100 forward-backward iterations
 Coeff-En:   0.558D+00 0.371D-01 0.153D-02 0.000D+00 0.403D+00
 Coeff:      0.558D+00 0.371D-01 0.153D-02 0.000D+00 0.403D+00
 Gap=     0.069 Goal=   None    Shift=    0.000
 Gap=    -0.040 Goal=   None    Shift=    0.000
 RMSDP=5.91D-03 MaxDP=6.01D-01 DE=-1.21D+00 OVMax= 1.00D+00

 Cycle   6  Pass 1  IDiag  1:
 RMSU=  4.54D-03    CP:  9.55D-01  1.70D+00  6.85D-02 -6.93D-02  8.69D-02
 E= -1135.64642782499     Delta-E=       -0.038113263219 Rises=F Damp=F
 DIIS: error= 1.12D-02 at cycle   6 NSaved=   6.
 NSaved= 6 IEnMin= 2 EnMin= -1135.91226102250     IErMin= 6 ErrMin= 1.12D-02
 ErrMax= 1.12D-02  0.00D+00 EMaxC= 1.00D-01 BMatC= 4.91D-02 BMatP= 7.09D-02
 IDIUse=3 WtCom= 8.88D-01 WtEn= 1.12D-01
 EnCoef did   100 forward-backward iterations
 Coeff-Com: -0.736D-01 0.488D+00 0.145D+00-0.295D-01 0.128D+00 0.343D+00
 Coeff-En:   0.520D+00 0.138D-01 0.569D-03 0.000D+00 0.330D+00 0.136D+00
 Coeff:     -0.687D-02 0.435D+00 0.129D+00-0.262D-01 0.150D+00 0.319D+00
 Gap=     0.005 Goal=   None    Shift=    0.000
 Gap=    -0.035 Goal=   None    Shift=    0.000
 RMSDP=7.23D-03 MaxDP=8.20D-01 DE=-3.81D-02 OVMax= 1.00D+00

 Cycle   7  Pass 1  IDiag  1:
 RMSU=  4.20D-03    CP:  9.79D-01  8.38D-01  7.80D-02  3.88D-02  2.77D-01
                    CP: -1.82D-01
 E= -1135.65501869600     Delta-E=       -0.008590871002 Rises=F Damp=F
 DIIS: error= 1.32D-02 at cycle   7 NSaved=   7.
 NSaved= 7 IEnMin= 2 EnMin= -1135.91226102250     IErMin= 6 ErrMin= 1.12D-02
 ErrMax= 1.32D-02  0.00D+00 EMaxC= 1.00D-01 BMatC= 3.30D-02 BMatP= 4.91D-02
 IDIUse=3 WtCom= 8.88D-01 WtEn= 1.12D-01
 Coeff-Com: -0.925D-01 0.363D+00 0.419D-01-0.634D-01 0.469D-03 0.364D+00
 Coeff-Com:  0.386D+00
 Coeff-En:   0.000D+00 0.000D+00 0.000D+00 0.000D+00 0.000D+00 0.497D+00
 Coeff-En:   0.503D+00
 Coeff:     -0.821D-01 0.322D+00 0.372D-01-0.563D-01 0.416D-03 0.379D+00
 Coeff:      0.399D+00
 Gap=    -0.036 Goal=   None    Shift=    0.000
 Gap=     0.008 Goal=   None    Shift=    0.000
 RMSDP=7.43D-03 MaxDP=8.20D-01 DE=-8.59D-03 OVMax= 1.00D+00

 Cycle   8  Pass 1  IDiag  1:
 RMSU=  2.14D-03    CP:  9.53D-01  1.87D+00  9.73D-02 -6.46D-02  3.58D-01
                    CP:  7.43D-01 -2.08D-01
 E= -1135.61929584196     Delta-E=        0.035722854036 Rises=F Damp=F
 DIIS: error= 1.37D-02 at cycle   8 NSaved=   8.
 NSaved= 8 IEnMin= 2 EnMin= -1135.91226102250     IErMin= 6 ErrMin= 1.12D-02
 ErrMax= 1.37D-02  0.00D+00 EMaxC= 1.00D-01 BMatC= 4.18D-02 BMatP= 3.30D-02
 IDIUse=2 WtCom= 0.00D+00 WtEn= 1.00D+00
 EnCoef did    70 forward-backward iterations
 Coeff-En:   0.198D-02 0.000D+00 0.000D+00 0.000D+00 0.000D+00 0.231D+00
 Coeff-En:   0.502D+00 0.265D+00
 Coeff:      0.198D-02 0.000D+00 0.000D+00 0.000D+00 0.000D+00 0.231D+00
 Coeff:      0.502D+00 0.265D+00
 Gap=     0.006 Goal=   None    Shift=    0.000
 Gap=     0.006 Goal=   None    Shift=    0.000
 RMSDP=4.89D-03 MaxDP=6.11D-01 DE= 3.57D-02 OVMax= 9.76D-01

 Cycle   9  Pass 1  IDiag  1:
 RMSU=  3.16D-03    CP:  9.73D-01  8.50D-01  1.12D-01 -8.56D-02  2.10D-01
                    CP:  4.24D-01  2.34D-01  3.73D-01
 E= -1135.67277437347     Delta-E=       -0.053478531509 Rises=F Damp=F
 DIIS: error= 1.13D-02 at cycle   9 NSaved=   9.
 NSaved= 9 IEnMin= 2 EnMin= -1135.91226102250     IErMin= 6 ErrMin= 1.12D-02
 ErrMax= 1.13D-02  0.00D+00 EMaxC= 1.00D-01 BMatC= 2.19D-02 BMatP= 3.30D-02
 IDIUse=3 WtCom= 8.88D-01 WtEn= 1.12D-01
 EnCoef did    45 forward-backward iterations
 Coeff-Com: -0.162D+00 0.328D+00-0.244D-02-0.900D-01-0.956D-01 0.201D+00
 Coeff-Com:  0.412D+00 0.255D+00 0.154D+00
 Coeff-En:   0.191D-02 0.000D+00 0.000D+00 0.000D+00 0.000D+00 0.219D+00
 Coeff-En:   0.489D+00 0.262D+00 0.284D-01
 Coeff:     -0.143D+00 0.291D+00-0.216D-02-0.799D-01-0.849D-01 0.203D+00
 Coeff:      0.421D+00 0.256D+00 0.139D+00
 Gap=    -0.019 Goal=   None    Shift=    0.000
 Gap=    -0.022 Goal=   None    Shift=    0.000
 RMSDP=7.31D-03 MaxDP=7.86D-01 DE=-5.35D-02 OVMax= 1.00D+00

 Cycle  10  Pass 1  IDiag  1:
 RMSU=  8.23D-04    CP:  9.57D-01  1.80D+00  6.14D-02  6.79D-02  3.52D-01
                    CP:  2.32D-01  5.86D-01  3.89D-01 -1.06D+00
 E= -1135.62544476908     Delta-E=        0.047329604386 Rises=F Damp=F
 DIIS: error= 1.32D-02 at cycle  10 NSaved=  10.
 NSaved=10 IEnMin= 2 EnMin= -1135.91226102250     IErMin= 6 ErrMin= 1.12D-02
 ErrMax= 1.32D-02  0.00D+00 EMaxC= 1.00D-01 BMatC= 4.15D-02 BMatP= 2.19D-02
 IDIUse=2 WtCom= 0.00D+00 WtEn= 1.00D+00
 EnCoef did    60 forward-backward iterations
 Coeff-En:   0.000D+00 0.000D+00 0.000D+00 0.000D+00 0.000D+00 0.114D+00
 Coeff-En:   0.123D+00 0.000D+00 0.397D+00 0.366D+00
 Coeff:      0.000D+00 0.000D+00 0.000D+00 0.000D+00 0.000D+00 0.114D+00
 Coeff:      0.123D+00 0.000D+00 0.397D+00 0.366D+00
 Gap=     0.045 Goal=   None    Shift=    0.000
 Gap=     0.045 Goal=   None    Shift=    0.000
 RMSDP=5.48D-03 MaxDP=7.86D-01 DE= 4.73D-02 OVMax= 9.84D-01

 Cycle  11  Pass 1  IDiag  1:
 RMSU=  2.39D-03    CP:  9.80D-01  5.98D-01  6.08D-02  7.54D-03 -1.33D-01
                    CP:  5.42D-01  2.73D-01  4.91D-01 -1.68D-01  5.92D-01
 E= -1135.66467201479     Delta-E=       -0.039227245704 Rises=F Damp=F
 DIIS: error= 1.16D-02 at cycle  11 NSaved=  11.
 NSaved=11 IEnMin= 2 EnMin= -1135.91226102250     IErMin= 6 ErrMin= 1.12D-02
 ErrMax= 1.16D-02  0.00D+00 EMaxC= 1.00D-01 BMatC= 2.03D-02 BMatP= 2.19D-02
 IDIUse=3 WtCom= 8.88D-01 WtEn= 1.12D-01
 EnCoef did    38 forward-backward iterations
 Coeff-Com: -0.160D+00 0.322D+00 0.627D-04-0.884D-01-0.815D-01 0.178D+00
 Coeff-Com:  0.269D+00 0.115D+00 0.297D+00 0.160D+00-0.111D-01
 Coeff-En:   0.000D+00 0.000D+00 0.000D+00 0.000D+00 0.000D+00 0.100D+00
 Coeff-En:   0.111D+00 0.000D+00 0.398D+00 0.366D+00 0.243D-01
 Coeff:     -0.142D+00 0.286D+00 0.557D-04-0.784D-01-0.724D-01 0.169D+00
 Coeff:      0.251D+00 0.102D+00 0.308D+00 0.183D+00-0.712D-02
 Gap=    -0.017 Goal=   None    Shift=    0.000
 Gap=    -0.013 Goal=   None    Shift=    0.000
 RMSDP=5.37D-03 MaxDP=7.44D-01 DE=-3.92D-02 OVMax= 1.00D+00

 Cycle  12  Pass 1  IDiag  1:
 RMSU=  1.67D-04    CP:  9.56D-01  1.79D+00  6.00D-02  6.08D-02  3.42D-01
                    CP:  2.55D-01  5.67D-01  3.82D-01 -1.05D+00  1.01D+00
                    CP:  1.97D-02
 E= -1135.62880348203     Delta-E=        0.035868532757 Rises=F Damp=F
 DIIS: error= 1.28D-02 at cycle  12 NSaved=  12.
 NSaved=12 IEnMin= 2 EnMin= -1135.91226102250     IErMin= 6 ErrMin= 1.12D-02
 ErrMax= 1.28D-02  0.00D+00 EMaxC= 1.00D-01 BMatC= 4.01D-02 BMatP= 2.03D-02
 IDIUse=2 WtCom= 0.00D+00 WtEn= 1.00D+00
 EnCoef did   100 forward-backward iterations
 Coeff-En:   0.000D+00 0.000D+00 0.000D+00 0.000D+00 0.000D+00 0.946D-01
 Coeff-En:   0.106D+00 0.000D+00 0.404D+00 0.222D+00 0.238D-01 0.150D+00
 Coeff:      0.000D+00 0.000D+00 0.000D+00 0.000D+00 0.000D+00 0.946D-01
 Coeff:      0.106D+00 0.000D+00 0.404D+00 0.222D+00 0.238D-01 0.150D+00
 Gap=     0.038 Goal=   None    Shift=    0.000
 Gap=     0.038 Goal=   None    Shift=    0.000
 RMSDP=5.19D-03 MaxDP=6.72D-01 DE= 3.59D-02 OVMax= 9.86D-01

 Cycle  13  Pass 1  IDiag  1:
 RMSU=  5.40D-04    CP:  9.77D-01  6.87D-01  6.99D-02 -2.02D-02  2.16D-01
                    CP: -8.16D-02  8.85D-01 -1.38D-02  1.09D-01  5.57D-01
                    CP:  1.50D-01  3.00D+00
 E= -1135.66987435926     Delta-E=       -0.041070877225 Rises=F Damp=F
 DIIS: error= 1.15D-02 at cycle  13 NSaved=  13.
 NSaved=13 IEnMin= 2 EnMin= -1135.91226102250     IErMin= 6 ErrMin= 1.12D-02
 ErrMax= 1.15D-02  0.00D+00 EMaxC= 1.00D-01 BMatC= 1.96D-02 BMatP= 2.03D-02
 IDIUse=3 WtCom= 8.88D-01 WtEn= 1.12D-01
 EnCoef did   100 forward-backward iterations
 Coeff-Com: -0.141D+00 0.290D+00 0.145D-01-0.766D-01-0.773D-01 0.175D+00
 Coeff-Com: -0.489D-01 0.207D+00 0.121D+00-0.622D+00-0.765D-01 0.718D+00
 Coeff-Com:  0.516D+00
 Coeff-En:   0.000D+00 0.000D+00 0.000D+00 0.000D+00 0.000D+00 0.107D+00
 Coeff-En:   0.136D-02 0.000D+00 0.389D+00 0.171D-01 0.191D-01 0.345D+00
 Coeff-En:   0.122D+00
 Coeff:     -0.125D+00 0.258D+00 0.129D-01-0.680D-01-0.686D-01 0.167D+00
 Coeff:     -0.433D-01 0.183D+00 0.151D+00-0.550D+00-0.658D-01 0.676D+00
 Coeff:      0.472D+00
 Gap=    -0.021 Goal=   None    Shift=    0.000
 Gap=    -0.023 Goal=   None    Shift=    0.000
 RMSDP=7.27D-03 MaxDP=7.30D-01 DE=-4.11D-02 OVMax= 1.00D+00

 Cycle  14  Pass 1  IDiag  1:
 RMSU=  3.88D-04    CP:  9.52D-01  1.97D+00  9.19D-02 -2.21D-02  2.79D-01
                    CP:  8.32D-01 -2.12D-01  8.17D-01 -4.03D-02  5.55D-01
                    CP:  6.57D-03  9.17D-01 -3.62D-01
 E= -1135.63092028770     Delta-E=        0.038954071554 Rises=F Damp=F
 DIIS: error= 1.27D-02 at cycle  14 NSaved=  14.
 NSaved=14 IEnMin= 2 EnMin= -1135.91226102250     IErMin= 6 ErrMin= 1.12D-02
 ErrMax= 1.27D-02  0.00D+00 EMaxC= 1.00D-01 BMatC= 3.79D-02 BMatP= 1.96D-02
 IDIUse=2 WtCom= 0.00D+00 WtEn= 1.00D+00
 EnCoef did    47 forward-backward iterations
 Coeff-En:   0.000D+00 0.000D+00 0.000D+00 0.000D+00 0.000D+00 0.505D-01
 Coeff-En:   0.655D-04 0.000D+00 0.218D-01 0.000D+00 0.172D-01 0.000D+00
 Coeff-En:   0.494D+00 0.416D+00
 Coeff:      0.000D+00 0.000D+00 0.000D+00 0.000D+00 0.000D+00 0.505D-01
 Coeff:      0.655D-04 0.000D+00 0.218D-01 0.000D+00 0.172D-01 0.000D+00
 Coeff:      0.494D+00 0.416D+00
 Gap=     0.000 Goal=   None    Shift=    0.000
 Gap=     0.000 Goal=   None    Shift=    0.000
 RMSDP=5.26D-03 MaxDP=7.30D-01 DE= 3.90D-02 OVMax= 9.89D-01

 Cycle  15  Pass 1  IDiag  1:
 RMSU=  2.73D-04    CP:  9.72D-01  8.81D-01  9.85D-02 -8.68D-02  1.81D-01
                    CP:  4.21D-01  2.45D-01  3.68D-01  1.03D+00  6.42D-02
                    CP:  4.08D-02  1.07D-01  3.34D-01  1.84D-01
 E= -1135.67150839889     Delta-E=       -0.040588111188 Rises=F Damp=F
 DIIS: error= 1.14D-02 at cycle  15 NSaved=  15.
 NSaved=15 IEnMin= 2 EnMin= -1135.91226102250     IErMin= 6 ErrMin= 1.12D-02
 ErrMax= 1.14D-02  0.00D+00 EMaxC= 1.00D-01 BMatC= 1.98D-02 BMatP= 1.96D-02
 IDIUse=3 WtCom= 8.88D-01 WtEn= 1.12D-01
 EnCoef did    41 forward-backward iterations
 Coeff-Com: -0.146D+00 0.297D+00 0.705D-02-0.774D-01-0.750D-01 0.178D+00
 Coeff-Com:  0.504D-01 0.155D+00 0.460D+00-0.111D+01-0.106D+00 0.790D+00
 Coeff-Com:  0.924D+00 0.458D+00-0.807D+00
 Coeff-En:   0.000D+00 0.000D+00 0.000D+00 0.000D+00 0.000D+00 0.488D-01
 Coeff-En:   0.657D-04 0.000D+00 0.306D-03 0.000D+00 0.173D-01 0.000D+00
 Coeff-En:   0.494D+00 0.417D+00 0.222D-01
 Coeff:     -0.130D+00 0.263D+00 0.626D-02-0.687D-01-0.666D-01 0.164D+00
 Coeff:      0.448D-01 0.137D+00 0.409D+00-0.984D+00-0.919D-01 0.701D+00
 Coeff:      0.876D+00 0.454D+00-0.713D+00
 Gap=    -0.002 Goal=   None    Shift=    0.000
 Gap=    -0.004 Goal=   None    Shift=    0.000
 RMSDP=5.46D-03 MaxDP=7.77D-01 DE=-4.06D-02 OVMax= 1.00D+00

 Cycle  16  Pass 1  IDiag  1:
 RMSU=  1.59D-04    CP:  9.53D-01  2.09D+00  8.98D-02 -6.46D-04  2.57D-01
                    CP:  8.37D-01 -2.49D-01  8.49D-01 -5.71D-03  4.83D-01
                    CP:  1.66D-02  1.59D+00 -3.95D-01  1.66D+00 -2.23D-01
 E= -1135.62395838099     Delta-E=        0.047550017895 Rises=F Damp=F
 DIIS: error= 1.31D-02 at cycle  16 NSaved=  16.
 NSaved=16 IEnMin= 2 EnMin= -1135.91226102250     IErMin= 6 ErrMin= 1.12D-02
 ErrMax= 1.31D-02  0.00D+00 EMaxC= 1.00D-01 BMatC= 4.17D-02 BMatP= 1.96D-02
 IDIUse=2 WtCom= 0.00D+00 WtEn= 1.00D+00
 Rare condition: small coef for last iteration: -0.666D-15
 Coeff-En:   0.000D+00 0.000D+00 0.000D+00 0.000D+00 0.000D+00 0.133D-01
 Coeff-En:   0.000D+00 0.608D-01 0.158D-01 0.000D+00 0.314D-01 0.193D+00
 Coeff-En:   0.285D+00 0.553D-02 0.213D+00 0.183D+00
 Coeff:      0.000D+00 0.000D+00 0.000D+00 0.000D+00 0.000D+00 0.133D-01
 Coeff:      0.000D+00 0.608D-01 0.158D-01 0.000D+00 0.314D-01 0.193D+00
 Coeff:      0.285D+00 0.553D-02 0.213D+00 0.183D+00
 Gap=     0.036 Goal=   None    Shift=    0.000
 Gap=     0.029 Goal=   None    Shift=    0.000
 RMSDP=7.56D-03 MaxDP=7.77D-01 DE= 4.76D-02 OVMax= 1.00D+00

 Cycle  17  Pass 1  IDiag  1:
 RMSU=  1.19D-04    CP:  9.77D-01  6.91D-01  6.91D-02 -1.84D-02  2.05D-01
                    CP: -8.44D-02  8.92D-01 -3.50D-02  1.17D-01  6.64D-01
                    CP:  1.60D-01  3.00D+00  1.15D+00  1.01D-01  4.17D-01
                    CP:  9.93D-02
 E= -1135.66709914282     Delta-E=       -0.043140761826 Rises=F Damp=F
 DIIS: error= 1.16D-02 at cycle  17 NSaved=  17.
 NSaved=17 IEnMin= 2 EnMin= -1135.91226102250     IErMin= 6 ErrMin= 1.12D-02
 ErrMax= 1.16D-02  0.00D+00 EMaxC= 1.00D-01 BMatC= 2.16D-02 BMatP= 1.96D-02
 IDIUse=2 WtCom= 0.00D+00 WtEn= 1.00D+00
 EnCoef did   100 forward-backward iterations
 Coeff-En:   0.000D+00 0.000D+00 0.000D+00 0.000D+00 0.000D+00 0.309D-01
 Coeff-En:   0.000D+00 0.000D+00 0.153D-03 0.000D+00 0.181D-01 0.293D-02
 Coeff-En:   0.143D+00 0.250D+00 0.255D-01 0.182D+00 0.348D+00
 Coeff:      0.000D+00 0.000D+00 0.000D+00 0.000D+00 0.000D+00 0.309D-01
 Coeff:      0.000D+00 0.000D+00 0.153D-03 0.000D+00 0.181D-01 0.293D-02
 Coeff:      0.143D+00 0.250D+00 0.255D-01 0.182D+00 0.348D+00
 Gap=    -0.000 Goal=   None    Shift=    0.000
 Gap=    -0.000 Goal=   None    Shift=    0.000
 RMSDP=4.83D-03 MaxDP=5.92D-01 DE=-4.31D-02 OVMax= 1.00D+00

 Cycle  18  Pass 1  IDiag  1:
 RMSU=  7.75D-05    CP:  9.79D-01  6.06D-01  5.97D-02  3.65D-03 -1.34D-01
                    CP:  5.38D-01  2.74D-01  4.96D-01 -1.66D-01  6.34D-01
                    CP:  9.90D-01  5.35D-03  2.85D-02 -1.07D-01  1.66D-01
                    CP:  8.49D-02  6.63D-02
 E= -1135.66558613530     Delta-E=        0.001513007520 Rises=F Damp=F
 DIIS: error= 1.15D-02 at cycle  18 NSaved=  18.
 NSaved=18 IEnMin= 2 EnMin= -1135.91226102250     IErMin= 6 ErrMin= 1.12D-02
 ErrMax= 1.15D-02  0.00D+00 EMaxC= 1.00D-01 BMatC= 1.94D-02 BMatP= 1.96D-02
 IDIUse=3 WtCom= 8.88D-01 WtEn= 1.12D-01
 EnCoef did    79 forward-backward iterations
 Rare condition: small coef for last iteration:  0.165D-14
 Coeff-Com: -0.584D-01 0.115D+00-0.142D-01-0.447D-02-0.160D-01 0.216D+00
 Coeff-Com: -0.132D+00-0.175D+00 0.470D+00-0.716D-01-0.258D+01-0.741D+00
 Coeff-Com:  0.312D+01 0.802D+01-0.110D+01-0.681D+01-0.182D+01 0.257D+01
 Coeff-En:   0.000D+00 0.000D+00 0.000D+00 0.000D+00 0.533D-01 0.426D-01
 Coeff-En:   0.477D-01 0.589D-01 0.675D-01 0.000D+00 0.000D+00 0.748D-01
 Coeff-En:   0.952D-01 0.000D+00 0.664D-01 0.183D+00 0.156D+00 0.155D+00
 Coeff:     -0.584D-01 0.115D+00-0.142D-01-0.447D-02-0.160D-01 0.216D+00
 Coeff:     -0.132D+00-0.175D+00 0.470D+00-0.716D-01-0.258D+01-0.741D+00
 Coeff:      0.312D+01 0.802D+01-0.110D+01-0.681D+01-0.182D+01 0.257D+01
 Gap=    -0.024 Goal=   None    Shift=    0.000
 Gap=    -0.025 Goal=   None    Shift=    0.000
 RMSDP=5.57D-03 MaxDP=8.42D-01 DE= 1.51D-03 OVMax= 1.00D+00

 Cycle  19  Pass 1  IDiag  1:
 RMSU=  4.77D-04    CP:  9.62D-01  1.76D+00  7.39D-02  9.27D-02  3.57D-01
                    CP:  2.63D-01  6.36D-01  2.75D-01 -1.07D+00  5.39D-01
                    CP: -5.95D-02 -6.22D-01 -2.26D-01  2.80D-01 -3.75D-01
                    CP:  3.74D-01  1.86D+00  1.42D-01
 E= -1135.63729971176     Delta-E=        0.028286423545 Rises=F Damp=F
 DIIS: error= 1.36D-02 at cycle  19 NSaved=  19.
 NSaved=19 IEnMin= 2 EnMin= -1135.91226102250     IErMin= 6 ErrMin= 1.12D-02
 ErrMax= 1.36D-02  0.00D+00 EMaxC= 1.00D-01 BMatC= 3.91D-02 BMatP= 1.94D-02
 IDIUse=2 WtCom= 0.00D+00 WtEn= 1.00D+00
 EnCoef did   100 forward-backward iterations
 Coeff-En:   0.000D+00 0.000D+00 0.000D+00 0.000D+00 0.674D-02 0.302D-01
 Coeff-En:   0.252D-03 0.374D-03 0.726D-03 0.645D-04 0.203D-01 0.423D-01
 Coeff-En:   0.159D+00 0.172D+00 0.284D+00 0.185D-03 0.640D-01 0.509D-02
 Coeff-En:   0.214D+00
 Coeff:      0.000D+00 0.000D+00 0.000D+00 0.000D+00 0.674D-02 0.302D-01
 Coeff:      0.252D-03 0.374D-03 0.726D-03 0.645D-04 0.203D-01 0.423D-01
 Coeff:      0.159D+00 0.172D+00 0.284D+00 0.185D-03 0.640D-01 0.509D-02
 Coeff:      0.214D+00
 Gap=    -0.006 Goal=   None    Shift=    0.000
 Gap=    -0.007 Goal=   None    Shift=    0.000
 RMSDP=5.40D-03 MaxDP=8.42D-01 DE= 2.83D-02 OVMax= 9.97D-01

 Cycle  20  Pass 1  IDiag  1:
 RMSU=  2.13D-03    CP:  9.79D-01  6.34D-01  5.96D-02 -1.08D-02  1.95D-01
                    CP:  2.18D-01  5.17D-01  2.92D-02 -3.28D-02  5.99D-01
                    CP:  7.29D-01  3.47D-01  8.02D-01  1.89D-01  9.79D-02
                    CP:  2.10D+00 -1.65D+00  3.00D+00 -5.47D-01
 E= -1135.86704328720     Delta-E=       -0.229743575447 Rises=F Damp=F
 DIIS: error= 4.61D-03 at cycle  20 NSaved=  20.
 NSaved=20 IEnMin= 2 EnMin= -1135.91226102250     IErMin=20 ErrMin= 4.61D-03
 ErrMax= 4.61D-03  0.00D+00 EMaxC= 1.00D-01 BMatC= 8.08D-03 BMatP= 1.94D-02
 IDIUse=3 WtCom= 9.54D-01 WtEn= 4.61D-02
 EnCoef did   100 forward-backward iterations
 Coeff-Com: -0.547D-01 0.103D+00-0.138D-01-0.134D-01-0.359D-01 0.175D+00
 Coeff-Com: -0.241D+00-0.127D+00 0.436D+00-0.441D+00-0.236D+01-0.356D+00
 Coeff-Com:  0.299D+01 0.391D+01-0.798D+00-0.320D+01-0.230D+01 0.195D+01
 Coeff-Com:  0.544D+00 0.824D+00
 Coeff-En:   0.000D+00 0.000D+00 0.000D+00 0.000D+00 0.541D-02 0.248D-04
 Coeff-En:   0.202D-03 0.300D-03 0.582D-03 0.517D-04 0.861D-03 0.407D-03
 Coeff-En:   0.101D+00 0.134D+00 0.337D+00 0.148D-03 0.115D-03 0.363D-02
 Coeff-En:   0.308D+00 0.108D+00
 Coeff:     -0.522D-01 0.985D-01-0.132D-01-0.128D-01-0.340D-01 0.167D+00
 Coeff:     -0.229D+00-0.122D+00 0.416D+00-0.421D+00-0.226D+01-0.340D+00
 Coeff:      0.286D+01 0.374D+01-0.746D+00-0.305D+01-0.219D+01 0.186D+01
 Coeff:      0.533D+00 0.791D+00
 Gap=     0.074 Goal=   None    Shift=    0.000
 Gap=    -0.035 Goal=   None    Shift=    0.000
 RMSDP=5.33D-03 MaxDP=7.64D-01 DE=-2.30D-01 OVMax= 1.00D+00

 Cycle  21  Pass 1  IDiag  1:
 Restarting incremental Fock formation.
 E= -1135.82750223723     Delta-E=        0.039541049973 Rises=F Damp=F
 DIIS: error= 1.30D-02 at cycle  21 NSaved=  20.
 NSaved=20 IEnMin= 2 EnMin= -1135.91226102250     IErMin=19 ErrMin= 4.61D-03
 ErrMax= 1.30D-02  0.00D+00 EMaxC= 1.00D-01 BMatC= 2.07D-02 BMatP= 8.08D-03
 IDIUse=2 WtCom= 0.00D+00 WtEn= 1.00D+00
 EnCoef did     8 forward-backward iterations
 Coeff-En:   0.000D+00 0.000D+00 0.000D+00 0.931D-01 0.000D+00 0.000D+00
 Coeff-En:   0.000D+00 0.000D+00 0.000D+00 0.000D+00 0.000D+00 0.000D+00
 Coeff-En:   0.000D+00 0.000D+00 0.000D+00 0.000D+00 0.000D+00 0.117D+00
 Coeff-En:   0.419D+00 0.371D+00
 Coeff:      0.000D+00 0.000D+00 0.000D+00 0.931D-01 0.000D+00 0.000D+00
 Coeff:      0.000D+00 0.000D+00 0.000D+00 0.000D+00 0.000D+00 0.000D+00
 Coeff:      0.000D+00 0.000D+00 0.000D+00 0.000D+00 0.000D+00 0.117D+00
 Coeff:      0.419D+00 0.371D+00
 Gap=     0.034 Goal=   None    Shift=    0.000
 Gap=    -0.044 Goal=   None    Shift=    0.000
 RMSDP=5.34D-03 MaxDP=7.64D-01 DE= 3.95D-02 OVMax= 1.00D+00

 Cycle  22  Pass 1  IDiag  1:
 RMSU=  5.28D-03    CP:  9.61D-01
 E= -1135.85058762565     Delta-E=       -0.023085388425 Rises=F Damp=F
 DIIS: error= 1.24D-02 at cycle  22 NSaved=  20.
 NSaved=20 IEnMin= 2 EnMin= -1135.91226102250     IErMin=18 ErrMin= 4.61D-03
 ErrMax= 1.24D-02  0.00D+00 EMaxC= 1.00D-01 BMatC= 1.97D-02 BMatP= 8.08D-03
 IDIUse=2 WtCom= 0.00D+00 WtEn= 1.00D+00
 EnCoef did     3 forward-backward iterations
 Coeff-En:   0.000D+00 0.000D+00 0.000D+00 0.000D+00 0.000D+00 0.000D+00
 Coeff-En:   0.000D+00 0.000D+00 0.000D+00 0.000D+00 0.000D+00 0.000D+00
 Coeff-En:   0.000D+00 0.000D+00 0.000D+00 0.000D+00 0.000D+00 0.359D+00
 Coeff-En:   0.320D+00 0.320D+00
 Coeff:      0.000D+00 0.000D+00 0.000D+00 0.000D+00 0.000D+00 0.000D+00
 Coeff:      0.000D+00 0.000D+00 0.000D+00 0.000D+00 0.000D+00 0.000D+00
 Coeff:      0.000D+00 0.000D+00 0.000D+00 0.000D+00 0.000D+00 0.359D+00
 Coeff:      0.320D+00 0.320D+00
 Gap=    -0.006 Goal=   None    Shift=    0.000
 Gap=    -0.001 Goal=   None    Shift=    0.000
 RMSDP=5.01D-03 MaxDP=6.82D-01 DE=-2.31D-02 OVMax= 1.00D+00

 Cycle  23  Pass 1  IDiag  1:
 RMSU=  3.42D-03    CP:  9.74D-01  3.09D-01
 E= -1135.86955528558     Delta-E=       -0.018967659928 Rises=F Damp=F
 DIIS: error= 4.65D-03 at cycle  23 NSaved=  20.
 NSaved=20 IEnMin= 2 EnMin= -1135.91226102250     IErMin=17 ErrMin= 4.61D-03
 ErrMax= 4.65D-03  0.00D+00 EMaxC= 1.00D-01 BMatC= 7.65D-03 BMatP= 8.08D-03
 IDIUse=3 WtCom= 9.54D-01 WtEn= 4.61D-02
 Coeff-Com: -0.278D-01 0.499D-01 0.470D-01-0.775D-01-0.175D+00-0.225D+00
 Coeff-Com:  0.368D+00-0.205D+01-0.995D+00 0.203D+01 0.397D+01-0.396D+00
 Coeff-Com: -0.339D+01-0.166D+01 0.222D+01 0.141D+00 0.263D+00 0.376D+00
 Coeff-Com:  0.319D+00 0.219D+00
 Coeff-En:   0.000D+00 0.000D+00 0.000D+00 0.000D+00 0.000D+00 0.000D+00
 Coeff-En:   0.000D+00 0.000D+00 0.000D+00 0.000D+00 0.000D+00 0.000D+00
 Coeff-En:   0.000D+00 0.000D+00 0.000D+00 0.000D+00 0.000D+00 0.000D+00
 Coeff-En:   0.484D+00 0.516D+00
 Coeff:     -0.265D-01 0.476D-01 0.449D-01-0.739D-01-0.167D+00-0.214D+00
 Coeff:      0.351D+00-0.196D+01-0.949D+00 0.193D+01 0.378D+01-0.378D+00
 Coeff:     -0.324D+01-0.158D+01 0.212D+01 0.134D+00 0.251D+00 0.358D+00
 Coeff:      0.327D+00 0.233D+00
 Gap=     0.010 Goal=   None    Shift=    0.000
 Gap=    -0.050 Goal=   None    Shift=    0.000
 RMSDP=5.96D-03 MaxDP=9.79D-01 DE=-1.90D-02 OVMax= 1.00D+00

 Cycle  24  Pass 1  IDiag  1:
 RMSU=  3.40D-03    CP:  9.49D-01  1.13D+00  3.51D-01
 E= -1135.81370686946     Delta-E=        0.055848416125 Rises=F Damp=F
 DIIS: error= 1.45D-02 at cycle  24 NSaved=  20.
 NSaved=20 IEnMin= 2 EnMin= -1135.91226102250     IErMin=16 ErrMin= 4.61D-03
 ErrMax= 1.45D-02  0.00D+00 EMaxC= 1.00D-01 BMatC= 2.69D-02 BMatP= 7.65D-03
 IDIUse=2 WtCom= 0.00D+00 WtEn= 1.00D+00
 Rare condition: small coef for last iteration:  0.000D+00
 Coeff-En:   0.000D+00 0.000D+00 0.000D+00 0.000D+00 0.000D+00 0.000D+00
 Coeff-En:   0.000D+00 0.000D+00 0.000D+00 0.141D-02 0.000D+00 0.403D-01
 Coeff-En:   0.000D+00 0.511D-01 0.214D-01 0.245D-01 0.847D-01 0.223D+00
 Coeff-En:   0.309D+00 0.244D+00
 Coeff:      0.000D+00 0.000D+00 0.000D+00 0.000D+00 0.000D+00 0.000D+00
 Coeff:      0.000D+00 0.000D+00 0.000D+00 0.141D-02 0.000D+00 0.403D-01
 Coeff:      0.000D+00 0.511D-01 0.214D-01 0.245D-01 0.847D-01 0.223D+00
 Coeff:      0.309D+00 0.244D+00
 Gap=     0.031 Goal=   None    Shift=    0.000
 Gap=     0.025 Goal=   None    Shift=    0.000
 RMSDP=6.19D-03 MaxDP=9.79D-01 DE= 5.58D-02 OVMax= 1.00D+00

 Cycle  25  Pass 1  IDiag  1:
 RMSU=  3.27D-03    CP:  9.62D-01  4.80D-01  8.38D-01 -5.70D-02
 E= -1135.83261526553     Delta-E=       -0.018908396076 Rises=F Damp=F
 DIIS: error= 1.21D-02 at cycle  25 NSaved=  20.
 NSaved=20 IEnMin= 2 EnMin= -1135.91226102250     IErMin=16 ErrMin= 4.61D-03
 ErrMax= 1.21D-02  0.00D+00 EMaxC= 1.00D-01 BMatC= 1.64D-02 BMatP= 8.08D-03
 IDIUse=2 WtCom= 0.00D+00 WtEn= 1.00D+00
 Coeff-En:   0.000D+00 0.000D+00 0.000D+00 0.000D+00 0.000D+00 0.000D+00
 Coeff-En:   0.000D+00 0.000D+00 0.000D+00 0.000D+00 0.000D+00 0.000D+00
 Coeff-En:   0.000D+00 0.000D+00 0.000D+00 0.000D+00 0.000D+00 0.000D+00
 Coeff-En:   0.486D+00 0.514D+00
 Coeff:      0.000D+00 0.000D+00 0.000D+00 0.000D+00 0.000D+00 0.000D+00
 Coeff:      0.000D+00 0.000D+00 0.000D+00 0.000D+00 0.000D+00 0.000D+00
 Coeff:      0.000D+00 0.000D+00 0.000D+00 0.000D+00 0.000D+00 0.000D+00
 Coeff:      0.486D+00 0.514D+00
 Gap=     0.042 Goal=   None    Shift=    0.000
 Gap=    -0.006 Goal=   None    Shift=    0.000
 RMSDP=5.02D-03 MaxDP=6.58D-01 DE=-1.89D-02 OVMax= 1.00D+00

 Cycle  26  Pass 1  IDiag  1:
 RMSU=  2.60D-03    CP:  9.60D-01  5.28D-01  7.70D-01  5.70D-01 -1.35D-01
 E= -1135.86803355264     Delta-E=       -0.035418287104 Rises=F Damp=F
 DIIS: error= 4.92D-03 at cycle  26 NSaved=  20.
 NSaved=20 IEnMin= 2 EnMin= -1135.91226102250     IErMin=15 ErrMin= 4.61D-03
 ErrMax= 4.92D-03  0.00D+00 EMaxC= 1.00D-01 BMatC= 8.21D-03 BMatP= 8.08D-03
 IDIUse=3 WtCom= 9.54D-01 WtEn= 4.61D-02
 Rare condition: small coef for last iteration:  0.000D+00
 Coeff-Com: -0.469D-02 0.479D-02-0.162D-02 0.433D-01-0.304D+00-0.273D+00
 Coeff-Com: -0.152D+01 0.391D+00-0.139D+00-0.755D-01-0.231D-01 0.155D+00
 Coeff-Com:  0.991D+00-0.130D+00 0.471D+00 0.338D+00 0.782D-01-0.748D-01
 Coeff-Com:  0.608D+00 0.468D+00
 Coeff-En:   0.000D+00 0.000D+00 0.000D+00 0.000D+00 0.000D+00 0.000D+00
 Coeff-En:   0.000D+00 0.000D+00 0.000D+00 0.490D-01 0.000D+00 0.000D+00
 Coeff-En:   0.176D-01 0.000D+00 0.000D+00 0.000D+00 0.182D+00 0.178D+00
 Coeff-En:   0.264D+00 0.309D+00
 Coeff:     -0.469D-02 0.479D-02-0.162D-02 0.433D-01-0.304D+00-0.273D+00
 Coeff:     -0.152D+01 0.391D+00-0.139D+00-0.755D-01-0.231D-01 0.155D+00
 Coeff:      0.991D+00-0.130D+00 0.471D+00 0.338D+00 0.782D-01-0.748D-01
 Coeff:      0.608D+00 0.468D+00
 Gap=    -0.054 Goal=   None    Shift=    0.000
 Gap=    -0.008 Goal=   None    Shift=    0.000
 RMSDP=4.87D-03 MaxDP=6.66D-01 DE=-3.54D-02 OVMax= 1.00D+00

 Cycle  27  Pass 1  IDiag  1:
 RMSU=  1.78D-03    CP:  9.63D-01  6.89D-01  6.54D-01 -6.58D-04  2.77D-01
                    CP: -4.45D-01
 E= -1136.03720408262     Delta-E=       -0.169170529979 Rises=F Damp=F
 DIIS: error= 1.65D-03 at cycle  27 NSaved=  20.
 NSaved=20 IEnMin=20 EnMin= -1136.03720408262     IErMin=20 ErrMin= 1.65D-03
 ErrMax= 1.65D-03  0.00D+00 EMaxC= 1.00D-01 BMatC= 4.18D-04 BMatP= 8.08D-03
 IDIUse=3 WtCom= 9.83D-01 WtEn= 1.65D-02
 Coeff-Com: -0.123D-02 0.201D-02 0.325D-02-0.211D-01-0.191D+00-0.900D+00
 Coeff-Com:  0.178D+00 0.130D+00-0.212D+00 0.103D+00-0.905D-01 0.786D+00
 Coeff-Com: -0.165D-01-0.554D-01 0.254D+00 0.512D-01-0.162D+00 0.151D+00
 Coeff-Com:  0.367D+00 0.625D+00
 Coeff-En:   0.000D+00 0.000D+00 0.000D+00 0.000D+00 0.000D+00 0.000D+00
 Coeff-En:   0.000D+00 0.000D+00 0.000D+00 0.000D+00 0.000D+00 0.000D+00
 Coeff-En:   0.000D+00 0.000D+00 0.000D+00 0.000D+00 0.000D+00 0.000D+00
 Coeff-En:   0.000D+00 0.100D+01
 Coeff:     -0.121D-02 0.198D-02 0.319D-02-0.208D-01-0.188D+00-0.885D+00
 Coeff:      0.175D+00 0.128D+00-0.209D+00 0.101D+00-0.890D-01 0.773D+00
 Coeff:     -0.162D-01-0.545D-01 0.250D+00 0.504D-01-0.159D+00 0.148D+00
 Coeff:      0.361D+00 0.631D+00
 Gap=     0.020 Goal=   None    Shift=    0.000
 Gap=     0.005 Goal=   None    Shift=    0.000
 RMSDP=2.27D-04 MaxDP=2.65D-02 DE=-1.69D-01 OVMax= 1.85D-02

 Cycle  28  Pass 1  IDiag  1:
 RMSU=  1.84D-04    CP:  9.63D-01  6.81D-01  6.57D-01 -1.45D-02  2.85D-01
                    CP: -4.19D-01  1.05D+00
 E= -1136.03746427381     Delta-E=       -0.000260191194 Rises=F Damp=F
 DIIS: error= 1.78D-03 at cycle  28 NSaved=  20.
 NSaved=20 IEnMin=20 EnMin= -1136.03746427381     IErMin=19 ErrMin= 1.65D-03
 ErrMax= 1.78D-03  0.00D+00 EMaxC= 1.00D-01 BMatC= 3.76D-04 BMatP= 4.18D-04
 IDIUse=3 WtCom= 9.83D-01 WtEn= 1.65D-02
 Coeff-Com: -0.215D-02 0.370D-02 0.127D-02-0.498D-02-0.148D+00-0.907D+00
 Coeff-Com:  0.230D+00-0.701D-01-0.594D-01-0.897D-01 0.798D+00 0.166D-01
 Coeff-Com: -0.340D-01 0.220D+00 0.711D-01-0.139D+00 0.141D+00 0.341D+00
 Coeff-Com:  0.296D+00 0.336D+00
 Coeff-En:   0.000D+00 0.000D+00 0.000D+00 0.000D+00 0.000D+00 0.000D+00
 Coeff-En:   0.000D+00 0.000D+00 0.000D+00 0.000D+00 0.000D+00 0.000D+00
 Coeff-En:   0.000D+00 0.000D+00 0.000D+00 0.000D+00 0.000D+00 0.000D+00
 Coeff-En:   0.000D+00 0.100D+01
 Coeff:     -0.211D-02 0.364D-02 0.125D-02-0.490D-02-0.146D+00-0.892D+00
 Coeff:      0.226D+00-0.689D-01-0.585D-01-0.882D-01 0.785D+00 0.163D-01
 Coeff:     -0.335D-01 0.216D+00 0.699D-01-0.137D+00 0.138D+00 0.335D+00
 Coeff:      0.291D+00 0.347D+00
 Gap=     0.029 Goal=   None    Shift=    0.000
 Gap=     0.002 Goal=   None    Shift=    0.000
 RMSDP=1.08D-04 MaxDP=2.09D-02 DE=-2.60D-04 OVMax= 7.14D-03

 Cycle  29  Pass 1  IDiag  1:
 RMSU=  5.71D-05    CP:  9.64D-01  6.75D-01  6.62D-01 -2.01D-02  2.89D-01
                    CP: -4.02D-01  1.07D+00  1.32D+00
 E= -1136.03745241099     Delta-E=        0.000011862817 Rises=F Damp=F
 DIIS: error= 2.05D-03 at cycle  29 NSaved=  20.
 NSaved=20 IEnMin=19 EnMin= -1136.03746427381     IErMin=18 ErrMin= 1.65D-03
 ErrMax= 2.05D-03  0.00D+00 EMaxC= 1.00D-01 BMatC= 3.80D-04 BMatP= 3.76D-04
 IDIUse=3 WtCom= 9.83D-01 WtEn= 1.65D-02
 Rare condition: small coef for last iteration:  0.000D+00
 Coeff-Com: -0.106D-02-0.436D-03 0.216D-02 0.225D-01-0.114D+00-0.842D+00
 Coeff-Com:  0.181D+00-0.166D+00 0.103D-01 0.732D+00-0.638D-01-0.294D-01
 Coeff-Com:  0.217D+00 0.690D-01-0.133D+00 0.146D+00 0.338D+00 0.153D+00
 Coeff-Com:  0.120D+01-0.716D+00
 Coeff-En:   0.000D+00 0.000D+00 0.000D+00 0.000D+00 0.000D+00 0.000D+00
 Coeff-En:   0.000D+00 0.000D+00 0.000D+00 0.000D+00 0.000D+00 0.000D+00
 Coeff-En:   0.000D+00 0.000D+00 0.000D+00 0.000D+00 0.000D+00 0.000D+00
 Coeff-En:   0.000D+00 0.100D+01
 Coeff:     -0.106D-02-0.436D-03 0.216D-02 0.225D-01-0.114D+00-0.842D+00
 Coeff:      0.181D+00-0.166D+00 0.103D-01 0.732D+00-0.638D-01-0.294D-01
 Coeff:      0.217D+00 0.690D-01-0.133D+00 0.146D+00 0.338D+00 0.153D+00
 Coeff:      0.120D+01-0.716D+00
 Gap=     0.028 Goal=   None    Shift=    0.000
 Gap=    -0.001 Goal=   None    Shift=    0.000
 RMSDP=3.31D-03 MaxDP=6.12D-01 DE= 1.19D-05 OVMax= 1.00D+00

 Cycle  30  Pass 1  IDiag  1:
 RMSU=  3.16D-04    CP:  9.64D-01  4.73D-01  8.08D-01 -8.53D-02  9.93D-01
                    CP:  4.20D-02  1.47D-01  2.00D+00 -3.00D+00
 E= -1135.83321989282     Delta-E=        0.204232518175 Rises=F Damp=F
 DIIS: error= 1.21D-02 at cycle  30 NSaved=  20.
 NSaved=20 IEnMin=18 EnMin= -1136.03746427381     IErMin=17 ErrMin= 1.65D-03
 ErrMax= 1.21D-02  0.00D+00 EMaxC= 1.00D-01 BMatC= 1.41D-02 BMatP= 3.76D-04
 IDIUse=2 WtCom= 0.00D+00 WtEn= 1.00D+00
 Rare condition: small coef for last iteration:  0.000D+00
 Coeff-En:   0.000D+00 0.000D+00 0.415D-01 0.000D+00 0.000D+00 0.259D-03
 Coeff-En:   0.000D+00 0.000D+00 0.000D+00 0.177D-01 0.000D+00 0.000D+00
 Coeff-En:   0.183D+00 0.180D+00 0.191D-03 0.311D+00 0.000D+00 0.000D+00
 Coeff-En:   0.000D+00 0.266D+00
 Coeff:      0.000D+00 0.000D+00 0.415D-01 0.000D+00 0.000D+00 0.259D-03
 Coeff:      0.000D+00 0.000D+00 0.000D+00 0.177D-01 0.000D+00 0.000D+00
 Coeff:      0.183D+00 0.180D+00 0.191D-03 0.311D+00 0.000D+00 0.000D+00
 Coeff:      0.000D+00 0.266D+00
 Gap=     0.009 Goal=   None    Shift=    0.000
 Gap=     0.038 Goal=   None    Shift=    0.000
 RMSDP=5.13D-04 MaxDP=7.35D-02 DE= 2.04D-01 OVMax= 5.14D-02

 Cycle  31  Pass 1  IDiag  1:
 RMSU=  3.48D-04    CP:  9.63D-01  4.74D-01  8.17D-01 -7.37D-02  1.04D+00
                    CP:  4.57D-02  8.15D-02  1.07D+00 -2.43D+00  1.82D-01
 E= -1135.83041907028     Delta-E=        0.002800822542 Rises=F Damp=F
 DIIS: error= 1.24D-02 at cycle  31 NSaved=  20.
 NSaved=20 IEnMin=18 EnMin= -1136.03746427381     IErMin=17 ErrMin= 1.65D-03
 ErrMax= 1.24D-02  0.00D+00 EMaxC= 1.00D-01 BMatC= 1.76D-02 BMatP= 3.76D-04
 IDIUse=2 WtCom= 0.00D+00 WtEn= 1.00D+00
 EnCoef did   100 forward-backward iterations
 Coeff-En:   0.000D+00 0.000D+00 0.501D-02 0.000D+00 0.000D+00 0.294D-04
 Coeff-En:   0.000D+00 0.000D+00 0.000D+00 0.921D-03 0.000D+00 0.000D+00
 Coeff-En:   0.318D+00 0.479D-03 0.177D+00 0.355D+00 0.000D+00 0.000D+00
 Coeff-En:   0.144D+00 0.323D-03
 Coeff:      0.000D+00 0.000D+00 0.501D-02 0.000D+00 0.000D+00 0.294D-04
 Coeff:      0.000D+00 0.000D+00 0.000D+00 0.921D-03 0.000D+00 0.000D+00
 Coeff:      0.318D+00 0.479D-03 0.177D+00 0.355D+00 0.000D+00 0.000D+00
 Coeff:      0.144D+00 0.323D-03
 Gap=     0.005 Goal=   None    Shift=    0.000
 Gap=    -0.010 Goal=   None    Shift=    0.000
 RMSDP=3.56D-03 MaxDP=6.86D-01 DE= 2.80D-03 OVMax= 9.98D-01

 Cycle  32  Pass 1  IDiag  1:
 RMSU=  4.71D-04    CP:  9.74D-01  3.08D-01  9.71D-01 -7.47D-03  2.30D-02
                    CP:  1.19D-01  2.00D-01  4.00D-01 -3.00D+00  2.89D-01
                    CP:  3.24D-01
 E= -1135.86961240438     Delta-E=       -0.039193334101 Rises=F Damp=F
 DIIS: error= 4.63D-03 at cycle  32 NSaved=  20.
 NSaved=20 IEnMin=18 EnMin= -1136.03746427381     IErMin=17 ErrMin= 1.65D-03
 ErrMax= 4.63D-03  0.00D+00 EMaxC= 1.00D-01 BMatC= 7.38D-03 BMatP= 3.76D-04
 IDIUse=3 WtCom= 9.83D-01 WtEn= 1.65D-02
 EnCoef did   100 forward-backward iterations
 Coeff-Com:  0.285D-02-0.247D-02 0.102D-02 0.493D-02-0.136D+00-0.105D+01
 Coeff-Com:  0.334D+00-0.115D+00-0.148D+00 0.904D+00-0.460D-01 0.196D+00
 Coeff-Com:  0.292D-01-0.131D+00 0.368D+00 0.330D+00 0.367D+00 0.276D+00
 Coeff-Com: -0.243D+00 0.576D-01
 Coeff-En:   0.000D+00 0.000D+00 0.976D-03 0.000D+00 0.000D+00 0.499D-05
 Coeff-En:   0.000D+00 0.000D+00 0.000D+00 0.156D-03 0.000D+00 0.000D+00
 Coeff-En:   0.480D+00 0.812D-04 0.116D-01 0.556D-02 0.000D+00 0.000D+00
 Coeff-En:   0.547D-04 0.501D+00
 Coeff:      0.281D-02-0.243D-02 0.102D-02 0.485D-02-0.134D+00-0.103D+01
 Coeff:      0.329D+00-0.113D+00-0.146D+00 0.889D+00-0.452D-01 0.193D+00
 Coeff:      0.366D-01-0.129D+00 0.362D+00 0.325D+00 0.361D+00 0.271D+00
 Coeff:     -0.239D+00 0.649D-01
 Gap=     0.074 Goal=   None    Shift=    0.000
 Gap=    -0.007 Goal=   None    Shift=    0.000
 RMSDP=3.20D-03 MaxDP=4.72D-01 DE=-3.92D-02 OVMax= 1.00D+00

 Cycle  33  Pass 1  IDiag  1:
 RMSU=  5.41D-05    CP:  9.64D-01  6.76D-01  6.67D-01 -1.81D-02  2.89D-01
                    CP: -4.14D-01  1.06D+00  1.19D+00  7.89D-01 -7.90D-02
                    CP: -7.25D-02  2.80D-02
 E= -1136.03741761370     Delta-E=       -0.167805209324 Rises=F Damp=F
 DIIS: error= 2.01D-03 at cycle  33 NSaved=  20.
 NSaved=20 IEnMin=17 EnMin= -1136.03746427381     IErMin=16 ErrMin= 1.65D-03
 ErrMax= 2.01D-03  0.00D+00 EMaxC= 1.00D-01 BMatC= 3.86D-04 BMatP= 3.76D-04
 IDIUse=3 WtCom= 9.83D-01 WtEn= 1.65D-02
 Coeff-Com:  0.295D-02-0.315D-02 0.497D-02-0.133D+00-0.980D+00 0.351D+00
 Coeff-Com: -0.120D+00-0.162D+00 0.866D+00-0.610D-01 0.198D+00 0.254D-01
 Coeff-Com: -0.136D+00 0.437D+00 0.331D+00 0.278D+00 0.134D+01-0.334D+00
 Coeff-Com:  0.474D-01-0.955D+00
 Coeff-En:   0.000D+00 0.000D+00 0.000D+00 0.000D+00 0.000D+00 0.000D+00
 Coeff-En:   0.000D+00 0.000D+00 0.000D+00 0.000D+00 0.000D+00 0.000D+00
 Coeff-En:   0.000D+00 0.000D+00 0.000D+00 0.000D+00 0.000D+00 0.000D+00
 Coeff-En:   0.000D+00 0.100D+01
 Coeff:      0.290D-02-0.310D-02 0.489D-02-0.130D+00-0.964D+00 0.345D+00
 Coeff:     -0.118D+00-0.160D+00 0.852D+00-0.600D-01 0.195D+00 0.250D-01
 Coeff:     -0.134D+00 0.430D+00 0.326D+00 0.273D+00 0.132D+01-0.328D+00
 Coeff:      0.466D-01-0.923D+00
 Gap=     0.027 Goal=   None    Shift=    0.000
 Gap=     0.004 Goal=   None    Shift=    0.000
 RMSDP=7.71D-05 MaxDP=1.35D-02 DE=-1.68D-01 OVMax= 4.26D-03

 Cycle  34  Pass 1  IDiag  1:
 RMSU=  4.28D-05    CP:  9.64D-01  6.77D-01  6.60D-01 -1.63D-02  2.86D-01
                    CP: -4.15D-01  1.06D+00  1.27D+00  6.48D-01  2.29D-02
                    CP: -9.95D-02 -2.31D-02  3.15D-01
 E= -1136.03743701895     Delta-E=       -0.000019405247 Rises=F Damp=F
 DIIS: error= 1.89D-03 at cycle  34 NSaved=  20.
 NSaved=20 IEnMin=16 EnMin= -1136.03746427381     IErMin=15 ErrMin= 1.65D-03
 ErrMax= 1.89D-03  0.00D+00 EMaxC= 1.00D-01 BMatC= 3.76D-04 BMatP= 3.76D-04
 IDIUse=3 WtCom= 9.83D-01 WtEn= 1.65D-02
 Coeff-Com:  0.309D-02-0.330D-02-0.134D+00-0.980D+00 0.356D+00-0.121D+00
 Coeff-Com: -0.165D+00 0.870D+00-0.587D-01 0.199D+00 0.247D-01-0.133D+00
 Coeff-Com:  0.428D+00 0.330D+00 0.281D+00 0.133D+01-0.327D+00 0.471D-01
 Coeff-Com: -0.101D+01 0.639D-01
 Coeff-En:   0.000D+00 0.000D+00 0.000D+00 0.000D+00 0.000D+00 0.000D+00
 Coeff-En:   0.000D+00 0.000D+00 0.000D+00 0.000D+00 0.000D+00 0.000D+00
 Coeff-En:   0.000D+00 0.000D+00 0.000D+00 0.000D+00 0.000D+00 0.000D+00
 Coeff-En:   0.000D+00 0.100D+01
 Coeff:      0.304D-02-0.325D-02-0.131D+00-0.964D+00 0.351D+00-0.119D+00
 Coeff:     -0.162D+00 0.856D+00-0.578D-01 0.195D+00 0.243D-01-0.131D+00
 Coeff:      0.421D+00 0.324D+00 0.276D+00 0.131D+01-0.322D+00 0.463D-01
 Coeff:     -0.990D+00 0.794D-01
 Gap=     0.027 Goal=   None    Shift=    0.000
 Gap=     0.004 Goal=   None    Shift=    0.000
 RMSDP=1.60D-05 MaxDP=3.22D-03 DE=-1.94D-05 OVMax= 9.62D-04

 Cycle  35  Pass 1  IDiag  1:
 RMSU=  3.97D-06    CP:  9.64D-01  6.77D-01  6.60D-01 -1.59D-02  2.86D-01
                    CP: -4.14D-01  1.06D+00  1.29D+00  7.34D-01  4.46D-02
                    CP: -1.09D-01 -3.25D-02  2.15D-01  1.21D+00
 E= -1136.03743445251     Delta-E=        0.000002566441 Rises=F Damp=F
 DIIS: error= 1.90D-03 at cycle  35 NSaved=  20.
 NSaved=20 IEnMin=15 EnMin= -1136.03746427381     IErMin=14 ErrMin= 1.65D-03
 ErrMax= 1.90D-03  0.00D+00 EMaxC= 1.00D-01 BMatC= 3.76D-04 BMatP= 3.76D-04
 IDIUse=3 WtCom= 9.83D-01 WtEn= 1.65D-02
 Rare condition: small coef for last iteration:  0.000D+00
 Coeff-Com:  0.473D-02-0.725D-02-0.483D-01 0.978D-01-0.173D+00 0.653D-01
 Coeff-Com:  0.663D-02-0.109D+00 0.166D+00 0.273D-01-0.115D+00 0.251D+00
 Coeff-Com:  0.311D+00 0.607D-01 0.239D+01-0.281D+00-0.223D-01-0.200D+01
 Coeff-Com:  0.144D+01-0.107D+01
 Coeff-En:   0.000D+00 0.000D+00 0.000D+00 0.000D+00 0.000D+00 0.000D+00
 Coeff-En:   0.000D+00 0.000D+00 0.000D+00 0.000D+00 0.000D+00 0.000D+00
 Coeff-En:   0.000D+00 0.000D+00 0.000D+00 0.000D+00 0.000D+00 0.000D+00
 Coeff-En:   0.000D+00 0.100D+01
 Coeff:      0.473D-02-0.725D-02-0.483D-01 0.978D-01-0.173D+00 0.653D-01
 Coeff:      0.663D-02-0.109D+00 0.166D+00 0.273D-01-0.115D+00 0.251D+00
 Coeff:      0.311D+00 0.607D-01 0.239D+01-0.281D+00-0.223D-01-0.200D+01
 Coeff:      0.144D+01-0.107D+01
 Gap=     0.045 Goal=   None    Shift=    0.000
 Gap=    -0.006 Goal=   None    Shift=    0.000
 RMSDP=3.31D-03 MaxDP=6.03D-01 DE= 2.57D-06 OVMax= 1.00D+00

 Cycle  36  Pass 1  IDiag  1:
 RMSU=  6.35D-05    CP:  9.64D-01  4.69D-01  8.04D-01 -8.24D-02  9.87D-01
                    CP:  4.18D-02  1.64D-01  2.65D+00 -3.00D+00  1.21D+00
                    CP: -1.56D-01 -4.23D-02 -3.45D-01  1.61D+00  3.00D+00
 E= -1135.83337421126     Delta-E=        0.204060241248 Rises=F Damp=F
 DIIS: error= 1.21D-02 at cycle  36 NSaved=  20.
 NSaved=20 IEnMin=14 EnMin= -1136.03746427381     IErMin=13 ErrMin= 1.65D-03
 ErrMax= 1.21D-02  0.00D+00 EMaxC= 1.00D-01 BMatC= 1.43D-02 BMatP= 3.76D-04
 IDIUse=2 WtCom= 0.00D+00 WtEn= 1.00D+00
 Rare condition: small coef for last iteration:  0.000D+00
 Coeff-En:   0.000D+00 0.000D+00 0.000D+00 0.000D+00 0.000D+00 0.000D+00
 Coeff-En:   0.000D+00 0.000D+00 0.209D+00 0.257D+00 0.126D+00 0.187D+00
 Coeff-En:   0.000D+00 0.000D+00 0.111D-02 0.142D+00 0.000D+00 0.000D+00
 Coeff-En:   0.000D+00 0.794D-01
 Coeff:      0.000D+00 0.000D+00 0.000D+00 0.000D+00 0.000D+00 0.000D+00
 Coeff:      0.000D+00 0.000D+00 0.209D+00 0.257D+00 0.126D+00 0.187D+00
 Coeff:      0.000D+00 0.000D+00 0.111D-02 0.142D+00 0.000D+00 0.000D+00
 Coeff:      0.000D+00 0.794D-01
 Gap=     0.035 Goal=   None    Shift=    0.000
 Gap=     0.058 Goal=   None    Shift=    0.000
 RMSDP=7.87D-04 MaxDP=1.46D-01 DE= 2.04D-01 OVMax= 5.04D-02

 Cycle  37  Pass 1  IDiag  1:
 RMSU=  2.07D-04    CP:  9.63D-01  4.73D-01  8.22D-01 -9.06D-02  1.09D+00
                    CP:  2.71D-02  5.59D-02  1.51D+00 -3.00D+00 -6.13D-02
                    CP:  9.84D-01  3.48D-03  3.00D+00  2.85D+00 -3.00D+00
                    CP: -8.43D-01
 E= -1135.82690549170     Delta-E=        0.006468719555 Rises=F Damp=F
 DIIS: error= 1.29D-02 at cycle  37 NSaved=  20.
 NSaved=20 IEnMin=14 EnMin= -1136.03746427381     IErMin=13 ErrMin= 1.65D-03
 ErrMax= 1.29D-02  0.00D+00 EMaxC= 1.00D-01 BMatC= 2.11D-02 BMatP= 3.76D-04
 IDIUse=2 WtCom= 0.00D+00 WtEn= 1.00D+00
 EnCoef did   100 forward-backward iterations
 Rare condition: small coef for last iteration: -0.478D-16
 Coeff-En:   0.000D+00 0.000D+00 0.000D+00 0.000D+00 0.000D+00 0.000D+00
 Coeff-En:   0.000D+00 0.547D-03 0.209D+00 0.256D+00 0.126D+00 0.187D+00
 Coeff-En:   0.000D+00 0.000D+00 0.420D-02 0.142D+00 0.000D+00 0.000D+00
 Coeff-En:   0.000D+00 0.745D-01
 Coeff:      0.000D+00 0.000D+00 0.000D+00 0.000D+00 0.000D+00 0.000D+00
 Coeff:      0.000D+00 0.547D-03 0.209D+00 0.256D+00 0.126D+00 0.187D+00
 Coeff:      0.000D+00 0.000D+00 0.420D-02 0.142D+00 0.000D+00 0.000D+00
 Coeff:      0.000D+00 0.745D-01
 Gap=     0.027 Goal=   None    Shift=    0.000
 Gap=     0.038 Goal=   None    Shift=    0.000
 RMSDP=2.25D-05 MaxDP=1.94D-03 DE= 6.47D-03 OVMax= 4.65D-03

 Cycle  38  Pass 1  IDiag  1:
 RMSU=  1.19D-05    CP:  9.63D-01  4.73D-01  8.22D-01 -9.05D-02  1.09D+00
                    CP:  2.77D-02  5.38D-02  1.47D+00 -3.00D+00 -7.50D-02
                    CP:  9.55D-01  1.51D-02  3.00D+00  2.90D+00 -1.95D+00
                    CP: -9.26D-01  1.04D+00
 E= -1135.82695751680     Delta-E=       -0.000052025094 Rises=F Damp=F
 DIIS: error= 1.29D-02 at cycle  38 NSaved=  20.
 NSaved=20 IEnMin=14 EnMin= -1136.03746427381     IErMin=13 ErrMin= 1.65D-03
 ErrMax= 1.29D-02  0.00D+00 EMaxC= 1.00D-01 BMatC= 2.07D-02 BMatP= 3.76D-04
 IDIUse=2 WtCom= 0.00D+00 WtEn= 1.00D+00
 EnCoef did   100 forward-backward iterations
 Coeff-En:   0.000D+00 0.000D+00 0.000D+00 0.000D+00 0.000D+00 0.000D+00
 Coeff-En:   0.000D+00 0.121D-03 0.481D+00 0.768D-03 0.828D-02 0.564D-03
 Coeff-En:   0.000D+00 0.000D+00 0.925D-03 0.502D+00 0.000D+00 0.000D+00
 Coeff-En:   0.000D+00 0.698D-02
 Coeff:      0.000D+00 0.000D+00 0.000D+00 0.000D+00 0.000D+00 0.000D+00
 Coeff:      0.000D+00 0.121D-03 0.481D+00 0.768D-03 0.828D-02 0.564D-03
 Coeff:      0.000D+00 0.000D+00 0.925D-03 0.502D+00 0.000D+00 0.000D+00
 Coeff:      0.000D+00 0.698D-02
 Gap=     0.011 Goal=   None    Shift=    0.000
 Gap=    -0.038 Goal=   None    Shift=    0.000
 RMSDP=3.78D-03 MaxDP=7.51D-01 DE=-5.20D-05 OVMax= 9.98D-01

 Cycle  39  Pass 1  IDiag  1:
 RMSU=  1.32D-04    CP:  9.74D-01  3.09D-01  9.97D-01  5.99D-03  6.26D-03
                    CP:  6.10D-02  8.93D-02 -2.27D-01 -5.90D-01  2.44D-01
                    CP:  7.81D-02  5.75D-01  4.46D-02 -3.07D-01  3.00D+00
                    CP: -5.70D-01 -2.76D-03 -1.73D+00
 E= -1135.86944285529     Delta-E=       -0.042485338497 Rises=F Damp=F
 DIIS: error= 4.64D-03 at cycle  39 NSaved=  20.
 NSaved=20 IEnMin=14 EnMin= -1136.03746427381     IErMin=13 ErrMin= 1.65D-03
 ErrMax= 4.64D-03  0.00D+00 EMaxC= 1.00D-01 BMatC= 8.11D-03 BMatP= 3.76D-04
 IDIUse=3 WtCom= 9.83D-01 WtEn= 1.65D-02
 EnCoef did   100 forward-backward iterations
 Coeff-Com:  0.126D-02-0.276D-02-0.454D-01 0.988D-01-0.192D+00 0.605D-01
 Coeff-Com: -0.104D+00 0.179D+00 0.298D-01-0.116D+00 0.505D+00 0.313D+00
 Coeff-Com:  0.475D-01 0.209D+01-0.200D+00 0.193D+00-0.203D+01 0.659D+00
 Coeff-Com: -0.297D+00-0.193D+00
 Coeff-En:   0.000D+00 0.000D+00 0.000D+00 0.000D+00 0.000D+00 0.000D+00
 Coeff-En:   0.000D+00 0.670D-04 0.482D+00 0.424D-03 0.458D-02 0.312D-03
 Coeff-En:   0.000D+00 0.000D+00 0.511D-03 0.466D+00 0.000D+00 0.000D+00
 Coeff-En:   0.386D-02 0.422D-01
 Coeff:      0.124D-02-0.272D-02-0.446D-01 0.972D-01-0.188D+00 0.595D-01
 Coeff:     -0.102D+00 0.176D+00 0.373D-01-0.114D+00 0.496D+00 0.308D+00
 Coeff:      0.467D-01 0.206D+01-0.197D+00 0.198D+00-0.200D+01 0.649D+00
 Coeff:     -0.292D+00-0.189D+00
 Gap=     0.035 Goal=   None    Shift=    0.000
 Gap=    -0.008 Goal=   None    Shift=    0.000
 RMSDP=3.26D-03 MaxDP=4.63D-01 DE=-4.25D-02 OVMax= 1.00D+00

 Cycle  40  Pass 1  IDiag  1:
 RMSU=  2.94D-05    CP:  9.64D-01  6.72D-01  6.59D-01 -1.17D-02  2.84D-01
                    CP: -3.96D-01  1.06D+00  1.66D+00  1.90D+00  1.76D-01
                    CP: -2.11D-01 -8.76D-02 -1.04D+00  2.69D+00  3.00D+00
                    CP:  1.94D-01 -1.31D-03  1.19D+00  1.25D-01
 E= -1136.03748545021     Delta-E=       -0.168042594918 Rises=F Damp=F
 DIIS: error= 2.03D-03 at cycle  40 NSaved=  20.
 NSaved=20 IEnMin=20 EnMin= -1136.03748545021     IErMin=12 ErrMin= 1.65D-03
 ErrMax= 2.03D-03  0.00D+00 EMaxC= 1.00D-01 BMatC= 3.73D-04 BMatP= 3.76D-04
 IDIUse=3 WtCom= 9.83D-01 WtEn= 1.65D-02
 Coeff-Com:  0.210D-02-0.386D-02-0.869D-01 0.192D+00-0.157D+00-0.115D+00
 Coeff-Com:  0.182D+00 0.340D-01-0.135D+00 0.489D+00 0.329D+00 0.493D+00
 Coeff-Com:  0.233D+01-0.329D+00 0.181D+00-0.522D+00-0.286D+01-0.150D+00
 Coeff-Com: -0.223D+00 0.135D+01
 Coeff-En:   0.000D+00 0.000D+00 0.000D+00 0.000D+00 0.000D+00 0.000D+00
 Coeff-En:   0.000D+00 0.000D+00 0.000D+00 0.000D+00 0.000D+00 0.000D+00
 Coeff-En:   0.000D+00 0.000D+00 0.000D+00 0.000D+00 0.000D+00 0.000D+00
 Coeff-En:   0.000D+00 0.100D+01
 Coeff:      0.207D-02-0.380D-02-0.855D-01 0.189D+00-0.154D+00-0.113D+00
 Coeff:      0.179D+00 0.335D-01-0.133D+00 0.481D+00 0.323D+00 0.485D+00
 Coeff:      0.229D+01-0.323D+00 0.178D+00-0.514D+00-0.281D+01-0.147D+00
 Coeff:     -0.220D+00 0.135D+01
 Gap=     0.022 Goal=   None    Shift=    0.000
 Gap=    -0.005 Goal=   None    Shift=    0.000
 RMSDP=3.26D-03 MaxDP=5.89D-01 DE=-1.68D-01 OVMax= 1.00D+00

 Cycle  41  Pass 1  IDiag  1:
 Restarting incremental Fock formation.
 E= -1135.83460504308     Delta-E=        0.202880407131 Rises=F Damp=F
 DIIS: error= 1.19D-02 at cycle  41 NSaved=  20.
 NSaved=20 IEnMin=19 EnMin= -1136.03748545021     IErMin=11 ErrMin= 1.65D-03
 ErrMax= 1.19D-02  0.00D+00 EMaxC= 1.00D-01 BMatC= 1.38D-02 BMatP= 3.73D-04
 IDIUse=2 WtCom= 0.00D+00 WtEn= 1.00D+00
 Rare condition: small coef for last iteration:  0.000D+00
 Coeff-En:   0.000D+00 0.000D+00 0.000D+00 0.000D+00 0.000D+00 0.000D+00
 Coeff-En:   0.209D+00 0.257D+00 0.126D+00 0.187D+00 0.000D+00 0.000D+00
 Coeff-En:   0.174D-02 0.199D-02 0.000D+00 0.000D+00 0.000D+00 0.139D+00
 Coeff-En:   0.000D+00 0.791D-01
 Coeff:      0.000D+00 0.000D+00 0.000D+00 0.000D+00 0.000D+00 0.000D+00
 Coeff:      0.209D+00 0.257D+00 0.126D+00 0.187D+00 0.000D+00 0.000D+00
 Coeff:      0.174D-02 0.199D-02 0.000D+00 0.000D+00 0.000D+00 0.139D+00
 Coeff:      0.000D+00 0.791D-01
 Gap=     0.035 Goal=   None    Shift=    0.000
 Gap=     0.037 Goal=   None    Shift=    0.000
 RMSDP=8.79D-04 MaxDP=1.60D-01 DE= 2.03D-01 OVMax= 5.69D-02

 Cycle  42  Pass 1  IDiag  1:
 RMSU=  8.78D-04    CP:  1.00D+00
 E= -1135.82685967690     Delta-E=        0.007745366181 Rises=F Damp=F
 DIIS: error= 1.29D-02 at cycle  42 NSaved=  20.
 NSaved=20 IEnMin=12 EnMin= -1136.03746427381     IErMin=11 ErrMin= 1.65D-03
 ErrMax= 1.29D-02  0.00D+00 EMaxC= 1.00D-01 BMatC= 2.10D-02 BMatP= 3.76D-04
 IDIUse=2 WtCom= 0.00D+00 WtEn= 1.00D+00
 EnCoef did   100 forward-backward iterations
 Rare condition: small coef for last iteration:  0.483D-16
 Coeff-En:   0.000D+00 0.000D+00 0.000D+00 0.000D+00 0.000D+00 0.122D-02
 Coeff-En:   0.209D+00 0.256D+00 0.126D+00 0.187D+00 0.000D+00 0.000D+00
 Coeff-En:   0.502D-02 0.167D-02 0.000D+00 0.000D+00 0.000D+00 0.140D+00
 Coeff-En:   0.000D+00 0.735D-01
 Coeff:      0.000D+00 0.000D+00 0.000D+00 0.000D+00 0.000D+00 0.122D-02
 Coeff:      0.209D+00 0.256D+00 0.126D+00 0.187D+00 0.000D+00 0.000D+00
 Coeff:      0.502D-02 0.167D-02 0.000D+00 0.000D+00 0.000D+00 0.140D+00
 Coeff:      0.000D+00 0.735D-01
 Gap=     0.027 Goal=   None    Shift=    0.000
 Gap=     0.038 Goal=   None    Shift=    0.000
 RMSDP=2.47D-05 MaxDP=2.07D-03 DE= 7.75D-03 OVMax= 4.90D-03

 Cycle  43  Pass 1  IDiag  1:
 RMSU=  2.42D-05    CP:  1.00D+00  1.01D+00
 E= -1135.82692146027     Delta-E=       -0.000061783365 Rises=F Damp=F
 DIIS: error= 1.29D-02 at cycle  43 NSaved=  20.
 NSaved=20 IEnMin=12 EnMin= -1136.03746427381     IErMin=11 ErrMin= 1.65D-03
 ErrMax= 1.29D-02  0.00D+00 EMaxC= 1.00D-01 BMatC= 2.06D-02 BMatP= 3.76D-04
 IDIUse=2 WtCom= 0.00D+00 WtEn= 1.00D+00
 EnCoef did   100 forward-backward iterations
 Coeff-En:   0.000D+00 0.000D+00 0.000D+00 0.000D+00 0.000D+00 0.269D-03
 Coeff-En:   0.481D+00 0.469D-03 0.799D-02 0.139D-02 0.000D+00 0.000D+00
 Coeff-En:   0.111D-02 0.439D+00 0.000D+00 0.000D+00 0.000D+00 0.620D-01
 Coeff-En:   0.000D+00 0.680D-02
 Coeff:      0.000D+00 0.000D+00 0.000D+00 0.000D+00 0.000D+00 0.269D-03
 Coeff:      0.481D+00 0.469D-03 0.799D-02 0.139D-02 0.000D+00 0.000D+00
 Coeff:      0.111D-02 0.439D+00 0.000D+00 0.000D+00 0.000D+00 0.620D-01
 Coeff:      0.000D+00 0.680D-02
 Gap=     0.011 Goal=   None    Shift=    0.000
 Gap=    -0.038 Goal=   None    Shift=    0.000
 RMSDP=3.78D-03 MaxDP=7.51D-01 DE=-6.18D-05 OVMax= 9.98D-01

 Cycle  44  Pass 1  IDiag  1:
 RMSU=  3.28D-03    CP:  9.82D-01 -1.08D+00  1.73D+00
 E= -1135.86946740085     Delta-E=       -0.042545940579 Rises=F Damp=F
 DIIS: error= 4.64D-03 at cycle  44 NSaved=  20.
 NSaved=20 IEnMin=12 EnMin= -1136.03746427381     IErMin=11 ErrMin= 1.65D-03
 ErrMax= 4.64D-03  0.00D+00 EMaxC= 1.00D-01 BMatC= 8.07D-03 BMatP= 3.76D-04
 IDIUse=3 WtCom= 9.83D-01 WtEn= 1.65D-02
 EnCoef did   100 forward-backward iterations
 Rare condition: small coef for last iteration: -0.491D-15
 Coeff-Com:  0.977D-03-0.207D-02-0.765D-01-0.146D+00 0.306D-01 0.167D+00
 Coeff-Com:  0.515D-01-0.252D-01 0.532D+00 0.302D+00 0.540D-01 0.154D+01
 Coeff-Com: -0.117D+00 0.134D+00-0.159D+01 0.642D+00 0.135D+01-0.434D+01
 Coeff-Com: -0.174D+01 0.424D+01
 Coeff-En:   0.000D+00 0.000D+00 0.000D+00 0.000D+00 0.000D+00 0.128D-02
 Coeff-En:   0.209D+00 0.256D+00 0.126D+00 0.187D+00 0.000D+00 0.000D+00
 Coeff-En:   0.513D-02 0.164D-02 0.000D+00 0.000D+00 0.000D+00 0.000D+00
 Coeff-En:   0.734D-01 0.140D+00
 Coeff:      0.977D-03-0.207D-02-0.765D-01-0.146D+00 0.306D-01 0.167D+00
 Coeff:      0.515D-01-0.252D-01 0.532D+00 0.302D+00 0.540D-01 0.154D+01
 Coeff:     -0.117D+00 0.134D+00-0.159D+01 0.642D+00 0.135D+01-0.434D+01
 Coeff:     -0.174D+01 0.424D+01
 Gap=     0.025 Goal=   None    Shift=    0.000
 Gap=    -0.021 Goal=   None    Shift=    0.000
 RMSDP=3.31D-03 MaxDP=5.24D-01 DE=-4.25D-02 OVMax= 1.00D+00

 Cycle  45  Pass 1  IDiag  1:
 RMSU=  2.78D-03    CP:  9.83D-01 -1.24D+00 -3.00D+00  4.59D-01
 E= -1136.03784857033     Delta-E=       -0.168381169485 Rises=F Damp=F
 DIIS: error= 1.06D-03 at cycle  45 NSaved=  20.
 NSaved=20 IEnMin=20 EnMin= -1136.03784857033     IErMin=20 ErrMin= 1.06D-03
 ErrMax= 1.06D-03  0.00D+00 EMaxC= 1.00D-01 BMatC= 1.63D-04 BMatP= 3.76D-04
 IDIUse=3 WtCom= 9.89D-01 WtEn= 1.06D-02
 Coeff-Com:  0.322D-03 0.388D-03-0.115D+00-0.290D-01 0.850D-01 0.649D-01
 Coeff-Com: -0.489D-01 0.969D-01 0.187D+00-0.213D+00 0.698D+00 0.973D-02
 Coeff-Com:  0.194D+00 0.287D+01-0.424D+01 0.555D+01-0.780D+01-0.564D+01
 Coeff-Com:  0.762D+01 0.171D+01
 Coeff-En:   0.000D+00 0.000D+00 0.000D+00 0.000D+00 0.000D+00 0.000D+00
 Coeff-En:   0.000D+00 0.000D+00 0.000D+00 0.000D+00 0.000D+00 0.000D+00
 Coeff-En:   0.000D+00 0.000D+00 0.000D+00 0.000D+00 0.000D+00 0.000D+00
 Coeff-En:   0.000D+00 0.100D+01
 Coeff:      0.319D-03 0.384D-03-0.114D+00-0.287D-01 0.841D-01 0.642D-01
 Coeff:     -0.484D-01 0.959D-01 0.185D+00-0.211D+00 0.690D+00 0.963D-02
 Coeff:      0.191D+00 0.284D+01-0.419D+01 0.549D+01-0.772D+01-0.558D+01
 Coeff:      0.754D+01 0.171D+01
 Gap=     0.046 Goal=   None    Shift=    0.000
 Gap=     0.025 Goal=   None    Shift=    0.000
 RMSDP=4.18D-04 MaxDP=6.04D-02 DE=-1.68D-01 OVMax= 2.66D-02

 Cycle  46  Pass 1  IDiag  1:
 RMSU=  4.12D-04    CP:  9.83D-01 -1.25D+00 -2.47D+00  4.69D-01  1.02D+00
 E= -1136.03832557723     Delta-E=       -0.000477006900 Rises=F Damp=F
 DIIS: error= 5.63D-04 at cycle  46 NSaved=  20.
 NSaved=20 IEnMin=20 EnMin= -1136.03832557723     IErMin=20 ErrMin= 5.63D-04
 ErrMax= 5.63D-04  0.00D+00 EMaxC= 1.00D-01 BMatC= 4.11D-05 BMatP= 1.63D-04
 IDIUse=3 WtCom= 9.94D-01 WtEn= 5.63D-03
 Coeff-Com: -0.339D-02 0.373D-02-0.253D-01-0.129D-02 0.322D-01-0.251D-01
 Coeff-Com:  0.833D-01 0.487D-01-0.570D+00 0.137D+01-0.315D-01 0.772D-01
 Coeff-Com: -0.228D+01 0.153D+01 0.232D+01-0.329D+01-0.236D+01 0.319D+01
 Coeff-Com: -0.440D+00 0.136D+01
 Coeff-En:   0.000D+00 0.000D+00 0.000D+00 0.000D+00 0.000D+00 0.000D+00
 Coeff-En:   0.000D+00 0.000D+00 0.000D+00 0.000D+00 0.000D+00 0.000D+00
 Coeff-En:   0.000D+00 0.000D+00 0.000D+00 0.000D+00 0.000D+00 0.000D+00
 Coeff-En:   0.000D+00 0.100D+01
 Coeff:     -0.337D-02 0.371D-02-0.252D-01-0.128D-02 0.321D-01-0.250D-01
 Coeff:      0.828D-01 0.484D-01-0.566D+00 0.137D+01-0.313D-01 0.768D-01
 Coeff:     -0.227D+01 0.153D+01 0.231D+01-0.327D+01-0.235D+01 0.317D+01
 Coeff:     -0.437D+00 0.135D+01
 Gap=     0.063 Goal=   None    Shift=    0.000
 Gap=     0.039 Goal=   None    Shift=    0.000
 RMSDP=2.73D-04 MaxDP=4.22D-02 DE=-4.77D-04 OVMax= 3.06D-02

 Cycle  47  Pass 1  IDiag  1:
 RMSU=  1.91D-04    CP:  9.83D-01 -1.28D+00 -3.00D+00  4.58D-01  1.03D+00
                    CP:  1.45D+00
 E= -1136.03847686834     Delta-E=       -0.000151291109 Rises=F Damp=F
 DIIS: error= 2.86D-04 at cycle  47 NSaved=  20.
 NSaved=20 IEnMin=20 EnMin= -1136.03847686834     IErMin=20 ErrMin= 2.86D-04
 ErrMax= 2.86D-04  0.00D+00 EMaxC= 1.00D-01 BMatC= 1.61D-05 BMatP= 4.11D-05
 IDIUse=3 WtCom= 9.97D-01 WtEn= 2.86D-03
 Coeff-Com:  0.719D-03-0.390D-02 0.153D-02 0.309D-02-0.213D-02 0.192D-01
 Coeff-Com:  0.149D-01-0.221D+00 0.962D+00-0.481D-02-0.515D-01-0.247D+01
 Coeff-Com:  0.193D+01 0.126D+00 0.560D+00-0.140D+00-0.523D+00-0.374D+00
 Coeff-Com:  0.230D+00 0.941D+00
 Coeff-En:   0.000D+00 0.000D+00 0.000D+00 0.000D+00 0.000D+00 0.000D+00
 Coeff-En:   0.000D+00 0.000D+00 0.000D+00 0.000D+00 0.000D+00 0.000D+00
 Coeff-En:   0.000D+00 0.000D+00 0.000D+00 0.000D+00 0.000D+00 0.000D+00
 Coeff-En:   0.000D+00 0.100D+01
 Coeff:      0.717D-03-0.389D-02 0.152D-02 0.308D-02-0.212D-02 0.192D-01
 Coeff:      0.148D-01-0.220D+00 0.959D+00-0.480D-02-0.514D-01-0.247D+01
 Coeff:      0.193D+01 0.126D+00 0.558D+00-0.140D+00-0.522D+00-0.372D+00
 Coeff:      0.230D+00 0.941D+00
 Gap=     0.064 Goal=   None    Shift=    0.000
 Gap=     0.045 Goal=   None    Shift=    0.000
 RMSDP=1.05D-04 MaxDP=1.27D-02 DE=-1.51D-04 OVMax= 1.41D-02

 Cycle  48  Pass 1  IDiag  1:
 RMSU=  5.61D-05    CP:  9.83D-01 -1.32D+00 -3.00D+00  4.49D-01  1.03D+00
                    CP:  1.39D+00  1.39D+00
 E= -1136.03850413459     Delta-E=       -0.000027266249 Rises=F Damp=F
 DIIS: error= 1.32D-04 at cycle  48 NSaved=  20.
 NSaved=20 IEnMin=20 EnMin= -1136.03850413459     IErMin=20 ErrMin= 1.32D-04
 ErrMax= 1.32D-04  0.00D+00 EMaxC= 1.00D-01 BMatC= 3.25D-06 BMatP= 1.61D-05
 IDIUse=3 WtCom= 9.99D-01 WtEn= 1.32D-03
 Coeff-Com: -0.531D-03 0.255D-02 0.549D-03 0.111D-02-0.282D-01 0.624D-02
 Coeff-Com:  0.724D-02 0.193D+00 0.993D-02-0.333D-01-0.470D+00 0.209D+00
 Coeff-Com:  0.110D+00-0.203D+00-0.938D-01 0.225D+00 0.517D-01 0.964D-03
 Coeff-Com:  0.629D-01 0.949D+00
 Coeff-En:   0.000D+00 0.000D+00 0.000D+00 0.000D+00 0.000D+00 0.000D+00
 Coeff-En:   0.000D+00 0.000D+00 0.000D+00 0.000D+00 0.000D+00 0.000D+00
 Coeff-En:   0.000D+00 0.000D+00 0.000D+00 0.000D+00 0.000D+00 0.000D+00
 Coeff-En:   0.000D+00 0.100D+01
 Coeff:     -0.530D-03 0.255D-02 0.548D-03 0.111D-02-0.281D-01 0.623D-02
 Coeff:      0.723D-02 0.193D+00 0.991D-02-0.332D-01-0.470D+00 0.208D+00
 Coeff:      0.110D+00-0.202D+00-0.937D-01 0.225D+00 0.516D-01 0.963D-03
 Coeff:      0.628D-01 0.949D+00
 Gap=     0.062 Goal=   None    Shift=    0.000
 Gap=     0.046 Goal=   None    Shift=    0.000
 RMSDP=3.04D-05 MaxDP=5.26D-03 DE=-2.73D-05 OVMax= 1.84D-03

 Cycle  49  Pass 1  IDiag  1:
 RMSU=  1.74D-05    CP:  9.83D-01 -1.34D+00 -3.00D+00  4.48D-01  1.03D+00
                    CP:  1.37D+00  1.39D+00  1.33D+00
 E= -1136.03850663133     Delta-E=       -0.000002496745 Rises=F Damp=F
 DIIS: error= 1.22D-04 at cycle  49 NSaved=  20.
 NSaved=20 IEnMin=20 EnMin= -1136.03850663133     IErMin=20 ErrMin= 1.22D-04
 ErrMax= 1.22D-04  0.00D+00 EMaxC= 1.00D-01 BMatC= 1.81D-06 BMatP= 3.25D-06
 IDIUse=3 WtCom= 9.99D-01 WtEn= 1.22D-03
 Coeff-Com: -0.246D-03 0.482D-02 0.372D-03 0.132D-02-0.984D-02 0.280D-02
 Coeff-Com:  0.278D-01 0.197D+00-0.380D-02-0.131D-01-0.140D+00-0.140D+00
 Coeff-Com:  0.130D-01 0.186D+00-0.182D+00 0.344D-01 0.189D-01 0.169D-02
 Coeff-Com: -0.315D-01 0.103D+01
 Coeff-En:   0.000D+00 0.000D+00 0.000D+00 0.000D+00 0.000D+00 0.000D+00
 Coeff-En:   0.000D+00 0.000D+00 0.000D+00 0.000D+00 0.000D+00 0.000D+00
 Coeff-En:   0.000D+00 0.000D+00 0.000D+00 0.000D+00 0.000D+00 0.000D+00
 Coeff-En:   0.000D+00 0.100D+01
 Coeff:     -0.246D-03 0.481D-02 0.372D-03 0.131D-02-0.983D-02 0.279D-02
 Coeff:      0.278D-01 0.197D+00-0.380D-02-0.131D-01-0.139D+00-0.140D+00
 Coeff:      0.130D-01 0.186D+00-0.182D+00 0.343D-01 0.188D-01 0.169D-02
 Coeff:     -0.315D-01 0.103D+01
 Gap=     0.061 Goal=   None    Shift=    0.000
 Gap=     0.047 Goal=   None    Shift=    0.000
 RMSDP=2.03D-05 MaxDP=3.50D-03 DE=-2.50D-06 OVMax= 1.10D-03

 Cycle  50  Pass 1  IDiag  1:
 RMSU=  7.88D-06    CP:  9.83D-01 -1.35D+00 -3.00D+00  4.48D-01  1.03D+00
                    CP:  1.37D+00  1.35D+00  1.51D+00  1.63D+00
 E= -1136.03850789322     Delta-E=       -0.000001261886 Rises=F Damp=F
 DIIS: error= 9.62D-05 at cycle  50 NSaved=  20.
 NSaved=20 IEnMin=20 EnMin= -1136.03850789322     IErMin=20 ErrMin= 9.62D-05
 ErrMax= 9.62D-05  0.00D+00 EMaxC= 1.00D-01 BMatC= 1.06D-06 BMatP= 1.81D-06
 IDIUse=1 WtCom= 1.00D+00 WtEn= 0.00D+00
 Coeff-Com: -0.481D-04 0.434D-02-0.728D-04 0.122D-02 0.562D-02 0.127D-02
 Coeff-Com:  0.168D-01 0.225D+00-0.430D-02-0.110D-01-0.280D+00 0.626D-01
 Coeff-Com:  0.289D+00-0.285D+00-0.648D-01 0.194D-01 0.153D+00-0.367D+00
 Coeff-Com:  0.112D-01 0.122D+01
 Coeff:     -0.481D-04 0.434D-02-0.728D-04 0.122D-02 0.562D-02 0.127D-02
 Coeff:      0.168D-01 0.225D+00-0.430D-02-0.110D-01-0.280D+00 0.626D-01
 Coeff:      0.289D+00-0.285D+00-0.648D-01 0.194D-01 0.153D+00-0.367D+00
 Coeff:      0.112D-01 0.122D+01
 Gap=     0.061 Goal=   None    Shift=    0.000
 Gap=     0.047 Goal=   None    Shift=    0.000
 RMSDP=1.56D-05 MaxDP=2.50D-03 DE=-1.26D-06 OVMax= 8.55D-04

 Cycle  51  Pass 1  IDiag  1:
 RMSU=  3.92D-06    CP:  9.82D-01 -1.35D+00 -3.00D+00  4.48D-01  1.04D+00
                    CP:  1.39D+00  1.32D+00  1.64D+00  1.89D+00  2.05D+00
 E= -1136.03850869621     Delta-E=       -0.000000802991 Rises=F Damp=F
 DIIS: error= 6.58D-05 at cycle  51 NSaved=  20.
 NSaved=20 IEnMin=20 EnMin= -1136.03850869621     IErMin=20 ErrMin= 6.58D-05
 ErrMax= 6.58D-05  0.00D+00 EMaxC= 1.00D-01 BMatC= 5.34D-07 BMatP= 1.06D-06
 IDIUse=1 WtCom= 1.00D+00 WtEn= 0.00D+00
 Coeff-Com: -0.214D-03 0.748D-03 0.513D-03 0.494D-02 0.177D-02 0.259D-01
 Coeff-Com:  0.790D-01-0.399D-02-0.845D-02-0.135D+00 0.704D-01-0.791D-01
 Coeff-Com:  0.844D-01-0.589D-01-0.226D-02 0.546D-01 0.142D+00-0.239D+00
 Coeff-Com: -0.105D+01 0.212D+01
 Coeff:     -0.214D-03 0.748D-03 0.513D-03 0.494D-02 0.177D-02 0.259D-01
 Coeff:      0.790D-01-0.399D-02-0.845D-02-0.135D+00 0.704D-01-0.791D-01
 Coeff:      0.844D-01-0.589D-01-0.226D-02 0.546D-01 0.142D+00-0.239D+00
 Coeff:     -0.105D+01 0.212D+01
 Gap=     0.062 Goal=   None    Shift=    0.000
 Gap=     0.048 Goal=   None    Shift=    0.000
 RMSDP=1.89D-05 MaxDP=3.27D-03 DE=-8.03D-07 OVMax= 9.95D-04

 Cycle  52  Pass 1  IDiag  1:
 RMSU=  7.56D-06    CP:  9.82D-01 -1.34D+00 -3.00D+00  4.49D-01  1.04D+00
                    CP:  1.40D+00  1.32D+00  1.66D+00  1.78D+00  3.00D+00
                    CP:  3.00D+00
 E= -1136.03850936718     Delta-E=       -0.000000670964 Rises=F Damp=F
 DIIS: error= 2.84D-05 at cycle  52 NSaved=  20.
 NSaved=20 IEnMin=20 EnMin= -1136.03850936718     IErMin=20 ErrMin= 2.84D-05
 ErrMax= 2.84D-05  0.00D+00 EMaxC= 1.00D-01 BMatC= 7.59D-08 BMatP= 5.34D-07
 IDIUse=1 WtCom= 1.00D+00 WtEn= 0.00D+00
 Coeff-Com:  0.258D-04-0.696D-03 0.170D-03 0.185D-03 0.146D-02 0.145D-01
 Coeff-Com:  0.265D-02-0.538D-02-0.142D-01-0.384D-02-0.148D+00 0.153D+00
 Coeff-Com:  0.359D-02-0.130D-01-0.248D-03 0.664D-01-0.222D-01-0.393D+00
 Coeff-Com:  0.287D+00 0.107D+01
 Coeff:      0.258D-04-0.696D-03 0.170D-03 0.185D-03 0.146D-02 0.145D-01
 Coeff:      0.265D-02-0.538D-02-0.142D-01-0.384D-02-0.148D+00 0.153D+00
 Coeff:      0.359D-02-0.130D-01-0.248D-03 0.664D-01-0.222D-01-0.393D+00
 Coeff:      0.287D+00 0.107D+01
 Gap=     0.062 Goal=   None    Shift=    0.000
 Gap=     0.048 Goal=   None    Shift=    0.000
 RMSDP=8.89D-06 MaxDP=1.58D-03 DE=-6.71D-07 OVMax= 5.07D-04

 Cycle  53  Pass 1  IDiag  1:
 RMSU=  5.88D-06    CP:  9.82D-01 -1.34D+00 -3.00D+00  4.49D-01  1.04D+00
                    CP:  1.40D+00  1.31D+00  1.66D+00  1.71D+00  3.00D+00
                    CP:  3.00D+00  1.59D+00
 E= -1136.03850944649     Delta-E=       -0.000000079319 Rises=F Damp=F
 DIIS: error= 1.10D-05 at cycle  53 NSaved=  20.
 NSaved=20 IEnMin=20 EnMin= -1136.03850944649     IErMin=20 ErrMin= 1.10D-05
 ErrMax= 1.10D-05  0.00D+00 EMaxC= 1.00D-01 BMatC= 1.97D-08 BMatP= 7.59D-08
 IDIUse=1 WtCom= 1.00D+00 WtEn= 0.00D+00
 Coeff-Com:  0.141D-04-0.959D-04 0.483D-04 0.460D-03-0.292D-02 0.708D-02
 Coeff-Com: -0.161D-02-0.101D-01-0.284D-02-0.118D-01 0.130D-01 0.969D-02
 Coeff-Com: -0.865D-03-0.421D-02-0.197D-01-0.769D-02 0.435D-01-0.533D-01
 Coeff-Com:  0.147D+00 0.894D+00
 Coeff:      0.141D-04-0.959D-04 0.483D-04 0.460D-03-0.292D-02 0.708D-02
 Coeff:     -0.161D-02-0.101D-01-0.284D-02-0.118D-01 0.130D-01 0.969D-02
 Coeff:     -0.865D-03-0.421D-02-0.197D-01-0.769D-02 0.435D-01-0.533D-01
 Coeff:      0.147D+00 0.894D+00
 Gap=     0.062 Goal=   None    Shift=    0.000
 Gap=     0.048 Goal=   None    Shift=    0.000
 RMSDP=3.01D-06 MaxDP=4.84D-04 DE=-7.93D-08 OVMax= 1.43D-04

 Cycle  54  Pass 1  IDiag  1:
 RMSU=  1.28D-06    CP:  9.82D-01 -1.34D+00 -3.00D+00  4.49D-01  1.04D+00
                    CP:  1.40D+00  1.31D+00  1.69D+00  1.75D+00  3.00D+00
                    CP:  3.00D+00  1.53D+00  1.00D+00
 E= -1136.03850946632     Delta-E=       -0.000000019823 Rises=F Damp=F
 DIIS: error= 4.34D-06 at cycle  54 NSaved=  20.
 NSaved=20 IEnMin=20 EnMin= -1136.03850946632     IErMin=20 ErrMin= 4.34D-06
 ErrMax= 4.34D-06  0.00D+00 EMaxC= 1.00D-01 BMatC= 3.10D-09 BMatP= 1.97D-08
 IDIUse=1 WtCom= 1.00D+00 WtEn= 0.00D+00
 Coeff-Com: -0.496D-05 0.394D-04 0.169D-03-0.144D-02 0.273D-02-0.237D-03
 Coeff-Com: -0.931D-02 0.373D-02-0.784D-02 0.788D-02 0.383D-02 0.176D-02
 Coeff-Com: -0.182D-02-0.683D-02-0.121D-01 0.462D-01-0.480D-01-0.162D-01
 Coeff-Com:  0.190D+00 0.847D+00
 Coeff:     -0.496D-05 0.394D-04 0.169D-03-0.144D-02 0.273D-02-0.237D-03
 Coeff:     -0.931D-02 0.373D-02-0.784D-02 0.788D-02 0.383D-02 0.176D-02
 Coeff:     -0.182D-02-0.683D-02-0.121D-01 0.462D-01-0.480D-01-0.162D-01
 Coeff:      0.190D+00 0.847D+00
 Gap=     0.062 Goal=   None    Shift=    0.000
 Gap=     0.049 Goal=   None    Shift=    0.000
 RMSDP=1.26D-06 MaxDP=1.97D-04 DE=-1.98D-08 OVMax= 6.76D-05

 Cycle  55  Pass 1  IDiag  1:
 RMSU=  2.01D-07    CP:  9.82D-01 -1.34D+00 -3.00D+00  4.49D-01  1.04D+00
                    CP:  1.40D+00  1.31D+00  1.70D+00  1.75D+00  3.00D+00
                    CP:  3.00D+00  1.53D+00  1.10D+00  1.53D+00
 E= -1136.03850946985     Delta-E=       -0.000000003536 Rises=F Damp=F
 DIIS: error= 1.78D-06 at cycle  55 NSaved=  20.
 NSaved=20 IEnMin=20 EnMin= -1136.03850946985     IErMin=20 ErrMin= 1.78D-06
 ErrMax= 1.78D-06  0.00D+00 EMaxC= 1.00D-01 BMatC= 5.71D-10 BMatP= 3.10D-09
 IDIUse=1 WtCom= 1.00D+00 WtEn= 0.00D+00
 Coeff-Com: -0.312D-05 0.456D-04 0.290D-03 0.217D-02-0.920D-04-0.950D-03
 Coeff-Com: -0.156D-02 0.922D-04-0.343D-04 0.253D-03-0.298D-03 0.109D-02
 Coeff-Com:  0.149D-01 0.216D-03-0.339D-01 0.432D-02 0.331D-01-0.228D+00
 Coeff-Com: -0.802D-01 0.129D+01
 Coeff:     -0.312D-05 0.456D-04 0.290D-03 0.217D-02-0.920D-04-0.950D-03
 Coeff:     -0.156D-02 0.922D-04-0.343D-04 0.253D-03-0.298D-03 0.109D-02
 Coeff:      0.149D-01 0.216D-03-0.339D-01 0.432D-02 0.331D-01-0.228D+00
 Coeff:     -0.802D-01 0.129D+01
 Gap=     0.062 Goal=   None    Shift=    0.000
 Gap=     0.049 Goal=   None    Shift=    0.000
 RMSDP=8.19D-07 MaxDP=1.24D-04 DE=-3.54D-09 OVMax= 5.81D-05

 Cycle  56  Pass 1  IDiag  1:
 RMSU=  1.40D-07    CP:  9.82D-01 -1.34D+00 -3.00D+00  4.49D-01  1.04D+00
                    CP:  1.40D+00  1.31D+00  1.70D+00  1.72D+00  3.00D+00
                    CP:  3.00D+00  1.53D+00  1.14D+00  1.87D+00  1.71D+00
 E= -1136.03850947081     Delta-E=       -0.000000000952 Rises=F Damp=F
 DIIS: error= 3.79D-07 at cycle  56 NSaved=  20.
 NSaved=20 IEnMin=20 EnMin= -1136.03850947081     IErMin=20 ErrMin= 3.79D-07
 ErrMax= 3.79D-07  0.00D+00 EMaxC= 1.00D-01 BMatC= 4.32D-11 BMatP= 5.71D-10
 IDIUse=1 WtCom= 1.00D+00 WtEn= 0.00D+00
 Coeff-Com:  0.480D-06 0.108D-03-0.917D-03 0.430D-04 0.261D-02-0.190D-02
 Coeff-Com:  0.851D-03-0.895D-03 0.387D-03-0.646D-03-0.240D-03 0.484D-02
 Coeff-Com:  0.668D-03-0.100D-01 0.874D-02 0.164D-02-0.161D-01-0.234D+00
 Coeff-Com:  0.127D+00 0.112D+01
 Coeff:      0.480D-06 0.108D-03-0.917D-03 0.430D-04 0.261D-02-0.190D-02
[...]
  Beta virt. eigenvalues --    0.35322   0.35322   0.35322   0.35323   0.35323
  Beta virt. eigenvalues --    0.35323   0.35323   0.35323   0.35691   0.35814
  Beta virt. eigenvalues --    0.38395   0.38516   0.40102   0.41938   0.41938
  Beta virt. eigenvalues --    0.41938   0.41939   0.41939   0.41939   0.42723
  Beta virt. eigenvalues --    0.42804   0.42905   0.43432   0.43432   0.43432
  Beta virt. eigenvalues --    0.43433   0.43433   0.43433   0.43456   0.43948
  Beta virt. eigenvalues --    0.44830   0.44921   0.45928   0.49715   0.49794
  Beta virt. eigenvalues --    0.51362   0.72941   1.98665   1.98665   1.99534
  Beta virt. eigenvalues --    1.99535   2.00756   2.05997   2.13779   4.41636
  Beta virt. eigenvalues --    4.42809   4.42809   4.42809   4.42809   4.42809
  Beta virt. eigenvalues --    4.42809   4.42978   4.43039   4.43131   4.43131
  Beta virt. eigenvalues --    4.43131   4.43132   4.43132   4.43132   4.43435
  Beta virt. eigenvalues --    4.43742   4.45361   4.46403   4.46922   4.66705
  Beta virt. eigenvalues --   96.17682  96.17682  96.17951  96.17952  96.19563
  Beta virt. eigenvalues --   96.25759  96.36536
          Condensed to atoms (all electrons):
               1          2          3          4          5          6
     1  Na  11.000000   0.000000   0.000000   0.000000   0.000000   0.000000
     2  Na   0.000000  10.928405   0.039486  -0.057459   0.000000   0.000000
     3  Na   0.000000   0.039486  11.102334   0.250473   0.000000   0.000000
     4  Na   0.000000  -0.057459   0.250473  10.504264   0.000000   0.000000
     5  Na   0.000000   0.000000   0.000000   0.000000  11.000000   0.000000
     6  Na   0.000000   0.000000   0.000000   0.000000   0.000000  11.000000
     7  Na   0.000000   0.000000   0.000000   0.000000   0.000000   0.000000
               7
     1  Na   0.000000
     2  Na   0.000000
     3  Na   0.000000
     4  Na   0.000000
     5  Na   0.000000
     6  Na   0.000000
     7  Na  11.000000
          Atomic-Atomic Spin Densities.
               1          2          3          4          5          6
     1  Na   1.000000   0.000000   0.000000   0.000000   0.000000   0.000000
     2  Na   0.000000   0.852319   0.006234  -0.029500   0.000000   0.000000
     3  Na   0.000000   0.006234  -0.135143   0.079034   0.000000   0.000000
     4  Na   0.000000  -0.029500   0.079034   0.171289   0.000000   0.000000
     5  Na   0.000000   0.000000   0.000000   0.000000  -1.000000   0.000000
     6  Na   0.000000   0.000000   0.000000   0.000000   0.000000  -1.000000
     7  Na   0.000000   0.000000   0.000000   0.000000   0.000000   0.000000
               7
     1  Na   0.000000
     2  Na   0.000000
     3  Na   0.000000
     4  Na   0.000000
     5  Na   0.000000
     6  Na   0.000000
     7  Na   1.000000
 Mulliken charges and spin densities:
               1          2
     1  Na  -0.000000   1.000000
     2  Na   0.089569   0.829053
     3  Na  -0.392292  -0.049875
     4  Na   0.302723   0.220823
     5  Na  -0.000000  -1.000000
     6  Na  -0.000000  -1.000000
     7  Na  -0.000000   1.000000
 Sum of Mulliken charges =  -0.00000   1.00000
 Mulliken charges and spin densities with hydrogens summed into heavy atoms:
               1          2
     1  Na  -0.000000   1.000000
     2  Na   0.089569   0.829053
     3  Na  -0.392292  -0.049875
     4  Na   0.302723   0.220823
     5  Na  -0.000000  -1.000000
     6  Na  -0.000000  -1.000000
     7  Na  -0.000000   1.000000
 Electronic spatial extent (au):  <R**2>=        1311500.2954
 Charge=             -0.0000 electrons
 Dipole moment (field-independent basis, Debye):
    X=              0.2194    Y=              0.2115    Z=             -0.3235  Tot=              0.4444
 Quadrupole moment (field-independent basis, Debye-Ang):
   XX=            -86.6765   YY=            -72.4068   ZZ=            -60.8739
   XY=             -0.4050   XZ=              2.5434   YZ=             -6.5279
 Traceless Quadrupole moment (field-independent basis, Debye-Ang):
   XX=            -13.3575   YY=              0.9123   ZZ=             12.4452
   XY=             -0.4050   XZ=              2.5434   YZ=             -6.5279
 Octapole moment (field-independent basis, Debye-Ang**2):
  XXX=            -18.6323  YYY=            -91.6752  ZZZ=           -833.5738  XYY=           -289.2757
  XXY=           -214.3345  XXZ=            -25.5801  XZZ=           -346.8884  YZZ=            192.7840
  YYZ=           -187.2671  XYZ=             47.3707
 Hexadecapole moment (field-independent basis, Debye-Ang**3):
 XXXX=       -1157407.4960 YYYY=        -637630.6862 ZZZZ=        -444552.4407 XXXY=          14978.4703
 XXXZ=           5038.9834 YYYX=           3337.4350 YYYZ=           2314.5030 ZZZX=          18171.7869
 ZZZY=          -5525.1306 XXYY=        -290877.1616 XXZZ=        -266994.9495 YYZZ=        -181174.7363
 XXYZ=           4256.3856 YYXZ=           7232.1868 ZZXY=          -2056.6856
 N-N= 5.589221013534D+01 E-N=-2.840041117229D+03  KE= 1.132819653060D+03
                          Isotropic Fermi Contact Couplings
        Atom                 a.u.       MegaHertz       Gauss      10(-4) cm-1
     1  Na(23)             0.79296     938.09920     334.73712     312.91621
     2  Na(23)             0.69080     817.23736     291.61061     272.60104
     3  Na(23)            -0.09990    -118.18161     -42.17014     -39.42114
     4  Na(23)             0.21188     250.66287      89.44274      83.61213
     5  Na(23)            -0.79296    -938.09920    -334.73712    -312.91621
     6  Na(23)            -0.79296    -938.09920    -334.73712    -312.91621
     7  Na(23)             0.79296     938.09920     334.73712     312.91621
 --------------------------------------------------------
       Center         ----  Spin Dipole Couplings  ----
                      3XX-RR        3YY-RR        3ZZ-RR
 --------------------------------------------------------
     1   Atom       -0.000000     -0.000000      0.000000
     2   Atom       -0.000122     -0.000261      0.000383
     3   Atom        0.004992      0.012480     -0.017473
     4   Atom       -0.000518     -0.001156      0.001673
     5   Atom        0.000000     -0.000000     -0.000000
     6   Atom        0.000000     -0.000000     -0.000000
     7   Atom       -0.000000      0.000000      0.000000
 --------------------------------------------------------
                        XY            XZ            YZ
 --------------------------------------------------------
     1   Atom        0.000000     -0.000000     -0.000000
     2   Atom       -0.000796      0.000461      0.000514
     3   Atom        0.030226     -0.010242     -0.011537
     4   Atom       -0.002495      0.000754      0.000897
     5   Atom       -0.000001     -0.000000     -0.000000
     6   Atom       -0.000000      0.000000     -0.000000
     7   Atom        0.000001     -0.000000      0.000000
 --------------------------------------------------------


 ---------------------------------------------------------------------------------
              Anisotropic Spin Dipole Couplings in Principal Axis System
 ---------------------------------------------------------------------------------

       Atom             a.u.   MegaHertz   Gauss  10(-4) cm-1        Axes

              Baa    -0.0000    -0.000    -0.000    -0.000  0.8316 -0.5521  0.0604
     1 Na(23) Bbb    -0.0000    -0.000    -0.000    -0.000  0.5004  0.7921  0.3496
              Bcc     0.0000     0.000     0.000     0.000 -0.2409 -0.2605  0.9349
 
              Baa    -0.0013    -0.180    -0.064    -0.060  0.6226  0.6819 -0.3839
     2 Na(23) Bbb     0.0006     0.086     0.031     0.029  0.7622 -0.6395  0.1002
              Bcc     0.0007     0.095     0.034     0.032  0.1772  0.3550  0.9179
 
              Baa    -0.0217    -3.068    -1.095    -1.023  0.7620 -0.6400  0.0989
     3 Na(23) Bbb    -0.0214    -3.022    -1.078    -1.008  0.0861  0.2515  0.9640
              Bcc     0.0431     6.089     2.173     2.031  0.6418  0.7261 -0.2467
 
              Baa    -0.0036    -0.510    -0.182    -0.170  0.6443  0.7336 -0.2164
     4 Na(23) Bbb     0.0017     0.237     0.084     0.079  0.7618 -0.6406  0.0963
              Bcc     0.0019     0.273     0.098     0.091  0.0680  0.2269  0.9715
 
              Baa    -0.0000    -0.000    -0.000    -0.000  0.6612  0.7153  0.2263
     5 Na(23) Bbb    -0.0000    -0.000    -0.000    -0.000 -0.2315 -0.0924  0.9684
              Bcc     0.0000     0.000     0.000     0.000  0.7136 -0.6927  0.1045
 
              Baa    -0.0000    -0.000    -0.000    -0.000  0.4525  0.8647  0.2182
     6 Na(23) Bbb    -0.0000    -0.000    -0.000    -0.000 -0.2925 -0.0873  0.9523
              Bcc     0.0000     0.000     0.000     0.000  0.8425 -0.4947  0.2134
 
              Baa    -0.0000    -0.000    -0.000    -0.000  0.7143 -0.6625  0.2254
     7 Na(23) Bbb     0.0000     0.000     0.000     0.000 -0.2182  0.0952  0.9713
              Bcc     0.0000     0.000     0.000     0.000  0.6650  0.7429  0.0766
 

 ---------------------------------------------------------------------------------

 No NMR shielding tensors so no spin-rotation constants.
 Leave Link  601 at Thu Nov 23 12:43:58 2023, MaxMem=   104857600 cpu:               2.0 elap:               0.1
 (Enter /home/sekinelabo/g16/l701.exe)
 ... and contract with generalized density number  0.
 Compute integral first derivatives.
 Leave Link  701 at Thu Nov 23 12:43:59 2023, MaxMem=   104857600 cpu:               1.3 elap:               0.1
 (Enter /home/sekinelabo/g16/l702.exe)
 L702 exits ... SP integral derivatives will be done elsewhere.
 Leave Link  702 at Thu Nov 23 12:43:59 2023, MaxMem=   104857600 cpu:               0.4 elap:               0.0
 (Enter /home/sekinelabo/g16/l703.exe)
 Integral derivatives from FoFJK, PRISM(SPDF).
 Compute integral first derivatives, UseDBF=F ICtDFT=           0.
 Calling FoFJK, ICntrl=      2127 FMM=F ISym2X=0 I1Cent= 0 IOpClX= 1 NMat=1 NMatS=1 NMatT=0.
 FoFJK:  IHMeth= 1 ICntrl=    2127 DoSepK=F KAlg= 0 I1Cent=           0 FoldK=F
 IRaf=         0 NMat=       1 IRICut=       1 DoRegI=T DoRafI=F ISym2E= 0 IDoP0=0 IntGTp=1.
 FoFCou: FMM=F IPFlag=           0 FMFlag=      100000 FMFlg1=         800
         NFxFlg=           0 DoJE=F BraDBF=F KetDBF=F FulRan=T
         wScrn=  0.000000 ICntrl=      2127 IOpCl=  1 I1Cent=           0 NGrid=           0
         NMat0=    1 NMatS0=      1 NMatT0=    0 NMatD0=    1 NMtDS0=    0 NMtDT0=    0
 Symmetry not used in FoFCou.
 Leave Link  703 at Thu Nov 23 12:43:59 2023, MaxMem=   104857600 cpu:               4.9 elap:               0.3
 (Enter /home/sekinelabo/g16/l716.exe)
 Dipole        = 8.63070834D-02 8.32240665D-02-1.27279068D-01
 ***** Axes restored to original set *****
 -------------------------------------------------------------------
 Center     Atomic                   Forces (Hartrees/Bohr)
 Number     Number              X              Y              Z
 -------------------------------------------------------------------
      1       11          -0.000000000   -0.000000000    0.000000000
      2       11          -0.001824909    0.001502308    0.000093597
      3       11           0.004381522   -0.002277547   -0.000049174
      4       11          -0.002556612    0.000775239   -0.000044423
      5       11           0.000000000    0.000000000   -0.000000000
      6       11          -0.000000000   -0.000000000   -0.000000000
      7       11          -0.000000000   -0.000000000   -0.000000000
 -------------------------------------------------------------------
 Cartesian Forces:  Max     0.004381522 RMS     0.001329565
 Z-matrix is all fixed cartesians, so copy forces.
 Force constants in Cartesian coordinates: 
                1             2             3             4             5 
      1  0.100000D+01
      2  0.000000D+00  0.100000D+01
      3  0.000000D+00  0.000000D+00  0.100000D+01
      4  0.000000D+00  0.000000D+00  0.000000D+00  0.100000D+01
      5  0.000000D+00  0.000000D+00  0.000000D+00  0.000000D+00  0.100000D+01
      6  0.000000D+00  0.000000D+00  0.000000D+00  0.000000D+00  0.000000D+00
      7  0.000000D+00  0.000000D+00  0.000000D+00  0.000000D+00  0.000000D+00
      8  0.000000D+00  0.000000D+00  0.000000D+00  0.000000D+00  0.000000D+00
      9  0.000000D+00  0.000000D+00  0.000000D+00  0.000000D+00  0.000000D+00
     10  0.000000D+00  0.000000D+00  0.000000D+00  0.000000D+00  0.000000D+00
     11  0.000000D+00  0.000000D+00  0.000000D+00  0.000000D+00  0.000000D+00
     12  0.000000D+00  0.000000D+00  0.000000D+00  0.000000D+00  0.000000D+00
     13  0.000000D+00  0.000000D+00  0.000000D+00  0.000000D+00  0.000000D+00
     14  0.000000D+00  0.000000D+00  0.000000D+00  0.000000D+00  0.000000D+00
     15  0.000000D+00  0.000000D+00  0.000000D+00  0.000000D+00  0.000000D+00
     16  0.000000D+00  0.000000D+00  0.000000D+00  0.000000D+00  0.000000D+00
     17  0.000000D+00  0.000000D+00  0.000000D+00  0.000000D+00  0.000000D+00
     18  0.000000D+00  0.000000D+00  0.000000D+00  0.000000D+00  0.000000D+00
     19  0.000000D+00  0.000000D+00  0.000000D+00  0.000000D+00  0.000000D+00
     20  0.000000D+00  0.000000D+00  0.000000D+00  0.000000D+00  0.000000D+00
     21  0.000000D+00  0.000000D+00  0.000000D+00  0.000000D+00  0.000000D+00
                6             7             8             9            10 
      6  0.100000D+01
      7  0.000000D+00  0.354155D-01
      8  0.000000D+00 -0.100334D-01  0.284253D-02
      9  0.000000D+00  0.709192D-03 -0.200918D-03  0.142015D-04
     10  0.000000D+00 -0.354155D-01  0.100334D-01 -0.709192D-03  0.354155D-01
     11  0.000000D+00  0.100334D-01 -0.284253D-02  0.200918D-03 -0.100334D-01
     12  0.000000D+00 -0.709192D-03  0.200918D-03 -0.142015D-04  0.709192D-03
     13  0.000000D+00  0.000000D+00  0.000000D+00  0.000000D+00  0.000000D+00
     14  0.000000D+00  0.000000D+00  0.000000D+00  0.000000D+00  0.000000D+00
     15  0.000000D+00  0.000000D+00  0.000000D+00  0.000000D+00  0.000000D+00
     16  0.000000D+00  0.000000D+00  0.000000D+00  0.000000D+00  0.000000D+00
     17  0.000000D+00  0.000000D+00  0.000000D+00  0.000000D+00  0.000000D+00
     18  0.000000D+00  0.000000D+00  0.000000D+00  0.000000D+00  0.000000D+00
     19  0.000000D+00  0.000000D+00  0.000000D+00  0.000000D+00  0.000000D+00
     20  0.000000D+00  0.000000D+00  0.000000D+00  0.000000D+00  0.000000D+00
     21  0.000000D+00  0.000000D+00  0.000000D+00  0.000000D+00  0.000000D+00
               11            12            13            14            15 
     11  0.284253D-02
     12 -0.200918D-03  0.142015D-04
     13  0.000000D+00  0.000000D+00  0.100000D+01
     14  0.000000D+00  0.000000D+00  0.000000D+00  0.100000D+01
     15  0.000000D+00  0.000000D+00  0.000000D+00  0.000000D+00  0.100000D+01
     16  0.000000D+00  0.000000D+00  0.000000D+00  0.000000D+00  0.000000D+00
     17  0.000000D+00  0.000000D+00  0.000000D+00  0.000000D+00  0.000000D+00
     18  0.000000D+00  0.000000D+00  0.000000D+00  0.000000D+00  0.000000D+00
     19  0.000000D+00  0.000000D+00  0.000000D+00  0.000000D+00  0.000000D+00
     20  0.000000D+00  0.000000D+00  0.000000D+00  0.000000D+00  0.000000D+00
     21  0.000000D+00  0.000000D+00  0.000000D+00  0.000000D+00  0.000000D+00
               16            17            18            19            20 
     16  0.100000D+01
     17  0.000000D+00  0.100000D+01
     18  0.000000D+00  0.000000D+00  0.100000D+01
     19  0.000000D+00  0.000000D+00  0.000000D+00  0.100000D+01
     20  0.000000D+00  0.000000D+00  0.000000D+00  0.000000D+00  0.100000D+01
     21  0.000000D+00  0.000000D+00  0.000000D+00  0.000000D+00  0.000000D+00
               21 
     21  0.100000D+01
 Leave Link  716 at Thu Nov 23 12:43:59 2023, MaxMem=   104857600 cpu:               0.4 elap:               0.0
 (Enter /home/sekinelabo/g16/l103.exe)

 GradGradGradGradGradGradGradGradGradGradGradGradGradGradGradGradGradGrad
 Berny optimization.
 Search for a local minimum.
 Step number   1 out of a maximum of    2
 All quantities printed in internal units (Hartrees-Bohrs-Radians)
 Second derivative matrix not updated -- first step.
 ITU=  0
     Eigenvalues ---    0.00012   0.00019   0.07654   0.28571   0.42861
     Eigenvalues ---    0.44826   1.00000   1.00000   1.00000   1.00000
     Eigenvalues ---    1.00000   1.00000   1.00000   1.00000   1.00000
 Quadratic step=4.473D+00 exceeds max=3.000D-01 adjusted using Lamda=-2.436D-03.
 Angle between NR and scaled steps=  15.71 degrees.
 Angle between quadratic step and forces=  71.01 degrees.
 Linear search not attempted -- first point.
 B after Tr=     0.000000   -0.000000   -0.000000
         Rot=    1.000000   -0.000000    0.000000   -0.000000 Ang=   0.00 deg.
 Variable       Old X    -DE/DX   Delta X   Delta X   Delta X     New X
                                 (Linear)    (Quad)   (Total)
    X1       28.91905  -0.00000   0.00000  -0.00257  -0.00257  28.91647
    Y1      187.87922  -0.00000   0.00000   0.00088   0.00088 187.88010
    Z1        2.79131   0.00000   0.00000   0.00088   0.00088   2.79220
    X2       23.20886  -0.00182   0.00000  -0.00267  -0.00267  23.20619
    Y2        0.11598   0.00150   0.00000   0.00232   0.00232   0.11830
    Z2        3.19065   0.00009   0.00000   0.00010   0.00010   3.19075
    X3       16.83553   0.00438   0.00000  -0.00559  -0.00559  16.82994
    Y3        5.21411  -0.00228   0.00000  -0.21292  -0.21292   5.00119
    Z3        3.49785  -0.00005   0.00000  -0.03324  -0.03324   3.46461
    X4       11.41687  -0.00256   0.00000   0.01302   0.01302  11.42989
    Y4        6.74925   0.00078   0.00000   0.20614   0.20614   6.95539
    Z4        3.38934  -0.00004   0.00000   0.03261   0.03261   3.42195
    X5        5.84018   0.00000   0.00000  -0.00066  -0.00066   5.83952
    Y5       10.54252   0.00000   0.00000  -0.00021  -0.00021  10.54231
    Z5      188.91026  -0.00000   0.00000   0.00008   0.00008 188.91034
    X6      187.91285  -0.00000   0.00000  -0.00064  -0.00064 187.91222
    Y6        7.65829  -0.00000   0.00000   0.00146   0.00146   7.65975
    Z6      188.23921  -0.00000   0.00000  -0.00021  -0.00021 188.23900
    X7      187.54360  -0.00000   0.00000  -0.00089  -0.00089 187.54271
    Y7        5.11551  -0.00000   0.00000   0.00233   0.00233   5.11783
    Z7        4.87307  -0.00000   0.00000  -0.00022  -0.00022   4.87285
         Item               Value     Threshold  Converged?
 Maximum Force            0.004382     0.000450     NO 
 RMS     Force            0.001330     0.000300     NO 
 Maximum Displacement     0.212925     0.001800     NO 
 RMS     Displacement     0.065549     0.001200     NO 
 Predicted change in Energy=-4.076703D-04
 GradGradGradGradGradGradGradGradGradGradGradGradGradGradGradGradGradGrad

 Leave Link  103 at Thu Nov 23 12:43:59 2023, MaxMem=   104857600 cpu:               0.2 elap:               0.0
 (Enter /home/sekinelabo/g16/l9999.exe)
 1\1\GINC-SEKINELABO-XA7R-R37\Force\UB3LYP\6-311+G(d)\Na7(2)\SEKINELABO
 \23-Nov-2023\0\\#P B3LYP/6-311+g(d) force\\DPGEN\\0,2\Na,15.3033,99.42
 14,1.4771\Na,12.2816,0.061374,1.68842\Na,8.90898,2.75919,1.85098\Na,6.
 04155,3.57155,1.79356\Na,3.09049,5.57886,99.967004\Na,99.4392,4.05259,
 99.6119\Na,99.2438,2.70701,2.57872\\Version=ES64L-G16RevB.01\State=2-A
 \HF=-1136.0385095\S2=2.766084\S2-1=0.\S2A=3.747344\RMSD=5.776e-09\RMSF
 =1.330e-03\Dipole=0.0884561,-0.1501107,-0.0147447\Quadrupole=-3.803409
 1,6.4410641,-2.637655,0.9420493,-3.9717163,8.4529288\PG=C01 [X(Na7)]\\
 @


 TRUTH, IN SCIENCE, CAN BE DEFINED AS THE WORKING HYPOTHESIS 
 BEST FITTED TO OPEN THE WAY TO THE NEXT BETTER ONE.

                              -- KONRAD LORENZ
 Job cpu time:       0 days  0 hours 18 minutes 24.5 seconds.
 Elapsed time:       0 days  0 hours 13 minutes 38.6 seconds.
 File lengths (MBytes):  RWF=     46 Int=      0 D2E=      0 Chk=      4 Scr=      1
 Normal termination of Gaussian 16 at Thu Nov 23 12:43:59 2023.
