 Entering Gaussian System, Link 0=g16
 Initial command:
 /home/sekinelabo/g16/l1.exe "/home/sekinelabo/g16temp/Gau-1046385.inp" -scrdir="/home/sekinelabo/g16temp/"
 Entering Link 1 = /home/sekinelabo/g16/l1.exe PID=   1046446.
  
 Copyright (c) 1988-2017, Gaussian, Inc.  All Rights Reserved.
  
 This is part of the Gaussian(R) 16 program.  It is based on
 the Gaussian(R) 09 system (copyright 2009, Gaussian, Inc.),
 the Gaussian(R) 03 system (copyright 2003, Gaussian, Inc.),
 the Gaussian(R) 98 system (copyright 1998, Gaussian, Inc.),
 the Gaussian(R) 94 system (copyright 1995, Gaussian, Inc.),
 the Gaussian 92(TM) system (copyright 1992, Gaussian, Inc.),
 the Gaussian 90(TM) system (copyright 1990, Gaussian, Inc.),
 the Gaussian 88(TM) system (copyright 1988, Gaussian, Inc.),
 the Gaussian 86(TM) system (copyright 1986, Carnegie Mellon
 University), and the Gaussian 82(TM) system (copyright 1983,
 Carnegie Mellon University). Gaussian is a federally registered
 trademark of Gaussian, Inc.
  
 This software contains proprietary and confidential information,
 including trade secrets, belonging to Gaussian, Inc.
  
 This software is provided under written license and may be
 used, copied, transmitted, or stored only in accord with that
 written license.
  
 The following legend is applicable only to US Government
 contracts under FAR:
  
                    RESTRICTED RIGHTS LEGEND
  
 Use, reproduction and disclosure by the US Government is
 subject to restrictions as set forth in subparagraphs (a)
 and (c) of the Commercial Computer Software - Restricted
 Rights clause in FAR 52.227-19.
  
 Gaussian, Inc.
 340 Quinnipiac St., Bldg. 40, Wallingford CT 06492
  
  
 ---------------------------------------------------------------
 Warning -- This program may not be used in any manner that
 competes with the business of Gaussian, Inc. or will provide
 assistance to any competitor of Gaussian, Inc.  The licensee
 of this program is prohibited from giving any competitor of
 Gaussian, Inc. access to this program.  By using this program,
 the user acknowledges that Gaussian, Inc. is engaged in the
 business of creating and licensing software in the field of
 computational chemistry and represents and warrants to the
 licensee that it is not a competitor of Gaussian, Inc. and that
 it will not use this program in any manner prohibited above.
 ---------------------------------------------------------------
  

 Cite this work as:
 Gaussian 16, Revision B.01,
 M. J. Frisch, G. W. Trucks, H. B. Schlegel, G. E. Scuseria, 
 M. A. Robb, J. R. Cheeseman, G. Scalmani, V. Barone, 
 G. A. Petersson, H. Nakatsuji, X. Li, M. Caricato, A. V. Marenich, 
 J. Bloino, B. G. Janesko, R. Gomperts, B. Mennucci, H. P. Hratchian, 
 J. V. Ortiz, A. F. Izmaylov, J. L. Sonnenberg, D. Williams-Young, 
 F. Ding, F. Lipparini, F. Egidi, J. Goings, B. Peng, A. Petrone, 
 T. Henderson, D. Ranasinghe, V. G. Zakrzewski, J. Gao, N. Rega, 
 G. Zheng, W. Liang, M. Hada, M. Ehara, K. Toyota, R. Fukuda, 
 J. Hasegawa, M. Ishida, T. Nakajima, Y. Honda, O. Kitao, H. Nakai, 
 T. Vreven, K. Throssell, J. A. Montgomery, Jr., J. E. Peralta, 
 F. Ogliaro, M. J. Bearpark, J. J. Heyd, E. N. Brothers, K. N. Kudin, 
 V. N. Staroverov, T. A. Keith, R. Kobayashi, J. Normand, 
 K. Raghavachari, A. P. Rendell, J. C. Burant, S. S. Iyengar, 
 J. Tomasi, M. Cossi, J. M. Millam, M. Klene, C. Adamo, R. Cammi, 
 J. W. Ochterski, R. L. Martin, K. Morokuma, O. Farkas, 
 J. B. Foresman, and D. J. Fox, Gaussian, Inc., Wallingford CT, 2016.
 
 ******************************************
 Gaussian 16:  ES64L-G16RevB.01 20-Dec-2017
                23-Nov-2023 
 ******************************************
 %nprocshared=14
 Will use up to   14 processors via shared memory.
 -------------------------
 #P B3LYP/6-311+g(d) force
 -------------------------
 1/10=7,30=1,38=1/1,3;
 2/12=2,17=6,18=5,40=1/2;
 3/5=4,6=6,7=11,11=2,25=1,30=1,71=1,74=-5/1,2,3;
 4//1;
 5/5=2,38=5/2;
 6/7=2,8=2,9=2,10=2,28=1/1;
 7/29=1/1,2,3,16;
 1/10=7,30=1/3;
 99//99;
 Leave Link    1 at Thu Nov 23 12:30:20 2023, MaxMem=           0 cpu:               0.4 elap:               0.5
 (Enter /home/sekinelabo/g16/l101.exe)
 -----
 DPGEN
 -----
 Symbolic Z-matrix:
 Charge =  0 Multiplicity = 2
 Na                    12.6153   0.98071   1.13438 
 Na                    10.9226   3.11522   99.6817 
 Na                    8.83908   1.96484   1.91041 
 Na                    5.98707   0.083     3.78002 
 Na                    3.57406   1.78      3.18102 
 Na                    0.55535   4.32854   0.92044 
 Na                    1.81555   5.89962   98.3597 
 
 ITRead=  0  0  0  0  0  0  0
 MicOpt= -1 -1 -1 -1 -1 -1 -1
 NAtoms=      7 NQM=        7 NQMF=       0 NMMI=      0 NMMIF=      0
                NMic=       0 NMicF=      0.
                    Isotopes and Nuclear Properties:
 (Nuclear quadrupole moments (NQMom) in fm**2, nuclear magnetic moments (NMagM)
  in nuclear magnetons)

  Atom         1           2           3           4           5           6           7
 IAtWgt=          23          23          23          23          23          23          23
 AtmWgt=  22.9897697  22.9897697  22.9897697  22.9897697  22.9897697  22.9897697  22.9897697
 NucSpn=           3           3           3           3           3           3           3
 AtZEff=  -0.0000000  -0.0000000  -0.0000000  -0.0000000  -0.0000000  -0.0000000  -0.0000000
 NQMom=   10.4000000  10.4000000  10.4000000  10.4000000  10.4000000  10.4000000  10.4000000
 NMagM=    2.2175200   2.2175200   2.2175200   2.2175200   2.2175200   2.2175200   2.2175200
 AtZNuc=  11.0000000  11.0000000  11.0000000  11.0000000  11.0000000  11.0000000  11.0000000
 Leave Link  101 at Thu Nov 23 12:30:23 2023, MaxMem=   104857600 cpu:               2.3 elap:               2.9
 (Enter /home/sekinelabo/g16/l103.exe)

 GradGradGradGradGradGradGradGradGradGradGradGradGradGradGradGradGradGrad
 Berny optimization.
 Initialization pass.
 Trust Radius=3.00D-01 FncErr=1.00D-07 GrdErr=1.00D-07 EigMax=2.50D+02 EigMin=1.00D-04
 Number of steps in this run=      2 maximum allowed number of steps=      2.
 GradGradGradGradGradGradGradGradGradGradGradGradGradGradGradGradGradGrad

 Leave Link  103 at Thu Nov 23 12:30:24 2023, MaxMem=   104857600 cpu:               0.4 elap:               0.5
 (Enter /home/sekinelabo/g16/l202.exe)
                          Input orientation:                          
 ---------------------------------------------------------------------
 Center     Atomic      Atomic             Coordinates (Angstroms)
 Number     Number       Type             X           Y           Z
 ---------------------------------------------------------------------
      1         11           0       12.615300    0.980714    1.134380
      2         11           0       10.922600    3.115220   99.681700
      3         11           0        8.839080    1.964840    1.910410
      4         11           0        5.987070    0.083000    3.780020
      5         11           0        3.574060    1.780000    3.181020
      6         11           0        0.555346    4.328540    0.920438
      7         11           0        1.815550    5.899620   98.359700
 ---------------------------------------------------------------------
                    Distance matrix (angstroms):
                    1          2          3          4          5
     1  Na   0.000000
     2  Na  98.584967   0.000000
     3  Na   3.978764  97.800253   0.000000
     4  Na   7.192964  96.076459   3.894961   0.000000
     5  Na   9.304387  96.789282   5.419322   3.010187   0.000000
     6  Na  12.517835  99.311323   8.671065   7.463608   4.551694
     7  Na  97.946889   9.614516  96.784699  94.850148  95.284021
                    6          7
     6  Na   0.000000
     7  Na  97.460075   0.000000
 Stoichiometry    Na7(2)
 Framework group  C1[X(Na7)]
 Deg. of freedom    15
 Full point group                 C1      NOp   1
 Largest Abelian subgroup         C1      NOp   1
 Largest concise Abelian subgroup C1      NOp   1
                         Standard orientation:                         
 ---------------------------------------------------------------------
 Center     Atomic      Atomic             Coordinates (Angstroms)
 Number     Number       Type             X           Y           Z
 ---------------------------------------------------------------------
      1         11           0       28.746847    6.314310   -0.765995
      2         11           0      -69.820860    4.742112    0.198867
      3         11           0       27.947073    2.416767   -0.757001
      4         11           0       26.131294    0.135000    1.825093
      5         11           0       26.685710   -2.628329    0.767802
      6         11           0       28.878401   -6.200516   -1.006884
      7         11           0      -68.568464   -4.779345   -0.261882
 ---------------------------------------------------------------------
 Rotational constants (GHZ):           0.1541396           0.0016382           0.0016224
 Leave Link  202 at Thu Nov 23 12:30:25 2023, MaxMem=   104857600 cpu:               0.9 elap:               1.2
 (Enter /home/sekinelabo/g16/l301.exe)
 Standard basis: 6-311+G(d) (5D, 7F)
 Ernie: Thresh=  0.10000D-02 Tol=  0.10000D-05 Strict=F.
 There are   217 symmetry adapted cartesian basis functions of A   symmetry.
 There are   210 symmetry adapted basis functions of A   symmetry.
   210 basis functions,   350 primitive gaussians,   217 cartesian basis functions
    39 alpha electrons       38 beta electrons
       nuclear repulsion energy       129.8043675842 Hartrees.
 IExCor=  402 DFT=T Ex+Corr=B3LYP ExCW=0 ScaHFX=  0.200000
 ScaDFX=  0.800000  0.720000  1.000000  0.810000 ScalE2=  1.000000  1.000000
 IRadAn=      5 IRanWt=     -1 IRanGd=            0 ICorTp=0 IEmpDi=  4
 NAtoms=    7 NActive=    7 NUniq=    7 SFac= 1.00D+00 NAtFMM=   60 NAOKFM=F Big=F
 Integral buffers will be    131072 words long.
 Raffenetti 2 integral format.
 Two-electron integral symmetry is turned on.
 Leave Link  301 at Thu Nov 23 12:30:26 2023, MaxMem=   104857600 cpu:               0.7 elap:               0.8
 (Enter /home/sekinelabo/g16/l302.exe)
 NPDir=0 NMtPBC=     1 NCelOv=     1 NCel=       1 NClECP=     1 NCelD=      1
         NCelK=      1 NCelE2=     1 NClLst=     1 CellRange=     0.0.
 One-electron integrals computed using PRISM.
 One-electron integral symmetry used in STVInt
 NBasis=   210 RedAO= T EigKep=  1.13D-05  NBF=   210
 NBsUse=   210 1.00D-06 EigRej= -1.00D+00 NBFU=   210
 Precomputing XC quadrature grid using
 IXCGrd= 4 IRadAn=           5 IRanWt=          -1 IRanGd=           0 AccXCQ= 0.00D+00.
 Generated NRdTot=       0 NPtTot=           0 NUsed=           0 NTot=          32
 NSgBfM=   141   141   141   141   141 MxSgAt=     7 MxSgA2=     5.
 Leave Link  302 at Thu Nov 23 12:31:03 2023, MaxMem=   104857600 cpu:              29.6 elap:              36.6
 (Enter /home/sekinelabo/g16/l303.exe)
 DipDrv:  MaxL=1.
 Leave Link  303 at Thu Nov 23 12:31:06 2023, MaxMem=   104857600 cpu:               2.4 elap:               3.1
 (Enter /home/sekinelabo/g16/l401.exe)
 ExpMin= 7.60D-03 ExpMax= 3.62D+04 ExpMxC= 1.21D+03 IAcc=3 IRadAn=         5 AccDes= 0.00D+00
 Harris functional with IExCor=  402 and IRadAn=       5 diagonalized for initial guess.
 HarFok:  IExCor=  402 AccDes= 0.00D+00 IRadAn=         5 IDoV= 1 UseB2=F ITyADJ=14
 ICtDFT=  3500011 ScaDFX=  1.000000  1.000000  1.000000  1.000000
 FoFCou: FMM=F IPFlag=           0 FMFlag=      100000 FMFlg1=           0
         NFxFlg=           0 DoJE=T BraDBF=F KetDBF=T FulRan=T
         wScrn=  0.000000 ICntrl=       500 IOpCl=  0 I1Cent=   200000004 NGrid=           0
         NMat0=    1 NMatS0=      1 NMatT0=    0 NMatD0=    1 NMtDS0=    0 NMtDT0=    0
 Petite list used in FoFCou.
 Harris En= -1135.82259799253    
 JPrj=0 DoOrth=F DoCkMO=F.
 Initial guess <Sx>= 0.0000 <Sy>= 0.0000 <Sz>= 0.5000 <S**2>= 0.7500 S= 0.5000
 Leave Link  401 at Thu Nov 23 12:31:26 2023, MaxMem=   104857600 cpu:              16.2 elap:              20.6
 (Enter /home/sekinelabo/g16/l502.exe)
 Integral symmetry usage will be decided dynamically.
 UHF open shell SCF:
 Using DIIS extrapolation, IDIIS=  1040.
 NGot=   104857600 LenX=   104758440 LenY=   104710910
 Requested convergence on RMS density matrix=1.00D-08 within 128 cycles.
 Requested convergence on MAX density matrix=1.00D-06.
 Requested convergence on             energy=1.00D-06.
 No special actions if energy rises.
 Fock matrices will be formed incrementally for  20 cycles.

 Cycle   1  Pass 1  IDiag  1:
 FoFJK:  IHMeth= 1 ICntrl=       0 DoSepK=F KAlg= 0 I1Cent=           0 FoldK=F
 IRaf= 500000000 NMat=       1 IRICut=       1 DoRegI=T DoRafI=F ISym2E= 0 IDoP0=0 IntGTp=1.
 FoFCou: FMM=F IPFlag=           0 FMFlag=      100000 FMFlg1=           0
         NFxFlg=           0 DoJE=F BraDBF=F KetDBF=F FulRan=T
         wScrn=  0.000000 ICntrl=         0 IOpCl=  1 I1Cent=           0 NGrid=           0
         NMat0=    1 NMatS0=      1 NMatT0=    0 NMatD0=    1 NMtDS0=    0 NMtDT0=    0
 Symmetry not used in FoFCou.
 E= -1135.90154470914    
 DIIS: error= 2.13D-02 at cycle   1 NSaved=   1.
 NSaved= 1 IEnMin= 1 EnMin= -1135.90154470914     IErMin= 1 ErrMin= 2.13D-02
 ErrMax= 2.13D-02  0.00D+00 EMaxC= 1.00D-01 BMatC= 1.92D-01 BMatP= 1.92D-01
 IDIUse=3 WtCom= 7.87D-01 WtEn= 2.13D-01
 Coeff-Com:  0.100D+01
 Coeff-En:   0.100D+01
 Coeff:      0.100D+01
 Gap=     0.011 Goal=   None    Shift=    0.000
 Gap=    -0.205 Goal=   None    Shift=    0.000
 GapD=   -0.205 DampG=0.250 DampE=0.500 DampFc=0.2500 IDamp=-1.
 Damping current iteration by 2.50D-01
 RMSDP=9.57D-03 MaxDP=9.52D-01              OVMax= 1.00D+00

 Cycle   2  Pass 1  IDiag  1:
 RMSU=  2.34D-03    CP:  9.76D-01
 E= -1135.88778696370     Delta-E=        0.013757745441 Rises=F Damp=T
 DIIS: error= 1.24D-02 at cycle   2 NSaved=   2.
 NSaved= 2 IEnMin= 1 EnMin= -1135.90154470914     IErMin= 2 ErrMin= 1.24D-02
 ErrMax= 1.24D-02  0.00D+00 EMaxC= 1.00D-01 BMatC= 7.43D-02 BMatP= 1.92D-01
 IDIUse=3 WtCom= 8.76D-01 WtEn= 1.24D-01
 Coeff-Com: -0.792D+00 0.179D+01
 Coeff-En:   0.529D+00 0.471D+00
 Coeff:     -0.628D+00 0.163D+01
 Gap=     0.013 Goal=   None    Shift=    0.000
 Gap=     0.018 Goal=   None    Shift=    0.000
 RMSDP=8.43D-03 MaxDP=5.22D-01 DE= 1.38D-02 OVMax= 1.00D+00

 Cycle   3  Pass 1  IDiag  1:
 RMSU=  7.94D-03    CP:  1.00D+00 -1.89D-01
 E= -1135.30801541166     Delta-E=        0.579771552043 Rises=F Damp=F
 DIIS: error= 1.82D-02 at cycle   3 NSaved=   3.
 NSaved= 3 IEnMin= 1 EnMin= -1135.90154470914     IErMin= 2 ErrMin= 1.24D-02
 ErrMax= 1.82D-02  0.00D+00 EMaxC= 1.00D-01 BMatC= 1.92D-01 BMatP= 7.43D-02
 IDIUse=2 WtCom= 0.00D+00 WtEn= 1.00D+00
 Rare condition: small coef for last iteration:  0.000D+00
 Coeff-En:   0.429D+00 0.468D+00 0.104D+00
 Coeff:      0.429D+00 0.468D+00 0.104D+00
 Gap=     0.023 Goal=   None    Shift=    0.000
 Gap=     0.015 Goal=   None    Shift=    0.000
 RMSDP=1.07D-02 MaxDP=6.91D-01 DE= 5.80D-01 OVMax= 1.00D+00

 Cycle   4  Pass 1  IDiag  1:
 RMSU=  3.68D-03    CP:  9.33D-01  2.52D+00  3.79D-02
 E= -1135.51540711142     Delta-E=       -0.207391699762 Rises=F Damp=F
 DIIS: error= 1.49D-02 at cycle   4 NSaved=   4.
 NSaved= 4 IEnMin= 1 EnMin= -1135.90154470914     IErMin= 2 ErrMin= 1.24D-02
 ErrMax= 1.49D-02  0.00D+00 EMaxC= 1.00D-01 BMatC= 1.03D-01 BMatP= 7.43D-02
 IDIUse=2 WtCom= 0.00D+00 WtEn= 1.00D+00
 EnCoef did   100 forward-backward iterations
 Coeff-En:   0.680D+00 0.821D-02 0.199D-02 0.310D+00
 Coeff:      0.680D+00 0.821D-02 0.199D-02 0.310D+00
 Gap=     0.097 Goal=   None    Shift=    0.000
 Gap=     0.022 Goal=   None    Shift=    0.000
 RMSDP=5.56D-03 MaxDP=6.77D-01 DE=-2.07D-01 OVMax= 9.92D-01

 Cycle   5  Pass 1  IDiag  1:
 RMSU=  3.23D-03    CP:  9.73D-01  8.82D-01  4.10D-02  3.88D-01
 E= -1136.05335512038     Delta-E=       -0.537948008957 Rises=F Damp=F
 DIIS: error= 5.08D-03 at cycle   5 NSaved=   5.
 NSaved= 5 IEnMin= 5 EnMin= -1136.05335512038     IErMin= 5 ErrMin= 5.08D-03
 ErrMax= 5.08D-03  0.00D+00 EMaxC= 1.00D-01 BMatC= 3.11D-02 BMatP= 7.43D-02
 IDIUse=3 WtCom= 9.49D-01 WtEn= 5.08D-02
 Coeff-Com:  0.218D+00 0.646D-01-0.213D-01 0.179D-01 0.721D+00
 Coeff-En:   0.000D+00 0.000D+00 0.000D+00 0.000D+00 0.100D+01
 Coeff:      0.206D+00 0.613D-01-0.202D-01 0.170D-01 0.735D+00
 Gap=     0.052 Goal=   None    Shift=    0.000
 Gap=     0.028 Goal=   None    Shift=    0.000
 RMSDP=1.64D-03 MaxDP=9.81D-02 DE=-5.38D-01 OVMax= 1.47D-01

 Cycle   6  Pass 1  IDiag  1:
 RMSU=  1.46D-03    CP:  9.64D-01  1.08D+00  9.02D-03  4.46D-01  8.65D-01
 E= -1136.05914568842     Delta-E=       -0.005790568042 Rises=F Damp=F
 DIIS: error= 1.85D-03 at cycle   6 NSaved=   6.
 NSaved= 6 IEnMin= 6 EnMin= -1136.05914568842     IErMin= 6 ErrMin= 1.85D-03
 ErrMax= 1.85D-03  0.00D+00 EMaxC= 1.00D-01 BMatC= 1.39D-03 BMatP= 3.11D-02
 IDIUse=3 WtCom= 9.82D-01 WtEn= 1.85D-02
 Coeff-Com:  0.703D-01-0.746D-01 0.395D-03-0.102D-01 0.195D+00 0.819D+00
 Coeff-En:   0.000D+00 0.000D+00 0.000D+00 0.000D+00 0.000D+00 0.100D+01
 Coeff:      0.690D-01-0.732D-01 0.387D-03-0.100D-01 0.192D+00 0.822D+00
 Gap=     0.023 Goal=   None    Shift=    0.000
 Gap=     0.027 Goal=   None    Shift=    0.000
 RMSDP=8.66D-04 MaxDP=7.47D-02 DE=-5.79D-03 OVMax= 1.69D-01

 Cycle   7  Pass 1  IDiag  1:
 RMSU=  8.19D-04    CP:  9.64D-01  1.10D+00  1.24D-02  4.12D-01  8.58D-01
                    CP:  1.17D+00
 E= -1136.05868431693     Delta-E=        0.000461371488 Rises=F Damp=F
 DIIS: error= 3.17D-03 at cycle   7 NSaved=   7.
 NSaved= 7 IEnMin= 6 EnMin= -1136.05914568842     IErMin= 6 ErrMin= 1.85D-03
 ErrMax= 3.17D-03  0.00D+00 EMaxC= 1.00D-01 BMatC= 9.90D-04 BMatP= 1.39D-03
 IDIUse=3 WtCom= 9.82D-01 WtEn= 1.85D-02
 Coeff-Com:  0.486D-01-0.615D-01 0.421D-02 0.978D-03 0.101D+00 0.523D+00
 Coeff-Com:  0.384D+00
 Coeff-En:   0.000D+00 0.000D+00 0.000D+00 0.000D+00 0.000D+00 0.563D+00
 Coeff-En:   0.437D+00
 Coeff:      0.477D-01-0.603D-01 0.413D-02 0.960D-03 0.987D-01 0.524D+00
 Coeff:      0.385D+00
 Gap=     0.030 Goal=   None    Shift=    0.000
 Gap=     0.037 Goal=   None    Shift=    0.000
 RMSDP=5.69D-04 MaxDP=4.63D-02 DE= 4.61D-04 OVMax= 1.14D-01

 Cycle   8  Pass 1  IDiag  1:
 RMSU=  3.08D-04    CP:  9.63D-01  1.10D+00  1.14D-02  4.42D-01  8.52D-01
                    CP:  1.15D+00  4.34D-01
 E= -1136.06075130630     Delta-E=       -0.002066989366 Rises=F Damp=F
 DIIS: error= 6.32D-04 at cycle   8 NSaved=   8.
 NSaved= 8 IEnMin= 8 EnMin= -1136.06075130630     IErMin= 8 ErrMin= 6.32D-04
 ErrMax= 6.32D-04  0.00D+00 EMaxC= 1.00D-01 BMatC= 7.80D-05 BMatP= 9.90D-04
 IDIUse=3 WtCom= 9.94D-01 WtEn= 6.32D-03
 Coeff-Com:  0.344D-01-0.443D-01 0.536D-03-0.126D-02 0.339D-01 0.812D-01
 Coeff-Com:  0.120D+00 0.775D+00
 Coeff-En:   0.000D+00 0.000D+00 0.000D+00 0.000D+00 0.000D+00 0.000D+00
 Coeff-En:   0.000D+00 0.100D+01
 Coeff:      0.342D-01-0.440D-01 0.533D-03-0.126D-02 0.337D-01 0.807D-01
 Coeff:      0.119D+00 0.777D+00
 Gap=     0.032 Goal=   None    Shift=    0.000
 Gap=     0.043 Goal=   None    Shift=    0.000
 RMSDP=1.72D-04 MaxDP=1.46D-02 DE=-2.07D-03 OVMax= 3.23D-02

 Cycle   9  Pass 1  IDiag  1:
 RMSU=  1.17D-04    CP:  9.63D-01  1.10D+00  1.73D-02  4.43D-01  8.47D-01
                    CP:  1.18D+00  4.74D-01  1.33D+00
 E= -1136.06095462633     Delta-E=       -0.000203320036 Rises=F Damp=F
 DIIS: error= 2.14D-04 at cycle   9 NSaved=   9.
 NSaved= 9 IEnMin= 9 EnMin= -1136.06095462633     IErMin= 9 ErrMin= 2.14D-04
 ErrMax= 2.14D-04  0.00D+00 EMaxC= 1.00D-01 BMatC= 2.95D-05 BMatP= 7.80D-05
 IDIUse=3 WtCom= 9.98D-01 WtEn= 2.14D-03
 Coeff-Com:  0.171D-01-0.225D-01-0.233D-02-0.431D-02 0.314D-02-0.949D-01
 Coeff-Com: -0.434D-01 0.311D+00 0.836D+00
 Coeff-En:   0.000D+00 0.000D+00 0.000D+00 0.000D+00 0.000D+00 0.000D+00
 Coeff-En:   0.000D+00 0.000D+00 0.100D+01
 Coeff:      0.170D-01-0.224D-01-0.233D-02-0.430D-02 0.313D-02-0.947D-01
 Coeff:     -0.433D-01 0.310D+00 0.837D+00
 Gap=     0.033 Goal=   None    Shift=    0.000
 Gap=     0.048 Goal=   None    Shift=    0.000
 RMSDP=1.55D-04 MaxDP=1.36D-02 DE=-2.03D-04 OVMax= 1.64D-02

 Cycle  10  Pass 1  IDiag  1:
 RMSU=  1.23D-04    CP:  9.63D-01  1.10D+00  1.75D-02  4.45D-01  8.43D-01
                    CP:  1.21D+00  4.94D-01  1.55D+00  1.24D+00
 E= -1136.06104386960     Delta-E=       -0.000089243262 Rises=F Damp=F
 DIIS: error= 2.65D-04 at cycle  10 NSaved=  10.
 NSaved=10 IEnMin=10 EnMin= -1136.06104386960     IErMin= 9 ErrMin= 2.14D-04
 ErrMax= 2.65D-04  0.00D+00 EMaxC= 1.00D-01 BMatC= 1.19D-05 BMatP= 2.95D-05
 IDIUse=3 WtCom= 9.98D-01 WtEn= 2.14D-03
 Coeff-Com:  0.804D-02-0.107D-01-0.934D-03-0.265D-02-0.501D-03-0.618D-01
 Coeff-Com: -0.399D-01-0.842D-01 0.312D+00 0.881D+00
 Coeff-En:   0.000D+00 0.000D+00 0.000D+00 0.000D+00 0.000D+00 0.000D+00
 Coeff-En:   0.000D+00 0.000D+00 0.000D+00 0.100D+01
 Coeff:      0.802D-02-0.107D-01-0.932D-03-0.265D-02-0.500D-03-0.617D-01
 Coeff:     -0.398D-01-0.841D-01 0.311D+00 0.881D+00
 Gap=     0.033 Goal=   None    Shift=    0.000
 Gap=     0.048 Goal=   None    Shift=    0.000
 RMSDP=1.06D-04 MaxDP=8.92D-03 DE=-8.92D-05 OVMax= 1.85D-02

 Cycle  11  Pass 1  IDiag  1:
 RMSU=  7.19D-05    CP:  9.63D-01  1.09D+00  1.74D-02  4.41D-01  8.42D-01
                    CP:  1.21D+00  4.99D-01  1.70D+00  1.62D+00  1.32D+00
 E= -1136.06110015615     Delta-E=       -0.000056286550 Rises=F Damp=F
 DIIS: error= 1.43D-04 at cycle  11 NSaved=  11.
 NSaved=11 IEnMin=11 EnMin= -1136.06110015615     IErMin=11 ErrMin= 1.43D-04
 ErrMax= 1.43D-04  0.00D+00 EMaxC= 1.00D-01 BMatC= 3.99D-06 BMatP= 1.19D-05
 IDIUse=3 WtCom= 9.99D-01 WtEn= 1.43D-03
 Coeff-Com:  0.402D-02-0.514D-02-0.292D-03-0.154D-02 0.356D-02-0.102D-01
 Coeff-Com: -0.151D-01-0.599D-01-0.645D-01 0.184D+00 0.965D+00
 Coeff-En:   0.000D+00 0.000D+00 0.000D+00 0.000D+00 0.000D+00 0.000D+00
 Coeff-En:   0.000D+00 0.000D+00 0.000D+00 0.000D+00 0.100D+01
 Coeff:      0.402D-02-0.513D-02-0.291D-03-0.154D-02 0.356D-02-0.102D-01
 Coeff:     -0.150D-01-0.598D-01-0.644D-01 0.184D+00 0.965D+00
 Gap=     0.033 Goal=   None    Shift=    0.000
 Gap=     0.049 Goal=   None    Shift=    0.000
 RMSDP=7.96D-05 MaxDP=8.67D-03 DE=-5.63D-05 OVMax= 1.42D-02

 Cycle  12  Pass 1  IDiag  1:
 RMSU=  3.53D-05    CP:  9.63D-01  1.09D+00  1.85D-02  4.39D-01  8.43D-01
                    CP:  1.21D+00  4.99D-01  1.78D+00  1.86D+00  1.68D+00
                    CP:  1.53D+00
 E= -1136.06113429997     Delta-E=       -0.000034143820 Rises=F Damp=F
 DIIS: error= 9.69D-05 at cycle  12 NSaved=  12.
 NSaved=12 IEnMin=12 EnMin= -1136.06113429997     IErMin=12 ErrMin= 9.69D-05
 ErrMax= 9.69D-05  0.00D+00 EMaxC= 1.00D-01 BMatC= 1.97D-06 BMatP= 3.99D-06
 IDIUse=1 WtCom= 1.00D+00 WtEn= 0.00D+00
 Coeff-Com:  0.109D-02-0.138D-02-0.466D-04-0.110D-02 0.397D-02 0.110D-01
 Coeff-Com: -0.417D-02 0.221D-01-0.947D-01-0.211D+00 0.376D-01 0.124D+01
 Coeff:      0.109D-02-0.138D-02-0.466D-04-0.110D-02 0.397D-02 0.110D-01
 Coeff:     -0.417D-02 0.221D-01-0.947D-01-0.211D+00 0.376D-01 0.124D+01
 Gap=     0.034 Goal=   None    Shift=    0.000
 Gap=     0.049 Goal=   None    Shift=    0.000
 RMSDP=9.01D-05 MaxDP=1.06D-02 DE=-3.41D-05 OVMax= 1.61D-02

 Cycle  13  Pass 1  IDiag  1:
 RMSU=  9.55D-06    CP:  9.63D-01  1.08D+00  1.94D-02  4.36D-01  8.43D-01
                    CP:  1.21D+00  4.97D-01  1.82D+00  2.09D+00  2.07D+00
                    CP:  2.12D+00  2.48D+00
 E= -1136.06116568071     Delta-E=       -0.000031380747 Rises=F Damp=F
 DIIS: error= 7.64D-05 at cycle  13 NSaved=  13.
 NSaved=13 IEnMin=13 EnMin= -1136.06116568071     IErMin=13 ErrMin= 7.64D-05
 ErrMax= 7.64D-05  0.00D+00 EMaxC= 1.00D-01 BMatC= 1.02D-06 BMatP= 1.97D-06
 IDIUse=1 WtCom= 1.00D+00 WtEn= 0.00D+00
 Coeff-Com: -0.229D-02 0.303D-02-0.921D-04-0.159D-03-0.294D-02-0.135D-01
 Coeff-Com: -0.104D-01 0.624D-01 0.154D+00-0.168D+00-0.764D+00-0.447D+00
 Coeff-Com:  0.219D+01
 Coeff:     -0.229D-02 0.303D-02-0.921D-04-0.159D-03-0.294D-02-0.135D-01
 Coeff:     -0.104D-01 0.624D-01 0.154D+00-0.168D+00-0.764D+00-0.447D+00
 Coeff:      0.219D+01
 Gap=     0.034 Goal=   None    Shift=    0.000
 Gap=     0.050 Goal=   None    Shift=    0.000
 RMSDP=1.68D-04 MaxDP=1.95D-02 DE=-3.14D-05 OVMax= 3.07D-02

 Cycle  14  Pass 1  IDiag  1:
 RMSU=  9.06D-05    CP:  9.63D-01  1.08D+00  2.16D-02  4.31D-01  8.44D-01
                    CP:  1.20D+00  4.93D-01  1.91D+00  2.52D+00  2.68D+00
                    CP:  3.00D+00  3.00D+00  3.00D+00
 E= -1136.06120299582     Delta-E=       -0.000037315109 Rises=F Damp=F
 DIIS: error= 3.96D-05 at cycle  14 NSaved=  14.
 NSaved=14 IEnMin=14 EnMin= -1136.06120299582     IErMin=14 ErrMin= 3.96D-05
 ErrMax= 3.96D-05  0.00D+00 EMaxC= 1.00D-01 BMatC= 3.43D-07 BMatP= 1.02D-06
 IDIUse=1 WtCom= 1.00D+00 WtEn= 0.00D+00
 Coeff-Com: -0.258D-02 0.345D-02-0.208D-03 0.235D-03-0.277D-02-0.579D-02
 Coeff-Com: -0.129D-02 0.204D-01 0.554D-01 0.970D-01-0.151D+00-0.548D+00
 Coeff-Com:  0.173D+00 0.136D+01
 Coeff:     -0.258D-02 0.345D-02-0.208D-03 0.235D-03-0.277D-02-0.579D-02
 Coeff:     -0.129D-02 0.204D-01 0.554D-01 0.970D-01-0.151D+00-0.548D+00
 Coeff:      0.173D+00 0.136D+01
 Gap=     0.034 Goal=   None    Shift=    0.000
 Gap=     0.050 Goal=   None    Shift=    0.000
 RMSDP=9.51D-05 MaxDP=1.14D-02 DE=-3.73D-05 OVMax= 1.67D-02

 Cycle  15  Pass 1  IDiag  1:
 RMSU=  3.10D-05    CP:  9.63D-01  1.08D+00  2.29D-02  4.28D-01  8.45D-01
                    CP:  1.20D+00  4.92D-01  1.94D+00  2.72D+00  3.00D+00
                    CP:  3.00D+00  3.00D+00  3.00D+00  1.81D+00
 E= -1136.06121053224     Delta-E=       -0.000007536417 Rises=F Damp=F
 DIIS: error= 2.64D-05 at cycle  15 NSaved=  15.
 NSaved=15 IEnMin=15 EnMin= -1136.06121053224     IErMin=15 ErrMin= 2.64D-05
 ErrMax= 2.64D-05  0.00D+00 EMaxC= 1.00D-01 BMatC= 1.76D-07 BMatP= 3.43D-07
 IDIUse=1 WtCom= 1.00D+00 WtEn= 0.00D+00
 Coeff-Com: -0.154D-02 0.205D-02-0.267D-04 0.120D-03-0.159D-02-0.169D-02
 Coeff-Com: -0.241D-03 0.102D-01-0.157D-01 0.211D-01 0.111D+00 0.154D-01
 Coeff-Com: -0.186D+00-0.401D-01 0.109D+01
 Coeff:     -0.154D-02 0.205D-02-0.267D-04 0.120D-03-0.159D-02-0.169D-02
 Coeff:     -0.241D-03 0.102D-01-0.157D-01 0.211D-01 0.111D+00 0.154D-01
 Coeff:     -0.186D+00-0.401D-01 0.109D+01
 Gap=     0.034 Goal=   None    Shift=    0.000
 Gap=     0.050 Goal=   None    Shift=    0.000
 RMSDP=7.43D-06 MaxDP=8.47D-04 DE=-7.54D-06 OVMax= 5.53D-04

 Cycle  16  Pass 1  IDiag  1:
 RMSU=  5.38D-06    CP:  9.63D-01  1.08D+00  2.26D-02  4.28D-01  8.45D-01
                    CP:  1.20D+00  4.93D-01  1.93D+00  2.70D+00  3.00D+00
                    CP:  3.00D+00  3.00D+00  3.00D+00  1.80D+00  1.02D+00
 E= -1136.06121076032     Delta-E=       -0.000000228087 Rises=F Damp=F
 DIIS: error= 1.91D-05 at cycle  16 NSaved=  16.
 NSaved=16 IEnMin=16 EnMin= -1136.06121076032     IErMin=16 ErrMin= 1.91D-05
 ErrMax= 1.91D-05  0.00D+00 EMaxC= 1.00D-01 BMatC= 6.08D-08 BMatP= 1.76D-07
 IDIUse=1 WtCom= 1.00D+00 WtEn= 0.00D+00
 Coeff-Com: -0.601D-03 0.786D-03 0.662D-05-0.266D-04-0.489D-03-0.101D-02
 Coeff-Com:  0.178D-03-0.121D-02-0.728D-02 0.908D-02 0.204D-01-0.745D-02
 Coeff-Com:  0.412D-01-0.305D+00-0.422D+00 0.167D+01
 Coeff:     -0.601D-03 0.786D-03 0.662D-05-0.266D-04-0.489D-03-0.101D-02
 Coeff:      0.178D-03-0.121D-02-0.728D-02 0.908D-02 0.204D-01-0.745D-02
 Coeff:      0.412D-01-0.305D+00-0.422D+00 0.167D+01
 Gap=     0.034 Goal=   None    Shift=    0.000
 Gap=     0.051 Goal=   None    Shift=    0.000
 RMSDP=1.52D-05 MaxDP=1.50D-03 DE=-2.28D-07 OVMax= 2.50D-03

 Cycle  17  Pass 1  IDiag  1:
 RMSU=  7.48D-06    CP:  9.63D-01  1.08D+00  2.23D-02  4.28D-01  8.45D-01
                    CP:  1.20D+00  4.93D-01  1.94D+00  2.71D+00  3.00D+00
                    CP:  3.00D+00  3.00D+00  3.00D+00  1.92D+00  1.23D+00
                    CP:  1.36D+00
 E= -1136.06121114656     Delta-E=       -0.000000386232 Rises=F Damp=F
 DIIS: error= 4.01D-06 at cycle  17 NSaved=  17.
 NSaved=17 IEnMin=17 EnMin= -1136.06121114656     IErMin=17 ErrMin= 4.01D-06
 ErrMax= 4.01D-06  0.00D+00 EMaxC= 1.00D-01 BMatC= 8.23D-09 BMatP= 6.08D-08
 IDIUse=1 WtCom= 1.00D+00 WtEn= 0.00D+00
 Coeff-Com: -0.106D-03 0.135D-03 0.146D-04-0.280D-04-0.111D-04 0.643D-04
 Coeff-Com:  0.958D-03-0.557D-02-0.110D-02 0.274D-02-0.512D-02-0.415D-02
 Coeff-Com:  0.370D-01-0.136D+00-0.396D+00 0.562D+00 0.945D+00
 Coeff:     -0.106D-03 0.135D-03 0.146D-04-0.280D-04-0.111D-04 0.643D-04
 Coeff:      0.958D-03-0.557D-02-0.110D-02 0.274D-02-0.512D-02-0.415D-02
 Coeff:      0.370D-01-0.136D+00-0.396D+00 0.562D+00 0.945D+00
 Gap=     0.034 Goal=   None    Shift=    0.000
 Gap=     0.051 Goal=   None    Shift=    0.000
 RMSDP=7.82D-06 MaxDP=6.85D-04 DE=-3.86D-07 OVMax= 1.38D-03

 Cycle  18  Pass 1  IDiag  1:
 RMSU=  1.42D-06    CP:  9.63D-01  1.08D+00  2.23D-02  4.27D-01  8.45D-01
                    CP:  1.20D+00  4.94D-01  1.95D+00  2.72D+00  3.00D+00
                    CP:  3.00D+00  3.00D+00  3.00D+00  1.98D+00  1.35D+00
                    CP:  1.45D+00  1.43D+00
 E= -1136.06121120391     Delta-E=       -0.000000057355 Rises=F Damp=F
 DIIS: error= 8.88D-07 at cycle  18 NSaved=  18.
 NSaved=18 IEnMin=18 EnMin= -1136.06121120391     IErMin=18 ErrMin= 8.88D-07
 ErrMax= 8.88D-07  0.00D+00 EMaxC= 1.00D-01 BMatC= 2.47D-10 BMatP= 8.23D-09
 IDIUse=1 WtCom= 1.00D+00 WtEn= 0.00D+00
 Coeff-Com: -0.275D-04 0.410D-04 0.315D-05-0.426D-05-0.658D-04-0.310D-03
 Coeff-Com: -0.117D-03 0.954D-03 0.146D-02-0.160D-02-0.613D-02-0.155D-02
 Coeff-Com:  0.736D-02 0.120D-01 0.127D-01-0.677D-01 0.450D-02 0.104D+01
 Coeff:     -0.275D-04 0.410D-04 0.315D-05-0.426D-05-0.658D-04-0.310D-03
 Coeff:     -0.117D-03 0.954D-03 0.146D-02-0.160D-02-0.613D-02-0.155D-02
 Coeff:      0.736D-02 0.120D-01 0.127D-01-0.677D-01 0.450D-02 0.104D+01
 Gap=     0.034 Goal=   None    Shift=    0.000
 Gap=     0.051 Goal=   None    Shift=    0.000
 RMSDP=1.06D-06 MaxDP=6.23D-05 DE=-5.74D-08 OVMax= 1.51D-04

 Cycle  19  Pass 1  IDiag  1:
 RMSU=  5.42D-07    CP:  9.63D-01  1.08D+00  2.23D-02  4.27D-01  8.45D-01
                    CP:  1.20D+00  4.94D-01  1.95D+00  2.72D+00  3.00D+00
                    CP:  3.00D+00  3.00D+00  3.00D+00  1.98D+00  1.36D+00
                    CP:  1.43D+00  1.48D+00  1.18D+00
 E= -1136.06121120514     Delta-E=       -0.000000001224 Rises=F Damp=F
 DIIS: error= 5.53D-07 at cycle  19 NSaved=  19.
 NSaved=19 IEnMin=19 EnMin= -1136.06121120514     IErMin=19 ErrMin= 5.53D-07
 ErrMax= 5.53D-07  0.00D+00 EMaxC= 1.00D-01 BMatC= 1.12D-10 BMatP= 2.47D-10
 IDIUse=1 WtCom= 1.00D+00 WtEn= 0.00D+00
 Coeff-Com: -0.663D-05 0.102D-04 0.297D-05-0.691D-05-0.186D-04-0.103D-03
 Coeff-Com: -0.140D-03 0.743D-03 0.896D-03-0.188D-02-0.338D-02 0.257D-02
 Coeff-Com:  0.388D-02 0.727D-02 0.364D-01-0.798D-01-0.520D-01 0.430D+00
 Coeff-Com:  0.656D+00
 Coeff:     -0.663D-05 0.102D-04 0.297D-05-0.691D-05-0.186D-04-0.103D-03
 Coeff:     -0.140D-03 0.743D-03 0.896D-03-0.188D-02-0.338D-02 0.257D-02
 Coeff:      0.388D-02 0.727D-02 0.364D-01-0.798D-01-0.520D-01 0.430D+00
 Coeff:      0.656D+00
 Gap=     0.034 Goal=   None    Shift=    0.000
 Gap=     0.051 Goal=   None    Shift=    0.000
 RMSDP=2.92D-07 MaxDP=1.72D-05 DE=-1.22D-09 OVMax= 2.85D-05

 Cycle  20  Pass 1  IDiag  1:
 RMSU=  9.40D-08    CP:  9.63D-01  1.08D+00  2.23D-02  4.27D-01  8.45D-01
                    CP:  1.20D+00  4.94D-01  1.95D+00  2.72D+00  3.00D+00
                    CP:  3.00D+00  3.00D+00  3.00D+00  1.98D+00  1.36D+00
                    CP:  1.44D+00  1.48D+00  1.33D+00  1.18D+00
 E= -1136.06121120535     Delta-E=       -0.000000000217 Rises=F Damp=F
 DIIS: error= 2.58D-07 at cycle  20 NSaved=  20.
 NSaved=20 IEnMin=20 EnMin= -1136.06121120535     IErMin=20 ErrMin= 2.58D-07
 ErrMax= 2.58D-07  0.00D+00 EMaxC= 1.00D-01 BMatC= 1.76D-11 BMatP= 1.12D-10
 IDIUse=1 WtCom= 1.00D+00 WtEn= 0.00D+00
 Coeff-Com: -0.483D-05 0.597D-05 0.734D-06-0.112D-05-0.760D-06-0.181D-04
 Coeff-Com: -0.377D-04 0.166D-03 0.148D-03-0.159D-03 0.472D-03-0.265D-03
 Coeff-Com: -0.118D-02 0.102D-02 0.111D-01-0.113D-02-0.193D-01-0.194D+00
 Coeff-Com:  0.416D-01 0.116D+01
 Coeff:     -0.483D-05 0.597D-05 0.734D-06-0.112D-05-0.760D-06-0.181D-04
 Coeff:     -0.377D-04 0.166D-03 0.148D-03-0.159D-03 0.472D-03-0.265D-03
 Coeff:     -0.118D-02 0.102D-02 0.111D-01-0.113D-02-0.193D-01-0.194D+00
 Coeff:      0.416D-01 0.116D+01
 Gap=     0.034 Goal=   None    Shift=    0.000
 Gap=     0.051 Goal=   None    Shift=    0.000
 RMSDP=2.78D-07 MaxDP=2.19D-05 DE=-2.17D-10 OVMax= 2.80D-05

 Cycle  21  Pass 1  IDiag  1:
 Restarting incremental Fock formation.
 E= -1136.06121120547     Delta-E=       -0.000000000116 Rises=F Damp=F
 DIIS: error= 7.34D-08 at cycle  21 NSaved=  20.
 NSaved=20 IEnMin=20 EnMin= -1136.06121120547     IErMin=20 ErrMin= 7.34D-08
 ErrMax= 7.34D-08  0.00D+00 EMaxC= 1.00D-01 BMatC= 1.70D-12 BMatP= 1.76D-11
 IDIUse=1 WtCom= 1.00D+00 WtEn= 0.00D+00
 Coeff-Com: -0.698D-06 0.619D-06 0.801D-07 0.195D-05 0.113D-04 0.287D-04
 Coeff-Com: -0.142D-03-0.131D-03 0.318D-03 0.191D-03-0.209D-03 0.187D-03
 Coeff-Com: -0.163D-02-0.546D-02 0.845D-02 0.114D-01-0.560D-01-0.456D-01
 Coeff-Com: -0.162D+00 0.125D+01
 Coeff:     -0.698D-06 0.619D-06 0.801D-07 0.195D-05 0.113D-04 0.287D-04
 Coeff:     -0.142D-03-0.131D-03 0.318D-03 0.191D-03-0.209D-03 0.187D-03
 Coeff:     -0.163D-02-0.546D-02 0.845D-02 0.114D-01-0.560D-01-0.456D-01
 Coeff:     -0.162D+00 0.125D+01
 Gap=     0.034 Goal=   None    Shift=    0.000
 Gap=     0.051 Goal=   None    Shift=    0.000
 RMSDP=8.32D-08 MaxDP=7.68D-06 DE=-1.16D-10 OVMax= 8.99D-06

 Cycle  22  Pass 1  IDiag  1:
 RMSU=  8.32D-08    CP:  1.00D+00
 E= -1136.06121120548     Delta-E=       -0.000000000010 Rises=F Damp=F
 DIIS: error= 2.65D-08 at cycle  22 NSaved=  20.
 NSaved=20 IEnMin=20 EnMin= -1136.06121120548     IErMin=20 ErrMin= 2.65D-08
 ErrMax= 2.65D-08  0.00D+00 EMaxC= 1.00D-01 BMatC= 2.23D-13 BMatP= 1.70D-12
 IDIUse=1 WtCom= 1.00D+00 WtEn= 0.00D+00
 Coeff-Com: -0.596D-07 0.448D-07-0.156D-06 0.364D-05 0.325D-05-0.199D-04
 Coeff-Com: -0.387D-04 0.402D-04-0.439D-04 0.878D-04 0.161D-03-0.377D-03
 Coeff-Com: -0.180D-02 0.756D-03 0.360D-02 0.158D-01-0.287D-02-0.167D+00
 Coeff-Com:  0.178D+00 0.973D+00
 Coeff:     -0.596D-07 0.448D-07-0.156D-06 0.364D-05 0.325D-05-0.199D-04
 Coeff:     -0.387D-04 0.402D-04-0.439D-04 0.878D-04 0.161D-03-0.377D-03
 Coeff:     -0.180D-02 0.756D-03 0.360D-02 0.158D-01-0.287D-02-0.167D+00
 Coeff:      0.178D+00 0.973D+00
 Gap=     0.034 Goal=   None    Shift=    0.000
 Gap=     0.051 Goal=   None    Shift=    0.000
 RMSDP=2.22D-08 MaxDP=1.61D-06 DE=-9.78D-12 OVMax= 2.69D-06

 Cycle  23  Pass 1  IDiag  1:
 RMSU=  1.49D-08    CP:  1.00D+00  1.20D+00
 E= -1136.06121120548     Delta-E=       -0.000000000002 Rises=F Damp=F
 DIIS: error= 8.78D-09 at cycle  23 NSaved=  20.
 NSaved=20 IEnMin=20 EnMin= -1136.06121120548     IErMin=20 ErrMin= 8.78D-09
 ErrMax= 8.78D-09  0.00D+00 EMaxC= 1.00D-01 BMatC= 2.56D-14 BMatP= 2.23D-13
 IDIUse=1 WtCom= 1.00D+00 WtEn= 0.00D+00
 Coeff-Com:  0.180D-07-0.519D-06-0.194D-05-0.160D-05 0.119D-04 0.227D-04
 Coeff-Com: -0.375D-04-0.588D-04 0.369D-04 0.292D-04 0.114D-03 0.243D-03
 Coeff-Com: -0.869D-03-0.723D-04 0.983D-02 0.457D-02-0.199D-01-0.103D+00
 Coeff-Com:  0.165D+00 0.944D+00
 Coeff:      0.180D-07-0.519D-06-0.194D-05-0.160D-05 0.119D-04 0.227D-04
 Coeff:     -0.375D-04-0.588D-04 0.369D-04 0.292D-04 0.114D-03 0.243D-03
 Coeff:     -0.869D-03-0.723D-04 0.983D-02 0.457D-02-0.199D-01-0.103D+00
 Coeff:      0.165D+00 0.944D+00
 Gap=     0.034 Goal=   None    Shift=    0.000
 Gap=     0.051 Goal=   None    Shift=    0.000
 RMSDP=8.44D-09 MaxDP=5.60D-07 DE=-1.59D-12 OVMax= 8.31D-07

 SCF Done:  E(UB3LYP) =  -1136.06121121     A.U. after   23 cycles
            NFock= 23  Conv=0.84D-08     -V/T= 2.0029
 <Sx>= 0.0000 <Sy>= 0.0000 <Sz>= 0.5000 <S**2>= 1.8557 S= 0.9511
 <L.S>= 0.000000000000E+00
 KE= 1.132768353963D+03 PE=-2.987911772035D+03 EE= 5.892778392822D+02
 Annihilation of the first spin contaminant:
 S**2 before annihilation     1.8557,   after     1.1039
 Leave Link  502 at Thu Nov 23 12:42:15 2023, MaxMem=   104857600 cpu:             608.2 elap:             648.1
 (Enter /home/sekinelabo/g16/l601.exe)
 Copying SCF densities to generalized density rwf, IOpCl= 1 IROHF=0.

 **********************************************************************

            Population analysis using the SCF Density.

 **********************************************************************

 Orbital symmetries:
 Alpha Orbitals:
       Occupied  (A) (A) (A) (A) (A) (A) (A) (A) (A) (A) (A) (A)
                 (A) (A) (A) (A) (A) (A) (A) (A) (A) (A) (A) (A)
                 (A) (A) (A) (A) (A) (A) (A) (A) (A) (A) (A) (A)
                 (A) (A) (A)
       Virtual   (A) (A) (A) (A) (A) (A) (A) (A) (A) (A) (A) (A)
                 (A) (A) (A) (A) (A) (A) (A) (A) (A) (A) (A) (A)
                 (A) (A) (A) (A) (A) (A) (A) (A) (A) (A) (A) (A)
                 (A) (A) (A) (A) (A) (A) (A) (A) (A) (A) (A) (A)
                 (A) (A) (A) (A) (A) (A) (A) (A) (A) (A) (A) (A)
                 (A) (A) (A) (A) (A) (A) (A) (A) (A) (A) (A) (A)
                 (A) (A) (A) (A) (A) (A) (A) (A) (A) (A) (A) (A)
                 (A) (A) (A) (A) (A) (A) (A) (A) (A) (A) (A) (A)
                 (A) (A) (A) (A) (A) (A) (A) (A) (A) (A) (A) (A)
                 (A) (A) (A) (A) (A) (A) (A) (A) (A) (A) (A) (A)
                 (A) (A) (A) (A) (A) (A) (A) (A) (A) (A) (A) (A)
                 (A) (A) (A) (A) (A) (A) (A) (A) (A) (A) (A) (A)
                 (A) (A) (A) (A) (A) (A) (A) (A) (A) (A) (A) (A)
                 (A) (A) (A) (A) (A) (A) (A) (A) (A) (A) (A) (A)
                 (A) (A) (A)
 Beta  Orbitals:
       Occupied  (A) (A) (A) (A) (A) (A) (A) (A) (A) (A) (A) (A)
                 (A) (A) (A) (A) (A) (A) (A) (A) (A) (A) (A) (A)
                 (A) (A) (A) (A) (A) (A) (A) (A) (A) (A) (A) (A)
                 (A) (A)
       Virtual   (A) (A) (A) (A) (A) (A) (A) (A) (A) (A) (A) (A)
                 (A) (A) (A) (A) (A) (A) (A) (A) (A) (A) (A) (A)
                 (A) (A) (A) (A) (A) (A) (A) (A) (A) (A) (A) (A)
                 (A) (A) (A) (A) (A) (A) (A) (A) (A) (A) (A) (A)
                 (A) (A) (A) (A) (A) (A) (A) (A) (A) (A) (A) (A)
                 (A) (A) (A) (A) (A) (A) (A) (A) (A) (A) (A) (A)
                 (A) (A) (A) (A) (A) (A) (A) (A) (A) (A) (A) (A)
                 (A) (A) (A) (A) (A) (A) (A) (A) (A) (A) (A) (A)
                 (A) (A) (A) (A) (A) (A) (A) (A) (A) (A) (A) (A)
                 (A) (A) (A) (A) (A) (A) (A) (A) (A) (A) (A) (A)
                 (A) (A) (A) (A) (A) (A) (A) (A) (A) (A) (A) (A)
                 (A) (A) (A) (A) (A) (A) (A) (A) (A) (A) (A) (A)
                 (A) (A) (A) (A) (A) (A) (A) (A) (A) (A) (A) (A)
                 (A) (A) (A) (A) (A) (A) (A) (A) (A) (A) (A) (A)
                 (A) (A) (A) (A)
 The electronic state is 2-A.
 Alpha  occ. eigenvalues --  -38.46059 -38.45770 -38.45770 -38.44842 -38.44761
 Alpha  occ. eigenvalues --  -38.44708 -38.44610  -2.21693  -2.21556  -2.21554
 Alpha  occ. eigenvalues --   -2.20571  -2.20505  -2.20440  -2.20404  -1.15412
 Alpha  occ. eigenvalues --   -1.15412  -1.15392  -1.15167  -1.15167  -1.15167
 Alpha  occ. eigenvalues --   -1.15167  -1.15167  -1.15167  -1.14254  -1.14253
 Alpha  occ. eigenvalues --   -1.14249  -1.14166  -1.14162  -1.14158  -1.14136
 Alpha  occ. eigenvalues --   -1.14136  -1.14083  -1.14067  -1.14050  -1.13995
 Alpha  occ. eigenvalues --   -0.14417  -0.12824  -0.12775  -0.11721
 Alpha virt. eigenvalues --   -0.08275  -0.06450  -0.04750  -0.03107  -0.02619
 Alpha virt. eigenvalues --   -0.02363  -0.02181  -0.02181  -0.02073  -0.02000
 Alpha virt. eigenvalues --   -0.02000  -0.01695  -0.01693  -0.01103  -0.00811
 Alpha virt. eigenvalues --   -0.00716  -0.00286   0.00044   0.00461   0.00577
 Alpha virt. eigenvalues --    0.00622   0.00648   0.00732   0.00995   0.01099
 Alpha virt. eigenvalues --    0.01256   0.01275   0.01275   0.01438   0.01567
 Alpha virt. eigenvalues --    0.01580   0.01580   0.01647   0.01750   0.01821
 Alpha virt. eigenvalues --    0.01940   0.01962   0.01995   0.02094   0.02429
 Alpha virt. eigenvalues --    0.02677   0.02730   0.02844   0.02985   0.03257
 Alpha virt. eigenvalues --    0.03337   0.03569   0.03596   0.03971   0.04214
 Alpha virt. eigenvalues --    0.04687   0.05559   0.07074   0.07212   0.07311
 Alpha virt. eigenvalues --    0.07311   0.07365   0.07546   0.07556   0.07771
 Alpha virt. eigenvalues --    0.07771   0.08133   0.08204   0.08241   0.08356
 Alpha virt. eigenvalues --    0.08513   0.08549   0.08838   0.09238   0.09420
 Alpha virt. eigenvalues --    0.09551   0.09617   0.10003   0.10415   0.10938
 Alpha virt. eigenvalues --    0.12255   0.12929   0.13240   0.14082   0.16553
 Alpha virt. eigenvalues --    0.28774   0.29126   0.29947   0.30673   0.32333
 Alpha virt. eigenvalues --    0.33072   0.33201   0.33226   0.33226   0.33226
 Alpha virt. eigenvalues --    0.33226   0.33229   0.33229   0.33233   0.33233
 Alpha virt. eigenvalues --    0.33234   0.33305   0.34600   0.34719   0.34823
 Alpha virt. eigenvalues --    0.34938   0.35048   0.35549   0.35824   0.36000
 Alpha virt. eigenvalues --    0.36557   0.38073   0.38663   0.39198   0.40987
 Alpha virt. eigenvalues --    0.41814   0.41814   0.41969   0.42168   0.42168
 Alpha virt. eigenvalues --    0.42180   0.42275   0.42519   0.42564   0.43248
 Alpha virt. eigenvalues --    0.43436   0.44168   0.44186   0.44329   0.45038
 Alpha virt. eigenvalues --    0.45257   0.45501   0.45846   0.46829   0.48864
 Alpha virt. eigenvalues --    0.48963   0.49960   0.51076   0.51979   0.52864
 Alpha virt. eigenvalues --    0.71515   1.98629   1.99476   2.00164   2.03752
 Alpha virt. eigenvalues --    2.06318   2.08494   2.15288   4.41504   4.42713
 Alpha virt. eigenvalues --    4.42713   4.42753   4.42883   4.42900   4.42985
 Alpha virt. eigenvalues --    4.42985   4.43150   4.43374   4.43741   4.44189
 Alpha virt. eigenvalues --    4.44230   4.44676   4.44722   4.45245   4.45684
 Alpha virt. eigenvalues --    4.46101   4.47038   4.49586   4.65073  96.17653
 Alpha virt. eigenvalues --   96.18643  96.18900  96.23183  96.26348  96.28770
 Alpha virt. eigenvalues --   96.38186
  Beta  occ. eigenvalues --  -38.46218 -38.45584 -38.45584 -38.44823 -38.44805
  Beta  occ. eigenvalues --  -38.44684 -38.44642  -2.21991  -2.21210  -2.21208
  Beta  occ. eigenvalues --   -2.20556  -2.20500  -2.20468  -2.20454  -1.15613
  Beta  occ. eigenvalues --   -1.15613  -1.15593  -1.14933  -1.14933  -1.14933
  Beta  occ. eigenvalues --   -1.14933  -1.14933  -1.14933  -1.14264  -1.14215
  Beta  occ. eigenvalues --   -1.14215  -1.14204  -1.14200  -1.14161  -1.14138
  Beta  occ. eigenvalues --   -1.14130  -1.14119  -1.14103  -1.14083  -1.14011
  Beta  occ. eigenvalues --   -0.14651  -0.13121  -0.11855
  Beta virt. eigenvalues --   -0.06800  -0.06336  -0.06252  -0.05156  -0.03226
  Beta virt. eigenvalues --   -0.02907  -0.02429  -0.02184  -0.01934  -0.01401
  Beta virt. eigenvalues --   -0.01241  -0.00411  -0.00404  -0.00304  -0.00304
  Beta virt. eigenvalues --    0.00070   0.00070   0.00271   0.00284   0.00557
  Beta virt. eigenvalues --    0.00642   0.00760   0.00766   0.00954   0.01035
  Beta virt. eigenvalues --    0.01148   0.01343   0.01393   0.01557   0.01624
  Beta virt. eigenvalues --    0.01805   0.01832   0.01867   0.01929   0.02129
  Beta virt. eigenvalues --    0.02129   0.02329   0.02344   0.02344   0.02486
  Beta virt. eigenvalues --    0.02608   0.02682   0.02742   0.02833   0.02981
  Beta virt. eigenvalues --    0.03131   0.03304   0.03484   0.03502   0.03883
  Beta virt. eigenvalues --    0.04210   0.04670   0.05353   0.07107   0.07172
  Beta virt. eigenvalues --    0.07383   0.07583   0.07788   0.08106   0.08146
  Beta virt. eigenvalues --    0.08243   0.08410   0.08695   0.08819   0.08819
  Beta virt. eigenvalues --    0.08890   0.09119   0.09281   0.09282   0.09302
  Beta virt. eigenvalues --    0.09547   0.09642   0.09999   0.10339   0.10781
  Beta virt. eigenvalues --    0.10815   0.12089   0.12716   0.13250   0.14021
  Beta virt. eigenvalues --    0.16426   0.28722   0.28994   0.29833   0.30574
  Beta virt. eigenvalues --    0.32014   0.32961   0.33047   0.33171   0.33240
  Beta virt. eigenvalues --    0.33659   0.33759   0.34726   0.34955   0.35325
  Beta virt. eigenvalues --    0.35325   0.35325   0.35325   0.35327   0.35328
  Beta virt. eigenvalues --    0.35330   0.35331   0.35331   0.35351   0.35395
  Beta virt. eigenvalues --    0.36028   0.36654   0.37593   0.38655   0.38819
  Beta virt. eigenvalues --    0.40925   0.41905   0.41917   0.42020   0.43066
  Beta virt. eigenvalues --    0.43234   0.43234   0.43277   0.43596   0.43596
  Beta virt. eigenvalues --    0.43603   0.43685   0.43892   0.44086   0.44247
  Beta virt. eigenvalues --    0.45047   0.45293   0.45432   0.45792   0.46838
  Beta virt. eigenvalues --    0.48848   0.48934   0.49911   0.51115   0.51987
  Beta virt. eigenvalues --    0.52909   0.71509   1.99501   1.99937   2.00344
  Beta virt. eigenvalues --    2.03209   2.06274   2.08532   2.15253   4.41455
  Beta virt. eigenvalues --    4.42546   4.42682   4.43029   4.43029   4.43200
  Beta virt. eigenvalues --    4.43301   4.43301   4.43335   4.43466   4.43730
  Beta virt. eigenvalues --    4.44109   4.44148   4.44671   4.44740   4.45225
  Beta virt. eigenvalues --    4.45629   4.46078   4.47003   4.49604   4.65061
  Beta virt. eigenvalues --   96.17923  96.18833  96.18912  96.23003  96.26330
  Beta virt. eigenvalues --   96.28777  96.38171
          Condensed to atoms (all electrons):
               1          2          3          4          5          6
     1  Na  10.699929   0.000000   0.285937  -0.041125  -0.023327  -0.003432
     2  Na   0.000000  11.004582   0.000000   0.000000   0.000000   0.000000
     3  Na   0.285937   0.000000  10.945870  -0.037331  -0.013057  -0.019824
     4  Na  -0.041125   0.000000  -0.037331  10.606730   0.178432  -0.063359
     5  Na  -0.023327   0.000000  -0.013057   0.178432  11.052117   0.116947
     6  Na  -0.003432   0.000000  -0.019824  -0.063359   0.116947  10.935632
     7  Na   0.000000  -0.004582   0.000000   0.000000   0.000000   0.000000
               7
     1  Na   0.000000
     2  Na  -0.004582
     3  Na   0.000000
     4  Na   0.000000
     5  Na   0.000000
     6  Na   0.000000
     7  Na  11.004582
          Atomic-Atomic Spin Densities.
               1          2          3          4          5          6
     1  Na  -0.276785   0.000000  -0.033546   0.013383  -0.006798   0.000810
     2  Na   0.000000   1.004163   0.000000   0.000000   0.000000   0.000000
     3  Na  -0.033546   0.000000   0.232958   0.014278  -0.052027  -0.000291
     4  Na   0.013383   0.000000   0.014278  -0.163760  -0.041312   0.025554
     5  Na  -0.006798   0.000000  -0.052027  -0.041312   0.244322  -0.026425
     6  Na   0.000810   0.000000  -0.000291   0.025554  -0.026425  -0.823988
     7  Na   0.000000  -0.004163   0.000000   0.000000   0.000000   0.000000
               7
     1  Na   0.000000
     2  Na  -0.004163
     3  Na   0.000000
     4  Na   0.000000
     5  Na   0.000000
     6  Na   0.000000
     7  Na   1.004163
 Mulliken charges and spin densities:
               1          2
     1  Na   0.082018  -0.302937
     2  Na  -0.000000   1.000000
     3  Na  -0.161594   0.161373
     4  Na   0.356653  -0.151857
     5  Na  -0.311112   0.117760
     6  Na   0.034036  -0.824339
     7  Na   0.000000   1.000000
 Sum of Mulliken charges =  -0.00000   1.00000
 Mulliken charges and spin densities with hydrogens summed into heavy atoms:
               1          2
     1  Na   0.082018  -0.302937
     2  Na  -0.000000   1.000000
     3  Na  -0.161594   0.161373
     4  Na   0.356653  -0.151857
     5  Na  -0.311112   0.117760
     6  Na   0.034036  -0.824339
     7  Na   0.000000   1.000000
 Electronic spatial extent (au):  <R**2>=         532638.1594
 Charge=             -0.0000 electrons
 Dipole moment (field-independent basis, Debye):
    X=              0.0751    Y=             -1.1533    Z=              0.0682  Tot=              1.1577
 Quadrupole moment (field-independent basis, Debye-Ang):
   XX=            -71.2548   YY=            -59.9408   ZZ=            -74.1608
   XY=            -34.1686   XZ=             -1.2322   YZ=              4.3973
 Traceless Quadrupole moment (field-independent basis, Debye-Ang):
   XX=             -2.8027   YY=              8.5114   ZZ=             -5.7087
   XY=            -34.1686   XZ=             -1.2322   YZ=              4.3973
 Octapole moment (field-independent basis, Debye-Ang**2):
  XXX=            546.3495  YYY=             17.5098  ZZZ=             12.5091  XYY=            597.3087
  XXY=          -1013.0363  XXZ=           -115.6550  XZZ=            153.9216  YZZ=             -2.8033
  YYZ=            -20.8088  XYZ=            121.1533
 Hexadecapole moment (field-independent basis, Debye-Ang**3):
 XXXX=        -893027.9083 YYYY=          -7800.0943 ZZZZ=           -683.7033 XXXY=         -30036.2306
 XXXZ=          -5345.9259 YYYX=            528.6470 YYYZ=             49.1601 ZZZX=            309.7966
 ZZZY=             42.2474 XXYY=        -137264.8390 XXZZ=        -149326.8448 YYZZ=          -1672.7527
 XXYZ=           3349.5658 YYXZ=           -632.5970 ZZXY=            -97.6952
 N-N= 1.298043675842D+02 E-N=-2.987911772674D+03  KE= 1.132768353963D+03
                          Isotropic Fermi Contact Couplings
        Atom                 a.u.       MegaHertz       Gauss      10(-4) cm-1
     1  Na(23)            -0.26896    -318.19244    -113.53898    -106.13757
     2  Na(23)             0.79353     938.76846     334.97593     313.13945
     3  Na(23)             0.17718     209.61142      74.79457      69.91884
     4  Na(23)            -0.15806    -186.98556     -66.72110     -62.37167
     5  Na(23)             0.14335     169.59269      60.51489      56.57003
     6  Na(23)            -0.68072    -805.31223    -287.35543    -268.62325
     7  Na(23)             0.79353     938.76846     334.97593     313.13945
 --------------------------------------------------------
       Center         ----  Spin Dipole Couplings  ----
                      3XX-RR        3YY-RR        3ZZ-RR
 --------------------------------------------------------
     1   Atom       -0.001889      0.004162     -0.002273
     2   Atom       -0.000160      0.000327     -0.000167
     3   Atom        0.004775     -0.009938      0.005162
     4   Atom       -0.006428      0.012648     -0.006219
     5   Atom        0.010812     -0.021339      0.010527
     6   Atom       -0.000248      0.000596     -0.000348
     7   Atom       -0.000160      0.000327     -0.000167
 --------------------------------------------------------
                        XY            XZ            YZ
 --------------------------------------------------------
     1   Atom        0.001567     -0.000056     -0.000342
     2   Atom       -0.000065     -0.000003      0.000024
     3   Atom       -0.006589      0.002247      0.005609
     4   Atom        0.003065     -0.001298     -0.003930
     5   Atom        0.013881      0.005502     -0.015429
     6   Atom       -0.000835     -0.000454      0.000721
     7   Atom       -0.000065     -0.000003      0.000024
 --------------------------------------------------------


 ---------------------------------------------------------------------------------
              Anisotropic Spin Dipole Couplings in Principal Axis System
 ---------------------------------------------------------------------------------

       Atom             a.u.   MegaHertz   Gauss  10(-4) cm-1        Axes

              Baa    -0.0023    -0.326    -0.116    -0.109 -0.5473  0.1758  0.8183
     1 Na(23) Bbb    -0.0023    -0.318    -0.114    -0.106  0.8030 -0.1656  0.5726
              Bcc     0.0046     0.644     0.230     0.215  0.2361  0.9704 -0.0505
 
              Baa    -0.0002    -0.024    -0.008    -0.008  0.9907  0.1318 -0.0343
     2 Na(23) Bbb    -0.0002    -0.024    -0.008    -0.008  0.0403 -0.0430  0.9983
              Bcc     0.0003     0.048     0.017     0.016 -0.1301  0.9903  0.0479
 
              Baa    -0.0143    -2.024    -0.722    -0.675  0.3424  0.8917 -0.2961
     3 Na(23) Bbb     0.0070     0.989     0.353     0.330 -0.1814  0.3719  0.9104
              Bcc     0.0073     1.034     0.369     0.345  0.9219 -0.2580  0.2890
 
              Baa    -0.0076    -1.079    -0.385    -0.360  0.6839  0.0378  0.7286
     4 Na(23) Bbb    -0.0063    -0.892    -0.318    -0.297  0.7123 -0.2510 -0.6555
              Bcc     0.0140     1.971     0.703     0.657  0.1581  0.9672 -0.1986
 
              Baa    -0.0327    -4.619    -1.648    -1.541 -0.3245  0.8770  0.3543
     5 Na(23) Bbb     0.0159     2.249     0.802     0.750  0.9390  0.2536  0.2323
              Bcc     0.0168     2.370     0.846     0.791 -0.1139 -0.4081  0.9058
 
              Baa    -0.0008    -0.108    -0.038    -0.036  0.8773  0.3917  0.2773
     6 Na(23) Bbb    -0.0007    -0.104    -0.037    -0.035 -0.0504 -0.4994  0.8649
              Bcc     0.0015     0.212     0.076     0.071 -0.4772  0.7728  0.4184
 
              Baa    -0.0002    -0.024    -0.008    -0.008  0.9908  0.1318 -0.0318
     7 Na(23) Bbb    -0.0002    -0.024    -0.008    -0.008  0.0378 -0.0434  0.9983
              Bcc     0.0003     0.048     0.017     0.016 -0.1302  0.9903  0.0479
 

 ---------------------------------------------------------------------------------

 No NMR shielding tensors so no spin-rotation constants.
 Leave Link  601 at Thu Nov 23 12:42:23 2023, MaxMem=   104857600 cpu:              16.8 elap:               8.5
 (Enter /home/sekinelabo/g16/l701.exe)
 ... and contract with generalized density number  0.
 Compute integral first derivatives.
 Leave Link  701 at Thu Nov 23 12:42:27 2023, MaxMem=   104857600 cpu:               7.2 elap:               3.8
 (Enter /home/sekinelabo/g16/l702.exe)
 L702 exits ... SP integral derivatives will be done elsewhere.
 Leave Link  702 at Thu Nov 23 12:42:28 2023, MaxMem=   104857600 cpu:               0.7 elap:               0.4
 (Enter /home/sekinelabo/g16/l703.exe)
 Integral derivatives from FoFJK, PRISM(SPDF).
 Compute integral first derivatives, UseDBF=F ICtDFT=           0.
 Calling FoFJK, ICntrl=      2127 FMM=F ISym2X=0 I1Cent= 0 IOpClX= 1 NMat=1 NMatS=1 NMatT=0.
 FoFJK:  IHMeth= 1 ICntrl=    2127 DoSepK=F KAlg= 0 I1Cent=           0 FoldK=F
 IRaf=         0 NMat=       1 IRICut=       1 DoRegI=T DoRafI=F ISym2E= 0 IDoP0=0 IntGTp=1.
 FoFCou: FMM=F IPFlag=           0 FMFlag=      100000 FMFlg1=         800
         NFxFlg=           0 DoJE=F BraDBF=F KetDBF=F FulRan=T
         wScrn=  0.000000 ICntrl=      2127 IOpCl=  1 I1Cent=           0 NGrid=           0
         NMat0=    1 NMatS0=      1 NMatT0=    0 NMatD0=    1 NMtDS0=    0 NMtDT0=    0
 Symmetry not used in FoFCou.
 Leave Link  703 at Thu Nov 23 12:42:39 2023, MaxMem=   104857600 cpu:              22.6 elap:              11.5
 (Enter /home/sekinelabo/g16/l716.exe)
 Dipole        = 2.95410747D-02-4.53734234D-01 2.68322073D-02
 ***** Axes restored to original set *****
 -------------------------------------------------------------------
 Center     Atomic                   Forces (Hartrees/Bohr)
 Number     Number              X              Y              Z
 -------------------------------------------------------------------
      1       11          -0.006467337    0.001677489    0.001367310
      2       11           0.000002875   -0.000000877    0.000000432
      3       11           0.004448462   -0.002602814   -0.000311114
      4       11           0.003786309   -0.000870518   -0.000232440
      5       11          -0.003393428    0.003236854   -0.002144069
      6       11           0.001625994   -0.001441011    0.001320313
      7       11          -0.000002875    0.000000877   -0.000000432
 -------------------------------------------------------------------
 Cartesian Forces:  Max     0.006467337 RMS     0.002404078
 Z-matrix is all fixed cartesians, so copy forces.
 Force constants in Cartesian coordinates: 
                1             2             3             4             5 
      1  0.972650D-02
      2 -0.199978D-02  0.403667D-02
      3 -0.223592D-02 -0.127188D-02  0.143993D-02
      4  0.000000D+00  0.000000D+00  0.000000D+00  0.100000D+01
      5  0.000000D+00  0.000000D+00  0.000000D+00  0.000000D+00  0.100000D+01
      6  0.000000D+00  0.000000D+00  0.000000D+00  0.000000D+00  0.000000D+00
      7 -0.936490D-02  0.443060D-02  0.912868D-03  0.000000D+00  0.000000D+00
      8  0.154198D-02 -0.706979D-02  0.289061D-02  0.000000D+00  0.000000D+00
      9  0.232674D-02  0.192703D-02 -0.182887D-02  0.000000D+00  0.000000D+00
     10 -0.365405D-03 -0.243640D-02  0.131164D-02  0.000000D+00  0.000000D+00
     11  0.446255D-03  0.301615D-02 -0.165344D-02  0.000000D+00  0.000000D+00
     12 -0.108236D-03 -0.680744D-03  0.336602D-03  0.000000D+00  0.000000D+00
     13  0.379968D-05  0.558021D-05  0.114130D-04  0.000000D+00  0.000000D+00
     14  0.115536D-04  0.169677D-04  0.347032D-04  0.000000D+00  0.000000D+00
     15  0.174255D-04  0.255910D-04  0.523403D-04  0.000000D+00  0.000000D+00
     16  0.000000D+00  0.000000D+00  0.000000D+00  0.000000D+00  0.000000D+00
     17  0.000000D+00  0.000000D+00  0.000000D+00  0.000000D+00  0.000000D+00
     18  0.000000D+00  0.000000D+00  0.000000D+00  0.000000D+00  0.000000D+00
     19  0.000000D+00  0.000000D+00  0.000000D+00  0.000000D+00  0.000000D+00
     20  0.000000D+00  0.000000D+00  0.000000D+00  0.000000D+00  0.000000D+00
     21  0.000000D+00  0.000000D+00  0.000000D+00  0.000000D+00  0.000000D+00
                6             7             8             9            10 
      6  0.100000D+01
      7  0.000000D+00  0.190314D-01
      8  0.000000D+00 -0.410233D-02  0.177298D-01
      9  0.000000D+00 -0.368043D-02 -0.784052D-02  0.550907D-02
     10  0.000000D+00 -0.742203D-02  0.230891D-03  0.243287D-02  0.315436D-01
     11  0.000000D+00  0.212967D-02 -0.131829D-01  0.712353D-02 -0.140061D-01
     12  0.000000D+00  0.689323D-03  0.718633D-02 -0.459942D-02  0.182552D-02
     13  0.000000D+00 -0.224449D-02  0.232947D-02 -0.107917D-02 -0.237562D-01
     14  0.000000D+00 -0.245794D-02  0.252293D-02 -0.121004D-02  0.162116D-01
     15  0.000000D+00  0.207824D-02 -0.223642D-02  0.919217D-03 -0.557003D-02
     16  0.000000D+00  0.000000D+00  0.000000D+00  0.000000D+00  0.000000D+00
     17  0.000000D+00  0.000000D+00  0.000000D+00  0.000000D+00  0.000000D+00
     18  0.000000D+00  0.000000D+00  0.000000D+00  0.000000D+00  0.000000D+00
     19  0.000000D+00  0.000000D+00  0.000000D+00  0.000000D+00  0.000000D+00
     20  0.000000D+00  0.000000D+00  0.000000D+00  0.000000D+00  0.000000D+00
     21  0.000000D+00  0.000000D+00  0.000000D+00  0.000000D+00  0.000000D+00
               11            12            13            14            15 
     11  0.273285D-01
     12 -0.143246D-01  0.895640D-02
     13  0.114302D-01 -0.240661D-02  0.259969D-01
     14 -0.171617D-01  0.781900D-02 -0.137652D-01  0.146218D-01
     15  0.885449D-02 -0.469358D-02  0.347437D-02 -0.664366D-02  0.372203D-02
     16  0.000000D+00  0.000000D+00  0.000000D+00  0.000000D+00  0.000000D+00
     17  0.000000D+00  0.000000D+00  0.000000D+00  0.000000D+00  0.000000D+00
     18  0.000000D+00  0.000000D+00  0.000000D+00  0.000000D+00  0.000000D+00
     19  0.000000D+00  0.000000D+00  0.000000D+00  0.000000D+00  0.000000D+00
     20  0.000000D+00  0.000000D+00  0.000000D+00  0.000000D+00  0.000000D+00
     21  0.000000D+00  0.000000D+00  0.000000D+00  0.000000D+00  0.000000D+00
               16            17            18            19            20 
     16  0.100000D+01
     17  0.000000D+00  0.100000D+01
     18  0.000000D+00  0.000000D+00  0.100000D+01
     19  0.000000D+00  0.000000D+00  0.000000D+00  0.100000D+01
     20  0.000000D+00  0.000000D+00  0.000000D+00  0.000000D+00  0.100000D+01
     21  0.000000D+00  0.000000D+00  0.000000D+00  0.000000D+00  0.000000D+00
               21 
     21  0.100000D+01
 Leave Link  716 at Thu Nov 23 12:42:40 2023, MaxMem=   104857600 cpu:               0.8 elap:               0.4
 (Enter /home/sekinelabo/g16/l103.exe)

 GradGradGradGradGradGradGradGradGradGradGradGradGradGradGradGradGradGrad
 Berny optimization.
 Search for a local minimum.
 Step number   1 out of a maximum of    2
 All quantities printed in internal units (Hartrees-Bohrs-Radians)
 Second derivative matrix not updated -- first step.
 ITU=  0
     Eigenvalues ---    0.00018   0.00033   0.00263   0.00768   0.01224
     Eigenvalues ---    0.02876   0.03979   0.08084   0.29041   0.57143
     Eigenvalues ---    0.79439   0.90954   1.00000   1.00000   1.00000
 Quadratic step=1.784D+00 exceeds max=3.000D-01 adjusted using Lamda=-1.226D-02.
 Angle between NR and scaled steps=  63.14 degrees.
 Angle between quadratic step and forces=  29.92 degrees.
 Linear search not attempted -- first point.
 B after Tr=     0.000000    0.000000    0.000000
         Rot=    1.000000    0.000000   -0.000000   -0.000000 Ang=   0.00 deg.
 Variable       Old X    -DE/DX   Delta X   Delta X   Delta X     New X
                                 (Linear)    (Quad)   (Total)
    X1       23.83946  -0.00647   0.00000  -0.21487  -0.21487  23.62459
    Y1        1.85328   0.00168   0.00000   0.04795   0.04795   1.90123
    Z1        2.14367   0.00137   0.00000   0.08549   0.08549   2.22916
    X2       20.64072   0.00000   0.00000   0.00248   0.00248  20.64320
    Y2        5.88691  -0.00000   0.00000   0.00031   0.00031   5.88722
    Z2      188.37111   0.00000   0.00000   0.00024   0.00024 188.37135
    X3       16.70344   0.00445   0.00000   0.10226   0.10226  16.80570
    Y3        3.71301  -0.00260   0.00000  -0.07344  -0.07344   3.63957
    Z3        3.61015  -0.00031   0.00000   0.01291   0.01291   3.62307
    X4       11.31392   0.00379   0.00000   0.09526   0.09526  11.40918
    Y4        0.15685  -0.00087   0.00000  -0.00534  -0.00534   0.15151
    Z4        7.14320  -0.00023   0.00000  -0.01265  -0.01265   7.13055
    X5        6.75399  -0.00339   0.00000   0.01112   0.01112   6.76512
    Y5        3.36371   0.00324   0.00000   0.03377   0.03377   3.39748
    Z5        6.01126  -0.00214   0.00000  -0.08822  -0.08822   5.92304
    X6        1.04945   0.00163   0.00000   0.00161   0.00161   1.05106
    Y6        8.17976  -0.00144   0.00000  -0.00256  -0.00256   8.17719
    Z6        1.73938   0.00132   0.00000   0.00178   0.00178   1.74116
    X7        3.43089  -0.00000   0.00000   0.00214   0.00214   3.43303
    Y7       11.14867   0.00000   0.00000  -0.00069  -0.00069  11.14798
    Z7      185.87289  -0.00000   0.00000   0.00044   0.00044 185.87334
         Item               Value     Threshold  Converged?
 Maximum Force            0.006467     0.000450     NO 
 RMS     Force            0.002404     0.000300     NO 
 Maximum Displacement     0.214870     0.001800     NO 
 RMS     Displacement     0.065512     0.001200     NO 
 Predicted change in Energy=-1.985630D-03
 GradGradGradGradGradGradGradGradGradGradGradGradGradGradGradGradGradGrad

 Leave Link  103 at Thu Nov 23 12:42:42 2023, MaxMem=   104857600 cpu:               4.1 elap:               2.2
 (Enter /home/sekinelabo/g16/l9999.exe)
 1\1\GINC-SEKINELABO-XA7R-R37\Force\UB3LYP\6-311+G(d)\Na7(2)\SEKINELABO
 \23-Nov-2023\0\\#P B3LYP/6-311+g(d) force\\DPGEN\\0,2\Na,12.6153,0.980
 714,1.13438\Na,10.9226,3.11522,99.6817\Na,8.83908,1.96484,1.91041\Na,5
 .98707,0.083,3.78002\Na,3.57406,1.78,3.18102\Na,0.555346,4.32854,0.920
 438\Na,1.81555,5.89962,98.3597\\Version=ES64L-G16RevB.01\State=2-A\HF=
 -1136.0612112\S2=1.855685\S2-1=0.\S2A=1.103884\RMSD=8.443e-09\RMSF=2.4
 04e-03\Dipole=-0.4461244,0.0862746,-0.0315773\Quadrupole=4.1278743,-2.
 4011693,-1.726705,-4.7562619,24.5073397,-7.2070852\PG=C01 [X(Na7)]\\@


 FROM AN ANONYMOUS WRITER, ON PERSPECTIVE:

 MAN, DESPITE HIS ARTISTIC PRETENSIONS, HIS SOPHISTICATION AND MANY 
 ACCOMPLISHMENTS, OWES THE FACT OF HIS EXISTENCE TO A SIX-INCH LAYER OF 
 TOPSOIL AND THE FACT THAT IT RAINS.
 Job cpu time:       0 days  0 hours 11 minutes 54.5 seconds.
 Elapsed time:       0 days  0 hours 12 minutes 21.4 seconds.
 File lengths (MBytes):  RWF=     46 Int=      0 D2E=      0 Chk=      4 Scr=      1
 Normal termination of Gaussian 16 at Thu Nov 23 12:42:42 2023.
