 Entering Gaussian System, Link 0=g16
 Initial command:
 /home/sekinelabo/g16/l1.exe "/home/sekinelabo/g16temp/Gau-217847.inp" -scrdir="/home/sekinelabo/g16temp/"
 Entering Link 1 = /home/sekinelabo/g16/l1.exe PID=    217849.
  
 Copyright (c) 1988-2017, Gaussian, Inc.  All Rights Reserved.
  
 This is part of the Gaussian(R) 16 program.  It is based on
 the Gaussian(R) 09 system (copyright 2009, Gaussian, Inc.),
 the Gaussian(R) 03 system (copyright 2003, Gaussian, Inc.),
 the Gaussian(R) 98 system (copyright 1998, Gaussian, Inc.),
 the Gaussian(R) 94 system (copyright 1995, Gaussian, Inc.),
 the Gaussian 92(TM) system (copyright 1992, Gaussian, Inc.),
 the Gaussian 90(TM) system (copyright 1990, Gaussian, Inc.),
 the Gaussian 88(TM) system (copyright 1988, Gaussian, Inc.),
 the Gaussian 86(TM) system (copyright 1986, Carnegie Mellon
 University), and the Gaussian 82(TM) system (copyright 1983,
 Carnegie Mellon University). Gaussian is a federally registered
 trademark of Gaussian, Inc.
  
 This software contains proprietary and confidential information,
 including trade secrets, belonging to Gaussian, Inc.
  
 This software is provided under written license and may be
 used, copied, transmitted, or stored only in accord with that
 written license.
  
 The following legend is applicable only to US Government
 contracts under FAR:
  
                    RESTRICTED RIGHTS LEGEND
  
 Use, reproduction and disclosure by the US Government is
 subject to restrictions as set forth in subparagraphs (a)
 and (c) of the Commercial Computer Software - Restricted
 Rights clause in FAR 52.227-19.
  
 Gaussian, Inc.
 340 Quinnipiac St., Bldg. 40, Wallingford CT 06492
  
  
 ---------------------------------------------------------------
 Warning -- This program may not be used in any manner that
 competes with the business of Gaussian, Inc. or will provide
 assistance to any competitor of Gaussian, Inc.  The licensee
 of this program is prohibited from giving any competitor of
 Gaussian, Inc. access to this program.  By using this program,
 the user acknowledges that Gaussian, Inc. is engaged in the
 business of creating and licensing software in the field of
 computational chemistry and represents and warrants to the
 licensee that it is not a competitor of Gaussian, Inc. and that
 it will not use this program in any manner prohibited above.
 ---------------------------------------------------------------
  

 Cite this work as:
 Gaussian 16, Revision B.01,
 M. J. Frisch, G. W. Trucks, H. B. Schlegel, G. E. Scuseria, 
 M. A. Robb, J. R. Cheeseman, G. Scalmani, V. Barone, 
 G. A. Petersson, H. Nakatsuji, X. Li, M. Caricato, A. V. Marenich, 
 J. Bloino, B. G. Janesko, R. Gomperts, B. Mennucci, H. P. Hratchian, 
 J. V. Ortiz, A. F. Izmaylov, J. L. Sonnenberg, D. Williams-Young, 
 F. Ding, F. Lipparini, F. Egidi, J. Goings, B. Peng, A. Petrone, 
 T. Henderson, D. Ranasinghe, V. G. Zakrzewski, J. Gao, N. Rega, 
 G. Zheng, W. Liang, M. Hada, M. Ehara, K. Toyota, R. Fukuda, 
 J. Hasegawa, M. Ishida, T. Nakajima, Y. Honda, O. Kitao, H. Nakai, 
 T. Vreven, K. Throssell, J. A. Montgomery, Jr., J. E. Peralta, 
 F. Ogliaro, M. J. Bearpark, J. J. Heyd, E. N. Brothers, K. N. Kudin, 
 V. N. Staroverov, T. A. Keith, R. Kobayashi, J. Normand, 
 K. Raghavachari, A. P. Rendell, J. C. Burant, S. S. Iyengar, 
 J. Tomasi, M. Cossi, J. M. Millam, M. Klene, C. Adamo, R. Cammi, 
 J. W. Ochterski, R. L. Martin, K. Morokuma, O. Farkas, 
 J. B. Foresman, and D. J. Fox, Gaussian, Inc., Wallingford CT, 2016.
 
 ******************************************
 Gaussian 16:  ES64L-G16RevB.01 20-Dec-2017
                 5-Oct-2023 
 ******************************************
 %NProcShared=16
 Will use up to   16 processors via shared memory.
 %mem=12GB
 %Chk=checkpoint.chk
 -------------------------
 #p B3LYP/6-311+g(d) force
 -------------------------
 1/10=7,30=1,38=1/1,3;
 2/12=2,17=6,18=5,40=1/2;
 3/5=4,6=6,7=11,11=2,25=1,30=1,71=1,74=-5/1,2,3;
 4//1;
 5/5=2,38=5/2;
 6/7=2,8=2,9=2,10=2,28=1/1;
 7/29=1/1,2,3,16;
 1/10=7,30=1/3;
 99//99;
 Leave Link    1 at Thu Oct  5 15:58:30 2023, MaxMem=  1610612736 cpu:               0.5 elap:               0.3
 (Enter /home/sekinelabo/g16/l101.exe)


 Symbolic Z-matrix:
 Charge =  0 Multiplicity = 1
 Na                    0.        0.        0. 
 Na                   -3.43274   0.       -3.39441 
 Na                    0.        0.        4.29209 
 Na                    2.004    -3.36019   5.49897 
 
 ITRead=  0  0  0  0
 MicOpt= -1 -1 -1 -1
 NAtoms=      4 NQM=        4 NQMF=       0 NMMI=      0 NMMIF=      0
                NMic=       0 NMicF=      0.
                    Isotopes and Nuclear Properties:
 (Nuclear quadrupole moments (NQMom) in fm**2, nuclear magnetic moments (NMagM)
  in nuclear magnetons)

  Atom         1           2           3           4
 IAtWgt=          23          23          23          23
 AtmWgt=  22.9897697  22.9897697  22.9897697  22.9897697
 NucSpn=           3           3           3           3
 AtZEff=  -0.0000000  -0.0000000  -0.0000000  -0.0000000
 NQMom=   10.4000000  10.4000000  10.4000000  10.4000000
 NMagM=    2.2175200   2.2175200   2.2175200   2.2175200
 AtZNuc=  11.0000000  11.0000000  11.0000000  11.0000000
 Leave Link  101 at Thu Oct  5 15:58:31 2023, MaxMem=  1610612736 cpu:               2.1 elap:               1.1
 (Enter /home/sekinelabo/g16/l103.exe)

 GradGradGradGradGradGradGradGradGradGradGradGradGradGradGradGradGradGrad
 Berny optimization.
 Initialization pass.
 Trust Radius=3.00D-01 FncErr=1.00D-07 GrdErr=1.00D-07 EigMax=2.50D+02 EigMin=1.00D-04
 Number of steps in this run=      2 maximum allowed number of steps=      2.
 GradGradGradGradGradGradGradGradGradGradGradGradGradGradGradGradGradGrad

 Leave Link  103 at Thu Oct  5 15:58:31 2023, MaxMem=  1610612736 cpu:               0.6 elap:               0.4
 (Enter /home/sekinelabo/g16/l202.exe)
                          Input orientation:                          
 ---------------------------------------------------------------------
 Center     Atomic      Atomic             Coordinates (Angstroms)
 Number     Number       Type             X           Y           Z
 ---------------------------------------------------------------------
      1         11           0        0.000000    0.000000    0.000000
      2         11           0       -3.432743    0.000000   -3.394408
      3         11           0        0.000000    0.000000    4.292086
      4         11           0        2.003998   -3.360188    5.498969
 ---------------------------------------------------------------------
                    Distance matrix (angstroms):
                    1          2          3          4
     1  Na   0.000000
     2  Na   4.827601   0.000000
     3  Na   4.292086   8.418190   0.000000
     4  Na   6.748743  10.951766   4.094318   0.000000
 Stoichiometry    Na4
 Framework group  C1[X(Na4)]
 Deg. of freedom     6
 Full point group                 C1      NOp   1
 Largest Abelian subgroup         C1      NOp   1
 Largest concise Abelian subgroup C1      NOp   1
                         Standard orientation:                         
 ---------------------------------------------------------------------
 Center     Atomic      Atomic             Coordinates (Angstroms)
 Number     Number       Type             X           Y           Z
 ---------------------------------------------------------------------
      1         11           0        1.419249    0.106967    1.168277
      2         11           0        5.874134   -0.494894   -0.591694
      3         11           0       -2.253076    1.690038   -0.390544
      4         11           0       -5.040307   -1.302111   -0.186038
 ---------------------------------------------------------------------
 Rotational constants (GHZ):           3.2760287           0.3190401           0.3061291
 Leave Link  202 at Thu Oct  5 15:58:32 2023, MaxMem=  1610612736 cpu:               1.1 elap:               0.6
 (Enter /home/sekinelabo/g16/l301.exe)
 Standard basis: 6-311+G(d) (5D, 7F)
 Ernie: Thresh=  0.10000D-02 Tol=  0.10000D-05 Strict=F.
 There are   124 symmetry adapted cartesian basis functions of A   symmetry.
 There are   120 symmetry adapted basis functions of A   symmetry.
   120 basis functions,   200 primitive gaussians,   124 cartesian basis functions
    22 alpha electrons       22 beta electrons
       nuclear repulsion energy        66.7610627779 Hartrees.
 IExCor=  402 DFT=T Ex+Corr=B3LYP ExCW=0 ScaHFX=  0.200000
 ScaDFX=  0.800000  0.720000  1.000000  0.810000 ScalE2=  1.000000  1.000000
 IRadAn=      5 IRanWt=     -1 IRanGd=            0 ICorTp=0 IEmpDi=  4
 NAtoms=    4 NActive=    4 NUniq=    4 SFac= 1.00D+00 NAtFMM=   60 NAOKFM=F Big=F
 Integral buffers will be    131072 words long.
 Raffenetti 2 integral format.
 Two-electron integral symmetry is turned on.
 Leave Link  301 at Thu Oct  5 15:58:32 2023, MaxMem=  1610612736 cpu:               0.7 elap:               0.5
 (Enter /home/sekinelabo/g16/l302.exe)
 NPDir=0 NMtPBC=     1 NCelOv=     1 NCel=       1 NClECP=     1 NCelD=      1
         NCelK=      1 NCelE2=     1 NClLst=     1 CellRange=     0.0.
 One-electron integrals computed using PRISM.
 One-electron integral symmetry used in STVInt
 NBasis=   120 RedAO= T EigKep=  4.93D-04  NBF=   120
 NBsUse=   120 1.00D-06 EigRej= -1.00D+00 NBFU=   120
 Precomputing XC quadrature grid using
 IXCGrd= 4 IRadAn=           5 IRanWt=          -1 IRanGd=           0 AccXCQ= 0.00D+00.
 Generated NRdTot=       0 NPtTot=           0 NUsed=           0 NTot=          32
 NSgBfM=   112   112   112   112   112 MxSgAt=     4 MxSgA2=     4.
 Leave Link  302 at Thu Oct  5 15:58:45 2023, MaxMem=  1610612736 cpu:              19.7 elap:              12.4
 (Enter /home/sekinelabo/g16/l303.exe)
 DipDrv:  MaxL=1.
 Leave Link  303 at Thu Oct  5 15:58:47 2023, MaxMem=  1610612736 cpu:               2.9 elap:               1.7
 (Enter /home/sekinelabo/g16/l401.exe)
 ExpMin= 7.60D-03 ExpMax= 3.62D+04 ExpMxC= 1.21D+03 IAcc=3 IRadAn=         5 AccDes= 0.00D+00
 Harris functional with IExCor=  402 and IRadAn=       5 diagonalized for initial guess.
 HarFok:  IExCor=  402 AccDes= 0.00D+00 IRadAn=         5 IDoV= 1 UseB2=F ITyADJ=14
 ICtDFT=  3500011 ScaDFX=  1.000000  1.000000  1.000000  1.000000
 FoFCou: FMM=F IPFlag=           0 FMFlag=      100000 FMFlg1=           0
         NFxFlg=           0 DoJE=T BraDBF=F KetDBF=T FulRan=T
         wScrn=  0.000000 ICntrl=       500 IOpCl=  0 I1Cent=   200000004 NGrid=           0
         NMat0=    1 NMatS0=      1 NMatT0=    0 NMatD0=    1 NMtDS0=    0 NMtDT0=    0
 Petite list used in FoFCou.
 Harris En= -649.046927362135    
 JPrj=0 DoOrth=F DoCkMO=F.
 Leave Link  401 at Thu Oct  5 15:58:56 2023, MaxMem=  1610612736 cpu:              14.3 elap:               9.3
 (Enter /home/sekinelabo/g16/l502.exe)
 Keep R1 ints in memory in canonical form, NReq=41581754.
 FoFCou: FMM=F IPFlag=           0 FMFlag=           0 FMFlg1=           0
         NFxFlg=           0 DoJE=F BraDBF=F KetDBF=F FulRan=T
         wScrn=  0.000000 ICntrl=       600 IOpCl=  0 I1Cent=           0 NGrid=           0
         NMat0=    1 NMatS0=   7260 NMatT0=    0 NMatD0=    1 NMtDS0=    0 NMtDT0=    0
 Symmetry not used in FoFCou.
 Two-electron integral symmetry not used.
 Closed shell SCF:
 Using DIIS extrapolation, IDIIS=  1040.
 NGot=  1610612736 LenX=  1584221388 LenY=  1584205571
 Requested convergence on RMS density matrix=1.00D-08 within 128 cycles.
 Requested convergence on MAX density matrix=1.00D-06.
 Requested convergence on             energy=1.00D-06.
 No special actions if energy rises.

 Cycle   1  Pass 1  IDiag  1:
 E= -649.160187243728    
 DIIS: error= 1.25D-02 at cycle   1 NSaved=   1.
 NSaved= 1 IEnMin= 1 EnMin= -649.160187243728     IErMin= 1 ErrMin= 1.25D-02
 ErrMax= 1.25D-02  0.00D+00 EMaxC= 1.00D-01 BMatC= 2.69D-02 BMatP= 2.69D-02
 IDIUse=3 WtCom= 8.75D-01 WtEn= 1.25D-01
 Coeff-Com:  0.100D+01
 Coeff-En:   0.100D+01
 Coeff:      0.100D+01
 Gap=     0.030 Goal=   None    Shift=    0.000
 GapD=    0.030 DampG=0.250 DampE=0.500 DampFc=0.2500 IDamp=-1.
 Damping current iteration by 2.50D-01
 RMSDP=2.43D-03 MaxDP=1.01D-01              OVMax= 1.26D-01

 Cycle   2  Pass 1  IDiag  1:
 E= -649.164215541581     Delta-E=       -0.004028297853 Rises=F Damp=T
 DIIS: error= 8.67D-03 at cycle   2 NSaved=   2.
 NSaved= 2 IEnMin= 2 EnMin= -649.164215541581     IErMin= 2 ErrMin= 8.67D-03
 ErrMax= 8.67D-03  0.00D+00 EMaxC= 1.00D-01 BMatC= 1.03D-02 BMatP= 2.69D-02
 IDIUse=3 WtCom= 9.13D-01 WtEn= 8.67D-02
 Coeff-Com: -0.126D+01 0.226D+01
 Coeff-En:   0.000D+00 0.100D+01
 Coeff:     -0.115D+01 0.215D+01
 Gap=     0.027 Goal=   None    Shift=    0.000
 RMSDP=2.04D-03 MaxDP=1.13D-01 DE=-4.03D-03 OVMax= 2.31D-01

 Cycle   3  Pass 1  IDiag  1:
 E= -649.164327081368     Delta-E=       -0.000111539787 Rises=F Damp=F
 DIIS: error= 4.66D-03 at cycle   3 NSaved=   3.
 NSaved= 3 IEnMin= 3 EnMin= -649.164327081368     IErMin= 3 ErrMin= 4.66D-03
 ErrMax= 4.66D-03  0.00D+00 EMaxC= 1.00D-01 BMatC= 1.05D-03 BMatP= 1.03D-02
 IDIUse=3 WtCom= 9.53D-01 WtEn= 4.66D-02
 Coeff-Com: -0.389D+00 0.694D+00 0.695D+00
 Coeff-En:   0.000D+00 0.493D+00 0.507D+00
 Coeff:     -0.371D+00 0.685D+00 0.686D+00
 Gap=     0.029 Goal=   None    Shift=    0.000
 RMSDP=3.91D-03 MaxDP=2.62D-01 DE=-1.12D-04 OVMax= 3.49D-01

 Cycle   4  Pass 1  IDiag  1:
 E= -649.147064367920     Delta-E=        0.017262713448 Rises=F Damp=F
 DIIS: error= 6.16D-03 at cycle   4 NSaved=   4.
 NSaved= 4 IEnMin= 3 EnMin= -649.164327081368     IErMin= 3 ErrMin= 4.66D-03
 ErrMax= 6.16D-03  0.00D+00 EMaxC= 1.00D-01 BMatC= 2.90D-03 BMatP= 1.05D-03
 IDIUse=3 WtCom= 1.13D-01 WtEn= 8.87D-01
 Coeff-Com:  0.278D-02 0.112D-01 0.621D+00 0.365D+00
 Coeff-En:   0.000D+00 0.000D+00 0.677D+00 0.323D+00
 Coeff:      0.315D-03 0.126D-02 0.671D+00 0.327D+00
 Gap=     0.035 Goal=   None    Shift=    0.000
 RMSDP=2.24D-03 MaxDP=1.64D-01 DE= 1.73D-02 OVMax= 2.34D-01

 Cycle   5  Pass 1  IDiag  1:
 E= -649.171838010047     Delta-E=       -0.024773642127 Rises=F Damp=F
 DIIS: error= 1.93D-03 at cycle   5 NSaved=   5.
 NSaved= 5 IEnMin= 5 EnMin= -649.171838010047     IErMin= 5 ErrMin= 1.93D-03
 ErrMax= 1.93D-03  0.00D+00 EMaxC= 1.00D-01 BMatC= 1.40D-04 BMatP= 1.05D-03
 IDIUse=3 WtCom= 9.81D-01 WtEn= 1.93D-02
 Coeff-Com:  0.633D-03-0.170D-02 0.327D+00 0.787D-01 0.596D+00
 Coeff-En:   0.000D+00 0.000D+00 0.165D+00 0.000D+00 0.835D+00
 Coeff:      0.621D-03-0.167D-02 0.324D+00 0.772D-01 0.600D+00
 Gap=     0.031 Goal=   None    Shift=    0.000
 RMSDP=5.21D-04 MaxDP=2.63D-02 DE=-2.48D-02 OVMax= 4.91D-02

 Cycle   6  Pass 1  IDiag  1:
 E= -649.172648677925     Delta-E=       -0.000810667878 Rises=F Damp=F
 DIIS: error= 5.66D-04 at cycle   6 NSaved=   6.
 NSaved= 6 IEnMin= 6 EnMin= -649.172648677925     IErMin= 6 ErrMin= 5.66D-04
 ErrMax= 5.66D-04  0.00D+00 EMaxC= 1.00D-01 BMatC= 2.27D-05 BMatP= 1.40D-04
 IDIUse=3 WtCom= 9.94D-01 WtEn= 5.66D-03
 Coeff-Com: -0.726D-02 0.859D-02 0.138D+00-0.922D-02 0.426D+00 0.445D+00
 Coeff-En:   0.000D+00 0.000D+00 0.000D+00 0.000D+00 0.317D-01 0.968D+00
 Coeff:     -0.722D-02 0.854D-02 0.137D+00-0.917D-02 0.423D+00 0.448D+00
 Gap=     0.031 Goal=   None    Shift=    0.000
 RMSDP=2.48D-04 MaxDP=1.53D-02 DE=-8.11D-04 OVMax= 2.26D-02

 Cycle   7  Pass 1  IDiag  1:
 E= -649.172814414719     Delta-E=       -0.000165736794 Rises=F Damp=F
 DIIS: error= 9.95D-05 at cycle   7 NSaved=   7.
 NSaved= 7 IEnMin= 7 EnMin= -649.172814414719     IErMin= 7 ErrMin= 9.95D-05
 ErrMax= 9.95D-05  0.00D+00 EMaxC= 1.00D-01 BMatC= 6.62D-07 BMatP= 2.27D-05
 IDIUse=1 WtCom= 1.00D+00 WtEn= 0.00D+00
 Coeff-Com: -0.282D-02 0.337D-02 0.305D-01-0.118D-01 0.115D+00 0.196D+00
 Coeff-Com:  0.669D+00
 Coeff:     -0.282D-02 0.337D-02 0.305D-01-0.118D-01 0.115D+00 0.196D+00
 Coeff:      0.669D+00
 Gap=     0.031 Goal=   None    Shift=    0.000
 RMSDP=5.19D-05 MaxDP=2.60D-03 DE=-1.66D-04 OVMax= 5.59D-03

 Cycle   8  Pass 1  IDiag  1:
 E= -649.172816304099     Delta-E=       -0.000001889381 Rises=F Damp=F
 DIIS: error= 8.99D-05 at cycle   8 NSaved=   8.
 NSaved= 8 IEnMin= 8 EnMin= -649.172816304099     IErMin= 8 ErrMin= 8.99D-05
 ErrMax= 8.99D-05  0.00D+00 EMaxC= 1.00D-01 BMatC= 3.04D-07 BMatP= 6.62D-07
 IDIUse=1 WtCom= 1.00D+00 WtEn= 0.00D+00
 Coeff-Com: -0.751D-03 0.870D-03 0.156D-01-0.689D-02 0.436D-01 0.611D-01
 Coeff-Com:  0.352D+00 0.534D+00
 Coeff:     -0.751D-03 0.870D-03 0.156D-01-0.689D-02 0.436D-01 0.611D-01
 Coeff:      0.352D+00 0.534D+00
 Gap=     0.031 Goal=   None    Shift=    0.000
 RMSDP=2.02D-05 MaxDP=1.17D-03 DE=-1.89D-06 OVMax= 2.38D-03

 Cycle   9  Pass 1  IDiag  1:
 E= -649.172819100609     Delta-E=       -0.000002796509 Rises=F Damp=F
 DIIS: error= 1.95D-05 at cycle   9 NSaved=   9.
 NSaved= 9 IEnMin= 9 EnMin= -649.172819100609     IErMin= 9 ErrMin= 1.95D-05
 ErrMax= 1.95D-05  0.00D+00 EMaxC= 1.00D-01 BMatC= 2.60D-08 BMatP= 3.04D-07
 IDIUse=1 WtCom= 1.00D+00 WtEn= 0.00D+00
 Coeff-Com:  0.260D-03-0.359D-03 0.347D-02-0.155D-02 0.274D-02-0.492D-02
 Coeff-Com:  0.340D-01 0.484D-01 0.918D+00
 Coeff:      0.260D-03-0.359D-03 0.347D-02-0.155D-02 0.274D-02-0.492D-02
 Coeff:      0.340D-01 0.484D-01 0.918D+00
 Gap=     0.031 Goal=   None    Shift=    0.000
 RMSDP=6.27D-06 MaxDP=4.09D-04 DE=-2.80D-06 OVMax= 6.93D-04

 Cycle  10  Pass 1  IDiag  1:
 E= -649.172819315074     Delta-E=       -0.000000214466 Rises=F Damp=F
 DIIS: error= 2.85D-06 at cycle  10 NSaved=  10.
 NSaved=10 IEnMin=10 EnMin= -649.172819315074     IErMin=10 ErrMin= 2.85D-06
 ErrMax= 2.85D-06  0.00D+00 EMaxC= 1.00D-01 BMatC= 8.96D-10 BMatP= 2.60D-08
 IDIUse=1 WtCom= 1.00D+00 WtEn= 0.00D+00
 Coeff-Com:  0.151D-03-0.201D-03 0.184D-03-0.875D-04-0.171D-02-0.749D-02
 Coeff-Com: -0.233D-01-0.213D-01 0.214D+00 0.840D+00
 Coeff:      0.151D-03-0.201D-03 0.184D-03-0.875D-04-0.171D-02-0.749D-02
 Coeff:     -0.233D-01-0.213D-01 0.214D+00 0.840D+00
 Gap=     0.031 Goal=   None    Shift=    0.000
 RMSDP=1.40D-06 MaxDP=7.45D-05 DE=-2.14D-07 OVMax= 1.09D-04

 Cycle  11  Pass 1  IDiag  1:
 E= -649.172819320848     Delta-E=       -0.000000005773 Rises=F Damp=F
 DIIS: error= 1.96D-07 at cycle  11 NSaved=  11.
 NSaved=11 IEnMin=11 EnMin= -649.172819320848     IErMin=11 ErrMin= 1.96D-07
 ErrMax= 1.96D-07  0.00D+00 EMaxC= 1.00D-01 BMatC= 5.26D-12 BMatP= 8.96D-10
 IDIUse=1 WtCom= 1.00D+00 WtEn= 0.00D+00
 Coeff-Com: -0.367D-05 0.498D-05-0.120D-03 0.297D-04-0.252D-03-0.447D-03
 Coeff-Com: -0.316D-02-0.236D-02-0.188D-01 0.631D-01 0.962D+00
 Coeff:     -0.367D-05 0.498D-05-0.120D-03 0.297D-04-0.252D-03-0.447D-03
 Coeff:     -0.316D-02-0.236D-02-0.188D-01 0.631D-01 0.962D+00
 Gap=     0.031 Goal=   None    Shift=    0.000
 RMSDP=2.08D-07 MaxDP=8.60D-06 DE=-5.77D-09 OVMax= 1.40D-05

 Cycle  12  Pass 1  IDiag  1:
 E= -649.172819320869     Delta-E=       -0.000000000021 Rises=F Damp=F
 DIIS: error= 1.71D-07 at cycle  12 NSaved=  12.
 NSaved=12 IEnMin=12 EnMin= -649.172819320869     IErMin=12 ErrMin= 1.71D-07
 ErrMax= 1.71D-07  0.00D+00 EMaxC= 1.00D-01 BMatC= 2.47D-12 BMatP= 5.26D-12
 IDIUse=1 WtCom= 1.00D+00 WtEn= 0.00D+00
 Coeff-Com: -0.650D-05 0.853D-05-0.304D-04 0.866D-05 0.584D-04 0.329D-03
 Coeff-Com:  0.974D-03 0.270D-05-0.270D-02-0.302D-01 0.447D-02 0.103D+01
 Coeff:     -0.650D-05 0.853D-05-0.304D-04 0.866D-05 0.584D-04 0.329D-03
 Coeff:      0.974D-03 0.270D-05-0.270D-02-0.302D-01 0.447D-02 0.103D+01
 Gap=     0.031 Goal=   None    Shift=    0.000
 RMSDP=7.79D-08 MaxDP=4.09D-06 DE=-2.11D-11 OVMax= 7.64D-06

 Cycle  13  Pass 1  IDiag  1:
 E= -649.172819320886     Delta-E=       -0.000000000018 Rises=F Damp=F
 DIIS: error= 2.17D-08 at cycle  13 NSaved=  13.
 NSaved=13 IEnMin=13 EnMin= -649.172819320886     IErMin=13 ErrMin= 2.17D-08
 ErrMax= 2.17D-08  0.00D+00 EMaxC= 1.00D-01 BMatC= 5.79D-14 BMatP= 2.47D-12
 IDIUse=1 WtCom= 1.00D+00 WtEn= 0.00D+00
 Coeff-Com: -0.181D-05 0.241D-05-0.125D-04 0.414D-05 0.216D-04 0.919D-04
 Coeff-Com:  0.244D-03-0.346D-04-0.101D-02-0.906D-02-0.298D-01 0.334D+00
 Coeff-Com:  0.706D+00
 Coeff:     -0.181D-05 0.241D-05-0.125D-04 0.414D-05 0.216D-04 0.919D-04
 Coeff:      0.244D-03-0.346D-04-0.101D-02-0.906D-02-0.298D-01 0.334D+00
 Coeff:      0.706D+00
 Gap=     0.031 Goal=   None    Shift=    0.000
 RMSDP=1.29D-08 MaxDP=6.38D-07 DE=-1.75D-11 OVMax= 9.87D-07

 Cycle  14  Pass 1  IDiag  1:
 E= -649.172819320883     Delta-E=        0.000000000004 Rises=F Damp=F
 DIIS: error= 1.87D-08 at cycle  14 NSaved=  14.
 NSaved=14 IEnMin=13 EnMin= -649.172819320886     IErMin=14 ErrMin= 1.87D-08
 ErrMax= 1.87D-08  0.00D+00 EMaxC= 1.00D-01 BMatC= 2.22D-14 BMatP= 5.79D-14
 IDIUse=1 WtCom= 1.00D+00 WtEn= 0.00D+00
 Coeff-Com:  0.374D-07-0.261D-07-0.490D-06 0.210D-06 0.372D-05 0.184D-05
 Coeff-Com: -0.578D-04 0.611D-05-0.455D-04 0.132D-02-0.926D-02-0.457D-01
 Coeff-Com:  0.144D+00 0.910D+00
 Coeff:      0.374D-07-0.261D-07-0.490D-06 0.210D-06 0.372D-05 0.184D-05
 Coeff:     -0.578D-04 0.611D-05-0.455D-04 0.132D-02-0.926D-02-0.457D-01
 Coeff:      0.144D+00 0.910D+00
 Gap=     0.031 Goal=   None    Shift=    0.000
 RMSDP=7.78D-09 MaxDP=3.97D-07 DE= 3.87D-12 OVMax= 7.80D-07

 SCF Done:  E(RB3LYP) =  -649.172819321     A.U. after   14 cycles
            NFock= 14  Conv=0.78D-08     -V/T= 2.0031
 KE= 6.471933397658D+02 PE=-1.692295584014D+03 EE= 3.291683621490D+02
 Leave Link  502 at Thu Oct  5 16:00:31 2023, MaxMem=  1610612736 cpu:             152.8 elap:              95.4
 (Enter /home/sekinelabo/g16/l601.exe)
 Copying SCF densities to generalized density rwf, IOpCl= 0 IROHF=0.

 **********************************************************************

            Population analysis using the SCF Density.

 **********************************************************************

 Orbital symmetries:
       Occupied  (A) (A) (A) (A) (A) (A) (A) (A) (A) (A) (A) (A)
                 (A) (A) (A) (A) (A) (A) (A) (A) (A) (A)
       Virtual   (A) (A) (A) (A) (A) (A) (A) (A) (A) (A) (A) (A)
                 (A) (A) (A) (A) (A) (A) (A) (A) (A) (A) (A) (A)
                 (A) (A) (A) (A) (A) (A) (A) (A) (A) (A) (A) (A)
                 (A) (A) (A) (A) (A) (A) (A) (A) (A) (A) (A) (A)
                 (A) (A) (A) (A) (A) (A) (A) (A) (A) (A) (A) (A)
                 (A) (A) (A) (A) (A) (A) (A) (A) (A) (A) (A) (A)
                 (A) (A) (A) (A) (A) (A) (A) (A) (A) (A) (A) (A)
                 (A) (A) (A) (A) (A) (A) (A) (A) (A) (A) (A) (A)
                 (A) (A)
 The electronic state is 1-A.
 Alpha  occ. eigenvalues --  -38.45892 -38.45752 -38.45694 -38.45543  -2.21582
 Alpha  occ. eigenvalues --   -2.21429  -2.21370  -2.21239  -1.15262  -1.15261
 Alpha  occ. eigenvalues --   -1.15205  -1.15107  -1.15107  -1.15063  -1.15061
 Alpha  occ. eigenvalues --   -1.15053  -1.14989  -1.14928  -1.14907  -1.14863
 Alpha  occ. eigenvalues --   -0.13250  -0.11364
 Alpha virt. eigenvalues --   -0.08293  -0.06197  -0.02707  -0.02630  -0.02334
 Alpha virt. eigenvalues --   -0.01604  -0.01440  -0.00995  -0.00493  -0.00231
 Alpha virt. eigenvalues --    0.00136   0.00606   0.00737   0.00798   0.01101
 Alpha virt. eigenvalues --    0.01253   0.01485   0.01646   0.01719   0.01820
 Alpha virt. eigenvalues --    0.02077   0.02119   0.02192   0.02258   0.02622
 Alpha virt. eigenvalues --    0.02905   0.03092   0.03155   0.03901   0.04060
 Alpha virt. eigenvalues --    0.06909   0.07487   0.07550   0.07775   0.08116
 Alpha virt. eigenvalues --    0.08198   0.08335   0.08635   0.08656   0.09109
 Alpha virt. eigenvalues --    0.09382   0.09941   0.10591   0.11771   0.12456
 Alpha virt. eigenvalues --    0.12693   0.30976   0.31092   0.31542   0.32306
 Alpha virt. eigenvalues --    0.33036   0.33973   0.34304   0.34633   0.34738
 Alpha virt. eigenvalues --    0.34752   0.34811   0.35065   0.35438   0.35914
 Alpha virt. eigenvalues --    0.36468   0.37727   0.38439   0.38889   0.40427
 Alpha virt. eigenvalues --    0.41141   0.42807   0.43119   0.43189   0.43454
 Alpha virt. eigenvalues --    0.43974   0.44506   0.45283   0.46243   0.46858
 Alpha virt. eigenvalues --    0.48139   0.49773   0.51105   1.98969   2.02244
 Alpha virt. eigenvalues --    2.03944   2.06615   4.42547   4.42678   4.42896
 Alpha virt. eigenvalues --    4.43087   4.43220   4.43356   4.43663   4.43951
 Alpha virt. eigenvalues --    4.44100   4.45090   4.46255   4.48476  96.17647
 Alpha virt. eigenvalues --   96.21506  96.23505  96.26543
          Condensed to atoms (all electrons):
               1          2          3          4
     1  Na  10.869511   0.195749   0.062102  -0.083217
     2  Na   0.195749  10.873497  -0.043559  -0.020596
     3  Na   0.062102  -0.043559  10.732109   0.244982
     4  Na  -0.083217  -0.020596   0.244982  10.813963
 Mulliken charges:
               1
     1  Na  -0.044145
     2  Na  -0.005090
     3  Na   0.004366
     4  Na   0.044869
 Sum of Mulliken charges =  -0.00000
 Mulliken charges with hydrogens summed into heavy atoms:
               1
     1  Na  -0.044145
     2  Na  -0.005090
     3  Na   0.004366
     4  Na   0.044869
 Electronic spatial extent (au):  <R**2>=           2978.2277
 Charge=             -0.0000 electrons
 Dipole moment (field-independent basis, Debye):
    X=             -1.0240    Y=             -0.2522    Z=             -0.1343  Tot=              1.0631
 Quadrupole moment (field-independent basis, Debye-Ang):
   XX=            -29.1318   YY=            -38.4209   ZZ=            -43.7289
   XY=              3.4966   XZ=             -2.8345   YZ=             -1.0793
 Traceless Quadrupole moment (field-independent basis, Debye-Ang):
   XX=              7.9621   YY=             -1.3271   ZZ=             -6.6350
   XY=              3.4966   XZ=             -2.8345   YZ=             -1.0793
 Octapole moment (field-independent basis, Debye-Ang**2):
  XXX=             13.4612  YYY=              6.5391  ZZZ=              2.0770  XYY=            -30.7991
  XXY=            -52.6124  XXZ=            -26.9520  XZZ=             -0.3611  YZZ=              0.5059
  YYZ=             -3.8581  XYZ=              3.4556
 Hexadecapole moment (field-independent basis, Debye-Ang**3):
 XXXX=          -3455.0938 YYYY=           -433.4539 ZZZZ=           -311.6090 XXXY=            188.0407
 XXXZ=           -170.9699 YYYX=             15.6554 YYYZ=            -10.6145 ZZZX=            -12.3012
 ZZZY=             -6.2403 XXYY=           -762.2565 XXZZ=           -829.5333 YYZZ=           -127.9082
 XXYZ=             13.8217 YYXZ=              2.5364 ZZXY=              4.0074
 N-N= 6.676106277789D+01 E-N=-1.692295582975D+03  KE= 6.471933397658D+02
 No NMR shielding tensors so no spin-rotation constants.
 Leave Link  601 at Thu Oct  5 16:00:37 2023, MaxMem=  1610612736 cpu:               8.9 elap:               5.6
 (Enter /home/sekinelabo/g16/l701.exe)
 ... and contract with generalized density number  0.
 Compute integral first derivatives.
 Leave Link  701 at Thu Oct  5 16:00:42 2023, MaxMem=  1610612736 cpu:               7.3 elap:               4.4
 (Enter /home/sekinelabo/g16/l702.exe)
 L702 exits ... SP integral derivatives will be done elsewhere.
 Leave Link  702 at Thu Oct  5 16:00:42 2023, MaxMem=  1610612736 cpu:               0.6 elap:               0.4
 (Enter /home/sekinelabo/g16/l703.exe)
 Integral derivatives from FoFJK, PRISM(SPDF).
 Compute integral first derivatives, UseDBF=F ICtDFT=           0.
 Calling FoFJK, ICntrl=      2127 FMM=F ISym2X=0 I1Cent= 0 IOpClX= 0 NMat=1 NMatS=1 NMatT=0.
 FoFJK:  IHMeth= 1 ICntrl=    2127 DoSepK=F KAlg= 0 I1Cent=           0 FoldK=F
 IRaf=         0 NMat=       1 IRICut=       1 DoRegI=T DoRafI=F ISym2E= 0 IDoP0=0 IntGTp=1.
 FoFCou: FMM=F IPFlag=           0 FMFlag=      100000 FMFlg1=         800
         NFxFlg=           0 DoJE=F BraDBF=F KetDBF=F FulRan=T
         wScrn=  0.000000 ICntrl=      2127 IOpCl=  0 I1Cent=           0 NGrid=           0
         NMat0=    1 NMatS0=      1 NMatT0=    0 NMatD0=    1 NMtDS0=    0 NMtDT0=    0
 Symmetry not used in FoFCou.
 Leave Link  703 at Thu Oct  5 16:00:49 2023, MaxMem=  1610612736 cpu:              12.2 elap:               7.4
 (Enter /home/sekinelabo/g16/l716.exe)
 Dipole        =-4.02871516D-01-9.92189571D-02-5.28319549D-02
 ***** Axes restored to original set *****
 -------------------------------------------------------------------
 Center     Atomic                   Forces (Hartrees/Bohr)
 Number     Number              X              Y              Z
 -------------------------------------------------------------------
      1       11          -0.004595065   -0.000168007   -0.001499938
      2       11           0.004632851    0.000057005    0.004558856
      3       11           0.003479444   -0.005883479   -0.000821440
      4       11          -0.003517230    0.005994480   -0.002237477
 -------------------------------------------------------------------
 Cartesian Forces:  Max     0.005994480 RMS     0.003723238
 Z-matrix is all fixed cartesians, so copy forces.
 Force constants in Cartesian coordinates: 
                1             2             3             4             5 
      1  0.100000D+01
      2  0.000000D+00  0.100000D+01
      3  0.000000D+00  0.000000D+00  0.100000D+01
      4  0.000000D+00  0.000000D+00  0.000000D+00  0.100000D+01
      5  0.000000D+00  0.000000D+00  0.000000D+00  0.000000D+00  0.100000D+01
      6  0.000000D+00  0.000000D+00  0.000000D+00  0.000000D+00  0.000000D+00
      7  0.000000D+00  0.000000D+00  0.000000D+00  0.000000D+00  0.000000D+00
      8  0.000000D+00  0.000000D+00  0.000000D+00  0.000000D+00  0.000000D+00
      9  0.000000D+00  0.000000D+00  0.000000D+00  0.000000D+00  0.000000D+00
     10  0.000000D+00  0.000000D+00  0.000000D+00  0.000000D+00  0.000000D+00
     11  0.000000D+00  0.000000D+00  0.000000D+00  0.000000D+00  0.000000D+00
     12  0.000000D+00  0.000000D+00  0.000000D+00  0.000000D+00  0.000000D+00
                6             7             8             9            10 
      6  0.100000D+01
      7  0.000000D+00  0.762349D+00
      8  0.000000D+00  0.282695D+00  0.114417D+00
      9  0.000000D+00 -0.315255D+00 -0.121659D+00  0.132727D+00
     10  0.000000D+00 -0.227997D-02  0.382292D-02 -0.137308D-02  0.762349D+00
     11  0.000000D+00  0.382292D-02 -0.641005D-02  0.230231D-02  0.282695D+00
     12  0.000000D+00 -0.137308D-02  0.230231D-02 -0.826922D-03 -0.315255D+00
               11            12 
     11  0.114417D+00
     12 -0.121659D+00  0.132727D+00
 Leave Link  716 at Thu Oct  5 16:00:50 2023, MaxMem=  1610612736 cpu:               0.8 elap:               0.5
 (Enter /home/sekinelabo/g16/l103.exe)

 GradGradGradGradGradGradGradGradGradGradGradGradGradGradGradGradGradGrad
 Berny optimization.
 Search for a local minimum.
 Step number   1 out of a maximum of    2
 All quantities printed in internal units (Hartrees-Bohrs-Radians)
 Second derivative matrix not updated -- first step.
 The second derivative matrix:
                          X1        Y1        Z1        X2        Y2
           X1           1.00000
           Y1           0.00000   1.00000
           Z1           0.00000  -0.00000   1.00000
           X2           0.00000   0.00000   0.00000   1.00000
           Y2           0.00000   0.00000   0.00000   0.00000   1.00000
           Z2           0.00000   0.00000   0.00000   0.00000  -0.00000
           X3           0.00000   0.00000   0.00000   0.00000   0.00000
           Y3           0.00000   0.00000   0.00000   0.00000   0.00000
           Z3           0.00000   0.00000   0.00000   0.00000   0.00000
           X4           0.00000   0.00000   0.00000   0.00000   0.00000
           Y4           0.00000   0.00000   0.00000   0.00000   0.00000
           Z4           0.00000   0.00000   0.00000   0.00000   0.00000
                          Z2        X3        Y3        Z3        X4
           Z2           1.00000
           X3           0.00000   0.76235
           Y3           0.00000   0.28270   0.11442
           Z3           0.00000  -0.31525  -0.12166   0.13273
           X4           0.00000  -0.00228   0.00382  -0.00137   0.76235
           Y4           0.00000   0.00382  -0.00641   0.00230   0.28270
           Z4           0.00000  -0.00137   0.00230  -0.00083  -0.31525
                          Y4        Z4
           Y4           0.11442
           Z4          -0.12166   0.13273
 ITU=  0
     Eigenvalues ---    0.02061   0.06890   0.50248   0.94551   1.00000
     Eigenvalues ---    1.00000
 Quadratic step=4.593D-01 exceeds max=3.000D-01 adjusted using Lamda=-1.098D-02.
 Angle between NR and scaled steps=   1.59 degrees.
 Angle between quadratic step and forces=  39.84 degrees.
 Linear search not attempted -- first point.
 B after Tr=    -0.000000    0.000000    0.000000
         Rot=    1.000000    0.000000    0.000000    0.000000 Ang=   0.00 deg.
 Variable       Old X    -DE/DX   Delta X   Delta X   Delta X     New X
                                 (Linear)    (Quad)   (Total)
    X1        0.00000  -0.00460   0.00000  -0.00191  -0.00191  -0.00191
    Y1        0.00000  -0.00017   0.00000  -0.00451  -0.00451  -0.00451
    Z1       -0.00000  -0.00150   0.00000  -0.00204  -0.00204  -0.00204
    X2       -6.48694   0.00463   0.00000   0.00370   0.00370  -6.48325
    Y2        0.00000   0.00006   0.00000   0.00510   0.00510   0.00510
    Z2       -6.41450   0.00456   0.00000   0.00751   0.00751  -6.40699
    X3        0.00000   0.00348   0.00000   0.09941   0.09941   0.09941
    Y3        0.00000  -0.00588   0.00000  -0.17901  -0.17901  -0.17901
    Z3        8.11087  -0.00082   0.00000   0.05270   0.05270   8.16357
    X4        3.78701  -0.00352   0.00000  -0.10119  -0.10119   3.68581
    Y4       -6.34984   0.00599   0.00000   0.17842   0.17842  -6.17142
    Z4       10.39155  -0.00224   0.00000  -0.05817  -0.05817  10.33338
         Item               Value     Threshold  Converged?
 Maximum Force            0.005994     0.000450     NO 
 RMS     Force            0.003723     0.000300     NO 
 Maximum Displacement     0.179012     0.001800     NO 
 RMS     Displacement     0.086740     0.001200     NO 
 Predicted change in Energy=-1.983634D-03
 GradGradGradGradGradGradGradGradGradGradGradGradGradGradGradGradGradGrad

 Leave Link  103 at Thu Oct  5 16:00:53 2023, MaxMem=  1610612736 cpu:               4.1 elap:               2.5
 (Enter /home/sekinelabo/g16/l9999.exe)
 1\1\GINC-SEKINELABO-XA7R-R37\Force\RB3LYP\6-311+G(d)\Na4\SEKINELABO\05
 -Oct-2023\0\\#p B3LYP/6-311+g(d) force\\\0,1\Na,0.,0.,0.\Na,-3.4327432
 596,0.,-3.3944083194\Na,0.,0.,4.2920862161\Na,2.0039983004,-3.36018822
 41,5.4989689119\\Version=ES64L-G16RevB.01\State=1-A\HF=-649.1728193\RM
 SD=7.780e-09\RMSF=3.723e-03\Dipole=0.1547128,-0.2094894,0.3272907\Quad
 rupole=-0.2073976,-0.6056995,0.8130972,-3.8505972,4.8199028,-1.850353\
 PG=C01 [X(Na4)]\\@


 HE THAT RISETH LATE MUST TROT ALL DAY.

                  -- BENJAMIN FRANKLIN
 Job cpu time:       0 days  0 hours  3 minutes 49.7 seconds.
 Elapsed time:       0 days  0 hours  2 minutes 23.4 seconds.
 File lengths (MBytes):  RWF=     10 Int=      0 D2E=      0 Chk=      2 Scr=      1
 Normal termination of Gaussian 16 at Thu Oct  5 16:00:53 2023.
 Initial command:
 /home/sekinelabo/g16/l1.exe "/home/sekinelabo/g16temp/Gau-217847.inp" -scrdir="/home/sekinelabo/g16temp/"
 Entering Link 1 = /home/sekinelabo/g16/l1.exe PID=    220060.
  
 Copyright (c) 1988-2017, Gaussian, Inc.  All Rights Reserved.
  
 This is part of the Gaussian(R) 16 program.  It is based on
 the Gaussian(R) 09 system (copyright 2009, Gaussian, Inc.),
 the Gaussian(R) 03 system (copyright 2003, Gaussian, Inc.),
 the Gaussian(R) 98 system (copyright 1998, Gaussian, Inc.),
 the Gaussian(R) 94 system (copyright 1995, Gaussian, Inc.),
 the Gaussian 92(TM) system (copyright 1992, Gaussian, Inc.),
 the Gaussian 90(TM) system (copyright 1990, Gaussian, Inc.),
 the Gaussian 88(TM) system (copyright 1988, Gaussian, Inc.),
 the Gaussian 86(TM) system (copyright 1986, Carnegie Mellon
 University), and the Gaussian 82(TM) system (copyright 1983,
 Carnegie Mellon University). Gaussian is a federally registered
 trademark of Gaussian, Inc.
  
 This software contains proprietary and confidential information,
 including trade secrets, belonging to Gaussian, Inc.
  
 This software is provided under written license and may be
 used, copied, transmitted, or stored only in accord with that
 written license.
  
 The following legend is applicable only to US Government
 contracts under FAR:
  
                    RESTRICTED RIGHTS LEGEND
  
 Use, reproduction and disclosure by the US Government is
 subject to restrictions as set forth in subparagraphs (a)
 and (c) of the Commercial Computer Software - Restricted
 Rights clause in FAR 52.227-19.
  
 Gaussian, Inc.
 340 Quinnipiac St., Bldg. 40, Wallingford CT 06492
  
  
 ---------------------------------------------------------------
 Warning -- This program may not be used in any manner that
 competes with the business of Gaussian, Inc. or will provide
 assistance to any competitor of Gaussian, Inc.  The licensee
 of this program is prohibited from giving any competitor of
 Gaussian, Inc. access to this program.  By using this program,
 the user acknowledges that Gaussian, Inc. is engaged in the
 business of creating and licensing software in the field of
 computational chemistry and represents and warrants to the
 licensee that it is not a competitor of Gaussian, Inc. and that
 it will not use this program in any manner prohibited above.
 ---------------------------------------------------------------
  

 Cite this work as:
 Gaussian 16, Revision B.01,
 M. J. Frisch, G. W. Trucks, H. B. Schlegel, G. E. Scuseria, 
 M. A. Robb, J. R. Cheeseman, G. Scalmani, V. Barone, 
 G. A. Petersson, H. Nakatsuji, X. Li, M. Caricato, A. V. Marenich, 
 J. Bloino, B. G. Janesko, R. Gomperts, B. Mennucci, H. P. Hratchian, 
 J. V. Ortiz, A. F. Izmaylov, J. L. Sonnenberg, D. Williams-Young, 
 F. Ding, F. Lipparini, F. Egidi, J. Goings, B. Peng, A. Petrone, 
 T. Henderson, D. Ranasinghe, V. G. Zakrzewski, J. Gao, N. Rega, 
 G. Zheng, W. Liang, M. Hada, M. Ehara, K. Toyota, R. Fukuda, 
 J. Hasegawa, M. Ishida, T. Nakajima, Y. Honda, O. Kitao, H. Nakai, 
 T. Vreven, K. Throssell, J. A. Montgomery, Jr., J. E. Peralta, 
 F. Ogliaro, M. J. Bearpark, J. J. Heyd, E. N. Brothers, K. N. Kudin, 
 V. N. Staroverov, T. A. Keith, R. Kobayashi, J. Normand, 
 K. Raghavachari, A. P. Rendell, J. C. Burant, S. S. Iyengar, 
 J. Tomasi, M. Cossi, J. M. Millam, M. Klene, C. Adamo, R. Cammi, 
 J. W. Ochterski, R. L. Martin, K. Morokuma, O. Farkas, 
 J. B. Foresman, and D. J. Fox, Gaussian, Inc., Wallingford CT, 2016.
 
 ******************************************
 Gaussian 16:  ES64L-G16RevB.01 20-Dec-2017
                 5-Oct-2023 
 ******************************************
 %NProcShared=16
 Will use up to   16 processors via shared memory.
 %mem=12GB
 %Chk=checkpoint.chk
 -------------------------
 #p B3LYP/6-311+g(d) force
 -------------------------
 1/10=7,30=1,38=1/1,3;
 2/12=2,17=6,18=5,40=1/2;
 3/5=4,6=6,7=11,11=2,25=1,30=1,71=1,74=-5/1,2,3;
 4//1;
 5/5=2,38=5/2;
 6/7=2,8=2,9=2,10=2,28=1/1;
 7/29=1/1,2,3,16;
 1/10=7,30=1/3;
 99//99;
 Leave Link    1 at Thu Oct  5 16:00:54 2023, MaxMem=  1610612736 cpu:               0.5 elap:               0.4
 (Enter /home/sekinelabo/g16/l101.exe)


 Symbolic Z-matrix:
 Charge =  0 Multiplicity = 1
 Na                    0.        0.        0. 
 Na                   -4.43448   0.       -2.38588 
 Na                    0.        0.        5.32564 
 Na                    0.90223  -2.20488   0.19397 
 
 ITRead=  0  0  0  0
 MicOpt= -1 -1 -1 -1
 NAtoms=      4 NQM=        4 NQMF=       0 NMMI=      0 NMMIF=      0
                NMic=       0 NMicF=      0.
                    Isotopes and Nuclear Properties:
 (Nuclear quadrupole moments (NQMom) in fm**2, nuclear magnetic moments (NMagM)
  in nuclear magnetons)

  Atom         1           2           3           4
 IAtWgt=          23          23          23          23
 AtmWgt=  22.9897697  22.9897697  22.9897697  22.9897697
 NucSpn=           3           3           3           3
 AtZEff=  -0.0000000  -0.0000000  -0.0000000  -0.0000000
 NQMom=   10.4000000  10.4000000  10.4000000  10.4000000
 NMagM=    2.2175200   2.2175200   2.2175200   2.2175200
 AtZNuc=  11.0000000  11.0000000  11.0000000  11.0000000
 Leave Link  101 at Thu Oct  5 16:00:55 2023, MaxMem=  1610612736 cpu:               2.0 elap:               1.4
 (Enter /home/sekinelabo/g16/l103.exe)

 GradGradGradGradGradGradGradGradGradGradGradGradGradGradGradGradGradGrad
 Berny optimization.
 Initialization pass.
 Trust Radius=3.00D-01 FncErr=1.00D-07 GrdErr=1.00D-07 EigMax=2.50D+02 EigMin=1.00D-04
 Number of steps in this run=      2 maximum allowed number of steps=      2.
 GradGradGradGradGradGradGradGradGradGradGradGradGradGradGradGradGradGrad

 Leave Link  103 at Thu Oct  5 16:00:56 2023, MaxMem=  1610612736 cpu:               0.6 elap:               0.4
 (Enter /home/sekinelabo/g16/l202.exe)
                          Input orientation:                          
 ---------------------------------------------------------------------
 Center     Atomic      Atomic             Coordinates (Angstroms)
 Number     Number       Type             X           Y           Z
 ---------------------------------------------------------------------
      1         11           0        0.000000    0.000000    0.000000
      2         11           0       -4.434475    0.000000   -2.385880
      3         11           0        0.000000    0.000000    5.325640
      4         11           0        0.902229   -2.204883    0.193967
 ---------------------------------------------------------------------
                    Distance matrix (angstroms):
                    1          2          3          4
     1  Na   0.000000
     2  Na   5.035573   0.000000
     3  Na   5.325640   8.895623   0.000000
     4  Na   2.390219   6.324360   5.657702   0.000000
 Stoichiometry    Na4
 Framework group  C1[X(Na4)]
 Deg. of freedom     6
 Full point group                 C1      NOp   1
 Largest Abelian subgroup         C1      NOp   1
 Largest concise Abelian subgroup C1      NOp   1
                         Standard orientation:                         
 ---------------------------------------------------------------------
 Center     Atomic      Atomic             Coordinates (Angstroms)
 Number     Number       Type             X           Y           Z
 ---------------------------------------------------------------------
      1         11           0       -0.225203    0.775216    1.022610
      2         11           0       -4.565279   -1.432073   -0.261372
      3         11           0        4.324811   -1.728134   -0.157666
      4         11           0        0.465671    2.384991   -0.603572
 ---------------------------------------------------------------------
 Rotational constants (GHZ):           1.7134391           0.5320576           0.4298570
 Leave Link  202 at Thu Oct  5 16:00:56 2023, MaxMem=  1610612736 cpu:               1.0 elap:               0.7
 (Enter /home/sekinelabo/g16/l301.exe)
 Standard basis: 6-311+G(d) (5D, 7F)
 Ernie: Thresh=  0.10000D-02 Tol=  0.10000D-05 Strict=F.
 There are   124 symmetry adapted cartesian basis functions of A   symmetry.
 There are   120 symmetry adapted basis functions of A   symmetry.
   120 basis functions,   200 primitive gaussians,   124 cartesian basis functions
    22 alpha electrons       22 beta electrons
       nuclear repulsion energy        80.1669765272 Hartrees.
 IExCor=  402 DFT=T Ex+Corr=B3LYP ExCW=0 ScaHFX=  0.200000
 ScaDFX=  0.800000  0.720000  1.000000  0.810000 ScalE2=  1.000000  1.000000
 IRadAn=      5 IRanWt=     -1 IRanGd=            0 ICorTp=0 IEmpDi=  4
 NAtoms=    4 NActive=    4 NUniq=    4 SFac= 1.00D+00 NAtFMM=   60 NAOKFM=F Big=F
 Integral buffers will be    131072 words long.
 Raffenetti 2 integral format.
 Two-electron integral symmetry is turned on.
 Leave Link  301 at Thu Oct  5 16:00:57 2023, MaxMem=  1610612736 cpu:               0.7 elap:               0.4
 (Enter /home/sekinelabo/g16/l302.exe)
 NPDir=0 NMtPBC=     1 NCelOv=     1 NCel=       1 NClECP=     1 NCelD=      1
         NCelK=      1 NCelE2=     1 NClLst=     1 CellRange=     0.0.
 One-electron integrals computed using PRISM.
 One-electron integral symmetry used in STVInt
 NBasis=   120 RedAO= T EigKep=  2.13D-05  NBF=   120
 NBsUse=   120 1.00D-06 EigRej= -1.00D+00 NBFU=   120
 Precomputing XC quadrature grid using
 IXCGrd= 4 IRadAn=           5 IRanWt=          -1 IRanGd=           0 AccXCQ= 0.00D+00.
 Generated NRdTot=       0 NPtTot=           0 NUsed=           0 NTot=          32
 NSgBfM=   115   115   115   115   115 MxSgAt=     4 MxSgA2=     4.
 Leave Link  302 at Thu Oct  5 16:01:10 2023, MaxMem=  1610612736 cpu:              20.9 elap:              12.8
 (Enter /home/sekinelabo/g16/l303.exe)
 DipDrv:  MaxL=1.
 Leave Link  303 at Thu Oct  5 16:01:12 2023, MaxMem=  1610612736 cpu:               3.0 elap:               2.1
 (Enter /home/sekinelabo/g16/l401.exe)
 ExpMin= 7.60D-03 ExpMax= 3.62D+04 ExpMxC= 1.21D+03 IAcc=3 IRadAn=         5 AccDes= 0.00D+00
 Harris functional with IExCor=  402 and IRadAn=       5 diagonalized for initial guess.
 HarFok:  IExCor=  402 AccDes= 0.00D+00 IRadAn=         5 IDoV= 1 UseB2=F ITyADJ=14
 ICtDFT=  3500011 ScaDFX=  1.000000  1.000000  1.000000  1.000000
 FoFCou: FMM=F IPFlag=           0 FMFlag=      100000 FMFlg1=           0
         NFxFlg=           0 DoJE=T BraDBF=F KetDBF=T FulRan=T
         wScrn=  0.000000 ICntrl=       500 IOpCl=  0 I1Cent=   200000004 NGrid=           0
         NMat0=    1 NMatS0=      1 NMatT0=    0 NMatD0=    1 NMtDS0=    0 NMtDT0=    0
 Petite list used in FoFCou.
 Harris En= -649.025144840084    
 JPrj=0 DoOrth=F DoCkMO=F.
 Leave Link  401 at Thu Oct  5 16:01:21 2023, MaxMem=  1610612736 cpu:              14.8 elap:               9.2
 (Enter /home/sekinelabo/g16/l502.exe)
 Keep R1 ints in memory in canonical form, NReq=41581754.
 FoFCou: FMM=F IPFlag=           0 FMFlag=           0 FMFlg1=           0
         NFxFlg=           0 DoJE=F BraDBF=F KetDBF=F FulRan=T
         wScrn=  0.000000 ICntrl=       600 IOpCl=  0 I1Cent=           0 NGrid=           0
         NMat0=    1 NMatS0=   7260 NMatT0=    0 NMatD0=    1 NMtDS0=    0 NMtDT0=    0
 Symmetry not used in FoFCou.
 Two-electron integral symmetry not used.
 Closed shell SCF:
 Using DIIS extrapolation, IDIIS=  1040.
 NGot=  1610612736 LenX=  1584221388 LenY=  1584205571
 Requested convergence on RMS density matrix=1.00D-08 within 128 cycles.
 Requested convergence on MAX density matrix=1.00D-06.
 Requested convergence on             energy=1.00D-06.
 No special actions if energy rises.

 Cycle   1  Pass 1  IDiag  1:
 E= -649.128505809493    
 DIIS: error= 1.60D-02 at cycle   1 NSaved=   1.
 NSaved= 1 IEnMin= 1 EnMin= -649.128505809493     IErMin= 1 ErrMin= 1.60D-02
 ErrMax= 1.60D-02  0.00D+00 EMaxC= 1.00D-01 BMatC= 2.78D-02 BMatP= 2.78D-02
 IDIUse=3 WtCom= 8.40D-01 WtEn= 1.60D-01
 Coeff-Com:  0.100D+01
 Coeff-En:   0.100D+01
 Coeff:      0.100D+01
 Gap=    -0.000 Goal=   None    Shift=    0.000
 GapD=   -0.000 DampG=0.250 DampE=0.500 DampFc=0.2500 IDamp=-1.
 Damping current iteration by 2.50D-01
 RMSDP=1.06D-02 MaxDP=4.47D-01              OVMax= 6.67D-01

 Cycle   2  Pass 1  IDiag  1:
 E= -649.135531405895     Delta-E=       -0.007025596402 Rises=F Damp=T
 DIIS: error= 1.09D-02 at cycle   2 NSaved=   2.
 NSaved= 2 IEnMin= 2 EnMin= -649.135531405895     IErMin= 2 ErrMin= 1.09D-02
 ErrMax= 1.09D-02  0.00D+00 EMaxC= 1.00D-01 BMatC= 1.03D-02 BMatP= 2.78D-02
 IDIUse=3 WtCom= 8.91D-01 WtEn= 1.09D-01
 Coeff-Com: -0.877D+00 0.188D+01
 Coeff-En:   0.219D+00 0.781D+00
 Coeff:     -0.757D+00 0.176D+01
 Gap=    -0.037 Goal=   None    Shift=    0.000
 RMSDP=7.91D-03 MaxDP=3.84D-01 DE=-7.03D-03 OVMax= 8.31D-01

 Cycle   3  Pass 1  IDiag  1:
 E= -649.012132522326     Delta-E=        0.123398883569 Rises=F Damp=F
 DIIS: error= 1.02D-02 at cycle   3 NSaved=   3.
 NSaved= 3 IEnMin= 2 EnMin= -649.135531405895     IErMin= 3 ErrMin= 1.02D-02
 ErrMax= 1.02D-02  0.00D+00 EMaxC= 1.00D-01 BMatC= 9.58D-03 BMatP= 1.03D-02
 IDIUse=3 WtCom= 8.98D-01 WtEn= 1.02D-01
 Rare condition: small coef for last iteration:  0.000D+00
 Coeff-Com: -0.583D+00 0.118D+01 0.400D+00
 Coeff-En:   0.134D+00 0.835D+00 0.310D-01
 Coeff:     -0.583D+00 0.118D+01 0.400D+00
 Gap=    -0.009 Goal=   None    Shift=    0.000
 RMSDP=1.07D-02 MaxDP=6.25D-01 DE= 1.23D-01 OVMax= 9.55D-01

 Cycle   4  Pass 1  IDiag  1:
 E= -649.023246092776     Delta-E=       -0.011113570451 Rises=F Damp=F
 DIIS: error= 8.96D-03 at cycle   4 NSaved=   4.
 NSaved= 4 IEnMin= 2 EnMin= -649.135531405895     IErMin= 4 ErrMin= 8.96D-03
 ErrMax= 8.96D-03  0.00D+00 EMaxC= 1.00D-01 BMatC= 7.29D-03 BMatP= 9.58D-03
 IDIUse=3 WtCom= 9.10D-01 WtEn= 8.96D-02
 EnCoef did   100 forward-backward iterations
 Rare condition: small coef for last iteration:  0.000D+00
 Coeff-Com: -0.151D+00 0.416D+00 0.385D+00 0.351D+00
 Coeff-En:   0.314D+00 0.000D+00 0.335D+00 0.351D+00
 Coeff:     -0.151D+00 0.416D+00 0.385D+00 0.351D+00
 Gap=    -0.001 Goal=   None    Shift=    0.000
 RMSDP=8.93D-03 MaxDP=4.73D-01 DE=-1.11D-02 OVMax= 8.12D-01

 Cycle   5  Pass 1  IDiag  1:
 E= -649.119714357870     Delta-E=       -0.096468265094 Rises=F Damp=F
 DIIS: error= 8.63D-03 at cycle   5 NSaved=   5.
 NSaved= 5 IEnMin= 2 EnMin= -649.135531405895     IErMin= 5 ErrMin= 8.63D-03
 ErrMax= 8.63D-03  0.00D+00 EMaxC= 1.00D-01 BMatC= 2.98D-03 BMatP= 7.29D-03
 IDIUse=3 WtCom= 9.14D-01 WtEn= 8.63D-02
 Coeff-Com: -0.431D+00 0.719D+00-0.301D-01 0.102D+00 0.640D+00
 Coeff-En:   0.000D+00 0.000D+00 0.000D+00 0.300D+00 0.700D+00
 Coeff:     -0.394D+00 0.657D+00-0.275D-01 0.119D+00 0.645D+00
 Gap=     0.009 Goal=   None    Shift=    0.000
 RMSDP=4.38D-03 MaxDP=1.90D-01 DE=-9.65D-02 OVMax= 4.03D-01

 Cycle   6  Pass 1  IDiag  1:
 E= -649.140245349698     Delta-E=       -0.020530991829 Rises=F Damp=F
 DIIS: error= 5.50D-03 at cycle   6 NSaved=   6.
 NSaved= 6 IEnMin= 6 EnMin= -649.140245349698     IErMin= 6 ErrMin= 5.50D-03
 ErrMax= 5.50D-03  0.00D+00 EMaxC= 1.00D-01 BMatC= 1.06D-03 BMatP= 2.98D-03
 IDIUse=3 WtCom= 9.45D-01 WtEn= 5.50D-02
 Coeff-Com: -0.137D+00 0.188D+00-0.907D-01-0.810D-01 0.488D+00 0.633D+00
 Coeff-En:   0.000D+00 0.000D+00 0.000D+00 0.000D+00 0.334D+00 0.666D+00
 Coeff:     -0.130D+00 0.177D+00-0.857D-01-0.766D-01 0.480D+00 0.635D+00
 Gap=     0.017 Goal=   None    Shift=    0.000
 RMSDP=9.56D-04 MaxDP=5.59D-02 DE=-2.05D-02 OVMax= 9.73D-02

 Cycle   7  Pass 1  IDiag  1:
 E= -649.147791311663     Delta-E=       -0.007545961964 Rises=F Damp=F
 DIIS: error= 1.82D-03 at cycle   7 NSaved=   7.
 NSaved= 7 IEnMin= 7 EnMin= -649.147791311663     IErMin= 7 ErrMin= 1.82D-03
 ErrMax= 1.82D-03  0.00D+00 EMaxC= 1.00D-01 BMatC= 1.27D-04 BMatP= 1.06D-03
 IDIUse=3 WtCom= 9.82D-01 WtEn= 1.82D-02
 Coeff-Com: -0.180D-01 0.239D-01-0.316D-01-0.396D-01 0.208D+00 0.724D-01
 Coeff-Com:  0.785D+00
 Coeff-En:   0.000D+00 0.000D+00 0.000D+00 0.000D+00 0.108D+00 0.000D+00
 Coeff-En:   0.892D+00
 Coeff:     -0.176D-01 0.235D-01-0.311D-01-0.389D-01 0.207D+00 0.711D-01
 Coeff:      0.786D+00
 Gap=     0.017 Goal=   None    Shift=    0.000
 RMSDP=3.71D-04 MaxDP=1.61D-02 DE=-7.55D-03 OVMax= 3.57D-02

 Cycle   8  Pass 1  IDiag  1:
 E= -649.146000103179     Delta-E=        0.001791208484 Rises=F Damp=F
 DIIS: error= 3.11D-03 at cycle   8 NSaved=   8.
 NSaved= 8 IEnMin= 7 EnMin= -649.147791311663     IErMin= 7 ErrMin= 1.82D-03
 ErrMax= 3.11D-03  0.00D+00 EMaxC= 1.00D-01 BMatC= 3.52D-04 BMatP= 1.27D-04
 IDIUse=3 WtCom= 9.82D-01 WtEn= 1.82D-02
 Rare condition: small coef for last iteration:  0.000D+00
 Coeff-Com:  0.672D-02-0.998D-02-0.236D-01-0.343D-01 0.191D+00-0.982D-01
 Coeff-Com:  0.495D+00 0.473D+00
 Coeff-En:   0.000D+00 0.000D+00 0.000D+00 0.000D+00 0.203D+00 0.000D+00
 Coeff-En:   0.000D+00 0.797D+00
 Coeff:      0.672D-02-0.998D-02-0.236D-01-0.343D-01 0.191D+00-0.982D-01
 Coeff:      0.495D+00 0.473D+00
 Gap=     0.018 Goal=   None    Shift=    0.000
 RMSDP=1.27D-04 MaxDP=6.87D-03 DE= 1.79D-03 OVMax= 1.44D-02

 Cycle   9  Pass 1  IDiag  1:
 E= -649.144961999952     Delta-E=        0.001038103227 Rises=F Damp=F
 DIIS: error= 3.65D-03 at cycle   9 NSaved=   9.
 NSaved= 9 IEnMin= 7 EnMin= -649.147791311663     IErMin= 7 ErrMin= 1.82D-03
 ErrMax= 3.65D-03  0.00D+00 EMaxC= 1.00D-01 BMatC= 4.81D-04 BMatP= 1.27D-04
 IDIUse=3 WtCom= 9.82D-01 WtEn= 1.82D-02
 EnCoef did   100 forward-backward iterations
 Rare condition: small coef for last iteration:  0.000D+00
 Coeff-Com:  0.157D-02-0.287D-02-0.189D-01-0.269D-01 0.154D+00-0.226D-01
 Coeff-Com:  0.615D+00 0.120D+01-0.902D+00
 Coeff-En:   0.000D+00 0.000D+00 0.000D+00 0.000D+00 0.237D+00 0.000D+00
 Coeff-En:   0.000D+00 0.000D+00 0.763D+00
 Coeff:      0.157D-02-0.287D-02-0.189D-01-0.269D-01 0.154D+00-0.226D-01
 Coeff:      0.615D+00 0.120D+01-0.902D+00
 Gap=     0.018 Goal=   None    Shift=    0.000
 RMSDP=1.36D-04 MaxDP=7.47D-03 DE= 1.04D-03 OVMax= 1.54D-02

 Cycle  10  Pass 1  IDiag  1:
 E= -649.146078584737     Delta-E=       -0.001116584785 Rises=F Damp=F
 DIIS: error= 3.07D-03 at cycle  10 NSaved=  10.
 NSaved=10 IEnMin= 7 EnMin= -649.147791311663     IErMin= 7 ErrMin= 1.82D-03
 ErrMax= 3.07D-03  0.00D+00 EMaxC= 1.00D-01 BMatC= 3.40D-04 BMatP= 1.27D-04
 IDIUse=3 WtCom= 9.82D-01 WtEn= 1.82D-02
 EnCoef did   100 forward-backward iterations
 Coeff-Com:  0.688D-02-0.101D-01 0.270D-02 0.296D-02 0.354D-01-0.799D-02
 Coeff-Com:  0.384D+00 0.147D+01-0.375D+01 0.287D+01
 Coeff-En:   0.000D+00 0.000D+00 0.000D+00 0.000D+00 0.109D+00 0.000D+00
 Coeff-En:   0.887D+00 0.000D+00 0.000D+00 0.427D-02
 Coeff:      0.676D-02-0.995D-02 0.265D-02 0.291D-02 0.367D-01-0.784D-02
 Coeff:      0.393D+00 0.144D+01-0.368D+01 0.281D+01
 Gap=     0.017 Goal=   None    Shift=    0.000
 RMSDP=4.31D-04 MaxDP=2.44D-02 DE=-1.12D-03 OVMax= 4.95D-02

 Cycle  11  Pass 1  IDiag  1:
 E= -649.148344894337     Delta-E=       -0.002266309600 Rises=F Damp=F
 DIIS: error= 1.15D-03 at cycle  11 NSaved=  11.
 NSaved=11 IEnMin=11 EnMin= -649.148344894337     IErMin=11 ErrMin= 1.15D-03
 ErrMax= 1.15D-03  0.00D+00 EMaxC= 1.00D-01 BMatC= 4.74D-05 BMatP= 1.27D-04
 IDIUse=3 WtCom= 9.88D-01 WtEn= 1.15D-02
 Coeff-Com:  0.611D-02-0.841D-02 0.602D-02 0.850D-02-0.947D-02-0.465D-01
 Coeff-Com: -0.144D-01-0.219D-01-0.835D+00 0.585D+00 0.133D+01
 Coeff-En:   0.000D+00 0.000D+00 0.000D+00 0.000D+00 0.520D-01 0.000D+00
 Coeff-En:   0.000D+00 0.000D+00 0.000D+00 0.000D+00 0.948D+00
 Coeff:      0.604D-02-0.831D-02 0.595D-02 0.840D-02-0.877D-02-0.460D-01
 Coeff:     -0.143D-01-0.216D-01-0.825D+00 0.579D+00 0.133D+01
 Gap=     0.017 Goal=   None    Shift=    0.000
 RMSDP=2.79D-04 MaxDP=1.60D-02 DE=-2.27D-03 OVMax= 3.24D-02

 Cycle  12  Pass 1  IDiag  1:
 E= -649.148705076654     Delta-E=       -0.000360182317 Rises=F Damp=F
 DIIS: error= 1.20D-04 at cycle  12 NSaved=  12.
 NSaved=12 IEnMin=12 EnMin= -649.148705076654     IErMin=12 ErrMin= 1.20D-04
 ErrMax= 1.20D-04  0.00D+00 EMaxC= 1.00D-01 BMatC= 5.75D-07 BMatP= 4.74D-05
 IDIUse=3 WtCom= 9.99D-01 WtEn= 1.20D-03
 Coeff-Com:  0.251D-02-0.338D-02 0.922D-03 0.864D-03-0.486D-02-0.201D-01
 Coeff-Com:  0.828D-02-0.546D-01 0.293D-01-0.209D-01 0.256D+00 0.806D+00
 Coeff-En:   0.000D+00 0.000D+00 0.000D+00 0.000D+00 0.000D+00 0.000D+00
 Coeff-En:   0.000D+00 0.000D+00 0.000D+00 0.000D+00 0.587D-01 0.941D+00
 Coeff:      0.251D-02-0.338D-02 0.921D-03 0.863D-03-0.485D-02-0.201D-01
 Coeff:      0.827D-02-0.545D-01 0.292D-01-0.208D-01 0.255D+00 0.806D+00
 Gap=     0.017 Goal=   None    Shift=    0.000
 RMSDP=3.91D-05 MaxDP=1.83D-03 DE=-3.60D-04 OVMax= 3.34D-03

 Cycle  13  Pass 1  IDiag  1:
 E= -649.148709377999     Delta-E=       -0.000004301344 Rises=F Damp=F
 DIIS: error= 6.83D-06 at cycle  13 NSaved=  13.
 NSaved=13 IEnMin=13 EnMin= -649.148709377999     IErMin=13 ErrMin= 6.83D-06
 ErrMax= 6.83D-06  0.00D+00 EMaxC= 1.00D-01 BMatC= 3.84D-09 BMatP= 5.75D-07
 IDIUse=1 WtCom= 1.00D+00 WtEn= 0.00D+00
 Coeff-Com:  0.638D-03-0.860D-03 0.136D-03 0.542D-04-0.304D-02-0.430D-02
 Coeff-Com:  0.944D-05-0.316D-01 0.686D-01-0.363D-01 0.100D-02 0.352D+00
 Coeff-Com:  0.653D+00
 Coeff:      0.638D-03-0.860D-03 0.136D-03 0.542D-04-0.304D-02-0.430D-02
 Coeff:      0.944D-05-0.316D-01 0.686D-01-0.363D-01 0.100D-02 0.352D+00
 Coeff:      0.653D+00
 Gap=     0.017 Goal=   None    Shift=    0.000
 RMSDP=1.03D-05 MaxDP=5.25D-04 DE=-4.30D-06 OVMax= 1.12D-03

 Cycle  14  Pass 1  IDiag  1:
 E= -649.148709001032     Delta-E=        0.000000376966 Rises=F Damp=F
 DIIS: error= 3.76D-05 at cycle  14 NSaved=  14.
 NSaved=14 IEnMin=13 EnMin= -649.148709377999     IErMin=13 ErrMin= 6.83D-06
 ErrMax= 3.76D-05  0.00D+00 EMaxC= 1.00D-01 BMatC= 5.24D-08 BMatP= 3.84D-09
 IDIUse=1 WtCom= 1.00D+00 WtEn= 0.00D+00
 Coeff-Com: -0.287D-04 0.387D-04-0.393D-04-0.908D-04-0.483D-03-0.629D-04
 Coeff-Com: -0.121D-02 0.204D-02 0.580D-02 0.204D-02-0.452D-02-0.409D-01
 Coeff-Com:  0.104D+00 0.934D+00
 Coeff:     -0.287D-04 0.387D-04-0.393D-04-0.908D-04-0.483D-03-0.629D-04
 Coeff:     -0.121D-02 0.204D-02 0.580D-02 0.204D-02-0.452D-02-0.409D-01
 Coeff:      0.104D+00 0.934D+00
 Gap=     0.017 Goal=   None    Shift=    0.000
 RMSDP=7.51D-06 MaxDP=4.07D-04 DE= 3.77D-07 OVMax= 8.64D-04

 Cycle  15  Pass 1  IDiag  1:
 E= -649.148709397226     Delta-E=       -0.000000396194 Rises=F Damp=F
 DIIS: error= 4.25D-06 at cycle  15 NSaved=  15.
 NSaved=15 IEnMin=15 EnMin= -649.148709397226     IErMin=15 ErrMin= 4.25D-06
 ErrMax= 4.25D-06  0.00D+00 EMaxC= 1.00D-01 BMatC= 6.54D-10 BMatP= 3.84D-09
 IDIUse=1 WtCom= 1.00D+00 WtEn= 0.00D+00
 Coeff-Com: -0.335D-04 0.454D-04-0.915D-05-0.110D-04-0.254D-04 0.200D-03
 Coeff-Com: -0.203D-03 0.374D-03-0.212D-02 0.341D-02 0.151D-02-0.190D-01
 Coeff-Com: -0.128D-02 0.141D+00 0.876D+00
 Coeff:     -0.335D-04 0.454D-04-0.915D-05-0.110D-04-0.254D-04 0.200D-03
 Coeff:     -0.203D-03 0.374D-03-0.212D-02 0.341D-02 0.151D-02-0.190D-01
 Coeff:     -0.128D-02 0.141D+00 0.876D+00
 Gap=     0.017 Goal=   None    Shift=    0.000
 RMSDP=9.46D-07 MaxDP=4.97D-05 DE=-3.96D-07 OVMax= 9.17D-05

 Cycle  16  Pass 1  IDiag  1:
 E= -649.148709402144     Delta-E=       -0.000000004918 Rises=F Damp=F
 DIIS: error= 6.26D-07 at cycle  16 NSaved=  16.
 NSaved=16 IEnMin=16 EnMin= -649.148709402144     IErMin=16 ErrMin= 6.26D-07
 ErrMax= 6.26D-07  0.00D+00 EMaxC= 1.00D-01 BMatC= 1.46D-11 BMatP= 6.54D-10
 IDIUse=1 WtCom= 1.00D+00 WtEn= 0.00D+00
 Coeff-Com:  0.614D-05-0.795D-05 0.228D-05 0.416D-05 0.121D-04-0.103D-04
 Coeff-Com:  0.153D-03-0.181D-03-0.239D-03-0.492D-04 0.810D-03 0.301D-02
 Coeff-Com: -0.328D-02-0.562D-01 0.145D+00 0.911D+00
 Coeff:      0.614D-05-0.795D-05 0.228D-05 0.416D-05 0.121D-04-0.103D-04
 Coeff:      0.153D-03-0.181D-03-0.239D-03-0.492D-04 0.810D-03 0.301D-02
 Coeff:     -0.328D-02-0.562D-01 0.145D+00 0.911D+00
 Gap=     0.017 Goal=   None    Shift=    0.000
 RMSDP=2.17D-07 MaxDP=1.08D-05 DE=-4.92D-09 OVMax= 2.05D-05

 Cycle  17  Pass 1  IDiag  1:
 E= -649.148709402246     Delta-E=       -0.000000000102 Rises=F Damp=F
 DIIS: error= 1.69D-07 at cycle  17 NSaved=  17.
 NSaved=17 IEnMin=17 EnMin= -649.148709402246     IErMin=17 ErrMin= 1.69D-07
 ErrMax= 1.69D-07  0.00D+00 EMaxC= 1.00D-01 BMatC= 1.05D-12 BMatP= 1.46D-11
 IDIUse=1 WtCom= 1.00D+00 WtEn= 0.00D+00
 Coeff-Com: -0.517D-07 0.356D-07 0.425D-06 0.269D-06-0.455D-05-0.437D-06
 Coeff-Com:  0.673D-06 0.331D-04 0.934D-04-0.137D-03-0.218D-03 0.560D-03
 Coeff-Com: -0.153D-03 0.814D-03-0.237D-01-0.196D-01 0.104D+01
 Coeff:     -0.517D-07 0.356D-07 0.425D-06 0.269D-06-0.455D-05-0.437D-06
 Coeff:      0.673D-06 0.331D-04 0.934D-04-0.137D-03-0.218D-03 0.560D-03
 Coeff:     -0.153D-03 0.814D-03-0.237D-01-0.196D-01 0.104D+01
 Gap=     0.017 Goal=   None    Shift=    0.000
 RMSDP=5.20D-08 MaxDP=2.81D-06 DE=-1.02D-10 OVMax= 5.95D-06

 Cycle  18  Pass 1  IDiag  1:
 E= -649.148709402252     Delta-E=       -0.000000000005 Rises=F Damp=F
 DIIS: error= 5.86D-08 at cycle  18 NSaved=  18.
 NSaved=18 IEnMin=18 EnMin= -649.148709402252     IErMin=18 ErrMin= 5.86D-08
 ErrMax= 5.86D-08  0.00D+00 EMaxC= 1.00D-01 BMatC= 1.28D-13 BMatP= 1.05D-12
 IDIUse=1 WtCom= 1.00D+00 WtEn= 0.00D+00
 Large coefficients: NSaved= 18 BigCof=    0.00 CofMax=   10.00 Det=-3.46D-15
 Inversion failed.  Reducing to 17 matrices.
 Large coefficients: NSaved= 17 BigCof=    0.00 CofMax=   10.00 Det=-3.53D-15
 Inversion failed.  Reducing to 16 matrices.
 Large coefficients: NSaved= 16 BigCof=    0.00 CofMax=   10.00 Det=-3.58D-15
 Inversion failed.  Reducing to 15 matrices.
 Coeff-Com: -0.307D-06 0.391D-06 0.795D-06-0.840D-06 0.305D-04-0.184D-04
 Coeff-Com:  0.424D-05-0.801D-04-0.153D-03-0.204D-03 0.564D-03-0.810D-02
 Coeff-Com: -0.264D-01 0.260D+00 0.774D+00
 Coeff:     -0.307D-06 0.391D-06 0.795D-06-0.840D-06 0.305D-04-0.184D-04
 Coeff:      0.424D-05-0.801D-04-0.153D-03-0.204D-03 0.564D-03-0.810D-02
 Coeff:     -0.264D-01 0.260D+00 0.774D+00
 Gap=     0.017 Goal=   None    Shift=    0.000
 RMSDP=1.35D-08 MaxDP=7.41D-07 DE=-5.34D-12 OVMax= 1.50D-06

 Cycle  19  Pass 1  IDiag  1:
 E= -649.148709402253     Delta-E=       -0.000000000001 Rises=F Damp=F
 DIIS: error= 1.12D-09 at cycle  19 NSaved=  16.
 NSaved=16 IEnMin=16 EnMin= -649.148709402253     IErMin=16 ErrMin= 1.12D-09
 ErrMax= 1.12D-09  0.00D+00 EMaxC= 1.00D-01 BMatC= 1.13D-16 BMatP= 1.28D-13
 IDIUse=1 WtCom= 1.00D+00 WtEn= 0.00D+00
 Large coefficients: NSaved= 16 BigCof=    0.00 CofMax=   10.00 Det=-6.52D-16
 Inversion failed.  Reducing to 15 matrices.
 Coeff-Com:  0.242D-08-0.380D-06-0.220D-06 0.400D-05-0.620D-05 0.637D-05
 Coeff-Com: -0.216D-05-0.440D-04-0.237D-04 0.111D-03-0.113D-02-0.647D-02
 Coeff-Com:  0.722D-03 0.234D+00 0.773D+00
 Coeff:      0.242D-08-0.380D-06-0.220D-06 0.400D-05-0.620D-05 0.637D-05
 Coeff:     -0.216D-05-0.440D-04-0.237D-04 0.111D-03-0.113D-02-0.647D-02
 Coeff:      0.722D-03 0.234D+00 0.773D+00
 Gap=     0.017 Goal=   None    Shift=    0.000
 RMSDP=8.48D-10 MaxDP=2.04D-08 DE=-1.25D-12 OVMax= 3.92D-08

 SCF Done:  E(RB3LYP) =  -649.148709402     A.U. after   19 cycles
            NFock= 19  Conv=0.85D-09     -V/T= 2.0028
 KE= 6.473565803957D+02 PE=-1.719047694611D+03 EE= 3.423754282862D+02
 Leave Link  502 at Thu Oct  5 16:03:32 2023, MaxMem=  1610612736 cpu:             208.8 elap:             130.9
 (Enter /home/sekinelabo/g16/l601.exe)
 Copying SCF densities to generalized density rwf, IOpCl= 0 IROHF=0.

 **********************************************************************

            Population analysis using the SCF Density.

 **********************************************************************

 Orbital symmetries:
       Occupied  (A) (A) (A) (A) (A) (A) (A) (A) (A) (A) (A) (A)
                 (A) (A) (A) (A) (A) (A) (A) (A) (A) (A)
       Virtual   (A) (A) (A) (A) (A) (A) (A) (A) (A) (A) (A) (A)
                 (A) (A) (A) (A) (A) (A) (A) (A) (A) (A) (A) (A)
                 (A) (A) (A) (A) (A) (A) (A) (A) (A) (A) (A) (A)
                 (A) (A) (A) (A) (A) (A) (A) (A) (A) (A) (A) (A)
                 (A) (A) (A) (A) (A) (A) (A) (A) (A) (A) (A) (A)
                 (A) (A) (A) (A) (A) (A) (A) (A) (A) (A) (A) (A)
                 (A) (A) (A) (A) (A) (A) (A) (A) (A) (A) (A) (A)
                 (A) (A) (A) (A) (A) (A) (A) (A) (A) (A) (A) (A)
                 (A) (A)
 The electronic state is 1-A.
 Alpha  occ. eigenvalues --  -38.46466 -38.45961 -38.45829 -38.45659  -2.22384
 Alpha  occ. eigenvalues --   -2.21710  -2.21642  -2.21345  -1.16778  -1.15938
 Alpha  occ. eigenvalues --   -1.15913  -1.15318  -1.15317  -1.15291  -1.15275
 Alpha  occ. eigenvalues --   -1.15236  -1.15118  -1.15020  -1.15019  -1.14995
 Alpha  occ. eigenvalues --   -0.14626  -0.10678
 Alpha virt. eigenvalues --   -0.08952  -0.05071  -0.03394  -0.03320  -0.01614
 Alpha virt. eigenvalues --   -0.01544  -0.01237  -0.01154  -0.00576  -0.00240
 Alpha virt. eigenvalues --   -0.00021   0.00667   0.00915   0.01174   0.01291
 Alpha virt. eigenvalues --    0.01352   0.01581   0.01634   0.01722   0.01796
 Alpha virt. eigenvalues --    0.01885   0.02042   0.02101   0.02299   0.02479
 Alpha virt. eigenvalues --    0.02786   0.03278   0.03622   0.03857   0.05202
 Alpha virt. eigenvalues --    0.06838   0.07074   0.07372   0.07478   0.07996
 Alpha virt. eigenvalues --    0.08040   0.08188   0.08319   0.08481   0.10094
 Alpha virt. eigenvalues --    0.10250   0.10334   0.10921   0.11722   0.12459
 Alpha virt. eigenvalues --    0.16826   0.29055   0.29477   0.30013   0.30591
 Alpha virt. eigenvalues --    0.33938   0.34440   0.34461   0.34602   0.34704
 Alpha virt. eigenvalues --    0.34740   0.34791   0.34888   0.35139   0.35497
 Alpha virt. eigenvalues --    0.36536   0.39379   0.39613   0.41557   0.41781
 Alpha virt. eigenvalues --    0.42209   0.42758   0.42816   0.43181   0.43503
 Alpha virt. eigenvalues --    0.44732   0.45623   0.46245   0.47381   0.49308
 Alpha virt. eigenvalues --    0.57304   0.57488   0.89531   2.01241   2.02008
 Alpha virt. eigenvalues --    2.02885   2.11752   4.41486   4.41809   4.43035
 Alpha virt. eigenvalues --    4.43129   4.43193   4.43414   4.44356   4.44602
 Alpha virt. eigenvalues --    4.47226   4.47859   4.50639   4.78691  96.20411
 Alpha virt. eigenvalues --   96.21297  96.23942  96.33606
          Condensed to atoms (all electrons):
               1          2          3          4
     1  Na  11.151729   0.125633  -0.095415   0.131678
     2  Na   0.125633  10.989818  -0.057241  -0.087605
     3  Na  -0.095415  -0.057241  11.042816   0.089181
     4  Na   0.131678  -0.087605   0.089181  10.603174
 Mulliken charges:
               1
     1  Na  -0.313625
     2  Na   0.029395
     3  Na   0.020659
     4  Na   0.263571
 Sum of Mulliken charges =  -0.00000
 Mulliken charges with hydrogens summed into heavy atoms:
               1
     1  Na  -0.313625
     2  Na   0.029395
     3  Na   0.020659
     4  Na   0.263571
 Electronic spatial extent (au):  <R**2>=           2161.2557
 Charge=             -0.0000 electrons
 Dipole moment (field-independent basis, Debye):
    X=              0.3897    Y=              0.6415    Z=             -0.2840  Tot=              0.8025
 Quadrupole moment (field-independent basis, Debye-Ang):
   XX=            -45.7175   YY=            -38.0742   ZZ=            -41.7674
   XY=              1.0140   XZ=             -0.3755   YZ=             -3.2813
 Traceless Quadrupole moment (field-independent basis, Debye-Ang):
   XX=             -3.8645   YY=              3.7789   ZZ=              0.0856
   XY=              1.0140   XZ=             -0.3755   YZ=             -3.2813
 Octapole moment (field-independent basis, Debye-Ang**2):
  XXX=             -1.0362  YYY=             33.5981  ZZZ=              2.7254  XYY=              8.2953
  XXY=            -12.7200  XXZ=             -7.6944  XZZ=              0.6573  YZZ=              9.6756
  YYZ=            -12.7386  XYZ=             -3.4791
 Hexadecapole moment (field-independent basis, Debye-Ang**3):
 XXXX=          -2907.2327 YYYY=           -827.1135 ZZZZ=           -262.2235 XXXY=              6.4799
 XXXZ=             17.0100 YYYX=             20.0100 YYYZ=            -45.1424 ZZZX=             -2.7012
 ZZZY=            -15.7430 XXYY=           -633.0992 XXZZ=           -562.6021 YYZZ=           -186.1089
 XXYZ=              3.7213 YYXZ=             -5.4876 ZZXY=              3.7561
 N-N= 8.016697652718D+01 E-N=-1.719047694517D+03  KE= 6.473565803957D+02
 No NMR shielding tensors so no spin-rotation constants.
 Leave Link  601 at Thu Oct  5 16:03:37 2023, MaxMem=  1610612736 cpu:               8.4 elap:               5.4
 (Enter /home/sekinelabo/g16/l701.exe)
 ... and contract with generalized density number  0.
 Compute integral first derivatives.
 Leave Link  701 at Thu Oct  5 16:03:42 2023, MaxMem=  1610612736 cpu:               6.9 elap:               4.3
 (Enter /home/sekinelabo/g16/l702.exe)
 L702 exits ... SP integral derivatives will be done elsewhere.
 Leave Link  702 at Thu Oct  5 16:03:42 2023, MaxMem=  1610612736 cpu:               0.6 elap:               0.4
 (Enter /home/sekinelabo/g16/l703.exe)
 Integral derivatives from FoFJK, PRISM(SPDF).
 Compute integral first derivatives, UseDBF=F ICtDFT=           0.
 Calling FoFJK, ICntrl=      2127 FMM=F ISym2X=0 I1Cent= 0 IOpClX= 0 NMat=1 NMatS=1 NMatT=0.
 FoFJK:  IHMeth= 1 ICntrl=    2127 DoSepK=F KAlg= 0 I1Cent=           0 FoldK=F
 IRaf=         0 NMat=       1 IRICut=       1 DoRegI=T DoRafI=F ISym2E= 0 IDoP0=0 IntGTp=1.
 FoFCou: FMM=F IPFlag=           0 FMFlag=      100000 FMFlg1=         800
         NFxFlg=           0 DoJE=F BraDBF=F KetDBF=F FulRan=T
         wScrn=  0.000000 ICntrl=      2127 IOpCl=  0 I1Cent=           0 NGrid=           0
         NMat0=    1 NMatS0=      1 NMatT0=    0 NMatD0=    1 NMtDS0=    0 NMtDT0=    0
 Symmetry not used in FoFCou.
 Leave Link  703 at Thu Oct  5 16:03:50 2023, MaxMem=  1610612736 cpu:              12.9 elap:               8.0
 (Enter /home/sekinelabo/g16/l716.exe)
 Dipole        = 1.53314375D-01 2.52382165D-01-1.11748190D-01
 ***** Axes restored to original set *****
 -------------------------------------------------------------------
 Center     Atomic                   Forces (Hartrees/Bohr)
 Number     Number              X              Y              Z
 -------------------------------------------------------------------
      1       11          -0.012465063    0.024392416   -0.001893240
      2       11           0.003003172   -0.000339892    0.001205997
      3       11           0.000644128   -0.000831358   -0.002994055
      4       11           0.008817764   -0.023221167    0.003681298
 -------------------------------------------------------------------
 Cartesian Forces:  Max     0.024392416 RMS     0.010821041
 Z-matrix is all fixed cartesians, so copy forces.
 Force constants in Cartesian coordinates: 
                1             2             3             4             5 
      1  0.168235D-01
      2 -0.411135D-01  0.100474D+00
      3  0.361682D-02 -0.883885D-02  0.777569D-03
      4  0.000000D+00  0.000000D+00  0.000000D+00  0.100000D+01
      5  0.000000D+00  0.000000D+00  0.000000D+00  0.000000D+00  0.100000D+01
      6  0.000000D+00  0.000000D+00  0.000000D+00  0.000000D+00  0.000000D+00
      7  0.000000D+00  0.000000D+00  0.000000D+00  0.000000D+00  0.000000D+00
      8  0.000000D+00  0.000000D+00  0.000000D+00  0.000000D+00  0.000000D+00
      9  0.000000D+00  0.000000D+00  0.000000D+00  0.000000D+00  0.000000D+00
     10 -0.168235D-01  0.411135D-01 -0.361682D-02  0.000000D+00  0.000000D+00
     11  0.411135D-01 -0.100474D+00  0.883885D-02  0.000000D+00  0.000000D+00
     12 -0.361682D-02  0.883885D-02 -0.777569D-03  0.000000D+00  0.000000D+00
                6             7             8             9            10 
      6  0.100000D+01
      7  0.000000D+00  0.100000D+01
      8  0.000000D+00  0.000000D+00  0.100000D+01
      9  0.000000D+00  0.000000D+00  0.000000D+00  0.100000D+01
     10  0.000000D+00  0.000000D+00  0.000000D+00  0.000000D+00  0.168235D-01
     11  0.000000D+00  0.000000D+00  0.000000D+00  0.000000D+00 -0.411135D-01
     12  0.000000D+00  0.000000D+00  0.000000D+00  0.000000D+00  0.361682D-02
               11            12 
     11  0.100474D+00
     12 -0.883885D-02  0.777569D-03
 Leave Link  716 at Thu Oct  5 16:03:51 2023, MaxMem=  1610612736 cpu:               0.8 elap:               0.5
 (Enter /home/sekinelabo/g16/l103.exe)

 GradGradGradGradGradGradGradGradGradGradGradGradGradGradGradGradGradGrad
 Berny optimization.
 Search for a local minimum.
 Step number   1 out of a maximum of    2
 All quantities printed in internal units (Hartrees-Bohrs-Radians)
 Second derivative matrix not updated -- first step.
 The second derivative matrix:
                          X1        Y1        Z1        X2        Y2
           X1           0.01682
           Y1          -0.04111   0.10047
           Z1           0.00362  -0.00884   0.00078
           X2           0.00000   0.00000   0.00000   1.00000
           Y2           0.00000   0.00000   0.00000  -0.00000   1.00000
           Z2           0.00000   0.00000   0.00000  -0.00000  -0.00000
           X3           0.00000   0.00000   0.00000   0.00000   0.00000
           Y3           0.00000   0.00000   0.00000   0.00000   0.00000
           Z3           0.00000   0.00000   0.00000   0.00000   0.00000
           X4          -0.01682   0.04111  -0.00362   0.00000   0.00000
           Y4           0.04111  -0.10047   0.00884   0.00000   0.00000
           Z4          -0.00362   0.00884  -0.00078   0.00000   0.00000
                          Z2        X3        Y3        Z3        X4
           Z2           1.00000
           X3           0.00000   1.00000
           Y3           0.00000  -0.00000   1.00000
           Z3           0.00000  -0.00000  -0.00000   1.00000
           X4           0.00000   0.00000   0.00000   0.00000   0.01682
           Y4           0.00000   0.00000   0.00000   0.00000  -0.04111
           Z4           0.00000   0.00000   0.00000   0.00000   0.00362
                          Y4        Z4
           Y4           0.10047
           Z4          -0.00884   0.00078
 ITU=  0
     Eigenvalues ---    0.05900   0.10564   0.23615   0.50000   0.60429
     Eigenvalues ---    1.00000
 Angle between quadratic step and forces=   8.45 degrees.
 Linear search not attempted -- first point.
 B after Tr=    -0.000000    0.000000   -0.000000
         Rot=    1.000000   -0.000000   -0.000000   -0.000000 Ang=   0.00 deg.
 Variable       Old X    -DE/DX   Delta X   Delta X   Delta X     New X
                                 (Linear)    (Quad)   (Total)
    X1        0.00000  -0.01247   0.00000  -0.05641  -0.05641  -0.05641
    Y1       -0.00000   0.02439   0.00000   0.09727   0.09727   0.09727
    Z1        0.00000  -0.00189   0.00000  -0.02065  -0.02065  -0.02065
    X2       -8.37994   0.00300   0.00000   0.00544   0.00544  -8.37450
    Y2        0.00000  -0.00034   0.00000   0.00385   0.00385   0.00385
    Z2       -4.50866   0.00121   0.00000   0.00123   0.00123  -4.50743
    X3       -0.00000   0.00064   0.00000   0.00352   0.00352   0.00352
    Y3       -0.00000  -0.00083   0.00000  -0.00412  -0.00412  -0.00412
    Z3       10.06400  -0.00299   0.00000  -0.00323  -0.00323  10.06077
    X4        1.70497   0.00882   0.00000   0.04745   0.04745   1.75241
    Y4       -4.16662  -0.02322   0.00000  -0.09700  -0.09700  -4.26363
    Z4        0.36654   0.00368   0.00000   0.02265   0.02265   0.38920
         Item               Value     Threshold  Converged?
 Maximum Force            0.024392     0.000450     NO 
 RMS     Force            0.010821     0.000300     NO 
 Maximum Displacement     0.097269     0.001800     NO 
 RMS     Displacement     0.045943     0.001200     NO 
 Predicted change in Energy=-2.950520D-03
 GradGradGradGradGradGradGradGradGradGradGradGradGradGradGradGradGradGrad

 Leave Link  103 at Thu Oct  5 16:03:53 2023, MaxMem=  1610612736 cpu:               3.7 elap:               2.5
 (Enter /home/sekinelabo/g16/l9999.exe)
 1\1\GINC-SEKINELABO-XA7R-R37\Force\RB3LYP\6-311+G(d)\Na4\SEKINELABO\05
 -Oct-2023\0\\#p B3LYP/6-311+g(d) force\\\0,1\Na,0.,0.,0.\Na,-4.4344752
 582,0.,-2.3858802447\Na,0.,0.,5.3256399667\Na,0.9022291281,-2.20488254
 58,0.1939672331\\Version=ES64L-G16RevB.01\State=1-A\HF=-649.1487094\RM
 SD=8.483e-10\RMSF=1.082e-02\Dipole=0.223349,-0.2200618,0.0371177\Quadr
 upole=-0.2085104,2.6898603,-2.4813499,-2.3975105,-1.1624213,0.925502\P
 G=C01 [X(Na4)]\\@


 You can't act like a skunk without someone's getting wind of it.
 -- Lorene Workman
 Job cpu time:       0 days  0 hours  4 minutes 46.9 seconds.
 Elapsed time:       0 days  0 hours  3 minutes  0.1 seconds.
 File lengths (MBytes):  RWF=     10 Int=      0 D2E=      0 Chk=      2 Scr=      1
 Normal termination of Gaussian 16 at Thu Oct  5 16:03:54 2023.
 Initial command:
 /home/sekinelabo/g16/l1.exe "/home/sekinelabo/g16temp/Gau-217847.inp" -scrdir="/home/sekinelabo/g16temp/"
 Entering Link 1 = /home/sekinelabo/g16/l1.exe PID=    223481.
  
 Copyright (c) 1988-2017, Gaussian, Inc.  All Rights Reserved.
  
 This is part of the Gaussian(R) 16 program.  It is based on
 the Gaussian(R) 09 system (copyright 2009, Gaussian, Inc.),
 the Gaussian(R) 03 system (copyright 2003, Gaussian, Inc.),
 the Gaussian(R) 98 system (copyright 1998, Gaussian, Inc.),
 the Gaussian(R) 94 system (copyright 1995, Gaussian, Inc.),
 the Gaussian 92(TM) system (copyright 1992, Gaussian, Inc.),
 the Gaussian 90(TM) system (copyright 1990, Gaussian, Inc.),
 the Gaussian 88(TM) system (copyright 1988, Gaussian, Inc.),
 the Gaussian 86(TM) system (copyright 1986, Carnegie Mellon
 University), and the Gaussian 82(TM) system (copyright 1983,
 Carnegie Mellon University). Gaussian is a federally registered
 trademark of Gaussian, Inc.
  
 This software contains proprietary and confidential information,
 including trade secrets, belonging to Gaussian, Inc.
  
 This software is provided under written license and may be
 used, copied, transmitted, or stored only in accord with that
 written license.
  
 The following legend is applicable only to US Government
 contracts under FAR:
  
                    RESTRICTED RIGHTS LEGEND
  
 Use, reproduction and disclosure by the US Government is
 subject to restrictions as set forth in subparagraphs (a)
 and (c) of the Commercial Computer Software - Restricted
 Rights clause in FAR 52.227-19.
  
 Gaussian, Inc.
 340 Quinnipiac St., Bldg. 40, Wallingford CT 06492
  
  
 ---------------------------------------------------------------
 Warning -- This program may not be used in any manner that
 competes with the business of Gaussian, Inc. or will provide
 assistance to any competitor of Gaussian, Inc.  The licensee
 of this program is prohibited from giving any competitor of
 Gaussian, Inc. access to this program.  By using this program,
 the user acknowledges that Gaussian, Inc. is engaged in the
 business of creating and licensing software in the field of
 computational chemistry and represents and warrants to the
 licensee that it is not a competitor of Gaussian, Inc. and that
 it will not use this program in any manner prohibited above.
 ---------------------------------------------------------------
  

 Cite this work as:
 Gaussian 16, Revision B.01,
 M. J. Frisch, G. W. Trucks, H. B. Schlegel, G. E. Scuseria, 
 M. A. Robb, J. R. Cheeseman, G. Scalmani, V. Barone, 
 G. A. Petersson, H. Nakatsuji, X. Li, M. Caricato, A. V. Marenich, 
 J. Bloino, B. G. Janesko, R. Gomperts, B. Mennucci, H. P. Hratchian, 
 J. V. Ortiz, A. F. Izmaylov, J. L. Sonnenberg, D. Williams-Young, 
 F. Ding, F. Lipparini, F. Egidi, J. Goings, B. Peng, A. Petrone, 
 T. Henderson, D. Ranasinghe, V. G. Zakrzewski, J. Gao, N. Rega, 
 G. Zheng, W. Liang, M. Hada, M. Ehara, K. Toyota, R. Fukuda, 
 J. Hasegawa, M. Ishida, T. Nakajima, Y. Honda, O. Kitao, H. Nakai, 
 T. Vreven, K. Throssell, J. A. Montgomery, Jr., J. E. Peralta, 
 F. Ogliaro, M. J. Bearpark, J. J. Heyd, E. N. Brothers, K. N. Kudin, 
 V. N. Staroverov, T. A. Keith, R. Kobayashi, J. Normand, 
 K. Raghavachari, A. P. Rendell, J. C. Burant, S. S. Iyengar, 
 J. Tomasi, M. Cossi, J. M. Millam, M. Klene, C. Adamo, R. Cammi, 
 J. W. Ochterski, R. L. Martin, K. Morokuma, O. Farkas, 
 J. B. Foresman, and D. J. Fox, Gaussian, Inc., Wallingford CT, 2016.
 
 ******************************************
 Gaussian 16:  ES64L-G16RevB.01 20-Dec-2017
                 5-Oct-2023 
 ******************************************
 %NProcShared=16
 Will use up to   16 processors via shared memory.
 %mem=12GB
 %Chk=checkpoint.chk
 -------------------------
 #p B3LYP/6-311+g(d) force
 -------------------------
 1/10=7,30=1,38=1/1,3;
 2/12=2,17=6,18=5,40=1/2;
 3/5=4,6=6,7=11,11=2,25=1,30=1,71=1,74=-5/1,2,3;
 4//1;
 5/5=2,38=5/2;
 6/7=2,8=2,9=2,10=2,28=1/1;
 7/29=1/1,2,3,16;
 1/10=7,30=1/3;
 99//99;
[...]
 RMSDP=7.57D-04 MaxDP=5.05D-02 DE= 3.74D-02 OVMax= 4.61D-02

 Cycle 115  Pass 1  IDiag  1:
 E= -649.020616813832     Delta-E=       -0.010153237600 Rises=F Damp=F
 DIIS: error= 7.26D-03 at cycle 115 NSaved=   7.
 NSaved= 7 IEnMin= 4 EnMin= -649.087607301265     IErMin= 7 ErrMin= 7.26D-03
 ErrMax= 7.26D-03  0.00D+00 EMaxC= 1.00D-01 BMatC= 6.72D-03 BMatP= 4.04D-03
 IDIUse=3 WtCom= 9.35D-01 WtEn= 6.53D-02
 EnCoef did   100 forward-backward iterations
 Coeff-Com: -0.502D+00 0.455D+00-0.458D+01 0.282D+01 0.942D+00 0.417D+00
 Coeff-Com:  0.144D+01
 Coeff-En:   0.135D-02 0.477D+00 0.274D-02 0.497D+00 0.122D-01 0.000D+00
 Coeff-En:   0.995D-02
 Coeff:     -0.469D+00 0.457D+00-0.428D+01 0.267D+01 0.882D+00 0.389D+00
 Coeff:      0.135D+01
 Gap=     0.021 Goal=   None    Shift=    0.000
 RMSDP=1.08D-03 MaxDP=5.43D-02 DE=-1.02D-02 OVMax= 9.43D-02

 Cycle 116  Pass 1  IDiag  1:
 E= -649.041370219413     Delta-E=       -0.020753405581 Rises=F Damp=F
 DIIS: error= 8.27D-03 at cycle 116 NSaved=   8.
 NSaved= 8 IEnMin= 4 EnMin= -649.087607301265     IErMin= 7 ErrMin= 7.26D-03
 ErrMax= 8.27D-03  0.00D+00 EMaxC= 1.00D-01 BMatC= 6.48D-03 BMatP= 4.04D-03
 IDIUse=3 WtCom= 9.35D-01 WtEn= 6.53D-02
 EnCoef did   100 forward-backward iterations
 Rare condition: small coef for last iteration:  0.220D-15
 Coeff-Com:  0.562D+00 0.445D+00-0.462D+01 0.269D+01 0.129D+01 0.756D+00
 Coeff-Com:  0.188D+01-0.200D+01
 Coeff-En:   0.243D-01 0.530D+00 0.000D+00 0.000D+00 0.000D+00 0.000D+00
 Coeff-En:   0.000D+00 0.446D+00
 Coeff:      0.562D+00 0.445D+00-0.462D+01 0.269D+01 0.129D+01 0.756D+00
 Coeff:      0.188D+01-0.200D+01
 Gap=     0.024 Goal=   None    Shift=    0.000
 RMSDP=5.10D-04 MaxDP=1.79D-02 DE=-2.08D-02 OVMax= 5.29D-02

 Cycle 117  Pass 1  IDiag  1:
 E= -649.030399235862     Delta-E=        0.010970983551 Rises=F Damp=F
 DIIS: error= 7.71D-03 at cycle 117 NSaved=   9.
 NSaved= 9 IEnMin= 4 EnMin= -649.087607301265     IErMin= 7 ErrMin= 7.26D-03
 ErrMax= 7.71D-03  0.00D+00 EMaxC= 1.00D-01 BMatC= 6.52D-03 BMatP= 4.04D-03
 IDIUse=3 WtCom= 9.35D-01 WtEn= 6.53D-02
 EnCoef did   100 forward-backward iterations
 Rare condition: small coef for last iteration:  0.000D+00
 Coeff-Com:  0.861D+00 0.410D+00-0.483D+01 0.315D+01 0.159D+01 0.109D+00
 Coeff-Com:  0.223D+01-0.568D+01 0.316D+01
 Coeff-En:   0.372D-01 0.535D+00 0.000D+00 0.000D+00 0.000D+00 0.000D+00
 Coeff-En:   0.000D+00 0.000D+00 0.427D+00
 Coeff:      0.861D+00 0.410D+00-0.483D+01 0.315D+01 0.159D+01 0.109D+00
 Coeff:      0.223D+01-0.568D+01 0.316D+01
 Gap=     0.023 Goal=   None    Shift=    0.000
 RMSDP=4.19D-04 MaxDP=1.61D-02 DE= 1.10D-02 OVMax= 2.31D-02

 Cycle 118  Pass 1  IDiag  1:
 E= -649.035148752412     Delta-E=       -0.004749516550 Rises=F Damp=F
 DIIS: error= 7.85D-03 at cycle 118 NSaved=  10.
 NSaved=10 IEnMin= 4 EnMin= -649.087607301265     IErMin= 7 ErrMin= 7.26D-03
 ErrMax= 7.85D-03  0.00D+00 EMaxC= 1.00D-01 BMatC= 6.24D-03 BMatP= 4.04D-03
 IDIUse=3 WtCom= 9.35D-01 WtEn= 6.53D-02
 EnCoef did   100 forward-backward iterations
 Coeff-Com:  0.220D+00 0.385D+00-0.511D+01 0.341D+01 0.149D+01-0.310D+00
 Coeff-Com:  0.227D+01-0.575D+01 0.287D+01 0.152D+01
 Coeff-En:   0.289D-02 0.477D+00 0.165D-02 0.489D+00 0.126D-01 0.000D+00
 Coeff-En:   0.000D+00 0.105D-01 0.000D+00 0.612D-02
 Coeff:      0.206D+00 0.391D+00-0.477D+01 0.322D+01 0.139D+01-0.289D+00
 Coeff:      0.212D+01-0.537D+01 0.268D+01 0.142D+01
 Gap=     0.014 Goal=   None    Shift=    0.000
 RMSDP=1.56D-03 MaxDP=7.82D-02 DE=-4.75D-03 OVMax= 1.66D-01

 Cycle 119  Pass 1  IDiag  1:
 E= -649.076148243312     Delta-E=       -0.040999490900 Rises=F Damp=F
 DIIS: error= 9.04D-03 at cycle 119 NSaved=  11.
 NSaved=11 IEnMin= 4 EnMin= -649.087607301265     IErMin= 7 ErrMin= 7.26D-03
 ErrMax= 9.04D-03  0.00D+00 EMaxC= 1.00D-01 BMatC= 6.16D-03 BMatP= 4.04D-03
 IDIUse=3 WtCom= 9.35D-01 WtEn= 6.53D-02
 EnCoef did   100 forward-backward iterations
 Rare condition: small coef for last iteration: -0.144D-15
 Coeff-Com: -0.844D+00 0.374D+00-0.513D+01 0.290D+01 0.151D+01 0.636D+00
 Coeff-Com:  0.212D+01-0.480D+01 0.145D+01 0.907D+00 0.187D+01
 Coeff-En:   0.000D+00 0.494D+00 0.000D+00 0.000D+00 0.000D+00 0.000D+00
 Coeff-En:   0.000D+00 0.000D+00 0.000D+00 0.000D+00 0.506D+00
 Coeff:     -0.844D+00 0.374D+00-0.513D+01 0.290D+01 0.151D+01 0.636D+00
 Coeff:      0.212D+01-0.480D+01 0.145D+01 0.907D+00 0.187D+01
 Gap=     0.016 Goal=   None    Shift=    0.000
 RMSDP=5.07D-04 MaxDP=2.76D-02 DE=-4.10D-02 OVMax= 4.84D-02

 Cycle 120  Pass 1  IDiag  1:
 E= -649.064723783699     Delta-E=        0.011424459613 Rises=F Damp=F
 DIIS: error= 8.91D-03 at cycle 120 NSaved=  12.
 NSaved=12 IEnMin= 4 EnMin= -649.087607301265     IErMin= 7 ErrMin= 7.26D-03
 ErrMax= 8.91D-03  0.00D+00 EMaxC= 1.00D-01 BMatC= 6.40D-03 BMatP= 4.04D-03
 IDIUse=3 WtCom= 9.35D-01 WtEn= 6.53D-02
 EnCoef did   100 forward-backward iterations
 Rare condition: small coef for last iteration:  0.000D+00
 Coeff-Com: -0.868D+00 0.374D+00-0.515D+01 0.289D+01 0.151D+01 0.658D+00
 Coeff-Com:  0.212D+01-0.478D+01 0.144D+01 0.863D+00 0.187D+01 0.726D-01
 Coeff-En:   0.342D-02 0.510D+00 0.000D+00 0.000D+00 0.000D+00 0.000D+00
 Coeff-En:   0.000D+00 0.000D+00 0.000D+00 0.000D+00 0.000D+00 0.486D+00
 Coeff:     -0.868D+00 0.374D+00-0.515D+01 0.289D+01 0.151D+01 0.658D+00
 Coeff:      0.212D+01-0.478D+01 0.144D+01 0.863D+00 0.187D+01 0.726D-01
 Gap=     0.017 Goal=   None    Shift=    0.000
 RMSDP=2.01D-05 MaxDP=1.03D-03 DE= 1.14D-02 OVMax= 2.01D-03

 Cycle 121  Pass 1  IDiag  1:
 E= -649.064215829556     Delta-E=        0.000507954143 Rises=F Damp=F
 DIIS: error= 8.90D-03 at cycle 121 NSaved=  13.
 NSaved=13 IEnMin= 4 EnMin= -649.087607301265     IErMin= 7 ErrMin= 7.26D-03
 ErrMax= 8.90D-03  0.00D+00 EMaxC= 1.00D-01 BMatC= 6.41D-03 BMatP= 4.04D-03
 IDIUse=3 WtCom= 9.35D-01 WtEn= 6.53D-02
 Large coefficients: NSaved= 13 BigCof=  136.76 CofMax=   10.00 Det=-4.58D-09
 Inversion failed.  Reducing to 12 matrices.
 Large coefficients: NSaved= 12 BigCof=  140.44 CofMax=   10.00 Det=-4.69D-09
 Inversion failed.  Reducing to 11 matrices.
 Large coefficients: NSaved= 11 BigCof=  182.69 CofMax=   10.00 Det=-4.90D-09
 Inversion failed.  Reducing to 10 matrices.
 Large coefficients: NSaved= 10 BigCof=  156.13 CofMax=   10.00 Det=-7.71D-09
 Inversion failed.  Reducing to  9 matrices.
 Large coefficients: NSaved=  9 BigCof=   11.10 CofMax=   10.00 Det=-1.16D-08
 Inversion failed.  Reducing to  8 matrices.
 Large coefficients: NSaved=  8 BigCof=   11.92 CofMax=   10.00 Det=-1.23D-08
 Inversion failed.  Reducing to  7 matrices.
 EnCoef did   100 forward-backward iterations
 Rare condition: small coef for last iteration:  0.000D+00
 Coeff-Com: -0.668D+00 0.571D+00-0.311D+00 0.610D+00 0.911D+00-0.788D+01
 Coeff-Com:  0.777D+01
 Coeff-En:   0.378D-02 0.511D+00 0.000D+00 0.000D+00 0.000D+00 0.000D+00
 Coeff-En:   0.486D+00
 Coeff:     -0.668D+00 0.571D+00-0.311D+00 0.610D+00 0.911D+00-0.788D+01
 Coeff:      0.777D+01
 Gap=     0.031 Goal=   None    Shift=    0.000
 RMSDP=2.53D-03 MaxDP=1.65D-01 DE= 5.08D-04 OVMax= 1.96D-01

 Cycle 122  Pass 1  IDiag  1:
 E= -649.015525674412     Delta-E=        0.048690155144 Rises=F Damp=F
 DIIS: error= 7.10D-03 at cycle 122 NSaved=   8.
 NSaved= 8 IEnMin= 4 EnMin= -649.087607301265     IErMin= 8 ErrMin= 7.10D-03
 ErrMax= 7.10D-03  0.00D+00 EMaxC= 1.00D-01 BMatC= 7.27D-03 BMatP= 4.04D-03
 IDIUse=3 WtCom= 9.35D-01 WtEn= 6.53D-02
 Large coefficients: NSaved=  8 BigCof=   53.21 CofMax=   10.00 Det=-1.09D-08
 Inversion failed.  Reducing to  7 matrices.
 Large coefficients: NSaved=  7 BigCof=  116.68 CofMax=   10.00 Det=-1.87D-08
 Inversion failed.  Reducing to  6 matrices.
 EnCoef did   100 forward-backward iterations
 Rare condition: small coef for last iteration:  0.000D+00
 Coeff-Com: -0.399D+00 0.541D+00 0.723D+00 0.282D+01-0.320D+01 0.509D+00
 Coeff-En:   0.407D-01 0.548D+00 0.000D+00 0.000D+00 0.000D+00 0.411D+00
 Coeff:     -0.399D+00 0.541D+00 0.723D+00 0.282D+01-0.320D+01 0.509D+00
 Gap=     0.030 Goal=   None    Shift=    0.000
 RMSDP=4.94D-04 MaxDP=2.48D-02 DE= 4.87D-02 OVMax= 3.17D-02

 Cycle 123  Pass 1  IDiag  1:
 E= -649.022824245921     Delta-E=       -0.007298571509 Rises=F Damp=F
 DIIS: error= 7.13D-03 at cycle 123 NSaved=   7.
 NSaved= 7 IEnMin= 3 EnMin= -649.087607301265     IErMin= 6 ErrMin= 7.10D-03
 ErrMax= 7.13D-03  0.00D+00 EMaxC= 1.00D-01 BMatC= 6.71D-03 BMatP= 4.04D-03
 IDIUse=3 WtCom= 9.35D-01 WtEn= 6.53D-02
 EnCoef did   100 forward-backward iterations
 Coeff-Com: -0.146D+01 0.426D+00 0.114D+01 0.706D+01-0.789D+01-0.161D+01
 Coeff-Com:  0.334D+01
 Coeff-En:   0.313D-02 0.475D+00 0.509D+00 0.637D-02 0.942D-04 0.000D+00
 Coeff-En:   0.648D-02
 Coeff:     -0.137D+01 0.429D+00 0.110D+01 0.660D+01-0.738D+01-0.150D+01
 Coeff:      0.312D+01
 Gap=     0.017 Goal=   None    Shift=    0.000
 RMSDP=1.87D-03 MaxDP=1.12D-01 DE=-7.30D-03 OVMax= 1.52D-01

 Cycle 124  Pass 1  IDiag  1:
 E= -649.055524712470     Delta-E=       -0.032700466549 Rises=F Damp=F
 DIIS: error= 8.96D-03 at cycle 124 NSaved=   8.
 NSaved= 8 IEnMin= 3 EnMin= -649.087607301265     IErMin= 6 ErrMin= 7.10D-03
 ErrMax= 8.96D-03  0.00D+00 EMaxC= 1.00D-01 BMatC= 6.73D-03 BMatP= 4.04D-03
 IDIUse=3 WtCom= 9.35D-01 WtEn= 6.53D-02
 EnCoef did   100 forward-backward iterations
 Rare condition: small coef for last iteration:  0.452D-15
 Coeff-Com: -0.178D+01 0.416D+00 0.121D+01 0.746D+01-0.837D+01-0.183D+01
 Coeff-Com:  0.363D+01 0.272D+00
 Coeff-En:   0.152D-01 0.517D+00 0.000D+00 0.000D+00 0.000D+00 0.000D+00
 Coeff-En:   0.000D+00 0.468D+00
 Coeff:     -0.178D+01 0.416D+00 0.121D+01 0.746D+01-0.837D+01-0.183D+01
 Coeff:      0.363D+01 0.272D+00
 Gap=     0.017 Goal=   None    Shift=    0.000
 RMSDP=1.26D-04 MaxDP=3.21D-03 DE=-3.27D-02 OVMax= 7.27D-03

 Cycle 125  Pass 1  IDiag  1:
 E= -649.056900428473     Delta-E=       -0.001375716002 Rises=F Damp=F
 DIIS: error= 8.99D-03 at cycle 125 NSaved=   9.
 NSaved= 9 IEnMin= 3 EnMin= -649.087607301265     IErMin= 6 ErrMin= 7.10D-03
 ErrMax= 8.99D-03  0.00D+00 EMaxC= 1.00D-01 BMatC= 6.70D-03 BMatP= 4.04D-03
 IDIUse=3 WtCom= 9.35D-01 WtEn= 6.53D-02
 EnCoef did   100 forward-backward iterations
 Coeff-Com: -0.179D+01 0.417D+00 0.121D+01 0.742D+01-0.833D+01-0.181D+01
 Coeff-Com:  0.360D+01-0.155D+00 0.435D+00
 Coeff-En:   0.937D-03 0.473D+00 0.524D+00 0.229D-03 0.154D-03 0.000D+00
 Coeff-En:   0.000D+00 0.000D+00 0.170D-02
 Coeff:     -0.167D+01 0.421D+00 0.116D+01 0.694D+01-0.778D+01-0.169D+01
 Coeff:      0.336D+01-0.145D+00 0.407D+00
 Gap=     0.016 Goal=   None    Shift=    0.000
 RMSDP=1.82D-04 MaxDP=7.57D-03 DE=-1.38D-03 OVMax= 1.94D-02

 Cycle 126  Pass 1  IDiag  1:
 E= -649.061856000220     Delta-E=       -0.004955571748 Rises=F Damp=F
 DIIS: error= 9.08D-03 at cycle 126 NSaved=  10.
 NSaved=10 IEnMin= 3 EnMin= -649.087607301265     IErMin= 6 ErrMin= 7.10D-03
 ErrMax= 9.08D-03  0.00D+00 EMaxC= 1.00D-01 BMatC= 6.63D-03 BMatP= 4.04D-03
 IDIUse=3 WtCom= 9.35D-01 WtEn= 6.53D-02
 Large coefficients: NSaved= 10 BigCof=   32.86 CofMax=   10.00 Det=-8.01D-08
 Inversion failed.  Reducing to  9 matrices.
 Large coefficients: NSaved=  9 BigCof=   17.69 CofMax=   10.00 Det=-8.87D-08
 Inversion failed.  Reducing to  8 matrices.
 Large coefficients: NSaved=  8 BigCof=   40.77 CofMax=   10.00 Det=-1.50D-07
 Inversion failed.  Reducing to  7 matrices.
 Large coefficients: NSaved=  7 BigCof=   13.76 CofMax=   10.00 Det=-8.65D-07
 Inversion failed.  Reducing to  6 matrices.
 EnCoef did   100 forward-backward iterations
 Coeff-Com:  0.449D-01 0.563D+00 0.435D+00 0.157D+01 0.369D+01-0.530D+01
 Coeff-En:   0.912D-03 0.473D+00 0.524D+00 0.223D-03 0.165D-02 0.150D-03
 Coeff:      0.420D-01 0.557D+00 0.441D+00 0.147D+01 0.345D+01-0.495D+01
 Gap=     0.023 Goal=   None    Shift=    0.000
 RMSDP=1.83D-03 MaxDP=8.85D-02 DE=-4.96D-03 OVMax= 1.57D-01

 Cycle 127  Pass 1  IDiag  1:
 E= -649.026950663633     Delta-E=        0.034905336588 Rises=F Damp=F
 DIIS: error= 7.28D-03 at cycle 127 NSaved=   7.
 NSaved= 7 IEnMin= 3 EnMin= -649.087607301265     IErMin= 7 ErrMin= 7.28D-03
 ErrMax= 7.28D-03  0.00D+00 EMaxC= 1.00D-01 BMatC= 6.75D-03 BMatP= 4.04D-03
 IDIUse=3 WtCom= 9.35D-01 WtEn= 6.53D-02
 EnCoef did   100 forward-backward iterations
 Rare condition: small coef for last iteration: -0.216D-15
 Coeff-Com: -0.737D+00 0.559D+00 0.198D+00 0.750D+00-0.662D+01 0.613D+01
 Coeff-Com:  0.723D+00
 Coeff-En:   0.316D-01 0.542D+00 0.000D+00 0.000D+00 0.000D+00 0.000D+00
 Coeff-En:   0.427D+00
 Coeff:     -0.737D+00 0.559D+00 0.198D+00 0.750D+00-0.662D+01 0.613D+01
 Coeff:      0.723D+00
 Gap=     0.026 Goal=   None    Shift=    0.000
 RMSDP=3.20D-04 MaxDP=1.46D-02 DE= 3.49D-02 OVMax= 2.46D-02

 Cycle 128  Pass 1  IDiag  1:
 E= -649.022081421198     Delta-E=        0.004869242434 Rises=F Damp=F
 DIIS: error= 7.01D-03 at cycle 128 NSaved=   8.
 NSaved= 8 IEnMin= 3 EnMin= -649.087607301265     IErMin= 8 ErrMin= 7.01D-03
 ErrMax= 7.01D-03  0.00D+00 EMaxC= 1.00D-01 BMatC= 6.82D-03 BMatP= 4.04D-03
 IDIUse=3 WtCom= 9.35D-01 WtEn= 6.53D-02
 Large coefficients: NSaved=  8 BigCof=   21.30 CofMax=   10.00 Det=-2.11D-07
 Inversion failed.  Reducing to  7 matrices.
 EnCoef did   100 forward-backward iterations
 Rare condition: small coef for last iteration:  0.000D+00
 Coeff-Com: -0.532D-01 0.524D+00 0.358D+00 0.208D+01-0.213D+01-0.221D+01
 Coeff-Com:  0.243D+01
 Coeff-En:   0.370D-01 0.544D+00 0.000D+00 0.000D+00 0.000D+00 0.000D+00
 Coeff-En:   0.419D+00
 Coeff:     -0.532D-01 0.524D+00 0.358D+00 0.208D+01-0.213D+01-0.221D+01
 Coeff:      0.243D+01
 Gap=     0.019 Goal=   None    Shift=    0.000
 RMSDP=8.17D-04 MaxDP=4.62D-02 DE= 4.87D-03 OVMax= 6.56D-02

 >>>>>>>>>> Convergence criterion not met.
 SCF Done:  E(RB3LYP) =  -649.022081421     A.U. after  129 cycles
            NFock=128  Conv=0.82D-03     -V/T= 2.0025
 KE= 6.473928903944D+02 PE=-1.696397064311D+03 EE= 3.315653654357D+02
 Leave Link  502 at Thu Oct  5 20:33:27 2023, MaxMem=  1610612736 cpu:            1367.2 elap:             849.8
 (Enter /home/sekinelabo/g16/l601.exe)
 Copying SCF densities to generalized density rwf, IOpCl= 0 IROHF=0.

 **********************************************************************

            Population analysis using the SCF Density.

 **********************************************************************

 Orbital symmetries:
       Occupied  (A) (A) (A) (A) (A) (A) (A) (A) (A) (A) (A) (A)
                 (A) (A) (A) (A) (A) (A) (A) (A) (A) (A)
       Virtual   (A) (A) (A) (A) (A) (A) (A) (A) (A) (A) (A) (A)
                 (A) (A) (A) (A) (A) (A) (A) (A) (A) (A) (A) (A)
                 (A) (A) (A) (A) (A) (A) (A) (A) (A) (A) (A) (A)
                 (A) (A) (A) (A) (A) (A) (A) (A) (A) (A) (A) (A)
                 (A) (A) (A) (A) (A) (A) (A) (A) (A) (A) (A) (A)
                 (A) (A) (A) (A) (A) (A) (A) (A) (A) (A) (A) (A)
                 (A) (A) (A) (A) (A) (A) (A) (A) (A) (A) (A) (A)
                 (A) (A) (A) (A) (A) (A) (A) (A) (A) (A) (A) (A)
                 (A) (A)
 The electronic state is 1-A.
 Alpha  occ. eigenvalues --  -38.49758 -38.45394 -38.45241 -38.43092  -2.25159
 Alpha  occ. eigenvalues --   -2.21161  -2.20819  -2.18545  -1.18830  -1.18829
 Alpha  occ. eigenvalues --   -1.18802  -1.14830  -1.14829  -1.14799  -1.14504
 Alpha  occ. eigenvalues --   -1.14501  -1.14442  -1.12221  -1.12220  -1.12212
 Alpha  occ. eigenvalues --   -0.13837  -0.10402
 Alpha virt. eigenvalues --   -0.08501  -0.05986  -0.03167  -0.03099  -0.02052
 Alpha virt. eigenvalues --   -0.01488  -0.01305  -0.00584  -0.00458   0.00019
 Alpha virt. eigenvalues --    0.00089   0.00561   0.00696   0.00853   0.01199
 Alpha virt. eigenvalues --    0.01259   0.01406   0.01696   0.01766   0.01928
 Alpha virt. eigenvalues --    0.02082   0.02217   0.02328   0.02509   0.02678
 Alpha virt. eigenvalues --    0.02972   0.03135   0.03247   0.03500   0.04842
 Alpha virt. eigenvalues --    0.06446   0.07322   0.07382   0.07620   0.07676
 Alpha virt. eigenvalues --    0.07770   0.08962   0.09011   0.09411   0.09496
 Alpha virt. eigenvalues --    0.09636   0.09754   0.10907   0.11468   0.12567
 Alpha virt. eigenvalues --    0.14436   0.29750   0.29997   0.30590   0.32424
 Alpha virt. eigenvalues --    0.32527   0.32576   0.32752   0.32941   0.33816
 Alpha virt. eigenvalues --    0.34666   0.36325   0.36375   0.36872   0.36892
 Alpha virt. eigenvalues --    0.37096   0.37181   0.37421   0.40449   0.41012
 Alpha virt. eigenvalues --    0.42484   0.42649   0.43005   0.43376   0.43503
 Alpha virt. eigenvalues --    0.44795   0.44891   0.45218   0.45962   0.46675
 Alpha virt. eigenvalues --    0.47284   0.49193   0.58993   1.97960   2.01344
 Alpha virt. eigenvalues --    2.04116   2.11477   4.39442   4.39831   4.40350
 Alpha virt. eigenvalues --    4.42855   4.43572   4.44262   4.44506   4.44927
 Alpha virt. eigenvalues --    4.45966   4.46090   4.46638   4.51166  96.16419
 Alpha virt. eigenvalues --   96.20367  96.23268  96.32569
          Condensed to atoms (all electrons):
               1          2          3          4
     1  Na  10.675242  -0.173667   0.305231   0.001414
     2  Na  -0.173667  12.196609  -0.051967  -0.021457
     3  Na   0.305231  -0.051967  10.844976   0.033296
     4  Na   0.001414  -0.021457   0.033296  10.097474
 Mulliken charges:
               1
     1  Na   0.191780
     2  Na  -0.949517
     3  Na  -0.131535
     4  Na   0.889272
 Sum of Mulliken charges =  -0.00000
 Mulliken charges with hydrogens summed into heavy atoms:
               1
     1  Na   0.191780
     2  Na  -0.949517
     3  Na  -0.131535
     4  Na   0.889272
 Electronic spatial extent (au):  <R**2>=           2607.7546
 Charge=             -0.0000 electrons
 Dipole moment (field-independent basis, Debye):
    X=            -39.4942    Y=            -10.8002    Z=             -0.4683  Tot=             40.9470
 Quadrupole moment (field-independent basis, Debye-Ang):
   XX=             52.6186   YY=            -82.0499   ZZ=            -44.5339
   XY=            -60.0532   XZ=              2.2472   YZ=              0.8741
 Traceless Quadrupole moment (field-independent basis, Debye-Ang):
   XX=             77.2736   YY=            -57.3948   ZZ=            -19.8788
   XY=            -60.0532   XZ=              2.2472   YZ=              0.8741
 Octapole moment (field-independent basis, Debye-Ang**2):
  XXX=          -1093.7462  YYY=           -187.7200  ZZZ=             -2.1030  XYY=           -189.6368
  XXY=           -112.6446  XXZ=            -27.3000  XZZ=            -69.2418  YZZ=            -21.0261
  YYZ=             -3.0043  XYZ=              8.4685
 Hexadecapole moment (field-independent basis, Debye-Ang**3):
 XXXX=           1388.0251 YYYY=          -2033.2247 ZZZZ=           -211.6857 XXXY=          -1292.7394
 XXXZ=            134.4779 YYYX=           -774.5656 YYYZ=             16.6185 ZZZX=             11.5181
 ZZZY=              4.0744 XXYY=          -1016.6441 XXZZ=           -451.8914 YYZZ=           -318.2835
 XXYZ=              4.6606 YYXZ=             -1.7309 ZZXY=           -111.2042
 N-N= 6.841672705995D+01 E-N=-1.696451901168D+03  KE= 6.473928903944D+02
 No NMR shielding tensors so no spin-rotation constants.
 Leave Link  601 at Thu Oct  5 20:33:32 2023, MaxMem=  1610612736 cpu:               8.5 elap:               5.3
 (Enter /home/sekinelabo/g16/l701.exe)
 SCFChk:  SCF convergence  8.17D-04 required  1.00D-08


 SCF Error SCF Error SCF Error SCF Error SCF Error SCF Error SCF Error SCF Error

                                    ERROR!!!!

    SCF has not converged.  Gradients and post-SCF results would be GARBAGE!!

 SCF Error SCF Error SCF Error SCF Error SCF Error SCF Error SCF Error SCF Error


 Error termination via Lnk1e in /home/sekinelabo/g16/l701.exe at Thu Oct  5 20:33:32 2023.
 Job cpu time:       0 days  0 hours 23 minutes 38.9 seconds.
 Elapsed time:       0 days  0 hours 14 minutes 42.1 seconds.
 File lengths (MBytes):  RWF=     10 Int=      0 D2E=      0 Chk=      2 Scr=      1
