 Entering Gaussian System, Link 0=g16
 Initial command:
 /home/sekinelabo/g16/l1.exe "/home/sekinelabo/g16temp/Gau-3151686.inp" -scrdir="/home/sekinelabo/g16temp/"
 Entering Link 1 = /home/sekinelabo/g16/l1.exe PID=   3151688.
  
 Copyright (c) 1988-2017, Gaussian, Inc.  All Rights Reserved.
  
 This is part of the Gaussian(R) 16 program.  It is based on
 the Gaussian(R) 09 system (copyright 2009, Gaussian, Inc.),
 the Gaussian(R) 03 system (copyright 2003, Gaussian, Inc.),
 the Gaussian(R) 98 system (copyright 1998, Gaussian, Inc.),
 the Gaussian(R) 94 system (copyright 1995, Gaussian, Inc.),
 the Gaussian 92(TM) system (copyright 1992, Gaussian, Inc.),
 the Gaussian 90(TM) system (copyright 1990, Gaussian, Inc.),
 the Gaussian 88(TM) system (copyright 1988, Gaussian, Inc.),
 the Gaussian 86(TM) system (copyright 1986, Carnegie Mellon
 University), and the Gaussian 82(TM) system (copyright 1983,
 Carnegie Mellon University). Gaussian is a federally registered
 trademark of Gaussian, Inc.
  
 This software contains proprietary and confidential information,
 including trade secrets, belonging to Gaussian, Inc.
  
 This software is provided under written license and may be
 used, copied, transmitted, or stored only in accord with that
 written license.
  
 The following legend is applicable only to US Government
 contracts under FAR:
  
                    RESTRICTED RIGHTS LEGEND
  
 Use, reproduction and disclosure by the US Government is
 subject to restrictions as set forth in subparagraphs (a)
 and (c) of the Commercial Computer Software - Restricted
 Rights clause in FAR 52.227-19.
  
 Gaussian, Inc.
 340 Quinnipiac St., Bldg. 40, Wallingford CT 06492
  
  
 ---------------------------------------------------------------
 Warning -- This program may not be used in any manner that
 competes with the business of Gaussian, Inc. or will provide
 assistance to any competitor of Gaussian, Inc.  The licensee
 of this program is prohibited from giving any competitor of
 Gaussian, Inc. access to this program.  By using this program,
 the user acknowledges that Gaussian, Inc. is engaged in the
 business of creating and licensing software in the field of
 computational chemistry and represents and warrants to the
 licensee that it is not a competitor of Gaussian, Inc. and that
 it will not use this program in any manner prohibited above.
 ---------------------------------------------------------------
  

 Cite this work as:
 Gaussian 16, Revision B.01,
 M. J. Frisch, G. W. Trucks, H. B. Schlegel, G. E. Scuseria, 
 M. A. Robb, J. R. Cheeseman, G. Scalmani, V. Barone, 
 G. A. Petersson, H. Nakatsuji, X. Li, M. Caricato, A. V. Marenich, 
 J. Bloino, B. G. Janesko, R. Gomperts, B. Mennucci, H. P. Hratchian, 
 J. V. Ortiz, A. F. Izmaylov, J. L. Sonnenberg, D. Williams-Young, 
 F. Ding, F. Lipparini, F. Egidi, J. Goings, B. Peng, A. Petrone, 
 T. Henderson, D. Ranasinghe, V. G. Zakrzewski, J. Gao, N. Rega, 
 G. Zheng, W. Liang, M. Hada, M. Ehara, K. Toyota, R. Fukuda, 
 J. Hasegawa, M. Ishida, T. Nakajima, Y. Honda, O. Kitao, H. Nakai, 
 T. Vreven, K. Throssell, J. A. Montgomery, Jr., J. E. Peralta, 
 F. Ogliaro, M. J. Bearpark, J. J. Heyd, E. N. Brothers, K. N. Kudin, 
 V. N. Staroverov, T. A. Keith, R. Kobayashi, J. Normand, 
 K. Raghavachari, A. P. Rendell, J. C. Burant, S. S. Iyengar, 
 J. Tomasi, M. Cossi, J. M. Millam, M. Klene, C. Adamo, R. Cammi, 
 J. W. Ochterski, R. L. Martin, K. Morokuma, O. Farkas, 
 J. B. Foresman, and D. J. Fox, Gaussian, Inc., Wallingford CT, 2016.
 
 ******************************************
 Gaussian 16:  ES64L-G16RevB.01 20-Dec-2017
                11-Sep-2023 
 ******************************************
 %NProcShared=16
 Will use up to   16 processors via shared memory.
 %mem=12GB
 %Chk=checkpoint.chk
 -------------------------
 #p B3LYP/6-311+g(d) force
 -------------------------
 1/10=7,30=1,38=1/1,3;
 2/12=2,17=6,18=5,40=1/2;
 3/5=4,6=6,7=11,11=2,25=1,30=1,71=1,74=-5/1,2,3;
 4//1;
 5/5=2,38=5/2;
 6/7=2,8=2,9=2,10=2,28=1/1;
 7/29=1/1,2,3,16;
 1/10=7,30=1/3;
 99//99;
 Leave Link    1 at Mon Sep 11 10:45:31 2023, MaxMem=  1610612736 cpu:               0.2 elap:               0.0
 (Enter /home/sekinelabo/g16/l101.exe)


 Symbolic Z-matrix:
 Charge =  0 Multiplicity = 1
 Na                    0.        0.        0. 
 Na                    0.        0.        3.70053 
 Na                    0.        0.        8.22505 
 Na                    0.        0.        10.58526 
 
 ITRead=  0  0  0  0
 MicOpt= -1 -1 -1 -1
 NAtoms=      4 NQM=        4 NQMF=       0 NMMI=      0 NMMIF=      0
                NMic=       0 NMicF=      0.
                    Isotopes and Nuclear Properties:
 (Nuclear quadrupole moments (NQMom) in fm**2, nuclear magnetic moments (NMagM)
  in nuclear magnetons)

  Atom         1           2           3           4
 IAtWgt=          23          23          23          23
 AtmWgt=  22.9897697  22.9897697  22.9897697  22.9897697
 NucSpn=           3           3           3           3
 AtZEff=  -0.0000000  -0.0000000  -0.0000000  -0.0000000
 NQMom=   10.4000000  10.4000000  10.4000000  10.4000000
 NMagM=    2.2175200   2.2175200   2.2175200   2.2175200
 AtZNuc=  11.0000000  11.0000000  11.0000000  11.0000000
 Leave Link  101 at Mon Sep 11 10:45:31 2023, MaxMem=  1610612736 cpu:               1.6 elap:               0.1
 (Enter /home/sekinelabo/g16/l103.exe)

 GradGradGradGradGradGradGradGradGradGradGradGradGradGradGradGradGradGrad
 Berny optimization.
 Initialization pass.
 Trust Radius=3.00D-01 FncErr=1.00D-07 GrdErr=1.00D-07 EigMax=2.50D+02 EigMin=1.00D-04
 Number of steps in this run=      2 maximum allowed number of steps=      2.
 GradGradGradGradGradGradGradGradGradGradGradGradGradGradGradGradGradGrad

 Leave Link  103 at Mon Sep 11 10:45:31 2023, MaxMem=  1610612736 cpu:               0.2 elap:               0.0
 (Enter /home/sekinelabo/g16/l202.exe)
                          Input orientation:                          
 ---------------------------------------------------------------------
 Center     Atomic      Atomic             Coordinates (Angstroms)
 Number     Number       Type             X           Y           Z
 ---------------------------------------------------------------------
      1         11           0        0.000000    0.000000    0.000000
      2         11           0        0.000000    0.000000    3.700534
      3         11           0        0.000000    0.000000    8.225051
      4         11           0        0.000000    0.000000   10.585262
 ---------------------------------------------------------------------
                    Distance matrix (angstroms):
                    1          2          3          4
     1  Na   0.000000
     2  Na   3.700534   0.000000
     3  Na   8.225051   4.524517   0.000000
     4  Na  10.585262   6.884729   2.360212   0.000000
 Stoichiometry    Na4
 Framework group  C*V[C*(NaNaNaNa)]
 Deg. of freedom     3
 Full point group                 C*V     NOp   4
 Largest Abelian subgroup         C2V     NOp   4
 Largest concise Abelian subgroup C1      NOp   1
                         Standard orientation:                         
 ---------------------------------------------------------------------
 Center     Atomic      Atomic             Coordinates (Angstroms)
 Number     Number       Type             X           Y           Z
 ---------------------------------------------------------------------
      1         11           0        0.000000    0.000000    5.627712
      2         11           0        0.000000    0.000000    1.927178
      3         11           0        0.000000    0.000000   -2.597339
      4         11           0        0.000000    0.000000   -4.957551
 ---------------------------------------------------------------------
 Rotational constants (GHZ):           0.0000000           0.3295342           0.3295342
 Leave Link  202 at Mon Sep 11 10:45:31 2023, MaxMem=  1610612736 cpu:               0.0 elap:               0.0
 (Enter /home/sekinelabo/g16/l301.exe)
 Standard basis: 6-311+G(d) (5D, 7F)
 Ernie: Thresh=  0.10000D-02 Tol=  0.10000D-05 Strict=F.
 There are    64 symmetry adapted cartesian basis functions of A1  symmetry.
 There are     4 symmetry adapted cartesian basis functions of A2  symmetry.
 There are    28 symmetry adapted cartesian basis functions of B1  symmetry.
 There are    28 symmetry adapted cartesian basis functions of B2  symmetry.
 There are    60 symmetry adapted basis functions of A1  symmetry.
 There are     4 symmetry adapted basis functions of A2  symmetry.
 There are    28 symmetry adapted basis functions of B1  symmetry.
 There are    28 symmetry adapted basis functions of B2  symmetry.
   120 basis functions,   200 primitive gaussians,   124 cartesian basis functions
    22 alpha electrons       22 beta electrons
       nuclear repulsion energy        81.7182107757 Hartrees.
 IExCor=  402 DFT=T Ex+Corr=B3LYP ExCW=0 ScaHFX=  0.200000
 ScaDFX=  0.800000  0.720000  1.000000  0.810000 ScalE2=  1.000000  1.000000
 IRadAn=      5 IRanWt=     -1 IRanGd=            0 ICorTp=0 IEmpDi=  4
 NAtoms=    4 NActive=    4 NUniq=    4 SFac= 1.00D+00 NAtFMM=   60 NAOKFM=F Big=F
 Integral buffers will be    131072 words long.
 Raffenetti 2 integral format.
 Two-electron integral symmetry is turned on.
 Leave Link  301 at Mon Sep 11 10:45:31 2023, MaxMem=  1610612736 cpu:               0.4 elap:               0.0
 (Enter /home/sekinelabo/g16/l302.exe)
 NPDir=0 NMtPBC=     1 NCelOv=     1 NCel=       1 NClECP=     1 NCelD=      1
         NCelK=      1 NCelE2=     1 NClLst=     1 CellRange=     0.0.
 One-electron integrals computed using PRISM.
 One-electron integral symmetry used in STVInt
 NBasis=   120 RedAO= T EigKep=  5.48D-06  NBF=    60     4    28    28
 NBsUse=   119 1.00D-06 EigRej=  1.54D-07 NBFU=    59     4    28    28
 Precomputing XC quadrature grid using
 IXCGrd= 4 IRadAn=           5 IRanWt=          -1 IRanGd=           0 AccXCQ= 0.00D+00.
 Generated NRdTot=       0 NPtTot=           0 NUsed=           0 NTot=          32
 NSgBfM=   112   112   112   112   112 MxSgAt=     4 MxSgA2=     4.
 Leave Link  302 at Mon Sep 11 10:45:31 2023, MaxMem=  1610612736 cpu:               1.3 elap:               0.1
 (Enter /home/sekinelabo/g16/l303.exe)
 DipDrv:  MaxL=1.
 Leave Link  303 at Mon Sep 11 10:45:31 2023, MaxMem=  1610612736 cpu:               0.3 elap:               0.0
 (Enter /home/sekinelabo/g16/l401.exe)
 ExpMin= 7.60D-03 ExpMax= 3.62D+04 ExpMxC= 1.21D+03 IAcc=3 IRadAn=         5 AccDes= 0.00D+00
 Harris functional with IExCor=  402 and IRadAn=       5 diagonalized for initial guess.
 HarFok:  IExCor=  402 AccDes= 0.00D+00 IRadAn=         5 IDoV= 1 UseB2=F ITyADJ=14
 ICtDFT=  3500011 ScaDFX=  1.000000  1.000000  1.000000  1.000000
 FoFCou: FMM=F IPFlag=           0 FMFlag=      100000 FMFlg1=           0
         NFxFlg=           0 DoJE=T BraDBF=F KetDBF=T FulRan=T
         wScrn=  0.000000 ICntrl=       500 IOpCl=  0 I1Cent=   200000004 NGrid=           0
         NMat0=    1 NMatS0=      1 NMatT0=    0 NMatD0=    1 NMtDS0=    0 NMtDT0=    0
 Petite list used in FoFCou.
 Harris En= -649.054536140429    
 JPrj=0 DoOrth=F DoCkMO=F.
 Initial guess orbital symmetries:
       Occupied  (SG) (SG) (SG) (SG) (SG) (SG) (SG) (SG) (SG) (PI)
                 (PI) (PI) (PI) (SG) (SG) (PI) (PI) (SG) (PI) (PI)
                 (SG) (SG)
       Virtual   (SG) (SG) (PI) (PI) (PI) (PI) (SG) (PI) (PI) (SG)
                 (SG) (PI) (PI) (SG) (SG) (PI) (PI) (PI) (PI) (SG)
                 (SG) (PI) (PI) (PI) (PI) (SG) (SG) (SG) (SG) (PI)
                 (PI) (SG) (SG) (PI) (PI) (SG) (PI) (PI) (PI) (PI)
                 (SG) (SG) (SG) (SG) (SG) (PI) (PI) (DLTA) (DLTA)
                 (PI) (PI) (SG) (DLTA) (DLTA) (DLTA) (DLTA) (SG)
                 (DLTA) (DLTA) (PI) (PI) (PI) (PI) (PI) (PI) (PI)
                 (PI) (PI) (PI) (SG) (SG) (SG) (SG) (SG) (PI) (PI)
                 (SG) (SG) (SG) (SG) (SG) (PI) (PI) (PI) (PI) (PI)
                 (PI) (SG) (PI) (PI) (SG) (SG) (SG) (SG) (SG) (SG)
                 (SG)
 The electronic state of the initial guess is 1-SG.
 Leave Link  401 at Mon Sep 11 10:45:31 2023, MaxMem=  1610612736 cpu:               1.5 elap:               0.1
 (Enter /home/sekinelabo/g16/l502.exe)
 Keep R1 ints in memory in symmetry-blocked form, NReq=41601362.
 FoFCou: FMM=F IPFlag=           0 FMFlag=           0 FMFlg1=           0
         NFxFlg=           0 DoJE=F BraDBF=F KetDBF=F FulRan=T
         wScrn=  0.000000 ICntrl=       600 IOpCl=  0 I1Cent=           0 NGrid=           0
         NMat0=    1 NMatS0=   7260 NMatT0=    0 NMatD0=    1 NMtDS0=    0 NMtDT0=    0
 Petite list used in FoFCou.
 Closed shell SCF:
 Using DIIS extrapolation, IDIIS=  1040.
 NGot=  1610612736 LenX=  1603303464 LenY=  1603287647
 Requested convergence on RMS density matrix=1.00D-08 within 128 cycles.
 Requested convergence on MAX density matrix=1.00D-06.
 Requested convergence on             energy=1.00D-06.
 No special actions if energy rises.

 Cycle   1  Pass 1  IDiag  1:
 E= -649.169911307640    
 DIIS: error= 1.49D-02 at cycle   1 NSaved=   1.
 NSaved= 1 IEnMin= 1 EnMin= -649.169911307640     IErMin= 1 ErrMin= 1.49D-02
 ErrMax= 1.49D-02  0.00D+00 EMaxC= 1.00D-01 BMatC= 2.65D-02 BMatP= 2.65D-02
 IDIUse=3 WtCom= 8.51D-01 WtEn= 1.49D-01
 Coeff-Com:  0.100D+01
 Coeff-En:   0.100D+01
 Coeff:      0.100D+01
 Gap=     0.050 Goal=   None    Shift=    0.000
 GapD=    0.050 DampG=0.500 DampE=0.500 DampFc=0.2500 IDamp=-1.
 Damping current iteration by 2.50D-01
 RMSDP=2.12D-02 MaxDP=9.04D-01              OVMax= 7.37D-02

 Cycle   2  Pass 1  IDiag  1:
 E= -649.173909423081     Delta-E=       -0.003998115441 Rises=F Damp=T
 DIIS: error= 1.04D-02 at cycle   2 NSaved=   2.
 NSaved= 2 IEnMin= 2 EnMin= -649.173909423081     IErMin= 2 ErrMin= 1.04D-02
 ErrMax= 1.04D-02  0.00D+00 EMaxC= 1.00D-01 BMatC= 1.03D-02 BMatP= 2.65D-02
 IDIUse=3 WtCom= 8.96D-01 WtEn= 1.04D-01
 Coeff-Com: -0.131D+01 0.231D+01
 Coeff-En:   0.000D+00 0.100D+01
 Coeff:     -0.118D+01 0.218D+01
 Gap=     0.052 Goal=   None    Shift=    0.000
 RMSDP=1.50D-02 MaxDP=6.26D-01 DE=-4.00D-03 OVMax= 2.98D-02

 Cycle   3  Pass 1  IDiag  1:
 E= -649.182272422509     Delta-E=       -0.008362999428 Rises=F Damp=F
 DIIS: error= 4.71D-04 at cycle   3 NSaved=   3.
 NSaved= 3 IEnMin= 3 EnMin= -649.182272422509     IErMin= 3 ErrMin= 4.71D-04
 ErrMax= 4.71D-04  0.00D+00 EMaxC= 1.00D-01 BMatC= 1.94D-05 BMatP= 1.03D-02
 IDIUse=3 WtCom= 9.95D-01 WtEn= 4.71D-03
 Coeff-Com:  0.397D-01-0.461D-01 0.101D+01
 Coeff-En:   0.000D+00 0.000D+00 0.100D+01
 Coeff:      0.395D-01-0.459D-01 0.101D+01
 Gap=     0.053 Goal=   None    Shift=    0.000
 RMSDP=2.34D-03 MaxDP=8.92D-02 DE=-8.36D-03 OVMax= 2.44D-02

 Cycle   4  Pass 1  IDiag  1:
 E= -649.182213551518     Delta-E=        0.000058870991 Rises=F Damp=F
 DIIS: error= 7.30D-04 at cycle   4 NSaved=   4.
 NSaved= 4 IEnMin= 3 EnMin= -649.182272422509     IErMin= 3 ErrMin= 4.71D-04
 ErrMax= 7.30D-04  0.00D+00 EMaxC= 1.00D-01 BMatC= 2.19D-05 BMatP= 1.94D-05
 IDIUse=3 WtCom= 2.70D-01 WtEn= 7.30D-01
 Coeff-Com:  0.302D-01-0.391D-01 0.560D+00 0.449D+00
 Coeff-En:   0.000D+00 0.000D+00 0.665D+00 0.335D+00
 Coeff:      0.816D-02-0.106D-01 0.637D+00 0.366D+00
 Gap=     0.053 Goal=   None    Shift=    0.000
 RMSDP=9.70D-04 MaxDP=3.44D-02 DE= 5.89D-05 OVMax= 1.66D-02

 Cycle   5  Pass 1  IDiag  1:
 E= -649.182326349112     Delta-E=       -0.000112797593 Rises=F Damp=F
 DIIS: error= 7.31D-05 at cycle   5 NSaved=   5.
 NSaved= 5 IEnMin= 5 EnMin= -649.182326349112     IErMin= 5 ErrMin= 7.31D-05
 ErrMax= 7.31D-05  0.00D+00 EMaxC= 1.00D-01 BMatC= 9.15D-07 BMatP= 1.94D-05
 IDIUse=1 WtCom= 1.00D+00 WtEn= 0.00D+00
 Coeff-Com: -0.830D-02 0.108D-01 0.126D+00 0.940D-01 0.778D+00
 Coeff:     -0.830D-02 0.108D-01 0.126D+00 0.940D-01 0.778D+00
 Gap=     0.053 Goal=   None    Shift=    0.000
 RMSDP=2.25D-04 MaxDP=9.17D-03 DE=-1.13D-04 OVMax= 1.38D-03

 Cycle   6  Pass 1  IDiag  1:
 E= -649.182327372402     Delta-E=       -0.000001023291 Rises=F Damp=F
 DIIS: error= 1.10D-05 at cycle   6 NSaved=   6.
 NSaved= 6 IEnMin= 6 EnMin= -649.182327372402     IErMin= 6 ErrMin= 1.10D-05
 ErrMax= 1.10D-05  0.00D+00 EMaxC= 1.00D-01 BMatC= 1.76D-08 BMatP= 9.15D-07
 IDIUse=1 WtCom= 1.00D+00 WtEn= 0.00D+00
 Coeff-Com: -0.388D-02 0.506D-02 0.206D-01 0.133D-01 0.210D+00 0.755D+00
 Coeff:     -0.388D-02 0.506D-02 0.206D-01 0.133D-01 0.210D+00 0.755D+00
 Gap=     0.053 Goal=   None    Shift=    0.000
 RMSDP=1.12D-05 MaxDP=2.72D-04 DE=-1.02D-06 OVMax= 1.80D-04

 Cycle   7  Pass 1  IDiag  1:
 E= -649.182327391836     Delta-E=       -0.000000019433 Rises=F Damp=F
 DIIS: error= 2.61D-06 at cycle   7 NSaved=   7.
 NSaved= 7 IEnMin= 7 EnMin= -649.182327391836     IErMin= 7 ErrMin= 2.61D-06
 ErrMax= 2.61D-06  0.00D+00 EMaxC= 1.00D-01 BMatC= 1.44D-09 BMatP= 1.76D-08
 IDIUse=1 WtCom= 1.00D+00 WtEn= 0.00D+00
 Coeff-Com: -0.810D-03 0.105D-02-0.374D-02-0.360D-02 0.104D-01 0.234D+00
 Coeff-Com:  0.763D+00
 Coeff:     -0.810D-03 0.105D-02-0.374D-02-0.360D-02 0.104D-01 0.234D+00
 Coeff:      0.763D+00
 Gap=     0.053 Goal=   None    Shift=    0.000
 RMSDP=5.06D-06 MaxDP=1.50D-04 DE=-1.94D-08 OVMax= 4.61D-05

 Cycle   8  Pass 1  IDiag  1:
 E= -649.182327393273     Delta-E=       -0.000000001437 Rises=F Damp=F
 DIIS: error= 4.41D-07 at cycle   8 NSaved=   8.
 NSaved= 8 IEnMin= 8 EnMin= -649.182327393273     IErMin= 8 ErrMin= 4.41D-07
 ErrMax= 4.41D-07  0.00D+00 EMaxC= 1.00D-01 BMatC= 6.03D-11 BMatP= 1.44D-09
 IDIUse=1 WtCom= 1.00D+00 WtEn= 0.00D+00
 Coeff-Com:  0.940D-04-0.128D-03-0.152D-02-0.805D-03-0.809D-02 0.158D-01
 Coeff-Com:  0.156D+00 0.838D+00
 Coeff:      0.940D-04-0.128D-03-0.152D-02-0.805D-03-0.809D-02 0.158D-01
 Coeff:      0.156D+00 0.838D+00
 Gap=     0.053 Goal=   None    Shift=    0.000
 RMSDP=1.64D-06 MaxDP=4.40D-05 DE=-1.44D-09 OVMax= 1.66D-05

 Cycle   9  Pass 1  IDiag  1:
 E= -649.182327393414     Delta-E=       -0.000000000141 Rises=F Damp=F
 DIIS: error= 2.15D-07 at cycle   9 NSaved=   9.
 NSaved= 9 IEnMin= 9 EnMin= -649.182327393414     IErMin= 9 ErrMin= 2.15D-07
 ErrMax= 2.15D-07  0.00D+00 EMaxC= 1.00D-01 BMatC= 6.97D-12 BMatP= 6.03D-11
 IDIUse=1 WtCom= 1.00D+00 WtEn= 0.00D+00
 Coeff-Com:  0.129D-03-0.170D-03-0.111D-03 0.128D-03-0.370D-02-0.185D-01
 Coeff-Com: -0.263D-01 0.284D+00 0.765D+00
 Coeff:      0.129D-03-0.170D-03-0.111D-03 0.128D-03-0.370D-02-0.185D-01
 Coeff:     -0.263D-01 0.284D+00 0.765D+00
 Gap=     0.053 Goal=   None    Shift=    0.000
 RMSDP=5.02D-07 MaxDP=1.49D-05 DE=-1.41D-10 OVMax= 3.20D-06

 Cycle  10  Pass 1  IDiag  1:
 E= -649.182327393423     Delta-E=       -0.000000000009 Rises=F Damp=F
 DIIS: error= 2.71D-08 at cycle  10 NSaved=  10.
 NSaved=10 IEnMin=10 EnMin= -649.182327393423     IErMin=10 ErrMin= 2.71D-08
 ErrMax= 2.71D-08  0.00D+00 EMaxC= 1.00D-01 BMatC= 1.27D-13 BMatP= 6.97D-12
 IDIUse=1 WtCom= 1.00D+00 WtEn= 0.00D+00
 Coeff-Com:  0.111D-04-0.144D-04 0.972D-05 0.248D-04-0.205D-03-0.284D-02
 Coeff-Com: -0.908D-02 0.252D-01 0.143D+00 0.844D+00
 Coeff:      0.111D-04-0.144D-04 0.972D-05 0.248D-04-0.205D-03-0.284D-02
 Coeff:     -0.908D-02 0.252D-01 0.143D+00 0.844D+00
 Gap=     0.053 Goal=   None    Shift=    0.000
 RMSDP=7.11D-08 MaxDP=1.66D-06 DE=-8.75D-12 OVMax= 1.14D-06

 Cycle  11  Pass 1  IDiag  1:
 E= -649.182327393422     Delta-E=        0.000000000001 Rises=F Damp=F
 DIIS: error= 1.14D-08 at cycle  11 NSaved=  11.
 NSaved=11 IEnMin=10 EnMin= -649.182327393423     IErMin=11 ErrMin= 1.14D-08
 ErrMax= 1.14D-08  0.00D+00 EMaxC= 1.00D-01 BMatC= 1.84D-14 BMatP= 1.27D-13
 IDIUse=1 WtCom= 1.00D+00 WtEn= 0.00D+00
 Coeff-Com: -0.869D-05 0.115D-04 0.933D-05 0.735D-05 0.265D-03 0.544D-03
 Coeff-Com: -0.729D-04-0.163D-01-0.322D-01 0.241D+00 0.807D+00
 Coeff:     -0.869D-05 0.115D-04 0.933D-05 0.735D-05 0.265D-03 0.544D-03
 Coeff:     -0.729D-04-0.163D-01-0.322D-01 0.241D+00 0.807D+00
 Gap=     0.053 Goal=   None    Shift=    0.000
 RMSDP=5.14D-08 MaxDP=1.70D-06 DE= 7.96D-13 OVMax= 4.37D-07

 Cycle  12  Pass 1  IDiag  1:
 E= -649.182327393423     Delta-E=       -0.000000000001 Rises=F Damp=F
 DIIS: error= 1.55D-09 at cycle  12 NSaved=  12.
 NSaved=12 IEnMin=10 EnMin= -649.182327393423     IErMin=12 ErrMin= 1.55D-09
 ErrMax= 1.55D-09  0.00D+00 EMaxC= 1.00D-01 BMatC= 1.72D-16 BMatP= 1.84D-14
 IDIUse=1 WtCom= 1.00D+00 WtEn= 0.00D+00
 Coeff-Com: -0.111D-05 0.147D-05 0.505D-06 0.482D-06 0.365D-04 0.869D-04
 Coeff-Com:  0.813D-04-0.257D-02-0.492D-02 0.458D-02 0.784D-01 0.924D+00
 Coeff:     -0.111D-05 0.147D-05 0.505D-06 0.482D-06 0.365D-04 0.869D-04
 Coeff:      0.813D-04-0.257D-02-0.492D-02 0.458D-02 0.784D-01 0.924D+00
 Gap=     0.053 Goal=   None    Shift=    0.000
 RMSDP=8.69D-09 MaxDP=3.23D-07 DE=-5.68D-13 OVMax= 4.91D-08

 SCF Done:  E(RB3LYP) =  -649.182327393     A.U. after   12 cycles
            NFock= 12  Conv=0.87D-08     -V/T= 2.0028
 KE= 6.474001401202D+02 PE=-1.722503161765D+03 EE= 3.442024834760D+02
 Leave Link  502 at Mon Sep 11 10:45:32 2023, MaxMem=  1610612736 cpu:              11.3 elap:               0.7
 (Enter /home/sekinelabo/g16/l601.exe)
 Copying SCF densities to generalized density rwf, IOpCl= 0 IROHF=0.

 **********************************************************************

            Population analysis using the SCF Density.

 **********************************************************************

 Orbital symmetries:
       Occupied  (SG) (SG) (SG) (SG) (SG) (SG) (SG) (SG) (SG) (PI)
                 (PI) (PI) (PI) (PI) (PI) (SG) (SG) (PI) (PI) (SG)
                 (SG) (SG)
       Virtual   (SG) (SG) (PI) (PI) (PI) (PI) (SG) (SG) (SG) (PI)
                 (PI) (SG) (PI) (PI) (SG) (PI) (PI) (SG) (PI) (PI)
                 (PI) (PI) (SG) (PI) (PI) (SG) (SG) (SG) (SG) (PI)
                 (PI) (SG) (SG) (PI) (PI) (SG) (PI) (PI) (PI) (PI)
                 (SG) (SG) (SG) (SG) (SG) (PI) (PI) (DLTA) (DLTA)
                 (PI) (PI) (SG) (DLTA) (DLTA) (DLTA) (DLTA) (SG)
                 (DLTA) (DLTA) (PI) (PI) (PI) (PI) (PI) (PI) (PI)
                 (PI) (PI) (PI) (SG) (SG) (SG) (SG) (SG) (PI) (PI)
                 (SG) (SG) (SG) (SG) (SG) (PI) (PI) (PI) (PI) (PI)
                 (PI) (SG) (PI) (PI) (SG) (SG) (SG) (SG) (SG) (SG)
                 (SG)
 The electronic state is 1-SG.
 Alpha  occ. eigenvalues --  -38.45598 -38.45224 -38.45209 -38.44871  -2.21567
 Alpha  occ. eigenvalues --   -2.21100  -2.20940  -2.20587  -1.16094  -1.15104
 Alpha  occ. eigenvalues --   -1.15104  -1.14651  -1.14651  -1.14615  -1.14615
 Alpha  occ. eigenvalues --   -1.14559  -1.14368  -1.14268  -1.14268  -1.14200
 Alpha  occ. eigenvalues --   -0.14441  -0.12567
 Alpha virt. eigenvalues --   -0.07317  -0.04163  -0.03199  -0.03199  -0.02080
 Alpha virt. eigenvalues --   -0.02080  -0.01163   0.00262   0.00268   0.00284
 Alpha virt. eigenvalues --    0.00284   0.01114   0.01121   0.01121   0.01265
 Alpha virt. eigenvalues --    0.01402   0.01402   0.02393   0.02615   0.02615
 Alpha virt. eigenvalues --    0.02785   0.02785   0.03081   0.03871   0.03871
 Alpha virt. eigenvalues --    0.03944   0.04720   0.05578   0.05744   0.07023
 Alpha virt. eigenvalues --    0.07023   0.07397   0.07879   0.08079   0.08079
 Alpha virt. eigenvalues --    0.09297   0.09656   0.09656   0.10644   0.10644
 Alpha virt. eigenvalues --    0.12429   0.13797   0.14923   0.15629   0.20005
 Alpha virt. eigenvalues --    0.29424   0.29424   0.29717   0.29718   0.31437
 Alpha virt. eigenvalues --    0.31437   0.33015   0.34239   0.34239   0.36078
 Alpha virt. eigenvalues --    0.36078   0.38705   0.40234   0.40234   0.41025
 Alpha virt. eigenvalues --    0.41025   0.42345   0.42345   0.43412   0.43412
 Alpha virt. eigenvalues --    0.44621   0.44621   0.44663   0.44663   0.44850
 Alpha virt. eigenvalues --    0.45683   0.48495   0.50567   0.54306   0.58290
 Alpha virt. eigenvalues --    0.58290   0.90656   2.01224   2.05262   2.10093
 Alpha virt. eigenvalues --    2.13728   4.42301   4.42301   4.43771   4.43771
 Alpha virt. eigenvalues --    4.44565   4.44565   4.46146   4.48162   4.48162
 Alpha virt. eigenvalues --    4.48964   4.54554   4.79267  96.20354  96.26900
 Alpha virt. eigenvalues --   96.30806  96.36033
          Condensed to atoms (all electrons):
               1          2          3          4
     1  Na  11.013369  -0.074156  -0.710066  -0.050931
     2  Na  -0.074156  11.599251  -0.327518  -0.155364
     3  Na  -0.710066  -0.327518  12.449091   0.507167
     4  Na  -0.050931  -0.155364   0.507167  10.560026
 Mulliken charges:
               1
     1  Na   0.821784
     2  Na  -0.042212
     3  Na  -0.918673
     4  Na   0.139102
 Sum of Mulliken charges =  -0.00000
 Mulliken charges with hydrogens summed into heavy atoms:
               1
     1  Na   0.821784
     2  Na  -0.042212
     3  Na  -0.918673
     4  Na   0.139102
 Electronic spatial extent (au):  <R**2>=           2700.2082
 Charge=             -0.0000 electrons
 Dipole moment (field-independent basis, Debye):
    X=              0.0000    Y=              0.0000    Z=              0.0161  Tot=              0.0161
 Quadrupole moment (field-independent basis, Debye-Ang):
   XX=            -44.6097   YY=            -44.6097   ZZ=            -18.0860
   XY=              0.0000   XZ=              0.0000   YZ=              0.0000
 Traceless Quadrupole moment (field-independent basis, Debye-Ang):
   XX=             -8.8413   YY=             -8.8413   ZZ=             17.6825
   XY=              0.0000   XZ=              0.0000   YZ=              0.0000
 Octapole moment (field-independent basis, Debye-Ang**2):
  XXX=              0.0000  YYY=              0.0000  ZZZ=             44.5535  XYY=              0.0000
  XXY=              0.0000  XXZ=             -2.7944  XZZ=              0.0000  YZZ=              0.0000
  YYZ=             -2.7944  XYZ=              0.0000
 Hexadecapole moment (field-independent basis, Debye-Ang**3):
 XXXX=           -185.0925 YYYY=           -185.0925 ZZZZ=          -2467.6851 XXXY=              0.0000
 XXXZ=              0.0000 YYYX=              0.0000 YYYZ=              0.0000 ZZZX=              0.0000
 ZZZY=              0.0000 XXYY=            -61.6975 XXZZ=           -769.0041 YYZZ=           -769.0041
 XXYZ=              0.0000 YYXZ=              0.0000 ZZXY=              0.0000
 N-N= 8.171821077573D+01 E-N=-1.722503161723D+03  KE= 6.474001401202D+02
 Symmetry A1   KE= 5.524849106713D+02
 Symmetry A2   KE=-1.126542949205D-52
 Symmetry B1   KE= 4.745761472441D+01
 Symmetry B2   KE= 4.745761472441D+01
 No NMR shielding tensors so no spin-rotation constants.
 Leave Link  601 at Mon Sep 11 10:45:32 2023, MaxMem=  1610612736 cpu:               1.1 elap:               0.1
 (Enter /home/sekinelabo/g16/l701.exe)
 ... and contract with generalized density number  0.
 Compute integral first derivatives.
 Leave Link  701 at Mon Sep 11 10:45:32 2023, MaxMem=  1610612736 cpu:               1.3 elap:               0.1
 (Enter /home/sekinelabo/g16/l702.exe)
 L702 exits ... SP integral derivatives will be done elsewhere.
 Leave Link  702 at Mon Sep 11 10:45:32 2023, MaxMem=  1610612736 cpu:               0.4 elap:               0.0
 (Enter /home/sekinelabo/g16/l703.exe)
 Integral derivatives from FoFJK, PRISM(SPDF).
 Compute integral first derivatives, UseDBF=F ICtDFT=           0.
 Calling FoFJK, ICntrl=      2127 FMM=F ISym2X=1 I1Cent= 0 IOpClX= 0 NMat=1 NMatS=1 NMatT=0.
 FoFJK:  IHMeth= 1 ICntrl=    2127 DoSepK=F KAlg= 0 I1Cent=           0 FoldK=F
 IRaf=         0 NMat=       1 IRICut=       1 DoRegI=T DoRafI=F ISym2E= 1 IDoP0=0 IntGTp=1.
 FoFCou: FMM=F IPFlag=           0 FMFlag=      100000 FMFlg1=         800
         NFxFlg=           0 DoJE=F BraDBF=F KetDBF=F FulRan=T
         wScrn=  0.000000 ICntrl=      2127 IOpCl=  0 I1Cent=           0 NGrid=           0
         NMat0=    1 NMatS0=      1 NMatT0=    0 NMatD0=    1 NMtDS0=    0 NMtDT0=    0
 Petite list used in FoFCou.
 Leave Link  703 at Mon Sep 11 10:45:33 2023, MaxMem=  1610612736 cpu:               4.2 elap:               0.3
 (Enter /home/sekinelabo/g16/l716.exe)
 Dipole        = 0.00000000D+00 0.00000000D+00 6.31936150D-03
 ***** Axes restored to original set *****
 -------------------------------------------------------------------
 Center     Atomic                   Forces (Hartrees/Bohr)
 Number     Number              X              Y              Z
 -------------------------------------------------------------------
      1       11          -0.000000000   -0.000000000    0.007116310
      2       11          -0.000000000   -0.000000000   -0.006099702
      3       11          -0.000000000   -0.000000000   -0.028589767
      4       11          -0.000000000   -0.000000000    0.027573158
 -------------------------------------------------------------------
 Cartesian Forces:  Max     0.028589767 RMS     0.011780995
 Z-matrix is all fixed cartesians, so copy forces.
 Force constants in Cartesian coordinates: 
                1             2             3             4             5 
      1  0.100000D+01
      2  0.000000D+00  0.100000D+01
      3  0.000000D+00  0.000000D+00  0.145155D-01
      4  0.000000D+00  0.000000D+00  0.000000D+00  0.100000D+01
      5  0.000000D+00  0.000000D+00  0.000000D+00  0.000000D+00  0.100000D+01
      6  0.000000D+00  0.000000D+00 -0.145155D-01  0.000000D+00  0.000000D+00
      7  0.000000D+00  0.000000D+00  0.000000D+00  0.000000D+00  0.000000D+00
      8  0.000000D+00  0.000000D+00  0.000000D+00  0.000000D+00  0.000000D+00
      9  0.000000D+00  0.000000D+00  0.000000D+00  0.000000D+00  0.000000D+00
     10  0.000000D+00  0.000000D+00  0.000000D+00  0.000000D+00  0.000000D+00
     11  0.000000D+00  0.000000D+00  0.000000D+00  0.000000D+00  0.000000D+00
     12  0.000000D+00  0.000000D+00  0.000000D+00  0.000000D+00  0.000000D+00
                6             7             8             9            10 
      6  0.145155D-01
      7  0.000000D+00  0.100000D+01
      8  0.000000D+00  0.000000D+00  0.100000D+01
      9  0.000000D+00  0.000000D+00  0.000000D+00  0.126672D+00
     10  0.000000D+00  0.000000D+00  0.000000D+00  0.000000D+00  0.100000D+01
     11  0.000000D+00  0.000000D+00  0.000000D+00  0.000000D+00  0.000000D+00
     12  0.000000D+00  0.000000D+00  0.000000D+00 -0.126672D+00  0.000000D+00
               11            12 
     11  0.100000D+01
     12  0.000000D+00  0.126672D+00
 Leave Link  716 at Mon Sep 11 10:45:33 2023, MaxMem=  1610612736 cpu:               0.3 elap:               0.0
 (Enter /home/sekinelabo/g16/l103.exe)

 GradGradGradGradGradGradGradGradGradGradGradGradGradGradGradGradGradGrad
 Berny optimization.
 Search for a local minimum.
 Step number   1 out of a maximum of    2
 All quantities printed in internal units (Hartrees-Bohrs-Radians)
 Second derivative matrix not updated -- first step.
 The second derivative matrix:
                          X1        Y1        Z1        X2        Y2
           X1           1.00000
           Y1           0.00000   1.00000
           Z1           0.00000   0.00000   0.01452
           X2           0.00000   0.00000   0.00000   1.00000
           Y2           0.00000   0.00000   0.00000   0.00000   1.00000
           Z2           0.00000   0.00000  -0.01452   0.00000   0.00000
           X3           0.00000   0.00000   0.00000   0.00000   0.00000
           Y3           0.00000   0.00000   0.00000   0.00000   0.00000
           Z3           0.00000   0.00000   0.00000   0.00000   0.00000
           X4           0.00000   0.00000   0.00000   0.00000   0.00000
           Y4           0.00000   0.00000   0.00000   0.00000   0.00000
           Z4           0.00000   0.00000   0.00000   0.00000   0.00000
                          Z2        X3        Y3        Z3        X4
           Z2           0.01452
           X3           0.00000   1.00000
           Y3           0.00000   0.00000   1.00000
           Z3           0.00000   0.00000   0.00000   0.12667
           X4           0.00000   0.00000   0.00000   0.00000   1.00000
           Y4           0.00000   0.00000   0.00000   0.00000   0.00000
           Z4           0.00000   0.00000   0.00000  -0.12667   0.00000
                          Y4        Z4
           Y4           1.00000
           Z4           0.00000   0.12667
 ITU=  0
     Eigenvalues ---   -0.00000   0.02903   0.25334   1.00000   1.00000
     Eigenvalues ---    1.00000   1.00000
 Eigenvalue     1 is  -1.11D-16 should be greater than     0.000000 Eigenvector:
                          Z1        Z3        Z4        Z2        Y3
   1                    0.50000  -0.50000  -0.50000   0.50000   0.00000
                          Y4        Y2        Y1        X2        X1
   1                   -0.00000  -0.00000   0.00000   0.00000   0.00000
 Quadratic step=1.017D+01 exceeds max=3.000D-01 adjusted using Lamda=-1.004D-02.
 Angle between NR and scaled steps=  68.47 degrees.
 Angle between quadratic step and forces=  47.16 degrees.
 ClnCor:  largest displacement from symmetrization is 1.06D-16 for atom     3.
 Linear search not attempted -- first point.
 ClnCor:  largest displacement from symmetrization is 5.55D-16 for atom     1.
 B after Tr=     0.000000    0.000000    0.000000
         Rot=    1.000000    0.000000    0.000000    0.000000 Ang=   0.00 deg.
 Variable       Old X    -DE/DX   Delta X   Delta X   Delta X     New X
                                 (Linear)    (Quad)   (Total)
    X1        0.00000  -0.00000   0.00000   0.00000   0.00000   0.00000
    Y1        0.00000  -0.00000   0.00000   0.00000   0.00000   0.00000
    Z1        0.00000   0.00712   0.00000   0.21930   0.21930   0.21930
    X2        0.00000  -0.00000   0.00000  -0.00000   0.00000   0.00000
    Y2        0.00000  -0.00000   0.00000   0.00000   0.00000   0.00000
    Z2        6.99300  -0.00610   0.00000  -0.11900  -0.11900   6.87400
    X3        0.00000  -0.00000   0.00000   0.00000   0.00000   0.00000
    Y3        0.00000  -0.00000   0.00000   0.00000   0.00000   0.00000
    Z3       15.54309  -0.02859   0.00000  -0.15677  -0.15677  15.38632
    X4        0.00000  -0.00000   0.00000  -0.00000   0.00000   0.00000
    Y4        0.00000  -0.00000   0.00000  -0.00000   0.00000   0.00000
    Z4       20.00325   0.02757   0.00000   0.05647   0.05647  20.05972
         Item               Value     Threshold  Converged?
 Maximum Force            0.028590     0.000450     NO 
 RMS     Force            0.011781     0.000300     NO 
 Maximum Displacement     0.219295     0.001800     NO 
 RMS     Displacement     0.086610     0.001200     NO 
 Predicted change in Energy=-4.614924D-03
 GradGradGradGradGradGradGradGradGradGradGradGradGradGradGradGradGradGrad

 Leave Link  103 at Mon Sep 11 10:45:33 2023, MaxMem=  1610612736 cpu:               0.2 elap:               0.0
 (Enter /home/sekinelabo/g16/l9999.exe)
 1\1\GINC-SEKINELABO-XA7R-R37\Force\RB3LYP\6-311+G(d)\Na4\SEKINELABO\11
 -Sep-2023\0\\#p B3LYP/6-311+g(d) force\\\0,1\Na,0.,0.,0.\Na,0.,0.,3.70
 05336077\Na,0.,0.,8.2250505888\Na,0.,0.,10.5852621324\\Version=ES64L-G
 16RevB.01\State=1-SG\HF=-649.1823274\RMSD=8.686e-09\RMSF=1.178e-02\Dip
 ole=0.,0.,-0.0063194\Quadrupole=-6.5732618,-6.5732618,13.1465235,0.,0.
 ,0.\PG=C*V [C*(Na1Na1Na1Na1)]\\@


 WOE UNTO THEM THAT CALL EVIL GOOD, AND GOOD EVIL      
 Job cpu time:       0 days  0 hours  0 minutes 24.6 seconds.
 Elapsed time:       0 days  0 hours  0 minutes  1.6 seconds.
 File lengths (MBytes):  RWF=     11 Int=      0 D2E=      0 Chk=      2 Scr=      1
 Normal termination of Gaussian 16 at Mon Sep 11 10:45:33 2023.
 Initial command:
 /home/sekinelabo/g16/l1.exe "/home/sekinelabo/g16temp/Gau-3151686.inp" -scrdir="/home/sekinelabo/g16temp/"
 Entering Link 1 = /home/sekinelabo/g16/l1.exe PID=   3151945.
  
 Copyright (c) 1988-2017, Gaussian, Inc.  All Rights Reserved.
  
 This is part of the Gaussian(R) 16 program.  It is based on
 the Gaussian(R) 09 system (copyright 2009, Gaussian, Inc.),
 the Gaussian(R) 03 system (copyright 2003, Gaussian, Inc.),
 the Gaussian(R) 98 system (copyright 1998, Gaussian, Inc.),
 the Gaussian(R) 94 system (copyright 1995, Gaussian, Inc.),
 the Gaussian 92(TM) system (copyright 1992, Gaussian, Inc.),
 the Gaussian 90(TM) system (copyright 1990, Gaussian, Inc.),
 the Gaussian 88(TM) system (copyright 1988, Gaussian, Inc.),
 the Gaussian 86(TM) system (copyright 1986, Carnegie Mellon
 University), and the Gaussian 82(TM) system (copyright 1983,
 Carnegie Mellon University). Gaussian is a federally registered
 trademark of Gaussian, Inc.
  
 This software contains proprietary and confidential information,
 including trade secrets, belonging to Gaussian, Inc.
  
 This software is provided under written license and may be
 used, copied, transmitted, or stored only in accord with that
 written license.
  
 The following legend is applicable only to US Government
 contracts under FAR:
  
                    RESTRICTED RIGHTS LEGEND
  
 Use, reproduction and disclosure by the US Government is
 subject to restrictions as set forth in subparagraphs (a)
 and (c) of the Commercial Computer Software - Restricted
 Rights clause in FAR 52.227-19.
  
 Gaussian, Inc.
 340 Quinnipiac St., Bldg. 40, Wallingford CT 06492
  
  
 ---------------------------------------------------------------
 Warning -- This program may not be used in any manner that
 competes with the business of Gaussian, Inc. or will provide
 assistance to any competitor of Gaussian, Inc.  The licensee
 of this program is prohibited from giving any competitor of
 Gaussian, Inc. access to this program.  By using this program,
 the user acknowledges that Gaussian, Inc. is engaged in the
 business of creating and licensing software in the field of
 computational chemistry and represents and warrants to the
 licensee that it is not a competitor of Gaussian, Inc. and that
 it will not use this program in any manner prohibited above.
 ---------------------------------------------------------------
  

 Cite this work as:
 Gaussian 16, Revision B.01,
 M. J. Frisch, G. W. Trucks, H. B. Schlegel, G. E. Scuseria, 
 M. A. Robb, J. R. Cheeseman, G. Scalmani, V. Barone, 
 G. A. Petersson, H. Nakatsuji, X. Li, M. Caricato, A. V. Marenich, 
 J. Bloino, B. G. Janesko, R. Gomperts, B. Mennucci, H. P. Hratchian, 
 J. V. Ortiz, A. F. Izmaylov, J. L. Sonnenberg, D. Williams-Young, 
 F. Ding, F. Lipparini, F. Egidi, J. Goings, B. Peng, A. Petrone, 
 T. Henderson, D. Ranasinghe, V. G. Zakrzewski, J. Gao, N. Rega, 
 G. Zheng, W. Liang, M. Hada, M. Ehara, K. Toyota, R. Fukuda, 
 J. Hasegawa, M. Ishida, T. Nakajima, Y. Honda, O. Kitao, H. Nakai, 
 T. Vreven, K. Throssell, J. A. Montgomery, Jr., J. E. Peralta, 
 F. Ogliaro, M. J. Bearpark, J. J. Heyd, E. N. Brothers, K. N. Kudin, 
 V. N. Staroverov, T. A. Keith, R. Kobayashi, J. Normand, 
 K. Raghavachari, A. P. Rendell, J. C. Burant, S. S. Iyengar, 
 J. Tomasi, M. Cossi, J. M. Millam, M. Klene, C. Adamo, R. Cammi, 
 J. W. Ochterski, R. L. Martin, K. Morokuma, O. Farkas, 
 J. B. Foresman, and D. J. Fox, Gaussian, Inc., Wallingford CT, 2016.
 
 ******************************************
 Gaussian 16:  ES64L-G16RevB.01 20-Dec-2017
                11-Sep-2023 
 ******************************************
 %NProcShared=16
 Will use up to   16 processors via shared memory.
 %mem=12GB
 %Chk=checkpoint.chk
 -------------------------
 #p B3LYP/6-311+g(d) force
 -------------------------
 1/10=7,30=1,38=1/1,3;
 2/12=2,17=6,18=5,40=1/2;
 3/5=4,6=6,7=11,11=2,25=1,30=1,71=1,74=-5/1,2,3;
 4//1;
 5/5=2,38=5/2;
 6/7=2,8=2,9=2,10=2,28=1/1;
 7/29=1/1,2,3,16;
 1/10=7,30=1/3;
 99//99;
 Leave Link    1 at Mon Sep 11 10:45:33 2023, MaxMem=  1610612736 cpu:               0.2 elap:               0.0
 (Enter /home/sekinelabo/g16/l101.exe)


 Symbolic Z-matrix:
 Charge =  0 Multiplicity = 1
 Na                    0.        0.        0. 
 Na                    0.        0.        2.7403 
 Na                    0.        0.        4.99285 
 Na                    0.        0.        9.78127 
 
 ITRead=  0  0  0  0
 MicOpt= -1 -1 -1 -1
 NAtoms=      4 NQM=        4 NQMF=       0 NMMI=      0 NMMIF=      0
                NMic=       0 NMicF=      0.
                    Isotopes and Nuclear Properties:
 (Nuclear quadrupole moments (NQMom) in fm**2, nuclear magnetic moments (NMagM)
  in nuclear magnetons)

  Atom         1           2           3           4
 IAtWgt=          23          23          23          23
 AtmWgt=  22.9897697  22.9897697  22.9897697  22.9897697
 NucSpn=           3           3           3           3
 AtZEff=  -0.0000000  -0.0000000  -0.0000000  -0.0000000
 NQMom=   10.4000000  10.4000000  10.4000000  10.4000000
 NMagM=    2.2175200   2.2175200   2.2175200   2.2175200
 AtZNuc=  11.0000000  11.0000000  11.0000000  11.0000000
 Leave Link  101 at Mon Sep 11 10:45:33 2023, MaxMem=  1610612736 cpu:               1.6 elap:               0.1
 (Enter /home/sekinelabo/g16/l103.exe)

 GradGradGradGradGradGradGradGradGradGradGradGradGradGradGradGradGradGrad
 Berny optimization.
 Initialization pass.
 Trust Radius=3.00D-01 FncErr=1.00D-07 GrdErr=1.00D-07 EigMax=2.50D+02 EigMin=1.00D-04
 Number of steps in this run=      2 maximum allowed number of steps=      2.
 GradGradGradGradGradGradGradGradGradGradGradGradGradGradGradGradGradGrad

 Leave Link  103 at Mon Sep 11 10:45:33 2023, MaxMem=  1610612736 cpu:               0.2 elap:               0.0
 (Enter /home/sekinelabo/g16/l202.exe)
                          Input orientation:                          
 ---------------------------------------------------------------------
 Center     Atomic      Atomic             Coordinates (Angstroms)
 Number     Number       Type             X           Y           Z
 ---------------------------------------------------------------------
      1         11           0        0.000000    0.000000    0.000000
      2         11           0        0.000000    0.000000    2.740303
      3         11           0        0.000000    0.000000    4.992849
      4         11           0        0.000000    0.000000    9.781271
 ---------------------------------------------------------------------
                    Distance matrix (angstroms):
                    1          2          3          4
     1  Na   0.000000
     2  Na   2.740303   0.000000
     3  Na   4.992849   2.252546   0.000000
     4  Na   9.781271   7.040968   4.788422   0.000000
 Stoichiometry    Na4
 Framework group  C*V[C*(NaNaNaNa)]
 Deg. of freedom     3
 Full point group                 C*V     NOp   4
 Largest Abelian subgroup         C2V     NOp   4
 Largest concise Abelian subgroup C1      NOp   1
                         Standard orientation:                         
 ---------------------------------------------------------------------
 Center     Atomic      Atomic             Coordinates (Angstroms)
 Number     Number       Type             X           Y           Z
 ---------------------------------------------------------------------
      1         11           0        0.000000    0.000000   -4.378606
      2         11           0        0.000000    0.000000   -1.638303
      3         11           0        0.000000    0.000000    0.614243
      4         11           0        0.000000    0.000000    5.402665
 ---------------------------------------------------------------------
 Rotational constants (GHZ):           0.0000000           0.4274950           0.4274950
 Leave Link  202 at Mon Sep 11 10:45:33 2023, MaxMem=  1610612736 cpu:               0.0 elap:               0.0
 (Enter /home/sekinelabo/g16/l301.exe)
 Standard basis: 6-311+G(d) (5D, 7F)
 Ernie: Thresh=  0.10000D-02 Tol=  0.10000D-05 Strict=F.
 There are    64 symmetry adapted cartesian basis functions of A1  symmetry.
 There are     4 symmetry adapted cartesian basis functions of A2  symmetry.
 There are    28 symmetry adapted cartesian basis functions of B1  symmetry.
 There are    28 symmetry adapted cartesian basis functions of B2  symmetry.
 There are    60 symmetry adapted basis functions of A1  symmetry.
 There are     4 symmetry adapted basis functions of A2  symmetry.
 There are    28 symmetry adapted basis functions of B1  symmetry.
 There are    28 symmetry adapted basis functions of B2  symmetry.
   120 basis functions,   200 primitive gaussians,   124 cartesian basis functions
    22 alpha electrons       22 beta electrons
       nuclear repulsion energy        93.6285758617 Hartrees.
 IExCor=  402 DFT=T Ex+Corr=B3LYP ExCW=0 ScaHFX=  0.200000
 ScaDFX=  0.800000  0.720000  1.000000  0.810000 ScalE2=  1.000000  1.000000
 IRadAn=      5 IRanWt=     -1 IRanGd=            0 ICorTp=0 IEmpDi=  4
 NAtoms=    4 NActive=    4 NUniq=    4 SFac= 1.00D+00 NAtFMM=   60 NAOKFM=F Big=F
 Integral buffers will be    131072 words long.
 Raffenetti 2 integral format.
 Two-electron integral symmetry is turned on.
 Leave Link  301 at Mon Sep 11 10:45:33 2023, MaxMem=  1610612736 cpu:               0.4 elap:               0.0
 (Enter /home/sekinelabo/g16/l302.exe)
 NPDir=0 NMtPBC=     1 NCelOv=     1 NCel=       1 NClECP=     1 NCelD=      1
         NCelK=      1 NCelE2=     1 NClLst=     1 CellRange=     0.0.
 One-electron integrals computed using PRISM.
 One-electron integral symmetry used in STVInt
 NBasis=   120 RedAO= T EigKep=  1.01D-04  NBF=    60     4    28    28
 NBsUse=   118 1.00D-06 EigRej=  7.59D-07 NBFU=    58     4    28    28
 Precomputing XC quadrature grid using
 IXCGrd= 4 IRadAn=           5 IRanWt=          -1 IRanGd=           0 AccXCQ= 0.00D+00.
 Generated NRdTot=       0 NPtTot=           0 NUsed=           0 NTot=          32
 NSgBfM=   115   114   115   115   115 MxSgAt=     4 MxSgA2=     4.
 Leave Link  302 at Mon Sep 11 10:45:33 2023, MaxMem=  1610612736 cpu:               1.3 elap:               0.1
 (Enter /home/sekinelabo/g16/l303.exe)
 DipDrv:  MaxL=1.
 Leave Link  303 at Mon Sep 11 10:45:33 2023, MaxMem=  1610612736 cpu:               0.3 elap:               0.0
 (Enter /home/sekinelabo/g16/l401.exe)
 ExpMin= 7.60D-03 ExpMax= 3.62D+04 ExpMxC= 1.21D+03 IAcc=3 IRadAn=         5 AccDes= 0.00D+00
 Harris functional with IExCor=  402 and IRadAn=       5 diagonalized for initial guess.
 HarFok:  IExCor=  402 AccDes= 0.00D+00 IRadAn=         5 IDoV= 1 UseB2=F ITyADJ=14
 ICtDFT=  3500011 ScaDFX=  1.000000  1.000000  1.000000  1.000000
 FoFCou: FMM=F IPFlag=           0 FMFlag=      100000 FMFlg1=           0
         NFxFlg=           0 DoJE=T BraDBF=F KetDBF=T FulRan=T
         wScrn=  0.000000 ICntrl=       500 IOpCl=  0 I1Cent=   200000004 NGrid=           0
         NMat0=    1 NMatS0=      1 NMatT0=    0 NMatD0=    1 NMtDS0=    0 NMtDT0=    0
 Petite list used in FoFCou.
 Harris En= -649.027940569299    
 JPrj=0 DoOrth=F DoCkMO=F.
 Initial guess orbital symmetries:
       Occupied  (SG) (SG) (SG) (SG) (SG) (SG) (SG) (SG) (SG) (PI)
                 (PI) (PI) (PI) (SG) (SG) (PI) (PI) (SG) (PI) (PI)
                 (SG) (SG)
       Virtual   (SG) (PI) (PI) (SG) (PI) (PI) (SG) (PI) (PI) (SG)
                 (SG) (PI) (PI) (SG) (SG) (PI) (PI) (PI) (PI) (SG)
                 (PI) (PI) (SG) (PI) (PI) (SG) (SG) (SG) (PI) (PI)
                 (SG) (SG) (PI) (PI) (PI) (PI) (SG) (PI) (PI) (SG)
                 (SG) (SG) (SG) (SG) (DLTA) (DLTA) (PI) (PI) (DLTA)
                 (DLTA) (DLTA) (DLTA) (PI) (PI) (SG) (PI) (PI)
                 (SG) (SG) (DLTA) (DLTA) (PI) (PI) (PI) (PI) (PI)
                 (PI) (SG) (PI) (PI) (SG) (SG) (PI) (PI) (SG) (SG)
                 (SG) (SG) (SG) (SG) (PI) (PI) (PI) (PI) (PI) (PI)
                 (SG) (PI) (PI) (SG) (SG) (SG) (SG) (SG) (SG) (SG)
 The electronic state of the initial guess is 1-SG.
 Leave Link  401 at Mon Sep 11 10:45:33 2023, MaxMem=  1610612736 cpu:               1.5 elap:               0.1
 (Enter /home/sekinelabo/g16/l502.exe)
 Keep R1 ints in memory in symmetry-blocked form, NReq=41601370.
 FoFCou: FMM=F IPFlag=           0 FMFlag=           0 FMFlg1=           0
         NFxFlg=           0 DoJE=F BraDBF=F KetDBF=F FulRan=T
         wScrn=  0.000000 ICntrl=       600 IOpCl=  0 I1Cent=           0 NGrid=           0
         NMat0=    1 NMatS0=   7260 NMatT0=    0 NMatD0=    1 NMtDS0=    0 NMtDT0=    0
 Petite list used in FoFCou.
 Closed shell SCF:
 Using DIIS extrapolation, IDIIS=  1040.
 NGot=  1610612736 LenX=  1603303456 LenY=  1603287639
 Requested convergence on RMS density matrix=1.00D-08 within 128 cycles.
 Requested convergence on MAX density matrix=1.00D-06.
 Requested convergence on             energy=1.00D-06.
 No special actions if energy rises.

 Cycle   1  Pass 1  IDiag  1:
 E= -649.137934333877    
 DIIS: error= 1.14D-02 at cycle   1 NSaved=   1.
 NSaved= 1 IEnMin= 1 EnMin= -649.137934333877     IErMin= 1 ErrMin= 1.14D-02
 ErrMax= 1.14D-02  0.00D+00 EMaxC= 1.00D-01 BMatC= 2.75D-02 BMatP= 2.75D-02
 IDIUse=3 WtCom= 8.86D-01 WtEn= 1.14D-01
 Coeff-Com:  0.100D+01
 Coeff-En:   0.100D+01
 Coeff:      0.100D+01
 Gap=     0.026 Goal=   None    Shift=    0.000
 GapD=    0.026 DampG=0.250 DampE=0.500 DampFc=0.2500 IDamp=-1.
 Damping current iteration by 2.50D-01
 RMSDP=6.94D-03 MaxDP=3.21D-01              OVMax= 4.36D-01

 Cycle   2  Pass 1  IDiag  1:
 E= -649.143207307567     Delta-E=       -0.005272973690 Rises=F Damp=T
 DIIS: error= 8.19D-03 at cycle   2 NSaved=   2.
 NSaved= 2 IEnMin= 2 EnMin= -649.143207307567     IErMin= 2 ErrMin= 8.19D-03
 ErrMax= 8.19D-03  0.00D+00 EMaxC= 1.00D-01 BMatC= 1.04D-02 BMatP= 2.75D-02
 IDIUse=3 WtCom= 9.18D-01 WtEn= 8.19D-02
 Coeff-Com: -0.114D+01 0.214D+01
 Coeff-En:   0.000D+00 0.100D+01
 Coeff:     -0.105D+01 0.205D+01
 Gap=     0.013 Goal=   None    Shift=    0.000
 RMSDP=5.54D-03 MaxDP=2.50D-01 DE=-5.27D-03 OVMax= 7.70D-01

 Cycle   3  Pass 1  IDiag  1:
 E= -649.076689387396     Delta-E=        0.066517920171 Rises=F Damp=F
 DIIS: error= 1.58D-02 at cycle   3 NSaved=   3.
 NSaved= 3 IEnMin= 2 EnMin= -649.143207307567     IErMin= 2 ErrMin= 8.19D-03
 ErrMax= 1.58D-02  0.00D+00 EMaxC= 1.00D-01 BMatC= 7.31D-03 BMatP= 1.04D-02
 IDIUse=3 WtCom= 8.42D-01 WtEn= 1.58D-01
 Rare condition: small coef for last iteration:  0.000D+00
 Coeff-Com: -0.762D+00 0.138D+01 0.380D+00
 Coeff-En:   0.000D+00 0.000D+00 0.100D+01
 Coeff:     -0.762D+00 0.138D+01 0.380D+00
 Gap=     0.008 Goal=   None    Shift=    0.000
 RMSDP=8.31D-03 MaxDP=3.99D-01 DE= 6.65D-02 OVMax= 7.11D-01

 Cycle   4  Pass 1  IDiag  1:
 E= -649.118500141209     Delta-E=       -0.041810753813 Rises=F Damp=F
 DIIS: error= 1.11D-02 at cycle   4 NSaved=   4.
 NSaved= 4 IEnMin= 2 EnMin= -649.143207307567     IErMin= 2 ErrMin= 8.19D-03
 ErrMax= 1.11D-02  0.00D+00 EMaxC= 1.00D-01 BMatC= 4.06D-03 BMatP= 7.31D-03
 IDIUse=3 WtCom= 8.89D-01 WtEn= 1.11D-01
 EnCoef did   100 forward-backward iterations
 Coeff-Com: -0.136D+00 0.274D+00 0.385D+00 0.477D+00
 Coeff-En:   0.299D+00 0.647D-01 0.193D+00 0.443D+00
 Coeff:     -0.876D-01 0.251D+00 0.364D+00 0.473D+00
 Gap=     0.026 Goal=   None    Shift=    0.000
 RMSDP=3.49D-03 MaxDP=1.87D-01 DE=-4.18D-02 OVMax= 2.96D-01

 Cycle   5  Pass 1  IDiag  1:
 E= -649.154279292897     Delta-E=       -0.035779151689 Rises=F Damp=F
 DIIS: error= 7.80D-04 at cycle   5 NSaved=   5.
 NSaved= 5 IEnMin= 5 EnMin= -649.154279292897     IErMin= 5 ErrMin= 7.80D-04
 ErrMax= 7.80D-04  0.00D+00 EMaxC= 1.00D-01 BMatC= 9.17D-05 BMatP= 4.06D-03
 IDIUse=3 WtCom= 9.92D-01 WtEn= 7.80D-03
 Coeff-Com:  0.806D-01-0.106D+00 0.639D-01 0.454D-01 0.916D+00
 Coeff-En:   0.000D+00 0.000D+00 0.000D+00 0.000D+00 0.100D+01
 Coeff:      0.800D-01-0.105D+00 0.634D-01 0.450D-01 0.917D+00
 Gap=     0.031 Goal=   None    Shift=    0.000
 RMSDP=8.13D-04 MaxDP=2.73D-02 DE=-3.58D-02 OVMax= 3.02D-02

 Cycle   6  Pass 1  IDiag  1:
 E= -649.153936086070     Delta-E=        0.000343206828 Rises=F Damp=F
 DIIS: error= 1.88D-03 at cycle   6 NSaved=   6.
 NSaved= 6 IEnMin= 5 EnMin= -649.154279292897     IErMin= 5 ErrMin= 7.80D-04
 ErrMax= 1.88D-03  0.00D+00 EMaxC= 1.00D-01 BMatC= 8.35D-05 BMatP= 9.17D-05
 IDIUse=3 WtCom= 9.92D-01 WtEn= 7.80D-03
 Rare condition: small coef for last iteration:  0.000D+00
 Coeff-Com:  0.534D-01-0.720D-01 0.232D-01-0.652D-01 0.390D+00 0.671D+00
 Coeff-En:   0.000D+00 0.000D+00 0.000D+00 0.000D+00 0.000D+00 0.100D+01
 Coeff:      0.534D-01-0.720D-01 0.232D-01-0.652D-01 0.390D+00 0.671D+00
 Gap=     0.032 Goal=   None    Shift=    0.000
 RMSDP=3.62D-04 MaxDP=1.26D-02 DE= 3.43D-04 OVMax= 2.05D-02

 Cycle   7  Pass 1  IDiag  1:
 E= -649.154402364511     Delta-E=       -0.000466278441 Rises=F Damp=F
 DIIS: error= 8.02D-04 at cycle   7 NSaved=   7.
 NSaved= 7 IEnMin= 7 EnMin= -649.154402364511     IErMin= 5 ErrMin= 7.80D-04
 ErrMax= 8.02D-04  0.00D+00 EMaxC= 1.00D-01 BMatC= 1.80D-05 BMatP= 8.35D-05
 IDIUse=3 WtCom= 9.92D-01 WtEn= 7.80D-03
 Coeff-Com:  0.283D-01-0.389D-01 0.191D-01-0.490D-01 0.106D+00 0.235D+00
 Coeff-Com:  0.700D+00
 Coeff-En:   0.000D+00 0.000D+00 0.000D+00 0.000D+00 0.000D+00 0.000D+00
 Coeff-En:   0.100D+01
 Coeff:      0.280D-01-0.386D-01 0.189D-01-0.487D-01 0.105D+00 0.233D+00
 Coeff:      0.702D+00
 Gap=     0.032 Goal=   None    Shift=    0.000
 RMSDP=1.19D-04 MaxDP=5.53D-03 DE=-4.66D-04 OVMax= 8.37D-03

 Cycle   8  Pass 1  IDiag  1:
 E= -649.154489919465     Delta-E=       -0.000087554954 Rises=F Damp=F
 DIIS: error= 5.35D-04 at cycle   8 NSaved=   8.
 NSaved= 8 IEnMin= 8 EnMin= -649.154489919465     IErMin= 8 ErrMin= 5.35D-04
 ErrMax= 5.35D-04  0.00D+00 EMaxC= 1.00D-01 BMatC= 6.10D-06 BMatP= 1.80D-05
 IDIUse=3 WtCom= 9.95D-01 WtEn= 5.35D-03
 Coeff-Com:  0.796D-02-0.107D-01 0.102D-01-0.155D-01 0.687D-02-0.916D-01
 Coeff-Com: -0.271D-01 0.112D+01
 Coeff-En:   0.000D+00 0.000D+00 0.000D+00 0.000D+00 0.000D+00 0.000D+00
 Coeff-En:   0.000D+00 0.100D+01
 Coeff:      0.791D-02-0.106D-01 0.102D-01-0.154D-01 0.684D-02-0.911D-01
 Coeff:     -0.269D-01 0.112D+01
 Gap=     0.032 Goal=   None    Shift=    0.000
 RMSDP=6.00D-05 MaxDP=2.43D-03 DE=-8.76D-05 OVMax= 4.32D-03

 Cycle   9  Pass 1  IDiag  1:
 E= -649.154519357365     Delta-E=       -0.000029437900 Rises=F Damp=F
 DIIS: error= 2.89D-04 at cycle   9 NSaved=   9.
 NSaved= 9 IEnMin= 9 EnMin= -649.154519357365     IErMin= 9 ErrMin= 2.89D-04
 ErrMax= 2.89D-04  0.00D+00 EMaxC= 1.00D-01 BMatC= 2.25D-06 BMatP= 6.10D-06
 IDIUse=3 WtCom= 9.97D-01 WtEn= 2.89D-03
 Coeff-Com:  0.808D-04-0.154D-03 0.463D-02-0.936D-03-0.264D-01-0.125D+00
 Coeff-Com: -0.283D+00 0.614D+00 0.817D+00
 Coeff-En:   0.000D+00 0.000D+00 0.000D+00 0.000D+00 0.000D+00 0.000D+00
 Coeff-En:   0.000D+00 0.000D+00 0.100D+01
 Coeff:      0.805D-04-0.154D-03 0.462D-02-0.933D-03-0.263D-01-0.125D+00
 Coeff:     -0.282D+00 0.612D+00 0.817D+00
 Gap=     0.032 Goal=   None    Shift=    0.000
 RMSDP=6.90D-05 MaxDP=3.40D-03 DE=-2.94D-05 OVMax= 5.55D-03

 Cycle  10  Pass 1  IDiag  1:
 E= -649.154536926392     Delta-E=       -0.000017569027 Rises=F Damp=F
 DIIS: error= 8.42D-05 at cycle  10 NSaved=  10.
 NSaved=10 IEnMin=10 EnMin= -649.154536926392     IErMin=10 ErrMin= 8.42D-05
 ErrMax= 8.42D-05  0.00D+00 EMaxC= 1.00D-01 BMatC= 1.39D-07 BMatP= 2.25D-06
 IDIUse=1 WtCom= 1.00D+00 WtEn= 0.00D+00
 Coeff-Com: -0.288D-03 0.357D-03 0.801D-03 0.173D-02-0.374D-02-0.390D-01
 Coeff-Com: -0.118D+00 0.114D-01 0.296D+00 0.850D+00
 Coeff:     -0.288D-03 0.357D-03 0.801D-03 0.173D-02-0.374D-02-0.390D-01
 Coeff:     -0.118D+00 0.114D-01 0.296D+00 0.850D+00
 Gap=     0.032 Goal=   None    Shift=    0.000
 RMSDP=2.35D-05 MaxDP=9.12D-04 DE=-1.76D-05 OVMax= 1.80D-03

 Cycle  11  Pass 1  IDiag  1:
 E= -649.154538016382     Delta-E=       -0.000001089990 Rises=F Damp=F
 DIIS: error= 3.87D-06 at cycle  11 NSaved=  11.
 NSaved=11 IEnMin=11 EnMin= -649.154538016382     IErMin=11 ErrMin= 3.87D-06
 ErrMax= 3.87D-06  0.00D+00 EMaxC= 1.00D-01 BMatC= 9.21D-10 BMatP= 1.39D-07
 IDIUse=1 WtCom= 1.00D+00 WtEn= 0.00D+00
 Coeff-Com:  0.420D-03-0.569D-03 0.911D-04-0.169D-03 0.443D-02 0.590D-02
 Coeff-Com:  0.100D-01-0.353D-01-0.685D-02 0.806D-01 0.941D+00
 Coeff:      0.420D-03-0.569D-03 0.911D-04-0.169D-03 0.443D-02 0.590D-02
 Coeff:      0.100D-01-0.353D-01-0.685D-02 0.806D-01 0.941D+00
 Gap=     0.032 Goal=   None    Shift=    0.000
 RMSDP=4.25D-06 MaxDP=1.32D-04 DE=-1.09D-06 OVMax= 1.93D-04

 Cycle  12  Pass 1  IDiag  1:
 E= -649.154538016746     Delta-E=       -0.000000000364 Rises=F Damp=F
 DIIS: error= 4.05D-06 at cycle  12 NSaved=  12.
 NSaved=12 IEnMin=12 EnMin= -649.154538016746     IErMin=11 ErrMin= 3.87D-06
 ErrMax= 4.05D-06  0.00D+00 EMaxC= 1.00D-01 BMatC= 5.29D-10 BMatP= 9.21D-10
 IDIUse=1 WtCom= 1.00D+00 WtEn= 0.00D+00
 Coeff-Com:  0.878D-04-0.115D-03 0.907D-05-0.624D-04 0.719D-03 0.126D-02
 Coeff-Com:  0.307D-02 0.140D-02-0.223D-01-0.202D-01 0.148D+00 0.888D+00
 Coeff:      0.878D-04-0.115D-03 0.907D-05-0.624D-04 0.719D-03 0.126D-02
 Coeff:      0.307D-02 0.140D-02-0.223D-01-0.202D-01 0.148D+00 0.888D+00
 Gap=     0.032 Goal=   None    Shift=    0.000
 RMSDP=1.68D-06 MaxDP=5.60D-05 DE=-3.64D-10 OVMax= 8.50D-05

 Cycle  13  Pass 1  IDiag  1:
 E= -649.154538020976     Delta-E=       -0.000000004230 Rises=F Damp=F
 DIIS: error= 1.05D-06 at cycle  13 NSaved=  13.
 NSaved=13 IEnMin=13 EnMin= -649.154538020976     IErMin=13 ErrMin= 1.05D-06
 ErrMax= 1.05D-06  0.00D+00 EMaxC= 1.00D-01 BMatC= 2.69D-11 BMatP= 5.29D-10
 IDIUse=1 WtCom= 1.00D+00 WtEn= 0.00D+00
 Coeff-Com:  0.697D-05-0.845D-05-0.308D-05-0.210D-05-0.526D-04-0.151D-03
 Coeff-Com:  0.242D-06 0.192D-02-0.770D-02-0.586D-02-0.315D-01 0.289D+00
 Coeff-Com:  0.755D+00
 Coeff:      0.697D-05-0.845D-05-0.308D-05-0.210D-05-0.526D-04-0.151D-03
 Coeff:      0.242D-06 0.192D-02-0.770D-02-0.586D-02-0.315D-01 0.289D+00
 Coeff:      0.755D+00
 Gap=     0.032 Goal=   None    Shift=    0.000
 RMSDP=4.55D-07 MaxDP=1.67D-05 DE=-4.23D-09 OVMax= 2.53D-05

 Cycle  14  Pass 1  IDiag  1:
 E= -649.154538021173     Delta-E=       -0.000000000197 Rises=F Damp=F
 DIIS: error= 6.53D-08 at cycle  14 NSaved=  14.
 NSaved=14 IEnMin=14 EnMin= -649.154538021173     IErMin=14 ErrMin= 6.53D-08
 ErrMax= 6.53D-08  0.00D+00 EMaxC= 1.00D-01 BMatC= 1.26D-13 BMatP= 2.69D-11
 IDIUse=1 WtCom= 1.00D+00 WtEn= 0.00D+00
 Coeff-Com: -0.294D-05 0.378D-05 0.342D-06-0.411D-06-0.531D-05-0.269D-04
 Coeff-Com: -0.137D-03 0.125D-04 0.737D-03 0.676D-03-0.416D-02-0.205D-01
 Coeff-Com:  0.228D-01 0.100D+01
 Coeff:     -0.294D-05 0.378D-05 0.342D-06-0.411D-06-0.531D-05-0.269D-04
 Coeff:     -0.137D-03 0.125D-04 0.737D-03 0.676D-03-0.416D-02-0.205D-01
 Coeff:      0.228D-01 0.100D+01
 Gap=     0.032 Goal=   None    Shift=    0.000
 RMSDP=3.39D-08 MaxDP=6.81D-07 DE=-1.97D-10 OVMax= 1.90D-06

 Cycle  15  Pass 1  IDiag  1:
 E= -649.154538021170     Delta-E=        0.000000000002 Rises=F Damp=F
 DIIS: error= 1.23D-08 at cycle  15 NSaved=  15.
 NSaved=15 IEnMin=14 EnMin= -649.154538021173     IErMin=15 ErrMin= 1.23D-08
 ErrMax= 1.23D-08  0.00D+00 EMaxC= 1.00D-01 BMatC= 4.26D-15 BMatP= 1.26D-13
 IDIUse=1 WtCom= 1.00D+00 WtEn= 0.00D+00
 Coeff-Com:  0.135D-06-0.176D-06-0.188D-07-0.103D-06-0.563D-06 0.482D-05
 Coeff-Com:  0.969D-05-0.308D-04 0.168D-04-0.631D-05 0.491D-03-0.222D-02
 Coeff-Com: -0.793D-02-0.393D-01 0.105D+01
 Coeff:      0.135D-06-0.176D-06-0.188D-07-0.103D-06-0.563D-06 0.482D-05
 Coeff:      0.969D-05-0.308D-04 0.168D-04-0.631D-05 0.491D-03-0.222D-02
 Coeff:     -0.793D-02-0.393D-01 0.105D+01
 Gap=     0.032 Goal=   None    Shift=    0.000
 RMSDP=5.51D-09 MaxDP=2.22D-07 DE= 2.16D-12 OVMax= 2.91D-07

 SCF Done:  E(RB3LYP) =  -649.154538021     A.U. after   15 cycles
            NFock= 15  Conv=0.55D-08     -V/T= 2.0026
 KE= 6.474592287194D+02 PE=-1.745920660058D+03 EE= 3.556783174553D+02
 Leave Link  502 at Mon Sep 11 10:45:34 2023, MaxMem=  1610612736 cpu:              12.6 elap:               0.8
 (Enter /home/sekinelabo/g16/l601.exe)
 Copying SCF densities to generalized density rwf, IOpCl= 0 IROHF=0.

 **********************************************************************

            Population analysis using the SCF Density.

 **********************************************************************

 Orbital symmetries:
       Occupied  (SG) (SG) (SG) (SG) (SG) (SG) (SG) (SG) (SG) (PI)
                 (PI) (PI) (PI) (SG) (PI) (PI) (SG) (PI) (PI) (SG)
                 (SG) (SG)
       Virtual   (SG) (PI) (PI) (SG) (PI) (PI) (SG) (PI) (PI) (SG)
                 (SG) (PI) (PI) (SG) (PI) (PI) (SG) (PI) (PI) (SG)
                 (PI) (PI) (SG) (SG) (PI) (PI) (SG) (SG) (PI) (PI)
                 (SG) (PI) (PI) (SG) (PI) (PI) (SG) (PI) (PI) (SG)
                 (SG) (SG) (SG) (SG) (DLTA) (DLTA) (PI) (PI) (DLTA)
                 (DLTA) (DLTA) (DLTA) (PI) (PI) (SG) (PI) (PI)
                 (SG) (SG) (DLTA) (DLTA) (PI) (PI) (PI) (PI) (PI)
                 (PI) (SG) (SG) (PI) (PI) (SG) (PI) (PI) (SG) (SG)
                 (SG) (SG) (SG) (SG) (PI) (PI) (PI) (PI) (SG) (PI)
                 (PI) (PI) (PI) (SG) (SG) (SG) (SG) (SG) (SG) (SG)
 The electronic state is 1-SG.
 Alpha  occ. eigenvalues --  -38.46893 -38.46162 -38.45985 -38.45658  -2.22895
 Alpha  occ. eigenvalues --   -2.22169  -2.21665  -2.21488  -1.17689  -1.16385
 Alpha  occ. eigenvalues --   -1.16385  -1.15661  -1.15661  -1.15476  -1.15341
 Alpha  occ. eigenvalues --   -1.15341  -1.15298  -1.15107  -1.15107  -1.15039
 Alpha  occ. eigenvalues --   -0.15783  -0.11514
 Alpha virt. eigenvalues --   -0.08340  -0.03842  -0.03842  -0.03545  -0.01678
 Alpha virt. eigenvalues --   -0.01678  -0.00904  -0.00263  -0.00263   0.00231
 Alpha virt. eigenvalues --    0.00323   0.01151   0.01151   0.01225   0.01486
 Alpha virt. eigenvalues --    0.01486   0.01490   0.02282   0.02282   0.02773
 Alpha virt. eigenvalues --    0.02932   0.02932   0.03421   0.04208   0.04377
 Alpha virt. eigenvalues --    0.04377   0.05472   0.05971   0.07182   0.07182
 Alpha virt. eigenvalues --    0.07282   0.08165   0.08165   0.08336   0.08445
 Alpha virt. eigenvalues --    0.08445   0.09340   0.11575   0.11575   0.12541
 Alpha virt. eigenvalues --    0.14704   0.15055   0.16699   0.23442   0.27981
 Alpha virt. eigenvalues --    0.27981   0.28025   0.28025   0.33922   0.33922
 Alpha virt. eigenvalues --    0.34532   0.34532   0.35120   0.35120   0.36435
 Alpha virt. eigenvalues --    0.36793   0.36793   0.37283   0.41775   0.41868
 Alpha virt. eigenvalues --    0.41868   0.42192   0.42192   0.42742   0.42742
 Alpha virt. eigenvalues --    0.44947   0.44947   0.46296   0.47703   0.48263
 Alpha virt. eigenvalues --    0.48263   0.51765   0.66476   0.66476   0.82076
 Alpha virt. eigenvalues --    0.91019   2.01951   2.06537   2.12039   2.25525
 Alpha virt. eigenvalues --    4.40976   4.40976   4.42918   4.42918   4.45186
 Alpha virt. eigenvalues --    4.45259   4.45259   4.48499   4.48499   4.53762
 Alpha virt. eigenvalues --    4.68641   4.80073  96.21215  96.27238  96.34228
 Alpha virt. eigenvalues --   96.50689
          Condensed to atoms (all electrons):
               1          2          3          4
     1  Na  10.931015   0.077385   0.257650  -0.039207
     2  Na   0.077385  10.458890   0.043665   0.122885
     3  Na   0.257650   0.043665  10.707883  -0.014419
     4  Na  -0.039207   0.122885  -0.014419  11.006294
 Mulliken charges:
               1
     1  Na  -0.226843
     2  Na   0.297174
     3  Na   0.005221
     4  Na  -0.075553
 Sum of Mulliken charges =  -0.00000
 Mulliken charges with hydrogens summed into heavy atoms:
               1
     1  Na  -0.226843
     2  Na   0.297174
     3  Na   0.005221
     4  Na  -0.075553
 Electronic spatial extent (au):  <R**2>=           2101.6160
 Charge=              0.0000 electrons
 Dipole moment (field-independent basis, Debye):
    X=              0.0000    Y=              0.0000    Z=             -0.9530  Tot=              0.9530
 Quadrupole moment (field-independent basis, Debye-Ang):
   XX=            -44.2148   YY=            -44.2148   ZZ=            -21.4055
   XY=              0.0000   XZ=              0.0000   YZ=              0.0000
 Traceless Quadrupole moment (field-independent basis, Debye-Ang):
   XX=             -7.6031   YY=             -7.6031   ZZ=             15.2062
   XY=              0.0000   XZ=              0.0000   YZ=              0.0000
 Octapole moment (field-independent basis, Debye-Ang**2):
  XXX=              0.0000  YYY=              0.0000  ZZZ=             -0.8745  XYY=              0.0000
  XXY=              0.0000  XXZ=             -7.5979  XZZ=              0.0000  YZZ=              0.0000
  YYZ=             -7.5979  XYZ=              0.0000
 Hexadecapole moment (field-independent basis, Debye-Ang**3):
 XXXX=           -181.2313 YYYY=           -181.2313 ZZZZ=          -2340.5939 XXXY=              0.0000
 XXXZ=              0.0000 YYYX=              0.0000 YYYZ=              0.0000 ZZZX=              0.0000
 ZZZY=              0.0000 XXYY=            -60.4104 XXZZ=           -614.9284 YYZZ=           -614.9284
 XXYZ=              0.0000 YYXZ=              0.0000 ZZXY=              0.0000
 N-N= 9.362857586167D+01 E-N=-1.745920660926D+03  KE= 6.474592287194D+02
 Symmetry A1   KE= 5.525455729551D+02
 Symmetry A2   KE=-1.881034528730D-53
 Symmetry B1   KE= 4.745682788214D+01
 Symmetry B2   KE= 4.745682788214D+01
 No NMR shielding tensors so no spin-rotation constants.
 Leave Link  601 at Mon Sep 11 10:45:34 2023, MaxMem=  1610612736 cpu:               1.0 elap:               0.1
 (Enter /home/sekinelabo/g16/l701.exe)
 ... and contract with generalized density number  0.
 Compute integral first derivatives.
 Leave Link  701 at Mon Sep 11 10:45:34 2023, MaxMem=  1610612736 cpu:               1.3 elap:               0.1
 (Enter /home/sekinelabo/g16/l702.exe)
 L702 exits ... SP integral derivatives will be done elsewhere.
 Leave Link  702 at Mon Sep 11 10:45:34 2023, MaxMem=  1610612736 cpu:               0.3 elap:               0.0
 (Enter /home/sekinelabo/g16/l703.exe)
 Integral derivatives from FoFJK, PRISM(SPDF).
 Compute integral first derivatives, UseDBF=F ICtDFT=           0.
 Calling FoFJK, ICntrl=      2127 FMM=F ISym2X=1 I1Cent= 0 IOpClX= 0 NMat=1 NMatS=1 NMatT=0.
 FoFJK:  IHMeth= 1 ICntrl=    2127 DoSepK=F KAlg= 0 I1Cent=           0 FoldK=F
 IRaf=         0 NMat=       1 IRICut=       1 DoRegI=T DoRafI=F ISym2E= 1 IDoP0=0 IntGTp=1.
 FoFCou: FMM=F IPFlag=           0 FMFlag=      100000 FMFlg1=         800
         NFxFlg=           0 DoJE=F BraDBF=F KetDBF=F FulRan=T
         wScrn=  0.000000 ICntrl=      2127 IOpCl=  0 I1Cent=           0 NGrid=           0
         NMat0=    1 NMatS0=      1 NMatT0=    0 NMatD0=    1 NMtDS0=    0 NMtDT0=    0
 Petite list used in FoFCou.
 Leave Link  703 at Mon Sep 11 10:45:34 2023, MaxMem=  1610612736 cpu:               4.3 elap:               0.3
 (Enter /home/sekinelabo/g16/l716.exe)
 Dipole        = 0.00000000D+00 0.00000000D+00-3.74920445D-01
 ***** Axes restored to original set *****
 -------------------------------------------------------------------
 Center     Atomic                   Forces (Hartrees/Bohr)
 Number     Number              X              Y              Z
 -------------------------------------------------------------------
      1       11          -0.000000000   -0.000000000   -0.010582687
      2       11          -0.000000000   -0.000000000   -0.025351483
      3       11          -0.000000000   -0.000000000    0.042125000
      4       11          -0.000000000   -0.000000000   -0.006190829
 -------------------------------------------------------------------
 Cartesian Forces:  Max     0.042125000 RMS     0.014627409
 Z-matrix is all fixed cartesians, so copy forces.
 Force constants in Cartesian coordinates: 
                1             2             3             4             5 
      1  0.932277D-02
      2  0.000000D+00  0.932277D-02
      3  0.000000D+00  0.000000D+00  0.576224D-01
      4 -0.206643D-01  0.000000D+00  0.000000D+00  0.458031D-01
      5  0.000000D+00 -0.206643D-01  0.000000D+00  0.000000D+00  0.458031D-01
      6  0.000000D+00  0.000000D+00 -0.576224D-01  0.000000D+00  0.000000D+00
      7  0.113415D-01  0.000000D+00  0.000000D+00 -0.251388D-01  0.000000D+00
      8  0.000000D+00  0.113415D-01  0.000000D+00  0.000000D+00 -0.251388D-01
      9  0.000000D+00  0.000000D+00  0.000000D+00  0.000000D+00  0.000000D+00
     10  0.000000D+00  0.000000D+00  0.000000D+00  0.000000D+00  0.000000D+00
     11  0.000000D+00  0.000000D+00  0.000000D+00  0.000000D+00  0.000000D+00
     12  0.000000D+00  0.000000D+00  0.000000D+00  0.000000D+00  0.000000D+00
                6             7             8             9            10 
      6  0.223006D+00
      7  0.000000D+00  0.137973D-01
      8  0.000000D+00  0.000000D+00  0.137973D-01
      9 -0.165384D+00  0.000000D+00  0.000000D+00  0.165384D+00
     10  0.000000D+00  0.000000D+00  0.000000D+00  0.000000D+00  0.100000D+01
     11  0.000000D+00  0.000000D+00  0.000000D+00  0.000000D+00  0.000000D+00
     12  0.000000D+00  0.000000D+00  0.000000D+00  0.000000D+00  0.000000D+00
               11            12 
     11  0.100000D+01
     12  0.000000D+00  0.100000D+01
 Leave Link  716 at Mon Sep 11 10:45:35 2023, MaxMem=  1610612736 cpu:               0.3 elap:               0.0
 (Enter /home/sekinelabo/g16/l103.exe)

 GradGradGradGradGradGradGradGradGradGradGradGradGradGradGradGradGradGrad
 Berny optimization.
 Search for a local minimum.
 Step number   1 out of a maximum of    2
 All quantities printed in internal units (Hartrees-Bohrs-Radians)
 Second derivative matrix not updated -- first step.
 The second derivative matrix:
                          X1        Y1        Z1        X2        Y2
           X1           0.00932
           Y1           0.00000   0.00932
           Z1           0.00000   0.00000   0.05762
           X2          -0.02066   0.00000   0.00000   0.04580
           Y2           0.00000  -0.02066   0.00000   0.00000   0.04580
           Z2           0.00000   0.00000  -0.05762   0.00000   0.00000
           X3           0.01134   0.00000   0.00000  -0.02514   0.00000
           Y3           0.00000   0.01134   0.00000   0.00000  -0.02514
           Z3           0.00000   0.00000   0.00000   0.00000   0.00000
           X4           0.00000   0.00000   0.00000   0.00000   0.00000
           Y4           0.00000   0.00000   0.00000   0.00000   0.00000
           Z4           0.00000   0.00000   0.00000   0.00000   0.00000
                          Z2        X3        Y3        Z3        X4
           Z2           0.22301
           X3           0.00000   0.01380
           Y3           0.00000   0.00000   0.01380
           Z3          -0.16538   0.00000   0.00000   0.16538
           X4           0.00000   0.00000   0.00000   0.00000   1.00000
           Y4           0.00000   0.00000   0.00000   0.00000   0.00000
           Z4           0.00000   0.00000   0.00000   0.00000   0.00000
                          Y4        Z4
           Y4           1.00000
           Z4           0.00000   1.00000
 ITU=  0
     Eigenvalues ---    0.06892   0.06892   0.07760   0.18237   0.18237
     Eigenvalues ---    0.36841   0.75000
 Quadratic step=3.267D-01 exceeds max=3.000D-01 adjusted using Lamda=-7.732D-03.
 Angle between NR and scaled steps=   1.50 degrees.
 Angle between quadratic step and forces=  39.23 degrees.
 ClnCor:  largest displacement from symmetrization is 1.24D-16 for atom     2.
 Linear search not attempted -- first point.
 ClnCor:  largest displacement from symmetrization is 2.50D-16 for atom     1.
 B after Tr=     0.000000    0.000000    0.000000
         Rot=    1.000000    0.000000    0.000000    0.000000 Ang=   0.00 deg.
 Variable       Old X    -DE/DX   Delta X   Delta X   Delta X     New X
                                 (Linear)    (Quad)   (Total)
    X1        0.00000  -0.00000   0.00000  -0.00000   0.00000   0.00000
    Y1        0.00000  -0.00000   0.00000   0.00000   0.00000   0.00000
    Z1        0.00000  -0.01058   0.00000  -0.20256  -0.20256  -0.20256
    X2        0.00000  -0.00000   0.00000   0.00000   0.00000   0.00000
    Y2        0.00000  -0.00000   0.00000   0.00000   0.00000   0.00000
    Z2        5.17842  -0.02535   0.00000  -0.01064  -0.01064   5.16778
    X3        0.00000  -0.00000   0.00000  -0.00000   0.00000   0.00000
    Y3        0.00000  -0.00000   0.00000   0.00000   0.00000   0.00000
    Z3        9.43512   0.04212   0.00000   0.22137   0.22137   9.65649
    X4        0.00000  -0.00000   0.00000   0.00000   0.00000   0.00000
    Y4        0.00000  -0.00000   0.00000   0.00000   0.00000   0.00000
    Z4       18.48392  -0.00619   0.00000  -0.00817  -0.00817  18.47575
         Item               Value     Threshold  Converged?
 Maximum Force            0.042125     0.000450     NO 
 RMS     Force            0.014627     0.000300     NO 
 Maximum Displacement     0.221371     0.001800     NO 
 RMS     Displacement     0.086707     0.001200     NO 
 Predicted change in Energy=-6.243382D-03
 GradGradGradGradGradGradGradGradGradGradGradGradGradGradGradGradGradGrad

 Leave Link  103 at Mon Sep 11 10:45:35 2023, MaxMem=  1610612736 cpu:               0.1 elap:               0.0
 (Enter /home/sekinelabo/g16/l9999.exe)
 1\1\GINC-SEKINELABO-XA7R-R37\Force\RB3LYP\6-311+G(d)\Na4\SEKINELABO\11
 -Sep-2023\0\\#p B3LYP/6-311+g(d) force\\\0,1\Na,0.,0.,0.\Na,0.,0.,2.74
 03027906\Na,0.,0.,4.9928486879\Na,0.,0.,9.7812706985\\Version=ES64L-G1
 6RevB.01\State=1-SG\HF=-649.154538\RMSD=5.515e-09\RMSF=1.463e-02\Dipol
 e=0.,0.,-0.3749204\Quadrupole=-5.6527185,-5.6527185,11.3054369,0.,0.,0
 .\PG=C*V [C*(Na1Na1Na1Na1)]\\@


 PERICLES, SOPHOCLES,
 PELOPONESIAN WAR,
 FRENCH VERBS, LATIN VERBS
 H2SO4.
 Job cpu time:       0 days  0 hours  0 minutes 26.0 seconds.
 Elapsed time:       0 days  0 hours  0 minutes  1.7 seconds.
 File lengths (MBytes):  RWF=     11 Int=      0 D2E=      0 Chk=      2 Scr=      1
 Normal termination of Gaussian 16 at Mon Sep 11 10:45:35 2023.
 Initial command:
 /home/sekinelabo/g16/l1.exe "/home/sekinelabo/g16temp/Gau-3151686.inp" -scrdir="/home/sekinelabo/g16temp/"
 Entering Link 1 = /home/sekinelabo/g16/l1.exe PID=   3152195.
  
 Copyright (c) 1988-2017, Gaussian, Inc.  All Rights Reserved.
  
 This is part of the Gaussian(R) 16 program.  It is based on
 the Gaussian(R) 09 system (copyright 2009, Gaussian, Inc.),
 the Gaussian(R) 03 system (copyright 2003, Gaussian, Inc.),
 the Gaussian(R) 98 system (copyright 1998, Gaussian, Inc.),
 the Gaussian(R) 94 system (copyright 1995, Gaussian, Inc.),
 the Gaussian 92(TM) system (copyright 1992, Gaussian, Inc.),
 the Gaussian 90(TM) system (copyright 1990, Gaussian, Inc.),
 the Gaussian 88(TM) system (copyright 1988, Gaussian, Inc.),
 the Gaussian 86(TM) system (copyright 1986, Carnegie Mellon
 University), and the Gaussian 82(TM) system (copyright 1983,
 Carnegie Mellon University). Gaussian is a federally registered
 trademark of Gaussian, Inc.
  
 This software contains proprietary and confidential information,
 including trade secrets, belonging to Gaussian, Inc.
  
 This software is provided under written license and may be
 used, copied, transmitted, or stored only in accord with that
 written license.
  
 The following legend is applicable only to US Government
 contracts under FAR:
  
                    RESTRICTED RIGHTS LEGEND
  
 Use, reproduction and disclosure by the US Government is
 subject to restrictions as set forth in subparagraphs (a)
 and (c) of the Commercial Computer Software - Restricted
 Rights clause in FAR 52.227-19.
  
 Gaussian, Inc.
 340 Quinnipiac St., Bldg. 40, Wallingford CT 06492
  
  
 ---------------------------------------------------------------
 Warning -- This program may not be used in any manner that
 competes with the business of Gaussian, Inc. or will provide
 assistance to any competitor of Gaussian, Inc.  The licensee
 of this program is prohibited from giving any competitor of
 Gaussian, Inc. access to this program.  By using this program,
 the user acknowledges that Gaussian, Inc. is engaged in the
 business of creating and licensing software in the field of
 computational chemistry and represents and warrants to the
 licensee that it is not a competitor of Gaussian, Inc. and that
 it will not use this program in any manner prohibited above.
 ---------------------------------------------------------------
  

 Cite this work as:
 Gaussian 16, Revision B.01,
 M. J. Frisch, G. W. Trucks, H. B. Schlegel, G. E. Scuseria, 
 M. A. Robb, J. R. Cheeseman, G. Scalmani, V. Barone, 
 G. A. Petersson, H. Nakatsuji, X. Li, M. Caricato, A. V. Marenich, 
 J. Bloino, B. G. Janesko, R. Gomperts, B. Mennucci, H. P. Hratchian, 
 J. V. Ortiz, A. F. Izmaylov, J. L. Sonnenberg, D. Williams-Young, 
 F. Ding, F. Lipparini, F. Egidi, J. Goings, B. Peng, A. Petrone, 
 T. Henderson, D. Ranasinghe, V. G. Zakrzewski, J. Gao, N. Rega, 
 G. Zheng, W. Liang, M. Hada, M. Ehara, K. Toyota, R. Fukuda, 
 J. Hasegawa, M. Ishida, T. Nakajima, Y. Honda, O. Kitao, H. Nakai, 
 T. Vreven, K. Throssell, J. A. Montgomery, Jr., J. E. Peralta, 
 F. Ogliaro, M. J. Bearpark, J. J. Heyd, E. N. Brothers, K. N. Kudin, 
 V. N. Staroverov, T. A. Keith, R. Kobayashi, J. Normand, 
 K. Raghavachari, A. P. Rendell, J. C. Burant, S. S. Iyengar, 
 J. Tomasi, M. Cossi, J. M. Millam, M. Klene, C. Adamo, R. Cammi, 
 J. W. Ochterski, R. L. Martin, K. Morokuma, O. Farkas, 
 J. B. Foresman, and D. J. Fox, Gaussian, Inc., Wallingford CT, 2016.
 
 ******************************************
 Gaussian 16:  ES64L-G16RevB.01 20-Dec-2017
                11-Sep-2023 
 ******************************************
 %NProcShared=16
 Will use up to   16 processors via shared memory.
 %mem=12GB
 %Chk=checkpoint.chk
 -------------------------
 #p B3LYP/6-311+g(d) force
 -------------------------
 1/10=7,30=1,38=1/1,3;
 2/12=2,17=6,18=5,40=1/2;
 3/5=4,6=6,7=11,11=2,25=1,30=1,71=1,74=-5/1,2,3;
 4//1;
 5/5=2,38=5/2;
 6/7=2,8=2,9=2,10=2,28=1/1;
 7/29=1/1,2,3,16;
 1/10=7,30=1/3;
 99//99;
 Leave Link    1 at Mon Sep 11 10:45:35 2023, MaxMem=  1610612736 cpu:               0.2 elap:               0.0
 (Enter /home/sekinelabo/g16/l101.exe)


 Symbolic Z-matrix:
 Charge =  0 Multiplicity = 1
 Na                    0.        0.        0. 
 Na                    0.        0.        5.75971 
 Na                    0.        0.        11.28145 
 Na                    0.        0.        13.49763 
 
 ITRead=  0  0  0  0
 MicOpt= -1 -1 -1 -1
 NAtoms=      4 NQM=        4 NQMF=       0 NMMI=      0 NMMIF=      0
                NMic=       0 NMicF=      0.
                    Isotopes and Nuclear Properties:
 (Nuclear quadrupole moments (NQMom) in fm**2, nuclear magnetic moments (NMagM)
  in nuclear magnetons)

  Atom         1           2           3           4
 IAtWgt=          23          23          23          23
 AtmWgt=  22.9897697  22.9897697  22.9897697  22.9897697
 NucSpn=           3           3           3           3
 AtZEff=  -0.0000000  -0.0000000  -0.0000000  -0.0000000
 NQMom=   10.4000000  10.4000000  10.4000000  10.4000000
 NMagM=    2.2175200   2.2175200   2.2175200   2.2175200
 AtZNuc=  11.0000000  11.0000000  11.0000000  11.0000000
 Leave Link  101 at Mon Sep 11 10:45:35 2023, MaxMem=  1610612736 cpu:               1.7 elap:               0.1
 (Enter /home/sekinelabo/g16/l103.exe)

 GradGradGradGradGradGradGradGradGradGradGradGradGradGradGradGradGradGrad
 Berny optimization.
 Initialization pass.
 Trust Radius=3.00D-01 FncErr=1.00D-07 GrdErr=1.00D-07 EigMax=2.50D+02 EigMin=1.00D-04
 Number of steps in this run=      2 maximum allowed number of steps=      2.
 GradGradGradGradGradGradGradGradGradGradGradGradGradGradGradGradGradGrad

 Leave Link  103 at Mon Sep 11 10:45:35 2023, MaxMem=  1610612736 cpu:               0.2 elap:               0.0
 (Enter /home/sekinelabo/g16/l202.exe)
                          Input orientation:                          
 ---------------------------------------------------------------------
 Center     Atomic      Atomic             Coordinates (Angstroms)
 Number     Number       Type             X           Y           Z
 ---------------------------------------------------------------------
      1         11           0        0.000000    0.000000    0.000000
[...]
 DIIS: error= 1.99D-05 at cycle   6 NSaved=   6.
 NSaved= 6 IEnMin= 6 EnMin= -649.185919997065     IErMin= 6 ErrMin= 1.99D-05
 ErrMax= 1.99D-05  0.00D+00 EMaxC= 1.00D-01 BMatC= 2.43D-08 BMatP= 9.36D-06
 IDIUse=1 WtCom= 1.00D+00 WtEn= 0.00D+00
 Coeff-Com: -0.560D-02 0.733D-02 0.245D-01-0.241D-01 0.222D+00 0.776D+00
 Coeff:     -0.560D-02 0.733D-02 0.245D-01-0.241D-01 0.222D+00 0.776D+00
 Gap=     0.050 Goal=   None    Shift=    0.000
 RMSDP=6.02D-05 MaxDP=1.68D-03 DE=-4.37D-05 OVMax= 8.86D-04

 Cycle   7  Pass 1  IDiag  1:
 E= -649.185920099670     Delta-E=       -0.000000102605 Rises=F Damp=F
 DIIS: error= 1.01D-05 at cycle   7 NSaved=   7.
 NSaved= 7 IEnMin= 7 EnMin= -649.185920099670     IErMin= 7 ErrMin= 1.01D-05
 ErrMax= 1.01D-05  0.00D+00 EMaxC= 1.00D-01 BMatC= 3.81D-09 BMatP= 2.43D-08
 IDIUse=1 WtCom= 1.00D+00 WtEn= 0.00D+00
 Coeff-Com: -0.139D-02 0.181D-02-0.141D-02-0.721D-02 0.310D-01 0.264D+00
 Coeff-Com:  0.713D+00
 Coeff:     -0.139D-02 0.181D-02-0.141D-02-0.721D-02 0.310D-01 0.264D+00
 Coeff:      0.713D+00
 Gap=     0.050 Goal=   None    Shift=    0.000
 RMSDP=2.91D-05 MaxDP=8.75D-04 DE=-1.03D-07 OVMax= 3.81D-04

 Cycle   8  Pass 1  IDiag  1:
 E= -649.185920128155     Delta-E=       -0.000000028485 Rises=F Damp=F
 DIIS: error= 2.76D-06 at cycle   8 NSaved=   8.
 NSaved= 8 IEnMin= 8 EnMin= -649.185920128155     IErMin= 8 ErrMin= 2.76D-06
 ErrMax= 2.76D-06  0.00D+00 EMaxC= 1.00D-01 BMatC= 4.46D-10 BMatP= 3.81D-09
 IDIUse=1 WtCom= 1.00D+00 WtEn= 0.00D+00
 Coeff-Com: -0.162D-03 0.207D-03-0.255D-02-0.104D-02-0.309D-02 0.683D-01
 Coeff-Com:  0.310D+00 0.629D+00
 Coeff:     -0.162D-03 0.207D-03-0.255D-02-0.104D-02-0.309D-02 0.683D-01
 Coeff:      0.310D+00 0.629D+00
 Gap=     0.050 Goal=   None    Shift=    0.000
 RMSDP=2.89D-06 MaxDP=7.25D-05 DE=-2.85D-08 OVMax= 6.86D-05

 Cycle   9  Pass 1  IDiag  1:
 E= -649.185920129930     Delta-E=       -0.000000001775 Rises=F Damp=F
 DIIS: error= 5.07D-07 at cycle   9 NSaved=   9.
 NSaved= 9 IEnMin= 9 EnMin= -649.185920129930     IErMin= 9 ErrMin= 5.07D-07
 ErrMax= 5.07D-07  0.00D+00 EMaxC= 1.00D-01 BMatC= 2.86D-11 BMatP= 4.46D-10
 IDIUse=1 WtCom= 1.00D+00 WtEn= 0.00D+00
 Coeff-Com:  0.114D-03-0.152D-03-0.906D-03 0.457D-03-0.479D-02-0.206D-02
 Coeff-Com:  0.466D-01 0.204D+00 0.756D+00
 Coeff:      0.114D-03-0.152D-03-0.906D-03 0.457D-03-0.479D-02-0.206D-02
 Coeff:      0.466D-01 0.204D+00 0.756D+00
 Gap=     0.050 Goal=   None    Shift=    0.000
 RMSDP=6.73D-07 MaxDP=1.82D-05 DE=-1.77D-09 OVMax= 1.45D-05

 Cycle  10  Pass 1  IDiag  1:
 E= -649.185920130001     Delta-E=       -0.000000000071 Rises=F Damp=F
 DIIS: error= 1.50D-07 at cycle  10 NSaved=  10.
 NSaved=10 IEnMin=10 EnMin= -649.185920130001     IErMin=10 ErrMin= 1.50D-07
 ErrMax= 1.50D-07  0.00D+00 EMaxC= 1.00D-01 BMatC= 1.79D-12 BMatP= 2.86D-11
 IDIUse=1 WtCom= 1.00D+00 WtEn= 0.00D+00
 Coeff-Com:  0.636D-04-0.840D-04-0.548D-04 0.263D-03-0.146D-02-0.781D-02
 Coeff-Com: -0.161D-01 0.194D-01 0.222D+00 0.784D+00
 Coeff:      0.636D-04-0.840D-04-0.548D-04 0.263D-03-0.146D-02-0.781D-02
 Coeff:     -0.161D-01 0.194D-01 0.222D+00 0.784D+00
 Gap=     0.050 Goal=   None    Shift=    0.000
 RMSDP=6.42D-07 MaxDP=2.63D-05 DE=-7.11D-11 OVMax= 4.45D-06

 Cycle  11  Pass 1  IDiag  1:
 E= -649.185920130004     Delta-E=       -0.000000000003 Rises=F Damp=F
 DIIS: error= 9.49D-09 at cycle  11 NSaved=  11.
 NSaved=11 IEnMin=11 EnMin= -649.185920130004     IErMin=11 ErrMin= 9.49D-09
 ErrMax= 9.49D-09  0.00D+00 EMaxC= 1.00D-01 BMatC= 2.37D-14 BMatP= 1.79D-12
 IDIUse=1 WtCom= 1.00D+00 WtEn= 0.00D+00
 Coeff-Com: -0.319D-05 0.428D-05 0.135D-04-0.614D-05 0.892D-04-0.647D-04
 Coeff-Com: -0.218D-02-0.346D-02-0.390D-02 0.621D-01 0.947D+00
 Coeff:     -0.319D-05 0.428D-05 0.135D-04-0.614D-05 0.892D-04-0.647D-04
 Coeff:     -0.218D-02-0.346D-02-0.390D-02 0.621D-01 0.947D+00
 Gap=     0.050 Goal=   None    Shift=    0.000
 RMSDP=3.55D-08 MaxDP=1.10D-06 DE=-3.41D-12 OVMax= 2.66D-07

 Cycle  12  Pass 1  IDiag  1:
 E= -649.185920130010     Delta-E=       -0.000000000005 Rises=F Damp=F
 DIIS: error= 4.51D-09 at cycle  12 NSaved=  12.
 NSaved=12 IEnMin=12 EnMin= -649.185920130010     IErMin=12 ErrMin= 4.51D-09
 ErrMax= 4.51D-09  0.00D+00 EMaxC= 1.00D-01 BMatC= 3.28D-15 BMatP= 2.37D-14
 IDIUse=1 WtCom= 1.00D+00 WtEn= 0.00D+00
 Coeff-Com: -0.362D-05 0.482D-05 0.550D-05-0.119D-04 0.871D-04 0.206D-03
 Coeff-Com: -0.882D-04-0.154D-02-0.790D-02-0.181D-01 0.333D+00 0.694D+00
 Coeff:     -0.362D-05 0.482D-05 0.550D-05-0.119D-04 0.871D-04 0.206D-03
 Coeff:     -0.882D-04-0.154D-02-0.790D-02-0.181D-01 0.333D+00 0.694D+00
 Gap=     0.050 Goal=   None    Shift=    0.000
 RMSDP=1.95D-08 MaxDP=9.13D-07 DE=-5.23D-12 OVMax= 1.47D-07

 Cycle  13  Pass 1  IDiag  1:
 E= -649.185920130011     Delta-E=       -0.000000000001 Rises=F Damp=F
 DIIS: error= 8.75D-10 at cycle  13 NSaved=  13.
 NSaved=13 IEnMin=13 EnMin= -649.185920130011     IErMin=13 ErrMin= 8.75D-10
 ErrMax= 8.75D-10  0.00D+00 EMaxC= 1.00D-01 BMatC= 9.45D-17 BMatP= 3.28D-15
 IDIUse=1 WtCom= 1.00D+00 WtEn= 0.00D+00
 Coeff-Com: -0.986D-08 0.175D-07-0.186D-06-0.123D-05 0.503D-05-0.106D-04
 Coeff-Com:  0.420D-04 0.109D-03 0.530D-04-0.335D-02-0.489D-01 0.700D-01
 Coeff-Com:  0.982D+00
 Coeff:     -0.986D-08 0.175D-07-0.186D-06-0.123D-05 0.503D-05-0.106D-04
 Coeff:      0.420D-04 0.109D-03 0.530D-04-0.335D-02-0.489D-01 0.700D-01
 Coeff:      0.982D+00
 Gap=     0.050 Goal=   None    Shift=    0.000
 RMSDP=6.76D-09 MaxDP=2.65D-07 DE=-9.09D-13 OVMax= 3.83D-08

 SCF Done:  E(RB3LYP) =  -649.185920130     A.U. after   13 cycles
            NFock= 13  Conv=0.68D-08     -V/T= 2.0028
 KE= 6.473915868336D+02 PE=-1.726899887752D+03 EE= 3.464247505159D+02
 Leave Link  502 at Mon Sep 11 10:45:49 2023, MaxMem=  1610612736 cpu:              11.5 elap:               0.8
 (Enter /home/sekinelabo/g16/l601.exe)
 Copying SCF densities to generalized density rwf, IOpCl= 0 IROHF=0.

 **********************************************************************

            Population analysis using the SCF Density.

 **********************************************************************

 Orbital symmetries:
       Occupied  (SG) (SG) (SG) (SG) (SG) (SG) (SG) (SG) (SG) (PI)
                 (PI) (PI) (PI) (SG) (PI) (PI) (SG) (PI) (PI) (SG)
                 (SG) (SG)
       Virtual   (SG) (SG) (PI) (PI) (PI) (PI) (SG) (SG) (PI) (PI)
                 (SG) (SG) (PI) (PI) (SG) (PI) (PI) (SG) (PI) (PI)
                 (PI) (PI) (SG) (PI) (PI) (SG) (SG) (SG) (SG) (PI)
                 (PI) (SG) (PI) (PI) (SG) (SG) (PI) (PI) (PI) (PI)
                 (SG) (SG) (SG) (SG) (SG) (PI) (PI) (DLTA) (DLTA)
                 (PI) (PI) (SG) (DLTA) (DLTA) (DLTA) (DLTA) (DLTA)
                 (DLTA) (SG) (PI) (PI) (PI) (PI) (PI) (PI) (SG)
                 (PI) (PI) (PI) (PI) (SG) (SG) (SG) (SG) (PI) (PI)
                 (SG) (SG) (SG) (SG) (SG) (PI) (PI) (PI) (PI) (PI)
                 (PI) (SG) (PI) (PI) (SG) (SG) (SG) (SG) (SG) (SG)
                 (SG)
 The electronic state is 1-SG.
 Alpha  occ. eigenvalues --  -38.45539 -38.45291 -38.44935 -38.44758  -2.21464
 Alpha  occ. eigenvalues --   -2.21005  -2.20836  -2.20479  -1.15778  -1.15023
 Alpha  occ. eigenvalues --   -1.15023  -1.14680  -1.14680  -1.14624  -1.14403
 Alpha  occ. eigenvalues --   -1.14403  -1.14249  -1.14163  -1.14163  -1.14091
 Alpha  occ. eigenvalues --   -0.14607  -0.12470
 Alpha virt. eigenvalues --   -0.07512  -0.03941  -0.03236  -0.03236  -0.02002
 Alpha virt. eigenvalues --   -0.02002  -0.01077   0.00250   0.00276   0.00276
 Alpha virt. eigenvalues --    0.00323   0.01153   0.01154   0.01154   0.01310
 Alpha virt. eigenvalues --    0.01426   0.01426   0.02425   0.02614   0.02614
 Alpha virt. eigenvalues --    0.02857   0.02857   0.03332   0.04027   0.04027
 Alpha virt. eigenvalues --    0.04030   0.04798   0.05485   0.05842   0.07093
 Alpha virt. eigenvalues --    0.07093   0.07279   0.08145   0.08145   0.08285
 Alpha virt. eigenvalues --    0.09383   0.09491   0.09491   0.10821   0.10821
 Alpha virt. eigenvalues --    0.13300   0.14329   0.15079   0.15726   0.20819
 Alpha virt. eigenvalues --    0.28632   0.28632   0.29988   0.29988   0.32336
 Alpha virt. eigenvalues --    0.32336   0.33573   0.34286   0.34286   0.36053
 Alpha virt. eigenvalues --    0.36053   0.39999   0.39999   0.40297   0.41077
 Alpha virt. eigenvalues --    0.41077   0.42447   0.42447   0.43557   0.43557
 Alpha virt. eigenvalues --    0.43729   0.44568   0.44568   0.44826   0.44826
 Alpha virt. eigenvalues --    0.46144   0.48488   0.49502   0.55362   0.57640
 Alpha virt. eigenvalues --    0.57640   0.92127   2.01233   2.06029   2.09714
 Alpha virt. eigenvalues --    2.14767   4.42355   4.42355   4.43717   4.43717
 Alpha virt. eigenvalues --    4.44793   4.44793   4.46197   4.48121   4.48121
 Alpha virt. eigenvalues --    4.49001   4.53099   4.81596  96.20390  96.28345
 Alpha virt. eigenvalues --   96.30460  96.36735
          Condensed to atoms (all electrons):
               1          2          3          4
     1  Na  10.475344   0.338506  -0.047066   0.005488
     2  Na   0.338506  13.038006  -0.556572  -0.775087
     3  Na  -0.047066  -0.556572  11.442025   0.126847
     4  Na   0.005488  -0.775087   0.126847  10.860389
 Mulliken charges:
               1
     1  Na   0.227727
     2  Na  -1.044854
     3  Na   0.034765
     4  Na   0.782362
 Sum of Mulliken charges =   0.00000
 Mulliken charges with hydrogens summed into heavy atoms:
               1
     1  Na   0.227727
     2  Na  -1.044854
     3  Na   0.034765
     4  Na   0.782362
 Electronic spatial extent (au):  <R**2>=           2455.7132
 Charge=             -0.0000 electrons
 Dipole moment (field-independent basis, Debye):
    X=              0.0000    Y=              0.0000    Z=             -0.0645  Tot=              0.0645
 Quadrupole moment (field-independent basis, Debye-Ang):
   XX=            -44.3365   YY=            -44.3365   ZZ=            -17.5207
   XY=              0.0000   XZ=              0.0000   YZ=              0.0000
 Traceless Quadrupole moment (field-independent basis, Debye-Ang):
   XX=             -8.9386   YY=             -8.9386   ZZ=             17.8772
   XY=              0.0000   XZ=              0.0000   YZ=              0.0000
 Octapole moment (field-independent basis, Debye-Ang**2):
  XXX=              0.0000  YYY=              0.0000  ZZZ=             36.3334  XYY=              0.0000
  XXY=              0.0000  XXZ=             -3.0048  XZZ=              0.0000  YZZ=              0.0000
  YYZ=             -3.0048  XYZ=              0.0000
 Hexadecapole moment (field-independent basis, Debye-Ang**3):
 XXXX=           -182.6504 YYYY=           -182.6504 ZZZZ=          -2265.3915 XXXY=              0.0000
 XXXZ=              0.0000 YYYX=              0.0000 YYYZ=              0.0000 ZZZX=              0.0000
 ZZZY=              0.0000 XXYY=            -60.8835 XXZZ=           -697.7346 YYZZ=           -697.7346
 XXYZ=              0.0000 YYXZ=              0.0000 ZZXY=              0.0000
 N-N= 8.389763027259D+01 E-N=-1.726899887800D+03  KE= 6.473915868336D+02
 Symmetry A1   KE= 5.524779331551D+02
 Symmetry A2   KE=-3.762064230046D-53
 Symmetry B1   KE= 4.745682683924D+01
 Symmetry B2   KE= 4.745682683924D+01
 No NMR shielding tensors so no spin-rotation constants.
 Leave Link  601 at Mon Sep 11 10:45:49 2023, MaxMem=  1610612736 cpu:               1.2 elap:               0.1
 (Enter /home/sekinelabo/g16/l701.exe)
 ... and contract with generalized density number  0.
 Compute integral first derivatives.
 Leave Link  701 at Mon Sep 11 10:45:49 2023, MaxMem=  1610612736 cpu:               1.4 elap:               0.1
 (Enter /home/sekinelabo/g16/l702.exe)
 L702 exits ... SP integral derivatives will be done elsewhere.
 Leave Link  702 at Mon Sep 11 10:45:49 2023, MaxMem=  1610612736 cpu:               0.3 elap:               0.0
 (Enter /home/sekinelabo/g16/l703.exe)
 Integral derivatives from FoFJK, PRISM(SPDF).
 Compute integral first derivatives, UseDBF=F ICtDFT=           0.
 Calling FoFJK, ICntrl=      2127 FMM=F ISym2X=1 I1Cent= 0 IOpClX= 0 NMat=1 NMatS=1 NMatT=0.
 FoFJK:  IHMeth= 1 ICntrl=    2127 DoSepK=F KAlg= 0 I1Cent=           0 FoldK=F
 IRaf=         0 NMat=       1 IRICut=       1 DoRegI=T DoRafI=F ISym2E= 1 IDoP0=0 IntGTp=1.
 FoFCou: FMM=F IPFlag=           0 FMFlag=      100000 FMFlg1=         800
         NFxFlg=           0 DoJE=F BraDBF=F KetDBF=F FulRan=T
         wScrn=  0.000000 ICntrl=      2127 IOpCl=  0 I1Cent=           0 NGrid=           0
         NMat0=    1 NMatS0=      1 NMatT0=    0 NMatD0=    1 NMtDS0=    0 NMtDT0=    0
 Petite list used in FoFCou.
 Leave Link  703 at Mon Sep 11 10:45:49 2023, MaxMem=  1610612736 cpu:               4.2 elap:               0.3
 (Enter /home/sekinelabo/g16/l716.exe)
 Dipole        = 0.00000000D+00 0.00000000D+00-2.53833504D-02
 ***** Axes restored to original set *****
 -------------------------------------------------------------------
 Center     Atomic                   Forces (Hartrees/Bohr)
 Number     Number              X              Y              Z
 -------------------------------------------------------------------
      1       11          -0.000000000   -0.000000000   -0.023963092
      2       11          -0.000000000   -0.000000000    0.025015614
      3       11          -0.000000000   -0.000000000    0.005949256
      4       11          -0.000000000   -0.000000000   -0.007001778
 -------------------------------------------------------------------
 Cartesian Forces:  Max     0.025015614 RMS     0.010345809
 Z-matrix is all fixed cartesians, so copy forces.
 Force constants in Cartesian coordinates: 
                1             2             3             4             5 
      1  0.119374D-01
      2  0.000000D+00  0.119374D-01
      3  0.000000D+00  0.000000D+00  0.109877D+00
      4 -0.190955D-01  0.000000D+00  0.000000D+00  0.348382D-01
      5  0.000000D+00 -0.190955D-01  0.000000D+00  0.000000D+00  0.348382D-01
      6  0.000000D+00  0.000000D+00 -0.109877D+00  0.000000D+00  0.000000D+00
      7  0.715812D-02  0.000000D+00  0.000000D+00 -0.203898D-01  0.000000D+00
      8  0.000000D+00  0.715812D-02  0.000000D+00  0.000000D+00 -0.203898D-01
      9  0.000000D+00  0.000000D+00  0.000000D+00  0.000000D+00  0.000000D+00
     10  0.000000D+00  0.000000D+00  0.000000D+00  0.464712D-02  0.000000D+00
     11  0.000000D+00  0.000000D+00  0.000000D+00  0.000000D+00  0.464712D-02
     12  0.000000D+00  0.000000D+00  0.000000D+00  0.000000D+00  0.000000D+00
                6             7             8             9            10 
      6  0.119945D+00
      7  0.000000D+00  0.229101D-01
      8  0.000000D+00  0.000000D+00  0.229101D-01
      9 -0.100679D-01  0.000000D+00  0.000000D+00  0.240989D-01
     10  0.000000D+00 -0.967842D-02  0.000000D+00  0.000000D+00  0.503130D-02
     11  0.000000D+00  0.000000D+00 -0.967842D-02  0.000000D+00  0.000000D+00
     12  0.000000D+00  0.000000D+00  0.000000D+00 -0.140310D-01  0.000000D+00
               11            12 
     11  0.503130D-02
     12  0.000000D+00  0.140310D-01
 Leave Link  716 at Mon Sep 11 10:45:49 2023, MaxMem=  1610612736 cpu:               0.3 elap:               0.0
 (Enter /home/sekinelabo/g16/l103.exe)

 GradGradGradGradGradGradGradGradGradGradGradGradGradGradGradGradGradGrad
 Berny optimization.
 Search for a local minimum.
 Step number   1 out of a maximum of    2
 All quantities printed in internal units (Hartrees-Bohrs-Radians)
 Second derivative matrix not updated -- first step.
 The second derivative matrix:
                          X1        Y1        Z1        X2        Y2
           X1           0.01194
           Y1           0.00000   0.01194
           Z1           0.00000   0.00000   0.10988
           X2          -0.01910   0.00000   0.00000   0.03484
           Y2           0.00000  -0.01910   0.00000   0.00000   0.03484
           Z2           0.00000   0.00000  -0.10988   0.00000   0.00000
           X3           0.00716   0.00000   0.00000  -0.02039   0.00000
           Y3           0.00000   0.00716   0.00000   0.00000  -0.02039
           Z3           0.00000   0.00000   0.00000   0.00000   0.00000
           X4           0.00000   0.00000   0.00000   0.00465   0.00000
           Y4           0.00000   0.00000   0.00000   0.00000   0.00465
           Z4           0.00000   0.00000   0.00000   0.00000   0.00000
                          Z2        X3        Y3        Z3        X4
           Z2           0.11994
           X3           0.00000   0.02291
           Y3           0.00000   0.00000   0.02291
           Z3          -0.01007   0.00000   0.00000   0.02410
           X4           0.00000  -0.00968   0.00000   0.00000   0.00503
           Y4           0.00000   0.00000  -0.00968   0.00000   0.00000
           Z4           0.00000   0.00000   0.00000  -0.01403   0.00000
                          Y4        Z4
           Y4           0.00503
           Z4           0.00000   0.01403
 ITU=  0
     Eigenvalues ---    0.00791   0.01490   0.01490   0.03488   0.05982
     Eigenvalues ---    0.05982   0.22517
 Quadratic step=4.564D-01 exceeds max=3.000D-01 adjusted using Lamda=-9.784D-03.
 Angle between NR and scaled steps=  17.15 degrees.
 Angle between quadratic step and forces=  45.60 degrees.
 ClnCor:  largest displacement from symmetrization is 3.63D-16 for atom     3.
 Linear search not attempted -- first point.
 ClnCor:  largest displacement from symmetrization is 7.77D-16 for atom     1.
 B after Tr=     0.000000    0.000000    0.000000
         Rot=    1.000000    0.000000    0.000000    0.000000 Ang=   0.00 deg.
 Variable       Old X    -DE/DX   Delta X   Delta X   Delta X     New X
                                 (Linear)    (Quad)   (Total)
    X1        0.00000  -0.00000   0.00000  -0.00000   0.00000   0.00000
    Y1        0.00000  -0.00000   0.00000   0.00000   0.00000   0.00000
    Z1        0.00000  -0.02396   0.00000  -0.06264  -0.06264  -0.06264
    X2        0.00000  -0.00000   0.00000  -0.00000   0.00000   0.00000
    Y2        0.00000  -0.00000   0.00000   0.00000   0.00000   0.00000
    Z2        4.57631   0.02502   0.00000   0.14988   0.14988   4.72619
    X3        0.00000  -0.00000   0.00000   0.00000   0.00000   0.00000
    Y3        0.00000  -0.00000   0.00000   0.00000   0.00000   0.00000
    Z3       12.20809   0.00595   0.00000   0.13011   0.13011  12.33820
    X4        0.00000  -0.00000   0.00000  -0.00000   0.00000   0.00000
    Y4        0.00000  -0.00000   0.00000   0.00000   0.00000   0.00000
    Z4       19.25713  -0.00700   0.00000  -0.21735  -0.21735  19.03978
         Item               Value     Threshold  Converged?
 Maximum Force            0.025016     0.000450     NO 
 RMS     Force            0.010346     0.000300     NO 
 Maximum Displacement     0.217353     0.001800     NO 
 RMS     Displacement     0.086870     0.001200     NO 
 Predicted change in Energy=-4.216064D-03
 GradGradGradGradGradGradGradGradGradGradGradGradGradGradGradGradGradGrad

 Leave Link  103 at Mon Sep 11 10:45:50 2023, MaxMem=  1610612736 cpu:               0.2 elap:               0.0
 (Enter /home/sekinelabo/g16/l9999.exe)
 1\1\GINC-SEKINELABO-XA7R-R37\Force\RB3LYP\6-311+G(d)\Na4\SEKINELABO\11
 -Sep-2023\0\\#p B3LYP/6-311+g(d) force\\\0,1\Na,0.,0.,0.\Na,0.,0.,2.42
 16780255\Na,0.,0.,6.4602421734\Na,0.,0.,10.1904341794\\Version=ES64L-G
 16RevB.01\State=1-SG\HF=-649.1859201\RMSD=6.756e-09\RMSF=1.035e-02\Dip
 ole=0.,0.,-0.0253834\Quadrupole=-6.6456274,-6.6456274,13.2912547,0.,0.
 ,0.\PG=C*V [C*(Na1Na1Na1Na1)]\\@


 The most important thing in communication is to hear what isn't being said.
 -- Peter F. Drucker
 Job cpu time:       0 days  0 hours  0 minutes 25.1 seconds.
 Elapsed time:       0 days  0 hours  0 minutes  1.6 seconds.
 File lengths (MBytes):  RWF=     11 Int=      0 D2E=      0 Chk=      2 Scr=      1
 Normal termination of Gaussian 16 at Mon Sep 11 10:45:50 2023.
