 Entering Gaussian System, Link 0=g16
 Initial command:
 /home/sekinelabo/g16/l1.exe "/home/sekinelabo/g16temp/Gau-3155230.inp" -scrdir="/home/sekinelabo/g16temp/"
 Entering Link 1 = /home/sekinelabo/g16/l1.exe PID=   3155232.
  
 Copyright (c) 1988-2017, Gaussian, Inc.  All Rights Reserved.
  
 This is part of the Gaussian(R) 16 program.  It is based on
 the Gaussian(R) 09 system (copyright 2009, Gaussian, Inc.),
 the Gaussian(R) 03 system (copyright 2003, Gaussian, Inc.),
 the Gaussian(R) 98 system (copyright 1998, Gaussian, Inc.),
 the Gaussian(R) 94 system (copyright 1995, Gaussian, Inc.),
 the Gaussian 92(TM) system (copyright 1992, Gaussian, Inc.),
 the Gaussian 90(TM) system (copyright 1990, Gaussian, Inc.),
 the Gaussian 88(TM) system (copyright 1988, Gaussian, Inc.),
 the Gaussian 86(TM) system (copyright 1986, Carnegie Mellon
 University), and the Gaussian 82(TM) system (copyright 1983,
 Carnegie Mellon University). Gaussian is a federally registered
 trademark of Gaussian, Inc.
  
 This software contains proprietary and confidential information,
 including trade secrets, belonging to Gaussian, Inc.
  
 This software is provided under written license and may be
 used, copied, transmitted, or stored only in accord with that
 written license.
  
 The following legend is applicable only to US Government
 contracts under FAR:
  
                    RESTRICTED RIGHTS LEGEND
  
 Use, reproduction and disclosure by the US Government is
 subject to restrictions as set forth in subparagraphs (a)
 and (c) of the Commercial Computer Software - Restricted
 Rights clause in FAR 52.227-19.
  
 Gaussian, Inc.
 340 Quinnipiac St., Bldg. 40, Wallingford CT 06492
  
  
 ---------------------------------------------------------------
 Warning -- This program may not be used in any manner that
 competes with the business of Gaussian, Inc. or will provide
 assistance to any competitor of Gaussian, Inc.  The licensee
 of this program is prohibited from giving any competitor of
 Gaussian, Inc. access to this program.  By using this program,
 the user acknowledges that Gaussian, Inc. is engaged in the
 business of creating and licensing software in the field of
 computational chemistry and represents and warrants to the
 licensee that it is not a competitor of Gaussian, Inc. and that
 it will not use this program in any manner prohibited above.
 ---------------------------------------------------------------
  

 Cite this work as:
 Gaussian 16, Revision B.01,
 M. J. Frisch, G. W. Trucks, H. B. Schlegel, G. E. Scuseria, 
 M. A. Robb, J. R. Cheeseman, G. Scalmani, V. Barone, 
 G. A. Petersson, H. Nakatsuji, X. Li, M. Caricato, A. V. Marenich, 
 J. Bloino, B. G. Janesko, R. Gomperts, B. Mennucci, H. P. Hratchian, 
 J. V. Ortiz, A. F. Izmaylov, J. L. Sonnenberg, D. Williams-Young, 
 F. Ding, F. Lipparini, F. Egidi, J. Goings, B. Peng, A. Petrone, 
 T. Henderson, D. Ranasinghe, V. G. Zakrzewski, J. Gao, N. Rega, 
 G. Zheng, W. Liang, M. Hada, M. Ehara, K. Toyota, R. Fukuda, 
 J. Hasegawa, M. Ishida, T. Nakajima, Y. Honda, O. Kitao, H. Nakai, 
 T. Vreven, K. Throssell, J. A. Montgomery, Jr., J. E. Peralta, 
 F. Ogliaro, M. J. Bearpark, J. J. Heyd, E. N. Brothers, K. N. Kudin, 
 V. N. Staroverov, T. A. Keith, R. Kobayashi, J. Normand, 
 K. Raghavachari, A. P. Rendell, J. C. Burant, S. S. Iyengar, 
 J. Tomasi, M. Cossi, J. M. Millam, M. Klene, C. Adamo, R. Cammi, 
 J. W. Ochterski, R. L. Martin, K. Morokuma, O. Farkas, 
 J. B. Foresman, and D. J. Fox, Gaussian, Inc., Wallingford CT, 2016.
 
 ******************************************
 Gaussian 16:  ES64L-G16RevB.01 20-Dec-2017
                11-Sep-2023 
 ******************************************
 %NProcShared=16
 Will use up to   16 processors via shared memory.
 %mem=12GB
 %Chk=checkpoint.chk
 -------------------------
 #p B3LYP/6-311+g(d) force
 -------------------------
 1/10=7,30=1,38=1/1,3;
 2/12=2,17=6,18=5,40=1/2;
 3/5=4,6=6,7=11,11=2,25=1,30=1,71=1,74=-5/1,2,3;
 4//1;
 5/5=2,38=5/2;
 6/7=2,8=2,9=2,10=2,28=1/1;
 7/29=1/1,2,3,16;
 1/10=7,30=1/3;
 99//99;
 Leave Link    1 at Mon Sep 11 10:50:24 2023, MaxMem=  1610612736 cpu:               0.2 elap:               0.0
 (Enter /home/sekinelabo/g16/l101.exe)


 Symbolic Z-matrix:
 Charge =  0 Multiplicity = 1
 Na                    0.        0.        0. 
 Na                    0.        0.        3.16303 
 Na                    0.        0.        7.86309 
 Na                    0.        0.        10.5094 
 
 ITRead=  0  0  0  0
 MicOpt= -1 -1 -1 -1
 NAtoms=      4 NQM=        4 NQMF=       0 NMMI=      0 NMMIF=      0
                NMic=       0 NMicF=      0.
                    Isotopes and Nuclear Properties:
 (Nuclear quadrupole moments (NQMom) in fm**2, nuclear magnetic moments (NMagM)
  in nuclear magnetons)

  Atom         1           2           3           4
 IAtWgt=          23          23          23          23
 AtmWgt=  22.9897697  22.9897697  22.9897697  22.9897697
 NucSpn=           3           3           3           3
 AtZEff=  -0.0000000  -0.0000000  -0.0000000  -0.0000000
 NQMom=   10.4000000  10.4000000  10.4000000  10.4000000
 NMagM=    2.2175200   2.2175200   2.2175200   2.2175200
 AtZNuc=  11.0000000  11.0000000  11.0000000  11.0000000
 Leave Link  101 at Mon Sep 11 10:50:24 2023, MaxMem=  1610612736 cpu:               1.6 elap:               0.1
 (Enter /home/sekinelabo/g16/l103.exe)

 GradGradGradGradGradGradGradGradGradGradGradGradGradGradGradGradGradGrad
 Berny optimization.
 Initialization pass.
 Trust Radius=3.00D-01 FncErr=1.00D-07 GrdErr=1.00D-07 EigMax=2.50D+02 EigMin=1.00D-04
 Number of steps in this run=      2 maximum allowed number of steps=      2.
 GradGradGradGradGradGradGradGradGradGradGradGradGradGradGradGradGradGrad

 Leave Link  103 at Mon Sep 11 10:50:24 2023, MaxMem=  1610612736 cpu:               0.2 elap:               0.0
 (Enter /home/sekinelabo/g16/l202.exe)
                          Input orientation:                          
 ---------------------------------------------------------------------
 Center     Atomic      Atomic             Coordinates (Angstroms)
 Number     Number       Type             X           Y           Z
 ---------------------------------------------------------------------
      1         11           0        0.000000    0.000000    0.000000
      2         11           0        0.000000    0.000000    3.163035
      3         11           0        0.000000    0.000000    7.863090
      4         11           0        0.000000    0.000000   10.509397
 ---------------------------------------------------------------------
                    Distance matrix (angstroms):
                    1          2          3          4
     1  Na   0.000000
     2  Na   3.163035   0.000000
     3  Na   7.863090   4.700055   0.000000
     4  Na  10.509397   7.346363   2.646307   0.000000
 Stoichiometry    Na4
 Framework group  C*V[C*(NaNaNaNa)]
 Deg. of freedom     3
 Full point group                 C*V     NOp   4
 Largest Abelian subgroup         C2V     NOp   4
 Largest concise Abelian subgroup C1      NOp   1
                         Standard orientation:                         
 ---------------------------------------------------------------------
 Center     Atomic      Atomic             Coordinates (Angstroms)
 Number     Number       Type             X           Y           Z
 ---------------------------------------------------------------------
      1         11           0        0.000000    0.000000    5.383880
      2         11           0        0.000000    0.000000    2.220846
      3         11           0        0.000000    0.000000   -2.479209
      4         11           0        0.000000    0.000000   -5.125517
 ---------------------------------------------------------------------
 Rotational constants (GHZ):           0.0000000           0.3313867           0.3313867
 Leave Link  202 at Mon Sep 11 10:50:24 2023, MaxMem=  1610612736 cpu:               0.0 elap:               0.0
 (Enter /home/sekinelabo/g16/l301.exe)
 Standard basis: 6-311+G(d) (5D, 7F)
 Ernie: Thresh=  0.10000D-02 Tol=  0.10000D-05 Strict=F.
 There are    64 symmetry adapted cartesian basis functions of A1  symmetry.
 There are     4 symmetry adapted cartesian basis functions of A2  symmetry.
 There are    28 symmetry adapted cartesian basis functions of B1  symmetry.
 There are    28 symmetry adapted cartesian basis functions of B2  symmetry.
 There are    60 symmetry adapted basis functions of A1  symmetry.
 There are     4 symmetry adapted basis functions of A2  symmetry.
 There are    28 symmetry adapted basis functions of B1  symmetry.
 There are    28 symmetry adapted basis functions of B2  symmetry.
   120 basis functions,   200 primitive gaussians,   124 cartesian basis functions
    22 alpha electrons       22 beta electrons
       nuclear repulsion energy        81.0146313741 Hartrees.
 IExCor=  402 DFT=T Ex+Corr=B3LYP ExCW=0 ScaHFX=  0.200000
 ScaDFX=  0.800000  0.720000  1.000000  0.810000 ScalE2=  1.000000  1.000000
 IRadAn=      5 IRanWt=     -1 IRanGd=            0 ICorTp=0 IEmpDi=  4
 NAtoms=    4 NActive=    4 NUniq=    4 SFac= 1.00D+00 NAtFMM=   60 NAOKFM=F Big=F
 Integral buffers will be    131072 words long.
 Raffenetti 2 integral format.
 Two-electron integral symmetry is turned on.
 Leave Link  301 at Mon Sep 11 10:50:24 2023, MaxMem=  1610612736 cpu:               0.4 elap:               0.0
 (Enter /home/sekinelabo/g16/l302.exe)
 NPDir=0 NMtPBC=     1 NCelOv=     1 NCel=       1 NClECP=     1 NCelD=      1
         NCelK=      1 NCelE2=     1 NClLst=     1 CellRange=     0.0.
 One-electron integrals computed using PRISM.
 One-electron integral symmetry used in STVInt
 NBasis=   120 RedAO= T EigKep=  3.04D-06  NBF=    60     4    28    28
 NBsUse=   119 1.00D-06 EigRej=  3.29D-07 NBFU=    59     4    28    28
 Precomputing XC quadrature grid using
 IXCGrd= 4 IRadAn=           5 IRanWt=          -1 IRanGd=           0 AccXCQ= 0.00D+00.
 Generated NRdTot=       0 NPtTot=           0 NUsed=           0 NTot=          32
 NSgBfM=   111   111   111   111   111 MxSgAt=     4 MxSgA2=     4.
 Leave Link  302 at Mon Sep 11 10:50:24 2023, MaxMem=  1610612736 cpu:               1.3 elap:               0.1
 (Enter /home/sekinelabo/g16/l303.exe)
 DipDrv:  MaxL=1.
 Leave Link  303 at Mon Sep 11 10:50:24 2023, MaxMem=  1610612736 cpu:               0.3 elap:               0.0
 (Enter /home/sekinelabo/g16/l401.exe)
 ExpMin= 7.60D-03 ExpMax= 3.62D+04 ExpMxC= 1.21D+03 IAcc=3 IRadAn=         5 AccDes= 0.00D+00
 Harris functional with IExCor=  402 and IRadAn=       5 diagonalized for initial guess.
 HarFok:  IExCor=  402 AccDes= 0.00D+00 IRadAn=         5 IDoV= 1 UseB2=F ITyADJ=14
 ICtDFT=  3500011 ScaDFX=  1.000000  1.000000  1.000000  1.000000
 FoFCou: FMM=F IPFlag=           0 FMFlag=      100000 FMFlg1=           0
         NFxFlg=           0 DoJE=T BraDBF=F KetDBF=T FulRan=T
         wScrn=  0.000000 ICntrl=       500 IOpCl=  0 I1Cent=   200000004 NGrid=           0
         NMat0=    1 NMatS0=      1 NMatT0=    0 NMatD0=    1 NMtDS0=    0 NMtDT0=    0
 Petite list used in FoFCou.
 Harris En= -649.070583647265    
 JPrj=0 DoOrth=F DoCkMO=F.
 Initial guess orbital symmetries:
       Occupied  (SG) (SG) (SG) (SG) (SG) (SG) (SG) (SG) (SG) (PI)
                 (PI) (PI) (PI) (SG) (SG) (PI) (PI) (PI) (PI) (SG)
                 (SG) (SG)
       Virtual   (SG) (SG) (PI) (PI) (PI) (PI) (SG) (PI) (PI) (SG)
                 (SG) (PI) (PI) (SG) (PI) (PI) (SG) (SG) (SG) (PI)
                 (PI) (PI) (PI) (PI) (PI) (SG) (SG) (SG) (SG) (PI)
                 (PI) (SG) (SG) (PI) (PI) (SG) (PI) (PI) (PI) (PI)
                 (SG) (SG) (SG) (SG) (SG) (PI) (PI) (PI) (PI) (DLTA)
                 (DLTA) (SG) (DLTA) (DLTA) (SG) (DLTA) (DLTA) (DLTA)
                 (DLTA) (PI) (PI) (PI) (PI) (PI) (PI) (PI) (PI)
                 (SG) (SG) (PI) (PI) (SG) (SG) (PI) (PI) (SG) (SG)
                 (SG) (SG) (SG) (SG) (PI) (PI) (SG) (PI) (PI) (PI)
                 (PI) (SG) (PI) (PI) (SG) (SG) (SG) (SG) (SG) (SG)
 The electronic state of the initial guess is 1-SG.
 Leave Link  401 at Mon Sep 11 10:50:24 2023, MaxMem=  1610612736 cpu:               1.5 elap:               0.1
 (Enter /home/sekinelabo/g16/l502.exe)
 Keep R1 ints in memory in symmetry-blocked form, NReq=41601362.
 FoFCou: FMM=F IPFlag=           0 FMFlag=           0 FMFlg1=           0
         NFxFlg=           0 DoJE=F BraDBF=F KetDBF=F FulRan=T
         wScrn=  0.000000 ICntrl=       600 IOpCl=  0 I1Cent=           0 NGrid=           0
         NMat0=    1 NMatS0=   7260 NMatT0=    0 NMatD0=    1 NMtDS0=    0 NMtDT0=    0
 Petite list used in FoFCou.
 Closed shell SCF:
 Using DIIS extrapolation, IDIIS=  1040.
 NGot=  1610612736 LenX=  1603303464 LenY=  1603287647
 Requested convergence on RMS density matrix=1.00D-08 within 128 cycles.
 Requested convergence on MAX density matrix=1.00D-06.
 Requested convergence on             energy=1.00D-06.
 No special actions if energy rises.

 Cycle   1  Pass 1  IDiag  1:
 E= -649.184787251174    
 DIIS: error= 1.49D-02 at cycle   1 NSaved=   1.
 NSaved= 1 IEnMin= 1 EnMin= -649.184787251174     IErMin= 1 ErrMin= 1.49D-02
 ErrMax= 1.49D-02  0.00D+00 EMaxC= 1.00D-01 BMatC= 2.60D-02 BMatP= 2.60D-02
 IDIUse=3 WtCom= 8.51D-01 WtEn= 1.49D-01
 Coeff-Com:  0.100D+01
 Coeff-En:   0.100D+01
 Coeff:      0.100D+01
 Gap=     0.057 Goal=   None    Shift=    0.000
 GapD=    0.057 DampG=0.500 DampE=0.500 DampFc=0.2500 IDamp=-1.
 Damping current iteration by 2.50D-01
 RMSDP=5.82D-02 MaxDP=2.85D+00              OVMax= 7.18D-02

 Cycle   2  Pass 1  IDiag  1:
 E= -649.188934517723     Delta-E=       -0.004147266548 Rises=F Damp=T
 DIIS: error= 1.05D-02 at cycle   2 NSaved=   2.
 NSaved= 2 IEnMin= 2 EnMin= -649.188934517723     IErMin= 2 ErrMin= 1.05D-02
 ErrMax= 1.05D-02  0.00D+00 EMaxC= 1.00D-01 BMatC= 1.02D-02 BMatP= 2.60D-02
 IDIUse=3 WtCom= 8.95D-01 WtEn= 1.05D-01
 Coeff-Com: -0.134D+01 0.234D+01
 Coeff-En:   0.000D+00 0.100D+01
 Coeff:     -0.120D+01 0.220D+01
 Gap=     0.060 Goal=   None    Shift=    0.000
 RMSDP=3.84D-02 MaxDP=1.87D+00 DE=-4.15D-03 OVMax= 1.29D-02

 Cycle   3  Pass 1  IDiag  1:
 E= -649.197717533600     Delta-E=       -0.008783015878 Rises=F Damp=F
 DIIS: error= 3.66D-04 at cycle   3 NSaved=   3.
 NSaved= 3 IEnMin= 3 EnMin= -649.197717533600     IErMin= 3 ErrMin= 3.66D-04
 ErrMax= 3.66D-04  0.00D+00 EMaxC= 1.00D-01 BMatC= 1.30D-05 BMatP= 1.02D-02
 IDIUse=3 WtCom= 9.96D-01 WtEn= 3.66D-03
 Coeff-Com:  0.287D-01-0.316D-01 0.100D+01
 Coeff-En:   0.000D+00 0.000D+00 0.100D+01
 Coeff:      0.286D-01-0.315D-01 0.100D+01
 Gap=     0.061 Goal=   None    Shift=    0.000
 RMSDP=2.92D-03 MaxDP=1.40D-01 DE=-8.78D-03 OVMax= 9.31D-03

 Cycle   4  Pass 1  IDiag  1:
 E= -649.197744595037     Delta-E=       -0.000027061437 Rises=F Damp=F
 DIIS: error= 1.52D-04 at cycle   4 NSaved=   4.
 NSaved= 4 IEnMin= 4 EnMin= -649.197744595037     IErMin= 4 ErrMin= 1.52D-04
 ErrMax= 1.52D-04  0.00D+00 EMaxC= 1.00D-01 BMatC= 1.96D-06 BMatP= 1.30D-05
 IDIUse=3 WtCom= 9.98D-01 WtEn= 1.52D-03
 Coeff-Com:  0.186D-01-0.247D-01 0.275D+00 0.731D+00
 Coeff-En:   0.000D+00 0.000D+00 0.000D+00 0.100D+01
 Coeff:      0.185D-01-0.247D-01 0.275D+00 0.731D+00
 Gap=     0.061 Goal=   None    Shift=    0.000
 RMSDP=7.81D-04 MaxDP=3.63D-02 DE=-2.71D-05 OVMax= 4.06D-03

 Cycle   5  Pass 1  IDiag  1:
 E= -649.197749162780     Delta-E=       -0.000004567743 Rises=F Damp=F
 DIIS: error= 7.40D-05 at cycle   5 NSaved=   5.
 NSaved= 5 IEnMin= 5 EnMin= -649.197749162780     IErMin= 5 ErrMin= 7.40D-05
 ErrMax= 7.40D-05  0.00D+00 EMaxC= 1.00D-01 BMatC= 3.70D-07 BMatP= 1.96D-06
 IDIUse=1 WtCom= 1.00D+00 WtEn= 0.00D+00
 Coeff-Com:  0.796D-02-0.108D-01 0.119D+00 0.375D+00 0.509D+00
 Coeff:      0.796D-02-0.108D-01 0.119D+00 0.375D+00 0.509D+00
 Gap=     0.061 Goal=   None    Shift=    0.000
 RMSDP=2.09D-04 MaxDP=9.81D-03 DE=-4.57D-06 OVMax= 1.48D-03

 Cycle   6  Pass 1  IDiag  1:
 E= -649.197750308569     Delta-E=       -0.000001145789 Rises=F Damp=F
 DIIS: error= 1.31D-05 at cycle   6 NSaved=   6.
 NSaved= 6 IEnMin= 6 EnMin= -649.197750308569     IErMin= 6 ErrMin= 1.31D-05
 ErrMax= 1.31D-05  0.00D+00 EMaxC= 1.00D-01 BMatC= 1.33D-08 BMatP= 3.70D-07
 IDIUse=1 WtCom= 1.00D+00 WtEn= 0.00D+00
 Coeff-Com: -0.710D-03 0.870D-03 0.424D-02 0.293D-01 0.159D+00 0.808D+00
 Coeff:     -0.710D-03 0.870D-03 0.424D-02 0.293D-01 0.159D+00 0.808D+00
 Gap=     0.061 Goal=   None    Shift=    0.000
 RMSDP=1.82D-05 MaxDP=7.84D-04 DE=-1.15D-06 OVMax= 2.42D-04

 Cycle   7  Pass 1  IDiag  1:
 E= -649.197750347980     Delta-E=       -0.000000039411 Rises=F Damp=F
 DIIS: error= 2.36D-06 at cycle   7 NSaved=   7.
 NSaved= 7 IEnMin= 7 EnMin= -649.197750347980     IErMin= 7 ErrMin= 2.36D-06
 ErrMax= 2.36D-06  0.00D+00 EMaxC= 1.00D-01 BMatC= 5.19D-10 BMatP= 1.33D-08
 IDIUse=1 WtCom= 1.00D+00 WtEn= 0.00D+00
 Coeff-Com: -0.475D-03 0.611D-03-0.246D-02-0.346D-02 0.337D-01 0.277D+00
 Coeff-Com:  0.696D+00
 Coeff:     -0.475D-03 0.611D-03-0.246D-02-0.346D-02 0.337D-01 0.277D+00
 Coeff:      0.696D+00
 Gap=     0.061 Goal=   None    Shift=    0.000
 RMSDP=9.98D-06 MaxDP=4.66D-04 DE=-3.94D-08 OVMax= 5.36D-05

 Cycle   8  Pass 1  IDiag  1:
 E= -649.197750349061     Delta-E=       -0.000000001081 Rises=F Damp=F
 DIIS: error= 4.16D-07 at cycle   8 NSaved=   8.
 NSaved= 8 IEnMin= 8 EnMin= -649.197750349061     IErMin= 8 ErrMin= 4.16D-07
 ErrMax= 4.16D-07  0.00D+00 EMaxC= 1.00D-01 BMatC= 3.24D-11 BMatP= 5.19D-10
 IDIUse=1 WtCom= 1.00D+00 WtEn= 0.00D+00
 Coeff-Com:  0.409D-04-0.528D-04-0.676D-03-0.381D-02-0.701D-02-0.310D-01
 Coeff-Com:  0.119D+00 0.923D+00
 Coeff:      0.409D-04-0.528D-04-0.676D-03-0.381D-02-0.701D-02-0.310D-01
 Coeff:      0.119D+00 0.923D+00
 Gap=     0.061 Goal=   None    Shift=    0.000
 RMSDP=2.56D-06 MaxDP=1.11D-04 DE=-1.08D-09 OVMax= 1.32D-05

 Cycle   9  Pass 1  IDiag  1:
 E= -649.197750349159     Delta-E=       -0.000000000098 Rises=F Damp=F
 DIIS: error= 1.29D-07 at cycle   9 NSaved=   9.
 NSaved= 9 IEnMin= 9 EnMin= -649.197750349159     IErMin= 9 ErrMin= 1.29D-07
 ErrMax= 1.29D-07  0.00D+00 EMaxC= 1.00D-01 BMatC= 2.21D-12 BMatP= 3.24D-11
 IDIUse=1 WtCom= 1.00D+00 WtEn= 0.00D+00
 Coeff-Com:  0.396D-04-0.511D-04-0.136D-03-0.123D-02-0.407D-02-0.239D-01
 Coeff-Com:  0.127D-01 0.351D+00 0.666D+00
 Coeff:      0.396D-04-0.511D-04-0.136D-03-0.123D-02-0.407D-02-0.239D-01
 Coeff:      0.127D-01 0.351D+00 0.666D+00
 Gap=     0.061 Goal=   None    Shift=    0.000
 RMSDP=3.77D-07 MaxDP=1.47D-05 DE=-9.85D-11 OVMax= 1.78D-06

 Cycle  10  Pass 1  IDiag  1:
 E= -649.197750349163     Delta-E=       -0.000000000004 Rises=F Damp=F
 DIIS: error= 1.55D-08 at cycle  10 NSaved=  10.
 NSaved=10 IEnMin=10 EnMin= -649.197750349163     IErMin=10 ErrMin= 1.55D-08
 ErrMax= 1.55D-08  0.00D+00 EMaxC= 1.00D-01 BMatC= 4.45D-14 BMatP= 2.21D-12
 IDIUse=1 WtCom= 1.00D+00 WtEn= 0.00D+00
 Coeff-Com: -0.240D-06 0.419D-06 0.136D-04 0.113D-03 0.490D-04-0.654D-03
 Coeff-Com: -0.568D-02-0.107D-01 0.761D-01 0.941D+00
 Coeff:     -0.240D-06 0.419D-06 0.136D-04 0.113D-03 0.490D-04-0.654D-03
 Coeff:     -0.568D-02-0.107D-01 0.761D-01 0.941D+00
 Gap=     0.061 Goal=   None    Shift=    0.000
 RMSDP=1.01D-07 MaxDP=3.75D-06 DE=-3.64D-12 OVMax= 5.06D-07

 Cycle  11  Pass 1  IDiag  1:
 E= -649.197750349164     Delta-E=       -0.000000000001 Rises=F Damp=F
 DIIS: error= 6.51D-09 at cycle  11 NSaved=  11.
 NSaved=11 IEnMin=11 EnMin= -649.197750349164     IErMin=11 ErrMin= 6.51D-09
 ErrMax= 6.51D-09  0.00D+00 EMaxC= 1.00D-01 BMatC= 5.94D-15 BMatP= 4.45D-14
 IDIUse=1 WtCom= 1.00D+00 WtEn= 0.00D+00
 Coeff-Com: -0.188D-05 0.246D-05 0.905D-05 0.946D-04 0.194D-03 0.654D-03
 Coeff-Com: -0.174D-02-0.199D-01-0.108D-01 0.308D+00 0.724D+00
 Coeff:     -0.188D-05 0.246D-05 0.905D-05 0.946D-04 0.194D-03 0.654D-03
 Coeff:     -0.174D-02-0.199D-01-0.108D-01 0.308D+00 0.724D+00
 Gap=     0.061 Goal=   None    Shift=    0.000
 RMSDP=5.64D-08 MaxDP=2.44D-06 DE=-6.82D-13 OVMax= 2.16D-07

 Cycle  12  Pass 1  IDiag  1:
 E= -649.197750349166     Delta-E=       -0.000000000002 Rises=F Damp=F
 DIIS: error= 7.46D-10 at cycle  12 NSaved=  12.
 NSaved=12 IEnMin=12 EnMin= -649.197750349166     IErMin=12 ErrMin= 7.46D-10
 ErrMax= 7.46D-10  0.00D+00 EMaxC= 1.00D-01 BMatC= 7.67D-17 BMatP= 5.94D-15
 IDIUse=1 WtCom= 1.00D+00 WtEn= 0.00D+00
 Coeff-Com:  0.477D-08-0.110D-07-0.260D-06 0.238D-05 0.693D-05 0.364D-04
 Coeff-Com:  0.576D-04-0.383D-03-0.191D-02-0.335D-01 0.290D-01 0.101D+01
 Coeff:      0.477D-08-0.110D-07-0.260D-06 0.238D-05 0.693D-05 0.364D-04
 Coeff:      0.576D-04-0.383D-03-0.191D-02-0.335D-01 0.290D-01 0.101D+01
 Gap=     0.061 Goal=   None    Shift=    0.000
 RMSDP=1.36D-08 MaxDP=6.43D-07 DE=-2.05D-12 OVMax= 3.50D-08

 Cycle  13  Pass 1  IDiag  1:
 E= -649.197750349161     Delta-E=        0.000000000005 Rises=F Damp=F
 DIIS: error= 4.43D-10 at cycle  13 NSaved=  13.
 NSaved=13 IEnMin=12 EnMin= -649.197750349166     IErMin=13 ErrMin= 4.43D-10
 ErrMax= 4.43D-10  0.00D+00 EMaxC= 1.00D-01 BMatC= 1.57D-17 BMatP= 7.67D-17
 IDIUse=1 WtCom= 1.00D+00 WtEn= 0.00D+00
 Coeff-Com:  0.670D-07-0.902D-07-0.381D-06-0.166D-05-0.340D-05-0.548D-05
 Coeff-Com:  0.949D-04 0.539D-03-0.100D-02-0.218D-01-0.104D-01 0.430D+00
 Coeff-Com:  0.603D+00
 Coeff:      0.670D-07-0.902D-07-0.381D-06-0.166D-05-0.340D-05-0.548D-05
 Coeff:      0.949D-04 0.539D-03-0.100D-02-0.218D-01-0.104D-01 0.430D+00
 Coeff:      0.603D+00
 Gap=     0.061 Goal=   None    Shift=    0.000
 RMSDP=9.29D-10 MaxDP=3.45D-08 DE= 4.77D-12 OVMax= 1.26D-08

 SCF Done:  E(RB3LYP) =  -649.197750349     A.U. after   13 cycles
            NFock= 13  Conv=0.93D-09     -V/T= 2.0028
 KE= 6.473951702943D+02 PE=-1.721387622985D+03 EE= 3.437800709678D+02
 Leave Link  502 at Mon Sep 11 10:50:25 2023, MaxMem=  1610612736 cpu:              12.1 elap:               0.8
 (Enter /home/sekinelabo/g16/l601.exe)
 Copying SCF densities to generalized density rwf, IOpCl= 0 IROHF=0.

 **********************************************************************

            Population analysis using the SCF Density.

 **********************************************************************

 Orbital symmetries:
       Occupied  (SG) (SG) (SG) (SG) (SG) (SG) (SG) (SG) (SG) (PI)
                 (PI) (SG) (PI) (PI) (PI) (PI) (SG) (PI) (PI) (SG)
                 (SG) (SG)
       Virtual   (SG) (SG) (PI) (PI) (PI) (PI) (SG) (SG) (SG) (PI)
                 (PI) (SG) (PI) (PI) (SG) (PI) (PI) (SG) (PI) (PI)
                 (PI) (PI) (SG) (PI) (PI) (SG) (SG) (SG) (SG) (PI)
                 (PI) (SG) (SG) (PI) (PI) (SG) (PI) (PI) (PI) (PI)
                 (SG) (SG) (SG) (SG) (SG) (PI) (PI) (PI) (PI) (DLTA)
                 (DLTA) (SG) (DLTA) (DLTA) (SG) (DLTA) (DLTA) (DLTA)
                 (DLTA) (PI) (PI) (PI) (PI) (PI) (PI) (SG) (PI)
                 (PI) (SG) (PI) (PI) (SG) (SG) (PI) (PI) (SG) (SG)
                 (SG) (SG) (SG) (SG) (PI) (PI) (SG) (PI) (PI) (PI)
                 (PI) (SG) (PI) (PI) (SG) (SG) (SG) (SG) (SG) (SG)
 The electronic state is 1-SG.
 Alpha  occ. eigenvalues --  -38.44777 -38.44667 -38.44445 -38.44343  -2.20639
 Alpha  occ. eigenvalues --   -2.20438  -2.20300  -2.20114  -1.14635  -1.14249
 Alpha  occ. eigenvalues --   -1.14249  -1.14105  -1.14097  -1.14097  -1.13909
 Alpha  occ. eigenvalues --   -1.13909  -1.13835  -1.13777  -1.13777  -1.13742
 Alpha  occ. eigenvalues --   -0.14090  -0.12973
 Alpha virt. eigenvalues --   -0.06896  -0.04120  -0.02981  -0.02981  -0.02151
 Alpha virt. eigenvalues --   -0.02151  -0.01108   0.00283   0.00320   0.00450
 Alpha virt. eigenvalues --    0.00450   0.01119   0.01198   0.01198   0.01277
 Alpha virt. eigenvalues --    0.01311   0.01311   0.02412   0.02710   0.02710
 Alpha virt. eigenvalues --    0.02778   0.02778   0.03146   0.03843   0.03843
 Alpha virt. eigenvalues --    0.03952   0.04672   0.05591   0.05804   0.07061
 Alpha virt. eigenvalues --    0.07061   0.07492   0.07724   0.08062   0.08062
 Alpha virt. eigenvalues --    0.09353   0.09980   0.09980   0.10558   0.10558
 Alpha virt. eigenvalues --    0.12614   0.13647   0.15157   0.16291   0.19662
 Alpha virt. eigenvalues --    0.29014   0.29014   0.30539   0.30539   0.31249
 Alpha virt. eigenvalues --    0.31249   0.32765   0.33228   0.33228   0.37002
 Alpha virt. eigenvalues --    0.37467   0.37467   0.39209   0.39209   0.42741
 Alpha virt. eigenvalues --    0.42741   0.43367   0.43367   0.43760   0.43760
 Alpha virt. eigenvalues --    0.44391   0.44817   0.44817   0.45320   0.47404
 Alpha virt. eigenvalues --    0.47404   0.48945   0.50773   0.53863   0.53863
 Alpha virt. eigenvalues --    0.66587   0.85393   2.02472   2.09554   2.10539
 Alpha virt. eigenvalues --    2.14097   4.42728   4.42728   4.42817   4.43831
 Alpha virt. eigenvalues --    4.43831   4.45433   4.45433   4.46816   4.47490
 Alpha virt. eigenvalues --    4.47490   4.60396   4.78892  96.21682  96.30407
 Alpha virt. eigenvalues --   96.33873  96.36376
          Condensed to atoms (all electrons):
               1          2          3          4
     1  Na  12.274929  -1.584757  -1.271898   0.234629
     2  Na  -1.584757  13.099998   0.317586  -0.106455
     3  Na  -1.271898   0.317586  13.353393  -0.158088
     4  Na   0.234629  -0.106455  -0.158088  10.409644
 Mulliken charges:
               1
     1  Na   1.347096
     2  Na  -0.726372
     3  Na  -1.240993
     4  Na   0.620269
 Sum of Mulliken charges =  -0.00000
 Mulliken charges with hydrogens summed into heavy atoms:
               1
     1  Na   1.347096
     2  Na  -0.726372
     3  Na  -1.240993
     4  Na   0.620269
 Electronic spatial extent (au):  <R**2>=           2685.0274
 Charge=             -0.0000 electrons
 Dipole moment (field-independent basis, Debye):
    X=              0.0000    Y=              0.0000    Z=              0.0110  Tot=              0.0110
 Quadrupole moment (field-independent basis, Debye-Ang):
   XX=            -44.3116   YY=            -44.3116   ZZ=            -17.9658
   XY=              0.0000   XZ=              0.0000   YZ=              0.0000
 Traceless Quadrupole moment (field-independent basis, Debye-Ang):
   XX=             -8.7819   YY=             -8.7819   ZZ=             17.5639
   XY=              0.0000   XZ=              0.0000   YZ=              0.0000
 Octapole moment (field-independent basis, Debye-Ang**2):
  XXX=              0.0000  YYY=              0.0000  ZZZ=             19.6718  XYY=              0.0000
  XXY=              0.0000  XXZ=             -1.0523  XZZ=              0.0000  YZZ=              0.0000
  YYZ=             -1.0523  XYZ=              0.0000
 Hexadecapole moment (field-independent basis, Debye-Ang**3):
 XXXX=           -182.1871 YYYY=           -182.1871 ZZZZ=          -2392.1585 XXXY=              0.0000
 XXXZ=              0.0000 YYYX=              0.0000 YYYZ=              0.0000 ZZZX=              0.0000
 ZZZY=              0.0000 XXYY=            -60.7290 XXZZ=           -757.9649 YYZZ=           -757.9649
 XXYZ=              0.0000 YYXZ=              0.0000 ZZXY=              0.0000
 N-N= 8.101463137414D+01 E-N=-1.721387623004D+03  KE= 6.473951702943D+02
 Symmetry A1   KE= 5.524931038616D+02
 Symmetry A2   KE=-3.762064299274D-53
 Symmetry B1   KE= 4.745103321635D+01
 Symmetry B2   KE= 4.745103321635D+01
 No NMR shielding tensors so no spin-rotation constants.
 Leave Link  601 at Mon Sep 11 10:50:25 2023, MaxMem=  1610612736 cpu:               1.0 elap:               0.1
 (Enter /home/sekinelabo/g16/l701.exe)
 ... and contract with generalized density number  0.
 Compute integral first derivatives.
 Leave Link  701 at Mon Sep 11 10:50:25 2023, MaxMem=  1610612736 cpu:               1.3 elap:               0.1
 (Enter /home/sekinelabo/g16/l702.exe)
 L702 exits ... SP integral derivatives will be done elsewhere.
 Leave Link  702 at Mon Sep 11 10:50:25 2023, MaxMem=  1610612736 cpu:               0.3 elap:               0.0
 (Enter /home/sekinelabo/g16/l703.exe)
 Integral derivatives from FoFJK, PRISM(SPDF).
 Compute integral first derivatives, UseDBF=F ICtDFT=           0.
 Calling FoFJK, ICntrl=      2127 FMM=F ISym2X=1 I1Cent= 0 IOpClX= 0 NMat=1 NMatS=1 NMatT=0.
 FoFJK:  IHMeth= 1 ICntrl=    2127 DoSepK=F KAlg= 0 I1Cent=           0 FoldK=F
 IRaf=         0 NMat=       1 IRICut=       1 DoRegI=T DoRafI=F ISym2E= 1 IDoP0=0 IntGTp=1.
 FoFCou: FMM=F IPFlag=           0 FMFlag=      100000 FMFlg1=         800
         NFxFlg=           0 DoJE=F BraDBF=F KetDBF=F FulRan=T
         wScrn=  0.000000 ICntrl=      2127 IOpCl=  0 I1Cent=           0 NGrid=           0
         NMat0=    1 NMatS0=      1 NMatT0=    0 NMatD0=    1 NMtDS0=    0 NMtDT0=    0
 Petite list used in FoFCou.
 Leave Link  703 at Mon Sep 11 10:50:25 2023, MaxMem=  1610612736 cpu:               4.1 elap:               0.3
 (Enter /home/sekinelabo/g16/l716.exe)
 Dipole        = 0.00000000D+00 0.00000000D+00 4.32868966D-03
 ***** Axes restored to original set *****
 -------------------------------------------------------------------
 Center     Atomic                   Forces (Hartrees/Bohr)
 Number     Number              X              Y              Z
 -------------------------------------------------------------------
      1       11          -0.000000000   -0.000000000    0.001857912
      2       11          -0.000000000   -0.000000000   -0.001077816
      3       11          -0.000000000   -0.000000000   -0.013438351
      4       11          -0.000000000   -0.000000000    0.012658256
 -------------------------------------------------------------------
 Cartesian Forces:  Max     0.013438351 RMS     0.005365276
 Z-matrix is all fixed cartesians, so copy forces.
 Force constants in Cartesian coordinates: 
                1             2             3             4             5 
      1  0.100000D+01
      2  0.000000D+00  0.100000D+01
      3  0.000000D+00  0.000000D+00  0.290243D-01
      4  0.000000D+00  0.000000D+00  0.000000D+00  0.100000D+01
      5  0.000000D+00  0.000000D+00  0.000000D+00  0.000000D+00  0.100000D+01
      6  0.000000D+00  0.000000D+00 -0.290243D-01  0.000000D+00  0.000000D+00
      7  0.000000D+00  0.000000D+00  0.000000D+00  0.000000D+00  0.000000D+00
      8  0.000000D+00  0.000000D+00  0.000000D+00  0.000000D+00  0.000000D+00
      9  0.000000D+00  0.000000D+00  0.000000D+00  0.000000D+00  0.000000D+00
     10  0.000000D+00  0.000000D+00  0.000000D+00  0.000000D+00  0.000000D+00
     11  0.000000D+00  0.000000D+00  0.000000D+00  0.000000D+00  0.000000D+00
     12  0.000000D+00  0.000000D+00  0.000000D+00  0.000000D+00  0.000000D+00
                6             7             8             9            10 
      6  0.290243D-01
      7  0.000000D+00  0.100000D+01
      8  0.000000D+00  0.000000D+00  0.100000D+01
      9  0.000000D+00  0.000000D+00  0.000000D+00  0.687390D-01
     10  0.000000D+00  0.000000D+00  0.000000D+00  0.000000D+00  0.100000D+01
     11  0.000000D+00  0.000000D+00  0.000000D+00  0.000000D+00  0.000000D+00
     12  0.000000D+00  0.000000D+00  0.000000D+00 -0.687390D-01  0.000000D+00
               11            12 
     11  0.100000D+01
     12  0.000000D+00  0.687390D-01
 Leave Link  716 at Mon Sep 11 10:50:25 2023, MaxMem=  1610612736 cpu:               0.3 elap:               0.0
 (Enter /home/sekinelabo/g16/l103.exe)

 GradGradGradGradGradGradGradGradGradGradGradGradGradGradGradGradGradGrad
 Berny optimization.
 Search for a local minimum.
 Step number   1 out of a maximum of    2
 All quantities printed in internal units (Hartrees-Bohrs-Radians)
 Second derivative matrix not updated -- first step.
 The second derivative matrix:
                          X1        Y1        Z1        X2        Y2
           X1           1.00000
           Y1           0.00000   1.00000
           Z1           0.00000   0.00000   0.02902
           X2           0.00000   0.00000   0.00000   1.00000
           Y2           0.00000   0.00000   0.00000   0.00000   1.00000
           Z2           0.00000   0.00000  -0.02902   0.00000   0.00000
           X3           0.00000   0.00000   0.00000   0.00000   0.00000
           Y3           0.00000   0.00000   0.00000   0.00000   0.00000
           Z3           0.00000   0.00000   0.00000   0.00000   0.00000
           X4           0.00000   0.00000   0.00000   0.00000   0.00000
           Y4           0.00000   0.00000   0.00000   0.00000   0.00000
           Z4           0.00000   0.00000   0.00000   0.00000   0.00000
                          Z2        X3        Y3        Z3        X4
           Z2           0.02902
           X3           0.00000   1.00000
           Y3           0.00000   0.00000   1.00000
           Z3           0.00000   0.00000   0.00000   0.06874
           X4           0.00000   0.00000   0.00000   0.00000   1.00000
           Y4           0.00000   0.00000   0.00000   0.00000   0.00000
           Z4           0.00000   0.00000   0.00000  -0.06874   0.00000
                          Y4        Z4
           Y4           1.00000
           Z4           0.00000   0.06874
 ITU=  0
     Eigenvalues ---   -0.00000   0.05805   0.13748   1.00000   1.00000
     Eigenvalues ---    1.00000   1.00000
 Eigenvalue     1 is  -2.22D-16 should be greater than     0.000000 Eigenvector:
                          Z1        Z3        Z4        Z2        Y3
   1                    0.50000  -0.50000  -0.50000   0.50000   0.00000
                          Y4        Y2        Y1        X2        X1
   1                   -0.00000  -0.00000  -0.00000   0.00000   0.00000
 Quadratic step=7.802D+00 exceeds max=3.000D-01 adjusted using Lamda=-2.816D-03.
 Angle between NR and scaled steps=  25.91 degrees.
 Angle between quadratic step and forces=  60.96 degrees.
 ClnCor:  largest displacement from symmetrization is 5.59D-17 for atom     3.
 Linear search not attempted -- first point.
 ClnCor:  largest displacement from symmetrization is 5.27D-16 for atom     1.
 B after Tr=     0.000000    0.000000    0.000000
         Rot=    1.000000    0.000000    0.000000    0.000000 Ang=   0.00 deg.
 Variable       Old X    -DE/DX   Delta X   Delta X   Delta X     New X
                                 (Linear)    (Quad)   (Total)
    X1        0.00000  -0.00000   0.00000  -0.00000   0.00000   0.00000
    Y1        0.00000  -0.00000   0.00000  -0.00000   0.00000   0.00000
    Z1        0.00000   0.00186   0.00000   0.15786   0.15786   0.15786
    X2        0.00000  -0.00000   0.00000  -0.00000   0.00000   0.00000
    Y2        0.00000  -0.00000   0.00000  -0.00000   0.00000   0.00000
    Z2        5.97727  -0.00108   0.00000   0.10962   0.10962   6.08689
    X3        0.00000  -0.00000   0.00000   0.00000   0.00000   0.00000
    Y3        0.00000  -0.00000   0.00000   0.00000   0.00000   0.00000
    Z3       14.85909  -0.01344   0.00000  -0.22675  -0.22675  14.63234
    X4        0.00000  -0.00000   0.00000  -0.00000   0.00000   0.00000
    Y4        0.00000  -0.00000   0.00000   0.00000   0.00000   0.00000
    Z4       19.85988   0.01266   0.00000  -0.04073  -0.04073  19.81915
         Item               Value     Threshold  Converged?
 Maximum Force            0.013438     0.000450     NO 
 RMS     Force            0.005365     0.000300     NO 
 Maximum Displacement     0.226746     0.001800     NO 
 RMS     Displacement     0.086607     0.001200     NO 
 Predicted change in Energy=-1.483637D-03
 GradGradGradGradGradGradGradGradGradGradGradGradGradGradGradGradGradGrad

 Leave Link  103 at Mon Sep 11 10:50:25 2023, MaxMem=  1610612736 cpu:               0.2 elap:               0.0
 (Enter /home/sekinelabo/g16/l9999.exe)
 1\1\GINC-SEKINELABO-XA7R-R37\Force\RB3LYP\6-311+G(d)\Na4\SEKINELABO\11
 -Sep-2023\0\\#p B3LYP/6-311+g(d) force\\\0,1\Na,0.,0.,0.\Na,0.,0.,3.16
 30346317\Na,0.,0.,7.8630899143\Na,0.,0.,10.509397301\\Version=ES64L-G1
 6RevB.01\State=1-SG\HF=-649.1977503\RMSD=9.290e-10\RMSF=5.365e-03\Dipo
 le=0.,0.,-0.0043287\Quadrupole=-6.5291494,-6.5291494,13.0582988,0.,0.,
 0.\PG=C*V [C*(Na1Na1Na1Na1)]\\@


 ON INDUCTION, OR "WHY DO YOU BELIEVE THE SUN WILL RISE TOMORROW?":

 ... THE FARMER WHO HAS FED THE CHICKEN EVERY DAY THROUGHOUT ITS
 LIFE AT LAST WRINGS ITS NECK INSTEAD, SHOWING THAT MORE REFINED VIEWS
 AS TO THE UNIFORMITY OF NATURE WOULD HAVE BEEN USEFUL TO THE CHICKEN.

                               -- BERTRAND RUSSELL
 Job cpu time:       0 days  0 hours  0 minutes 25.2 seconds.
 Elapsed time:       0 days  0 hours  0 minutes  1.7 seconds.
 File lengths (MBytes):  RWF=     11 Int=      0 D2E=      0 Chk=      2 Scr=      1
 Normal termination of Gaussian 16 at Mon Sep 11 10:50:25 2023.
 Initial command:
 /home/sekinelabo/g16/l1.exe "/home/sekinelabo/g16temp/Gau-3155230.inp" -scrdir="/home/sekinelabo/g16temp/"
 Entering Link 1 = /home/sekinelabo/g16/l1.exe PID=   3155487.
  
 Copyright (c) 1988-2017, Gaussian, Inc.  All Rights Reserved.
  
 This is part of the Gaussian(R) 16 program.  It is based on
 the Gaussian(R) 09 system (copyright 2009, Gaussian, Inc.),
 the Gaussian(R) 03 system (copyright 2003, Gaussian, Inc.),
 the Gaussian(R) 98 system (copyright 1998, Gaussian, Inc.),
 the Gaussian(R) 94 system (copyright 1995, Gaussian, Inc.),
 the Gaussian 92(TM) system (copyright 1992, Gaussian, Inc.),
 the Gaussian 90(TM) system (copyright 1990, Gaussian, Inc.),
 the Gaussian 88(TM) system (copyright 1988, Gaussian, Inc.),
 the Gaussian 86(TM) system (copyright 1986, Carnegie Mellon
 University), and the Gaussian 82(TM) system (copyright 1983,
 Carnegie Mellon University). Gaussian is a federally registered
 trademark of Gaussian, Inc.
  
 This software contains proprietary and confidential information,
 including trade secrets, belonging to Gaussian, Inc.
  
 This software is provided under written license and may be
 used, copied, transmitted, or stored only in accord with that
 written license.
  
 The following legend is applicable only to US Government
 contracts under FAR:
  
                    RESTRICTED RIGHTS LEGEND
  
 Use, reproduction and disclosure by the US Government is
 subject to restrictions as set forth in subparagraphs (a)
 and (c) of the Commercial Computer Software - Restricted
 Rights clause in FAR 52.227-19.
  
 Gaussian, Inc.
 340 Quinnipiac St., Bldg. 40, Wallingford CT 06492
  
  
 ---------------------------------------------------------------
 Warning -- This program may not be used in any manner that
 competes with the business of Gaussian, Inc. or will provide
 assistance to any competitor of Gaussian, Inc.  The licensee
 of this program is prohibited from giving any competitor of
 Gaussian, Inc. access to this program.  By using this program,
 the user acknowledges that Gaussian, Inc. is engaged in the
 business of creating and licensing software in the field of
 computational chemistry and represents and warrants to the
 licensee that it is not a competitor of Gaussian, Inc. and that
 it will not use this program in any manner prohibited above.
 ---------------------------------------------------------------
  

 Cite this work as:
 Gaussian 16, Revision B.01,
 M. J. Frisch, G. W. Trucks, H. B. Schlegel, G. E. Scuseria, 
 M. A. Robb, J. R. Cheeseman, G. Scalmani, V. Barone, 
 G. A. Petersson, H. Nakatsuji, X. Li, M. Caricato, A. V. Marenich, 
 J. Bloino, B. G. Janesko, R. Gomperts, B. Mennucci, H. P. Hratchian, 
 J. V. Ortiz, A. F. Izmaylov, J. L. Sonnenberg, D. Williams-Young, 
 F. Ding, F. Lipparini, F. Egidi, J. Goings, B. Peng, A. Petrone, 
 T. Henderson, D. Ranasinghe, V. G. Zakrzewski, J. Gao, N. Rega, 
 G. Zheng, W. Liang, M. Hada, M. Ehara, K. Toyota, R. Fukuda, 
 J. Hasegawa, M. Ishida, T. Nakajima, Y. Honda, O. Kitao, H. Nakai, 
 T. Vreven, K. Throssell, J. A. Montgomery, Jr., J. E. Peralta, 
 F. Ogliaro, M. J. Bearpark, J. J. Heyd, E. N. Brothers, K. N. Kudin, 
 V. N. Staroverov, T. A. Keith, R. Kobayashi, J. Normand, 
 K. Raghavachari, A. P. Rendell, J. C. Burant, S. S. Iyengar, 
 J. Tomasi, M. Cossi, J. M. Millam, M. Klene, C. Adamo, R. Cammi, 
 J. W. Ochterski, R. L. Martin, K. Morokuma, O. Farkas, 
 J. B. Foresman, and D. J. Fox, Gaussian, Inc., Wallingford CT, 2016.
 
 ******************************************
 Gaussian 16:  ES64L-G16RevB.01 20-Dec-2017
                11-Sep-2023 
 ******************************************
 %NProcShared=16
 Will use up to   16 processors via shared memory.
 %mem=12GB
 %Chk=checkpoint.chk
 -------------------------
 #p B3LYP/6-311+g(d) force
 -------------------------
 1/10=7,30=1,38=1/1,3;
 2/12=2,17=6,18=5,40=1/2;
 3/5=4,6=6,7=11,11=2,25=1,30=1,71=1,74=-5/1,2,3;
 4//1;
 5/5=2,38=5/2;
 6/7=2,8=2,9=2,10=2,28=1/1;
 7/29=1/1,2,3,16;
 1/10=7,30=1/3;
 99//99;
 Leave Link    1 at Mon Sep 11 10:50:25 2023, MaxMem=  1610612736 cpu:               0.2 elap:               0.0
 (Enter /home/sekinelabo/g16/l101.exe)


 Symbolic Z-matrix:
 Charge =  0 Multiplicity = 1
 Na                    0.        0.        0. 
 Na                    0.        0.        5.59319 
 Na                    0.        0.        7.97856 
 Na                    0.        0.        11.26587 
 
 ITRead=  0  0  0  0
 MicOpt= -1 -1 -1 -1
 NAtoms=      4 NQM=        4 NQMF=       0 NMMI=      0 NMMIF=      0
                NMic=       0 NMicF=      0.
                    Isotopes and Nuclear Properties:
 (Nuclear quadrupole moments (NQMom) in fm**2, nuclear magnetic moments (NMagM)
  in nuclear magnetons)

  Atom         1           2           3           4
 IAtWgt=          23          23          23          23
 AtmWgt=  22.9897697  22.9897697  22.9897697  22.9897697
 NucSpn=           3           3           3           3
 AtZEff=  -0.0000000  -0.0000000  -0.0000000  -0.0000000
 NQMom=   10.4000000  10.4000000  10.4000000  10.4000000
 NMagM=    2.2175200   2.2175200   2.2175200   2.2175200
 AtZNuc=  11.0000000  11.0000000  11.0000000  11.0000000
 Leave Link  101 at Mon Sep 11 10:50:25 2023, MaxMem=  1610612736 cpu:               1.7 elap:               0.1
 (Enter /home/sekinelabo/g16/l103.exe)

 GradGradGradGradGradGradGradGradGradGradGradGradGradGradGradGradGradGrad
 Berny optimization.
 Initialization pass.
 Trust Radius=3.00D-01 FncErr=1.00D-07 GrdErr=1.00D-07 EigMax=2.50D+02 EigMin=1.00D-04
 Number of steps in this run=      2 maximum allowed number of steps=      2.
 GradGradGradGradGradGradGradGradGradGradGradGradGradGradGradGradGradGrad

 Leave Link  103 at Mon Sep 11 10:50:25 2023, MaxMem=  1610612736 cpu:               0.2 elap:               0.0
 (Enter /home/sekinelabo/g16/l202.exe)
                          Input orientation:                          
 ---------------------------------------------------------------------
 Center     Atomic      Atomic             Coordinates (Angstroms)
 Number     Number       Type             X           Y           Z
 ---------------------------------------------------------------------
      1         11           0        0.000000    0.000000    0.000000
      2         11           0        0.000000    0.000000    5.593192
      3         11           0        0.000000    0.000000    7.978563
      4         11           0        0.000000    0.000000   11.265874
 ---------------------------------------------------------------------
                    Distance matrix (angstroms):
                    1          2          3          4
     1  Na   0.000000
     2  Na   5.593192   0.000000
     3  Na   7.978563   2.385371   0.000000
     4  Na  11.265874   5.672682   3.287311   0.000000
 Stoichiometry    Na4
 Framework group  C*V[C*(NaNaNaNa)]
 Deg. of freedom     3
 Full point group                 C*V     NOp   4
 Largest Abelian subgroup         C2V     NOp   4
 Largest concise Abelian subgroup C1      NOp   1
                         Standard orientation:                         
 ---------------------------------------------------------------------
 Center     Atomic      Atomic             Coordinates (Angstroms)
 Number     Number       Type             X           Y           Z
 ---------------------------------------------------------------------
      1         11           0        0.000000    0.000000    6.209407
      2         11           0        0.000000    0.000000    0.616215
      3         11           0        0.000000    0.000000   -1.769156
      4         11           0        0.000000    0.000000   -5.056467
 ---------------------------------------------------------------------
 Rotational constants (GHZ):           0.0000000           0.3250245           0.3250245
 Leave Link  202 at Mon Sep 11 10:50:25 2023, MaxMem=  1610612736 cpu:               0.0 elap:               0.0
 (Enter /home/sekinelabo/g16/l301.exe)
 Standard basis: 6-311+G(d) (5D, 7F)
 Ernie: Thresh=  0.10000D-02 Tol=  0.10000D-05 Strict=F.
 There are    64 symmetry adapted cartesian basis functions of A1  symmetry.
 There are     4 symmetry adapted cartesian basis functions of A2  symmetry.
 There are    28 symmetry adapted cartesian basis functions of B1  symmetry.
 There are    28 symmetry adapted cartesian basis functions of B2  symmetry.
 There are    60 symmetry adapted basis functions of A1  symmetry.
 There are     4 symmetry adapted basis functions of A2  symmetry.
 There are    28 symmetry adapted basis functions of B1  symmetry.
 There are    28 symmetry adapted basis functions of B2  symmetry.
   120 basis functions,   200 primitive gaussians,   124 cartesian basis functions
    22 alpha electrons       22 beta electrons
       nuclear repulsion energy        82.7653471085 Hartrees.
 IExCor=  402 DFT=T Ex+Corr=B3LYP ExCW=0 ScaHFX=  0.200000
 ScaDFX=  0.800000  0.720000  1.000000  0.810000 ScalE2=  1.000000  1.000000
 IRadAn=      5 IRanWt=     -1 IRanGd=            0 ICorTp=0 IEmpDi=  4
 NAtoms=    4 NActive=    4 NUniq=    4 SFac= 1.00D+00 NAtFMM=   60 NAOKFM=F Big=F
 Integral buffers will be    131072 words long.
 Raffenetti 2 integral format.
 Two-electron integral symmetry is turned on.
 Leave Link  301 at Mon Sep 11 10:50:25 2023, MaxMem=  1610612736 cpu:               0.4 elap:               0.0
 (Enter /home/sekinelabo/g16/l302.exe)
 NPDir=0 NMtPBC=     1 NCelOv=     1 NCel=       1 NClECP=     1 NCelD=      1
         NCelK=      1 NCelE2=     1 NClLst=     1 CellRange=     0.0.
 One-electron integrals computed using PRISM.
 One-electron integral symmetry used in STVInt
 NBasis=   120 RedAO= T EigKep=  3.86D-06  NBF=    60     4    28    28
 NBsUse=   119 1.00D-06 EigRej=  1.88D-08 NBFU=    59     4    28    28
 Precomputing XC quadrature grid using
 IXCGrd= 4 IRadAn=           5 IRanWt=          -1 IRanGd=           0 AccXCQ= 0.00D+00.
 Generated NRdTot=       0 NPtTot=           0 NUsed=           0 NTot=          32
 NSgBfM=   113   113   113   113   113 MxSgAt=     4 MxSgA2=     4.
 Leave Link  302 at Mon Sep 11 10:50:26 2023, MaxMem=  1610612736 cpu:               1.3 elap:               0.1
 (Enter /home/sekinelabo/g16/l303.exe)
 DipDrv:  MaxL=1.
 Leave Link  303 at Mon Sep 11 10:50:26 2023, MaxMem=  1610612736 cpu:               0.3 elap:               0.0
 (Enter /home/sekinelabo/g16/l401.exe)
 ExpMin= 7.60D-03 ExpMax= 3.62D+04 ExpMxC= 1.21D+03 IAcc=3 IRadAn=         5 AccDes= 0.00D+00
 Harris functional with IExCor=  402 and IRadAn=       5 diagonalized for initial guess.
 HarFok:  IExCor=  402 AccDes= 0.00D+00 IRadAn=         5 IDoV= 1 UseB2=F ITyADJ=14
 ICtDFT=  3500011 ScaDFX=  1.000000  1.000000  1.000000  1.000000
 FoFCou: FMM=F IPFlag=           0 FMFlag=      100000 FMFlg1=           0
         NFxFlg=           0 DoJE=T BraDBF=F KetDBF=T FulRan=T
         wScrn=  0.000000 ICntrl=       500 IOpCl=  0 I1Cent=   200000004 NGrid=           0
         NMat0=    1 NMatS0=      1 NMatT0=    0 NMatD0=    1 NMtDS0=    0 NMtDT0=    0
 Petite list used in FoFCou.
 Harris En= -649.035881521797    
 JPrj=0 DoOrth=F DoCkMO=F.
 Initial guess orbital symmetries:
       Occupied  (SG) (SG) (SG) (SG) (SG) (SG) (SG) (SG) (SG) (PI)
                 (PI) (PI) (PI) (SG) (SG) (PI) (PI) (SG) (PI) (PI)
                 (SG) (SG)
       Virtual   (SG) (SG) (PI) (PI) (PI) (PI) (SG) (PI) (PI) (SG)
                 (SG) (SG) (PI) (PI) (SG) (PI) (PI) (SG) (PI) (PI)
                 (SG) (PI) (PI) (PI) (PI) (SG) (SG) (SG) (SG) (PI)
                 (PI) (SG) (SG) (PI) (PI) (PI) (PI) (SG) (PI) (PI)
                 (SG) (SG) (SG) (SG) (SG) (PI) (PI) (DLTA) (DLTA)
                 (SG) (DLTA) (DLTA) (DLTA) (DLTA) (PI) (PI) (SG)
                 (PI) (PI) (SG) (DLTA) (DLTA) (PI) (PI) (PI) (PI)
                 (PI) (PI) (PI) (PI) (SG) (SG) (SG) (PI) (PI) (SG)
                 (SG) (SG) (SG) (SG) (SG) (PI) (PI) (PI) (PI) (PI)
                 (PI) (SG) (PI) (PI) (SG) (SG) (SG) (SG) (SG) (SG)
                 (SG)
 The electronic state of the initial guess is 1-SG.
 Leave Link  401 at Mon Sep 11 10:50:26 2023, MaxMem=  1610612736 cpu:               1.5 elap:               0.1
 (Enter /home/sekinelabo/g16/l502.exe)
 Keep R1 ints in memory in symmetry-blocked form, NReq=41601370.
 FoFCou: FMM=F IPFlag=           0 FMFlag=           0 FMFlg1=           0
         NFxFlg=           0 DoJE=F BraDBF=F KetDBF=F FulRan=T
         wScrn=  0.000000 ICntrl=       600 IOpCl=  0 I1Cent=           0 NGrid=           0
         NMat0=    1 NMatS0=   7260 NMatT0=    0 NMatD0=    1 NMtDS0=    0 NMtDT0=    0
 Petite list used in FoFCou.
 Closed shell SCF:
 Using DIIS extrapolation, IDIIS=  1040.
 NGot=  1610612736 LenX=  1603303456 LenY=  1603287639
 Requested convergence on RMS density matrix=1.00D-08 within 128 cycles.
 Requested convergence on MAX density matrix=1.00D-06.
 Requested convergence on             energy=1.00D-06.
 No special actions if energy rises.

 Cycle   1  Pass 1  IDiag  1:
 E= -649.109319524657    
 DIIS: error= 1.35D-02 at cycle   1 NSaved=   1.
 NSaved= 1 IEnMin= 1 EnMin= -649.109319524657     IErMin= 1 ErrMin= 1.35D-02
 ErrMax= 1.35D-02  0.00D+00 EMaxC= 1.00D-01 BMatC= 2.98D-02 BMatP= 2.98D-02
 IDIUse=3 WtCom= 8.65D-01 WtEn= 1.35D-01
 Coeff-Com:  0.100D+01
 Coeff-En:   0.100D+01
 Coeff:      0.100D+01
 Gap=    -0.043 Goal=   None    Shift=    0.000
 GapD=   -0.043 DampG=0.250 DampE=0.500 DampFc=0.2500 IDamp=-1.
 Damping current iteration by 2.50D-01
 RMSDP=3.24D-02 MaxDP=1.25D+00              OVMax= 8.37D-01

 Cycle   2  Pass 1  IDiag  1:
 E= -649.131537171241     Delta-E=       -0.022217646584 Rises=F Damp=T
 DIIS: error= 9.19D-03 at cycle   2 NSaved=   2.
 NSaved= 2 IEnMin= 2 EnMin= -649.131537171241     IErMin= 2 ErrMin= 9.19D-03
 ErrMax= 9.19D-03  0.00D+00 EMaxC= 1.00D-01 BMatC= 1.03D-02 BMatP= 2.98D-02
 IDIUse=3 WtCom= 9.08D-01 WtEn= 9.19D-02
 Coeff-Com: -0.755D+00 0.175D+01
 Coeff-En:   0.831D-01 0.917D+00
 Coeff:     -0.678D+00 0.168D+01
 Gap=     0.074 Goal=   None    Shift=    0.000
 RMSDP=1.37D-02 MaxDP=3.98D-01 DE=-2.22D-02 OVMax= 8.16D-01

 Cycle   3  Pass 1  IDiag  1:
 E= -649.011992927437     Delta-E=        0.119544243804 Rises=F Damp=F
 DIIS: error= 1.39D-02 at cycle   3 NSaved=   3.
 NSaved= 3 IEnMin= 2 EnMin= -649.131537171241     IErMin= 2 ErrMin= 9.19D-03
 ErrMax= 1.39D-02  0.00D+00 EMaxC= 1.00D-01 BMatC= 1.20D-02 BMatP= 1.03D-02
 IDIUse=2 WtCom= 0.00D+00 WtEn= 1.00D+00
 Rare condition: small coef for last iteration:  0.000D+00
 Coeff-En:   0.000D+00 0.000D+00 0.100D+01
 Coeff:      0.000D+00 0.000D+00 0.100D+01
 Gap=    -0.123 Goal=   None    Shift=    0.000
 RMSDP=8.39D-02 MaxDP=4.07D+00 DE= 1.20D-01 OVMax= 9.84D-01

 Cycle   4  Pass 1  IDiag  1:
 E= -648.396210896775     Delta-E=        0.615782030661 Rises=F Damp=F
 DIIS: error= 3.53D-02 at cycle   4 NSaved=   4.
 NSaved= 4 IEnMin= 2 EnMin= -649.131537171241     IErMin= 2 ErrMin= 9.19D-03
 ErrMax= 3.53D-02  0.00D+00 EMaxC= 1.00D-01 BMatC= 9.00D-02 BMatP= 1.03D-02
 IDIUse=2 WtCom= 0.00D+00 WtEn= 1.00D+00
 Coeff-En:   0.000D+00 0.000D+00 0.756D+00 0.244D+00
 Coeff:      0.000D+00 0.000D+00 0.756D+00 0.244D+00
 Gap=     0.022 Goal=   None    Shift=    0.000
 RMSDP=4.57D-02 MaxDP=2.00D+00 DE= 6.16D-01 OVMax= 7.12D-01

 Cycle   5  Pass 1  IDiag  1:
 E= -648.981179325969     Delta-E=       -0.584968429193 Rises=F Damp=F
 DIIS: error= 1.61D-02 at cycle   5 NSaved=   5.
 NSaved= 5 IEnMin= 2 EnMin= -649.131537171241     IErMin= 2 ErrMin= 9.19D-03
 ErrMax= 1.61D-02  0.00D+00 EMaxC= 1.00D-01 BMatC= 1.28D-02 BMatP= 1.03D-02
 IDIUse=2 WtCom= 0.00D+00 WtEn= 1.00D+00
 EnCoef did   100 forward-backward iterations
 Coeff-En:   0.709D+00 0.000D+00 0.215D-02 0.000D+00 0.289D+00
 Coeff:      0.709D+00 0.000D+00 0.215D-02 0.000D+00 0.289D+00
 Gap=     0.017 Goal=   None    Shift=    0.000
 RMSDP=3.11D-02 MaxDP=1.57D+00 DE=-5.85D-01 OVMax= 5.51D-01

 Cycle   6  Pass 1  IDiag  1:
 E= -649.103913209685     Delta-E=       -0.122733883717 Rises=F Damp=F
 DIIS: error= 1.24D-02 at cycle   6 NSaved=   6.
 NSaved= 6 IEnMin= 2 EnMin= -649.131537171241     IErMin= 2 ErrMin= 9.19D-03
 ErrMax= 1.24D-02  0.00D+00 EMaxC= 1.00D-01 BMatC= 1.33D-02 BMatP= 1.03D-02
 IDIUse=2 WtCom= 0.00D+00 WtEn= 1.00D+00
 EnCoef did   100 forward-backward iterations
 Coeff-En:   0.507D+00 0.140D-01 0.253D-02 0.000D+00 0.000D+00 0.476D+00
 Coeff:      0.507D+00 0.140D-01 0.253D-02 0.000D+00 0.000D+00 0.476D+00
 Gap=     0.014 Goal=   None    Shift=    0.000
 RMSDP=1.26D-02 MaxDP=3.90D-01 DE=-1.23D-01 OVMax= 3.28D-01

 Cycle   7  Pass 1  IDiag  1:
 E= -649.144961952935     Delta-E=       -0.041048743250 Rises=F Damp=F
 DIIS: error= 8.76D-03 at cycle   7 NSaved=   7.
 NSaved= 7 IEnMin= 7 EnMin= -649.144961952935     IErMin= 7 ErrMin= 8.76D-03
 ErrMax= 8.76D-03  0.00D+00 EMaxC= 1.00D-01 BMatC= 3.17D-03 BMatP= 1.03D-02
 IDIUse=3 WtCom= 9.12D-01 WtEn= 8.76D-02
 EnCoef did   100 forward-backward iterations
 Coeff-Com:  0.981D+00-0.117D+01-0.831D-01 0.349D-01 0.518D-02 0.416D+00
 Coeff-Com:  0.817D+00
 Coeff-En:   0.275D+00 0.000D+00 0.674D-02 0.000D+00 0.000D+00 0.143D+00
 Coeff-En:   0.575D+00
 Coeff:      0.919D+00-0.107D+01-0.752D-01 0.318D-01 0.473D-02 0.392D+00
 Coeff:      0.796D+00
 Gap=     0.020 Goal=   None    Shift=    0.000
 RMSDP=1.03D-02 MaxDP=3.59D-01 DE=-4.10D-02 OVMax= 4.25D-01

 Cycle   8  Pass 1  IDiag  1:
 E= -649.117566613780     Delta-E=        0.027395339155 Rises=F Damp=F
 DIIS: error= 1.44D-02 at cycle   8 NSaved=   8.
 NSaved= 8 IEnMin= 7 EnMin= -649.144961952935     IErMin= 7 ErrMin= 8.76D-03
 ErrMax= 1.44D-02  0.00D+00 EMaxC= 1.00D-01 BMatC= 3.69D-03 BMatP= 3.17D-03
 IDIUse=2 WtCom= 0.00D+00 WtEn= 1.00D+00
 EnCoef did     4 forward-backward iterations
 Coeff-En:   0.000D+00 0.000D+00 0.000D+00 0.000D+00 0.000D+00 0.134D+00
 Coeff-En:   0.527D+00 0.339D+00
 Coeff:      0.000D+00 0.000D+00 0.000D+00 0.000D+00 0.000D+00 0.134D+00
 Coeff:      0.527D+00 0.339D+00
 Gap=     0.015 Goal=   None    Shift=    0.000
 RMSDP=8.28D-03 MaxDP=2.10D-01 DE= 2.74D-02 OVMax= 3.84D-01

 Cycle   9  Pass 1  IDiag  1:
 E= -649.155658838967     Delta-E=       -0.038092225187 Rises=F Damp=F
 DIIS: error= 3.53D-03 at cycle   9 NSaved=   9.
 NSaved= 9 IEnMin= 9 EnMin= -649.155658838967     IErMin= 9 ErrMin= 3.53D-03
 ErrMax= 3.53D-03  0.00D+00 EMaxC= 1.00D-01 BMatC= 1.13D-03 BMatP= 3.17D-03
 IDIUse=3 WtCom= 9.65D-01 WtEn= 3.53D-02
 EnCoef did     5 forward-backward iterations
 Coeff-Com:  0.840D-01-0.116D+00-0.445D-01 0.658D-02-0.473D-01 0.458D-01
 Coeff-Com:  0.380D+00 0.215D+00 0.476D+00
 Coeff-En:   0.000D+00 0.000D+00 0.000D+00 0.000D+00 0.000D+00 0.000D+00
 Coeff-En:   0.156D+00 0.116D+00 0.728D+00
 Coeff:      0.811D-01-0.111D+00-0.429D-01 0.635D-02-0.457D-01 0.442D-01
 Coeff:      0.372D+00 0.211D+00 0.485D+00
 Gap=     0.022 Goal=   None    Shift=    0.000
 RMSDP=3.52D-03 MaxDP=1.10D-01 DE=-3.81D-02 OVMax= 6.64D-02

 Cycle  10  Pass 1  IDiag  1:
 E= -649.158095318626     Delta-E=       -0.002436479659 Rises=F Damp=F
 DIIS: error= 1.90D-03 at cycle  10 NSaved=  10.
 NSaved=10 IEnMin=10 EnMin= -649.158095318626     IErMin=10 ErrMin= 1.90D-03
 ErrMax= 1.90D-03  0.00D+00 EMaxC= 1.00D-01 BMatC= 6.46D-05 BMatP= 1.13D-03
 IDIUse=3 WtCom= 9.81D-01 WtEn= 1.90D-02
 Coeff-Com:  0.278D-01-0.384D-01-0.201D-01 0.307D-02-0.176D-01 0.128D-01
 Coeff-Com:  0.507D-02 0.113D+00 0.102D-01 0.904D+00
 Coeff-En:   0.000D+00 0.000D+00 0.000D+00 0.000D+00 0.000D+00 0.000D+00
 Coeff-En:   0.000D+00 0.396D-01 0.000D+00 0.960D+00
 Coeff:      0.273D-01-0.377D-01-0.198D-01 0.301D-02-0.172D-01 0.126D-01
 Coeff:      0.497D-02 0.112D+00 0.998D-02 0.905D+00
 Gap=     0.022 Goal=   None    Shift=    0.000
 RMSDP=7.07D-04 MaxDP=2.30D-02 DE=-2.44D-03 OVMax= 3.18D-02

 Cycle  11  Pass 1  IDiag  1:
 E= -649.158612963099     Delta-E=       -0.000517644473 Rises=F Damp=F
 DIIS: error= 2.96D-04 at cycle  11 NSaved=  11.
 NSaved=11 IEnMin=11 EnMin= -649.158612963099     IErMin=11 ErrMin= 2.96D-04
 ErrMax= 2.96D-04  0.00D+00 EMaxC= 1.00D-01 BMatC= 1.65D-06 BMatP= 6.46D-05
 IDIUse=3 WtCom= 9.97D-01 WtEn= 2.96D-03
 Coeff-Com:  0.687D-02-0.914D-02 0.889D-04 0.172D-03 0.113D-02 0.261D-02
 Coeff-Com: -0.320D-01 0.843D-02-0.406D-01 0.108D+00 0.955D+00
 Coeff-En:   0.000D+00 0.000D+00 0.000D+00 0.000D+00 0.000D+00 0.000D+00
 Coeff-En:   0.000D+00 0.000D+00 0.000D+00 0.000D+00 0.100D+01
 Coeff:      0.685D-02-0.911D-02 0.886D-04 0.172D-03 0.113D-02 0.260D-02
 Coeff:     -0.319D-01 0.841D-02-0.405D-01 0.107D+00 0.955D+00
 Gap=     0.022 Goal=   None    Shift=    0.000
 RMSDP=2.74D-04 MaxDP=7.98D-03 DE=-5.18D-04 OVMax= 8.50D-03

 Cycle  12  Pass 1  IDiag  1:
 E= -649.158621573614     Delta-E=       -0.000008610515 Rises=F Damp=F
 DIIS: error= 1.35D-04 at cycle  12 NSaved=  12.
 NSaved=12 IEnMin=12 EnMin= -649.158621573614     IErMin=12 ErrMin= 1.35D-04
 ErrMax= 1.35D-04  0.00D+00 EMaxC= 1.00D-01 BMatC= 5.61D-07 BMatP= 1.65D-06
 IDIUse=3 WtCom= 9.99D-01 WtEn= 1.35D-03
 Coeff-Com:  0.290D-03-0.294D-03 0.157D-02-0.134D-03 0.125D-02 0.112D-02
 Coeff-Com: -0.984D-02-0.237D-02-0.568D-02 0.102D-01 0.414D+00 0.590D+00
 Coeff-En:   0.000D+00 0.000D+00 0.000D+00 0.000D+00 0.000D+00 0.000D+00
 Coeff-En:   0.000D+00 0.000D+00 0.000D+00 0.000D+00 0.324D+00 0.676D+00
 Coeff:      0.290D-03-0.293D-03 0.156D-02-0.134D-03 0.124D-02 0.112D-02
 Coeff:     -0.983D-02-0.237D-02-0.568D-02 0.102D-01 0.414D+00 0.590D+00
 Gap=     0.022 Goal=   None    Shift=    0.000
 RMSDP=8.33D-05 MaxDP=2.32D-03 DE=-8.61D-06 OVMax= 3.61D-03

 Cycle  13  Pass 1  IDiag  1:
 E= -649.158625850316     Delta-E=       -0.000004276701 Rises=F Damp=F
 DIIS: error= 2.38D-05 at cycle  13 NSaved=  13.
 NSaved=13 IEnMin=13 EnMin= -649.158625850316     IErMin=13 ErrMin= 2.38D-05
 ErrMax= 2.38D-05  0.00D+00 EMaxC= 1.00D-01 BMatC= 1.27D-08 BMatP= 5.61D-07
 IDIUse=1 WtCom= 1.00D+00 WtEn= 0.00D+00
 Coeff-Com:  0.307D-03-0.438D-03 0.544D-03-0.421D-04 0.366D-03 0.367D-03
 Coeff-Com:  0.128D-02-0.204D-02 0.301D-02-0.270D-01 0.423D-01 0.124D+00
 Coeff-Com:  0.857D+00
 Coeff:      0.307D-03-0.438D-03 0.544D-03-0.421D-04 0.366D-03 0.367D-03
 Coeff:      0.128D-02-0.204D-02 0.301D-02-0.270D-01 0.423D-01 0.124D+00
 Coeff:      0.857D+00
 Gap=     0.022 Goal=   None    Shift=    0.000
 RMSDP=2.94D-05 MaxDP=1.02D-03 DE=-4.28D-06 OVMax= 6.81D-04

 Cycle  14  Pass 1  IDiag  1:
 E= -649.158625919141     Delta-E=       -0.000000068825 Rises=F Damp=F
 DIIS: error= 1.02D-05 at cycle  14 NSaved=  14.
 NSaved=14 IEnMin=14 EnMin= -649.158625919141     IErMin=14 ErrMin= 1.02D-05
 ErrMax= 1.02D-05  0.00D+00 EMaxC= 1.00D-01 BMatC= 2.48D-09 BMatP= 1.27D-08
 IDIUse=1 WtCom= 1.00D+00 WtEn= 0.00D+00
 Coeff-Com:  0.292D-04-0.492D-04-0.692D-05 0.113D-04-0.110D-04 0.688D-04
 Coeff-Com:  0.124D-02-0.397D-03 0.166D-02-0.363D-02-0.240D-01-0.178D-01
 Coeff-Com:  0.141D+00 0.902D+00
 Coeff:      0.292D-04-0.492D-04-0.692D-05 0.113D-04-0.110D-04 0.688D-04
 Coeff:      0.124D-02-0.397D-03 0.166D-02-0.363D-02-0.240D-01-0.178D-01
 Coeff:      0.141D+00 0.902D+00
 Gap=     0.022 Goal=   None    Shift=    0.000
 RMSDP=1.02D-05 MaxDP=3.74D-04 DE=-6.88D-08 OVMax= 8.28D-05

 Cycle  15  Pass 1  IDiag  1:
 E= -649.158625905798     Delta-E=        0.000000013343 Rises=F Damp=F
 DIIS: error= 1.40D-05 at cycle  15 NSaved=  15.
 NSaved=15 IEnMin=14 EnMin= -649.158625919141     IErMin=14 ErrMin= 1.02D-05
 ErrMax= 1.40D-05  0.00D+00 EMaxC= 1.00D-01 BMatC= 3.79D-09 BMatP= 2.48D-09
 IDIUse=1 WtCom= 1.00D+00 WtEn= 0.00D+00
 Coeff-Com: -0.181D-03 0.243D-03 0.295D-05-0.378D-05-0.711D-05-0.118D-04
 Coeff-Com: -0.718D-04 0.306D-04 0.336D-03 0.635D-02 0.559D-03-0.143D-01
 Coeff-Com: -0.313D-01-0.278D-01 0.107D+01
 Coeff:     -0.181D-03 0.243D-03 0.295D-05-0.378D-05-0.711D-05-0.118D-04
 Coeff:     -0.718D-04 0.306D-04 0.336D-03 0.635D-02 0.559D-03-0.143D-01
 Coeff:     -0.313D-01-0.278D-01 0.107D+01
 Gap=     0.022 Goal=   None    Shift=    0.000
 RMSDP=6.23D-06 MaxDP=1.97D-04 DE= 1.33D-08 OVMax= 3.18D-04

 Cycle  16  Pass 1  IDiag  1:
 E= -649.158625937339     Delta-E=       -0.000000031541 Rises=F Damp=F
 DIIS: error= 1.47D-06 at cycle  16 NSaved=  16.
 NSaved=16 IEnMin=16 EnMin= -649.158625937339     IErMin=16 ErrMin= 1.47D-06
 ErrMax= 1.47D-06  0.00D+00 EMaxC= 1.00D-01 BMatC= 4.65D-11 BMatP= 2.48D-09
 IDIUse=1 WtCom= 1.00D+00 WtEn= 0.00D+00
 Coeff-Com: -0.138D-04 0.179D-04-0.209D-05-0.386D-06-0.120D-07-0.176D-06
 Coeff-Com:  0.125D-05 0.830D-05 0.257D-04 0.432D-03 0.456D-03 0.915D-04
 Coeff-Com:  0.207D-02 0.132D-01 0.155D+00 0.829D+00
 Coeff:     -0.138D-04 0.179D-04-0.209D-05-0.386D-06-0.120D-07-0.176D-06
 Coeff:      0.125D-05 0.830D-05 0.257D-04 0.432D-03 0.456D-03 0.915D-04
 Coeff:      0.207D-02 0.132D-01 0.155D+00 0.829D+00
 Gap=     0.022 Goal=   None    Shift=    0.000
 RMSDP=6.08D-07 MaxDP=1.99D-05 DE=-3.15D-08 OVMax= 3.47D-05

 Cycle  17  Pass 1  IDiag  1:
 E= -649.158625937722     Delta-E=       -0.000000000383 Rises=F Damp=F
 DIIS: error= 2.03D-07 at cycle  17 NSaved=  17.
 NSaved=17 IEnMin=17 EnMin= -649.158625937722     IErMin=17 ErrMin= 2.03D-07
 ErrMax= 2.03D-07  0.00D+00 EMaxC= 1.00D-01 BMatC= 6.61D-13 BMatP= 4.65D-11
 IDIUse=1 WtCom= 1.00D+00 WtEn= 0.00D+00
 Coeff-Com:  0.259D-05-0.355D-05-0.125D-05-0.542D-07-0.233D-06-0.947D-06
 Coeff-Com:  0.301D-05 0.531D-05-0.986D-05-0.784D-04 0.207D-03 0.816D-03
 Coeff-Com:  0.117D-02 0.190D-02-0.766D-04 0.277D+00 0.719D+00
 Coeff:      0.259D-05-0.355D-05-0.125D-05-0.542D-07-0.233D-06-0.947D-06
 Coeff:      0.301D-05 0.531D-05-0.986D-05-0.784D-04 0.207D-03 0.816D-03
 Coeff:      0.117D-02 0.190D-02-0.766D-04 0.277D+00 0.719D+00
 Gap=     0.022 Goal=   None    Shift=    0.000
 RMSDP=1.14D-07 MaxDP=3.16D-06 DE=-3.83D-10 OVMax= 4.97D-06

 Cycle  18  Pass 1  IDiag  1:
 E= -649.158625937727     Delta-E=       -0.000000000005 Rises=F Damp=F
 DIIS: error= 7.66D-08 at cycle  18 NSaved=  18.
 NSaved=18 IEnMin=18 EnMin= -649.158625937727     IErMin=18 ErrMin= 7.66D-08
 ErrMax= 7.66D-08  0.00D+00 EMaxC= 1.00D-01 BMatC= 1.05D-13 BMatP= 6.61D-13
 IDIUse=1 WtCom= 1.00D+00 WtEn= 0.00D+00
 Coeff-Com:  0.551D-06-0.700D-06 0.219D-06 0.112D-07 0.704D-07 0.211D-06
 Coeff-Com: -0.377D-06-0.148D-05 0.108D-05 0.192D-04-0.167D-04-0.131D-03
 Coeff-Com: -0.593D-03-0.139D-02 0.725D-02-0.240D-01 0.611D-02 0.101D+01
 Coeff:      0.551D-06-0.700D-06 0.219D-06 0.112D-07 0.704D-07 0.211D-06
 Coeff:     -0.377D-06-0.148D-05 0.108D-05 0.192D-04-0.167D-04-0.131D-03
 Coeff:     -0.593D-03-0.139D-02 0.725D-02-0.240D-01 0.611D-02 0.101D+01
 Gap=     0.022 Goal=   None    Shift=    0.000
 RMSDP=5.29D-08 MaxDP=1.80D-06 DE=-5.46D-12 OVMax= 1.86D-06

 Cycle  19  Pass 1  IDiag  1:
 E= -649.158625937728     Delta-E=       -0.000000000001 Rises=F Damp=F
 DIIS: error= 1.71D-08 at cycle  19 NSaved=  19.
 NSaved=19 IEnMin=19 EnMin= -649.158625937728     IErMin=19 ErrMin= 1.71D-08
 ErrMax= 1.71D-08  0.00D+00 EMaxC= 1.00D-01 BMatC= 6.70D-15 BMatP= 1.05D-13
 IDIUse=1 WtCom= 1.00D+00 WtEn= 0.00D+00
 Large coefficients: NSaved= 19 BigCof=    0.00 CofMax=   10.00 Det=-3.01D-16
 Inversion failed.  Reducing to 18 matrices.
 Large coefficients: NSaved= 18 BigCof=    0.00 CofMax=   10.00 Det=-3.06D-16
 Inversion failed.  Reducing to 17 matrices.
 Large coefficients: NSaved= 17 BigCof=    0.00 CofMax=   10.00 Det=-3.32D-16
 Inversion failed.  Reducing to 16 matrices.
 Large coefficients: NSaved= 16 BigCof=    0.00 CofMax=   10.00 Det=-3.91D-16
 Inversion failed.  Reducing to 15 matrices.
 Coeff-Com: -0.285D-07 0.325D-07-0.405D-07 0.219D-07-0.147D-06-0.258D-05
 Coeff-Com: -0.710D-06 0.578D-05 0.171D-05-0.690D-04-0.146D-02 0.358D-02
 Coeff-Com:  0.186D-01 0.380D-02 0.976D+00
 Coeff:     -0.285D-07 0.325D-07-0.405D-07 0.219D-07-0.147D-06-0.258D-05
 Coeff:     -0.710D-06 0.578D-05 0.171D-05-0.690D-04-0.146D-02 0.358D-02
 Coeff:      0.186D-01 0.380D-02 0.976D+00
 Gap=     0.022 Goal=   None    Shift=    0.000
 RMSDP=8.68D-09 MaxDP=2.70D-07 DE=-6.82D-13 OVMax= 3.91D-07

 SCF Done:  E(RB3LYP) =  -649.158625938     A.U. after   19 cycles
            NFock= 19  Conv=0.87D-08     -V/T= 2.0027
 KE= 6.473884631483D+02 PE=-1.724289162131D+03 EE= 3.449767259362D+02
 Leave Link  502 at Mon Sep 11 10:50:27 2023, MaxMem=  1610612736 cpu:              15.1 elap:               1.0
 (Enter /home/sekinelabo/g16/l601.exe)
 Copying SCF densities to generalized density rwf, IOpCl= 0 IROHF=0.

 **********************************************************************

            Population analysis using the SCF Density.

 **********************************************************************

 Orbital symmetries:
       Occupied  (SG) (SG) (SG) (SG) (SG) (SG) (SG) (SG) (SG) (PI)
                 (PI) (SG) (PI) (PI) (PI) (PI) (SG) (PI) (PI) (SG)
                 (SG) (SG)
       Virtual   (SG) (SG) (PI) (PI) (PI) (PI) (SG) (PI) (PI) (SG)
                 (SG) (SG) (PI) (PI) (SG) (PI) (PI) (PI) (PI) (SG)
                 (SG) (PI) (PI) (SG) (PI) (PI) (SG) (SG) (SG) (PI)
                 (PI) (SG) (SG) (PI) (PI) (PI) (PI) (SG) (PI) (PI)
                 (SG) (SG) (SG) (SG) (SG) (PI) (PI) (DLTA) (DLTA)
                 (SG) (DLTA) (DLTA) (DLTA) (DLTA) (PI) (PI) (PI)
                 (PI) (SG) (SG) (DLTA) (DLTA) (PI) (PI) (PI) (PI)
                 (PI) (PI) (SG) (PI) (PI) (SG) (SG) (PI) (PI) (SG)
                 (SG) (SG) (SG) (SG) (SG) (PI) (PI) (PI) (PI) (PI)
                 (PI) (SG) (SG) (PI) (PI) (SG) (SG) (SG) (SG) (SG)
                 (SG)
 The electronic state is 1-SG.
 Alpha  occ. eigenvalues --  -38.46500 -38.46293 -38.45702 -38.45123  -2.22191
 Alpha  occ. eigenvalues --   -2.22175  -2.21451  -2.21063  -1.16456  -1.15848
 Alpha  occ. eigenvalues --   -1.15848  -1.15824  -1.15747  -1.15747  -1.15113
 Alpha  occ. eigenvalues --   -1.15113  -1.15107  -1.14623  -1.14623  -1.14522
 Alpha  occ. eigenvalues --   -0.15073  -0.11306
 Alpha virt. eigenvalues --   -0.09113  -0.04127  -0.03438  -0.03438  -0.01780
 Alpha virt. eigenvalues --   -0.01780  -0.01519  -0.00708  -0.00708   0.00037
 Alpha virt. eigenvalues --    0.00147   0.00961   0.01126   0.01126   0.01287
 Alpha virt. eigenvalues --    0.01438   0.01438   0.02133   0.02133   0.02151
 Alpha virt. eigenvalues --    0.02535   0.02639   0.02639   0.03943   0.04133
 Alpha virt. eigenvalues --    0.04133   0.04472   0.05412   0.05800   0.07236
 Alpha virt. eigenvalues --    0.07236   0.07374   0.07428   0.07935   0.07935
 Alpha virt. eigenvalues --    0.08353   0.08353   0.10367   0.11192   0.11192
 Alpha virt. eigenvalues --    0.11546   0.12484   0.15121   0.16058   0.20668
 Alpha virt. eigenvalues --    0.27894   0.27894   0.29441   0.29441   0.33381
 Alpha virt. eigenvalues --    0.34058   0.34059   0.34275   0.34275   0.34451
 Alpha virt. eigenvalues --    0.34451   0.37437   0.37437   0.37515   0.38725
 Alpha virt. eigenvalues --    0.40509   0.40509   0.42142   0.42142   0.42605
 Alpha virt. eigenvalues --    0.42605   0.44101   0.44101   0.44723   0.44880
 Alpha virt. eigenvalues --    0.44880   0.46724   0.49688   0.60238   0.60238
 Alpha virt. eigenvalues --    0.62861   0.96466   2.00670   2.03433   2.07077
 Alpha virt. eigenvalues --    2.19790   4.41729   4.41729   4.42516   4.42516
 Alpha virt. eigenvalues --    4.43465   4.43465   4.44003   4.47785   4.48350
 Alpha virt. eigenvalues --    4.48350   4.56456   4.82198  96.19851  96.23351
 Alpha virt. eigenvalues --   96.29375  96.42553
          Condensed to atoms (all electrons):
               1          2          3          4
     1  Na  11.054400  -0.014459   0.095924  -0.011524
     2  Na  -0.014459  10.527405   0.081114   0.207012
     3  Na   0.095924   0.081114  11.129297  -0.612773
     4  Na  -0.011524   0.207012  -0.612773  11.798311
 Mulliken charges:
               1
     1  Na  -0.124340
     2  Na   0.198928
     3  Na   0.306438
     4  Na  -0.381026
 Sum of Mulliken charges =   0.00000
 Mulliken charges with hydrogens summed into heavy atoms:
               1
     1  Na  -0.124340
     2  Na   0.198928
     3  Na   0.306438
     4  Na  -0.381026
 Electronic spatial extent (au):  <R**2>=           2738.4087
 Charge=              0.0000 electrons
 Dipole moment (field-independent basis, Debye):
    X=              0.0000    Y=              0.0000    Z=             -0.7598  Tot=              0.7598
 Quadrupole moment (field-independent basis, Debye-Ang):
   XX=            -44.7842   YY=            -44.7842   ZZ=            -20.2140
   XY=              0.0000   XZ=              0.0000   YZ=              0.0000
 Traceless Quadrupole moment (field-independent basis, Debye-Ang):
   XX=             -8.1900   YY=             -8.1900   ZZ=             16.3801
   XY=              0.0000   XZ=              0.0000   YZ=              0.0000
 Octapole moment (field-independent basis, Debye-Ang**2):
  XXX=              0.0000  YYY=              0.0000  ZZZ=            -25.4849  XYY=              0.0000
  XXY=              0.0000  XXZ=             -7.7904  XZZ=              0.0000  YZZ=              0.0000
  YYZ=             -7.7904  XYZ=              0.0000
 Hexadecapole moment (field-independent basis, Debye-Ang**3):
 XXXX=           -189.2595 YYYY=           -189.2595 ZZZZ=          -3194.8299 XXXY=              0.0000
 XXXZ=              0.0000 YYYX=              0.0000 YYYZ=              0.0000 ZZZX=              0.0000
 ZZZY=              0.0000 XXYY=            -63.0865 XXZZ=           -810.3356 YYZZ=           -810.3356
 XXYZ=              0.0000 YYXZ=              0.0000 ZZXY=              0.0000
 N-N= 8.276534710847D+01 E-N=-1.724289160795D+03  KE= 6.473884631483D+02
 Symmetry A1   KE= 5.524659352455D+02
 Symmetry A2   KE=-3.385865380026D-52
 Symmetry B1   KE= 4.746126395144D+01
 Symmetry B2   KE= 4.746126395144D+01
 No NMR shielding tensors so no spin-rotation constants.
 Leave Link  601 at Mon Sep 11 10:50:27 2023, MaxMem=  1610612736 cpu:               1.1 elap:               0.1
 (Enter /home/sekinelabo/g16/l701.exe)
 ... and contract with generalized density number  0.
 Compute integral first derivatives.
 Leave Link  701 at Mon Sep 11 10:50:27 2023, MaxMem=  1610612736 cpu:               1.3 elap:               0.1
 (Enter /home/sekinelabo/g16/l702.exe)
 L702 exits ... SP integral derivatives will be done elsewhere.
 Leave Link  702 at Mon Sep 11 10:50:27 2023, MaxMem=  1610612736 cpu:               0.3 elap:               0.0
 (Enter /home/sekinelabo/g16/l703.exe)
 Integral derivatives from FoFJK, PRISM(SPDF).
 Compute integral first derivatives, UseDBF=F ICtDFT=           0.
 Calling FoFJK, ICntrl=      2127 FMM=F ISym2X=1 I1Cent= 0 IOpClX= 0 NMat=1 NMatS=1 NMatT=0.
 FoFJK:  IHMeth= 1 ICntrl=    2127 DoSepK=F KAlg= 0 I1Cent=           0 FoldK=F
 IRaf=         0 NMat=       1 IRICut=       1 DoRegI=T DoRafI=F ISym2E= 1 IDoP0=0 IntGTp=1.
 FoFCou: FMM=F IPFlag=           0 FMFlag=      100000 FMFlg1=         800
         NFxFlg=           0 DoJE=F BraDBF=F KetDBF=F FulRan=T
         wScrn=  0.000000 ICntrl=      2127 IOpCl=  0 I1Cent=           0 NGrid=           0
         NMat0=    1 NMatS0=      1 NMatT0=    0 NMatD0=    1 NMtDS0=    0 NMtDT0=    0
 Petite list used in FoFCou.
 Leave Link  703 at Mon Sep 11 10:50:27 2023, MaxMem=  1610612736 cpu:               4.2 elap:               0.3
 (Enter /home/sekinelabo/g16/l716.exe)
 Dipole        = 0.00000000D+00 0.00000000D+00-2.98920499D-01
 ***** Axes restored to original set *****
 -------------------------------------------------------------------
 Center     Atomic                   Forces (Hartrees/Bohr)
 Number     Number              X              Y              Z
 -------------------------------------------------------------------
      1       11          -0.000000000   -0.000000000    0.003978900
      2       11          -0.000000000   -0.000000000   -0.031533749
      3       11          -0.000000000   -0.000000000    0.028536143
      4       11          -0.000000000   -0.000000000   -0.000981294
 -------------------------------------------------------------------
 Cartesian Forces:  Max     0.031533749 RMS     0.012333840
 Z-matrix is all fixed cartesians, so copy forces.
 Force constants in Cartesian coordinates: 
                1             2             3             4             5 
      1  0.100000D+01
      2  0.000000D+00  0.100000D+01
      3  0.000000D+00  0.000000D+00  0.100000D+01
      4  0.000000D+00  0.000000D+00  0.000000D+00  0.123035D-01
      5  0.000000D+00  0.000000D+00  0.000000D+00  0.000000D+00  0.123035D-01
      6  0.000000D+00  0.000000D+00  0.000000D+00  0.000000D+00  0.000000D+00
      7  0.000000D+00  0.000000D+00  0.000000D+00 -0.212314D-01  0.000000D+00
      8  0.000000D+00  0.000000D+00  0.000000D+00  0.000000D+00 -0.212314D-01
      9  0.000000D+00  0.000000D+00  0.000000D+00  0.000000D+00  0.000000D+00
     10  0.000000D+00  0.000000D+00  0.000000D+00  0.892782D-02  0.000000D+00
     11  0.000000D+00  0.000000D+00  0.000000D+00  0.000000D+00  0.892782D-02
     12  0.000000D+00  0.000000D+00  0.000000D+00  0.000000D+00  0.000000D+00
                6             7             8             9            10 
      6  0.119410D+00
      7  0.000000D+00  0.366375D-01
      8  0.000000D+00  0.000000D+00  0.366375D-01
      9 -0.119410D+00  0.000000D+00  0.000000D+00  0.143774D+00
     10  0.000000D+00 -0.154061D-01  0.000000D+00  0.000000D+00  0.647830D-02
     11  0.000000D+00  0.000000D+00 -0.154061D-01  0.000000D+00  0.000000D+00
     12  0.000000D+00  0.000000D+00  0.000000D+00 -0.243643D-01  0.000000D+00
               11            12 
     11  0.647830D-02
     12  0.000000D+00  0.243643D-01
 Leave Link  716 at Mon Sep 11 10:50:27 2023, MaxMem=  1610612736 cpu:               0.3 elap:               0.0
 (Enter /home/sekinelabo/g16/l103.exe)

 GradGradGradGradGradGradGradGradGradGradGradGradGradGradGradGradGradGrad
 Berny optimization.
 Search for a local minimum.
 Step number   1 out of a maximum of    2
 All quantities printed in internal units (Hartrees-Bohrs-Radians)
 Second derivative matrix not updated -- first step.
 The second derivative matrix:
                          X1        Y1        Z1        X2        Y2
           X1           1.00000
           Y1           0.00000   1.00000
           Z1           0.00000   0.00000   1.00000
           X2           0.00000   0.00000   0.00000   0.01230
           Y2           0.00000   0.00000   0.00000   0.00000   0.01230
           Z2           0.00000   0.00000   0.00000   0.00000   0.00000
           X3           0.00000   0.00000   0.00000  -0.02123   0.00000
           Y3           0.00000   0.00000   0.00000   0.00000  -0.02123
           Z3           0.00000   0.00000   0.00000   0.00000   0.00000
           X4           0.00000   0.00000   0.00000   0.00893   0.00000
           Y4           0.00000   0.00000   0.00000   0.00000   0.00893
           Z4           0.00000   0.00000   0.00000   0.00000   0.00000
                          Z2        X3        Y3        Z3        X4
           Z2           0.11941
           X3           0.00000   0.03664
           Y3           0.00000   0.00000   0.03664
           Z3          -0.11941   0.00000   0.00000   0.14377
           X4           0.00000  -0.01541   0.00000   0.00000   0.00648
           Y4           0.00000   0.00000  -0.01541   0.00000   0.00000
           Z4           0.00000   0.00000   0.00000  -0.02436   0.00000
                          Y4        Z4
           Y4           0.00648
           Z4           0.00000   0.02436
 ITU=  0
     Eigenvalues ---    0.03449   0.05542   0.05542   0.17992   0.17992
     Eigenvalues ---    0.25306   0.75000
 Angle between quadratic step and forces=  32.36 degrees.
 ClnCor:  largest displacement from symmetrization is 2.66D-17 for atom     3.
 Linear search not attempted -- first point.
 ClnCor:  largest displacement from symmetrization is 4.36D-16 for atom     1.
 B after Tr=     0.000000    0.000000    0.000000
         Rot=    1.000000    0.000000    0.000000    0.000000 Ang=   0.00 deg.
 Variable       Old X    -DE/DX   Delta X   Delta X   Delta X     New X
                                 (Linear)    (Quad)   (Total)
    X1        0.00000  -0.00000   0.00000   0.00000   0.00000   0.00000
    Y1        0.00000  -0.00000   0.00000   0.00000   0.00000   0.00000
    Z1        0.00000   0.00398   0.00000   0.00531   0.00531   0.00531
    X2        0.00000  -0.00000   0.00000   0.00000   0.00000   0.00000
    Y2        0.00000  -0.00000   0.00000   0.00000   0.00000   0.00000
    Z2       10.56960  -0.03153   0.00000  -0.17514  -0.17514  10.39446
    X3        0.00000  -0.00000   0.00000  -0.00000   0.00000   0.00000
    Y3        0.00000  -0.00000   0.00000  -0.00000   0.00000   0.00000
    Z3       15.07730   0.02854   0.00000   0.07784   0.07784  15.15513
    X4        0.00000  -0.00000   0.00000   0.00000   0.00000   0.00000
    Y4        0.00000  -0.00000   0.00000   0.00000   0.00000   0.00000
    Z4       21.28942  -0.00098   0.00000   0.09200   0.09200  21.38141
         Item               Value     Threshold  Converged?
 Maximum Force            0.031534     0.000450     NO 
 RMS     Force            0.012334     0.000300     NO 
 Maximum Displacement     0.175137     0.001800     NO 
 RMS     Displacement     0.061389     0.001200     NO 
 Predicted change in Energy=-3.837344D-03
 GradGradGradGradGradGradGradGradGradGradGradGradGradGradGradGradGradGrad

 Leave Link  103 at Mon Sep 11 10:50:27 2023, MaxMem=  1610612736 cpu:               0.2 elap:               0.0
 (Enter /home/sekinelabo/g16/l9999.exe)
 1\1\GINC-SEKINELABO-XA7R-R37\Force\RB3LYP\6-311+G(d)\Na4\SEKINELABO\11
 -Sep-2023\0\\#p B3LYP/6-311+g(d) force\\\0,1\Na,0.,0.,0.\Na,0.,0.,5.59
 31916313\Na,0.,0.,7.978563058\Na,0.,0.,11.2658736721\\Version=ES64L-G1
 6RevB.01\State=1-SG\HF=-649.1586259\RMSD=8.679e-09\RMSF=1.233e-02\Dipo
 le=0.,0.,0.2989205\Quadrupole=-6.0890996,-6.0890996,12.1781992,0.,0.,0
 .\PG=C*V [C*(Na1Na1Na1Na1)]\\@



 IN THIS SHORT LIFE

 THAT ONLY LASTS AN HOUR

 HOW MUCH, HOW LITTLE, IS WITHIN OUR POWER....


 EMILY DICKINSON BOLTS OF MELODY NO. 521
 Job cpu time:       0 days  0 hours  0 minutes 28.4 seconds.
 Elapsed time:       0 days  0 hours  0 minutes  1.9 seconds.
 File lengths (MBytes):  RWF=     11 Int=      0 D2E=      0 Chk=      2 Scr=      1
 Normal termination of Gaussian 16 at Mon Sep 11 10:50:27 2023.
 Initial command:
 /home/sekinelabo/g16/l1.exe "/home/sekinelabo/g16temp/Gau-3155230.inp" -scrdir="/home/sekinelabo/g16temp/"
 Entering Link 1 = /home/sekinelabo/g16/l1.exe PID=   3155749.
  
 Copyright (c) 1988-2017, Gaussian, Inc.  All Rights Reserved.
  
 This is part of the Gaussian(R) 16 program.  It is based on
 the Gaussian(R) 09 system (copyright 2009, Gaussian, Inc.),
 the Gaussian(R) 03 system (copyright 2003, Gaussian, Inc.),
 the Gaussian(R) 98 system (copyright 1998, Gaussian, Inc.),
 the Gaussian(R) 94 system (copyright 1995, Gaussian, Inc.),
 the Gaussian 92(TM) system (copyright 1992, Gaussian, Inc.),
 the Gaussian 90(TM) system (copyright 1990, Gaussian, Inc.),
 the Gaussian 88(TM) system (copyright 1988, Gaussian, Inc.),
 the Gaussian 86(TM) system (copyright 1986, Carnegie Mellon
 University), and the Gaussian 82(TM) system (copyright 1983,
 Carnegie Mellon University). Gaussian is a federally registered
 trademark of Gaussian, Inc.
  
 This software contains proprietary and confidential information,
 including trade secrets, belonging to Gaussian, Inc.
  
 This software is provided under written license and may be
[...]
 Coeff-En:   0.000D+00 0.100D+01
 Coeff:      0.261D-02-0.344D-02 0.144D-01-0.477D-02-0.345D-01-0.821D-01
 Coeff:     -0.498D+00 0.161D+01
 Gap=     0.031 Goal=   None    Shift=    0.000
 RMSDP=6.78D-05 MaxDP=4.01D-03 DE=-6.26D-05 OVMax= 6.84D-03

 Cycle   9  Pass 1  IDiag  1:
 E= -649.156632854139     Delta-E=       -0.000035168097 Rises=F Damp=F
 DIIS: error= 8.91D-05 at cycle   9 NSaved=   9.
 NSaved= 9 IEnMin= 9 EnMin= -649.156632854139     IErMin= 9 ErrMin= 8.91D-05
 ErrMax= 8.91D-05  0.00D+00 EMaxC= 1.00D-01 BMatC= 4.55D-07 BMatP= 4.93D-06
 IDIUse=1 WtCom= 1.00D+00 WtEn= 0.00D+00
 Coeff-Com:  0.993D-03-0.133D-02 0.405D-02-0.887D-03-0.168D-01-0.394D-01
 Coeff-Com: -0.271D+00 0.458D+00 0.866D+00
 Coeff:      0.993D-03-0.133D-02 0.405D-02-0.887D-03-0.168D-01-0.394D-01
 Coeff:     -0.271D+00 0.458D+00 0.866D+00
 Gap=     0.031 Goal=   None    Shift=    0.000
 RMSDP=2.55D-05 MaxDP=1.37D-03 DE=-3.52D-05 OVMax= 2.36D-03

 Cycle  10  Pass 1  IDiag  1:
 E= -649.156636365424     Delta-E=       -0.000003511285 Rises=F Damp=F
 DIIS: error= 2.12D-05 at cycle  10 NSaved=  10.
 NSaved=10 IEnMin=10 EnMin= -649.156636365424     IErMin=10 ErrMin= 2.12D-05
 ErrMax= 2.12D-05  0.00D+00 EMaxC= 1.00D-01 BMatC= 2.56D-08 BMatP= 4.55D-07
 IDIUse=1 WtCom= 1.00D+00 WtEn= 0.00D+00
 Coeff-Com: -0.155D-03 0.198D-03 0.334D-03-0.104D-03 0.147D-02 0.186D-01
 Coeff-Com:  0.221D-01-0.140D+00 0.101D-02 0.110D+01
 Coeff:     -0.155D-03 0.198D-03 0.334D-03-0.104D-03 0.147D-02 0.186D-01
 Coeff:      0.221D-01-0.140D+00 0.101D-02 0.110D+01
 Gap=     0.031 Goal=   None    Shift=    0.000
 RMSDP=8.60D-06 MaxDP=4.05D-04 DE=-3.51D-06 OVMax= 6.40D-04

 Cycle  11  Pass 1  IDiag  1:
 E= -649.156636567513     Delta-E=       -0.000000202089 Rises=F Damp=F
 DIIS: error= 2.13D-06 at cycle  11 NSaved=  11.
 NSaved=11 IEnMin=11 EnMin= -649.156636567513     IErMin=11 ErrMin= 2.13D-06
 ErrMax= 2.13D-06  0.00D+00 EMaxC= 1.00D-01 BMatC= 2.70D-10 BMatP= 2.56D-08
 IDIUse=1 WtCom= 1.00D+00 WtEn= 0.00D+00
 Coeff-Com: -0.885D-05 0.127D-04-0.697D-04 0.278D-04 0.174D-04 0.159D-02
 Coeff-Com:  0.568D-02-0.253D-01-0.163D-01 0.143D+00 0.891D+00
 Coeff:     -0.885D-05 0.127D-04-0.697D-04 0.278D-04 0.174D-04 0.159D-02
 Coeff:      0.568D-02-0.253D-01-0.163D-01 0.143D+00 0.891D+00
 Gap=     0.031 Goal=   None    Shift=    0.000
 RMSDP=1.08D-06 MaxDP=5.77D-05 DE=-2.02D-07 OVMax= 9.59D-05

 Cycle  12  Pass 1  IDiag  1:
 E= -649.156636569513     Delta-E=       -0.000000002000 Rises=F Damp=F
 DIIS: error= 5.55D-07 at cycle  12 NSaved=  12.
 NSaved=12 IEnMin=12 EnMin= -649.156636569513     IErMin=12 ErrMin= 5.55D-07
 ErrMax= 5.55D-07  0.00D+00 EMaxC= 1.00D-01 BMatC= 2.09D-11 BMatP= 2.70D-10
 IDIUse=1 WtCom= 1.00D+00 WtEn= 0.00D+00
 Coeff-Com:  0.107D-04-0.133D-04 0.178D-04-0.912D-05-0.364D-04 0.121D-03
 Coeff-Com:  0.131D-02-0.692D-03-0.108D-01 0.139D-01 0.386D+00 0.610D+00
 Coeff:      0.107D-04-0.133D-04 0.178D-04-0.912D-05-0.364D-04 0.121D-03
 Coeff:      0.131D-02-0.692D-03-0.108D-01 0.139D-01 0.386D+00 0.610D+00
 Gap=     0.031 Goal=   None    Shift=    0.000
 RMSDP=2.77D-07 MaxDP=1.58D-05 DE=-2.00D-09 OVMax= 2.73D-05

 Cycle  13  Pass 1  IDiag  1:
 E= -649.156636569657     Delta-E=       -0.000000000144 Rises=F Damp=F
 DIIS: error= 2.01D-07 at cycle  13 NSaved=  13.
 NSaved=13 IEnMin=13 EnMin= -649.156636569657     IErMin=13 ErrMin= 2.01D-07
 ErrMax= 2.01D-07  0.00D+00 EMaxC= 1.00D-01 BMatC= 2.36D-12 BMatP= 2.09D-11
 IDIUse=1 WtCom= 1.00D+00 WtEn= 0.00D+00
 Coeff-Com:  0.485D-05-0.631D-05 0.452D-05-0.172D-05-0.943D-05-0.153D-03
 Coeff-Com: -0.894D-04 0.148D-02-0.183D-02-0.143D-01 0.642D-01 0.171D+00
 Coeff-Com:  0.780D+00
 Coeff:      0.485D-05-0.631D-05 0.452D-05-0.172D-05-0.943D-05-0.153D-03
 Coeff:     -0.894D-04 0.148D-02-0.183D-02-0.143D-01 0.642D-01 0.171D+00
 Coeff:      0.780D+00
 Gap=     0.031 Goal=   None    Shift=    0.000
 RMSDP=6.93D-08 MaxDP=3.75D-06 DE=-1.44D-10 OVMax= 5.67D-06

 Cycle  14  Pass 1  IDiag  1:
 E= -649.156636569673     Delta-E=       -0.000000000017 Rises=F Damp=F
 DIIS: error= 3.72D-08 at cycle  14 NSaved=  14.
 NSaved=14 IEnMin=14 EnMin= -649.156636569673     IErMin=14 ErrMin= 3.72D-08
 ErrMax= 3.72D-08  0.00D+00 EMaxC= 1.00D-01 BMatC= 7.40D-14 BMatP= 2.36D-12
 IDIUse=1 WtCom= 1.00D+00 WtEn= 0.00D+00
 Coeff-Com: -0.365D-06 0.492D-06 0.474D-06-0.147D-06-0.182D-05-0.422D-04
 Coeff-Com: -0.647D-04 0.333D-03-0.159D-03-0.292D-02-0.562D-02 0.328D-03
 Coeff-Com:  0.541D-01 0.954D+00
 Coeff:     -0.365D-06 0.492D-06 0.474D-06-0.147D-06-0.182D-05-0.422D-04
 Coeff:     -0.647D-04 0.333D-03-0.159D-03-0.292D-02-0.562D-02 0.328D-03
 Coeff:      0.541D-01 0.954D+00
 Gap=     0.031 Goal=   None    Shift=    0.000
 RMSDP=1.39D-08 MaxDP=6.89D-07 DE=-1.66D-11 OVMax= 1.08D-06

 Cycle  15  Pass 1  IDiag  1:
 E= -649.156636569670     Delta-E=        0.000000000003 Rises=F Damp=F
 DIIS: error= 3.29D-09 at cycle  15 NSaved=  15.
 NSaved=15 IEnMin=14 EnMin= -649.156636569673     IErMin=15 ErrMin= 3.29D-09
 ErrMax= 3.29D-09  0.00D+00 EMaxC= 1.00D-01 BMatC= 8.40D-16 BMatP= 7.40D-14
 IDIUse=1 WtCom= 1.00D+00 WtEn= 0.00D+00
 Coeff-Com: -0.263D-06 0.344D-06 0.105D-06-0.524D-08-0.246D-06-0.479D-05
 Coeff-Com: -0.199D-04 0.334D-04 0.764D-04-0.407D-03-0.430D-02-0.523D-02
 Coeff-Com: -0.121D-01 0.292D+00 0.730D+00
 Coeff:     -0.263D-06 0.344D-06 0.105D-06-0.524D-08-0.246D-06-0.479D-05
 Coeff:     -0.199D-04 0.334D-04 0.764D-04-0.407D-03-0.430D-02-0.523D-02
 Coeff:     -0.121D-01 0.292D+00 0.730D+00
 Gap=     0.031 Goal=   None    Shift=    0.000
 RMSDP=1.85D-09 MaxDP=6.28D-08 DE= 2.73D-12 OVMax= 1.04D-07

 SCF Done:  E(RB3LYP) =  -649.156636570     A.U. after   15 cycles
            NFock= 15  Conv=0.19D-08     -V/T= 2.0028
 KE= 6.473683600146D+02 PE=-1.695513869171D+03 EE= 3.306108752627D+02
 Leave Link  502 at Mon Sep 11 10:50:41 2023, MaxMem=  1610612736 cpu:              11.8 elap:               0.8
 (Enter /home/sekinelabo/g16/l601.exe)
 Copying SCF densities to generalized density rwf, IOpCl= 0 IROHF=0.

 **********************************************************************

            Population analysis using the SCF Density.

 **********************************************************************

 Orbital symmetries:
       Occupied  (SG) (SG) (SG) (SG) (SG) (SG) (SG) (SG) (PI) (PI)
                 (SG) (PI) (PI) (SG) (SG) (PI) (PI) (PI) (PI) (SG)
                 (SG) (SG)
       Virtual   (SG) (SG) (PI) (PI) (PI) (PI) (SG) (PI) (PI) (SG)
                 (SG) (SG) (SG) (PI) (PI) (PI) (PI) (SG) (PI) (PI)
                 (SG) (PI) (PI) (PI) (PI) (SG) (SG) (SG) (SG) (PI)
                 (PI) (SG) (PI) (PI) (SG) (PI) (PI) (SG) (SG) (PI)
                 (PI) (SG) (SG) (SG) (SG) (DLTA) (DLTA) (PI) (PI)
                 (SG) (DLTA) (DLTA) (PI) (PI) (DLTA) (DLTA) (PI)
                 (PI) (SG) (SG) (DLTA) (DLTA) (PI) (PI) (PI) (PI)
                 (SG) (PI) (PI) (PI) (PI) (SG) (SG) (SG) (PI) (PI)
                 (SG) (SG) (SG) (SG) (SG) (PI) (PI) (PI) (PI) (SG)
                 (PI) (PI) (SG) (PI) (PI) (SG) (SG) (SG) (SG) (SG)
                 (SG)
 The electronic state is 1-SG.
 Alpha  occ. eigenvalues --  -38.46713 -38.46556 -38.45231 -38.45106  -2.22382
 Alpha  occ. eigenvalues --   -2.22225  -2.21231  -2.20954  -1.16057  -1.16057
 Alpha  occ. eigenvalues --   -1.16024  -1.15902  -1.15902  -1.15865  -1.15790
 Alpha  occ. eigenvalues --   -1.14774  -1.14774  -1.14509  -1.14509  -1.14180
 Alpha  occ. eigenvalues --   -0.14061  -0.11771
 Alpha virt. eigenvalues --   -0.08691  -0.04903  -0.03001  -0.03001  -0.02120
 Alpha virt. eigenvalues --   -0.02120  -0.02099  -0.00766  -0.00766  -0.00327
 Alpha virt. eigenvalues --    0.00069   0.00810   0.00971   0.01043   0.01043
 Alpha virt. eigenvalues --    0.01329   0.01329   0.01761   0.01898   0.01898
 Alpha virt. eigenvalues --    0.02053   0.02409   0.02409   0.03468   0.03468
 Alpha virt. eigenvalues --    0.03552   0.03669   0.04759   0.05765   0.06973
 Alpha virt. eigenvalues --    0.06973   0.07317   0.07870   0.07870   0.07947
 Alpha virt. eigenvalues --    0.08785   0.08785   0.09141   0.09460   0.10403
 Alpha virt. eigenvalues --    0.10403   0.11421   0.12199   0.15110   0.16890
 Alpha virt. eigenvalues --    0.29963   0.29963   0.30117   0.30117   0.32804
 Alpha virt. eigenvalues --    0.33977   0.33977   0.34106   0.34106   0.34108
 Alpha virt. eigenvalues --    0.34108   0.34521   0.34521   0.34910   0.36994
 Alpha virt. eigenvalues --    0.40313   0.40313   0.41663   0.41663   0.42290
 Alpha virt. eigenvalues --    0.42290   0.42847   0.42986   0.42986   0.44145
 Alpha virt. eigenvalues --    0.44145   0.44619   0.47622   0.49079   0.58031
 Alpha virt. eigenvalues --    0.58031   0.90321   2.00772   2.00991   2.04541
 Alpha virt. eigenvalues --    2.11006   4.41807   4.41807   4.42291   4.42291
 Alpha virt. eigenvalues --    4.42534   4.43045   4.43045   4.45022   4.48040
 Alpha virt. eigenvalues --    4.48040   4.52752   4.79689  96.19854  96.20233
 Alpha virt. eigenvalues --   96.25699  96.32593
          Condensed to atoms (all electrons):
               1          2          3          4
     1  Na  10.717990   0.410997  -0.074631  -0.003232
     2  Na   0.410997  11.100103  -0.283808  -0.072691
     3  Na  -0.074631  -0.283808  11.013540   0.148707
     4  Na  -0.003232  -0.072691   0.148707  10.917681
 Mulliken charges:
               1
     1  Na  -0.051124
     2  Na  -0.154602
     3  Na   0.196192
     4  Na   0.009535
 Sum of Mulliken charges =   0.00000
 Mulliken charges with hydrogens summed into heavy atoms:
               1
     1  Na  -0.051124
     2  Na  -0.154602
     3  Na   0.196192
     4  Na   0.009535
 Electronic spatial extent (au):  <R**2>=           4400.1387
 Charge=              0.0000 electrons
 Dipole moment (field-independent basis, Debye):
    X=              0.0000    Y=              0.0000    Z=              0.2878  Tot=              0.2878
 Quadrupole moment (field-independent basis, Debye-Ang):
   XX=            -46.1008   YY=            -46.1008   ZZ=            -19.4407
   XY=              0.0000   XZ=              0.0000   YZ=              0.0000
 Traceless Quadrupole moment (field-independent basis, Debye-Ang):
   XX=             -8.8867   YY=             -8.8867   ZZ=             17.7734
   XY=              0.0000   XZ=              0.0000   YZ=              0.0000
 Octapole moment (field-independent basis, Debye-Ang**2):
  XXX=              0.0000  YYY=              0.0000  ZZZ=             57.5223  XYY=              0.0000
  XXY=              0.0000  XXZ=             -8.1022  XZZ=              0.0000  YZZ=              0.0000
  YYZ=             -8.1022  XYZ=              0.0000
 Hexadecapole moment (field-independent basis, Debye-Ang**3):
 XXXX=           -203.2062 YYYY=           -203.2062 ZZZZ=          -4251.4635 XXXY=              0.0000
 XXXZ=              0.0000 YYYX=              0.0000 YYYZ=              0.0000 ZZZX=              0.0000
 ZZZY=              0.0000 XXYY=            -67.7354 XXZZ=          -1293.6698 YYZZ=          -1293.6698
 XXYZ=              0.0000 YYXZ=              0.0000 ZZXY=              0.0000
 N-N= 6.837799732430D+01 E-N=-1.695513869257D+03  KE= 6.473683600146D+02
 Symmetry A1   KE= 5.524367118124D+02
 Symmetry A2   KE= 4.702580287558D-53
 Symmetry B1   KE= 4.746582410111D+01
 Symmetry B2   KE= 4.746582410111D+01
 No NMR shielding tensors so no spin-rotation constants.
 Leave Link  601 at Mon Sep 11 10:50:41 2023, MaxMem=  1610612736 cpu:               1.5 elap:               0.1
 (Enter /home/sekinelabo/g16/l701.exe)
 ... and contract with generalized density number  0.
 Compute integral first derivatives.
 Leave Link  701 at Mon Sep 11 10:50:42 2023, MaxMem=  1610612736 cpu:               1.3 elap:               0.1
 (Enter /home/sekinelabo/g16/l702.exe)
 L702 exits ... SP integral derivatives will be done elsewhere.
 Leave Link  702 at Mon Sep 11 10:50:42 2023, MaxMem=  1610612736 cpu:               0.5 elap:               0.0
 (Enter /home/sekinelabo/g16/l703.exe)
 Integral derivatives from FoFJK, PRISM(SPDF).
 Compute integral first derivatives, UseDBF=F ICtDFT=           0.
 Calling FoFJK, ICntrl=      2127 FMM=F ISym2X=1 I1Cent= 0 IOpClX= 0 NMat=1 NMatS=1 NMatT=0.
 FoFJK:  IHMeth= 1 ICntrl=    2127 DoSepK=F KAlg= 0 I1Cent=           0 FoldK=F
 IRaf=         0 NMat=       1 IRICut=       1 DoRegI=T DoRafI=F ISym2E= 1 IDoP0=0 IntGTp=1.
 FoFCou: FMM=F IPFlag=           0 FMFlag=      100000 FMFlg1=         800
         NFxFlg=           0 DoJE=F BraDBF=F KetDBF=F FulRan=T
         wScrn=  0.000000 ICntrl=      2127 IOpCl=  0 I1Cent=           0 NGrid=           0
         NMat0=    1 NMatS0=      1 NMatT0=    0 NMatD0=    1 NMtDS0=    0 NMtDT0=    0
 Petite list used in FoFCou.
 Leave Link  703 at Mon Sep 11 10:50:42 2023, MaxMem=  1610612736 cpu:               3.8 elap:               0.2
 (Enter /home/sekinelabo/g16/l716.exe)
 Dipole        = 0.00000000D+00 0.00000000D+00 1.13228329D-01
 ***** Axes restored to original set *****
 -------------------------------------------------------------------
 Center     Atomic                   Forces (Hartrees/Bohr)
 Number     Number              X              Y              Z
 -------------------------------------------------------------------
      1       11          -0.000000000   -0.000000000   -0.026494914
      2       11          -0.000000000   -0.000000000    0.027020313
      3       11          -0.000000000   -0.000000000    0.004906006
      4       11          -0.000000000   -0.000000000   -0.005431404
 -------------------------------------------------------------------
 Cartesian Forces:  Max     0.027020313 RMS     0.011126720
 Z-matrix is all fixed cartesians, so copy forces.
 Force constants in Cartesian coordinates: 
                1             2             3             4             5 
      1  0.100000D+01
      2  0.000000D+00  0.100000D+01
      3  0.000000D+00  0.000000D+00  0.122149D+00
      4  0.000000D+00  0.000000D+00  0.000000D+00  0.100000D+01
      5  0.000000D+00  0.000000D+00  0.000000D+00  0.000000D+00  0.100000D+01
      6  0.000000D+00  0.000000D+00 -0.122149D+00  0.000000D+00  0.000000D+00
      7  0.000000D+00  0.000000D+00  0.000000D+00  0.000000D+00  0.000000D+00
      8  0.000000D+00  0.000000D+00  0.000000D+00  0.000000D+00  0.000000D+00
      9  0.000000D+00  0.000000D+00  0.000000D+00  0.000000D+00  0.000000D+00
     10  0.000000D+00  0.000000D+00  0.000000D+00  0.000000D+00  0.000000D+00
     11  0.000000D+00  0.000000D+00  0.000000D+00  0.000000D+00  0.000000D+00
     12  0.000000D+00  0.000000D+00  0.000000D+00  0.000000D+00  0.000000D+00
                6             7             8             9            10 
      6  0.122149D+00
      7  0.000000D+00  0.100000D+01
      8  0.000000D+00  0.000000D+00  0.100000D+01
      9  0.000000D+00  0.000000D+00  0.000000D+00  0.100000D+01
     10  0.000000D+00  0.000000D+00  0.000000D+00  0.000000D+00  0.100000D+01
     11  0.000000D+00  0.000000D+00  0.000000D+00  0.000000D+00  0.000000D+00
     12  0.000000D+00  0.000000D+00  0.000000D+00  0.000000D+00  0.000000D+00
               11            12 
     11  0.100000D+01
     12  0.000000D+00  0.100000D+01
 Leave Link  716 at Mon Sep 11 10:50:42 2023, MaxMem=  1610612736 cpu:               0.3 elap:               0.0
 (Enter /home/sekinelabo/g16/l103.exe)

 GradGradGradGradGradGradGradGradGradGradGradGradGradGradGradGradGradGrad
 Berny optimization.
 Search for a local minimum.
 Step number   1 out of a maximum of    2
 All quantities printed in internal units (Hartrees-Bohrs-Radians)
 Second derivative matrix not updated -- first step.
 The second derivative matrix:
                          X1        Y1        Z1        X2        Y2
           X1           1.00000
           Y1           0.00000   1.00000
           Z1           0.00000   0.00000   0.12215
           X2           0.00000   0.00000   0.00000   1.00000
           Y2           0.00000   0.00000   0.00000   0.00000   1.00000
           Z2           0.00000   0.00000  -0.12215   0.00000   0.00000
           X3           0.00000   0.00000   0.00000   0.00000   0.00000
           Y3           0.00000   0.00000   0.00000   0.00000   0.00000
           Z3           0.00000   0.00000   0.00000   0.00000   0.00000
           X4           0.00000   0.00000   0.00000   0.00000   0.00000
           Y4           0.00000   0.00000   0.00000   0.00000   0.00000
           Z4           0.00000   0.00000   0.00000   0.00000   0.00000
                          Z2        X3        Y3        Z3        X4
           Z2           0.12215
           X3           0.00000   1.00000
           Y3           0.00000   0.00000   1.00000
           Z3           0.00000   0.00000   0.00000   1.00000
           X4           0.00000   0.00000   0.00000   0.00000   1.00000
           Y4           0.00000   0.00000   0.00000   0.00000   0.00000
           Z4           0.00000   0.00000   0.00000   0.00000   0.00000
                          Y4        Z4
           Y4           1.00000
           Z4           0.00000   1.00000
 ITU=  0
     Eigenvalues ---    0.24430   0.50000   1.00000   1.00000   1.00000
     Eigenvalues ---    1.00000   1.00000
 Angle between quadratic step and forces=   8.24 degrees.
 ClnCor:  largest displacement from symmetrization is 0.00D+00 for atom     0.
 Linear search not attempted -- first point.
 ClnCor:  largest displacement from symmetrization is 2.91D-16 for atom     1.
 B after Tr=     0.000000    0.000000    0.000000
         Rot=    1.000000    0.000000    0.000000    0.000000 Ang=   0.00 deg.
 Variable       Old X    -DE/DX   Delta X   Delta X   Delta X     New X
                                 (Linear)    (Quad)   (Total)
    X1        0.00000  -0.00000   0.00000   0.00000   0.00000   0.00000
    Y1        0.00000  -0.00000   0.00000   0.00000   0.00000   0.00000
    Z1        0.00000  -0.02649   0.00000  -0.10900  -0.10900  -0.10900
    X2        0.00000  -0.00000   0.00000   0.00000   0.00000   0.00000
    Y2        0.00000  -0.00000   0.00000   0.00000   0.00000   0.00000
    Z2        4.48932   0.02702   0.00000   0.11005   0.11005   4.59938
    X3        0.00000  -0.00000   0.00000   0.00000   0.00000   0.00000
    Y3        0.00000  -0.00000   0.00000   0.00000   0.00000   0.00000
    Z3       15.14137   0.00491   0.00000   0.00464   0.00464  15.14601
    X4        0.00000  -0.00000   0.00000   0.00000   0.00000   0.00000
    Y4        0.00000  -0.00000   0.00000   0.00000   0.00000   0.00000
    Z4       25.57009  -0.00543   0.00000  -0.00569  -0.00569  25.56440
         Item               Value     Threshold  Converged?
 Maximum Force            0.027020     0.000450     NO 
 RMS     Force            0.011127     0.000300     NO 
 Maximum Displacement     0.110054     0.001800     NO 
 RMS     Displacement     0.044766     0.001200     NO 
 Predicted change in Energy=-2.957715D-03
 GradGradGradGradGradGradGradGradGradGradGradGradGradGradGradGradGradGrad

 Leave Link  103 at Mon Sep 11 10:50:42 2023, MaxMem=  1610612736 cpu:               0.2 elap:               0.0
 (Enter /home/sekinelabo/g16/l9999.exe)
 1\1\GINC-SEKINELABO-XA7R-R37\Force\RB3LYP\6-311+G(d)\Na4\SEKINELABO\11
 -Sep-2023\0\\#p B3LYP/6-311+g(d) force\\\0,1\Na,0.,0.,0.\Na,0.,0.,2.37
 56483714\Na,0.,0.,8.0124666145\Na,0.,0.,13.5311086416\\Version=ES64L-G
 16RevB.01\State=1-SG\HF=-649.1566366\RMSD=1.854e-09\RMSF=1.113e-02\Dip
 ole=0.,0.,0.1132283\Quadrupole=-6.6070599,-6.6070599,13.2141198,0.,0.,
 0.\PG=C*V [C*(Na1Na1Na1Na1)]\\@


 WORK FAITHFULLY FOR EIGHT HOURS A DAY AND DON'T WORRY.
 IN TIME YOU MAY BECOME BOSS AND WORK TWELVE HOURS A DAY
 AND HAVE ALL THE WORRY.
 Job cpu time:       0 days  0 hours  0 minutes 25.5 seconds.
 Elapsed time:       0 days  0 hours  0 minutes  1.7 seconds.
 File lengths (MBytes):  RWF=     11 Int=      0 D2E=      0 Chk=      2 Scr=      1
 Normal termination of Gaussian 16 at Mon Sep 11 10:50:42 2023.
