 Entering Gaussian System, Link 0=g16
 Initial command:
 /home/sekinelabo/g16/l1.exe "/home/sekinelabo/g16temp/Gau-19052.inp" -scrdir="/home/sekinelabo/g16temp/"
 Entering Link 1 = /home/sekinelabo/g16/l1.exe PID=     19054.
  
 Copyright (c) 1988-2017, Gaussian, Inc.  All Rights Reserved.
  
 This is part of the Gaussian(R) 16 program.  It is based on
 the Gaussian(R) 09 system (copyright 2009, Gaussian, Inc.),
 the Gaussian(R) 03 system (copyright 2003, Gaussian, Inc.),
 the Gaussian(R) 98 system (copyright 1998, Gaussian, Inc.),
 the Gaussian(R) 94 system (copyright 1995, Gaussian, Inc.),
 the Gaussian 92(TM) system (copyright 1992, Gaussian, Inc.),
 the Gaussian 90(TM) system (copyright 1990, Gaussian, Inc.),
 the Gaussian 88(TM) system (copyright 1988, Gaussian, Inc.),
 the Gaussian 86(TM) system (copyright 1986, Carnegie Mellon
 University), and the Gaussian 82(TM) system (copyright 1983,
 Carnegie Mellon University). Gaussian is a federally registered
 trademark of Gaussian, Inc.
  
 This software contains proprietary and confidential information,
 including trade secrets, belonging to Gaussian, Inc.
  
 This software is provided under written license and may be
 used, copied, transmitted, or stored only in accord with that
 written license.
  
 The following legend is applicable only to US Government
 contracts under FAR:
  
                    RESTRICTED RIGHTS LEGEND
  
 Use, reproduction and disclosure by the US Government is
 subject to restrictions as set forth in subparagraphs (a)
 and (c) of the Commercial Computer Software - Restricted
 Rights clause in FAR 52.227-19.
  
 Gaussian, Inc.
 340 Quinnipiac St., Bldg. 40, Wallingford CT 06492
  
  
 ---------------------------------------------------------------
 Warning -- This program may not be used in any manner that
 competes with the business of Gaussian, Inc. or will provide
 assistance to any competitor of Gaussian, Inc.  The licensee
 of this program is prohibited from giving any competitor of
 Gaussian, Inc. access to this program.  By using this program,
 the user acknowledges that Gaussian, Inc. is engaged in the
 business of creating and licensing software in the field of
 computational chemistry and represents and warrants to the
 licensee that it is not a competitor of Gaussian, Inc. and that
 it will not use this program in any manner prohibited above.
 ---------------------------------------------------------------
  

 Cite this work as:
 Gaussian 16, Revision B.01,
 M. J. Frisch, G. W. Trucks, H. B. Schlegel, G. E. Scuseria, 
 M. A. Robb, J. R. Cheeseman, G. Scalmani, V. Barone, 
 G. A. Petersson, H. Nakatsuji, X. Li, M. Caricato, A. V. Marenich, 
 J. Bloino, B. G. Janesko, R. Gomperts, B. Mennucci, H. P. Hratchian, 
 J. V. Ortiz, A. F. Izmaylov, J. L. Sonnenberg, D. Williams-Young, 
 F. Ding, F. Lipparini, F. Egidi, J. Goings, B. Peng, A. Petrone, 
 T. Henderson, D. Ranasinghe, V. G. Zakrzewski, J. Gao, N. Rega, 
 G. Zheng, W. Liang, M. Hada, M. Ehara, K. Toyota, R. Fukuda, 
 J. Hasegawa, M. Ishida, T. Nakajima, Y. Honda, O. Kitao, H. Nakai, 
 T. Vreven, K. Throssell, J. A. Montgomery, Jr., J. E. Peralta, 
 F. Ogliaro, M. J. Bearpark, J. J. Heyd, E. N. Brothers, K. N. Kudin, 
 V. N. Staroverov, T. A. Keith, R. Kobayashi, J. Normand, 
 K. Raghavachari, A. P. Rendell, J. C. Burant, S. S. Iyengar, 
 J. Tomasi, M. Cossi, J. M. Millam, M. Klene, C. Adamo, R. Cammi, 
 J. W. Ochterski, R. L. Martin, K. Morokuma, O. Farkas, 
 J. B. Foresman, and D. J. Fox, Gaussian, Inc., Wallingford CT, 2016.
 
 ******************************************
 Gaussian 16:  ES64L-G16RevB.01 20-Dec-2017
                 8-Aug-2023 
 ******************************************
 %NProcShared=16
 Will use up to   16 processors via shared memory.
 %mem=12GB
 %Chk=checkpoint.chk
 -------------------------
 #p B3LYP/6-311+g(d) force
 -------------------------
 1/10=7,30=1,38=1/1,3;
 2/12=2,17=6,18=5,40=1/2;
 3/5=4,6=6,7=11,11=2,25=1,30=1,71=1,74=-5/1,2,3;
 4//1;
 5/5=2,38=5/2;
 6/7=2,8=2,9=2,10=2,28=1/1;
 7/29=1/1,2,3,16;
 1/10=7,30=1/3;
 99//99;
 Leave Link    1 at Tue Aug  8 11:07:05 2023, MaxMem=  1610612736 cpu:               0.4 elap:               0.0
 (Enter /home/sekinelabo/g16/l101.exe)
 ----
 Test
 ----
 Symbolic Z-matrix:
 Charge =  0 Multiplicity = 1
 Na                    0.        0.        0. 
 Na                   -4.69679   0.       -1.46907 
 Na                    0.        0.        5.7772 
 Na                   -1.63187  -3.72392   6.62063 
 
 ITRead=  0  0  0  0
 MicOpt= -1 -1 -1 -1
 NAtoms=      4 NQM=        4 NQMF=       0 NMMI=      0 NMMIF=      0
                NMic=       0 NMicF=      0.
                    Isotopes and Nuclear Properties:
 (Nuclear quadrupole moments (NQMom) in fm**2, nuclear magnetic moments (NMagM)
  in nuclear magnetons)

  Atom         1           2           3           4
 IAtWgt=          23          23          23          23
 AtmWgt=  22.9897697  22.9897697  22.9897697  22.9897697
 NucSpn=           3           3           3           3
 AtZEff=  -0.0000000  -0.0000000  -0.0000000  -0.0000000
 NQMom=   10.4000000  10.4000000  10.4000000  10.4000000
 NMagM=    2.2175200   2.2175200   2.2175200   2.2175200
 AtZNuc=  11.0000000  11.0000000  11.0000000  11.0000000
 Leave Link  101 at Tue Aug  8 11:07:05 2023, MaxMem=  1610612736 cpu:               1.5 elap:               0.1
 (Enter /home/sekinelabo/g16/l103.exe)

 GradGradGradGradGradGradGradGradGradGradGradGradGradGradGradGradGradGrad
 Berny optimization.
 Initialization pass.
 Trust Radius=3.00D-01 FncErr=1.00D-07 GrdErr=1.00D-07 EigMax=2.50D+02 EigMin=1.00D-04
 Number of steps in this run=      2 maximum allowed number of steps=      2.
 GradGradGradGradGradGradGradGradGradGradGradGradGradGradGradGradGradGrad

 Leave Link  103 at Tue Aug  8 11:07:05 2023, MaxMem=  1610612736 cpu:               0.2 elap:               0.0
 (Enter /home/sekinelabo/g16/l202.exe)
                          Input orientation:                          
 ---------------------------------------------------------------------
 Center     Atomic      Atomic             Coordinates (Angstroms)
 Number     Number       Type             X           Y           Z
 ---------------------------------------------------------------------
      1         11           0        0.000000    0.000000    0.000000
      2         11           0       -4.696793    0.000000   -1.469075
      3         11           0        0.000000    0.000000    5.777204
      4         11           0       -1.631872   -3.723924    6.620629
 ---------------------------------------------------------------------
                    Distance matrix (angstroms):
                    1          2          3          4
     1  Na   0.000000
     2  Na   4.921183   0.000000
     3  Na   5.777204   8.635300   0.000000
     4  Na   7.769385   9.418315   4.152347   0.000000
 Stoichiometry    Na4
 Framework group  C1[X(Na4)]
 Deg. of freedom     6
 Full point group                 C1      NOp   1
 Largest Abelian subgroup         C1      NOp   1
 Largest concise Abelian subgroup C1      NOp   1
                         Standard orientation:                         
 ---------------------------------------------------------------------
 Center     Atomic      Atomic             Coordinates (Angstroms)
 Number     Number       Type             X           Y           Z
 ---------------------------------------------------------------------
      1         11           0       -2.320025    2.088889   -1.043486
      2         11           0       -4.996045   -1.711317    0.573732
      3         11           0        2.983679    1.533134    1.178662
      4         11           0        4.332391   -1.910706   -0.708909
 ---------------------------------------------------------------------
 Rotational constants (GHZ):           1.3240096           0.3584649           0.3082780
 Leave Link  202 at Tue Aug  8 11:07:05 2023, MaxMem=  1610612736 cpu:               0.0 elap:               0.0
 (Enter /home/sekinelabo/g16/l301.exe)
 Standard basis: 6-311+G(d) (5D, 7F)
 Ernie: Thresh=  0.10000D-02 Tol=  0.10000D-05 Strict=F.
 There are   124 symmetry adapted cartesian basis functions of A   symmetry.
 There are   120 symmetry adapted basis functions of A   symmetry.
   120 basis functions,   200 primitive gaussians,   124 cartesian basis functions
    22 alpha electrons       22 beta electrons
       nuclear repulsion energy        61.9696307737 Hartrees.
 IExCor=  402 DFT=T Ex+Corr=B3LYP ExCW=0 ScaHFX=  0.200000
 ScaDFX=  0.800000  0.720000  1.000000  0.810000 ScalE2=  1.000000  1.000000
 IRadAn=      5 IRanWt=     -1 IRanGd=            0 ICorTp=0 IEmpDi=  4
 NAtoms=    4 NActive=    4 NUniq=    4 SFac= 1.00D+00 NAtFMM=   60 NAOKFM=F Big=F
 Integral buffers will be    131072 words long.
 Raffenetti 2 integral format.
 Two-electron integral symmetry is turned on.
 Leave Link  301 at Tue Aug  8 11:07:05 2023, MaxMem=  1610612736 cpu:               0.4 elap:               0.0
 (Enter /home/sekinelabo/g16/l302.exe)
 NPDir=0 NMtPBC=     1 NCelOv=     1 NCel=       1 NClECP=     1 NCelD=      1
         NCelK=      1 NCelE2=     1 NClLst=     1 CellRange=     0.0.
 One-electron integrals computed using PRISM.
 One-electron integral symmetry used in STVInt
 NBasis=   120 RedAO= T EigKep=  7.19D-04  NBF=   120
 NBsUse=   120 1.00D-06 EigRej= -1.00D+00 NBFU=   120
 Precomputing XC quadrature grid using
 IXCGrd= 4 IRadAn=           5 IRanWt=          -1 IRanGd=           0 AccXCQ= 0.00D+00.
 Generated NRdTot=       0 NPtTot=           0 NUsed=           0 NTot=          32
 NSgBfM=   112   111   111   112   112 MxSgAt=     4 MxSgA2=     4.
 Leave Link  302 at Tue Aug  8 11:07:05 2023, MaxMem=  1610612736 cpu:               1.4 elap:               0.1
 (Enter /home/sekinelabo/g16/l303.exe)
 DipDrv:  MaxL=1.
 Leave Link  303 at Tue Aug  8 11:07:05 2023, MaxMem=  1610612736 cpu:               0.3 elap:               0.0
 (Enter /home/sekinelabo/g16/l401.exe)
 ExpMin= 7.60D-03 ExpMax= 3.62D+04 ExpMxC= 1.21D+03 IAcc=3 IRadAn=         5 AccDes= 0.00D+00
 Harris functional with IExCor=  402 and IRadAn=       5 diagonalized for initial guess.
 HarFok:  IExCor=  402 AccDes= 0.00D+00 IRadAn=         5 IDoV= 1 UseB2=F ITyADJ=14
 ICtDFT=  3500011 ScaDFX=  1.000000  1.000000  1.000000  1.000000
 FoFCou: FMM=F IPFlag=           0 FMFlag=      100000 FMFlg1=           0
         NFxFlg=           0 DoJE=T BraDBF=F KetDBF=T FulRan=T
         wScrn=  0.000000 ICntrl=       500 IOpCl=  0 I1Cent=   200000004 NGrid=           0
         NMat0=    1 NMatS0=      1 NMatT0=    0 NMatD0=    1 NMtDS0=    0 NMtDT0=    0
 Petite list used in FoFCou.
 Harris En= -649.040376793973    
 JPrj=0 DoOrth=F DoCkMO=F.
 Leave Link  401 at Tue Aug  8 11:07:05 2023, MaxMem=  1610612736 cpu:               1.9 elap:               0.1
 (Enter /home/sekinelabo/g16/l502.exe)
 Keep R1 ints in memory in canonical form, NReq=41581754.
 FoFCou: FMM=F IPFlag=           0 FMFlag=           0 FMFlg1=           0
         NFxFlg=           0 DoJE=F BraDBF=F KetDBF=F FulRan=T
         wScrn=  0.000000 ICntrl=       600 IOpCl=  0 I1Cent=           0 NGrid=           0
         NMat0=    1 NMatS0=   7260 NMatT0=    0 NMatD0=    1 NMtDS0=    0 NMtDT0=    0
 Symmetry not used in FoFCou.
 Two-electron integral symmetry not used.
 Closed shell SCF:
 Using DIIS extrapolation, IDIIS=  1040.
 NGot=  1610612736 LenX=  1584221388 LenY=  1584205571
 Requested convergence on RMS density matrix=1.00D-08 within 128 cycles.
 Requested convergence on MAX density matrix=1.00D-06.
 Requested convergence on             energy=1.00D-06.
 No special actions if energy rises.

 Cycle   1  Pass 1  IDiag  1:
 E= -649.152814233200    
 DIIS: error= 1.41D-02 at cycle   1 NSaved=   1.
 NSaved= 1 IEnMin= 1 EnMin= -649.152814233200     IErMin= 1 ErrMin= 1.41D-02
 ErrMax= 1.41D-02  0.00D+00 EMaxC= 1.00D-01 BMatC= 2.70D-02 BMatP= 2.70D-02
 IDIUse=3 WtCom= 8.59D-01 WtEn= 1.41D-01
 Coeff-Com:  0.100D+01
 Coeff-En:   0.100D+01
 Coeff:      0.100D+01
 Gap=     0.036 Goal=   None    Shift=    0.000
 GapD=    0.036 DampG=0.250 DampE=0.500 DampFc=0.2500 IDamp=-1.
 Damping current iteration by 2.50D-01
 RMSDP=1.52D-03 MaxDP=3.30D-02              OVMax= 5.46D-02

 Cycle   2  Pass 1  IDiag  1:
 E= -649.156819926872     Delta-E=       -0.004005693672 Rises=F Damp=T
 DIIS: error= 9.85D-03 at cycle   2 NSaved=   2.
 NSaved= 2 IEnMin= 2 EnMin= -649.156819926872     IErMin= 2 ErrMin= 9.85D-03
 ErrMax= 9.85D-03  0.00D+00 EMaxC= 1.00D-01 BMatC= 1.03D-02 BMatP= 2.70D-02
 IDIUse=3 WtCom= 9.01D-01 WtEn= 9.85D-02
 Coeff-Com: -0.128D+01 0.228D+01
 Coeff-En:   0.000D+00 0.100D+01
 Coeff:     -0.116D+01 0.216D+01
 Gap=     0.036 Goal=   None    Shift=    0.000
 RMSDP=1.20D-03 MaxDP=3.47D-02 DE=-4.01D-03 OVMax= 2.82D-02

 Cycle   3  Pass 1  IDiag  1:
 E= -649.165071040020     Delta-E=       -0.008251113149 Rises=F Damp=F
 DIIS: error= 2.75D-04 at cycle   3 NSaved=   3.
 NSaved= 3 IEnMin= 3 EnMin= -649.165071040020     IErMin= 3 ErrMin= 2.75D-04
 ErrMax= 2.75D-04  0.00D+00 EMaxC= 1.00D-01 BMatC= 2.35D-05 BMatP= 1.03D-02
 IDIUse=3 WtCom= 9.97D-01 WtEn= 2.75D-03
 Coeff-Com:  0.688D-01-0.873D-01 0.102D+01
 Coeff-En:   0.000D+00 0.000D+00 0.100D+01
 Coeff:      0.686D-01-0.871D-01 0.102D+01
 Gap=     0.036 Goal=   None    Shift=    0.000
 RMSDP=5.94D-04 MaxDP=3.81D-02 DE=-8.25D-03 OVMax= 5.85D-02

 Cycle   4  Pass 1  IDiag  1:
 E= -649.164247396715     Delta-E=        0.000823643305 Rises=F Damp=F
 DIIS: error= 9.94D-04 at cycle   4 NSaved=   4.
 NSaved= 4 IEnMin= 3 EnMin= -649.165071040020     IErMin= 3 ErrMin= 2.75D-04
 ErrMax= 9.94D-04  0.00D+00 EMaxC= 1.00D-01 BMatC= 1.18D-04 BMatP= 2.35D-05
 IDIUse=3 WtCom= 2.41D-01 WtEn= 7.59D-01
 Coeff-Com:  0.571D-01-0.752D-01 0.779D+00 0.239D+00
 Coeff-En:   0.000D+00 0.000D+00 0.855D+00 0.145D+00
 Coeff:      0.137D-01-0.181D-01 0.837D+00 0.168D+00
 Gap=     0.036 Goal=   None    Shift=    0.000
 RMSDP=3.47D-04 MaxDP=2.31D-02 DE= 8.24D-04 OVMax= 3.60D-02

 Cycle   5  Pass 1  IDiag  1:
 E= -649.165112168762     Delta-E=       -0.000864772047 Rises=F Damp=F
 DIIS: error= 2.21D-04 at cycle   5 NSaved=   5.
 NSaved= 5 IEnMin= 5 EnMin= -649.165112168762     IErMin= 5 ErrMin= 2.21D-04
 ErrMax= 2.21D-04  0.00D+00 EMaxC= 1.00D-01 BMatC= 9.78D-06 BMatP= 2.35D-05
 IDIUse=3 WtCom= 9.98D-01 WtEn= 2.21D-03
 Coeff-Com: -0.235D-01 0.310D-01 0.214D+00-0.145D+00 0.923D+00
 Coeff-En:   0.000D+00 0.000D+00 0.389D+00 0.000D+00 0.611D+00
 Coeff:     -0.234D-01 0.309D-01 0.214D+00-0.144D+00 0.923D+00
 Gap=     0.036 Goal=   None    Shift=    0.000
 RMSDP=1.19D-04 MaxDP=6.68D-03 DE=-8.65D-04 OVMax= 1.11D-02

 Cycle   6  Pass 1  IDiag  1:
 E= -649.165156153747     Delta-E=       -0.000043984985 Rises=F Damp=F
 DIIS: error= 7.84D-05 at cycle   6 NSaved=   6.
 NSaved= 6 IEnMin= 6 EnMin= -649.165156153747     IErMin= 6 ErrMin= 7.84D-05
 ErrMax= 7.84D-05  0.00D+00 EMaxC= 1.00D-01 BMatC= 5.62D-07 BMatP= 9.78D-06
 IDIUse=1 WtCom= 1.00D+00 WtEn= 0.00D+00
 Coeff-Com: -0.221D-01 0.291D-01 0.713D-01-0.122D+00 0.631D+00 0.412D+00
 Coeff:     -0.221D-01 0.291D-01 0.713D-01-0.122D+00 0.631D+00 0.412D+00
 Gap=     0.036 Goal=   None    Shift=    0.000
 RMSDP=3.51D-05 MaxDP=2.30D-03 DE=-4.40D-05 OVMax= 3.03D-03

 Cycle   7  Pass 1  IDiag  1:
 E= -649.165159636856     Delta-E=       -0.000003483109 Rises=F Damp=F
 DIIS: error= 1.03D-05 at cycle   7 NSaved=   7.
 NSaved= 7 IEnMin= 7 EnMin= -649.165159636856     IErMin= 7 ErrMin= 1.03D-05
 ErrMax= 1.03D-05  0.00D+00 EMaxC= 1.00D-01 BMatC= 1.14D-08 BMatP= 5.62D-07
 IDIUse=1 WtCom= 1.00D+00 WtEn= 0.00D+00
 Coeff-Com: -0.330D-02 0.434D-02-0.578D-02-0.147D-01 0.565D-01 0.142D+00
 Coeff-Com:  0.821D+00
 Coeff:     -0.330D-02 0.434D-02-0.578D-02-0.147D-01 0.565D-01 0.142D+00
 Coeff:      0.821D+00
 Gap=     0.036 Goal=   None    Shift=    0.000
 RMSDP=4.51D-06 MaxDP=2.55D-04 DE=-3.48D-06 OVMax= 3.95D-04

 Cycle   8  Pass 1  IDiag  1:
 E= -649.165159703899     Delta-E=       -0.000000067043 Rises=F Damp=F
 DIIS: error= 7.40D-07 at cycle   8 NSaved=   8.
 NSaved= 8 IEnMin= 8 EnMin= -649.165159703899     IErMin= 8 ErrMin= 7.40D-07
 ErrMax= 7.40D-07  0.00D+00 EMaxC= 1.00D-01 BMatC= 1.13D-10 BMatP= 1.14D-08
 IDIUse=1 WtCom= 1.00D+00 WtEn= 0.00D+00
 Coeff-Com:  0.837D-03-0.111D-02-0.850D-03 0.319D-02-0.174D-01-0.859D-02
 Coeff-Com:  0.141D-01 0.101D+01
 Coeff:      0.837D-03-0.111D-02-0.850D-03 0.319D-02-0.174D-01-0.859D-02
 Coeff:      0.141D-01 0.101D+01
 Gap=     0.036 Goal=   None    Shift=    0.000
 RMSDP=6.13D-07 MaxDP=3.14D-05 DE=-6.70D-08 OVMax= 5.06D-05

 Cycle   9  Pass 1  IDiag  1:
 E= -649.165159704349     Delta-E=       -0.000000000450 Rises=F Damp=F
 DIIS: error= 3.01D-07 at cycle   9 NSaved=   9.
 NSaved= 9 IEnMin= 9 EnMin= -649.165159704349     IErMin= 9 ErrMin= 3.01D-07
 ErrMax= 3.01D-07  0.00D+00 EMaxC= 1.00D-01 BMatC= 1.24D-11 BMatP= 1.13D-10
 IDIUse=1 WtCom= 1.00D+00 WtEn= 0.00D+00
 Coeff-Com:  0.375D-03-0.499D-03-0.141D-03 0.171D-02-0.770D-02-0.628D-02
 Coeff-Com: -0.977D-02 0.326D+00 0.696D+00
 Coeff:      0.375D-03-0.499D-03-0.141D-03 0.171D-02-0.770D-02-0.628D-02
 Coeff:     -0.977D-02 0.326D+00 0.696D+00
 Gap=     0.036 Goal=   None    Shift=    0.000
 RMSDP=1.78D-07 MaxDP=1.10D-05 DE=-4.50D-10 OVMax= 1.84D-05

 Cycle  10  Pass 1  IDiag  1:
 E= -649.165159704443     Delta-E=       -0.000000000094 Rises=F Damp=F
 DIIS: error= 6.33D-08 at cycle  10 NSaved=  10.
 NSaved=10 IEnMin=10 EnMin= -649.165159704443     IErMin=10 ErrMin= 6.33D-08
 ErrMax= 6.33D-08  0.00D+00 EMaxC= 1.00D-01 BMatC= 5.25D-13 BMatP= 1.24D-11
 IDIUse=1 WtCom= 1.00D+00 WtEn= 0.00D+00
 Coeff-Com:  0.806D-05-0.105D-04 0.404D-04 0.712D-04-0.249D-03-0.416D-03
 Coeff-Com: -0.198D-02-0.161D-01 0.143D+00 0.876D+00
 Coeff:      0.806D-05-0.105D-04 0.404D-04 0.712D-04-0.249D-03-0.416D-03
 Coeff:     -0.198D-02-0.161D-01 0.143D+00 0.876D+00
 Gap=     0.036 Goal=   None    Shift=    0.000
 RMSDP=4.56D-08 MaxDP=2.27D-06 DE=-9.40D-11 OVMax= 3.84D-06

 Cycle  11  Pass 1  IDiag  1:
 E= -649.165159704449     Delta-E=       -0.000000000006 Rises=F Damp=F
 DIIS: error= 9.52D-09 at cycle  11 NSaved=  11.
 NSaved=11 IEnMin=11 EnMin= -649.165159704449     IErMin=11 ErrMin= 9.52D-09
 ErrMax= 9.52D-09  0.00D+00 EMaxC= 1.00D-01 BMatC= 7.82D-15 BMatP= 5.25D-13
 IDIUse=1 WtCom= 1.00D+00 WtEn= 0.00D+00
 Coeff-Com: -0.102D-04 0.136D-04 0.840D-05-0.401D-04 0.193D-03 0.143D-03
 Coeff-Com:  0.283D-03-0.103D-01-0.133D-01 0.786D-01 0.944D+00
 Coeff:     -0.102D-04 0.136D-04 0.840D-05-0.401D-04 0.193D-03 0.143D-03
 Coeff:      0.283D-03-0.103D-01-0.133D-01 0.786D-01 0.944D+00
 Gap=     0.036 Goal=   None    Shift=    0.000
 RMSDP=8.37D-09 MaxDP=2.30D-07 DE=-6.37D-12 OVMax= 6.79D-07

 SCF Done:  E(RB3LYP) =  -649.165159704     A.U. after   11 cycles
            NFock= 11  Conv=0.84D-08     -V/T= 2.0031
 KE= 6.471910099424D+02 PE=-1.682695012617D+03 EE= 3.243692121961D+02
 Leave Link  502 at Tue Aug  8 11:07:06 2023, MaxMem=  1610612736 cpu:              18.2 elap:               1.3
 (Enter /home/sekinelabo/g16/l601.exe)
 Copying SCF densities to generalized density rwf, IOpCl= 0 IROHF=0.

 **********************************************************************

            Population analysis using the SCF Density.

 **********************************************************************

 Orbital symmetries:
       Occupied  (A) (A) (A) (A) (A) (A) (A) (A) (A) (A) (A) (A)
                 (A) (A) (A) (A) (A) (A) (A) (A) (A) (A)
       Virtual   (A) (A) (A) (A) (A) (A) (A) (A) (A) (A) (A) (A)
                 (A) (A) (A) (A) (A) (A) (A) (A) (A) (A) (A) (A)
                 (A) (A) (A) (A) (A) (A) (A) (A) (A) (A) (A) (A)
                 (A) (A) (A) (A) (A) (A) (A) (A) (A) (A) (A) (A)
                 (A) (A) (A) (A) (A) (A) (A) (A) (A) (A) (A) (A)
                 (A) (A) (A) (A) (A) (A) (A) (A) (A) (A) (A) (A)
                 (A) (A) (A) (A) (A) (A) (A) (A) (A) (A) (A) (A)
                 (A) (A) (A) (A) (A) (A) (A) (A) (A) (A) (A) (A)
                 (A) (A)
 The electronic state is 1-A.
 Alpha  occ. eigenvalues --  -38.46047 -38.45984 -38.45533 -38.45487  -2.21717
 Alpha  occ. eigenvalues --   -2.21656  -2.21221  -2.21175  -1.15398  -1.15392
 Alpha  occ. eigenvalues --   -1.15350  -1.15336  -1.15336  -1.15289  -1.14901
 Alpha  occ. eigenvalues --   -1.14901  -1.14857  -1.14852  -1.14840  -1.14794
 Alpha  occ. eigenvalues --   -0.12425  -0.11561
 Alpha virt. eigenvalues --   -0.07949  -0.06897  -0.02527  -0.02409  -0.02209
 Alpha virt. eigenvalues --   -0.01730  -0.01561  -0.01204  -0.00447  -0.00247
 Alpha virt. eigenvalues --   -0.00028   0.00325   0.00408   0.00550   0.00820
 Alpha virt. eigenvalues --    0.01344   0.01528   0.01564   0.01624   0.01726
 Alpha virt. eigenvalues --    0.01812   0.02105   0.02175   0.02211   0.02430
 Alpha virt. eigenvalues --    0.02513   0.02796   0.02992   0.03065   0.03611
 Alpha virt. eigenvalues --    0.06961   0.07226   0.07646   0.07862   0.08015
 Alpha virt. eigenvalues --    0.08285   0.08342   0.08599   0.08777   0.09001
 Alpha virt. eigenvalues --    0.09211   0.09506   0.10232   0.11517   0.11923
 Alpha virt. eigenvalues --    0.12656   0.31882   0.31989   0.32090   0.32623
 Alpha virt. eigenvalues --    0.33836   0.33994   0.34391   0.34633   0.34642
 Alpha virt. eigenvalues --    0.34711   0.34862   0.35110   0.35394   0.35637
 Alpha virt. eigenvalues --    0.35681   0.35973   0.37395   0.38342   0.38380
 Alpha virt. eigenvalues --    0.40719   0.42352   0.42588   0.42998   0.43346
 Alpha virt. eigenvalues --    0.43457   0.43733   0.43798   0.45527   0.46332
 Alpha virt. eigenvalues --    0.46595   0.47789   0.49090   1.99593   2.01167
 Alpha virt. eigenvalues --    2.02451   2.05821   4.42335   4.42390   4.42906
 Alpha virt. eigenvalues --    4.42980   4.43159   4.43404   4.43528   4.43648
 Alpha virt. eigenvalues --    4.43932   4.44579   4.45587   4.47009  96.18388
 Alpha virt. eigenvalues --   96.20288  96.21721  96.25616
          Condensed to atoms (all electrons):
               1          2          3          4
     1  Na  10.867302   0.185482   0.012548  -0.030401
     2  Na   0.185482  10.821738  -0.015719  -0.018556
     3  Na   0.012548  -0.015719  10.797182   0.249076
     4  Na  -0.030401  -0.018556   0.249076  10.748920
 Mulliken charges:
               1
     1  Na  -0.034931
     2  Na   0.027055
     3  Na  -0.043087
     4  Na   0.050962
 Sum of Mulliken charges =  -0.00000
 Mulliken charges with hydrogens summed into heavy atoms:
               1
     1  Na  -0.034931
     2  Na   0.027055
     3  Na  -0.043087
     4  Na   0.050962
 Electronic spatial extent (au):  <R**2>=           3016.5531
 Charge=             -0.0000 electrons
 Dipole moment (field-independent basis, Debye):
    X=              0.2814    Y=             -0.3246    Z=             -0.0303  Tot=              0.4306
 Quadrupole moment (field-independent basis, Debye-Ang):
   XX=            -42.4218   YY=            -30.1897   ZZ=            -42.2884
   XY=              1.6040   XZ=             -3.6401   YZ=              1.6391
 Traceless Quadrupole moment (field-independent basis, Debye-Ang):
   XX=             -4.1219   YY=              8.1103   ZZ=             -3.9884
   XY=              1.6040   XZ=             -3.6401   YZ=              1.6391
 Octapole moment (field-independent basis, Debye-Ang**2):
  XXX=            -13.6423  YYY=             -4.5720  ZZZ=              1.1979  XYY=             11.4569
  XXY=            -67.1815  XXZ=              2.9196  XZZ=              8.2407  YZZ=              3.8126
  YYZ=             -3.2034  XYZ=             30.4602
 Hexadecapole moment (field-independent basis, Debye-Ang**3):
 XXXX=          -3885.0213 YYYY=           -901.7337 ZZZZ=           -395.3988 XXXY=             82.5807
 XXXZ=           -182.4464 YYYX=            -16.3667 YYYZ=             10.2616 ZZZX=            -11.5768
 ZZZY=             12.3032 XXYY=           -627.0663 XXZZ=           -730.1197 YYZZ=           -210.1039
 XXYZ=             31.0644 YYXZ=            -11.9394 ZZXY=              3.6575
 N-N= 6.196963077368D+01 E-N=-1.682695012506D+03  KE= 6.471910099424D+02
 No NMR shielding tensors so no spin-rotation constants.
 Leave Link  601 at Tue Aug  8 11:07:06 2023, MaxMem=  1610612736 cpu:               0.9 elap:               0.1
 (Enter /home/sekinelabo/g16/l701.exe)
 ... and contract with generalized density number  0.
 Compute integral first derivatives.
 Leave Link  701 at Tue Aug  8 11:07:07 2023, MaxMem=  1610612736 cpu:               1.4 elap:               0.1
 (Enter /home/sekinelabo/g16/l702.exe)
 L702 exits ... SP integral derivatives will be done elsewhere.
 Leave Link  702 at Tue Aug  8 11:07:07 2023, MaxMem=  1610612736 cpu:               0.3 elap:               0.0
 (Enter /home/sekinelabo/g16/l703.exe)
 Integral derivatives from FoFJK, PRISM(SPDF).
 Compute integral first derivatives, UseDBF=F ICtDFT=           0.
 Calling FoFJK, ICntrl=      2127 FMM=F ISym2X=0 I1Cent= 0 IOpClX= 0 NMat=1 NMatS=1 NMatT=0.
 FoFJK:  IHMeth= 1 ICntrl=    2127 DoSepK=F KAlg= 0 I1Cent=           0 FoldK=F
 IRaf=         0 NMat=       1 IRICut=       1 DoRegI=T DoRafI=F ISym2E= 0 IDoP0=0 IntGTp=1.
 FoFCou: FMM=F IPFlag=           0 FMFlag=      100000 FMFlg1=         800
         NFxFlg=           0 DoJE=F BraDBF=F KetDBF=F FulRan=T
         wScrn=  0.000000 ICntrl=      2127 IOpCl=  0 I1Cent=           0 NGrid=           0
         NMat0=    1 NMatS0=      1 NMatT0=    0 NMatD0=    1 NMtDS0=    0 NMtDT0=    0
 Symmetry not used in FoFCou.
 Leave Link  703 at Tue Aug  8 11:07:07 2023, MaxMem=  1610612736 cpu:               5.3 elap:               0.3
 (Enter /home/sekinelabo/g16/l716.exe)
 Dipole        = 1.10712434D-01-1.27697209D-01-1.19268348D-02
 ***** Axes restored to original set *****
 -------------------------------------------------------------------
 Center     Atomic                   Forces (Hartrees/Bohr)
 Number     Number              X              Y              Z
 -------------------------------------------------------------------
      1       11          -0.006633809   -0.000056024   -0.001378311
      2       11           0.006592373    0.000060451    0.001986666
      3       11          -0.003235625   -0.007308895    0.001015386
      4       11           0.003277061    0.007304467   -0.001623741
 -------------------------------------------------------------------
 Cartesian Forces:  Max     0.007308895 RMS     0.004329851
 Z-matrix is all fixed cartesians, so copy forces.
 Force constants in Cartesian coordinates: 
                1             2             3             4             5 
      1  0.100000D+01
      2  0.000000D+00  0.100000D+01
      3  0.000000D+00  0.000000D+00  0.100000D+01
      4  0.000000D+00  0.000000D+00  0.000000D+00  0.100000D+01
      5  0.000000D+00  0.000000D+00  0.000000D+00  0.000000D+00  0.100000D+01
      6  0.000000D+00  0.000000D+00  0.000000D+00  0.000000D+00  0.000000D+00
      7  0.000000D+00  0.000000D+00  0.000000D+00  0.000000D+00  0.000000D+00
      8  0.000000D+00  0.000000D+00  0.000000D+00  0.000000D+00  0.000000D+00
      9  0.000000D+00  0.000000D+00  0.000000D+00  0.000000D+00  0.000000D+00
     10  0.000000D+00  0.000000D+00  0.000000D+00  0.000000D+00  0.000000D+00
     11  0.000000D+00  0.000000D+00  0.000000D+00  0.000000D+00  0.000000D+00
     12  0.000000D+00  0.000000D+00  0.000000D+00  0.000000D+00  0.000000D+00
                6             7             8             9            10 
      6  0.100000D+01
      7  0.000000D+00  0.100000D+01
      8  0.000000D+00  0.000000D+00  0.100000D+01
      9  0.000000D+00  0.000000D+00  0.000000D+00  0.100000D+01
     10  0.000000D+00  0.000000D+00  0.000000D+00  0.000000D+00  0.100000D+01
     11  0.000000D+00  0.000000D+00  0.000000D+00  0.000000D+00  0.000000D+00
     12  0.000000D+00  0.000000D+00  0.000000D+00  0.000000D+00  0.000000D+00
               11            12 
     11  0.100000D+01
     12  0.000000D+00  0.100000D+01
 Leave Link  716 at Tue Aug  8 11:07:07 2023, MaxMem=  1610612736 cpu:               0.3 elap:               0.0
 (Enter /home/sekinelabo/g16/l103.exe)

 GradGradGradGradGradGradGradGradGradGradGradGradGradGradGradGradGradGrad
 Berny optimization.
 Search for a local minimum.
 Step number   1 out of a maximum of    2
 All quantities printed in internal units (Hartrees-Bohrs-Radians)
 Second derivative matrix not updated -- first step.
 The second derivative matrix:
                          X1        Y1        Z1        X2        Y2
           X1           1.00000
           Y1           0.00000   1.00000
           Z1           0.00000   0.00000   1.00000
           X2           0.00000   0.00000   0.00000   1.00000
           Y2           0.00000   0.00000   0.00000   0.00000   1.00000
           Z2           0.00000   0.00000   0.00000   0.00000   0.00000
           X3           0.00000   0.00000   0.00000   0.00000   0.00000
           Y3           0.00000   0.00000   0.00000   0.00000   0.00000
           Z3           0.00000   0.00000   0.00000   0.00000   0.00000
           X4           0.00000   0.00000   0.00000   0.00000   0.00000
           Y4           0.00000   0.00000   0.00000   0.00000   0.00000
           Z4           0.00000   0.00000   0.00000   0.00000   0.00000
                          Z2        X3        Y3        Z3        X4
           Z2           1.00000
           X3           0.00000   1.00000
           Y3           0.00000   0.00000   1.00000
           Z3           0.00000   0.00000   0.00000   1.00000
           X4           0.00000   0.00000   0.00000   0.00000   1.00000
           Y4           0.00000   0.00000   0.00000   0.00000   0.00000
           Z4           0.00000   0.00000   0.00000   0.00000   0.00000
                          Y4        Z4
           Y4           1.00000
           Z4           0.00000   1.00000
 ITU=  0
     Eigenvalues ---    1.00000   1.00000   1.00000   1.00000   1.00000
     Eigenvalues ---    1.00000   1.00000   1.00000   1.00000   1.00000
     Eigenvalues ---    1.00000   1.00000
 Angle between quadratic step and forces=   0.00 degrees.
 Linear search not attempted -- first point.
 B after Tr=    -0.000000    0.000000   -0.000000
         Rot=    1.000000    0.000000    0.000000   -0.000000 Ang=   0.00 deg.
 Variable       Old X    -DE/DX   Delta X   Delta X   Delta X     New X
                                 (Linear)    (Quad)   (Total)
    X1        0.00000  -0.00663   0.00000  -0.00663  -0.00663  -0.00663
    Y1        0.00000  -0.00006   0.00000  -0.00006  -0.00006  -0.00006
    Z1       -0.00000  -0.00138   0.00000  -0.00138  -0.00138  -0.00138
    X2       -8.87565   0.00659   0.00000   0.00659   0.00659  -8.86906
    Y2        0.00000   0.00006   0.00000   0.00006   0.00006   0.00006
    Z2       -2.77615   0.00199   0.00000   0.00199   0.00199  -2.77416
    X3        0.00000  -0.00324   0.00000  -0.00324  -0.00324  -0.00324
    Y3        0.00000  -0.00731   0.00000  -0.00731  -0.00731  -0.00731
    Z3       10.91733   0.00102   0.00000   0.00102   0.00102  10.91835
    X4       -3.08379   0.00328   0.00000   0.00328   0.00328  -3.08051
    Y4       -7.03720   0.00730   0.00000   0.00730   0.00730  -7.02989
    Z4       12.51118  -0.00162   0.00000  -0.00162  -0.00162  12.50955
         Item               Value     Threshold  Converged?
 Maximum Force            0.007309     0.000450     NO 
 RMS     Force            0.004330     0.000300     NO 
 Maximum Displacement     0.007309     0.001800     NO 
 RMS     Displacement     0.004330     0.001200     NO 
 Predicted change in Energy=-1.124856D-04
 GradGradGradGradGradGradGradGradGradGradGradGradGradGradGradGradGradGrad

 Leave Link  103 at Tue Aug  8 11:07:07 2023, MaxMem=  1610612736 cpu:               0.2 elap:               0.0
 (Enter /home/sekinelabo/g16/l9999.exe)
 1\1\GINC-SEKINELABO-XA7R-R37\Force\RB3LYP\6-311+G(d)\Na4\SEKINELABO\08
 -Aug-2023\0\\#p B3LYP/6-311+g(d) force\\Test\\0,1\Na,0.,0.,0.\Na,-4.69
 67926963,0.,-1.4690745702\Na,0.,0.,5.7772037901\Na,-1.6318718372,-3.72
 392417,6.6206288611\\Version=ES64L-G16RevB.01\State=1-A\HF=-649.165159
 7\RMSD=8.367e-09\RMSF=4.330e-03\Dipole=-0.0703331,-0.1086515,0.1093351
 \Quadrupole=3.687609,1.4901669,-5.1777759,3.5032292,1.4424677,-1.35471
 53\PG=C01 [X(Na4)]\\@


 "PERFECTION IS NOT AN ACCIDENT"
         --  EAGLE ELECTRIC MANUFACTURING CO.,INC. NY
 Job cpu time:       0 days  0 hours  0 minutes 33.0 seconds.
 Elapsed time:       0 days  0 hours  0 minutes  2.3 seconds.
 File lengths (MBytes):  RWF=     10 Int=      0 D2E=      0 Chk=      2 Scr=      1
 Normal termination of Gaussian 16 at Tue Aug  8 11:07:07 2023.
 Initial command:
 /home/sekinelabo/g16/l1.exe "/home/sekinelabo/g16temp/Gau-19052.inp" -scrdir="/home/sekinelabo/g16temp/"
 Entering Link 1 = /home/sekinelabo/g16/l1.exe PID=     19314.
  
 Copyright (c) 1988-2017, Gaussian, Inc.  All Rights Reserved.
  
 This is part of the Gaussian(R) 16 program.  It is based on
 the Gaussian(R) 09 system (copyright 2009, Gaussian, Inc.),
 the Gaussian(R) 03 system (copyright 2003, Gaussian, Inc.),
 the Gaussian(R) 98 system (copyright 1998, Gaussian, Inc.),
 the Gaussian(R) 94 system (copyright 1995, Gaussian, Inc.),
 the Gaussian 92(TM) system (copyright 1992, Gaussian, Inc.),
 the Gaussian 90(TM) system (copyright 1990, Gaussian, Inc.),
 the Gaussian 88(TM) system (copyright 1988, Gaussian, Inc.),
 the Gaussian 86(TM) system (copyright 1986, Carnegie Mellon
 University), and the Gaussian 82(TM) system (copyright 1983,
 Carnegie Mellon University). Gaussian is a federally registered
 trademark of Gaussian, Inc.
  
 This software contains proprietary and confidential information,
 including trade secrets, belonging to Gaussian, Inc.
  
 This software is provided under written license and may be
 used, copied, transmitted, or stored only in accord with that
 written license.
  
 The following legend is applicable only to US Government
 contracts under FAR:
  
                    RESTRICTED RIGHTS LEGEND
  
 Use, reproduction and disclosure by the US Government is
 subject to restrictions as set forth in subparagraphs (a)
 and (c) of the Commercial Computer Software - Restricted
 Rights clause in FAR 52.227-19.
  
 Gaussian, Inc.
 340 Quinnipiac St., Bldg. 40, Wallingford CT 06492
  
  
 ---------------------------------------------------------------
 Warning -- This program may not be used in any manner that
 competes with the business of Gaussian, Inc. or will provide
 assistance to any competitor of Gaussian, Inc.  The licensee
 of this program is prohibited from giving any competitor of
 Gaussian, Inc. access to this program.  By using this program,
 the user acknowledges that Gaussian, Inc. is engaged in the
 business of creating and licensing software in the field of
 computational chemistry and represents and warrants to the
 licensee that it is not a competitor of Gaussian, Inc. and that
 it will not use this program in any manner prohibited above.
 ---------------------------------------------------------------
  

 Cite this work as:
 Gaussian 16, Revision B.01,
 M. J. Frisch, G. W. Trucks, H. B. Schlegel, G. E. Scuseria, 
 M. A. Robb, J. R. Cheeseman, G. Scalmani, V. Barone, 
 G. A. Petersson, H. Nakatsuji, X. Li, M. Caricato, A. V. Marenich, 
 J. Bloino, B. G. Janesko, R. Gomperts, B. Mennucci, H. P. Hratchian, 
 J. V. Ortiz, A. F. Izmaylov, J. L. Sonnenberg, D. Williams-Young, 
 F. Ding, F. Lipparini, F. Egidi, J. Goings, B. Peng, A. Petrone, 
 T. Henderson, D. Ranasinghe, V. G. Zakrzewski, J. Gao, N. Rega, 
 G. Zheng, W. Liang, M. Hada, M. Ehara, K. Toyota, R. Fukuda, 
 J. Hasegawa, M. Ishida, T. Nakajima, Y. Honda, O. Kitao, H. Nakai, 
 T. Vreven, K. Throssell, J. A. Montgomery, Jr., J. E. Peralta, 
 F. Ogliaro, M. J. Bearpark, J. J. Heyd, E. N. Brothers, K. N. Kudin, 
 V. N. Staroverov, T. A. Keith, R. Kobayashi, J. Normand, 
 K. Raghavachari, A. P. Rendell, J. C. Burant, S. S. Iyengar, 
 J. Tomasi, M. Cossi, J. M. Millam, M. Klene, C. Adamo, R. Cammi, 
 J. W. Ochterski, R. L. Martin, K. Morokuma, O. Farkas, 
 J. B. Foresman, and D. J. Fox, Gaussian, Inc., Wallingford CT, 2016.
 
 ******************************************
 Gaussian 16:  ES64L-G16RevB.01 20-Dec-2017
                 8-Aug-2023 
 ******************************************
 %NProcShared=16
 Will use up to   16 processors via shared memory.
 %mem=12GB
 %Chk=checkpoint.chk
 -------------------------
 #p B3LYP/6-311+g(d) force
 -------------------------
 1/10=7,30=1,38=1/1,3;
 2/12=2,17=6,18=5,40=1/2;
 3/5=4,6=6,7=11,11=2,25=1,30=1,71=1,74=-5/1,2,3;
 4//1;
 5/5=2,38=5/2;
 6/7=2,8=2,9=2,10=2,28=1/1;
 7/29=1/1,2,3,16;
 1/10=7,30=1/3;
 99//99;
 Leave Link    1 at Tue Aug  8 11:07:07 2023, MaxMem=  1610612736 cpu:               0.2 elap:               0.0
 (Enter /home/sekinelabo/g16/l101.exe)
 ----
 Test
 ----
 Symbolic Z-matrix:
 Charge =  0 Multiplicity = 1
 Na                    0.        0.        0. 
 Na                   -4.98861   0.        2.64363 
 Na                    0.        0.        5.78616 
 Na                    0.0395   -0.2106    10.58031 
 
 ITRead=  0  0  0  0
 MicOpt= -1 -1 -1 -1
 NAtoms=      4 NQM=        4 NQMF=       0 NMMI=      0 NMMIF=      0
                NMic=       0 NMicF=      0.
                    Isotopes and Nuclear Properties:
 (Nuclear quadrupole moments (NQMom) in fm**2, nuclear magnetic moments (NMagM)
  in nuclear magnetons)

  Atom         1           2           3           4
 IAtWgt=          23          23          23          23
 AtmWgt=  22.9897697  22.9897697  22.9897697  22.9897697
 NucSpn=           3           3           3           3
 AtZEff=  -0.0000000  -0.0000000  -0.0000000  -0.0000000
 NQMom=   10.4000000  10.4000000  10.4000000  10.4000000
 NMagM=    2.2175200   2.2175200   2.2175200   2.2175200
 AtZNuc=  11.0000000  11.0000000  11.0000000  11.0000000
 Leave Link  101 at Tue Aug  8 11:07:07 2023, MaxMem=  1610612736 cpu:               1.5 elap:               0.1
 (Enter /home/sekinelabo/g16/l103.exe)

 GradGradGradGradGradGradGradGradGradGradGradGradGradGradGradGradGradGrad
 Berny optimization.
 Initialization pass.
 Trust Radius=3.00D-01 FncErr=1.00D-07 GrdErr=1.00D-07 EigMax=2.50D+02 EigMin=1.00D-04
 Number of steps in this run=      2 maximum allowed number of steps=      2.
 GradGradGradGradGradGradGradGradGradGradGradGradGradGradGradGradGradGrad

 Leave Link  103 at Tue Aug  8 11:07:07 2023, MaxMem=  1610612736 cpu:               0.1 elap:               0.0
 (Enter /home/sekinelabo/g16/l202.exe)
                          Input orientation:                          
 ---------------------------------------------------------------------
 Center     Atomic      Atomic             Coordinates (Angstroms)
 Number     Number       Type             X           Y           Z
 ---------------------------------------------------------------------
      1         11           0        0.000000    0.000000    0.000000
      2         11           0       -4.988607    0.000000    2.643628
      3         11           0        0.000000    0.000000    5.786156
      4         11           0        0.039499   -0.210600   10.580311
 ---------------------------------------------------------------------
                    Distance matrix (angstroms):
                    1          2          3          4
     1  Na   0.000000
     2  Na   5.645793   0.000000
     3  Na   5.786156   5.895904   0.000000
     4  Na  10.582481   9.397720   4.798941   0.000000
 Stoichiometry    Na4
 Framework group  C1[X(Na4)]
 Deg. of freedom     6
 Full point group                 C1      NOp   1
 Largest Abelian subgroup         C1      NOp   1
 Largest concise Abelian subgroup C1      NOp   1
                         Standard orientation:                         
 ---------------------------------------------------------------------
 Center     Atomic      Atomic             Coordinates (Angstroms)
 Number     Number       Type             X           Y           Z
 ---------------------------------------------------------------------
      1         11           0        4.344506   -2.290019   -0.034474
      2         11           0        2.910435    3.170498   -0.000337
      3         11           0       -1.287639   -0.968577    0.076603
      4         11           0       -5.967303    0.088098   -0.041792
 ---------------------------------------------------------------------
 Rotational constants (GHZ):           1.3527072           0.3401807           0.2718816
 Leave Link  202 at Tue Aug  8 11:07:07 2023, MaxMem=  1610612736 cpu:               0.0 elap:               0.0
 (Enter /home/sekinelabo/g16/l301.exe)
 Standard basis: 6-311+G(d) (5D, 7F)
 Ernie: Thresh=  0.10000D-02 Tol=  0.10000D-05 Strict=F.
 There are   124 symmetry adapted cartesian basis functions of A   symmetry.
 There are   120 symmetry adapted basis functions of A   symmetry.
   120 basis functions,   200 primitive gaussians,   124 cartesian basis functions
    22 alpha electrons       22 beta electrons
       nuclear repulsion energy        59.4741976359 Hartrees.
 IExCor=  402 DFT=T Ex+Corr=B3LYP ExCW=0 ScaHFX=  0.200000
 ScaDFX=  0.800000  0.720000  1.000000  0.810000 ScalE2=  1.000000  1.000000
 IRadAn=      5 IRanWt=     -1 IRanGd=            0 ICorTp=0 IEmpDi=  4
 NAtoms=    4 NActive=    4 NUniq=    4 SFac= 1.00D+00 NAtFMM=   60 NAOKFM=F Big=F
 Integral buffers will be    131072 words long.
 Raffenetti 2 integral format.
 Two-electron integral symmetry is turned on.
 Leave Link  301 at Tue Aug  8 11:07:07 2023, MaxMem=  1610612736 cpu:               0.3 elap:               0.0
 (Enter /home/sekinelabo/g16/l302.exe)
 NPDir=0 NMtPBC=     1 NCelOv=     1 NCel=       1 NClECP=     1 NCelD=      1
         NCelK=      1 NCelE2=     1 NClLst=     1 CellRange=     0.0.
 One-electron integrals computed using PRISM.
 One-electron integral symmetry used in STVInt
 NBasis=   120 RedAO= T EigKep=  1.95D-04  NBF=   120
 NBsUse=   120 1.00D-06 EigRej= -1.00D+00 NBFU=   120
 Precomputing XC quadrature grid using
 IXCGrd= 4 IRadAn=           5 IRanWt=          -1 IRanGd=           0 AccXCQ= 0.00D+00.
 Generated NRdTot=       0 NPtTot=           0 NUsed=           0 NTot=          32
 NSgBfM=   115   115   115   115   115 MxSgAt=     4 MxSgA2=     4.
 Leave Link  302 at Tue Aug  8 11:07:07 2023, MaxMem=  1610612736 cpu:               1.3 elap:               0.1
 (Enter /home/sekinelabo/g16/l303.exe)
 DipDrv:  MaxL=1.
 Leave Link  303 at Tue Aug  8 11:07:07 2023, MaxMem=  1610612736 cpu:               0.3 elap:               0.0
 (Enter /home/sekinelabo/g16/l401.exe)
 ExpMin= 7.60D-03 ExpMax= 3.62D+04 ExpMxC= 1.21D+03 IAcc=3 IRadAn=         5 AccDes= 0.00D+00
 Harris functional with IExCor=  402 and IRadAn=       5 diagonalized for initial guess.
 HarFok:  IExCor=  402 AccDes= 0.00D+00 IRadAn=         5 IDoV= 1 UseB2=F ITyADJ=14
 ICtDFT=  3500011 ScaDFX=  1.000000  1.000000  1.000000  1.000000
 FoFCou: FMM=F IPFlag=           0 FMFlag=      100000 FMFlg1=           0
         NFxFlg=           0 DoJE=T BraDBF=F KetDBF=T FulRan=T
         wScrn=  0.000000 ICntrl=       500 IOpCl=  0 I1Cent=   200000004 NGrid=           0
         NMat0=    1 NMatS0=      1 NMatT0=    0 NMatD0=    1 NMtDS0=    0 NMtDT0=    0
 Petite list used in FoFCou.
 Harris En= -649.026138582140    
 JPrj=0 DoOrth=F DoCkMO=F.
 Leave Link  401 at Tue Aug  8 11:07:07 2023, MaxMem=  1610612736 cpu:               1.9 elap:               0.1
 (Enter /home/sekinelabo/g16/l502.exe)
 Keep R1 ints in memory in canonical form, NReq=41581754.
 FoFCou: FMM=F IPFlag=           0 FMFlag=           0 FMFlg1=           0
         NFxFlg=           0 DoJE=F BraDBF=F KetDBF=F FulRan=T
         wScrn=  0.000000 ICntrl=       600 IOpCl=  0 I1Cent=           0 NGrid=           0
         NMat0=    1 NMatS0=   7260 NMatT0=    0 NMatD0=    1 NMtDS0=    0 NMtDT0=    0
 Symmetry not used in FoFCou.
 Two-electron integral symmetry not used.
 Closed shell SCF:
 Using DIIS extrapolation, IDIIS=  1040.
 NGot=  1610612736 LenX=  1584221388 LenY=  1584205571
 Requested convergence on RMS density matrix=1.00D-08 within 128 cycles.
 Requested convergence on MAX density matrix=1.00D-06.
 Requested convergence on             energy=1.00D-06.
 No special actions if energy rises.

 Cycle   1  Pass 1  IDiag  1:
 E= -649.133182129644    
 DIIS: error= 1.80D-02 at cycle   1 NSaved=   1.
 NSaved= 1 IEnMin= 1 EnMin= -649.133182129644     IErMin= 1 ErrMin= 1.80D-02
 ErrMax= 1.80D-02  0.00D+00 EMaxC= 1.00D-01 BMatC= 2.74D-02 BMatP= 2.74D-02
 IDIUse=3 WtCom= 8.20D-01 WtEn= 1.80D-01
 Coeff-Com:  0.100D+01
 Coeff-En:   0.100D+01
 Coeff:      0.100D+01
 Gap=     0.011 Goal=   None    Shift=    0.000
 GapD=    0.011 DampG=0.250 DampE=0.500 DampFc=0.2500 IDamp=-1.
 Damping current iteration by 2.50D-01
 RMSDP=9.04D-03 MaxDP=3.54D-01              OVMax= 9.91D-01

 Cycle   2  Pass 1  IDiag  1:
 E= -649.122678708188     Delta-E=        0.010503421456 Rises=F Damp=T
 DIIS: error= 1.29D-02 at cycle   2 NSaved=   2.
 NSaved= 2 IEnMin= 1 EnMin= -649.133182129644     IErMin= 2 ErrMin= 1.29D-02
 ErrMax= 1.29D-02  0.00D+00 EMaxC= 1.00D-01 BMatC= 1.04D-02 BMatP= 2.74D-02
 IDIUse=3 WtCom= 8.71D-01 WtEn= 1.29D-01
 Coeff-Com: -0.948D+00 0.195D+01
 Coeff-En:   0.777D+00 0.223D+00
 Coeff:     -0.726D+00 0.173D+01
 Gap=    -0.095 Goal=   None    Shift=    0.000
 RMSDP=1.07D-02 MaxDP=5.00D-01 DE= 1.05D-02 OVMax= 9.75D-01

 Cycle   3  Pass 1  IDiag  1:
 E= -648.783475604611     Delta-E=        0.339203103577 Rises=F Damp=F
 DIIS: error= 2.10D-02 at cycle   3 NSaved=   3.
 NSaved= 3 IEnMin= 1 EnMin= -649.133182129644     IErMin= 2 ErrMin= 1.29D-02
 ErrMax= 2.10D-02  0.00D+00 EMaxC= 1.00D-01 BMatC= 2.22D-02 BMatP= 1.04D-02
 IDIUse=2 WtCom= 0.00D+00 WtEn= 1.00D+00
 Rare condition: small coef for last iteration:  0.000D+00
 Coeff-En:   0.878D+00 0.118D+00 0.437D-02
 Coeff:      0.878D+00 0.118D+00 0.437D-02
 Gap=    -0.020 Goal=   None    Shift=    0.000
 RMSDP=1.10D-02 MaxDP=5.91D-01 DE= 3.39D-01 OVMax= 8.93D-01

 Cycle   4  Pass 1  IDiag  1:
 E= -649.133791637570     Delta-E=       -0.350316032959 Rises=F Damp=F
 DIIS: error= 9.45D-03 at cycle   4 NSaved=   4.
 NSaved= 4 IEnMin= 4 EnMin= -649.133791637570     IErMin= 4 ErrMin= 9.45D-03
 ErrMax= 9.45D-03  0.00D+00 EMaxC= 1.00D-01 BMatC= 1.60D-02 BMatP= 1.04D-02
 IDIUse=3 WtCom= 9.33D-02 WtEn= 9.07D-01
 EnCoef did   100 forward-backward iterations
 Coeff-Com: -0.884D-01 0.623D+00 0.151D+00 0.315D+00
 Coeff-En:   0.488D+00 0.321D-02 0.000D+00 0.509D+00
 Coeff:      0.435D+00 0.610D-01 0.141D-01 0.490D+00
 Gap=     0.016 Goal=   None    Shift=    0.000
 RMSDP=3.36D-03 MaxDP=1.70D-01 DE=-3.50D-01 OVMax= 3.45D-01

 Cycle   5  Pass 1  IDiag  1:
 E= -649.135807344637     Delta-E=       -0.002015707067 Rises=F Damp=F
 DIIS: error= 4.47D-03 at cycle   5 NSaved=   5.
 NSaved= 5 IEnMin= 5 EnMin= -649.135807344637     IErMin= 5 ErrMin= 4.47D-03
 ErrMax= 4.47D-03  0.00D+00 EMaxC= 1.00D-01 BMatC= 1.73D-03 BMatP= 1.04D-02
 IDIUse=3 WtCom= 9.55D-01 WtEn= 4.47D-02
 Coeff-Com:  0.168D+00 0.120D-01 0.107D-01 0.210D+00 0.599D+00
 Coeff-En:   0.000D+00 0.000D+00 0.000D+00 0.471D+00 0.529D+00
 Coeff:      0.161D+00 0.114D-01 0.102D-01 0.222D+00 0.596D+00
 Gap=     0.005 Goal=   None    Shift=    0.000
 RMSDP=5.16D-03 MaxDP=2.61D-01 DE=-2.02D-03 OVMax= 4.49D-01

 Cycle   6  Pass 1  IDiag  1:
 E= -649.104950205090     Delta-E=        0.030857139547 Rises=F Damp=F
 DIIS: error= 8.63D-03 at cycle   6 NSaved=   6.
 NSaved= 6 IEnMin= 5 EnMin= -649.135807344637     IErMin= 5 ErrMin= 4.47D-03
 ErrMax= 8.63D-03  0.00D+00 EMaxC= 1.00D-01 BMatC= 4.82D-03 BMatP= 1.73D-03
 IDIUse=3 WtCom= 9.55D-01 WtEn= 4.47D-02
 EnCoef did    32 forward-backward iterations
 Coeff-Com:  0.140D+00-0.159D+00-0.152D-01 0.365D-01 0.636D+00 0.361D+00
 Coeff-En:   0.000D+00 0.000D+00 0.000D+00 0.256D+00 0.591D+00 0.153D+00
 Coeff:      0.134D+00-0.151D+00-0.145D-01 0.463D-01 0.634D+00 0.352D+00
 Gap=     0.012 Goal=   None    Shift=    0.000
 RMSDP=4.17D-03 MaxDP=2.65D-01 DE= 3.09D-02 OVMax= 3.47D-01

 Cycle   7  Pass 1  IDiag  1:
 E= -649.141236299533     Delta-E=       -0.036286094442 Rises=F Damp=F
 DIIS: error= 4.57D-03 at cycle   7 NSaved=   7.
 NSaved= 7 IEnMin= 7 EnMin= -649.141236299533     IErMin= 5 ErrMin= 4.47D-03
 ErrMax= 4.57D-03  0.00D+00 EMaxC= 1.00D-01 BMatC= 9.20D-04 BMatP= 1.73D-03
 IDIUse=3 WtCom= 9.55D-01 WtEn= 4.47D-02
 EnCoef did   100 forward-backward iterations
 Coeff-Com:  0.122D+00-0.157D+00-0.131D-01 0.231D-01 0.480D+00 0.304D+00
 Coeff-Com:  0.241D+00
 Coeff-En:   0.000D+00 0.000D+00 0.000D+00 0.150D-01 0.412D+00 0.207D+00
 Coeff-En:   0.367D+00
 Coeff:      0.116D+00-0.150D+00-0.126D-01 0.227D-01 0.477D+00 0.299D+00
 Coeff:      0.247D+00
 Gap=     0.018 Goal=   None    Shift=    0.000
 RMSDP=1.53D-03 MaxDP=8.38D-02 DE=-3.63D-02 OVMax= 1.21D-01

 Cycle   8  Pass 1  IDiag  1:
 E= -649.148341779826     Delta-E=       -0.007105480293 Rises=F Damp=F
 DIIS: error= 8.02D-04 at cycle   8 NSaved=   8.
 NSaved= 8 IEnMin= 8 EnMin= -649.148341779826     IErMin= 8 ErrMin= 8.02D-04
 ErrMax= 8.02D-04  0.00D+00 EMaxC= 1.00D-01 BMatC= 3.95D-05 BMatP= 9.20D-04
 IDIUse=3 WtCom= 9.92D-01 WtEn= 8.02D-03
 Coeff-Com:  0.361D-01-0.500D-01-0.366D-02 0.200D-01-0.574D-02 0.618D-02
 Coeff-Com:  0.169D+00 0.828D+00
 Coeff-En:   0.000D+00 0.000D+00 0.000D+00 0.000D+00 0.000D+00 0.000D+00
 Coeff-En:   0.877D-01 0.912D+00
 Coeff:      0.358D-01-0.496D-01-0.363D-02 0.199D-01-0.569D-02 0.613D-02
 Coeff:      0.169D+00 0.828D+00
 Gap=     0.019 Goal=   None    Shift=    0.000
 RMSDP=2.96D-04 MaxDP=1.44D-02 DE=-7.11D-03 OVMax= 2.82D-02

 Cycle   9  Pass 1  IDiag  1:
 E= -649.148643680871     Delta-E=       -0.000301901045 Rises=F Damp=F
 DIIS: error= 1.68D-04 at cycle   9 NSaved=   9.
 NSaved= 9 IEnMin= 9 EnMin= -649.148643680871     IErMin= 9 ErrMin= 1.68D-04
 ErrMax= 1.68D-04  0.00D+00 EMaxC= 1.00D-01 BMatC= 1.17D-06 BMatP= 3.95D-05
 IDIUse=3 WtCom= 9.98D-01 WtEn= 1.68D-03
 Coeff-Com:  0.176D-01-0.236D-01-0.617D-03 0.100D-01-0.249D-01-0.574D-02
 Coeff-Com:  0.467D-01 0.230D+00 0.750D+00
 Coeff-En:   0.000D+00 0.000D+00 0.000D+00 0.000D+00 0.000D+00 0.000D+00
 Coeff-En:   0.000D+00 0.000D+00 0.100D+01
 Coeff:      0.176D-01-0.236D-01-0.615D-03 0.100D-01-0.249D-01-0.573D-02
 Coeff:      0.466D-01 0.230D+00 0.751D+00
 Gap=     0.019 Goal=   None    Shift=    0.000
 RMSDP=6.95D-05 MaxDP=3.00D-03 DE=-3.02D-04 OVMax= 6.16D-03

 Cycle  10  Pass 1  IDiag  1:
 E= -649.148653988661     Delta-E=       -0.000010307790 Rises=F Damp=F
 DIIS: error= 7.68D-05 at cycle  10 NSaved=  10.
 NSaved=10 IEnMin=10 EnMin= -649.148653988661     IErMin=10 ErrMin= 7.68D-05
 ErrMax= 7.68D-05  0.00D+00 EMaxC= 1.00D-01 BMatC= 2.60D-07 BMatP= 1.17D-06
 IDIUse=1 WtCom= 1.00D+00 WtEn= 0.00D+00
 Coeff-Com:  0.103D-01-0.138D-01 0.116D-03 0.390D-02-0.569D-02-0.483D-02
 Coeff-Com:  0.560D-02 0.281D-01 0.152D+00 0.825D+00
 Coeff:      0.103D-01-0.138D-01 0.116D-03 0.390D-02-0.569D-02-0.483D-02
 Coeff:      0.560D-02 0.281D-01 0.152D+00 0.825D+00
 Gap=     0.019 Goal=   None    Shift=    0.000
 RMSDP=4.60D-05 MaxDP=1.33D-03 DE=-1.03D-05 OVMax= 5.72D-03

 Cycle  11  Pass 1  IDiag  1:
 E= -649.148658185300     Delta-E=       -0.000004196639 Rises=F Damp=F
 DIIS: error= 4.89D-05 at cycle  11 NSaved=  11.
 NSaved=11 IEnMin=11 EnMin= -649.148658185300     IErMin=11 ErrMin= 4.89D-05
 ErrMax= 4.89D-05  0.00D+00 EMaxC= 1.00D-01 BMatC= 9.38D-08 BMatP= 2.60D-07
 IDIUse=1 WtCom= 1.00D+00 WtEn= 0.00D+00
 Coeff-Com:  0.292D-02-0.393D-02 0.296D-03 0.606D-04 0.282D-02-0.142D-02
 Coeff-Com: -0.173D-01-0.574D-01-0.237D+00-0.219D+00 0.153D+01
 Coeff:      0.292D-02-0.393D-02 0.296D-03 0.606D-04 0.282D-02-0.142D-02
 Coeff:     -0.173D-01-0.574D-01-0.237D+00-0.219D+00 0.153D+01
 Gap=     0.019 Goal=   None    Shift=    0.000
 RMSDP=6.12D-05 MaxDP=1.85D-03 DE=-4.20D-06 OVMax= 7.26D-03

 Cycle  12  Pass 1  IDiag  1:
 E= -649.148660925243     Delta-E=       -0.000002739944 Rises=F Damp=F
 DIIS: error= 3.12D-05 at cycle  12 NSaved=  12.
 NSaved=12 IEnMin=12 EnMin= -649.148660925243     IErMin=12 ErrMin= 3.12D-05
 ErrMax= 3.12D-05  0.00D+00 EMaxC= 1.00D-01 BMatC= 3.23D-08 BMatP= 9.38D-08
 IDIUse=1 WtCom= 1.00D+00 WtEn= 0.00D+00
 Coeff-Com:  0.108D-02-0.146D-02-0.355D-05 0.716D-04 0.196D-02-0.367D-03
 Coeff-Com: -0.656D-02-0.118D-01-0.168D-01-0.185D+00-0.978D-02 0.123D+01
 Coeff:      0.108D-02-0.146D-02-0.355D-05 0.716D-04 0.196D-02-0.367D-03
 Coeff:     -0.656D-02-0.118D-01-0.168D-01-0.185D+00-0.978D-02 0.123D+01
 Gap=     0.019 Goal=   None    Shift=    0.000
 RMSDP=2.98D-05 MaxDP=9.61D-04 DE=-2.74D-06 OVMax= 3.58D-03

 Cycle  13  Pass 1  IDiag  1:
 E= -649.148661558597     Delta-E=       -0.000000633354 Rises=F Damp=F
 DIIS: error= 6.96D-06 at cycle  13 NSaved=  13.
 NSaved=13 IEnMin=13 EnMin= -649.148661558597     IErMin=13 ErrMin= 6.96D-06
 ErrMax= 6.96D-06  0.00D+00 EMaxC= 1.00D-01 BMatC= 2.65D-09 BMatP= 3.23D-08
 IDIUse=1 WtCom= 1.00D+00 WtEn= 0.00D+00
 Coeff-Com:  0.505D-03-0.688D-03 0.746D-05 0.157D-03 0.151D-03-0.692D-04
 Coeff-Com: -0.104D-02 0.194D-02 0.215D-01-0.321D-01-0.187D+00 0.347D+00
 Coeff-Com:  0.849D+00
 Coeff:      0.505D-03-0.688D-03 0.746D-05 0.157D-03 0.151D-03-0.692D-04
 Coeff:     -0.104D-02 0.194D-02 0.215D-01-0.321D-01-0.187D+00 0.347D+00
 Coeff:      0.849D+00
 Gap=     0.019 Goal=   None    Shift=    0.000
 RMSDP=5.73D-06 MaxDP=1.86D-04 DE=-6.33D-07 OVMax= 6.16D-04

 Cycle  14  Pass 1  IDiag  1:
 E= -649.148661581872     Delta-E=       -0.000000023274 Rises=F Damp=F
 DIIS: error= 3.84D-06 at cycle  14 NSaved=  14.
 NSaved=14 IEnMin=14 EnMin= -649.148661581872     IErMin=14 ErrMin= 3.84D-06
 ErrMax= 3.84D-06  0.00D+00 EMaxC= 1.00D-01 BMatC= 4.51D-10 BMatP= 2.65D-09
 IDIUse=1 WtCom= 1.00D+00 WtEn= 0.00D+00
 Coeff-Com:  0.325D-03-0.433D-03 0.140D-05 0.894D-04 0.922D-04-0.612D-04
 Coeff-Com:  0.137D-03-0.999D-03-0.769D-02 0.797D-02 0.568D-01-0.161D+00
 Coeff-Com: -0.129D+00 0.123D+01
 Coeff:      0.325D-03-0.433D-03 0.140D-05 0.894D-04 0.922D-04-0.612D-04
 Coeff:      0.137D-03-0.999D-03-0.769D-02 0.797D-02 0.568D-01-0.161D+00
 Coeff:     -0.129D+00 0.123D+01
 Gap=     0.019 Goal=   None    Shift=    0.000
 RMSDP=7.60D-07 MaxDP=2.79D-05 DE=-2.33D-08 OVMax= 6.64D-05

 Cycle  15  Pass 1  IDiag  1:
 E= -649.148661585294     Delta-E=       -0.000000003422 Rises=F Damp=F
 DIIS: error= 2.33D-06 at cycle  15 NSaved=  15.
 NSaved=15 IEnMin=15 EnMin= -649.148661585294     IErMin=15 ErrMin= 2.33D-06
 ErrMax= 2.33D-06  0.00D+00 EMaxC= 1.00D-01 BMatC= 2.34D-10 BMatP= 4.51D-10
 IDIUse=1 WtCom= 1.00D+00 WtEn= 0.00D+00
 Coeff-Com:  0.109D-03-0.145D-03 0.132D-05 0.151D-04 0.213D-03-0.581D-04
 Coeff-Com: -0.733D-04-0.179D-02-0.690D-02-0.112D-01 0.470D-01 0.874D-02
 Coeff-Com: -0.454D-01-0.125D+01 0.226D+01
 Coeff:      0.109D-03-0.145D-03 0.132D-05 0.151D-04 0.213D-03-0.581D-04
 Coeff:     -0.733D-04-0.179D-02-0.690D-02-0.112D-01 0.470D-01 0.874D-02
 Coeff:     -0.454D-01-0.125D+01 0.226D+01
 Gap=     0.019 Goal=   None    Shift=    0.000
 RMSDP=1.52D-06 MaxDP=5.02D-05 DE=-3.42D-09 OVMax= 1.55D-04

 Cycle  16  Pass 1  IDiag  1:
 E= -649.148661588265     Delta-E=       -0.000000002971 Rises=F Damp=F
 DIIS: error= 1.05D-06 at cycle  16 NSaved=  16.
 NSaved=16 IEnMin=16 EnMin= -649.148661588265     IErMin=16 ErrMin= 1.05D-06
 ErrMax= 1.05D-06  0.00D+00 EMaxC= 1.00D-01 BMatC= 5.25D-11 BMatP= 2.34D-10
 IDIUse=1 WtCom= 1.00D+00 WtEn= 0.00D+00
 Coeff-Com: -0.730D-05 0.940D-05 0.144D-05-0.776D-05 0.537D-04-0.949D-05
 Coeff-Com: -0.526D-04-0.340D-03 0.472D-03-0.133D-02-0.491D-02 0.998D-02
 Coeff-Com:  0.477D-01-0.254D+00-0.252D+00 0.145D+01
 Coeff:     -0.730D-05 0.940D-05 0.144D-05-0.776D-05 0.537D-04-0.949D-05
 Coeff:     -0.526D-04-0.340D-03 0.472D-03-0.133D-02-0.491D-02 0.998D-02
 Coeff:      0.477D-01-0.254D+00-0.252D+00 0.145D+01
 Gap=     0.019 Goal=   None    Shift=    0.000
 RMSDP=7.18D-07 MaxDP=2.33D-05 DE=-2.97D-09 OVMax= 6.34D-05

 Cycle  17  Pass 1  IDiag  1:
 E= -649.148661588932     Delta-E=       -0.000000000667 Rises=F Damp=F
 DIIS: error= 1.24D-07 at cycle  17 NSaved=  17.
 NSaved=17 IEnMin=17 EnMin= -649.148661588932     IErMin=17 ErrMin= 1.24D-07
 ErrMax= 1.24D-07  0.00D+00 EMaxC= 1.00D-01 BMatC= 6.97D-13 BMatP= 5.25D-11
 IDIUse=1 WtCom= 1.00D+00 WtEn= 0.00D+00
 Coeff-Com: -0.389D-05 0.512D-05 0.325D-07-0.237D-05 0.753D-05-0.542D-06
 Coeff-Com: -0.218D-04 0.598D-05 0.559D-03 0.309D-03-0.328D-02 0.100D-02
 Coeff-Com:  0.835D-02 0.415D-01-0.164D+00 0.199D+00 0.917D+00
 Coeff:     -0.389D-05 0.512D-05 0.325D-07-0.237D-05 0.753D-05-0.542D-06
 Coeff:     -0.218D-04 0.598D-05 0.559D-03 0.309D-03-0.328D-02 0.100D-02
 Coeff:      0.835D-02 0.415D-01-0.164D+00 0.199D+00 0.917D+00
 Gap=     0.019 Goal=   None    Shift=    0.000
 RMSDP=6.43D-08 MaxDP=2.96D-06 DE=-6.67D-10 OVMax= 7.49D-06

 Cycle  18  Pass 1  IDiag  1:
 E= -649.148661588936     Delta-E=       -0.000000000005 Rises=F Damp=F
 DIIS: error= 4.92D-08 at cycle  18 NSaved=  18.
 NSaved=18 IEnMin=18 EnMin= -649.148661588936     IErMin=18 ErrMin= 4.92D-08
 ErrMax= 4.92D-08  0.00D+00 EMaxC= 1.00D-01 BMatC= 9.08D-14 BMatP= 6.97D-13
 IDIUse=1 WtCom= 1.00D+00 WtEn= 0.00D+00
 Coeff-Com: -0.328D-06 0.451D-06-0.765D-09-0.537D-06-0.304D-07 0.140D-06
 Coeff-Com: -0.550D-05-0.401D-05 0.498D-04 0.170D-03 0.856D-04-0.733D-03
 Coeff-Com: -0.295D-02 0.429D-01-0.293D-01-0.778D-01 0.310D+00 0.758D+00
 Coeff:     -0.328D-06 0.451D-06-0.765D-09-0.537D-06-0.304D-07 0.140D-06
 Coeff:     -0.550D-05-0.401D-05 0.498D-04 0.170D-03 0.856D-04-0.733D-03
 Coeff:     -0.295D-02 0.429D-01-0.293D-01-0.778D-01 0.310D+00 0.758D+00
 Gap=     0.019 Goal=   None    Shift=    0.000
 RMSDP=2.20D-08 MaxDP=8.26D-07 DE=-4.55D-12 OVMax= 2.11D-06

 Cycle  19  Pass 1  IDiag  1:
 E= -649.148661588937     Delta-E=       -0.000000000000 Rises=F Damp=F
 DIIS: error= 6.51D-09 at cycle  19 NSaved=  19.
 NSaved=19 IEnMin=19 EnMin= -649.148661588937     IErMin=19 ErrMin= 6.51D-09
 ErrMax= 6.51D-09  0.00D+00 EMaxC= 1.00D-01 BMatC= 1.94D-15 BMatP= 9.08D-14
 IDIUse=1 WtCom= 1.00D+00 WtEn= 0.00D+00
 Large coefficients: NSaved= 19 BigCof=    0.00 CofMax=   10.00 Det=-6.10D-15
 Inversion failed.  Reducing to 18 matrices.
 Large coefficients: NSaved= 18 BigCof=    0.00 CofMax=   10.00 Det=-6.10D-15
 Inversion failed.  Reducing to 17 matrices.
 Large coefficients: NSaved= 17 BigCof=    0.00 CofMax=   10.00 Det=-6.12D-15
 Inversion failed.  Reducing to 16 matrices.
 Large coefficients: NSaved= 16 BigCof=    0.00 CofMax=   10.00 Det=-6.12D-15
 Inversion failed.  Reducing to 15 matrices.
 Coeff-Com: -0.107D-07-0.507D-06 0.162D-06-0.422D-05-0.325D-04 0.232D-05
 Coeff-Com:  0.320D-03-0.209D-03-0.102D-02 0.170D-03 0.917D-02-0.175D-01
 Coeff-Com: -0.154D-01 0.930D-01 0.932D+00
 Coeff:     -0.107D-07-0.507D-06 0.162D-06-0.422D-05-0.325D-04 0.232D-05
 Coeff:      0.320D-03-0.209D-03-0.102D-02 0.170D-03 0.917D-02-0.175D-01
 Coeff:     -0.154D-01 0.930D-01 0.932D+00
 Gap=     0.019 Goal=   None    Shift=    0.000
 RMSDP=5.15D-09 MaxDP=1.64D-07 DE=-4.55D-13 OVMax= 6.24D-07

 SCF Done:  E(RB3LYP) =  -649.148661589     A.U. after   19 cycles
            NFock= 19  Conv=0.52D-08     -V/T= 2.0030
 KE= 6.471763810118D+02 PE=-1.677461172960D+03 EE= 3.216619327233D+02
 Leave Link  502 at Tue Aug  8 11:07:09 2023, MaxMem=  1610612736 cpu:              23.9 elap:               1.8
 (Enter /home/sekinelabo/g16/l601.exe)
 Copying SCF densities to generalized density rwf, IOpCl= 0 IROHF=0.

 **********************************************************************

            Population analysis using the SCF Density.

 **********************************************************************

 Orbital symmetries:
       Occupied  (A) (A) (A) (A) (A) (A) (A) (A) (A) (A) (A) (A)
                 (A) (A) (A) (A) (A) (A) (A) (A) (A) (A)
       Virtual   (A) (A) (A) (A) (A) (A) (A) (A) (A) (A) (A) (A)
                 (A) (A) (A) (A) (A) (A) (A) (A) (A) (A) (A) (A)
                 (A) (A) (A) (A) (A) (A) (A) (A) (A) (A) (A) (A)
                 (A) (A) (A) (A) (A) (A) (A) (A) (A) (A) (A) (A)
                 (A) (A) (A) (A) (A) (A) (A) (A) (A) (A) (A) (A)
                 (A) (A) (A) (A) (A) (A) (A) (A) (A) (A) (A) (A)
                 (A) (A) (A) (A) (A) (A) (A) (A) (A) (A) (A) (A)
                 (A) (A) (A) (A) (A) (A) (A) (A) (A) (A) (A) (A)
                 (A) (A)
 The electronic state is 1-A.
 Alpha  occ. eigenvalues --  -38.47513 -38.47324 -38.45437 -38.44929  -2.23175
 Alpha  occ. eigenvalues --   -2.22989  -2.21107  -2.20609  -1.16851  -1.16847
 Alpha  occ. eigenvalues --   -1.16819  -1.16665  -1.16661  -1.16633  -1.14794
 Alpha  occ. eigenvalues --   -1.14792  -1.14727  -1.14289  -1.14289  -1.14239
 Alpha  occ. eigenvalues --   -0.12539  -0.10995
 Alpha virt. eigenvalues --   -0.09113  -0.07092  -0.02836  -0.02704  -0.02421
 Alpha virt. eigenvalues --   -0.02112  -0.01419  -0.01181  -0.00924  -0.00553
 Alpha virt. eigenvalues --   -0.00321   0.00315   0.00387   0.00429   0.00797
 Alpha virt. eigenvalues --    0.01229   0.01290   0.01548   0.01664   0.01712
 Alpha virt. eigenvalues --    0.01743   0.01797   0.01875   0.02262   0.02477
 Alpha virt. eigenvalues --    0.02594   0.02664   0.03095   0.03760   0.04126
 Alpha virt. eigenvalues --    0.06691   0.07314   0.07463   0.07656   0.07858
 Alpha virt. eigenvalues --    0.07994   0.08487   0.08573   0.08903   0.09005
 Alpha virt. eigenvalues --    0.09177   0.09431   0.10381   0.11179   0.11422
 Alpha virt. eigenvalues --    0.12906   0.32445   0.32997   0.33415   0.33437
 Alpha virt. eigenvalues --    0.33445   0.33609   0.33645   0.33706   0.33748
 Alpha virt. eigenvalues --    0.34311   0.34463   0.34778   0.35000   0.35229
 Alpha virt. eigenvalues --    0.35450   0.35472   0.35833   0.36513   0.36613
 Alpha virt. eigenvalues --    0.38425   0.41151   0.41564   0.41660   0.42109
 Alpha virt. eigenvalues --    0.42824   0.43236   0.43745   0.44315   0.44677
 Alpha virt. eigenvalues --    0.45541   0.47346   0.48983   1.99766   2.00544
 Alpha virt. eigenvalues --    2.01571   2.03818   4.40754   4.41138   4.41309
 Alpha virt. eigenvalues --    4.41759   4.41851   4.43349   4.43404   4.43804
 Alpha virt. eigenvalues --    4.44354   4.44731   4.44946   4.47237  96.18739
 Alpha virt. eigenvalues --   96.19664  96.20738  96.23219
          Condensed to atoms (all electrons):
               1          2          3          4
     1  Na  10.846404   0.126764   0.010378  -0.005531
     2  Na   0.126764  10.857414  -0.026867  -0.009783
     3  Na   0.010378  -0.026867  10.914217   0.202393
     4  Na  -0.005531  -0.009783   0.202393  10.787259
 Mulliken charges:
               1
     1  Na   0.021985
     2  Na   0.052473
     3  Na  -0.100120
     4  Na   0.025662
 Sum of Mulliken charges =  -0.00000
 Mulliken charges with hydrogens summed into heavy atoms:
               1
     1  Na   0.021985
     2  Na   0.052473
     3  Na  -0.100120
     4  Na   0.025662
 Electronic spatial extent (au):  <R**2>=           3262.8664
 Charge=             -0.0000 electrons
 Dipole moment (field-independent basis, Debye):
    X=              2.8035    Y=              0.5610    Z=             -0.0167  Tot=              2.8591
 Quadrupole moment (field-independent basis, Debye-Ang):
   XX=            -37.8124   YY=            -30.6727   ZZ=            -47.7634
   XY=             -5.5307   XZ=              0.1692   YZ=              0.0256
 Traceless Quadrupole moment (field-independent basis, Debye-Ang):
   XX=              0.9371   YY=              8.0768   ZZ=             -9.0139
   XY=             -5.5307   XZ=              0.1692   YZ=              0.0256
 Octapole moment (field-independent basis, Debye-Ang**2):
  XXX=            -32.2977  YYY=             26.4460  ZZZ=             -0.0856  XYY=             62.0166
  XXY=            -12.6425  XXZ=             -2.2312  XZZ=              7.0535  YZZ=              1.1609
  YYZ=             -0.2061  XYZ=              0.4946
 Hexadecapole moment (field-independent basis, Debye-Ang**3):
 XXXX=          -3835.6489 YYYY=          -1002.3928 ZZZZ=           -231.3719 XXXY=           -254.6462
 XXXZ=              9.1332 YYYX=              2.9778 YYYZ=              0.7095 ZZZX=              0.9981
 ZZZY=              0.1391 XXYY=           -800.2298 XXZZ=           -835.0787 YYZZ=           -235.7904
 XXYZ=              1.8899 YYXZ=             -0.8149 ZZXY=            -11.2727
 N-N= 5.947419763588D+01 E-N=-1.677461172810D+03  KE= 6.471763810118D+02
 No NMR shielding tensors so no spin-rotation constants.
 Leave Link  601 at Tue Aug  8 11:07:09 2023, MaxMem=  1610612736 cpu:               0.9 elap:               0.1
 (Enter /home/sekinelabo/g16/l701.exe)
 ... and contract with generalized density number  0.
 Compute integral first derivatives.
 Leave Link  701 at Tue Aug  8 11:07:09 2023, MaxMem=  1610612736 cpu:               1.3 elap:               0.1
 (Enter /home/sekinelabo/g16/l702.exe)
 L702 exits ... SP integral derivatives will be done elsewhere.
 Leave Link  702 at Tue Aug  8 11:07:09 2023, MaxMem=  1610612736 cpu:               0.3 elap:               0.0
 (Enter /home/sekinelabo/g16/l703.exe)
 Integral derivatives from FoFJK, PRISM(SPDF).
 Compute integral first derivatives, UseDBF=F ICtDFT=           0.
 Calling FoFJK, ICntrl=      2127 FMM=F ISym2X=0 I1Cent= 0 IOpClX= 0 NMat=1 NMatS=1 NMatT=0.
 FoFJK:  IHMeth= 1 ICntrl=    2127 DoSepK=F KAlg= 0 I1Cent=           0 FoldK=F
 IRaf=         0 NMat=       1 IRICut=       1 DoRegI=T DoRafI=F ISym2E= 0 IDoP0=0 IntGTp=1.
 FoFCou: FMM=F IPFlag=           0 FMFlag=      100000 FMFlg1=         800
         NFxFlg=           0 DoJE=F BraDBF=F KetDBF=F FulRan=T
         wScrn=  0.000000 ICntrl=      2127 IOpCl=  0 I1Cent=           0 NGrid=           0
         NMat0=    1 NMatS0=      1 NMatT0=    0 NMatD0=    1 NMtDS0=    0 NMtDT0=    0
 Symmetry not used in FoFCou.
 Leave Link  703 at Tue Aug  8 11:07:10 2023, MaxMem=  1610612736 cpu:               5.2 elap:               0.3
 (Enter /home/sekinelabo/g16/l716.exe)
 Dipole        = 1.10298925D+00 2.20703216D-01-6.57361092D-03
 ***** Axes restored to original set *****
 -------------------------------------------------------------------
 Center     Atomic                   Forces (Hartrees/Bohr)
 Number     Number              X              Y              Z
 -------------------------------------------------------------------
      1       11          -0.004485612    0.000003288    0.003161126
      2       11           0.005009338    0.000002036   -0.002093221
      3       11          -0.000512917   -0.000323896    0.006061979
      4       11          -0.000010810    0.000318573   -0.007129883
 -------------------------------------------------------------------
 Cartesian Forces:  Max     0.007129883 RMS     0.003507621
 Z-matrix is all fixed cartesians, so copy forces.
 Force constants in Cartesian coordinates: 
                1             2             3             4             5 
      1  0.100000D+01
      2  0.000000D+00  0.100000D+01
      3  0.000000D+00  0.000000D+00  0.100000D+01
      4  0.000000D+00  0.000000D+00  0.000000D+00  0.100000D+01
      5  0.000000D+00  0.000000D+00  0.000000D+00  0.000000D+00  0.100000D+01
      6  0.000000D+00  0.000000D+00  0.000000D+00  0.000000D+00  0.000000D+00
      7  0.000000D+00  0.000000D+00  0.000000D+00  0.000000D+00  0.000000D+00
      8  0.000000D+00  0.000000D+00  0.000000D+00  0.000000D+00  0.000000D+00
      9  0.000000D+00  0.000000D+00  0.000000D+00  0.000000D+00  0.000000D+00
     10  0.000000D+00  0.000000D+00  0.000000D+00  0.000000D+00  0.000000D+00
     11  0.000000D+00  0.000000D+00  0.000000D+00  0.000000D+00  0.000000D+00
     12  0.000000D+00  0.000000D+00  0.000000D+00  0.000000D+00  0.000000D+00
                6             7             8             9            10 
      6  0.100000D+01
      7  0.000000D+00  0.100000D+01
      8  0.000000D+00  0.000000D+00  0.100000D+01
      9  0.000000D+00  0.000000D+00  0.000000D+00  0.100000D+01
     10  0.000000D+00  0.000000D+00  0.000000D+00  0.000000D+00  0.100000D+01
     11  0.000000D+00  0.000000D+00  0.000000D+00  0.000000D+00  0.000000D+00
     12  0.000000D+00  0.000000D+00  0.000000D+00  0.000000D+00  0.000000D+00
               11            12 
     11  0.100000D+01
     12  0.000000D+00  0.100000D+01
 Leave Link  716 at Tue Aug  8 11:07:10 2023, MaxMem=  1610612736 cpu:               0.4 elap:               0.0
 (Enter /home/sekinelabo/g16/l103.exe)

 GradGradGradGradGradGradGradGradGradGradGradGradGradGradGradGradGradGrad
 Berny optimization.
 Search for a local minimum.
 Step number   1 out of a maximum of    2
 All quantities printed in internal units (Hartrees-Bohrs-Radians)
 Second derivative matrix not updated -- first step.
 The second derivative matrix:
                          X1        Y1        Z1        X2        Y2
           X1           1.00000
           Y1          -0.00000   1.00000
           Z1           0.00000  -0.00000   1.00000
           X2           0.00000   0.00000   0.00000   1.00000
           Y2           0.00000   0.00000   0.00000  -0.00000   1.00000
           Z2           0.00000   0.00000   0.00000   0.00000  -0.00000
           X3           0.00000   0.00000   0.00000   0.00000   0.00000
           Y3           0.00000   0.00000   0.00000   0.00000   0.00000
           Z3           0.00000   0.00000   0.00000   0.00000   0.00000
           X4           0.00000   0.00000   0.00000   0.00000   0.00000
           Y4           0.00000   0.00000   0.00000   0.00000   0.00000
           Z4           0.00000   0.00000   0.00000   0.00000   0.00000
                          Z2        X3        Y3        Z3        X4
           Z2           1.00000
           X3           0.00000   1.00000
           Y3           0.00000  -0.00000   1.00000
           Z3           0.00000   0.00000  -0.00000   1.00000
           X4           0.00000   0.00000   0.00000   0.00000   1.00000
           Y4           0.00000   0.00000   0.00000   0.00000  -0.00000
           Z4           0.00000   0.00000   0.00000   0.00000   0.00000
                          Y4        Z4
           Y4           1.00000
           Z4          -0.00000   1.00000
 ITU=  0
     Eigenvalues ---    1.00000   1.00000   1.00000   1.00000   1.00000
     Eigenvalues ---    1.00000   1.00000   1.00000   1.00000   1.00000
     Eigenvalues ---    1.00000   1.00000
 Angle between quadratic step and forces=   0.00 degrees.
 Linear search not attempted -- first point.
 B after Tr=    -0.000000    0.000000    0.000000
         Rot=    1.000000   -0.000000   -0.000000    0.000000 Ang=   0.00 deg.
 Variable       Old X    -DE/DX   Delta X   Delta X   Delta X     New X
                                 (Linear)    (Quad)   (Total)
    X1        0.00000  -0.00449   0.00000  -0.00449  -0.00449  -0.00449
    Y1        0.00000   0.00000   0.00000   0.00000   0.00000   0.00000
    Z1        0.00000   0.00316   0.00000   0.00316   0.00316   0.00316
    X2       -9.42710   0.00501   0.00000   0.00501   0.00501  -9.42209
    Y2        0.00000   0.00000   0.00000   0.00000   0.00000   0.00000
    Z2        4.99573  -0.00209   0.00000  -0.00209  -0.00209   4.99364
    X3        0.00000  -0.00051   0.00000  -0.00051  -0.00051  -0.00051
    Y3        0.00000  -0.00032   0.00000  -0.00032  -0.00032  -0.00032
    Z3       10.93425   0.00606   0.00000   0.00606   0.00606  10.94031
    X4        0.07464  -0.00001   0.00000  -0.00001  -0.00001   0.07463
    Y4       -0.39798   0.00032   0.00000   0.00032   0.00032  -0.39766
    Z4       19.99389  -0.00713   0.00000  -0.00713  -0.00713  19.98676
         Item               Value     Threshold  Converged?
 Maximum Force            0.007130     0.000450     NO 
 RMS     Force            0.003508     0.000300     NO 
 Maximum Displacement     0.007130     0.001800     NO 
 RMS     Displacement     0.003508     0.001200     NO 
 Predicted change in Energy=-7.382045D-05
 GradGradGradGradGradGradGradGradGradGradGradGradGradGradGradGradGradGrad

 Leave Link  103 at Tue Aug  8 11:07:10 2023, MaxMem=  1610612736 cpu:               0.1 elap:               0.0
 (Enter /home/sekinelabo/g16/l9999.exe)
 1\1\GINC-SEKINELABO-XA7R-R37\Force\RB3LYP\6-311+G(d)\Na4\SEKINELABO\08
 -Aug-2023\0\\#p B3LYP/6-311+g(d) force\\Test\\0,1\Na,0.,0.,0.\Na,-4.98
 86073632,0.,2.643628213\Na,0.,0.,5.7861562932\Na,0.0394985387,-0.21060
 01898,10.5803112831\\Version=ES64L-G16RevB.01\State=1-A\HF=-649.148661
 6\RMSD=5.151e-09\RMSF=3.508e-03\Dipole=-0.4667692,0.0146288,-1.0233528
 \Quadrupole=3.8992809,-6.6937807,2.7944998,0.0108349,-4.8643068,-0.284
 2501\PG=C01 [X(Na4)]\\@


 YOU SHOULDN'T LET PEOPLE DRIVE YOU CRAZY
 WHEN YOU KNOW IT'S WITHIN WALKING DISTANCE.
 Job cpu time:       0 days  0 hours  0 minutes 38.3 seconds.
 Elapsed time:       0 days  0 hours  0 minutes  2.7 seconds.
 File lengths (MBytes):  RWF=     10 Int=      0 D2E=      0 Chk=      2 Scr=      1
 Normal termination of Gaussian 16 at Tue Aug  8 11:07:10 2023.
 Initial command:
 /home/sekinelabo/g16/l1.exe "/home/sekinelabo/g16temp/Gau-19052.inp" -scrdir="/home/sekinelabo/g16temp/"
 Entering Link 1 = /home/sekinelabo/g16/l1.exe PID=     19567.
  
 Copyright (c) 1988-2017, Gaussian, Inc.  All Rights Reserved.
  
 This is part of the Gaussian(R) 16 program.  It is based on
 the Gaussian(R) 09 system (copyright 2009, Gaussian, Inc.),
 the Gaussian(R) 03 system (copyright 2003, Gaussian, Inc.),
 the Gaussian(R) 98 system (copyright 1998, Gaussian, Inc.),
 the Gaussian(R) 94 system (copyright 1995, Gaussian, Inc.),
 the Gaussian 92(TM) system (copyright 1992, Gaussian, Inc.),
 the Gaussian 90(TM) system (copyright 1990, Gaussian, Inc.),
 the Gaussian 88(TM) system (copyright 1988, Gaussian, Inc.),
 the Gaussian 86(TM) system (copyright 1986, Carnegie Mellon
 University), and the Gaussian 82(TM) system (copyright 1983,
 Carnegie Mellon University). Gaussian is a federally registered
 trademark of Gaussian, Inc.
  
 This software contains proprietary and confidential information,
 including trade secrets, belonging to Gaussian, Inc.
  
 This software is provided under written license and may be
 used, copied, transmitted, or stored only in accord with that
 written license.
  
 The following legend is applicable only to US Government
 contracts under FAR:
  
                    RESTRICTED RIGHTS LEGEND
  
 Use, reproduction and disclosure by the US Government is
 subject to restrictions as set forth in subparagraphs (a)
 and (c) of the Commercial Computer Software - Restricted
 Rights clause in FAR 52.227-19.
  
 Gaussian, Inc.
 340 Quinnipiac St., Bldg. 40, Wallingford CT 06492
  
  
 ---------------------------------------------------------------
 Warning -- This program may not be used in any manner that
 competes with the business of Gaussian, Inc. or will provide
 assistance to any competitor of Gaussian, Inc.  The licensee
 of this program is prohibited from giving any competitor of
 Gaussian, Inc. access to this program.  By using this program,
 the user acknowledges that Gaussian, Inc. is engaged in the
 business of creating and licensing software in the field of
 computational chemistry and represents and warrants to the
 licensee that it is not a competitor of Gaussian, Inc. and that
 it will not use this program in any manner prohibited above.
 ---------------------------------------------------------------
  

 Cite this work as:
 Gaussian 16, Revision B.01,
 M. J. Frisch, G. W. Trucks, H. B. Schlegel, G. E. Scuseria, 
 M. A. Robb, J. R. Cheeseman, G. Scalmani, V. Barone, 
 G. A. Petersson, H. Nakatsuji, X. Li, M. Caricato, A. V. Marenich, 
 J. Bloino, B. G. Janesko, R. Gomperts, B. Mennucci, H. P. Hratchian, 
 J. V. Ortiz, A. F. Izmaylov, J. L. Sonnenberg, D. Williams-Young, 
 F. Ding, F. Lipparini, F. Egidi, J. Goings, B. Peng, A. Petrone, 
 T. Henderson, D. Ranasinghe, V. G. Zakrzewski, J. Gao, N. Rega, 
 G. Zheng, W. Liang, M. Hada, M. Ehara, K. Toyota, R. Fukuda, 
 J. Hasegawa, M. Ishida, T. Nakajima, Y. Honda, O. Kitao, H. Nakai, 
 T. Vreven, K. Throssell, J. A. Montgomery, Jr., J. E. Peralta, 
 F. Ogliaro, M. J. Bearpark, J. J. Heyd, E. N. Brothers, K. N. Kudin, 
 V. N. Staroverov, T. A. Keith, R. Kobayashi, J. Normand, 
 K. Raghavachari, A. P. Rendell, J. C. Burant, S. S. Iyengar, 
 J. Tomasi, M. Cossi, J. M. Millam, M. Klene, C. Adamo, R. Cammi, 
 J. W. Ochterski, R. L. Martin, K. Morokuma, O. Farkas, 
 J. B. Foresman, and D. J. Fox, Gaussian, Inc., Wallingford CT, 2016.
 
 ******************************************
 Gaussian 16:  ES64L-G16RevB.01 20-Dec-2017
                 8-Aug-2023 
 ******************************************
 %NProcShared=16
 Will use up to   16 processors via shared memory.
 %mem=12GB
 %Chk=checkpoint.chk
 -------------------------
 #p B3LYP/6-311+g(d) force
 -------------------------
 1/10=7,30=1,38=1/1,3;
 2/12=2,17=6,18=5,40=1/2;
 3/5=4,6=6,7=11,11=2,25=1,30=1,71=1,74=-5/1,2,3;
 4//1;
 5/5=2,38=5/2;
 6/7=2,8=2,9=2,10=2,28=1/1;
 7/29=1/1,2,3,16;
 1/10=7,30=1/3;
 99//99;
 Leave Link    1 at Tue Aug  8 11:07:10 2023, MaxMem=  1610612736 cpu:               0.2 elap:               0.0
 (Enter /home/sekinelabo/g16/l101.exe)
 ----
 Test
 ----
 Symbolic Z-matrix:
 Charge =  0 Multiplicity = 1
 Na                    0.        0.        0. 
 Na                   -0.83301   0.       -4.54266 
 Na                    0.        0.        2.60652 
 Na                    2.84723  -2.31326   2.49605 
 
 ITRead=  0  0  0  0
 MicOpt= -1 -1 -1 -1
 NAtoms=      4 NQM=        4 NQMF=       0 NMMI=      0 NMMIF=      0
                NMic=       0 NMicF=      0.
                    Isotopes and Nuclear Properties:
 (Nuclear quadrupole moments (NQMom) in fm**2, nuclear magnetic moments (NMagM)
  in nuclear magnetons)

  Atom         1           2           3           4
 IAtWgt=          23          23          23          23
 AtmWgt=  22.9897697  22.9897697  22.9897697  22.9897697
 NucSpn=           3           3           3           3
 AtZEff=  -0.0000000  -0.0000000  -0.0000000  -0.0000000
 NQMom=   10.4000000  10.4000000  10.4000000  10.4000000
 NMagM=    2.2175200   2.2175200   2.2175200   2.2175200
 AtZNuc=  11.0000000  11.0000000  11.0000000  11.0000000
 Leave Link  101 at Tue Aug  8 11:07:10 2023, MaxMem=  1610612736 cpu:               1.5 elap:               0.1
 (Enter /home/sekinelabo/g16/l103.exe)

 GradGradGradGradGradGradGradGradGradGradGradGradGradGradGradGradGradGrad
 Berny optimization.
 Initialization pass.
 Trust Radius=3.00D-01 FncErr=1.00D-07 GrdErr=1.00D-07 EigMax=2.50D+02 EigMin=1.00D-04
 Number of steps in this run=      2 maximum allowed number of steps=      2.
 GradGradGradGradGradGradGradGradGradGradGradGradGradGradGradGradGradGrad

 Leave Link  103 at Tue Aug  8 11:07:10 2023, MaxMem=  1610612736 cpu:               0.2 elap:               0.0
 (Enter /home/sekinelabo/g16/l202.exe)
                          Input orientation:                          
 ---------------------------------------------------------------------
 Center     Atomic      Atomic             Coordinates (Angstroms)
 Number     Number       Type             X           Y           Z
 ---------------------------------------------------------------------
      1         11           0        0.000000    0.000000    0.000000
      2         11           0       -0.833009    0.000000   -4.542659
      3         11           0        0.000000    0.000000    2.606521
      4         11           0        2.847232   -2.313262    2.496052
 ---------------------------------------------------------------------
                    Distance matrix (angstroms):
                    1          2          3          4
     1  Na   0.000000
     2  Na   4.618404   0.000000
     3  Na   2.606521   7.197547   0.000000
     4  Na   4.437137   8.272775   3.670165   0.000000
 Stoichiometry    Na4
 Framework group  C1[X(Na4)]
 Deg. of freedom     6
 Full point group                 C1      NOp   1
 Largest Abelian subgroup         C1      NOp   1
[...]
 RMSDP=1.43D-03 MaxDP=4.51D-02 DE=-8.40D-03 OVMax= 6.05D-02

 Cycle   4  Pass 1  IDiag  1:
 E= -649.201430355159     Delta-E=        0.000494699789 Rises=F Damp=F
 DIIS: error= 2.10D-03 at cycle   4 NSaved=   4.
 NSaved= 4 IEnMin= 3 EnMin= -649.201925054948     IErMin= 3 ErrMin= 1.41D-03
 ErrMax= 2.10D-03  0.00D+00 EMaxC= 1.00D-01 BMatC= 1.66D-04 BMatP= 7.73D-05
 IDIUse=3 WtCom= 1.79D-01 WtEn= 8.21D-01
 Coeff-Com:  0.139D-01-0.171D-01 0.599D+00 0.404D+00
 Coeff-En:   0.000D+00 0.000D+00 0.676D+00 0.324D+00
 Coeff:      0.249D-02-0.306D-02 0.662D+00 0.338D+00
 Gap=     0.049 Goal=   None    Shift=    0.000
 RMSDP=7.46D-04 MaxDP=2.65D-02 DE= 4.95D-04 OVMax= 2.97D-02

 Cycle   5  Pass 1  IDiag  1:
 E= -649.202257849208     Delta-E=       -0.000827494049 Rises=F Damp=F
 DIIS: error= 2.96D-04 at cycle   5 NSaved=   5.
 NSaved= 5 IEnMin= 5 EnMin= -649.202257849208     IErMin= 5 ErrMin= 2.96D-04
 ErrMax= 2.96D-04  0.00D+00 EMaxC= 1.00D-01 BMatC= 3.45D-06 BMatP= 7.73D-05
 IDIUse=3 WtCom= 9.97D-01 WtEn= 2.96D-03
 Coeff-Com: -0.450D-02 0.559D-02 0.161D+00-0.892D-02 0.847D+00
 Coeff-En:   0.000D+00 0.000D+00 0.000D+00 0.000D+00 0.100D+01
 Coeff:     -0.448D-02 0.557D-02 0.160D+00-0.889D-02 0.847D+00
 Gap=     0.049 Goal=   None    Shift=    0.000
 RMSDP=1.91D-04 MaxDP=5.49D-03 DE=-8.27D-04 OVMax= 5.07D-03

 Cycle   6  Pass 1  IDiag  1:
 E= -649.202273253966     Delta-E=       -0.000015404758 Rises=F Damp=F
 DIIS: error= 1.03D-05 at cycle   6 NSaved=   6.
 NSaved= 6 IEnMin= 6 EnMin= -649.202273253966     IErMin= 6 ErrMin= 1.03D-05
 ErrMax= 1.03D-05  0.00D+00 EMaxC= 1.00D-01 BMatC= 1.01D-08 BMatP= 3.45D-06
 IDIUse=1 WtCom= 1.00D+00 WtEn= 0.00D+00
 Coeff-Com: -0.203D-02 0.259D-02 0.583D-02-0.756D-02 0.972D-01 0.904D+00
 Coeff:     -0.203D-02 0.259D-02 0.583D-02-0.756D-02 0.972D-01 0.904D+00
 Gap=     0.049 Goal=   None    Shift=    0.000
 RMSDP=1.55D-05 MaxDP=4.04D-04 DE=-1.54D-05 OVMax= 4.76D-04

 Cycle   7  Pass 1  IDiag  1:
 E= -649.202273275660     Delta-E=       -0.000000021693 Rises=F Damp=F
 DIIS: error= 6.57D-06 at cycle   7 NSaved=   7.
 NSaved= 7 IEnMin= 7 EnMin= -649.202273275660     IErMin= 7 ErrMin= 6.57D-06
 ErrMax= 6.57D-06  0.00D+00 EMaxC= 1.00D-01 BMatC= 2.47D-09 BMatP= 1.01D-08
 IDIUse=1 WtCom= 1.00D+00 WtEn= 0.00D+00
 Coeff-Com: -0.610D-03 0.781D-03-0.418D-02-0.397D-02 0.546D-02 0.364D+00
 Coeff-Com:  0.639D+00
 Coeff:     -0.610D-03 0.781D-03-0.418D-02-0.397D-02 0.546D-02 0.364D+00
 Coeff:      0.639D+00
 Gap=     0.049 Goal=   None    Shift=    0.000
 RMSDP=5.78D-06 MaxDP=1.92D-04 DE=-2.17D-08 OVMax= 2.99D-04

 Cycle   8  Pass 1  IDiag  1:
 E= -649.202273293520     Delta-E=       -0.000000017861 Rises=F Damp=F
 DIIS: error= 2.18D-06 at cycle   8 NSaved=   8.
 NSaved= 8 IEnMin= 8 EnMin= -649.202273293520     IErMin= 8 ErrMin= 2.18D-06
 ErrMax= 2.18D-06  0.00D+00 EMaxC= 1.00D-01 BMatC= 2.81D-10 BMatP= 2.47D-09
 IDIUse=1 WtCom= 1.00D+00 WtEn= 0.00D+00
 Coeff-Com: -0.633D-04 0.765D-04-0.236D-02-0.740D-03-0.689D-02 0.107D+00
 Coeff-Com:  0.289D+00 0.614D+00
 Coeff:     -0.633D-04 0.765D-04-0.236D-02-0.740D-03-0.689D-02 0.107D+00
 Coeff:      0.289D+00 0.614D+00
 Gap=     0.049 Goal=   None    Shift=    0.000
 RMSDP=2.61D-06 MaxDP=6.15D-05 DE=-1.79D-08 OVMax= 8.91D-05

 Cycle   9  Pass 1  IDiag  1:
 E= -649.202273294976     Delta-E=       -0.000000001456 Rises=F Damp=F
 DIIS: error= 7.92D-07 at cycle   9 NSaved=   9.
 NSaved= 9 IEnMin= 9 EnMin= -649.202273294976     IErMin= 9 ErrMin= 7.92D-07
 ErrMax= 7.92D-07  0.00D+00 EMaxC= 1.00D-01 BMatC= 5.74D-11 BMatP= 2.81D-10
 IDIUse=1 WtCom= 1.00D+00 WtEn= 0.00D+00
 Coeff-Com:  0.125D-03-0.165D-03-0.551D-03 0.522D-03-0.561D-02-0.224D-01
 Coeff-Com:  0.360D-01 0.322D+00 0.670D+00
 Coeff:      0.125D-03-0.165D-03-0.551D-03 0.522D-03-0.561D-02-0.224D-01
 Coeff:      0.360D-01 0.322D+00 0.670D+00
 Gap=     0.049 Goal=   None    Shift=    0.000
 RMSDP=7.07D-07 MaxDP=1.71D-05 DE=-1.46D-09 OVMax= 1.76D-05

 Cycle  10  Pass 1  IDiag  1:
 E= -649.202273295184     Delta-E=       -0.000000000208 Rises=F Damp=F
 DIIS: error= 6.52D-08 at cycle  10 NSaved=  10.
 NSaved=10 IEnMin=10 EnMin= -649.202273295184     IErMin=10 ErrMin= 6.52D-08
 ErrMax= 6.52D-08  0.00D+00 EMaxC= 1.00D-01 BMatC= 8.27D-13 BMatP= 5.74D-11
 IDIUse=1 WtCom= 1.00D+00 WtEn= 0.00D+00
 Coeff-Com:  0.417D-04-0.545D-04-0.540D-04 0.216D-03-0.143D-02-0.124D-01
 Coeff-Com: -0.526D-03 0.813D-01 0.186D+00 0.747D+00
 Coeff:      0.417D-04-0.545D-04-0.540D-04 0.216D-03-0.143D-02-0.124D-01
 Coeff:     -0.526D-03 0.813D-01 0.186D+00 0.747D+00
 Gap=     0.049 Goal=   None    Shift=    0.000
 RMSDP=2.01D-07 MaxDP=4.75D-06 DE=-2.08D-10 OVMax= 1.50D-06

 Cycle  11  Pass 1  IDiag  1:
 E= -649.202273295184     Delta-E=        0.000000000001 Rises=F Damp=F
 DIIS: error= 9.46D-09 at cycle  11 NSaved=  11.
 NSaved=11 IEnMin=10 EnMin= -649.202273295184     IErMin=11 ErrMin= 9.46D-09
 ErrMax= 9.46D-09  0.00D+00 EMaxC= 1.00D-01 BMatC= 2.67D-14 BMatP= 8.27D-13
 IDIUse=1 WtCom= 1.00D+00 WtEn= 0.00D+00
 Coeff-Com: -0.576D-05 0.764D-05 0.213D-04-0.168D-04 0.238D-03 0.255D-03
 Coeff-Com: -0.228D-02-0.929D-02-0.159D-01 0.867D-01 0.940D+00
 Coeff:     -0.576D-05 0.764D-05 0.213D-04-0.168D-04 0.238D-03 0.255D-03
 Coeff:     -0.228D-02-0.929D-02-0.159D-01 0.867D-01 0.940D+00
 Gap=     0.049 Goal=   None    Shift=    0.000
 RMSDP=5.47D-08 MaxDP=1.09D-06 DE= 5.68D-13 OVMax= 2.91D-07

 Cycle  12  Pass 1  IDiag  1:
 E= -649.202273295186     Delta-E=       -0.000000000003 Rises=F Damp=F
 DIIS: error= 2.31D-09 at cycle  12 NSaved=  12.
 NSaved=12 IEnMin=12 EnMin= -649.202273295186     IErMin=12 ErrMin= 2.31D-09
 ErrMax= 2.31D-09  0.00D+00 EMaxC= 1.00D-01 BMatC= 1.61D-15 BMatP= 2.67D-14
 IDIUse=1 WtCom= 1.00D+00 WtEn= 0.00D+00
 Coeff-Com: -0.245D-05 0.323D-05 0.661D-05-0.969D-05 0.101D-03 0.304D-03
 Coeff-Com: -0.631D-03-0.436D-02-0.744D-02-0.551D-02 0.269D+00 0.748D+00
 Coeff:     -0.245D-05 0.323D-05 0.661D-05-0.969D-05 0.101D-03 0.304D-03
 Coeff:     -0.631D-03-0.436D-02-0.744D-02-0.551D-02 0.269D+00 0.748D+00
 Gap=     0.049 Goal=   None    Shift=    0.000
 RMSDP=8.81D-09 MaxDP=2.35D-07 DE=-2.84D-12 OVMax= 1.36D-07

 SCF Done:  E(RB3LYP) =  -649.202273295     A.U. after   12 cycles
            NFock= 12  Conv=0.88D-08     -V/T= 2.0029
 KE= 6.473229890557D+02 PE=-1.721085180297D+03 EE= 3.436768264018D+02
 Leave Link  502 at Tue Aug  8 11:07:30 2023, MaxMem=  1610612736 cpu:              17.9 elap:               1.3
 (Enter /home/sekinelabo/g16/l601.exe)
 Copying SCF densities to generalized density rwf, IOpCl= 0 IROHF=0.

 **********************************************************************

            Population analysis using the SCF Density.

 **********************************************************************

 Orbital symmetries:
       Occupied  (A) (A) (A) (A) (A) (A) (A) (A) (A) (A) (A) (A)
                 (A) (A) (A) (A) (A) (A) (A) (A) (A) (A)
       Virtual   (A) (A) (A) (A) (A) (A) (A) (A) (A) (A) (A) (A)
                 (A) (A) (A) (A) (A) (A) (A) (A) (A) (A) (A) (A)
                 (A) (A) (A) (A) (A) (A) (A) (A) (A) (A) (A) (A)
                 (A) (A) (A) (A) (A) (A) (A) (A) (A) (A) (A) (A)
                 (A) (A) (A) (A) (A) (A) (A) (A) (A) (A) (A) (A)
                 (A) (A) (A) (A) (A) (A) (A) (A) (A) (A) (A) (A)
                 (A) (A) (A) (A) (A) (A) (A) (A) (A) (A) (A) (A)
                 (A) (A) (A) (A) (A) (A) (A) (A) (A) (A) (A) (A)
                 (A) (A)
 The electronic state is 1-A.
 Alpha  occ. eigenvalues --  -38.45065 -38.44846 -38.44333 -38.44090  -2.20806
 Alpha  occ. eigenvalues --   -2.20627  -2.20087  -2.19884  -1.14474  -1.14474
 Alpha  occ. eigenvalues --   -1.14438  -1.14305  -1.14280  -1.14280  -1.13765
 Alpha  occ. eigenvalues --   -1.13765  -1.13712  -1.13548  -1.13548  -1.13529
 Alpha  occ. eigenvalues --   -0.14167  -0.12477
 Alpha virt. eigenvalues --   -0.07586  -0.04095  -0.02936  -0.02930  -0.01922
 Alpha virt. eigenvalues --   -0.01864  -0.01279   0.00134   0.00195   0.00307
 Alpha virt. eigenvalues --    0.00321   0.01069   0.01261   0.01295   0.01318
 Alpha virt. eigenvalues --    0.01385   0.01401   0.02312   0.02376   0.02496
 Alpha virt. eigenvalues --    0.02513   0.02770   0.03017   0.03396   0.03830
 Alpha virt. eigenvalues --    0.04007   0.04324   0.04461   0.05407   0.05463
 Alpha virt. eigenvalues --    0.07161   0.07276   0.07465   0.07838   0.08155
 Alpha virt. eigenvalues --    0.08390   0.08511   0.09313   0.09466   0.10547
 Alpha virt. eigenvalues --    0.10746   0.12064   0.13624   0.15020   0.15792
 Alpha virt. eigenvalues --    0.18183   0.28030   0.28122   0.31518   0.31947
 Alpha virt. eigenvalues --    0.32413   0.32890   0.32956   0.34028   0.34044
 Alpha virt. eigenvalues --    0.36560   0.36644   0.37982   0.38086   0.38737
 Alpha virt. eigenvalues --    0.41352   0.42939   0.43144   0.43153   0.43363
 Alpha virt. eigenvalues --    0.43693   0.44343   0.44764   0.44888   0.45204
 Alpha virt. eigenvalues --    0.45513   0.45778   0.47297   0.49409   0.49742
 Alpha virt. eigenvalues --    0.51558   0.60842   0.70850   1.99999   2.08471
 Alpha virt. eigenvalues --    2.12070   2.15669   4.42235   4.43568   4.43584
 Alpha virt. eigenvalues --    4.43829   4.43877   4.44153   4.45234   4.45390
 Alpha virt. eigenvalues --    4.46187   4.46472   4.52906   4.63289  96.18714
 Alpha virt. eigenvalues --   96.29182  96.33763  96.37772
          Condensed to atoms (all electrons):
               1          2          3          4
     1  Na  12.071695   0.059218  -0.105608  -0.429053
     2  Na   0.059218  10.927026  -0.577011  -0.002242
     3  Na  -0.105608  -0.577011  11.828092   0.256050
     4  Na  -0.429053  -0.002242   0.256050  10.770480
 Mulliken charges:
               1
     1  Na  -0.596252
     2  Na   0.593009
     3  Na  -0.401523
     4  Na   0.404765
 Sum of Mulliken charges =  -0.00000
 Mulliken charges with hydrogens summed into heavy atoms:
               1
     1  Na  -0.596252
     2  Na   0.593009
     3  Na  -0.401523
     4  Na   0.404765
 Electronic spatial extent (au):  <R**2>=           2399.1343
 Charge=             -0.0000 electrons
 Dipole moment (field-independent basis, Debye):
    X=              0.0140    Y=             -0.3134    Z=             -0.0125  Tot=              0.3140
 Quadrupole moment (field-independent basis, Debye-Ang):
   XX=            -16.3841   YY=            -42.9690   ZZ=            -44.0510
   XY=              0.2187   XZ=             -0.9535   YZ=              0.0099
 Traceless Quadrupole moment (field-independent basis, Debye-Ang):
   XX=             18.0839   YY=             -8.5010   ZZ=             -9.5830
   XY=              0.2187   XZ=             -0.9535   YZ=              0.0099
 Octapole moment (field-independent basis, Debye-Ang**2):
  XXX=             -6.6525  YYY=             -0.8319  ZZZ=             -0.0210  XYY=              0.7825
  XXY=            -37.4102  XXZ=             -0.9090  XZZ=              1.0215  YZZ=             -0.2339
  YYZ=             -0.0339  XYZ=              0.8766
 Hexadecapole moment (field-independent basis, Debye-Ang**3):
 XXXX=          -2159.1142 YYYY=           -210.4435 ZZZZ=           -183.9391 XXXY=             10.7416
 XXXZ=            -41.2125 YYYX=              0.7958 YYYZ=             -0.0047 ZZZX=             -4.3224
 ZZZY=              0.0049 XXYY=           -657.3375 XXZZ=           -671.6965 YYZZ=            -65.7533
 XXYZ=              0.5509 YYXZ=             -1.3925 ZZXY=              0.3245
 N-N= 8.088309154432D+01 E-N=-1.721085180177D+03  KE= 6.473229890557D+02
 No NMR shielding tensors so no spin-rotation constants.
 Leave Link  601 at Tue Aug  8 11:07:30 2023, MaxMem=  1610612736 cpu:               1.1 elap:               0.1
 (Enter /home/sekinelabo/g16/l701.exe)
 ... and contract with generalized density number  0.
 Compute integral first derivatives.
 Leave Link  701 at Tue Aug  8 11:07:31 2023, MaxMem=  1610612736 cpu:               1.4 elap:               0.1
 (Enter /home/sekinelabo/g16/l702.exe)
 L702 exits ... SP integral derivatives will be done elsewhere.
 Leave Link  702 at Tue Aug  8 11:07:31 2023, MaxMem=  1610612736 cpu:               0.3 elap:               0.0
 (Enter /home/sekinelabo/g16/l703.exe)
 Integral derivatives from FoFJK, PRISM(SPDF).
 Compute integral first derivatives, UseDBF=F ICtDFT=           0.
 Calling FoFJK, ICntrl=      2127 FMM=F ISym2X=0 I1Cent= 0 IOpClX= 0 NMat=1 NMatS=1 NMatT=0.
 FoFJK:  IHMeth= 1 ICntrl=    2127 DoSepK=F KAlg= 0 I1Cent=           0 FoldK=F
 IRaf=         0 NMat=       1 IRICut=       1 DoRegI=T DoRafI=F ISym2E= 0 IDoP0=0 IntGTp=1.
 FoFCou: FMM=F IPFlag=           0 FMFlag=      100000 FMFlg1=         800
         NFxFlg=           0 DoJE=F BraDBF=F KetDBF=F FulRan=T
         wScrn=  0.000000 ICntrl=      2127 IOpCl=  0 I1Cent=           0 NGrid=           0
         NMat0=    1 NMatS0=      1 NMatT0=    0 NMatD0=    1 NMtDS0=    0 NMtDT0=    0
 Symmetry not used in FoFCou.
 Leave Link  703 at Tue Aug  8 11:07:31 2023, MaxMem=  1610612736 cpu:               5.7 elap:               0.4
 (Enter /home/sekinelabo/g16/l716.exe)
 Dipole        = 5.52211728D-03-1.23314386D-01-4.92437499D-03
 ***** Axes restored to original set *****
 -------------------------------------------------------------------
 Center     Atomic                   Forces (Hartrees/Bohr)
 Number     Number              X              Y              Z
 -------------------------------------------------------------------
      1       11           0.000054811   -0.000055941    0.001109073
      2       11          -0.000041244    0.000036519   -0.000275179
      3       11          -0.000829668   -0.001090668    0.003626811
      4       11           0.000816101    0.001110091   -0.004460705
 -------------------------------------------------------------------
 Cartesian Forces:  Max     0.004460705 RMS     0.001782854
 Z-matrix is all fixed cartesians, so copy forces.
 Force constants in Cartesian coordinates: 
                1             2             3             4             5 
      1  0.271376D-01
      2  0.943619D-03  0.846896D-02
      3  0.461380D-02  0.000000D+00  0.440172D-01
      4 -0.146888D-01  0.000000D+00 -0.606842D-02  0.892574D-02
      5  0.605915D-03 -0.244784D-02  0.000000D+00  0.000000D+00  0.113577D-02
      6 -0.461380D-02  0.000000D+00 -0.314363D-01  0.606842D-02  0.000000D+00
      7 -0.145267D-01 -0.182843D-02  0.145462D-02  0.576303D-02 -0.131488D-02
      8 -0.369589D-02 -0.105226D-01  0.000000D+00  0.000000D+00  0.181149D-02
      9 -0.889751D-03 -0.126307D-02 -0.125809D-01  0.000000D+00  0.000000D+00
     10  0.207788D-02  0.884813D-03  0.000000D+00  0.000000D+00  0.708965D-03
     11  0.214636D-02  0.450149D-02  0.000000D+00  0.000000D+00 -0.499421D-03
     12  0.889751D-03  0.126307D-02  0.000000D+00  0.000000D+00  0.000000D+00
                6             7             8             9            10 
      6  0.314363D-01
      7 -0.145462D-02  0.136739D-01
      8  0.000000D+00  0.837038D-02  0.177486D-01
      9  0.000000D+00 -0.142020D-02 -0.201607D-02  0.318821D-01
     10  0.000000D+00 -0.491020D-02 -0.467448D-02  0.230995D-02  0.283232D-02
     11  0.000000D+00 -0.522706D-02 -0.903751D-02  0.327914D-02  0.308071D-02
     12  0.000000D+00  0.142020D-02  0.201607D-02 -0.193012D-01 -0.230995D-02
               11            12 
     11  0.503544D-02
     12 -0.327914D-02  0.193012D-01
 Leave Link  716 at Tue Aug  8 11:07:31 2023, MaxMem=  1610612736 cpu:               0.3 elap:               0.0
 (Enter /home/sekinelabo/g16/l103.exe)

 GradGradGradGradGradGradGradGradGradGradGradGradGradGradGradGradGradGrad
 Berny optimization.
 Search for a local minimum.
 Step number   1 out of a maximum of    2
 All quantities printed in internal units (Hartrees-Bohrs-Radians)
 Second derivative matrix not updated -- first step.
 The second derivative matrix:
                          X1        Y1        Z1        X2        Y2
           X1           0.02714
           Y1           0.00094   0.00847
           Z1           0.00461  -0.00000   0.04402
           X2          -0.01469   0.00000  -0.00607   0.00893
           Y2           0.00061  -0.00245   0.00000  -0.00000   0.00114
           Z2          -0.00461   0.00000  -0.03144   0.00607  -0.00000
           X3          -0.01453  -0.00183   0.00145   0.00576  -0.00131
           Y3          -0.00370  -0.01052   0.00000  -0.00000   0.00181
           Z3          -0.00089  -0.00126  -0.01258   0.00000   0.00000
           X4           0.00208   0.00088  -0.00000  -0.00000   0.00071
           Y4           0.00215   0.00450  -0.00000   0.00000  -0.00050
           Z4           0.00089   0.00126  -0.00000  -0.00000   0.00000
                          Z2        X3        Y3        Z3        X4
           Z2           0.03144
           X3          -0.00145   0.01367
           Y3           0.00000   0.00837   0.01775
           Z3          -0.00000  -0.00142  -0.00202   0.03188
           X4          -0.00000  -0.00491  -0.00467   0.00231   0.00283
           Y4           0.00000  -0.00523  -0.00904   0.00328   0.00308
           Z4           0.00000   0.00142   0.00202  -0.01930  -0.00231
                          Y4        Z4
           Y4           0.00504
           Z4          -0.00328   0.01930
 ITU=  0
     Eigenvalues ---    0.00652   0.01018   0.02738   0.04214   0.05013
     Eigenvalues ---    0.07525
 Angle between quadratic step and forces=  39.40 degrees.
 Linear search not attempted -- first point.
 B after Tr=     0.000000    0.000000    0.000000
         Rot=    1.000000   -0.000000    0.000000   -0.000000 Ang=   0.00 deg.
 Variable       Old X    -DE/DX   Delta X   Delta X   Delta X     New X
                                 (Linear)    (Quad)   (Total)
    X1        0.00000   0.00005   0.00000  -0.00673  -0.00673  -0.00673
    Y1        0.00000  -0.00006   0.00000  -0.01569  -0.01569  -0.01569
    Z1       -0.00000   0.00111   0.00000   0.09084   0.09084   0.09084
    X2       -1.42304  -0.00004   0.00000   0.00690   0.00690  -1.41614
    Y2        0.00000   0.00004   0.00000   0.00055   0.00055   0.00055
    Z2       -5.63791  -0.00028   0.00000   0.07873   0.07873  -5.55917
    X3       -0.00000  -0.00083   0.00000  -0.02225  -0.02225  -0.02225
    Y3       -0.00000  -0.00109   0.00000  -0.01547  -0.01547  -0.01547
    Z3        7.23350   0.00363   0.00000   0.02455   0.02455   7.25806
    X4       -1.07332   0.00082   0.00000   0.02208   0.02208  -1.05124
    Y4       -1.52365   0.00111   0.00000   0.03062   0.03062  -1.49303
    Z4       13.41560  -0.00446   0.00000  -0.19412  -0.19412  13.22148
         Item               Value     Threshold  Converged?
 Maximum Force            0.004461     0.000450     NO 
 RMS     Force            0.001783     0.000300     NO 
 Maximum Displacement     0.194122     0.001800     NO 
 RMS     Displacement     0.067845     0.001200     NO 
 Predicted change in Energy=-5.608194D-04
 GradGradGradGradGradGradGradGradGradGradGradGradGradGradGradGradGradGrad

 Leave Link  103 at Tue Aug  8 11:07:31 2023, MaxMem=  1610612736 cpu:               0.2 elap:               0.0
 (Enter /home/sekinelabo/g16/l9999.exe)
 1\1\GINC-SEKINELABO-XA7R-R37\Force\RB3LYP\6-311+G(d)\Na4\SEKINELABO\08
 -Aug-2023\0\\#p B3LYP/6-311+g(d) force\\Test\\0,1\Na,0.,0.,0.\Na,-0.75
 30427111,0.,-2.9834522096\Na,0.,0.,3.8278052136\Na,-0.5679752036,-0.80
 62821847,7.0992304112\\Version=ES64L-G16RevB.01\State=1-A\HF=-649.2022
 733\RMSD=8.805e-09\RMSF=1.783e-03\Dipole=-0.1073951,-0.0604851,-0.0083
 081\Quadrupole=-6.5271662,-6.7069724,13.2341386,0.3099867,0.5425123,-2
 .1237821\PG=C01 [X(Na4)]\\@


 Any fool can criticize, condemn, and complain -- and most do.
 -- Dale Carnegie
 Job cpu time:       0 days  0 hours  0 minutes 33.0 seconds.
 Elapsed time:       0 days  0 hours  0 minutes  2.3 seconds.
 File lengths (MBytes):  RWF=     10 Int=      0 D2E=      0 Chk=      2 Scr=      1
 Normal termination of Gaussian 16 at Tue Aug  8 11:07:31 2023.
