 Entering Gaussian System, Link 0=g16
 Initial command:
 /home/sekinelabo/g16/l1.exe "/home/sekinelabo/g16temp/Gau-708996.inp" -scrdir="/home/sekinelabo/g16temp/"
 Entering Link 1 = /home/sekinelabo/g16/l1.exe PID=    709001.
  
 Copyright (c) 1988-2017, Gaussian, Inc.  All Rights Reserved.
  
 This is part of the Gaussian(R) 16 program.  It is based on
 the Gaussian(R) 09 system (copyright 2009, Gaussian, Inc.),
 the Gaussian(R) 03 system (copyright 2003, Gaussian, Inc.),
 the Gaussian(R) 98 system (copyright 1998, Gaussian, Inc.),
 the Gaussian(R) 94 system (copyright 1995, Gaussian, Inc.),
 the Gaussian 92(TM) system (copyright 1992, Gaussian, Inc.),
 the Gaussian 90(TM) system (copyright 1990, Gaussian, Inc.),
 the Gaussian 88(TM) system (copyright 1988, Gaussian, Inc.),
 the Gaussian 86(TM) system (copyright 1986, Carnegie Mellon
 University), and the Gaussian 82(TM) system (copyright 1983,
 Carnegie Mellon University). Gaussian is a federally registered
 trademark of Gaussian, Inc.
  
 This software contains proprietary and confidential information,
 including trade secrets, belonging to Gaussian, Inc.
  
 This software is provided under written license and may be
 used, copied, transmitted, or stored only in accord with that
 written license.
  
 The following legend is applicable only to US Government
 contracts under FAR:
  
                    RESTRICTED RIGHTS LEGEND
  
 Use, reproduction and disclosure by the US Government is
 subject to restrictions as set forth in subparagraphs (a)
 and (c) of the Commercial Computer Software - Restricted
 Rights clause in FAR 52.227-19.
  
 Gaussian, Inc.
 340 Quinnipiac St., Bldg. 40, Wallingford CT 06492
  
  
 ---------------------------------------------------------------
 Warning -- This program may not be used in any manner that
 competes with the business of Gaussian, Inc. or will provide
 assistance to any competitor of Gaussian, Inc.  The licensee
 of this program is prohibited from giving any competitor of
 Gaussian, Inc. access to this program.  By using this program,
 the user acknowledges that Gaussian, Inc. is engaged in the
 business of creating and licensing software in the field of
 computational chemistry and represents and warrants to the
 licensee that it is not a competitor of Gaussian, Inc. and that
 it will not use this program in any manner prohibited above.
 ---------------------------------------------------------------
  

 Cite this work as:
 Gaussian 16, Revision B.01,
 M. J. Frisch, G. W. Trucks, H. B. Schlegel, G. E. Scuseria, 
 M. A. Robb, J. R. Cheeseman, G. Scalmani, V. Barone, 
 G. A. Petersson, H. Nakatsuji, X. Li, M. Caricato, A. V. Marenich, 
 J. Bloino, B. G. Janesko, R. Gomperts, B. Mennucci, H. P. Hratchian, 
 J. V. Ortiz, A. F. Izmaylov, J. L. Sonnenberg, D. Williams-Young, 
 F. Ding, F. Lipparini, F. Egidi, J. Goings, B. Peng, A. Petrone, 
 T. Henderson, D. Ranasinghe, V. G. Zakrzewski, J. Gao, N. Rega, 
 G. Zheng, W. Liang, M. Hada, M. Ehara, K. Toyota, R. Fukuda, 
 J. Hasegawa, M. Ishida, T. Nakajima, Y. Honda, O. Kitao, H. Nakai, 
 T. Vreven, K. Throssell, J. A. Montgomery, Jr., J. E. Peralta, 
 F. Ogliaro, M. J. Bearpark, J. J. Heyd, E. N. Brothers, K. N. Kudin, 
 V. N. Staroverov, T. A. Keith, R. Kobayashi, J. Normand, 
 K. Raghavachari, A. P. Rendell, J. C. Burant, S. S. Iyengar, 
 J. Tomasi, M. Cossi, J. M. Millam, M. Klene, C. Adamo, R. Cammi, 
 J. W. Ochterski, R. L. Martin, K. Morokuma, O. Farkas, 
 J. B. Foresman, and D. J. Fox, Gaussian, Inc., Wallingford CT, 2016.
 
 ******************************************
 Gaussian 16:  ES64L-G16RevB.01 20-Dec-2017
                 6-Oct-2023 
 ******************************************
 %NProcShared=16
 Will use up to   16 processors via shared memory.
 %mem=12GB
 %Chk=checkpoint.chk
 -------------------------
 #p B3LYP/6-311+g(d) force
 -------------------------
 1/10=7,30=1,38=1/1,3;
 2/12=2,17=6,18=5,40=1/2;
 3/5=4,6=6,7=11,11=2,25=1,30=1,71=1,74=-5/1,2,3;
 4//1;
 5/5=2,38=5/2;
 6/7=2,8=2,9=2,10=2,28=1/1;
 7/29=1/1,2,3,16;
 1/10=7,30=1/3;
 99//99;
 Leave Link    1 at Fri Oct  6 21:59:35 2023, MaxMem=  1610612736 cpu:               0.5 elap:               0.3
 (Enter /home/sekinelabo/g16/l101.exe)


 Symbolic Z-matrix:
 Charge =  0 Multiplicity = 1
 Na                    0.        0.        0. 
 Na                   -2.81632   0.       -2.81197 
 Na                    0.        0.        3.50114 
 Na                    2.00853  -0.31088   7.56777 
 
 ITRead=  0  0  0  0
 MicOpt= -1 -1 -1 -1
 NAtoms=      4 NQM=        4 NQMF=       0 NMMI=      0 NMMIF=      0
                NMic=       0 NMicF=      0.
                    Isotopes and Nuclear Properties:
 (Nuclear quadrupole moments (NQMom) in fm**2, nuclear magnetic moments (NMagM)
  in nuclear magnetons)

  Atom         1           2           3           4
 IAtWgt=          23          23          23          23
 AtmWgt=  22.9897697  22.9897697  22.9897697  22.9897697
 NucSpn=           3           3           3           3
 AtZEff=  -0.0000000  -0.0000000  -0.0000000  -0.0000000
 NQMom=   10.4000000  10.4000000  10.4000000  10.4000000
 NMagM=    2.2175200   2.2175200   2.2175200   2.2175200
 AtZNuc=  11.0000000  11.0000000  11.0000000  11.0000000
 Leave Link  101 at Fri Oct  6 21:59:36 2023, MaxMem=  1610612736 cpu:               2.1 elap:               1.2
 (Enter /home/sekinelabo/g16/l103.exe)

 GradGradGradGradGradGradGradGradGradGradGradGradGradGradGradGradGradGrad
 Berny optimization.
 Initialization pass.
 Trust Radius=3.00D-01 FncErr=1.00D-07 GrdErr=1.00D-07 EigMax=2.50D+02 EigMin=1.00D-04
 Number of steps in this run=      2 maximum allowed number of steps=      2.
 GradGradGradGradGradGradGradGradGradGradGradGradGradGradGradGradGradGrad

 Leave Link  103 at Fri Oct  6 21:59:36 2023, MaxMem=  1610612736 cpu:               0.6 elap:               0.3
 (Enter /home/sekinelabo/g16/l202.exe)
                          Input orientation:                          
 ---------------------------------------------------------------------
 Center     Atomic      Atomic             Coordinates (Angstroms)
 Number     Number       Type             X           Y           Z
 ---------------------------------------------------------------------
      1         11           0        0.000000    0.000000    0.000000
      2         11           0       -2.816320    0.000000   -2.811972
      3         11           0        0.000000    0.000000    3.501136
      4         11           0        2.008534   -0.310879    7.567775
 ---------------------------------------------------------------------
                    Distance matrix (angstroms):
                    1          2          3          4
     1  Na   0.000000
     2  Na   3.979805   0.000000
     3  Na   3.501136   6.912813   0.000000
     4  Na   7.835947  11.450546   4.546252   0.000000
 Stoichiometry    Na4
 Framework group  C1[X(Na4)]
 Deg. of freedom     6
 Full point group                 C1      NOp   1
 Largest Abelian subgroup         C1      NOp   1
 Largest concise Abelian subgroup C1      NOp   1
                         Standard orientation:                         
 ---------------------------------------------------------------------
 Center     Atomic      Atomic             Coordinates (Angstroms)
 Number     Number       Type             X           Y           Z
 ---------------------------------------------------------------------
      1         11           0       -1.826318    0.986087    0.009176
      2         11           0       -5.508341   -0.523046   -0.054595
      3         11           0        1.400470   -0.367812    0.122085
      4         11           0        5.934188   -0.095228   -0.076665
 ---------------------------------------------------------------------
 Rotational constants (GHZ):          15.5449141           0.3101538           0.3042874
 Leave Link  202 at Fri Oct  6 21:59:37 2023, MaxMem=  1610612736 cpu:               1.2 elap:               0.8
 (Enter /home/sekinelabo/g16/l301.exe)
 Standard basis: 6-311+G(d) (5D, 7F)
 Ernie: Thresh=  0.10000D-02 Tol=  0.10000D-05 Strict=F.
 There are   124 symmetry adapted cartesian basis functions of A   symmetry.
 There are   120 symmetry adapted basis functions of A   symmetry.
   120 basis functions,   200 primitive gaussians,   124 cartesian basis functions
    22 alpha electrons       22 beta electrons
       nuclear repulsion energy        71.4874028843 Hartrees.
 IExCor=  402 DFT=T Ex+Corr=B3LYP ExCW=0 ScaHFX=  0.200000
 ScaDFX=  0.800000  0.720000  1.000000  0.810000 ScalE2=  1.000000  1.000000
 IRadAn=      5 IRanWt=     -1 IRanGd=            0 ICorTp=0 IEmpDi=  4
 NAtoms=    4 NActive=    4 NUniq=    4 SFac= 1.00D+00 NAtFMM=   60 NAOKFM=F Big=F
 Integral buffers will be    131072 words long.
 Raffenetti 2 integral format.
 Two-electron integral symmetry is turned on.
 Leave Link  301 at Fri Oct  6 21:59:38 2023, MaxMem=  1610612736 cpu:               0.6 elap:               0.4
 (Enter /home/sekinelabo/g16/l302.exe)
 NPDir=0 NMtPBC=     1 NCelOv=     1 NCel=       1 NClECP=     1 NCelD=      1
         NCelK=      1 NCelE2=     1 NClLst=     1 CellRange=     0.0.
 One-electron integrals computed using PRISM.
 One-electron integral symmetry used in STVInt
 NBasis=   120 RedAO= T EigKep=  7.28D-05  NBF=   120
 NBsUse=   120 1.00D-06 EigRej= -1.00D+00 NBFU=   120
 Precomputing XC quadrature grid using
 IXCGrd= 4 IRadAn=           5 IRanWt=          -1 IRanGd=           0 AccXCQ= 0.00D+00.
 Generated NRdTot=       0 NPtTot=           0 NUsed=           0 NTot=          32
 NSgBfM=   112   112   112   112   112 MxSgAt=     4 MxSgA2=     4.
 Leave Link  302 at Fri Oct  6 21:59:50 2023, MaxMem=  1610612736 cpu:              19.6 elap:              12.0
 (Enter /home/sekinelabo/g16/l303.exe)
 DipDrv:  MaxL=1.
 Leave Link  303 at Fri Oct  6 21:59:51 2023, MaxMem=  1610612736 cpu:               2.9 elap:               1.8
 (Enter /home/sekinelabo/g16/l401.exe)
 ExpMin= 7.60D-03 ExpMax= 3.62D+04 ExpMxC= 1.21D+03 IAcc=3 IRadAn=         5 AccDes= 0.00D+00
 Harris functional with IExCor=  402 and IRadAn=       5 diagonalized for initial guess.
 HarFok:  IExCor=  402 AccDes= 0.00D+00 IRadAn=         5 IDoV= 1 UseB2=F ITyADJ=14
 ICtDFT=  3500011 ScaDFX=  1.000000  1.000000  1.000000  1.000000
 FoFCou: FMM=F IPFlag=           0 FMFlag=      100000 FMFlg1=           0
         NFxFlg=           0 DoJE=T BraDBF=F KetDBF=T FulRan=T
         wScrn=  0.000000 ICntrl=       500 IOpCl=  0 I1Cent=   200000004 NGrid=           0
         NMat0=    1 NMatS0=      1 NMatT0=    0 NMatD0=    1 NMtDS0=    0 NMtDT0=    0
 Petite list used in FoFCou.
 Harris En= -649.055637612535    
 JPrj=0 DoOrth=F DoCkMO=F.
 Leave Link  401 at Fri Oct  6 22:00:00 2023, MaxMem=  1610612736 cpu:              14.0 elap:               8.5
 (Enter /home/sekinelabo/g16/l502.exe)
 Keep R1 ints in memory in canonical form, NReq=41581754.
 FoFCou: FMM=F IPFlag=           0 FMFlag=           0 FMFlg1=           0
         NFxFlg=           0 DoJE=F BraDBF=F KetDBF=F FulRan=T
         wScrn=  0.000000 ICntrl=       600 IOpCl=  0 I1Cent=           0 NGrid=           0
         NMat0=    1 NMatS0=   7260 NMatT0=    0 NMatD0=    1 NMtDS0=    0 NMtDT0=    0
 Symmetry not used in FoFCou.
 Two-electron integral symmetry not used.
 Closed shell SCF:
 Using DIIS extrapolation, IDIIS=  1040.
 NGot=  1610612736 LenX=  1584221388 LenY=  1584205571
 Requested convergence on RMS density matrix=1.00D-08 within 128 cycles.
 Requested convergence on MAX density matrix=1.00D-06.
 Requested convergence on             energy=1.00D-06.
 No special actions if energy rises.

 Cycle   1  Pass 1  IDiag  1:
 E= -649.165639153350    
 DIIS: error= 1.22D-02 at cycle   1 NSaved=   1.
 NSaved= 1 IEnMin= 1 EnMin= -649.165639153350     IErMin= 1 ErrMin= 1.22D-02
 ErrMax= 1.22D-02  0.00D+00 EMaxC= 1.00D-01 BMatC= 2.69D-02 BMatP= 2.69D-02
 IDIUse=3 WtCom= 8.78D-01 WtEn= 1.22D-01
 Coeff-Com:  0.100D+01
 Coeff-En:   0.100D+01
 Coeff:      0.100D+01
 Gap=     0.027 Goal=   None    Shift=    0.000
 GapD=    0.027 DampG=0.250 DampE=0.500 DampFc=0.2500 IDamp=-1.
 Damping current iteration by 2.50D-01
 RMSDP=5.19D-03 MaxDP=2.32D-01              OVMax= 3.80D-01

 Cycle   2  Pass 1  IDiag  1:
 E= -649.170749792819     Delta-E=       -0.005110639469 Rises=F Damp=T
 DIIS: error= 8.46D-03 at cycle   2 NSaved=   2.
 NSaved= 2 IEnMin= 2 EnMin= -649.170749792819     IErMin= 2 ErrMin= 8.46D-03
 ErrMax= 8.46D-03  0.00D+00 EMaxC= 1.00D-01 BMatC= 1.01D-02 BMatP= 2.69D-02
 IDIUse=3 WtCom= 9.15D-01 WtEn= 8.46D-02
 Coeff-Com: -0.117D+01 0.217D+01
 Coeff-En:   0.000D+00 0.100D+01
 Coeff:     -0.107D+01 0.207D+01
 Gap=     0.034 Goal=   None    Shift=    0.000
 RMSDP=4.04D-03 MaxDP=1.99D-01 DE=-5.11D-03 OVMax= 5.58D-01

 Cycle   3  Pass 1  IDiag  1:
 E= -649.140001763490     Delta-E=        0.030748029329 Rises=F Damp=F
 DIIS: error= 1.32D-02 at cycle   3 NSaved=   3.
 NSaved= 3 IEnMin= 2 EnMin= -649.170749792819     IErMin= 2 ErrMin= 8.46D-03
 ErrMax= 1.32D-02  0.00D+00 EMaxC= 1.00D-01 BMatC= 4.41D-03 BMatP= 1.01D-02
 IDIUse=3 WtCom= 8.68D-01 WtEn= 1.32D-01
 Coeff-Com: -0.708D+00 0.126D+01 0.446D+00
 Coeff-En:   0.000D+00 0.956D+00 0.438D-01
 Coeff:     -0.615D+00 0.122D+01 0.393D+00
 Gap=     0.017 Goal=   None    Shift=    0.000
 RMSDP=5.96D-03 MaxDP=3.41D-01 DE= 3.07D-02 OVMax= 4.85D-01

 Cycle   4  Pass 1  IDiag  1:
 E= -649.147414763017     Delta-E=       -0.007412999526 Rises=F Damp=F
 DIIS: error= 1.15D-02 at cycle   4 NSaved=   4.
 NSaved= 4 IEnMin= 2 EnMin= -649.170749792819     IErMin= 2 ErrMin= 8.46D-03
 ErrMax= 1.15D-02  0.00D+00 EMaxC= 1.00D-01 BMatC= 3.46D-03 BMatP= 4.41D-03
 IDIUse=3 WtCom= 8.85D-01 WtEn= 1.15D-01
 Coeff-Com: -0.171D+00 0.339D+00 0.412D+00 0.419D+00
 Coeff-En:   0.000D+00 0.000D+00 0.468D+00 0.532D+00
 Coeff:     -0.151D+00 0.300D+00 0.419D+00 0.432D+00
 Gap=     0.029 Goal=   None    Shift=    0.000
 RMSDP=3.69D-03 MaxDP=1.90D-01 DE=-7.41D-03 OVMax= 3.51D-01

 Cycle   5  Pass 1  IDiag  1:
 E= -649.176960737758     Delta-E=       -0.029545974741 Rises=F Damp=F
 DIIS: error= 3.94D-03 at cycle   5 NSaved=   5.
 NSaved= 5 IEnMin= 5 EnMin= -649.176960737758     IErMin= 5 ErrMin= 3.94D-03
 ErrMax= 3.94D-03  0.00D+00 EMaxC= 1.00D-01 BMatC= 6.65D-04 BMatP= 3.46D-03
 IDIUse=3 WtCom= 9.61D-01 WtEn= 3.94D-02
 EnCoef did     8 forward-backward iterations
 Coeff-Com:  0.240D-01-0.213D-01 0.230D+00 0.295D+00 0.473D+00
 Coeff-En:   0.000D+00 0.000D+00 0.184D-01 0.149D+00 0.833D+00
 Coeff:      0.230D-01-0.205D-01 0.221D+00 0.289D+00 0.487D+00
 Gap=     0.029 Goal=   None    Shift=    0.000
 RMSDP=1.64D-03 MaxDP=1.01D-01 DE=-2.95D-02 OVMax= 1.29D-01

 Cycle   6  Pass 1  IDiag  1:
 E= -649.180654629377     Delta-E=       -0.003693891619 Rises=F Damp=F
 DIIS: error= 2.00D-03 at cycle   6 NSaved=   6.
 NSaved= 6 IEnMin= 6 EnMin= -649.180654629377     IErMin= 6 ErrMin= 2.00D-03
 ErrMax= 2.00D-03  0.00D+00 EMaxC= 1.00D-01 BMatC= 1.22D-04 BMatP= 6.65D-04
 IDIUse=3 WtCom= 9.80D-01 WtEn= 2.00D-02
 Coeff-Com: -0.142D-01 0.182D-01 0.365D-01-0.134D-01 0.271D+00 0.702D+00
 Coeff-En:   0.000D+00 0.000D+00 0.000D+00 0.000D+00 0.229D+00 0.771D+00
 Coeff:     -0.139D-01 0.179D-01 0.357D-01-0.131D-01 0.270D+00 0.703D+00
 Gap=     0.029 Goal=   None    Shift=    0.000
 RMSDP=4.77D-04 MaxDP=2.48D-02 DE=-3.69D-03 OVMax= 3.44D-02

 Cycle   7  Pass 1  IDiag  1:
 E= -649.181501356910     Delta-E=       -0.000846727533 Rises=F Damp=F
 DIIS: error= 7.15D-04 at cycle   7 NSaved=   7.
 NSaved= 7 IEnMin= 7 EnMin= -649.181501356910     IErMin= 7 ErrMin= 7.15D-04
 ErrMax= 7.15D-04  0.00D+00 EMaxC= 1.00D-01 BMatC= 1.18D-05 BMatP= 1.22D-04
 IDIUse=3 WtCom= 9.93D-01 WtEn= 7.15D-03
 Coeff-Com: -0.161D-02 0.124D-02 0.263D-01-0.285D-01 0.742D-01 0.216D+00
 Coeff-Com:  0.713D+00
 Coeff-En:   0.000D+00 0.000D+00 0.000D+00 0.000D+00 0.000D+00 0.000D+00
 Coeff-En:   0.100D+01
 Coeff:     -0.160D-02 0.123D-02 0.261D-01-0.283D-01 0.737D-01 0.214D+00
 Coeff:      0.715D+00
 Gap=     0.029 Goal=   None    Shift=    0.000
 RMSDP=1.21D-04 MaxDP=6.21D-03 DE=-8.47D-04 OVMax= 1.02D-02

 Cycle   8  Pass 1  IDiag  1:
 E= -649.181581577975     Delta-E=       -0.000080221065 Rises=F Damp=F
 DIIS: error= 3.19D-04 at cycle   8 NSaved=   8.
 NSaved= 8 IEnMin= 8 EnMin= -649.181581577975     IErMin= 8 ErrMin= 3.19D-04
 ErrMax= 3.19D-04  0.00D+00 EMaxC= 1.00D-01 BMatC= 2.13D-06 BMatP= 1.18D-05
 IDIUse=3 WtCom= 9.97D-01 WtEn= 3.19D-03
 Coeff-Com:  0.190D-02-0.273D-02 0.145D-01-0.125D-01 0.770D-02 0.156D-01
 Coeff-Com:  0.842D-01 0.891D+00
 Coeff-En:   0.000D+00 0.000D+00 0.000D+00 0.000D+00 0.000D+00 0.000D+00
 Coeff-En:   0.000D+00 0.100D+01
 Coeff:      0.190D-02-0.272D-02 0.145D-01-0.124D-01 0.768D-02 0.155D-01
 Coeff:      0.840D-01 0.892D+00
 Gap=     0.029 Goal=   None    Shift=    0.000
 RMSDP=3.72D-05 MaxDP=2.02D-03 DE=-8.02D-05 OVMax= 3.42D-03

 Cycle   9  Pass 1  IDiag  1:
 E= -649.181594887154     Delta-E=       -0.000013309179 Rises=F Damp=F
 DIIS: error= 1.68D-04 at cycle   9 NSaved=   9.
 NSaved= 9 IEnMin= 9 EnMin= -649.181594887154     IErMin= 9 ErrMin= 1.68D-04
 ErrMax= 1.68D-04  0.00D+00 EMaxC= 1.00D-01 BMatC= 5.32D-07 BMatP= 2.13D-06
 IDIUse=3 WtCom= 9.98D-01 WtEn= 1.68D-03
 Coeff-Com:  0.129D-02-0.180D-02 0.458D-02-0.196D-02-0.451D-03-0.249D-01
 Coeff-Com: -0.850D-01 0.378D-01 0.107D+01
 Coeff-En:   0.000D+00 0.000D+00 0.000D+00 0.000D+00 0.000D+00 0.000D+00
 Coeff-En:   0.000D+00 0.000D+00 0.100D+01
 Coeff:      0.129D-02-0.180D-02 0.458D-02-0.196D-02-0.450D-03-0.248D-01
 Coeff:     -0.848D-01 0.377D-01 0.107D+01
 Gap=     0.029 Goal=   None    Shift=    0.000
 RMSDP=2.93D-05 MaxDP=1.53D-03 DE=-1.33D-05 OVMax= 2.85D-03

 Cycle  10  Pass 1  IDiag  1:
 E= -649.181599275277     Delta-E=       -0.000004388124 Rises=F Damp=F
 DIIS: error= 4.49D-05 at cycle  10 NSaved=  10.
 NSaved=10 IEnMin=10 EnMin= -649.181599275277     IErMin=10 ErrMin= 4.49D-05
 ErrMax= 4.49D-05  0.00D+00 EMaxC= 1.00D-01 BMatC= 3.51D-08 BMatP= 5.32D-07
 IDIUse=1 WtCom= 1.00D+00 WtEn= 0.00D+00
 Coeff-Com:  0.390D-03-0.515D-03 0.912D-03 0.514D-03-0.629D-03-0.146D-01
 Coeff-Com: -0.678D-01-0.766D-01 0.443D+00 0.715D+00
 Coeff:      0.390D-03-0.515D-03 0.912D-03 0.514D-03-0.629D-03-0.146D-01
 Coeff:     -0.678D-01-0.766D-01 0.443D+00 0.715D+00
 Gap=     0.029 Goal=   None    Shift=    0.000
 RMSDP=8.76D-06 MaxDP=4.77D-04 DE=-4.39D-06 OVMax= 9.42D-04

 Cycle  11  Pass 1  IDiag  1:
 E= -649.181599586112     Delta-E=       -0.000000310835 Rises=F Damp=F
 DIIS: error= 1.60D-06 at cycle  11 NSaved=  11.
 NSaved=11 IEnMin=11 EnMin= -649.181599586112     IErMin=11 ErrMin= 1.60D-06
 ErrMax= 1.60D-06  0.00D+00 EMaxC= 1.00D-01 BMatC= 2.87D-10 BMatP= 3.51D-08
 IDIUse=1 WtCom= 1.00D+00 WtEn= 0.00D+00
 Coeff-Com: -0.659D-04 0.849D-04 0.876D-04 0.803D-04 0.101D-02 0.983D-03
 Coeff-Com: -0.382D-02-0.156D-01 0.900D-02 0.162D+00 0.846D+00
 Coeff:     -0.659D-04 0.849D-04 0.876D-04 0.803D-04 0.101D-02 0.983D-03
 Coeff:     -0.382D-02-0.156D-01 0.900D-02 0.162D+00 0.846D+00
 Gap=     0.029 Goal=   None    Shift=    0.000
 RMSDP=1.47D-06 MaxDP=3.59D-05 DE=-3.11D-07 OVMax= 4.93D-05

 Cycle  12  Pass 1  IDiag  1:
 E= -649.181599587335     Delta-E=       -0.000000001222 Rises=F Damp=F
 DIIS: error= 9.77D-07 at cycle  12 NSaved=  12.
 NSaved=12 IEnMin=12 EnMin= -649.181599587335     IErMin=12 ErrMin= 9.77D-07
 ErrMax= 9.77D-07  0.00D+00 EMaxC= 1.00D-01 BMatC= 2.34D-11 BMatP= 2.87D-10
 IDIUse=1 WtCom= 1.00D+00 WtEn= 0.00D+00
 Coeff-Com: -0.973D-05 0.122D-04-0.100D-04 0.253D-04 0.163D-03 0.290D-03
 Coeff-Com:  0.145D-05 0.220D-02-0.971D-02-0.137D-01 0.176D-01 0.100D+01
 Coeff:     -0.973D-05 0.122D-04-0.100D-04 0.253D-04 0.163D-03 0.290D-03
 Coeff:      0.145D-05 0.220D-02-0.971D-02-0.137D-01 0.176D-01 0.100D+01
 Gap=     0.029 Goal=   None    Shift=    0.000
 RMSDP=4.69D-07 MaxDP=1.46D-05 DE=-1.22D-09 OVMax= 3.07D-05

 Cycle  13  Pass 1  IDiag  1:
 E= -649.181599587528     Delta-E=       -0.000000000193 Rises=F Damp=F
 DIIS: error= 2.74D-07 at cycle  13 NSaved=  13.
 NSaved=13 IEnMin=13 EnMin= -649.181599587528     IErMin=13 ErrMin= 2.74D-07
 ErrMax= 2.74D-07  0.00D+00 EMaxC= 1.00D-01 BMatC= 2.89D-12 BMatP= 2.34D-11
 IDIUse=1 WtCom= 1.00D+00 WtEn= 0.00D+00
 Coeff-Com: -0.135D-05 0.155D-05 0.659D-05-0.668D-05 0.574D-04 0.970D-04
 Coeff-Com:  0.180D-03 0.167D-02-0.102D-02-0.939D-02-0.295D-01 0.258D+00
 Coeff-Com:  0.780D+00
 Coeff:     -0.135D-05 0.155D-05 0.659D-05-0.668D-05 0.574D-04 0.970D-04
 Coeff:      0.180D-03 0.167D-02-0.102D-02-0.939D-02-0.295D-01 0.258D+00
 Coeff:      0.780D+00
 Gap=     0.029 Goal=   None    Shift=    0.000
 RMSDP=1.36D-07 MaxDP=6.28D-06 DE=-1.93D-10 OVMax= 1.05D-05

 Cycle  14  Pass 1  IDiag  1:
 E= -649.181599587548     Delta-E=       -0.000000000020 Rises=F Damp=F
 DIIS: error= 1.37D-07 at cycle  14 NSaved=  14.
 NSaved=14 IEnMin=14 EnMin= -649.181599587548     IErMin=14 ErrMin= 1.37D-07
 ErrMax= 1.37D-07  0.00D+00 EMaxC= 1.00D-01 BMatC= 5.64D-13 BMatP= 2.89D-12
 IDIUse=1 WtCom= 1.00D+00 WtEn= 0.00D+00
 Coeff-Com:  0.831D-06-0.113D-05-0.824D-06 0.641D-06-0.441D-05-0.193D-04
 Coeff-Com: -0.814D-04-0.428D-03 0.972D-03 0.446D-03-0.135D-01-0.384D-01
 Coeff-Com:  0.244D+00 0.807D+00
 Coeff:      0.831D-06-0.113D-05-0.824D-06 0.641D-06-0.441D-05-0.193D-04
 Coeff:     -0.814D-04-0.428D-03 0.972D-03 0.446D-03-0.135D-01-0.384D-01
 Coeff:      0.244D+00 0.807D+00
 Gap=     0.029 Goal=   None    Shift=    0.000
 RMSDP=5.52D-08 MaxDP=2.74D-06 DE=-2.03D-11 OVMax= 3.98D-06

 Cycle  15  Pass 1  IDiag  1:
 E= -649.181599587553     Delta-E=       -0.000000000005 Rises=F Damp=F
 DIIS: error= 1.92D-08 at cycle  15 NSaved=  15.
 NSaved=15 IEnMin=15 EnMin= -649.181599587553     IErMin=15 ErrMin= 1.92D-08
 ErrMax= 1.92D-08  0.00D+00 EMaxC= 1.00D-01 BMatC= 8.90D-15 BMatP= 5.64D-13
 IDIUse=1 WtCom= 1.00D+00 WtEn= 0.00D+00
 Coeff-Com: -0.160D-06 0.208D-06 0.923D-07-0.515D-06 0.450D-06 0.319D-05
 Coeff-Com:  0.266D-05-0.469D-04 0.102D-03 0.272D-03 0.493D-03-0.114D-01
 Coeff-Com: -0.704D-02 0.888D-01 0.929D+00
 Coeff:     -0.160D-06 0.208D-06 0.923D-07-0.515D-06 0.450D-06 0.319D-05
 Coeff:      0.266D-05-0.469D-04 0.102D-03 0.272D-03 0.493D-03-0.114D-01
 Coeff:     -0.704D-02 0.888D-01 0.929D+00
 Gap=     0.029 Goal=   None    Shift=    0.000
 RMSDP=6.83D-09 MaxDP=3.31D-07 DE=-5.23D-12 OVMax= 6.47D-07

 SCF Done:  E(RB3LYP) =  -649.181599588     A.U. after   15 cycles
            NFock= 15  Conv=0.68D-08     -V/T= 2.0030
 KE= 6.472293450165D+02 PE=-1.701881833773D+03 EE= 3.339834862846D+02
 Leave Link  502 at Fri Oct  6 22:01:40 2023, MaxMem=  1610612736 cpu:             159.2 elap:              99.6
 (Enter /home/sekinelabo/g16/l601.exe)
 Copying SCF densities to generalized density rwf, IOpCl= 0 IROHF=0.

 **********************************************************************

            Population analysis using the SCF Density.

 **********************************************************************

 Orbital symmetries:
       Occupied  (A) (A) (A) (A) (A) (A) (A) (A) (A) (A) (A) (A)
                 (A) (A) (A) (A) (A) (A) (A) (A) (A) (A)
       Virtual   (A) (A) (A) (A) (A) (A) (A) (A) (A) (A) (A) (A)
                 (A) (A) (A) (A) (A) (A) (A) (A) (A) (A) (A) (A)
                 (A) (A) (A) (A) (A) (A) (A) (A) (A) (A) (A) (A)
                 (A) (A) (A) (A) (A) (A) (A) (A) (A) (A) (A) (A)
                 (A) (A) (A) (A) (A) (A) (A) (A) (A) (A) (A) (A)
                 (A) (A) (A) (A) (A) (A) (A) (A) (A) (A) (A) (A)
                 (A) (A) (A) (A) (A) (A) (A) (A) (A) (A) (A) (A)
                 (A) (A) (A) (A) (A) (A) (A) (A) (A) (A) (A) (A)
                 (A) (A)
 The electronic state is 1-A.
 Alpha  occ. eigenvalues --  -38.46012 -38.45882 -38.45093 -38.44778  -2.21694
 Alpha  occ. eigenvalues --   -2.21579  -2.20809  -2.20515  -1.15372  -1.15372
 Alpha  occ. eigenvalues --   -1.15325  -1.15257  -1.15256  -1.15206  -1.14498
 Alpha  occ. eigenvalues --   -1.14497  -1.14430  -1.14203  -1.14196  -1.14130
 Alpha  occ. eigenvalues --   -0.13778  -0.11578
 Alpha virt. eigenvalues --   -0.08641  -0.05181  -0.02822  -0.02772  -0.02187
 Alpha virt. eigenvalues --   -0.01784  -0.01470  -0.00711  -0.00433  -0.00100
 Alpha virt. eigenvalues --    0.00134   0.00922   0.01091   0.01135   0.01222
 Alpha virt. eigenvalues --    0.01274   0.01344   0.01664   0.01828   0.02004
 Alpha virt. eigenvalues --    0.02181   0.02296   0.02594   0.02744   0.02978
 Alpha virt. eigenvalues --    0.03032   0.03177   0.03982   0.04446   0.04984
 Alpha virt. eigenvalues --    0.07159   0.07506   0.07526   0.07897   0.08041
 Alpha virt. eigenvalues --    0.08209   0.08390   0.08665   0.08806   0.09047
 Alpha virt. eigenvalues --    0.09873   0.10483   0.11486   0.12562   0.13475
 Alpha virt. eigenvalues --    0.15343   0.29250   0.29453   0.30033   0.32465
 Alpha virt. eigenvalues --    0.32957   0.34397   0.34426   0.34496   0.34515
 Alpha virt. eigenvalues --    0.34758   0.34873   0.35742   0.35944   0.37087
 Alpha virt. eigenvalues --    0.37435   0.38468   0.39970   0.41839   0.42610
 Alpha virt. eigenvalues --    0.42732   0.43029   0.43693   0.43836   0.44337
 Alpha virt. eigenvalues --    0.44356   0.45665   0.45683   0.46542   0.48443
 Alpha virt. eigenvalues --    0.50533   0.51351   0.57200   1.98767   2.03418
 Alpha virt. eigenvalues --    2.06058   2.12215   4.42807   4.42831   4.43094
 Alpha virt. eigenvalues --    4.43112   4.43180   4.43468   4.44228   4.44574
 Alpha virt. eigenvalues --    4.44793   4.45601   4.47241   4.51082  96.17319
 Alpha virt. eigenvalues --   96.22935  96.26057  96.33357
          Condensed to atoms (all electrons):
               1          2          3          4
     1  Na  10.771486   0.287634   0.001152  -0.113385
     2  Na   0.287634  10.819699  -0.130273  -0.021527
     3  Na   0.001152  -0.130273  10.979890   0.257580
     4  Na  -0.113385  -0.021527   0.257580  10.866564
 Mulliken charges:
               1
     1  Na   0.053113
     2  Na   0.044467
     3  Na  -0.108349
     4  Na   0.010769
 Sum of Mulliken charges =  -0.00000
 Mulliken charges with hydrogens summed into heavy atoms:
               1
     1  Na   0.053113
     2  Na   0.044467
     3  Na  -0.108349
     4  Na   0.010769
 Electronic spatial extent (au):  <R**2>=           2917.3463
 Charge=             -0.0000 electrons
 Dipole moment (field-independent basis, Debye):
    X=             -0.4582    Y=             -0.2033    Z=             -0.0341  Tot=              0.5025
 Quadrupole moment (field-independent basis, Debye-Ang):
   XX=            -17.9009   YY=            -42.4809   ZZ=            -45.2873
   XY=              3.0647   XZ=             -0.1816   YZ=             -0.0649
 Traceless Quadrupole moment (field-independent basis, Debye-Ang):
   XX=             17.3221   YY=             -7.2579   ZZ=            -10.0642
   XY=              3.0647   XZ=             -0.1816   YZ=             -0.0649
 Octapole moment (field-independent basis, Debye-Ang**2):
  XXX=              2.0004  YYY=              2.2432  ZZZ=              0.0479  XYY=             -9.3099
  XXY=            -24.3561  XXZ=             -5.0672  XZZ=             -3.0142  YZZ=              0.0783
  YYZ=              0.0371  XYZ=             -0.4130
 Hexadecapole moment (field-independent basis, Debye-Ang**3):
 XXXX=          -2949.5334 YYYY=           -259.8393 ZZZZ=           -200.7156 XXXY=            186.7358
 XXXZ=            -12.3759 YYYX=             12.2027 YYYZ=             -0.3445 ZZZX=             -0.8287
 ZZZY=             -0.4214 XXYY=           -834.1915 XXZZ=           -843.7914 YYZZ=            -77.0716
 XXYZ=              1.8147 YYXZ=             -0.1390 ZZXY=              4.8349
 N-N= 7.148740288429D+01 E-N=-1.701881832860D+03  KE= 6.472293450165D+02
 No NMR shielding tensors so no spin-rotation constants.
 Leave Link  601 at Fri Oct  6 22:01:45 2023, MaxMem=  1610612736 cpu:               8.5 elap:               5.2
 (Enter /home/sekinelabo/g16/l701.exe)
 ... and contract with generalized density number  0.
 Compute integral first derivatives.
 Leave Link  701 at Fri Oct  6 22:01:50 2023, MaxMem=  1610612736 cpu:               7.7 elap:               4.8
 (Enter /home/sekinelabo/g16/l702.exe)
 L702 exits ... SP integral derivatives will be done elsewhere.
 Leave Link  702 at Fri Oct  6 22:01:50 2023, MaxMem=  1610612736 cpu:               0.6 elap:               0.3
 (Enter /home/sekinelabo/g16/l703.exe)
 Integral derivatives from FoFJK, PRISM(SPDF).
 Compute integral first derivatives, UseDBF=F ICtDFT=           0.
 Calling FoFJK, ICntrl=      2127 FMM=F ISym2X=0 I1Cent= 0 IOpClX= 0 NMat=1 NMatS=1 NMatT=0.
 FoFJK:  IHMeth= 1 ICntrl=    2127 DoSepK=F KAlg= 0 I1Cent=           0 FoldK=F
 IRaf=         0 NMat=       1 IRICut=       1 DoRegI=T DoRafI=F ISym2E= 0 IDoP0=0 IntGTp=1.
 FoFCou: FMM=F IPFlag=           0 FMFlag=      100000 FMFlg1=         800
         NFxFlg=           0 DoJE=F BraDBF=F KetDBF=F FulRan=T
         wScrn=  0.000000 ICntrl=      2127 IOpCl=  0 I1Cent=           0 NGrid=           0
         NMat0=    1 NMatS0=      1 NMatT0=    0 NMatD0=    1 NMtDS0=    0 NMtDT0=    0
 Symmetry not used in FoFCou.
 Leave Link  703 at Fri Oct  6 22:01:58 2023, MaxMem=  1610612736 cpu:              12.1 elap:               7.4
 (Enter /home/sekinelabo/g16/l716.exe)
 Dipole        =-1.80285527D-01-7.99717948D-02-1.33985883D-02
 ***** Axes restored to original set *****
 -------------------------------------------------------------------
 Center     Atomic                   Forces (Hartrees/Bohr)
 Number     Number              X              Y              Z
 -------------------------------------------------------------------
      1       11          -0.004406501   -0.000007628   -0.003332391
      2       11           0.004517709    0.000006810    0.004599763
      3       11           0.002696694   -0.000443269    0.004487023
      4       11          -0.002807902    0.000444087   -0.005754395
 -------------------------------------------------------------------
 Cartesian Forces:  Max     0.005754395 RMS     0.003426445
 Z-matrix is all fixed cartesians, so copy forces.
 Force constants in Cartesian coordinates: 
                1             2             3             4             5 
      1  0.204650D-01
      2 -0.955062D-02  0.998840D+00
      3 -0.725797D-03  0.322302D-01  0.270233D-01
      4 -0.111126D-01  0.000000D+00 -0.313781D-02  0.765395D-02
      5  0.000000D+00  0.000000D+00  0.000000D+00 -0.955084D-02  0.998862D+00
      6  0.417621D-03  0.000000D+00 -0.755293D-02  0.282962D-02  0.322309D-01
      7 -0.926110D-02  0.000000D+00  0.355543D-02  0.354994D-02  0.000000D+00
      8  0.000000D+00  0.000000D+00  0.000000D+00  0.000000D+00  0.000000D+00
      9  0.000000D+00  0.000000D+00 -0.184304D-01  0.000000D+00  0.000000D+00
     10  0.000000D+00  0.000000D+00  0.000000D+00  0.000000D+00  0.000000D+00
     11  0.000000D+00  0.000000D+00  0.000000D+00  0.000000D+00  0.000000D+00
     12  0.000000D+00  0.000000D+00  0.000000D+00  0.000000D+00  0.000000D+00
                6             7             8             9            10 
      6  0.859294D-02
      7 -0.355543D-02  0.580248D-02
      8  0.000000D+00 -0.955071D-02  0.998849D+00
      9  0.000000D+00 -0.308179D-03  0.322305D-01  0.194704D-01
     10  0.000000D+00  0.000000D+00  0.000000D+00  0.000000D+00  0.100000D+01
     11  0.000000D+00  0.000000D+00  0.000000D+00  0.000000D+00  0.000000D+00
     12  0.000000D+00  0.000000D+00  0.000000D+00  0.000000D+00  0.000000D+00
               11            12 
     11  0.100000D+01
     12  0.000000D+00  0.100000D+01
 Leave Link  716 at Fri Oct  6 22:01:58 2023, MaxMem=  1610612736 cpu:               0.7 elap:               0.5
 (Enter /home/sekinelabo/g16/l103.exe)

 GradGradGradGradGradGradGradGradGradGradGradGradGradGradGradGradGradGrad
 Berny optimization.
 Search for a local minimum.
 Step number   1 out of a maximum of    2
 All quantities printed in internal units (Hartrees-Bohrs-Radians)
 Second derivative matrix not updated -- first step.
 The second derivative matrix:
                          X1        Y1        Z1        X2        Y2
           X1           0.02046
           Y1          -0.00955   0.99884
           Z1          -0.00073   0.03223   0.02702
           X2          -0.01111  -0.00000  -0.00314   0.00765
           Y2          -0.00000  -0.00000  -0.00000  -0.00955   0.99886
           Z2           0.00042   0.00000  -0.00755   0.00283   0.03223
           X3          -0.00926   0.00000   0.00356   0.00355   0.00000
           Y3          -0.00000   0.00000   0.00000  -0.00000   0.00000
           Z3          -0.00000   0.00000  -0.01843   0.00000   0.00000
           X4           0.00000   0.00000   0.00000   0.00000   0.00000
           Y4           0.00000   0.00000   0.00000   0.00000   0.00000
           Z4           0.00000   0.00000   0.00000   0.00000   0.00000
                          Z2        X3        Y3        Z3        X4
           Z2           0.00859
           X3          -0.00356   0.00580
           Y3           0.00000  -0.00955   0.99885
           Z3          -0.00000  -0.00031   0.03223   0.01947
           X4           0.00000   0.00000   0.00000   0.00000   1.00000
           Y4           0.00000   0.00000   0.00000   0.00000   0.00000
           Z4           0.00000   0.00000   0.00000   0.00000   0.00000
                          Y4        Z4
           Y4           1.00000
           Z4           0.00000   1.00000
 ITU=  0
     Eigenvalues ---    0.01267   0.03073   0.04340   0.27416   0.75003
     Eigenvalues ---    1.00000
 Quadratic step=3.009D-01 exceeds max=3.000D-01 adjusted using Lamda= 0.000D+00.
 Angle between NR and scaled steps=   0.00 degrees.
 Angle between quadratic step and forces=  41.21 degrees.
 Linear search not attempted -- first point.
 B after Tr=    -0.000000   -0.000000    0.000000
         Rot=    1.000000    0.000000   -0.000000    0.000000 Ang=   0.00 deg.
 Variable       Old X    -DE/DX   Delta X   Delta X   Delta X     New X
                                 (Linear)    (Quad)   (Total)
    X1        0.00000  -0.00441   0.00000  -0.17246  -0.17246  -0.17246
    Y1        0.00000  -0.00001   0.00000   0.00048   0.00048   0.00048
    Z1       -0.00000  -0.00333   0.00000  -0.13613  -0.13613  -0.13613
    X2       -5.32207   0.00452   0.00000   0.15388   0.15388  -5.16819
    Y2        0.00000   0.00001   0.00000  -0.00067  -0.00067  -0.00067
    Z2       -5.31386   0.00460   0.00000   0.13349   0.13349  -5.18037
    X3        0.00000   0.00270   0.00000   0.02407   0.02407   0.02407
    Y3        0.00000  -0.00044   0.00000   0.00028   0.00028   0.00028
    Z3        6.61619   0.00449   0.00000   0.00964   0.00964   6.62583
    X4        3.79558  -0.00281   0.00000  -0.00549  -0.00549   3.79009
    Y4       -0.58748   0.00044   0.00000  -0.00009  -0.00009  -0.58757
    Z4       14.30102  -0.00575   0.00000  -0.00700  -0.00700  14.29402
         Item               Value     Threshold  Converged?
 Maximum Force            0.005754     0.000450     NO 
 RMS     Force            0.003426     0.000300     NO 
 Maximum Displacement     0.172459     0.001800     NO 
 RMS     Displacement     0.086854     0.001200     NO 
 Predicted change in Energy=-1.343234D-03
 GradGradGradGradGradGradGradGradGradGradGradGradGradGradGradGradGradGrad

 Leave Link  103 at Fri Oct  6 22:02:00 2023, MaxMem=  1610612736 cpu:               3.8 elap:               2.3
 (Enter /home/sekinelabo/g16/l9999.exe)
 1\1\GINC-SEKINELABO-XA7R-R37\Force\RB3LYP\6-311+G(d)\Na4\SEKINELABO\06
 -Oct-2023\0\\#p B3LYP/6-311+g(d) force\\\0,1\Na,0.,0.,0.\Na,-2.8163202
 06,0.,-2.8119716557\Na,0.,0.,3.5011360272\Na,2.0085337365,-0.310878710
 6,7.5677746978\\Version=ES64L-G16RevB.01\State=1-A\HF=-649.1815996\RMS
 D=6.826e-09\RMSF=3.426e-03\Dipole=-0.1434039,-0.0103998,-0.1356652\Qua
 drupole=-1.0283357,-7.4653217,8.4936574,-0.2969145,8.1144851,-0.543771
 4\PG=C01 [X(Na4)]\\@


 "THE ACADEMIC HIERARCHY"


 THE PRESIDENT:
   LEAPS TALL BUILDINGS IN A SINGLE BOUND,
     IS MORE POWERFUL THAN A LOCOMOTIVE,
       IS FASTER THAN A SPEEDING BULLET,
         WALKS ON WATER,
           GIVES POLICY TO GOD.

 THE VICE PRESIDENT FOR ACADEMIC AFFAIRS:
   LEAPS SHORT BUILDINGS IN A SINGLE BOUND,
     IS MORE POWERFUL THAN A SWITCH ENGINE,
       IS JUST AS FAST AS A SPEEDING BULLET,
         WALKS ON WATER IF SEA IS CALM,
           TALKS WITH GOD.

 PROFESSOR:
   LEAPS SHORT BUILDINGS WITH A RUNNING START AND FAVORABLE WINDS,
     IS ALMOST AS POWERFUL AS A SWITCH ENGINE,
       CAN FIRE A SPEEDING BULLET,
         WALKS ON WATER IN AN INDOOR SWIMMING POOL,
          TALKS WITH GOD IF SPECIAL REQUEST IS APPROVED.

 ASSOCIATE PROFESSOR:
   BARELY CLEARS A QUONSET HUT,
     LOSES TUG OF WAR WITH LOCOMOTIVE,
       MISFIRES FREQUENTLY,
         SWIMS WELL,
           IS OCCASIONALLY ADDRESSED BY GOD.

 ASSISTANT PROFESSOR:
   MAKES HIGH MARKS ON WALLS WHEN TRYING TO LEAP TALL BUILDINGS,
     IS RUN OVER BY LOCOMOTIVES,
       CAN SOMETIMES HANDLE A GUN WITHOUT INFLICTING SELF INJURY,
         DOG PADDLES,
           TALKS TO ANIMALS.

 GRADUATE STUDENT:
   RUNS INTO BUILDINGS,
     RECOGNIZES LOCOMOTIVES TWO OUT OF THREE TIMES,
       IS NOT ISSUED AMMUNITION,
         CAN STAY AFLOAT WITH A LIFE JACKET,
           TALKS TO WALLS.

 UNDERGRADUATE AND WORK STUDY STUDENT:
   FALLS OVER DOORSTEP WHEN TRYING TO ENTER BUILDINGS,
     SAYS, "LOOK AT THE CHOO-CHOO,"
       WETS HIMSELF WITH A WATER PISTOL,
        PLAYS IN MUD PUDDLES,
          MUMBLES TO HIMSELF.

 DEPARTMENT SECRETARY:
   LIFTS TALL BUILDINGS AND WALKS UNDER THEM,
     KICKS LOCOMOTIVES OFF THE TRACKS,
       CATCHES SPEEDING BULLETS IN HER TEETH AND EATS THEM,
         FREEZES WATER WITH A SINGLE GLANCE,
           IS GOD.
 Job cpu time:       0 days  0 hours  3 minutes 55.1 seconds.
 Elapsed time:       0 days  0 hours  2 minutes 26.0 seconds.
 File lengths (MBytes):  RWF=     10 Int=      0 D2E=      0 Chk=      2 Scr=      1
 Normal termination of Gaussian 16 at Fri Oct  6 22:02:01 2023.
 Initial command:
 /home/sekinelabo/g16/l1.exe "/home/sekinelabo/g16temp/Gau-708996.inp" -scrdir="/home/sekinelabo/g16temp/"
 Entering Link 1 = /home/sekinelabo/g16/l1.exe PID=    711426.
  
 Copyright (c) 1988-2017, Gaussian, Inc.  All Rights Reserved.
  
 This is part of the Gaussian(R) 16 program.  It is based on
 the Gaussian(R) 09 system (copyright 2009, Gaussian, Inc.),
 the Gaussian(R) 03 system (copyright 2003, Gaussian, Inc.),
 the Gaussian(R) 98 system (copyright 1998, Gaussian, Inc.),
 the Gaussian(R) 94 system (copyright 1995, Gaussian, Inc.),
 the Gaussian 92(TM) system (copyright 1992, Gaussian, Inc.),
 the Gaussian 90(TM) system (copyright 1990, Gaussian, Inc.),
 the Gaussian 88(TM) system (copyright 1988, Gaussian, Inc.),
 the Gaussian 86(TM) system (copyright 1986, Carnegie Mellon
 University), and the Gaussian 82(TM) system (copyright 1983,
 Carnegie Mellon University). Gaussian is a federally registered
 trademark of Gaussian, Inc.
  
 This software contains proprietary and confidential information,
 including trade secrets, belonging to Gaussian, Inc.
  
 This software is provided under written license and may be
 used, copied, transmitted, or stored only in accord with that
 written license.
  
 The following legend is applicable only to US Government
 contracts under FAR:
  
                    RESTRICTED RIGHTS LEGEND
  
 Use, reproduction and disclosure by the US Government is
 subject to restrictions as set forth in subparagraphs (a)
 and (c) of the Commercial Computer Software - Restricted
 Rights clause in FAR 52.227-19.
  
 Gaussian, Inc.
 340 Quinnipiac St., Bldg. 40, Wallingford CT 06492
  
  
 ---------------------------------------------------------------
 Warning -- This program may not be used in any manner that
 competes with the business of Gaussian, Inc. or will provide
 assistance to any competitor of Gaussian, Inc.  The licensee
 of this program is prohibited from giving any competitor of
 Gaussian, Inc. access to this program.  By using this program,
 the user acknowledges that Gaussian, Inc. is engaged in the
 business of creating and licensing software in the field of
 computational chemistry and represents and warrants to the
 licensee that it is not a competitor of Gaussian, Inc. and that
 it will not use this program in any manner prohibited above.
 ---------------------------------------------------------------
  

 Cite this work as:
 Gaussian 16, Revision B.01,
 M. J. Frisch, G. W. Trucks, H. B. Schlegel, G. E. Scuseria, 
 M. A. Robb, J. R. Cheeseman, G. Scalmani, V. Barone, 
 G. A. Petersson, H. Nakatsuji, X. Li, M. Caricato, A. V. Marenich, 
 J. Bloino, B. G. Janesko, R. Gomperts, B. Mennucci, H. P. Hratchian, 
 J. V. Ortiz, A. F. Izmaylov, J. L. Sonnenberg, D. Williams-Young, 
 F. Ding, F. Lipparini, F. Egidi, J. Goings, B. Peng, A. Petrone, 
 T. Henderson, D. Ranasinghe, V. G. Zakrzewski, J. Gao, N. Rega, 
 G. Zheng, W. Liang, M. Hada, M. Ehara, K. Toyota, R. Fukuda, 
 J. Hasegawa, M. Ishida, T. Nakajima, Y. Honda, O. Kitao, H. Nakai, 
 T. Vreven, K. Throssell, J. A. Montgomery, Jr., J. E. Peralta, 
 F. Ogliaro, M. J. Bearpark, J. J. Heyd, E. N. Brothers, K. N. Kudin, 
 V. N. Staroverov, T. A. Keith, R. Kobayashi, J. Normand, 
 K. Raghavachari, A. P. Rendell, J. C. Burant, S. S. Iyengar, 
 J. Tomasi, M. Cossi, J. M. Millam, M. Klene, C. Adamo, R. Cammi, 
 J. W. Ochterski, R. L. Martin, K. Morokuma, O. Farkas, 
 J. B. Foresman, and D. J. Fox, Gaussian, Inc., Wallingford CT, 2016.
 
 ******************************************
 Gaussian 16:  ES64L-G16RevB.01 20-Dec-2017
                 6-Oct-2023 
 ******************************************
 %NProcShared=16
 Will use up to   16 processors via shared memory.
 %mem=12GB
 %Chk=checkpoint.chk
 -------------------------
 #p B3LYP/6-311+g(d) force
 -------------------------
 1/10=7,30=1,38=1/1,3;
 2/12=2,17=6,18=5,40=1/2;
 3/5=4,6=6,7=11,11=2,25=1,30=1,71=1,74=-5/1,2,3;
 4//1;
 5/5=2,38=5/2;
 6/7=2,8=2,9=2,10=2,28=1/1;
 7/29=1/1,2,3,16;
 1/10=7,30=1/3;
 99//99;
 Leave Link    1 at Fri Oct  6 22:02:01 2023, MaxMem=  1610612736 cpu:               0.6 elap:               0.4
 (Enter /home/sekinelabo/g16/l101.exe)


 Symbolic Z-matrix:
 Charge =  0 Multiplicity = 1
 Na                    0.        0.        0. 
 Na                   -4.41033   0.       -1.98987 
 Na                    0.        0.        3.57351 
 Na                    5.26389  -1.24599   5.11455 
 
 ITRead=  0  0  0  0
 MicOpt= -1 -1 -1 -1
 NAtoms=      4 NQM=        4 NQMF=       0 NMMI=      0 NMMIF=      0
                NMic=       0 NMicF=      0.
                    Isotopes and Nuclear Properties:
 (Nuclear quadrupole moments (NQMom) in fm**2, nuclear magnetic moments (NMagM)
  in nuclear magnetons)

  Atom         1           2           3           4
 IAtWgt=          23          23          23          23
 AtmWgt=  22.9897697  22.9897697  22.9897697  22.9897697
 NucSpn=           3           3           3           3
 AtZEff=  -0.0000000  -0.0000000  -0.0000000  -0.0000000
 NQMom=   10.4000000  10.4000000  10.4000000  10.4000000
 NMagM=    2.2175200   2.2175200   2.2175200   2.2175200
 AtZNuc=  11.0000000  11.0000000  11.0000000  11.0000000
 Leave Link  101 at Fri Oct  6 22:02:03 2023, MaxMem=  1610612736 cpu:               1.9 elap:               1.2
 (Enter /home/sekinelabo/g16/l103.exe)

 GradGradGradGradGradGradGradGradGradGradGradGradGradGradGradGradGradGrad
 Berny optimization.
 Initialization pass.
 Trust Radius=3.00D-01 FncErr=1.00D-07 GrdErr=1.00D-07 EigMax=2.50D+02 EigMin=1.00D-04
 Number of steps in this run=      2 maximum allowed number of steps=      2.
 GradGradGradGradGradGradGradGradGradGradGradGradGradGradGradGradGradGrad

 Leave Link  103 at Fri Oct  6 22:02:03 2023, MaxMem=  1610612736 cpu:               0.5 elap:               0.3
 (Enter /home/sekinelabo/g16/l202.exe)
                          Input orientation:                          
 ---------------------------------------------------------------------
 Center     Atomic      Atomic             Coordinates (Angstroms)
 Number     Number       Type             X           Y           Z
 ---------------------------------------------------------------------
      1         11           0        0.000000    0.000000    0.000000
      2         11           0       -4.410328    0.000000   -1.989866
      3         11           0        0.000000    0.000000    3.573512
      4         11           0        5.263890   -1.245987    5.114553
 ---------------------------------------------------------------------
                    Distance matrix (angstroms):
                    1          2          3          4
     1  Na   0.000000
     2  Na   4.838446   0.000000
     3  Na   3.573512   7.099448   0.000000
     4  Na   7.444439  12.067135   5.624574   0.000000
 Stoichiometry    Na4
 Framework group  C1[X(Na4)]
 Deg. of freedom     6
 Full point group                 C1      NOp   1
 Largest Abelian subgroup         C1      NOp   1
 Largest concise Abelian subgroup C1      NOp   1
                         Standard orientation:                         
 ---------------------------------------------------------------------
 Center     Atomic      Atomic             Coordinates (Angstroms)
 Number     Number       Type             X           Y           Z
 ---------------------------------------------------------------------
      1         11           0        1.238098   -1.133761    0.358303
      2         11           0        5.900669   -0.016878   -0.292517
      3         11           0       -0.982478    1.659698    0.169592
      4         11           0       -6.156289   -0.509059   -0.235378
 ---------------------------------------------------------------------
 Rotational constants (GHZ):           4.7814114           0.2911084           0.2764594
 Leave Link  202 at Fri Oct  6 22:02:04 2023, MaxMem=  1610612736 cpu:               1.0 elap:               0.6
 (Enter /home/sekinelabo/g16/l301.exe)
 Standard basis: 6-311+G(d) (5D, 7F)
 Ernie: Thresh=  0.10000D-02 Tol=  0.10000D-05 Strict=F.
 There are   124 symmetry adapted cartesian basis functions of A   symmetry.
 There are   120 symmetry adapted basis functions of A   symmetry.
   120 basis functions,   200 primitive gaussians,   124 cartesian basis functions
    22 alpha electrons       22 beta electrons
       nuclear repulsion energy        65.4621696454 Hartrees.
 IExCor=  402 DFT=T Ex+Corr=B3LYP ExCW=0 ScaHFX=  0.200000
 ScaDFX=  0.800000  0.720000  1.000000  0.810000 ScalE2=  1.000000  1.000000
 IRadAn=      5 IRanWt=     -1 IRanGd=            0 ICorTp=0 IEmpDi=  4
 NAtoms=    4 NActive=    4 NUniq=    4 SFac= 1.00D+00 NAtFMM=   60 NAOKFM=F Big=F
 Integral buffers will be    131072 words long.
 Raffenetti 2 integral format.
 Two-electron integral symmetry is turned on.
 Leave Link  301 at Fri Oct  6 22:02:04 2023, MaxMem=  1610612736 cpu:               0.7 elap:               0.4
 (Enter /home/sekinelabo/g16/l302.exe)
 NPDir=0 NMtPBC=     1 NCelOv=     1 NCel=       1 NClECP=     1 NCelD=      1
         NCelK=      1 NCelE2=     1 NClLst=     1 CellRange=     0.0.
 One-electron integrals computed using PRISM.
 One-electron integral symmetry used in STVInt
 NBasis=   120 RedAO= T EigKep=  2.21D-04  NBF=   120
 NBsUse=   120 1.00D-06 EigRej= -1.00D+00 NBFU=   120
 Precomputing XC quadrature grid using
 IXCGrd= 4 IRadAn=           5 IRanWt=          -1 IRanGd=           0 AccXCQ= 0.00D+00.
 Generated NRdTot=       0 NPtTot=           0 NUsed=           0 NTot=          32
 NSgBfM=   111   111   111   111   111 MxSgAt=     4 MxSgA2=     4.
 Leave Link  302 at Fri Oct  6 22:02:17 2023, MaxMem=  1610612736 cpu:              21.5 elap:              12.9
 (Enter /home/sekinelabo/g16/l303.exe)
 DipDrv:  MaxL=1.
 Leave Link  303 at Fri Oct  6 22:02:19 2023, MaxMem=  1610612736 cpu:               2.9 elap:               1.9
 (Enter /home/sekinelabo/g16/l401.exe)
 ExpMin= 7.60D-03 ExpMax= 3.62D+04 ExpMxC= 1.21D+03 IAcc=3 IRadAn=         5 AccDes= 0.00D+00
 Harris functional with IExCor=  402 and IRadAn=       5 diagonalized for initial guess.
 HarFok:  IExCor=  402 AccDes= 0.00D+00 IRadAn=         5 IDoV= 1 UseB2=F ITyADJ=14
 ICtDFT=  3500011 ScaDFX=  1.000000  1.000000  1.000000  1.000000
 FoFCou: FMM=F IPFlag=           0 FMFlag=      100000 FMFlg1=           0
         NFxFlg=           0 DoJE=T BraDBF=F KetDBF=T FulRan=T
         wScrn=  0.000000 ICntrl=       500 IOpCl=  0 I1Cent=   200000004 NGrid=           0
         NMat0=    1 NMatS0=      1 NMatT0=    0 NMatD0=    1 NMtDS0=    0 NMtDT0=    0
 Petite list used in FoFCou.
 Harris En= -649.039257342700    
 JPrj=0 DoOrth=F DoCkMO=F.
 Leave Link  401 at Fri Oct  6 22:02:28 2023, MaxMem=  1610612736 cpu:              15.1 elap:               9.6
 (Enter /home/sekinelabo/g16/l502.exe)
 Keep R1 ints in memory in canonical form, NReq=41581754.
 FoFCou: FMM=F IPFlag=           0 FMFlag=           0 FMFlg1=           0
         NFxFlg=           0 DoJE=F BraDBF=F KetDBF=F FulRan=T
         wScrn=  0.000000 ICntrl=       600 IOpCl=  0 I1Cent=           0 NGrid=           0
         NMat0=    1 NMatS0=   7260 NMatT0=    0 NMatD0=    1 NMtDS0=    0 NMtDT0=    0
 Symmetry not used in FoFCou.
 Two-electron integral symmetry not used.
 Closed shell SCF:
 Using DIIS extrapolation, IDIIS=  1040.
 NGot=  1610612736 LenX=  1584221388 LenY=  1584205571
 Requested convergence on RMS density matrix=1.00D-08 within 128 cycles.
 Requested convergence on MAX density matrix=1.00D-06.
 Requested convergence on             energy=1.00D-06.
 No special actions if energy rises.

 Cycle   1  Pass 1  IDiag  1:
 E= -649.143616379297    
 DIIS: error= 1.56D-02 at cycle   1 NSaved=   1.
 NSaved= 1 IEnMin= 1 EnMin= -649.143616379297     IErMin= 1 ErrMin= 1.56D-02
 ErrMax= 1.56D-02  0.00D+00 EMaxC= 1.00D-01 BMatC= 2.73D-02 BMatP= 2.73D-02
 IDIUse=3 WtCom= 8.44D-01 WtEn= 1.56D-01
 Coeff-Com:  0.100D+01
 Coeff-En:   0.100D+01
 Coeff:      0.100D+01
 Gap=     0.009 Goal=   None    Shift=    0.000
 GapD=    0.009 DampG=0.250 DampE=0.500 DampFc=0.2500 IDamp=-1.
 Damping current iteration by 2.50D-01
 RMSDP=6.32D-03 MaxDP=4.04D-01              OVMax= 5.73D-01

 Cycle   2  Pass 1  IDiag  1:
 E= -649.148158227152     Delta-E=       -0.004541847854 Rises=F Damp=T
 DIIS: error= 1.09D-02 at cycle   2 NSaved=   2.
 NSaved= 2 IEnMin= 2 EnMin= -649.148158227152     IErMin= 2 ErrMin= 1.09D-02
 ErrMax= 1.09D-02  0.00D+00 EMaxC= 1.00D-01 BMatC= 1.03D-02 BMatP= 2.73D-02
 IDIUse=3 WtCom= 8.91D-01 WtEn= 1.09D-01
 Coeff-Com: -0.951D+00 0.195D+01
 Coeff-En:   0.262D+00 0.738D+00
 Coeff:     -0.819D+00 0.182D+01
 Gap=     0.009 Goal=   None    Shift=    0.000
 RMSDP=6.39D-03 MaxDP=4.04D-01 DE=-4.54D-03 OVMax= 7.94D-01

 Cycle   3  Pass 1  IDiag  1:
 E= -648.999906161794     Delta-E=        0.148252065357 Rises=F Damp=F
 DIIS: error= 1.11D-02 at cycle   3 NSaved=   3.
 NSaved= 3 IEnMin= 2 EnMin= -649.148158227152     IErMin= 2 ErrMin= 1.09D-02
 ErrMax= 1.11D-02  0.00D+00 EMaxC= 1.00D-01 BMatC= 1.05D-02 BMatP= 1.03D-02
 IDIUse=3 WtCom= 8.89D-01 WtEn= 1.11D-01
 Rare condition: small coef for last iteration:  0.000D+00
 Coeff-Com: -0.632D+00 0.127D+01 0.367D+00
 Coeff-En:   0.144D+00 0.820D+00 0.364D-01
 Coeff:     -0.632D+00 0.127D+01 0.367D+00
 Gap=     0.030 Goal=   None    Shift=    0.000
 RMSDP=9.17D-03 MaxDP=6.12D-01 DE= 1.48D-01 OVMax= 9.09D-01

 Cycle   4  Pass 1  IDiag  1:
 E= -649.026697278003     Delta-E=       -0.026791116209 Rises=F Damp=F
 DIIS: error= 1.08D-02 at cycle   4 NSaved=   4.
 NSaved= 4 IEnMin= 2 EnMin= -649.148158227152     IErMin= 4 ErrMin= 1.08D-02
 ErrMax= 1.08D-02  0.00D+00 EMaxC= 1.00D-01 BMatC= 8.32D-03 BMatP= 1.03D-02
 IDIUse=3 WtCom= 8.92D-01 WtEn= 1.08D-01
 EnCoef did   100 forward-backward iterations
 Rare condition: small coef for last iteration: -0.128D-16
 Coeff-Com: -0.200D+00 0.510D+00 0.371D+00 0.319D+00
 Coeff-En:   0.622D+00 0.000D+00 0.179D+00 0.199D+00
 Coeff:     -0.200D+00 0.510D+00 0.371D+00 0.319D+00
 Gap=     0.006 Goal=   None    Shift=    0.000
 RMSDP=5.69D-03 MaxDP=3.60D-01 DE=-2.68D-02 OVMax= 6.44D-01

 Cycle   5  Pass 1  IDiag  1:
 E= -649.159073468339     Delta-E=       -0.132376190336 Rises=F Damp=F
 DIIS: error= 2.48D-03 at cycle   5 NSaved=   5.
 NSaved= 5 IEnMin= 5 EnMin= -649.159073468339     IErMin= 5 ErrMin= 2.48D-03
 ErrMax= 2.48D-03  0.00D+00 EMaxC= 1.00D-01 BMatC= 2.58D-04 BMatP= 8.32D-03
 IDIUse=3 WtCom= 9.75D-01 WtEn= 2.48D-02
 Coeff-Com: -0.144D+00 0.243D+00 0.226D-02 0.312D-01 0.867D+00
 Coeff-En:   0.000D+00 0.000D+00 0.000D+00 0.347D-01 0.965D+00
 Coeff:     -0.140D+00 0.237D+00 0.220D-02 0.313D-01 0.870D+00
 Gap=     0.016 Goal=   None    Shift=    0.000
 RMSDP=1.96D-03 MaxDP=1.07D-01 DE=-1.32D-01 OVMax= 1.91D-01

 Cycle   6  Pass 1  IDiag  1:
 E= -649.154233724084     Delta-E=        0.004839744255 Rises=F Damp=F
 DIIS: error= 3.94D-03 at cycle   6 NSaved=   6.
 NSaved= 6 IEnMin= 5 EnMin= -649.159073468339     IErMin= 5 ErrMin= 2.48D-03
 ErrMax= 3.94D-03  0.00D+00 EMaxC= 1.00D-01 BMatC= 8.61D-04 BMatP= 2.58D-04
 IDIUse=3 WtCom= 9.75D-01 WtEn= 2.48D-02
 Coeff-Com: -0.165D-01 0.276D-01-0.557D-02-0.155D-01 0.665D+00 0.345D+00
 Coeff-En:   0.000D+00 0.000D+00 0.000D+00 0.000D+00 0.661D+00 0.339D+00
 Coeff:     -0.161D-01 0.269D-01-0.543D-02-0.151D-01 0.665D+00 0.345D+00
 Gap=     0.018 Goal=   None    Shift=    0.000
 RMSDP=1.06D-03 MaxDP=7.05D-02 DE= 4.84D-03 OVMax= 9.97D-02

 Cycle   7  Pass 1  IDiag  1:
 E= -649.161407632419     Delta-E=       -0.007173908335 Rises=F Damp=F
 DIIS: error= 1.36D-03 at cycle   7 NSaved=   7.
 NSaved= 7 IEnMin= 7 EnMin= -649.161407632419     IErMin= 7 ErrMin= 1.36D-03
 ErrMax= 1.36D-03  0.00D+00 EMaxC= 1.00D-01 BMatC= 5.23D-05 BMatP= 2.58D-04
 IDIUse=3 WtCom= 9.86D-01 WtEn= 1.36D-02
 Coeff-Com:  0.167D-01-0.261D-01-0.111D-02-0.236D-01 0.280D+00 0.645D-01
 Coeff-Com:  0.690D+00
 Coeff-En:   0.000D+00 0.000D+00 0.000D+00 0.000D+00 0.171D+00 0.000D+00
 Coeff-En:   0.829D+00
 Coeff:      0.165D-01-0.258D-01-0.109D-02-0.233D-01 0.278D+00 0.636D-01
 Coeff:      0.692D+00
 Gap=     0.019 Goal=   None    Shift=    0.000
 RMSDP=1.47D-04 MaxDP=6.53D-03 DE=-7.17D-03 OVMax= 1.79D-02

 Cycle   8  Pass 1  IDiag  1:
 E= -649.161343810035     Delta-E=        0.000063822384 Rises=F Damp=F
 DIIS: error= 1.27D-03 at cycle   8 NSaved=   8.
 NSaved= 8 IEnMin= 7 EnMin= -649.161407632419     IErMin= 8 ErrMin= 1.27D-03
 ErrMax= 1.27D-03  0.00D+00 EMaxC= 1.00D-01 BMatC= 6.15D-05 BMatP= 5.23D-05
 IDIUse=3 WtCom= 9.86D-01 WtEn= 1.36D-02
 EnCoef did    25 forward-backward iterations
 Coeff-Com:  0.287D-01-0.418D-01 0.557D-02-0.118D-01 0.106D+00-0.157D+00
 Coeff-Com:  0.133D+00 0.938D+00
 Coeff-En:   0.000D+00 0.000D+00 0.000D+00 0.000D+00 0.187D+00 0.000D+00
 Coeff-En:   0.428D+00 0.386D+00
 Coeff:      0.283D-01-0.412D-01 0.550D-02-0.117D-01 0.107D+00-0.155D+00
 Coeff:      0.137D+00 0.930D+00
 Gap=     0.019 Goal=   None    Shift=    0.000
 RMSDP=1.01D-04 MaxDP=6.09D-03 DE= 6.38D-05 OVMax= 1.18D-02

 Cycle   9  Pass 1  IDiag  1:
 E= -649.161060913050     Delta-E=        0.000282896985 Rises=F Damp=F
 DIIS: error= 1.73D-03 at cycle   9 NSaved=   9.
 NSaved= 9 IEnMin= 7 EnMin= -649.161407632419     IErMin= 8 ErrMin= 1.27D-03
 ErrMax= 1.73D-03  0.00D+00 EMaxC= 1.00D-01 BMatC= 9.18D-05 BMatP= 5.23D-05
 IDIUse=3 WtCom= 9.86D-01 WtEn= 1.36D-02
 Rare condition: small coef for last iteration:  0.000D+00
 Coeff-Com:  0.185D-01-0.266D-01 0.122D-02-0.131D-01 0.932D-01-0.104D+00
 Coeff-Com:  0.502D+00 0.138D+01-0.850D+00
 Coeff-En:   0.000D+00 0.000D+00 0.000D+00 0.000D+00 0.280D+00 0.000D+00
 Coeff-En:   0.000D+00 0.000D+00 0.720D+00
 Coeff:      0.185D-01-0.266D-01 0.122D-02-0.131D-01 0.932D-01-0.104D+00
 Coeff:      0.502D+00 0.138D+01-0.850D+00
 Gap=     0.019 Goal=   None    Shift=    0.000
 RMSDP=5.67D-05 MaxDP=2.42D-03 DE= 2.83D-04 OVMax= 5.24D-03

 Cycle  10  Pass 1  IDiag  1:
 E= -649.161037926498     Delta-E=        0.000022986552 Rises=F Damp=F
 DIIS: error= 1.79D-03 at cycle  10 NSaved=  10.
 NSaved=10 IEnMin= 7 EnMin= -649.161407632419     IErMin= 8 ErrMin= 1.27D-03
 ErrMax= 1.79D-03  0.00D+00 EMaxC= 1.00D-01 BMatC= 9.51D-05 BMatP= 5.23D-05
 IDIUse=3 WtCom= 9.86D-01 WtEn= 1.36D-02
 EnCoef did   100 forward-backward iterations
 Rare condition: small coef for last iteration:  0.000D+00
 Coeff-Com:  0.211D-01-0.298D-01 0.212D-02-0.119D-01 0.971D-01-0.135D+00
 Coeff-Com:  0.391D+00 0.114D+01 0.837D-01-0.561D+00
 Coeff-En:   0.000D+00 0.000D+00 0.000D+00 0.000D+00 0.283D+00 0.000D+00
 Coeff-En:   0.000D+00 0.000D+00 0.000D+00 0.717D+00
 Coeff:      0.211D-01-0.298D-01 0.212D-02-0.119D-01 0.971D-01-0.135D+00
 Coeff:      0.391D+00 0.114D+01 0.837D-01-0.561D+00
 Gap=     0.019 Goal=   None    Shift=    0.000
 RMSDP=1.51D-05 MaxDP=7.06D-04 DE= 2.30D-05 OVMax= 1.13D-03

 Cycle  11  Pass 1  IDiag  1:
 E= -649.161028423812     Delta-E=        0.000009502686 Rises=F Damp=F
 DIIS: error= 1.80D-03 at cycle  11 NSaved=  11.
 NSaved=11 IEnMin= 7 EnMin= -649.161407632419     IErMin= 8 ErrMin= 1.27D-03
 ErrMax= 1.80D-03  0.00D+00 EMaxC= 1.00D-01 BMatC= 9.65D-05 BMatP= 5.23D-05
 IDIUse=3 WtCom= 9.86D-01 WtEn= 1.36D-02
 EnCoef did   100 forward-backward iterations
 Rare condition: small coef for last iteration:  0.000D+00
 Coeff-Com:  0.241D-01-0.332D-01 0.236D-02-0.948D-02 0.127D+00-0.153D+00
 Coeff-Com:  0.335D+00 0.713D+00 0.182D+01-0.482D+01 0.299D+01
 Coeff-En:   0.000D+00 0.000D+00 0.000D+00 0.000D+00 0.284D+00 0.000D+00
 Coeff-En:   0.000D+00 0.000D+00 0.000D+00 0.000D+00 0.716D+00
 Coeff:      0.241D-01-0.332D-01 0.236D-02-0.948D-02 0.127D+00-0.153D+00
 Coeff:      0.335D+00 0.713D+00 0.182D+01-0.482D+01 0.299D+01
 Gap=     0.019 Goal=   None    Shift=    0.000
 RMSDP=5.03D-05 MaxDP=2.75D-03 DE= 9.50D-06 OVMax= 5.88D-03

 Cycle  12  Pass 1  IDiag  1:
 E= -649.161221064072     Delta-E=       -0.000192640260 Rises=F Damp=F
 DIIS: error= 1.57D-03 at cycle  12 NSaved=  12.
 NSaved=12 IEnMin= 7 EnMin= -649.161407632419     IErMin= 8 ErrMin= 1.27D-03
 ErrMax= 1.57D-03  0.00D+00 EMaxC= 1.00D-01 BMatC= 7.33D-05 BMatP= 5.23D-05
 IDIUse=3 WtCom= 9.86D-01 WtEn= 1.36D-02
 EnCoef did   100 forward-backward iterations
 Coeff-Com:  0.125D-01-0.175D-01 0.126D-02-0.320D-02 0.103D+00-0.650D-01
 Coeff-Com:  0.282D+00 0.444D+00 0.967D+00-0.437D+01 0.624D+00 0.302D+01
 Coeff-En:   0.000D+00 0.000D+00 0.000D+00 0.000D+00 0.187D+00 0.000D+00
 Coeff-En:   0.427D+00 0.380D+00 0.000D+00 0.000D+00 0.000D+00 0.578D-02
 Coeff:      0.123D-01-0.173D-01 0.125D-02-0.316D-02 0.104D+00-0.641D-01
 Coeff:      0.284D+00 0.443D+00 0.954D+00-0.431D+01 0.615D+00 0.298D+01
 Gap=     0.019 Goal=   None    Shift=    0.000
 RMSDP=2.15D-04 MaxDP=1.26D-02 DE=-1.93D-04 OVMax= 2.62D-02

 Cycle  13  Pass 1  IDiag  1:
 E= -649.161769449555     Delta-E=       -0.000548385483 Rises=F Damp=F
 DIIS: error= 5.32D-04 at cycle  13 NSaved=  13.
 NSaved=13 IEnMin=13 EnMin= -649.161769449555     IErMin=13 ErrMin= 5.32D-04
 ErrMax= 5.32D-04  0.00D+00 EMaxC= 1.00D-01 BMatC= 8.41D-06 BMatP= 5.23D-05
 IDIUse=3 WtCom= 9.95D-01 WtEn= 5.32D-03
 Coeff-Com: -0.998D-03 0.121D-02 0.557D-03 0.220D-02-0.527D-02-0.148D-01
 Coeff-Com: -0.375D-01 0.107D+00-0.554D+00 0.589D+00-0.104D+01 0.658D+00
 Coeff-Com:  0.129D+01
 Coeff-En:   0.000D+00 0.000D+00 0.000D+00 0.000D+00 0.000D+00 0.000D+00
 Coeff-En:   0.000D+00 0.000D+00 0.000D+00 0.000D+00 0.000D+00 0.000D+00
 Coeff-En:   0.100D+01
 Coeff:     -0.993D-03 0.121D-02 0.554D-03 0.219D-02-0.525D-02-0.147D-01
 Coeff:     -0.373D-01 0.106D+00-0.551D+00 0.586D+00-0.103D+01 0.655D+00
 Coeff:      0.129D+01
 Gap=     0.019 Goal=   None    Shift=    0.000
 RMSDP=1.48D-04 MaxDP=9.51D-03 DE=-5.48D-04 OVMax= 1.80D-02

 Cycle  14  Pass 1  IDiag  1:
 E= -649.161833599934     Delta-E=       -0.000064150378 Rises=F Damp=F
 DIIS: error= 1.86D-04 at cycle  14 NSaved=  14.
 NSaved=14 IEnMin=14 EnMin= -649.161833599934     IErMin=14 ErrMin= 1.86D-04
 ErrMax= 1.86D-04  0.00D+00 EMaxC= 1.00D-01 BMatC= 9.73D-07 BMatP= 8.41D-06
 IDIUse=3 WtCom= 9.98D-01 WtEn= 1.86D-03
 Coeff-Com:  0.603D-03-0.792D-03-0.391D-03-0.220D-03-0.935D-03-0.915D-02
 Coeff-Com: -0.808D-02-0.734D-02 0.598D-01 0.748D-01 0.284D-01-0.645D-01
 Coeff-Com:  0.613D-01 0.867D+00
 Coeff-En:   0.000D+00 0.000D+00 0.000D+00 0.000D+00 0.000D+00 0.000D+00
 Coeff-En:   0.000D+00 0.000D+00 0.000D+00 0.000D+00 0.000D+00 0.000D+00
 Coeff-En:   0.221D+00 0.779D+00
 Coeff:      0.602D-03-0.791D-03-0.390D-03-0.220D-03-0.933D-03-0.913D-02
 Coeff:     -0.807D-02-0.733D-02 0.597D-01 0.747D-01 0.283D-01-0.644D-01
 Coeff:      0.616D-01 0.866D+00
 Gap=     0.019 Goal=   None    Shift=    0.000
 RMSDP=3.19D-05 MaxDP=1.72D-03 DE=-6.42D-05 OVMax= 3.91D-03

 Cycle  15  Pass 1  IDiag  1:
 E= -649.161841599479     Delta-E=       -0.000007999545 Rises=F Damp=F
 DIIS: error= 2.52D-05 at cycle  15 NSaved=  15.
 NSaved=15 IEnMin=15 EnMin= -649.161841599479     IErMin=15 ErrMin= 2.52D-05
 ErrMax= 2.52D-05  0.00D+00 EMaxC= 1.00D-01 BMatC= 1.86D-08 BMatP= 9.73D-07
 IDIUse=1 WtCom= 1.00D+00 WtEn= 0.00D+00
 Coeff-Com:  0.534D-04-0.649D-04-0.494D-04-0.550D-04 0.156D-03-0.106D-03
 Coeff-Com:  0.340D-03-0.507D-02 0.134D-01-0.175D-01 0.166D-01 0.140D-01
 Coeff-Com: -0.309D-01-0.358D-01 0.105D+01
 Coeff:      0.534D-04-0.649D-04-0.494D-04-0.550D-04 0.156D-03-0.106D-03
 Coeff:      0.340D-03-0.507D-02 0.134D-01-0.175D-01 0.166D-01 0.140D-01
 Coeff:     -0.309D-01-0.358D-01 0.105D+01
 Gap=     0.019 Goal=   None    Shift=    0.000
 RMSDP=4.75D-06 MaxDP=2.62D-04 DE=-8.00D-06 OVMax= 5.68D-04

 Cycle  16  Pass 1  IDiag  1:
 E= -649.161841753552     Delta-E=       -0.000000154073 Rises=F Damp=F
 DIIS: error= 2.10D-06 at cycle  16 NSaved=  16.
 NSaved=16 IEnMin=16 EnMin= -649.161841753552     IErMin=16 ErrMin= 2.10D-06
 ErrMax= 2.10D-06  0.00D+00 EMaxC= 1.00D-01 BMatC= 1.47D-10 BMatP= 1.86D-08
 IDIUse=1 WtCom= 1.00D+00 WtEn= 0.00D+00
 Coeff-Com: -0.161D-04 0.214D-04-0.114D-05-0.349D-05 0.743D-04 0.196D-03
 Coeff-Com:  0.294D-03 0.718D-03-0.215D-02 0.139D-03-0.857D-03 0.214D-02
 Coeff-Com:  0.237D-03-0.100D-01 0.882D-02 0.100D+01
 Coeff:     -0.161D-04 0.214D-04-0.114D-05-0.349D-05 0.743D-04 0.196D-03
 Coeff:      0.294D-03 0.718D-03-0.215D-02 0.139D-03-0.857D-03 0.214D-02
 Coeff:      0.237D-03-0.100D-01 0.882D-02 0.100D+01
 Gap=     0.019 Goal=   None    Shift=    0.000
 RMSDP=5.19D-07 MaxDP=3.34D-05 DE=-1.54D-07 OVMax= 5.54D-05

 Cycle  17  Pass 1  IDiag  1:
 E= -649.161841754769     Delta-E=       -0.000000001217 Rises=F Damp=F
 DIIS: error= 3.02D-08 at cycle  17 NSaved=  17.
 NSaved=17 IEnMin=17 EnMin= -649.161841754769     IErMin=17 ErrMin= 3.02D-08
 ErrMax= 3.02D-08  0.00D+00 EMaxC= 1.00D-01 BMatC= 1.06D-13 BMatP= 1.47D-10
 IDIUse=1 WtCom= 1.00D+00 WtEn= 0.00D+00
 Coeff-Com: -0.424D-05 0.561D-05 0.102D-05 0.133D-05-0.100D-05 0.272D-04
 Coeff-Com:  0.558D-04 0.242D-03-0.590D-03 0.101D-03-0.434D-03 0.128D-03
 Coeff-Com:  0.545D-03-0.154D-02-0.253D-01 0.151D+00 0.876D+00
 Coeff:     -0.424D-05 0.561D-05 0.102D-05 0.133D-05-0.100D-05 0.272D-04
 Coeff:      0.558D-04 0.242D-03-0.590D-03 0.101D-03-0.434D-03 0.128D-03
 Coeff:      0.545D-03-0.154D-02-0.253D-01 0.151D+00 0.876D+00
 Gap=     0.019 Goal=   None    Shift=    0.000
 RMSDP=2.98D-08 MaxDP=9.59D-07 DE=-1.22D-09 OVMax= 1.96D-06

 Cycle  18  Pass 1  IDiag  1:
 E= -649.161841754771     Delta-E=       -0.000000000003 Rises=F Damp=F
 DIIS: error= 1.45D-08 at cycle  18 NSaved=  18.
 NSaved=18 IEnMin=18 EnMin= -649.161841754771     IErMin=18 ErrMin= 1.45D-08
 ErrMax= 1.45D-08  0.00D+00 EMaxC= 1.00D-01 BMatC= 8.45D-15 BMatP= 1.06D-13
 IDIUse=1 WtCom= 1.00D+00 WtEn= 0.00D+00
 Coeff-Com:  0.813D-07-0.108D-06 0.144D-07 0.250D-06-0.239D-05 0.755D-07
 Coeff-Com:  0.981D-05-0.673D-05 0.713D-04-0.364D-03 0.132D-03 0.142D-03
 Coeff-Com: -0.802D-04-0.196D-03 0.112D-03-0.239D-01 0.484D-01 0.976D+00
 Coeff:      0.813D-07-0.108D-06 0.144D-07 0.250D-06-0.239D-05 0.755D-07
 Coeff:      0.981D-05-0.673D-05 0.713D-04-0.364D-03 0.132D-03 0.142D-03
 Coeff:     -0.802D-04-0.196D-03 0.112D-03-0.239D-01 0.484D-01 0.976D+00
 Gap=     0.019 Goal=   None    Shift=    0.000
 RMSDP=1.28D-08 MaxDP=4.88D-07 DE=-2.73D-12 OVMax= 1.21D-06

 Cycle  19  Pass 1  IDiag  1:
 E= -649.161841754766     Delta-E=        0.000000000005 Rises=F Damp=F
 DIIS: error= 3.40D-08 at cycle  19 NSaved=  19.
 NSaved=19 IEnMin=18 EnMin= -649.161841754771     IErMin=18 ErrMin= 1.45D-08
 ErrMax= 3.40D-08  0.00D+00 EMaxC= 1.00D-01 BMatC= 3.09D-14 BMatP= 8.45D-15
 IDIUse=1 WtCom= 1.00D+00 WtEn= 0.00D+00
 Large coefficients: NSaved= 19 BigCof=    0.00 CofMax=   10.00 Det=-1.51D-15
 Inversion failed.  Reducing to 18 matrices.
 Large coefficients: NSaved= 18 BigCof=    0.00 CofMax=   10.00 Det=-1.52D-15
 Inversion failed.  Reducing to 17 matrices.
 Large coefficients: NSaved= 17 BigCof=    0.00 CofMax=   10.00 Det=-1.59D-15
 Inversion failed.  Reducing to 16 matrices.
 Large coefficients: NSaved= 16 BigCof=    0.00 CofMax=   10.00 Det=-1.67D-15
 Inversion failed.  Reducing to 15 matrices.
 Coeff-Com: -0.390D-06-0.510D-06 0.288D-05 0.793D-06 0.871D-05-0.793D-04
 Coeff-Com:  0.528D-05 0.838D-04-0.194D-04-0.165D-03 0.863D-03-0.440D-02
 Coeff-Com: -0.344D-01 0.178D+00 0.861D+00
 Coeff:     -0.390D-06-0.510D-06 0.288D-05 0.793D-06 0.871D-05-0.793D-04
 Coeff:      0.528D-05 0.838D-04-0.194D-04-0.165D-03 0.863D-03-0.440D-02
 Coeff:     -0.344D-01 0.178D+00 0.861D+00
 Gap=     0.019 Goal=   None    Shift=    0.000
 RMSDP=6.62D-09 MaxDP=3.58D-07 DE= 4.89D-12 OVMax= 8.12D-07

 SCF Done:  E(RB3LYP) =  -649.161841755     A.U. after   19 cycles
            NFock= 19  Conv=0.66D-08     -V/T= 2.0030
 KE= 6.472110053376D+02 PE=-1.689641264943D+03 EE= 3.278062482050D+02
 Leave Link  502 at Fri Oct  6 22:04:38 2023, MaxMem=  1610612736 cpu:             209.9 elap:             129.1
 (Enter /home/sekinelabo/g16/l601.exe)
 Copying SCF densities to generalized density rwf, IOpCl= 0 IROHF=0.

 **********************************************************************

            Population analysis using the SCF Density.

 **********************************************************************

 Orbital symmetries:
       Occupied  (A) (A) (A) (A) (A) (A) (A) (A) (A) (A) (A) (A)
                 (A) (A) (A) (A) (A) (A) (A) (A) (A) (A)
       Virtual   (A) (A) (A) (A) (A) (A) (A) (A) (A) (A) (A) (A)
                 (A) (A) (A) (A) (A) (A) (A) (A) (A) (A) (A) (A)
                 (A) (A) (A) (A) (A) (A) (A) (A) (A) (A) (A) (A)
                 (A) (A) (A) (A) (A) (A) (A) (A) (A) (A) (A) (A)
                 (A) (A) (A) (A) (A) (A) (A) (A) (A) (A) (A) (A)
                 (A) (A) (A) (A) (A) (A) (A) (A) (A) (A) (A) (A)
                 (A) (A) (A) (A) (A) (A) (A) (A) (A) (A) (A) (A)
                 (A) (A) (A) (A) (A) (A) (A) (A) (A) (A) (A) (A)
                 (A) (A)
 The electronic state is 1-A.
 Alpha  occ. eigenvalues --  -38.46260 -38.46065 -38.45678 -38.45431  -2.21936
 Alpha  occ. eigenvalues --   -2.21744  -2.21388  -2.21142  -1.15610  -1.15610
 Alpha  occ. eigenvalues --   -1.15587  -1.15421  -1.15421  -1.15386  -1.15069
 Alpha  occ. eigenvalues --   -1.15051  -1.15027  -1.14831  -1.14810  -1.14767
 Alpha  occ. eigenvalues --   -0.13363  -0.10939
 Alpha virt. eigenvalues --   -0.09062  -0.06130  -0.02838  -0.02729  -0.02248
 Alpha virt. eigenvalues --   -0.01677  -0.01378  -0.01247  -0.00813  -0.00749
 Alpha virt. eigenvalues --   -0.00014   0.00578   0.00730   0.00818   0.00917
 Alpha virt. eigenvalues --    0.01263   0.01386   0.01568   0.01690   0.01735
 Alpha virt. eigenvalues --    0.01862   0.02093   0.02117   0.02373   0.02465
 Alpha virt. eigenvalues --    0.02596   0.02663   0.03414   0.03616   0.04252
 Alpha virt. eigenvalues --    0.06950   0.07358   0.07416   0.07671   0.07975
 Alpha virt. eigenvalues --    0.08041   0.08182   0.08199   0.08464   0.09256
 Alpha virt. eigenvalues --    0.09362   0.09885   0.10776   0.11323   0.11880
 Alpha virt. eigenvalues --    0.13913   0.29966   0.30056   0.30809   0.33030
 Alpha virt. eigenvalues --    0.33507   0.34230   0.34256   0.34284   0.34361
 Alpha virt. eigenvalues --    0.34423   0.34481   0.34562   0.34855   0.34868
 Alpha virt. eigenvalues --    0.35838   0.36430   0.37551   0.41348   0.41500
 Alpha virt. eigenvalues --    0.41966   0.42235   0.42603   0.42874   0.43015
 Alpha virt. eigenvalues --    0.43754   0.43895   0.44618   0.45866   0.46187
 Alpha virt. eigenvalues --    0.46460   0.49446   0.55861   1.99377   2.00964
 Alpha virt. eigenvalues --    2.02288   2.09939   4.42406   4.42446   4.42577
 Alpha virt. eigenvalues --    4.42639   4.42771   4.43391   4.43565   4.43673
 Alpha virt. eigenvalues --    4.44024   4.44996   4.46048   4.47900  96.18090
 Alpha virt. eigenvalues --   96.20059  96.21580  96.30640
          Condensed to atoms (all electrons):
               1          2          3          4
     1  Na  10.685926   0.133892   0.206750  -0.031811
     2  Na   0.133892  10.950660  -0.054490  -0.015695
     3  Na   0.206750  -0.054490  10.698883   0.103552
     4  Na  -0.031811  -0.015695   0.103552  10.980137
 Mulliken charges:
               1
     1  Na   0.005243
     2  Na  -0.014367
     3  Na   0.045305
     4  Na  -0.036182
 Sum of Mulliken charges =   0.00000
 Mulliken charges with hydrogens summed into heavy atoms:
               1
     1  Na   0.005243
     2  Na  -0.014367
     3  Na   0.045305
     4  Na  -0.036182
 Electronic spatial extent (au):  <R**2>=           3223.0109
 Charge=              0.0000 electrons
 Dipole moment (field-independent basis, Debye):
    X=              0.1846    Y=              0.1489    Z=             -0.0064  Tot=              0.2373
 Quadrupole moment (field-independent basis, Debye-Ang):
   XX=            -33.3650   YY=            -38.3677   ZZ=            -46.3613
   XY=              1.7439   XZ=             -0.3946   YZ=             -0.5125
 Traceless Quadrupole moment (field-independent basis, Debye-Ang):
   XX=              5.9997   YY=              0.9970   ZZ=             -6.9966
   XY=              1.7439   XZ=             -0.3946   YZ=             -0.5125
 Octapole moment (field-independent basis, Debye-Ang**2):
  XXX=             24.1501  YYY=              8.1572  ZZZ=              1.2830  XYY=             -1.8689
  XXY=             -4.8984  XXZ=            -11.3198  XZZ=              2.5650  YZZ=              0.1954
  YYZ=              2.3814  XYZ=             -2.2777
 Hexadecapole moment (field-independent basis, Debye-Ang**3):
 XXXX=          -4308.6814 YYYY=           -402.1523 ZZZZ=           -233.7294 XXXY=            180.2765
 XXXZ=            -27.1333 YYYX=             -1.5493 YYYZ=             -2.4767 ZZZX=             -2.2904
 ZZZY=             -3.0574 XXYY=           -980.2570 XXZZ=           -952.1381 YYZZ=           -109.0857
 XXYZ=              0.9988 YYXZ=             -0.0055 ZZXY=              2.6582
 N-N= 6.546216964541D+01 E-N=-1.689641264689D+03  KE= 6.472110053376D+02
 No NMR shielding tensors so no spin-rotation constants.
 Leave Link  601 at Fri Oct  6 22:04:43 2023, MaxMem=  1610612736 cpu:               8.3 elap:               5.1
 (Enter /home/sekinelabo/g16/l701.exe)
 ... and contract with generalized density number  0.
 Compute integral first derivatives.
 Leave Link  701 at Fri Oct  6 22:04:48 2023, MaxMem=  1610612736 cpu:               7.7 elap:               4.7
 (Enter /home/sekinelabo/g16/l702.exe)
 L702 exits ... SP integral derivatives will be done elsewhere.
 Leave Link  702 at Fri Oct  6 22:04:48 2023, MaxMem=  1610612736 cpu:               0.6 elap:               0.4
 (Enter /home/sekinelabo/g16/l703.exe)
 Integral derivatives from FoFJK, PRISM(SPDF).
 Compute integral first derivatives, UseDBF=F ICtDFT=           0.
 Calling FoFJK, ICntrl=      2127 FMM=F ISym2X=0 I1Cent= 0 IOpClX= 0 NMat=1 NMatS=1 NMatT=0.
 FoFJK:  IHMeth= 1 ICntrl=    2127 DoSepK=F KAlg= 0 I1Cent=           0 FoldK=F
 IRaf=         0 NMat=       1 IRICut=       1 DoRegI=T DoRafI=F ISym2E= 0 IDoP0=0 IntGTp=1.
 FoFCou: FMM=F IPFlag=           0 FMFlag=      100000 FMFlg1=         800
         NFxFlg=           0 DoJE=F BraDBF=F KetDBF=F FulRan=T
         wScrn=  0.000000 ICntrl=      2127 IOpCl=  0 I1Cent=           0 NGrid=           0
         NMat0=    1 NMatS0=      1 NMatT0=    0 NMatD0=    1 NMtDS0=    0 NMtDT0=    0
 Symmetry not used in FoFCou.
 Leave Link  703 at Fri Oct  6 22:04:55 2023, MaxMem=  1610612736 cpu:              12.1 elap:               7.4
 (Enter /home/sekinelabo/g16/l716.exe)
 Dipole        = 7.26309358D-02 5.85942975D-02-2.52919119D-03
 ***** Axes restored to original set *****
 -------------------------------------------------------------------
 Center     Atomic                   Forces (Hartrees/Bohr)
 Number     Number              X              Y              Z
 -------------------------------------------------------------------
      1       11          -0.004231557   -0.000052058    0.001913796
      2       11           0.004479675    0.000010991    0.002091881
      3       11           0.003158262   -0.000774529   -0.002899200
      4       11          -0.003406380    0.000815596   -0.001106477
 -------------------------------------------------------------------
 Cartesian Forces:  Max     0.004479675 RMS     0.002557469
 Z-matrix is all fixed cartesians, so copy forces.
 Force constants in Cartesian coordinates: 
                1             2             3             4             5 
      1  0.293743D-01
      2  0.168606D+00  0.967790D+00
      3 -0.905055D-02 -0.519495D-01  0.196515D-01
      4  0.000000D+00  0.000000D+00  0.000000D+00  0.100000D+01
      5  0.000000D+00  0.000000D+00  0.000000D+00  0.000000D+00  0.100000D+01
      6  0.000000D+00  0.000000D+00  0.000000D+00  0.000000D+00  0.000000D+00
      7  0.000000D+00  0.000000D+00  0.000000D+00  0.000000D+00  0.000000D+00
      8  0.000000D+00  0.000000D+00  0.000000D+00  0.000000D+00  0.000000D+00
      9  0.000000D+00  0.000000D+00 -0.168629D-01  0.000000D+00  0.000000D+00
     10  0.000000D+00  0.000000D+00  0.000000D+00  0.000000D+00  0.000000D+00
     11  0.000000D+00  0.000000D+00  0.000000D+00  0.000000D+00  0.000000D+00
     12  0.000000D+00  0.000000D+00  0.000000D+00  0.000000D+00  0.000000D+00
                6             7             8             9            10 
      6  0.100000D+01
      7  0.000000D+00  0.293743D-01
      8  0.000000D+00  0.168606D+00  0.967790D+00
      9  0.000000D+00 -0.905055D-02 -0.519495D-01  0.196515D-01
     10  0.000000D+00  0.000000D+00  0.000000D+00  0.000000D+00  0.100000D+01
     11  0.000000D+00  0.000000D+00  0.000000D+00  0.000000D+00  0.000000D+00
     12  0.000000D+00  0.000000D+00  0.000000D+00  0.000000D+00  0.000000D+00
               11            12 
     11  0.100000D+01
     12  0.000000D+00  0.100000D+01
 Leave Link  716 at Fri Oct  6 22:04:56 2023, MaxMem=  1610612736 cpu:               0.8 elap:               0.5
 (Enter /home/sekinelabo/g16/l103.exe)

 GradGradGradGradGradGradGradGradGradGradGradGradGradGradGradGradGradGrad
 Berny optimization.
 Search for a local minimum.
 Step number   1 out of a maximum of    2
 All quantities printed in internal units (Hartrees-Bohrs-Radians)
 Second derivative matrix not updated -- first step.
 The second derivative matrix:
                          X1        Y1        Z1        X2        Y2
           X1           0.02937
           Y1           0.16861   0.96779
           Z1          -0.00905  -0.05195   0.01965
           X2           0.00000   0.00000   0.00000   1.00000
           Y2           0.00000   0.00000   0.00000  -0.00000   1.00000
           Z2           0.00000   0.00000   0.00000  -0.00000  -0.00000
           X3           0.00000  -0.00000   0.00000   0.00000   0.00000
           Y3           0.00000   0.00000   0.00000   0.00000   0.00000
           Z3           0.00000   0.00000  -0.01686   0.00000   0.00000
           X4           0.00000   0.00000   0.00000   0.00000   0.00000
           Y4           0.00000   0.00000   0.00000   0.00000   0.00000
           Z4           0.00000   0.00000   0.00000   0.00000   0.00000
                          Z2        X3        Y3        Z3        X4
           Z2           1.00000
           X3           0.00000   0.02937
           Y3           0.00000   0.16861   0.96779
           Z3           0.00000  -0.00905  -0.05195   0.01965
           X4           0.00000   0.00000   0.00000   0.00000   1.00000
           Y4           0.00000   0.00000   0.00000   0.00000  -0.00000
           Z4           0.00000   0.00000   0.00000   0.00000  -0.00000
                          Y4        Z4
           Y4           1.00000
           Z4          -0.00000   1.00000
 ITU=  0
     Eigenvalues ---    0.03597   0.08113   0.50384   0.53127   0.99998
     Eigenvalues ---    1.00000
 Angle between quadratic step and forces=  44.74 degrees.
 Linear search not attempted -- first point.
 B after Tr=     0.000000   -0.000000    0.000000
         Rot=    1.000000    0.000000   -0.000000    0.000000 Ang=   0.00 deg.
 Variable       Old X    -DE/DX   Delta X   Delta X   Delta X     New X
                                 (Linear)    (Quad)   (Total)
    X1        0.00000  -0.00423   0.00000  -0.04452  -0.04452  -0.04452
    Y1        0.00000  -0.00005   0.00000   0.00688   0.00688   0.00688
    Z1        0.00000   0.00191   0.00000   0.06117   0.06117   0.06117
    X2       -8.33431   0.00448   0.00000   0.01129   0.01129  -8.32303
    Y2        0.00000   0.00001   0.00000  -0.00157  -0.00157  -0.00157
    Z2       -3.76030   0.00209   0.00000  -0.00469  -0.00469  -3.76499
    X3       -0.00000   0.00316   0.00000   0.04368   0.04368   0.04368
    Y3       -0.00000  -0.00077   0.00000  -0.00648  -0.00648  -0.00648
    Z3        6.75296  -0.00290   0.00000  -0.06778  -0.06778   6.68518
    X4        9.94731  -0.00341   0.00000  -0.01045  -0.01045   9.93686
    Y4       -2.35457   0.00082   0.00000   0.00116   0.00116  -2.35341
    Z4        9.66510  -0.00111   0.00000   0.01130   0.01130   9.67641
         Item               Value     Threshold  Converged?
 Maximum Force            0.004480     0.000450     NO 
 RMS     Force            0.002557     0.000300     NO 
 Maximum Displacement     0.067780     0.001800     NO 
 RMS     Displacement     0.032539     0.001200     NO 
 Predicted change in Energy=-3.546608D-04
 GradGradGradGradGradGradGradGradGradGradGradGradGradGradGradGradGradGrad

 Leave Link  103 at Fri Oct  6 22:04:58 2023, MaxMem=  1610612736 cpu:               3.8 elap:               2.3
 (Enter /home/sekinelabo/g16/l9999.exe)
 1\1\GINC-SEKINELABO-XA7R-R37\Force\RB3LYP\6-311+G(d)\Na4\SEKINELABO\06
 -Oct-2023\0\\#p B3LYP/6-311+g(d) force\\\0,1\Na,0.,0.,0.\Na,-4.4103279
 176,0.,-1.9898661244\Na,0.,0.,3.5735119092\Na,5.2638903491,-1.24598741
 94,5.1145530755\\Version=ES64L-G16RevB.01\State=1-A\HF=-649.1618418\RM
 SD=6.624e-09\RMSF=2.557e-03\Dipole=-0.0923598,0.0135631,0.0008047\Quad
 rupole=4.1890559,-5.1024517,0.9133958,-1.0888538,1.5060384,-0.0515681\
 PG=C01 [X(Na4)]\\@


 IF AT FIRST YOU DON'T SUCCEED, TRY, TRY AGAIN.
 THEN GIVE UP;
 THERE'S NO USE BEING A DAMN FOOL ABOUT IT.

                                 -- W. C. FIELDS
 Job cpu time:       0 days  0 hours  4 minutes 48.5 seconds.
 Elapsed time:       0 days  0 hours  2 minutes 57.7 seconds.
 File lengths (MBytes):  RWF=     10 Int=      0 D2E=      0 Chk=      2 Scr=      1
 Normal termination of Gaussian 16 at Fri Oct  6 22:04:59 2023.
 Initial command:
 /home/sekinelabo/g16/l1.exe "/home/sekinelabo/g16temp/Gau-708996.inp" -scrdir="/home/sekinelabo/g16temp/"
 Entering Link 1 = /home/sekinelabo/g16/l1.exe PID=    714514.
  
 Copyright (c) 1988-2017, Gaussian, Inc.  All Rights Reserved.
  
 This is part of the Gaussian(R) 16 program.  It is based on
 the Gaussian(R) 09 system (copyright 2009, Gaussian, Inc.),
 the Gaussian(R) 03 system (copyright 2003, Gaussian, Inc.),
 the Gaussian(R) 98 system (copyright 1998, Gaussian, Inc.),
[...]
 E= -649.141563938671     Delta-E=       -0.000000359585 Rises=F Damp=F
 DIIS: error= 5.02D-06 at cycle  17 NSaved=  17.
 NSaved=17 IEnMin=17 EnMin= -649.141563938671     IErMin=17 ErrMin= 5.02D-06
 ErrMax= 5.02D-06  0.00D+00 EMaxC= 1.00D-01 BMatC= 1.08D-09 BMatP= 3.60D-08
 IDIUse=1 WtCom= 1.00D+00 WtEn= 0.00D+00
 Coeff-Com: -0.736D-04 0.101D-03 0.165D-04-0.135D-04 0.467D-05-0.754D-04
 Coeff-Com:  0.355D-04 0.323D-03 0.198D-03-0.379D-02 0.692D-02-0.349D-02
 Coeff-Com: -0.545D-02 0.179D-01-0.347D-01 0.230D-03 0.102D+01
 Coeff:     -0.736D-04 0.101D-03 0.165D-04-0.135D-04 0.467D-05-0.754D-04
 Coeff:      0.355D-04 0.323D-03 0.198D-03-0.379D-02 0.692D-02-0.349D-02
 Coeff:     -0.545D-02 0.179D-01-0.347D-01 0.230D-03 0.102D+01
 Gap=     0.019 Goal=   None    Shift=    0.000
 RMSDP=2.71D-06 MaxDP=8.12D-05 DE=-3.60D-07 OVMax= 2.42D-04

 Cycle  18  Pass 1  IDiag  1:
 E= -649.141563952814     Delta-E=       -0.000000014142 Rises=F Damp=F
 DIIS: error= 1.34D-06 at cycle  18 NSaved=  18.
 NSaved=18 IEnMin=18 EnMin= -649.141563952814     IErMin=18 ErrMin= 1.34D-06
 ErrMax= 1.34D-06  0.00D+00 EMaxC= 1.00D-01 BMatC= 1.37D-10 BMatP= 1.08D-09
 IDIUse=1 WtCom= 1.00D+00 WtEn= 0.00D+00
 Coeff-Com: -0.517D-04 0.710D-04-0.413D-05 0.186D-05-0.170D-04 0.190D-04
 Coeff-Com:  0.148D-04-0.605D-04 0.786D-04-0.404D-02 0.572D-02 0.695D-03
 Coeff-Com: -0.116D-01 0.752D-02 0.335D-01-0.202D+00 0.303D+00 0.867D+00
 Coeff:     -0.517D-04 0.710D-04-0.413D-05 0.186D-05-0.170D-04 0.190D-04
 Coeff:      0.148D-04-0.605D-04 0.786D-04-0.404D-02 0.572D-02 0.695D-03
 Coeff:     -0.116D-01 0.752D-02 0.335D-01-0.202D+00 0.303D+00 0.867D+00
 Gap=     0.019 Goal=   None    Shift=    0.000
 RMSDP=1.31D-06 MaxDP=5.44D-05 DE=-1.41D-08 OVMax= 1.18D-04

 Cycle  19  Pass 1  IDiag  1:
 E= -649.141563953332     Delta-E=       -0.000000000518 Rises=F Damp=F
 DIIS: error= 1.65D-06 at cycle  19 NSaved=  19.
 NSaved=19 IEnMin=19 EnMin= -649.141563953332     IErMin=18 ErrMin= 1.34D-06
 ErrMax= 1.65D-06  0.00D+00 EMaxC= 1.00D-01 BMatC= 1.26D-10 BMatP= 1.37D-10
 IDIUse=1 WtCom= 1.00D+00 WtEn= 0.00D+00
 Coeff-Com: -0.206D-04 0.274D-04-0.245D-05 0.137D-05 0.624D-06 0.143D-04
 Coeff-Com: -0.212D-04 0.429D-04-0.356D-04-0.122D-02 0.159D-02-0.155D-03
 Coeff-Com: -0.616D-03-0.103D-02 0.114D-02-0.561D-01 0.521D-01 0.278D+00
 Coeff-Com:  0.727D+00
 Coeff:     -0.206D-04 0.274D-04-0.245D-05 0.137D-05 0.624D-06 0.143D-04
 Coeff:     -0.212D-04 0.429D-04-0.356D-04-0.122D-02 0.159D-02-0.155D-03
 Coeff:     -0.616D-03-0.103D-02 0.114D-02-0.561D-01 0.521D-01 0.278D+00
 Coeff:      0.727D+00
 Gap=     0.019 Goal=   None    Shift=    0.000
 RMSDP=4.53D-07 MaxDP=2.44D-05 DE=-5.18D-10 OVMax= 4.74D-05

 Cycle  20  Pass 1  IDiag  1:
 E= -649.141563954424     Delta-E=       -0.000000001093 Rises=F Damp=F
 DIIS: error= 1.78D-07 at cycle  20 NSaved=  20.
 NSaved=20 IEnMin=20 EnMin= -649.141563954424     IErMin=20 ErrMin= 1.78D-07
 ErrMax= 1.78D-07  0.00D+00 EMaxC= 1.00D-01 BMatC= 2.47D-12 BMatP= 1.26D-10
 IDIUse=1 WtCom= 1.00D+00 WtEn= 0.00D+00
 Coeff-Com:  0.375D-05-0.532D-05 0.467D-06-0.352D-07 0.809D-06-0.536D-06
 Coeff-Com:  0.148D-05-0.254D-04-0.136D-04 0.309D-03-0.391D-03 0.231D-03
 Coeff-Com: -0.360D-03 0.154D-02 0.390D-03-0.305D-03-0.167D-01 0.628D-02
 Coeff-Com: -0.132D+00 0.114D+01
 Coeff:      0.375D-05-0.532D-05 0.467D-06-0.352D-07 0.809D-06-0.536D-06
 Coeff:      0.148D-05-0.254D-04-0.136D-04 0.309D-03-0.391D-03 0.231D-03
 Coeff:     -0.360D-03 0.154D-02 0.390D-03-0.305D-03-0.167D-01 0.628D-02
 Coeff:     -0.132D+00 0.114D+01
 Gap=     0.019 Goal=   None    Shift=    0.000
 RMSDP=8.10D-08 MaxDP=4.71D-06 DE=-1.09D-09 OVMax= 7.52D-06

 Cycle  21  Pass 1  IDiag  1:
 E= -649.141563954446     Delta-E=       -0.000000000022 Rises=F Damp=F
 DIIS: error= 3.15D-08 at cycle  21 NSaved=  20.
 NSaved=20 IEnMin=20 EnMin= -649.141563954446     IErMin=20 ErrMin= 3.15D-08
 ErrMax= 3.15D-08  0.00D+00 EMaxC= 1.00D-01 BMatC= 8.04D-14 BMatP= 2.47D-12
 IDIUse=1 WtCom= 1.00D+00 WtEn= 0.00D+00
 Coeff-Com:  0.765D-06-0.102D-05 0.446D-08 0.189D-06 0.178D-06 0.265D-05
 Coeff-Com: -0.351D-05-0.348D-05-0.515D-04 0.511D-04 0.253D-04 0.299D-04
 Coeff-Com: -0.157D-03 0.140D-03 0.138D-03-0.387D-02-0.468D-02 0.988D-02
 Coeff-Com:  0.309D-01 0.968D+00
 Coeff:      0.765D-06-0.102D-05 0.446D-08 0.189D-06 0.178D-06 0.265D-05
 Coeff:     -0.351D-05-0.348D-05-0.515D-04 0.511D-04 0.253D-04 0.299D-04
 Coeff:     -0.157D-03 0.140D-03 0.138D-03-0.387D-02-0.468D-02 0.988D-02
 Coeff:      0.309D-01 0.968D+00
 Gap=     0.019 Goal=   None    Shift=    0.000
 RMSDP=1.58D-08 MaxDP=6.89D-07 DE=-2.16D-11 OVMax= 1.49D-06

 Cycle  22  Pass 1  IDiag  1:
 E= -649.141563954445     Delta-E=        0.000000000001 Rises=F Damp=F
 DIIS: error= 1.36D-08 at cycle  22 NSaved=  20.
 NSaved=20 IEnMin=19 EnMin= -649.141563954446     IErMin=20 ErrMin= 1.36D-08
 ErrMax= 1.36D-08  0.00D+00 EMaxC= 1.00D-01 BMatC= 1.02D-14 BMatP= 8.04D-14
 IDIUse=1 WtCom= 1.00D+00 WtEn= 0.00D+00
 Large coefficients: NSaved= 20 BigCof=    0.00 CofMax=   10.00 Det=-8.61D-16
 Inversion failed.  Reducing to 19 matrices.
 Large coefficients: NSaved= 19 BigCof=    0.00 CofMax=   10.00 Det=-9.22D-16
 Inversion failed.  Reducing to 18 matrices.
 Large coefficients: NSaved= 18 BigCof=    0.00 CofMax=   10.00 Det=-9.31D-16
 Inversion failed.  Reducing to 17 matrices.
 Large coefficients: NSaved= 17 BigCof=    0.00 CofMax=   10.00 Det=-1.32D-15
 Inversion failed.  Reducing to 16 matrices.
 Large coefficients: NSaved= 16 BigCof=    0.00 CofMax=   10.00 Det=-1.32D-15
 Inversion failed.  Reducing to 15 matrices.
 Coeff-Com:  0.421D-06 0.435D-06-0.608D-06-0.328D-06-0.755D-05 0.200D-04
 Coeff-Com: -0.362D-04-0.887D-04 0.332D-03 0.788D-04-0.297D-02 0.931D-02
 Coeff-Com: -0.250D-01-0.960D-02 0.103D+01
 Coeff:      0.421D-06 0.435D-06-0.608D-06-0.328D-06-0.755D-05 0.200D-04
 Coeff:     -0.362D-04-0.887D-04 0.332D-03 0.788D-04-0.297D-02 0.931D-02
 Coeff:     -0.250D-01-0.960D-02 0.103D+01
 Gap=     0.019 Goal=   None    Shift=    0.000
 RMSDP=4.99D-09 MaxDP=2.76D-07 DE= 9.09D-13 OVMax= 5.39D-07

 SCF Done:  E(RB3LYP) =  -649.141563954     A.U. after   22 cycles
            NFock= 22  Conv=0.50D-08     -V/T= 2.0030
 KE= 6.471765570759D+02 PE=-1.673399377226D+03 EE= 3.195913527132D+02
 Leave Link  502 at Sat Oct  7 02:10:25 2023, MaxMem=  1610612736 cpu:             226.4 elap:              92.9
 (Enter /home/sekinelabo/g16/l601.exe)
 Copying SCF densities to generalized density rwf, IOpCl= 0 IROHF=0.

 **********************************************************************

            Population analysis using the SCF Density.

 **********************************************************************

 Orbital symmetries:
       Occupied  (A) (A) (A) (A) (A) (A) (A) (A) (A) (A) (A) (A)
                 (A) (A) (A) (A) (A) (A) (A) (A) (A) (A)
       Virtual   (A) (A) (A) (A) (A) (A) (A) (A) (A) (A) (A) (A)
                 (A) (A) (A) (A) (A) (A) (A) (A) (A) (A) (A) (A)
                 (A) (A) (A) (A) (A) (A) (A) (A) (A) (A) (A) (A)
                 (A) (A) (A) (A) (A) (A) (A) (A) (A) (A) (A) (A)
                 (A) (A) (A) (A) (A) (A) (A) (A) (A) (A) (A) (A)
                 (A) (A) (A) (A) (A) (A) (A) (A) (A) (A) (A) (A)
                 (A) (A) (A) (A) (A) (A) (A) (A) (A) (A) (A) (A)
                 (A) (A) (A) (A) (A) (A) (A) (A) (A) (A) (A) (A)
                 (A) (A)
 The electronic state is 1-A.
 Alpha  occ. eigenvalues --  -38.47104 -38.47028 -38.46275 -38.45636  -2.22768
 Alpha  occ. eigenvalues --   -2.22695  -2.21937  -2.21313  -1.16448  -1.16432
 Alpha  occ. eigenvalues --   -1.16413  -1.16371  -1.16371  -1.16338  -1.15622
 Alpha  occ. eigenvalues --   -1.15621  -1.15566  -1.14988  -1.14988  -1.14962
 Alpha  occ. eigenvalues --   -0.12578  -0.10848
 Alpha virt. eigenvalues --   -0.08955  -0.07823  -0.02798  -0.02686  -0.02543
 Alpha virt. eigenvalues --   -0.02047  -0.01533  -0.01177  -0.01056  -0.00634
 Alpha virt. eigenvalues --   -0.00311  -0.00094   0.00123   0.00350   0.00661
 Alpha virt. eigenvalues --    0.01225   0.01325   0.01432   0.01581   0.01703
 Alpha virt. eigenvalues --    0.01727   0.01782   0.01923   0.02187   0.02317
 Alpha virt. eigenvalues --    0.02388   0.02517   0.03011   0.03306   0.03562
 Alpha virt. eigenvalues --    0.06728   0.07438   0.07491   0.07762   0.07958
 Alpha virt. eigenvalues --    0.07982   0.08188   0.08246   0.08436   0.08736
 Alpha virt. eigenvalues --    0.08809   0.09667   0.10191   0.10732   0.11361
 Alpha virt. eigenvalues --    0.12156   0.32386   0.32743   0.33617   0.33672
 Alpha virt. eigenvalues --    0.33686   0.33816   0.33893   0.34121   0.34212
 Alpha virt. eigenvalues --    0.34456   0.34590   0.34763   0.34781   0.34795
 Alpha virt. eigenvalues --    0.34954   0.34970   0.35120   0.35455   0.35662
 Alpha virt. eigenvalues --    0.36618   0.41293   0.41404   0.42323   0.42331
 Alpha virt. eigenvalues --    0.42607   0.42798   0.43036   0.43567   0.44443
 Alpha virt. eigenvalues --    0.44533   0.45714   0.47727   1.99852   2.00689
 Alpha virt. eigenvalues --    2.01487   2.01822   4.41285   4.41389   4.41732
 Alpha virt. eigenvalues --    4.42190   4.42617   4.42744   4.42820   4.43258
 Alpha virt. eigenvalues --    4.43487   4.43659   4.44008   4.45685  96.18776
 Alpha virt. eigenvalues --   96.19718  96.20667  96.21112
          Condensed to atoms (all electrons):
               1          2          3          4
     1  Na  10.815729   0.133972   0.028645  -0.012512
     2  Na   0.133972  10.890709  -0.047574  -0.017489
     3  Na   0.028645  -0.047574  10.881970   0.126999
     4  Na  -0.012512  -0.017489   0.126999  10.987508
 Mulliken charges:
               1
     1  Na   0.034165
     2  Na   0.040381
     3  Na   0.009959
     4  Na  -0.084506
 Sum of Mulliken charges =  -0.00000
 Mulliken charges with hydrogens summed into heavy atoms:
               1
     1  Na   0.034165
     2  Na   0.040381
     3  Na   0.009959
     4  Na  -0.084506
 Electronic spatial extent (au):  <R**2>=           3530.3903
 Charge=             -0.0000 electrons
 Dipole moment (field-independent basis, Debye):
    X=              2.3026    Y=              0.3196    Z=             -0.0186  Tot=              2.3247
 Quadrupole moment (field-independent basis, Debye-Ang):
   XX=            -38.7597   YY=            -33.7018   ZZ=            -47.9217
   XY=             -6.2737   XZ=              0.0042   YZ=              0.2159
 Traceless Quadrupole moment (field-independent basis, Debye-Ang):
   XX=              1.3680   YY=              6.4259   ZZ=             -7.7939
   XY=             -6.2737   XZ=              0.0042   YZ=              0.2159
 Octapole moment (field-independent basis, Debye-Ang**2):
  XXX=              3.1155  YYY=             18.7434  ZZZ=             -0.0656  XYY=             55.7817
  XXY=            -12.9439  XXZ=             -4.2424  XZZ=              7.5120  YZZ=              0.3560
  YYZ=             -0.3411  XYZ=              1.9014
 Hexadecapole moment (field-independent basis, Debye-Ang**3):
 XXXX=          -4412.6921 YYYY=          -1151.6925 ZZZZ=           -235.5581 XXXY=           -306.2607
 XXXZ=              9.4928 YYYX=             -7.1405 YYYZ=              3.5965 ZZZX=             -0.1299
 ZZZY=              1.3146 XXYY=           -895.0599 XXZZ=           -912.3342 YYZZ=           -255.0453
 XXYZ=              6.1850 YYXZ=             -2.7679 ZZXY=            -13.4747
 N-N= 5.748990348194D+01 E-N=-1.673399377922D+03  KE= 6.471765570759D+02
 No NMR shielding tensors so no spin-rotation constants.
 Leave Link  601 at Sat Oct  7 02:10:28 2023, MaxMem=  1610612736 cpu:               7.9 elap:               3.0
 (Enter /home/sekinelabo/g16/l701.exe)
 ... and contract with generalized density number  0.
 Compute integral first derivatives.
 Leave Link  701 at Sat Oct  7 02:10:31 2023, MaxMem=  1610612736 cpu:               7.1 elap:               2.6
 (Enter /home/sekinelabo/g16/l702.exe)
 L702 exits ... SP integral derivatives will be done elsewhere.
 Leave Link  702 at Sat Oct  7 02:10:31 2023, MaxMem=  1610612736 cpu:               0.7 elap:               0.3
 (Enter /home/sekinelabo/g16/l703.exe)
 Integral derivatives from FoFJK, PRISM(SPDF).
 Compute integral first derivatives, UseDBF=F ICtDFT=           0.
 Calling FoFJK, ICntrl=      2127 FMM=F ISym2X=0 I1Cent= 0 IOpClX= 0 NMat=1 NMatS=1 NMatT=0.
 FoFJK:  IHMeth= 1 ICntrl=    2127 DoSepK=F KAlg= 0 I1Cent=           0 FoldK=F
 IRaf=         0 NMat=       1 IRICut=       1 DoRegI=T DoRafI=F ISym2E= 0 IDoP0=0 IntGTp=1.
 FoFCou: FMM=F IPFlag=           0 FMFlag=      100000 FMFlg1=         800
         NFxFlg=           0 DoJE=F BraDBF=F KetDBF=F FulRan=T
         wScrn=  0.000000 ICntrl=      2127 IOpCl=  0 I1Cent=           0 NGrid=           0
         NMat0=    1 NMatS0=      1 NMatT0=    0 NMatD0=    1 NMtDS0=    0 NMtDT0=    0
 Symmetry not used in FoFCou.
 Leave Link  703 at Sat Oct  7 02:10:36 2023, MaxMem=  1610612736 cpu:              12.2 elap:               4.5
 (Enter /home/sekinelabo/g16/l716.exe)
 Dipole        = 9.05898560D-01 1.25731099D-01-7.32660376D-03
 ***** Axes restored to original set *****
 -------------------------------------------------------------------
 Center     Atomic                   Forces (Hartrees/Bohr)
 Number     Number              X              Y              Z
 -------------------------------------------------------------------
      1       11          -0.004677874    0.000005957    0.004270052
      2       11           0.004786545    0.000004617   -0.001513567
      3       11          -0.001011784   -0.000432115    0.001575793
      4       11           0.000903113    0.000421541   -0.004332278
 -------------------------------------------------------------------
 Cartesian Forces:  Max     0.004786545 RMS     0.002719885
 Z-matrix is all fixed cartesians, so copy forces.
 Force constants in Cartesian coordinates: 
                1             2             3             4             5 
      1  0.100000D+01
      2  0.000000D+00  0.100000D+01
      3  0.000000D+00  0.000000D+00  0.100000D+01
      4  0.000000D+00  0.000000D+00  0.000000D+00  0.100000D+01
      5  0.000000D+00  0.000000D+00  0.000000D+00  0.000000D+00  0.100000D+01
      6  0.000000D+00  0.000000D+00  0.000000D+00  0.000000D+00  0.000000D+00
      7  0.000000D+00  0.000000D+00  0.000000D+00  0.000000D+00  0.000000D+00
      8  0.000000D+00  0.000000D+00  0.000000D+00  0.000000D+00  0.000000D+00
      9  0.000000D+00  0.000000D+00  0.000000D+00  0.000000D+00  0.000000D+00
     10  0.000000D+00  0.000000D+00  0.000000D+00  0.000000D+00  0.000000D+00
     11  0.000000D+00  0.000000D+00  0.000000D+00  0.000000D+00  0.000000D+00
     12  0.000000D+00  0.000000D+00  0.000000D+00  0.000000D+00  0.000000D+00
                6             7             8             9            10 
      6  0.100000D+01
      7  0.000000D+00  0.100000D+01
      8  0.000000D+00  0.000000D+00  0.100000D+01
      9  0.000000D+00  0.000000D+00  0.000000D+00  0.100000D+01
     10  0.000000D+00  0.000000D+00  0.000000D+00  0.000000D+00  0.100000D+01
     11  0.000000D+00  0.000000D+00  0.000000D+00  0.000000D+00  0.000000D+00
     12  0.000000D+00  0.000000D+00  0.000000D+00  0.000000D+00  0.000000D+00
               11            12 
     11  0.100000D+01
     12  0.000000D+00  0.100000D+01
 Leave Link  716 at Sat Oct  7 02:10:36 2023, MaxMem=  1610612736 cpu:               0.8 elap:               0.4
 (Enter /home/sekinelabo/g16/l103.exe)

 GradGradGradGradGradGradGradGradGradGradGradGradGradGradGradGradGradGrad
 Berny optimization.
 Search for a local minimum.
 Step number   1 out of a maximum of    2
 All quantities printed in internal units (Hartrees-Bohrs-Radians)
 Second derivative matrix not updated -- first step.
 The second derivative matrix:
                          X1        Y1        Z1        X2        Y2
           X1           1.00000
           Y1           0.00000   1.00000
           Z1          -0.00000   0.00000   1.00000
           X2           0.00000   0.00000   0.00000   1.00000
           Y2           0.00000   0.00000   0.00000   0.00000   1.00000
           Z2           0.00000   0.00000   0.00000  -0.00000   0.00000
           X3           0.00000   0.00000   0.00000   0.00000   0.00000
           Y3           0.00000   0.00000   0.00000   0.00000   0.00000
           Z3           0.00000   0.00000   0.00000   0.00000   0.00000
           X4           0.00000   0.00000   0.00000   0.00000   0.00000
           Y4           0.00000   0.00000   0.00000   0.00000   0.00000
           Z4           0.00000   0.00000   0.00000   0.00000   0.00000
                          Z2        X3        Y3        Z3        X4
           Z2           1.00000
           X3           0.00000   1.00000
           Y3           0.00000   0.00000   1.00000
           Z3           0.00000  -0.00000   0.00000   1.00000
           X4           0.00000   0.00000   0.00000   0.00000   1.00000
           Y4           0.00000   0.00000   0.00000   0.00000   0.00000
           Z4           0.00000   0.00000   0.00000   0.00000  -0.00000
                          Y4        Z4
           Y4           1.00000
           Z4           0.00000   1.00000
 ITU=  0
     Eigenvalues ---    1.00000   1.00000   1.00000   1.00000   1.00000
     Eigenvalues ---    1.00000   1.00000   1.00000   1.00000   1.00000
     Eigenvalues ---    1.00000   1.00000
 Angle between quadratic step and forces=   0.00 degrees.
 Linear search not attempted -- first point.
 B after Tr=     0.000000   -0.000000    0.000000
         Rot=    1.000000   -0.000000    0.000000    0.000000 Ang=   0.00 deg.
 Variable       Old X    -DE/DX   Delta X   Delta X   Delta X     New X
                                 (Linear)    (Quad)   (Total)
    X1        0.00000  -0.00468   0.00000  -0.00468  -0.00468  -0.00468
    Y1        0.00000   0.00001   0.00000   0.00001   0.00001   0.00001
    Z1        0.00000   0.00427   0.00000   0.00427   0.00427   0.00427
    X2       -9.81412   0.00479   0.00000   0.00479   0.00479  -9.80933
    Y2       -0.00000   0.00000   0.00000   0.00000   0.00000   0.00000
    Z2        3.19005  -0.00151   0.00000  -0.00151  -0.00151   3.18854
    X3        0.00000  -0.00101   0.00000  -0.00101  -0.00101  -0.00101
    Y3        0.00000  -0.00043   0.00000  -0.00043  -0.00043  -0.00043
    Z3        9.90887   0.00158   0.00000   0.00158   0.00158   9.91045
    X4       -2.05779   0.00090   0.00000   0.00090   0.00090  -2.05689
    Y4       -1.01105   0.00042   0.00000   0.00042   0.00042  -1.01062
    Z4       20.51385  -0.00433   0.00000  -0.00433  -0.00433  20.50951
         Item               Value     Threshold  Converged?
 Maximum Force            0.004787     0.000450     NO 
 RMS     Force            0.002720     0.000300     NO 
 Maximum Displacement     0.004787     0.001800     NO 
 RMS     Displacement     0.002720     0.001200     NO 
 Predicted change in Energy=-4.438664D-05
 GradGradGradGradGradGradGradGradGradGradGradGradGradGradGradGradGradGrad

 Leave Link  103 at Sat Oct  7 02:10:36 2023, MaxMem=  1610612736 cpu:               0.7 elap:               0.3
 (Enter /home/sekinelabo/g16/l9999.exe)
 1\1\GINC-SEKINELABO-XA7R-R37\Force\RB3LYP\6-311+G(d)\Na4\SEKINELABO\07
 -Oct-2023\0\\#p B3LYP/6-311+g(d) force\\\0,1\Na,0.,0.,0.\Na,-5.1934094
 245,0.,1.6881037166\Na,0.,0.,5.2435501579\Na,-1.088935433,-0.535022474
 6,10.8554597418\\Version=ES64L-G16RevB.01\State=1-A\HF=-649.141564\RMS
 D=4.990e-09\RMSF=2.720e-03\Dipole=-0.2512433,0.035332,-0.8787165\Quadr
 upole=3.4125486,-5.7744119,2.3618633,0.148595,-5.0016451,-0.4217819\PG
 =C01 [X(Na4)]\\@


 THE CAUTIOUS SELDOM ERR...CONFUCIUS                   
 Job cpu time:       0 days  0 hours  4 minutes 58.9 seconds.
 Elapsed time:       0 days  0 hours  2 minutes  5.7 seconds.
 File lengths (MBytes):  RWF=     10 Int=      0 D2E=      0 Chk=      2 Scr=      1
 Normal termination of Gaussian 16 at Sat Oct  7 02:10:37 2023.
