 Entering Gaussian System, Link 0=g16
 Initial command:
 /home/sekinelabo/g16/l1.exe "/home/sekinelabo/g16temp/Gau-708973.inp" -scrdir="/home/sekinelabo/g16temp/"
 Entering Link 1 = /home/sekinelabo/g16/l1.exe PID=    708975.
  
 Copyright (c) 1988-2017, Gaussian, Inc.  All Rights Reserved.
  
 This is part of the Gaussian(R) 16 program.  It is based on
 the Gaussian(R) 09 system (copyright 2009, Gaussian, Inc.),
 the Gaussian(R) 03 system (copyright 2003, Gaussian, Inc.),
 the Gaussian(R) 98 system (copyright 1998, Gaussian, Inc.),
 the Gaussian(R) 94 system (copyright 1995, Gaussian, Inc.),
 the Gaussian 92(TM) system (copyright 1992, Gaussian, Inc.),
 the Gaussian 90(TM) system (copyright 1990, Gaussian, Inc.),
 the Gaussian 88(TM) system (copyright 1988, Gaussian, Inc.),
 the Gaussian 86(TM) system (copyright 1986, Carnegie Mellon
 University), and the Gaussian 82(TM) system (copyright 1983,
 Carnegie Mellon University). Gaussian is a federally registered
 trademark of Gaussian, Inc.
  
 This software contains proprietary and confidential information,
 including trade secrets, belonging to Gaussian, Inc.
  
 This software is provided under written license and may be
 used, copied, transmitted, or stored only in accord with that
 written license.
  
 The following legend is applicable only to US Government
 contracts under FAR:
  
                    RESTRICTED RIGHTS LEGEND
  
 Use, reproduction and disclosure by the US Government is
 subject to restrictions as set forth in subparagraphs (a)
 and (c) of the Commercial Computer Software - Restricted
 Rights clause in FAR 52.227-19.
  
 Gaussian, Inc.
 340 Quinnipiac St., Bldg. 40, Wallingford CT 06492
  
  
 ---------------------------------------------------------------
 Warning -- This program may not be used in any manner that
 competes with the business of Gaussian, Inc. or will provide
 assistance to any competitor of Gaussian, Inc.  The licensee
 of this program is prohibited from giving any competitor of
 Gaussian, Inc. access to this program.  By using this program,
 the user acknowledges that Gaussian, Inc. is engaged in the
 business of creating and licensing software in the field of
 computational chemistry and represents and warrants to the
 licensee that it is not a competitor of Gaussian, Inc. and that
 it will not use this program in any manner prohibited above.
 ---------------------------------------------------------------
  

 Cite this work as:
 Gaussian 16, Revision B.01,
 M. J. Frisch, G. W. Trucks, H. B. Schlegel, G. E. Scuseria, 
 M. A. Robb, J. R. Cheeseman, G. Scalmani, V. Barone, 
 G. A. Petersson, H. Nakatsuji, X. Li, M. Caricato, A. V. Marenich, 
 J. Bloino, B. G. Janesko, R. Gomperts, B. Mennucci, H. P. Hratchian, 
 J. V. Ortiz, A. F. Izmaylov, J. L. Sonnenberg, D. Williams-Young, 
 F. Ding, F. Lipparini, F. Egidi, J. Goings, B. Peng, A. Petrone, 
 T. Henderson, D. Ranasinghe, V. G. Zakrzewski, J. Gao, N. Rega, 
 G. Zheng, W. Liang, M. Hada, M. Ehara, K. Toyota, R. Fukuda, 
 J. Hasegawa, M. Ishida, T. Nakajima, Y. Honda, O. Kitao, H. Nakai, 
 T. Vreven, K. Throssell, J. A. Montgomery, Jr., J. E. Peralta, 
 F. Ogliaro, M. J. Bearpark, J. J. Heyd, E. N. Brothers, K. N. Kudin, 
 V. N. Staroverov, T. A. Keith, R. Kobayashi, J. Normand, 
 K. Raghavachari, A. P. Rendell, J. C. Burant, S. S. Iyengar, 
 J. Tomasi, M. Cossi, J. M. Millam, M. Klene, C. Adamo, R. Cammi, 
 J. W. Ochterski, R. L. Martin, K. Morokuma, O. Farkas, 
 J. B. Foresman, and D. J. Fox, Gaussian, Inc., Wallingford CT, 2016.
 
 ******************************************
 Gaussian 16:  ES64L-G16RevB.01 20-Dec-2017
                 6-Oct-2023 
 ******************************************
 %NProcShared=16
 Will use up to   16 processors via shared memory.
 %mem=12GB
 %Chk=checkpoint.chk
 -------------------------
 #p B3LYP/6-311+g(d) force
 -------------------------
 1/10=7,30=1,38=1/1,3;
 2/12=2,17=6,18=5,40=1/2;
 3/5=4,6=6,7=11,11=2,25=1,30=1,71=1,74=-5/1,2,3;
 4//1;
 5/5=2,38=5/2;
 6/7=2,8=2,9=2,10=2,28=1/1;
 7/29=1/1,2,3,16;
 1/10=7,30=1/3;
 99//99;
 Leave Link    1 at Fri Oct  6 21:59:34 2023, MaxMem=  1610612736 cpu:               0.5 elap:               0.2
 (Enter /home/sekinelabo/g16/l101.exe)


 Symbolic Z-matrix:
 Charge =  0 Multiplicity = 1
 Na                    0.        0.        0. 
 Na                   -1.81242   0.       -2.20959 
 Na                    0.        0.        4.50376 
 Na                   -0.17527  -3.85817   0.24619 
 
 ITRead=  0  0  0  0
 MicOpt= -1 -1 -1 -1
 NAtoms=      4 NQM=        4 NQMF=       0 NMMI=      0 NMMIF=      0
                NMic=       0 NMicF=      0.
                    Isotopes and Nuclear Properties:
 (Nuclear quadrupole moments (NQMom) in fm**2, nuclear magnetic moments (NMagM)
  in nuclear magnetons)

  Atom         1           2           3           4
 IAtWgt=          23          23          23          23
 AtmWgt=  22.9897697  22.9897697  22.9897697  22.9897697
 NucSpn=           3           3           3           3
 AtZEff=  -0.0000000  -0.0000000  -0.0000000  -0.0000000
 NQMom=   10.4000000  10.4000000  10.4000000  10.4000000
 NMagM=    2.2175200   2.2175200   2.2175200   2.2175200
 AtZNuc=  11.0000000  11.0000000  11.0000000  11.0000000
 Leave Link  101 at Fri Oct  6 21:59:36 2023, MaxMem=  1610612736 cpu:               2.2 elap:               1.2
 (Enter /home/sekinelabo/g16/l103.exe)

 GradGradGradGradGradGradGradGradGradGradGradGradGradGradGradGradGradGrad
 Berny optimization.
 Initialization pass.
 Trust Radius=3.00D-01 FncErr=1.00D-07 GrdErr=1.00D-07 EigMax=2.50D+02 EigMin=1.00D-04
 Number of steps in this run=      2 maximum allowed number of steps=      2.
 GradGradGradGradGradGradGradGradGradGradGradGradGradGradGradGradGradGrad

 Leave Link  103 at Fri Oct  6 21:59:36 2023, MaxMem=  1610612736 cpu:               0.5 elap:               0.3
 (Enter /home/sekinelabo/g16/l202.exe)
                          Input orientation:                          
 ---------------------------------------------------------------------
 Center     Atomic      Atomic             Coordinates (Angstroms)
 Number     Number       Type             X           Y           Z
 ---------------------------------------------------------------------
      1         11           0        0.000000    0.000000    0.000000
      2         11           0       -1.812422    0.000000   -2.209593
      3         11           0        0.000000    0.000000    4.503763
      4         11           0       -0.175274   -3.858166    0.246188
 ---------------------------------------------------------------------
                    Distance matrix (angstroms):
                    1          2          3          4
     1  Na   0.000000
     2  Na   2.857827   0.000000
     3  Na   4.503763   6.953705   0.000000
     4  Na   3.869984   4.857629   5.748314   0.000000
 Stoichiometry    Na4
 Framework group  C1[X(Na4)]
 Deg. of freedom     6
 Full point group                 C1      NOp   1
 Largest Abelian subgroup         C1      NOp   1
 Largest concise Abelian subgroup C1      NOp   1
                         Standard orientation:                         
 ---------------------------------------------------------------------
 Center     Atomic      Atomic             Coordinates (Angstroms)
 Number     Number       Type             X           Y           Z
 ---------------------------------------------------------------------
      1         11           0       -0.424817   -0.899560    0.768723
      2         11           0       -2.970433   -1.309402   -0.463771
      3         11           0        3.951580   -0.674975   -0.270788
      4         11           0       -0.556330    2.883937   -0.034164
 ---------------------------------------------------------------------
 Rotational constants (GHZ):           1.8052792           0.8517503           0.6068422
 Leave Link  202 at Fri Oct  6 21:59:37 2023, MaxMem=  1610612736 cpu:               1.2 elap:               0.7
 (Enter /home/sekinelabo/g16/l301.exe)
 Standard basis: 6-311+G(d) (5D, 7F)
 Ernie: Thresh=  0.10000D-02 Tol=  0.10000D-05 Strict=F.
 There are   124 symmetry adapted cartesian basis functions of A   symmetry.
 There are   120 symmetry adapted basis functions of A   symmetry.
   120 basis functions,   200 primitive gaussians,   124 cartesian basis functions
    22 alpha electrons       22 beta electrons
       nuclear repulsion energy        86.6963158456 Hartrees.
 IExCor=  402 DFT=T Ex+Corr=B3LYP ExCW=0 ScaHFX=  0.200000
 ScaDFX=  0.800000  0.720000  1.000000  0.810000 ScalE2=  1.000000  1.000000
 IRadAn=      5 IRanWt=     -1 IRanGd=            0 ICorTp=0 IEmpDi=  4
 NAtoms=    4 NActive=    4 NUniq=    4 SFac= 1.00D+00 NAtFMM=   60 NAOKFM=F Big=F
 Integral buffers will be    131072 words long.
 Raffenetti 2 integral format.
 Two-electron integral symmetry is turned on.
 Leave Link  301 at Fri Oct  6 21:59:37 2023, MaxMem=  1610612736 cpu:               0.7 elap:               0.4
 (Enter /home/sekinelabo/g16/l302.exe)
 NPDir=0 NMtPBC=     1 NCelOv=     1 NCel=       1 NClECP=     1 NCelD=      1
         NCelK=      1 NCelE2=     1 NClLst=     1 CellRange=     0.0.
 One-electron integrals computed using PRISM.
 One-electron integral symmetry used in STVInt
 NBasis=   120 RedAO= T EigKep=  3.32D-05  NBF=   120
 NBsUse=   120 1.00D-06 EigRej= -1.00D+00 NBFU=   120
 Precomputing XC quadrature grid using
 IXCGrd= 4 IRadAn=           5 IRanWt=          -1 IRanGd=           0 AccXCQ= 0.00D+00.
 Generated NRdTot=       0 NPtTot=           0 NUsed=           0 NTot=          32
 NSgBfM=   117   117   117   117   117 MxSgAt=     4 MxSgA2=     4.
 Leave Link  302 at Fri Oct  6 21:59:49 2023, MaxMem=  1610612736 cpu:              19.5 elap:              12.3
 (Enter /home/sekinelabo/g16/l303.exe)
 DipDrv:  MaxL=1.
 Leave Link  303 at Fri Oct  6 21:59:51 2023, MaxMem=  1610612736 cpu:               2.5 elap:               1.5
 (Enter /home/sekinelabo/g16/l401.exe)
 ExpMin= 7.60D-03 ExpMax= 3.62D+04 ExpMxC= 1.21D+03 IAcc=3 IRadAn=         5 AccDes= 0.00D+00
 Harris functional with IExCor=  402 and IRadAn=       5 diagonalized for initial guess.
 HarFok:  IExCor=  402 AccDes= 0.00D+00 IRadAn=         5 IDoV= 1 UseB2=F ITyADJ=14
 ICtDFT=  3500011 ScaDFX=  1.000000  1.000000  1.000000  1.000000
 FoFCou: FMM=F IPFlag=           0 FMFlag=      100000 FMFlg1=           0
         NFxFlg=           0 DoJE=T BraDBF=F KetDBF=T FulRan=T
         wScrn=  0.000000 ICntrl=       500 IOpCl=  0 I1Cent=   200000004 NGrid=           0
         NMat0=    1 NMatS0=      1 NMatT0=    0 NMatD0=    1 NMtDS0=    0 NMtDT0=    0
 Petite list used in FoFCou.
 Harris En= -649.050487197811    
 JPrj=0 DoOrth=F DoCkMO=F.
 Leave Link  401 at Fri Oct  6 22:00:00 2023, MaxMem=  1610612736 cpu:              13.7 elap:               8.5
 (Enter /home/sekinelabo/g16/l502.exe)
 Keep R1 ints in memory in canonical form, NReq=41581754.
 FoFCou: FMM=F IPFlag=           0 FMFlag=           0 FMFlg1=           0
         NFxFlg=           0 DoJE=F BraDBF=F KetDBF=F FulRan=T
         wScrn=  0.000000 ICntrl=       600 IOpCl=  0 I1Cent=           0 NGrid=           0
         NMat0=    1 NMatS0=   7260 NMatT0=    0 NMatD0=    1 NMtDS0=    0 NMtDT0=    0
 Symmetry not used in FoFCou.
 Two-electron integral symmetry not used.
 Closed shell SCF:
 Using DIIS extrapolation, IDIIS=  1040.
 NGot=  1610612736 LenX=  1584221388 LenY=  1584205571
 Requested convergence on RMS density matrix=1.00D-08 within 128 cycles.
 Requested convergence on MAX density matrix=1.00D-06.
 Requested convergence on             energy=1.00D-06.
 No special actions if energy rises.

 Cycle   1  Pass 1  IDiag  1:
 E= -649.148798851678    
 DIIS: error= 8.70D-03 at cycle   1 NSaved=   1.
 NSaved= 1 IEnMin= 1 EnMin= -649.148798851678     IErMin= 1 ErrMin= 8.70D-03
 ErrMax= 8.70D-03  0.00D+00 EMaxC= 1.00D-01 BMatC= 2.77D-02 BMatP= 2.77D-02
 IDIUse=3 WtCom= 9.13D-01 WtEn= 8.70D-02
 Coeff-Com:  0.100D+01
 Coeff-En:   0.100D+01
 Coeff:      0.100D+01
 Gap=    -0.012 Goal=   None    Shift=    0.000
 GapD=   -0.012 DampG=0.250 DampE=1.000 DampFc=0.2500 IDamp=-1.
 Damping current iteration by 2.50D-01
 RMSDP=1.30D-02 MaxDP=6.55D-01              OVMax= 7.29D-01

 Cycle   2  Pass 1  IDiag  1:
 E= -649.156951890381     Delta-E=       -0.008153038704 Rises=F Damp=T
 DIIS: error= 6.13D-03 at cycle   2 NSaved=   2.
 NSaved= 2 IEnMin= 2 EnMin= -649.156951890381     IErMin= 2 ErrMin= 6.13D-03
 ErrMax= 6.13D-03  0.00D+00 EMaxC= 1.00D-01 BMatC= 1.01D-02 BMatP= 2.77D-02
 IDIUse=3 WtCom= 9.39D-01 WtEn= 6.13D-02
 Coeff-Com: -0.929D+00 0.193D+01
 Coeff-En:   0.177D+00 0.823D+00
 Coeff:     -0.861D+00 0.186D+01
 Gap=    -0.021 Goal=   None    Shift=    0.000
 RMSDP=7.45D-03 MaxDP=3.30D-01 DE=-8.15D-03 OVMax= 6.95D-01

 Cycle   3  Pass 1  IDiag  1:
 E= -649.091786837164     Delta-E=        0.065165053217 Rises=F Damp=F
 DIIS: error= 9.40D-03 at cycle   3 NSaved=   3.
 NSaved= 3 IEnMin= 2 EnMin= -649.156951890381     IErMin= 2 ErrMin= 6.13D-03
 ErrMax= 9.40D-03  0.00D+00 EMaxC= 1.00D-01 BMatC= 9.21D-03 BMatP= 1.01D-02
 IDIUse=3 WtCom= 9.06D-01 WtEn= 9.40D-02
 Rare condition: small coef for last iteration:  0.000D+00
 Coeff-Com: -0.680D+00 0.128D+01 0.405D+00
 Coeff-En:   0.868D-01 0.867D+00 0.462D-01
 Coeff:     -0.680D+00 0.128D+01 0.405D+00
 Gap=     0.022 Goal=   None    Shift=    0.000
 RMSDP=8.39D-03 MaxDP=5.08D-01 DE= 6.52D-02 OVMax= 7.44D-01

 Cycle   4  Pass 1  IDiag  1:
 E= -649.147878052105     Delta-E=       -0.056091214941 Rises=F Damp=F
 DIIS: error= 5.82D-03 at cycle   4 NSaved=   4.
 NSaved= 4 IEnMin= 2 EnMin= -649.156951890381     IErMin= 4 ErrMin= 5.82D-03
 ErrMax= 5.82D-03  0.00D+00 EMaxC= 1.00D-01 BMatC= 2.87D-03 BMatP= 9.21D-03
 IDIUse=3 WtCom= 9.42D-01 WtEn= 5.82D-02
 Coeff-Com: -0.100D+00 0.227D+00 0.324D+00 0.550D+00
 Coeff-En:   0.000D+00 0.000D+00 0.321D+00 0.679D+00
 Coeff:     -0.943D-01 0.214D+00 0.323D+00 0.557D+00
 Gap=     0.011 Goal=   None    Shift=    0.000
 RMSDP=4.31D-03 MaxDP=2.11D-01 DE=-5.61D-02 OVMax= 4.49D-01

 Cycle   5  Pass 1  IDiag  1:
 E= -649.167725493478     Delta-E=       -0.019847441373 Rises=F Damp=F
 DIIS: error= 2.41D-03 at cycle   5 NSaved=   5.
 NSaved= 5 IEnMin= 5 EnMin= -649.167725493478     IErMin= 5 ErrMin= 2.41D-03
 ErrMax= 2.41D-03  0.00D+00 EMaxC= 1.00D-01 BMatC= 7.67D-04 BMatP= 2.87D-03
 IDIUse=3 WtCom= 9.76D-01 WtEn= 2.41D-02
 Coeff-Com: -0.390D-01 0.523D-01 0.486D-02 0.313D+00 0.669D+00
 Coeff-En:   0.000D+00 0.000D+00 0.000D+00 0.290D+00 0.710D+00
 Coeff:     -0.381D-01 0.510D-01 0.474D-02 0.312D+00 0.670D+00
 Gap=     0.018 Goal=   None    Shift=    0.000
 RMSDP=1.44D-03 MaxDP=8.05D-02 DE=-1.98D-02 OVMax= 1.44D-01

 Cycle   6  Pass 1  IDiag  1:
 E= -649.173901513423     Delta-E=       -0.006176019945 Rises=F Damp=F
 DIIS: error= 5.18D-04 at cycle   6 NSaved=   6.
 NSaved= 6 IEnMin= 6 EnMin= -649.173901513423     IErMin= 6 ErrMin= 5.18D-04
 ErrMax= 5.18D-04  0.00D+00 EMaxC= 1.00D-01 BMatC= 3.28D-05 BMatP= 7.67D-04
 IDIUse=3 WtCom= 9.95D-01 WtEn= 5.18D-03
 Coeff-Com: -0.344D-01 0.484D-01-0.311D-01 0.702D-01 0.218D+00 0.729D+00
 Coeff-En:   0.000D+00 0.000D+00 0.000D+00 0.000D+00 0.000D+00 0.100D+01
 Coeff:     -0.342D-01 0.482D-01-0.309D-01 0.699D-01 0.217D+00 0.731D+00
 Gap=     0.019 Goal=   None    Shift=    0.000
 RMSDP=5.35D-04 MaxDP=1.60D-02 DE=-6.18D-03 OVMax= 4.21D-02

 Cycle   7  Pass 1  IDiag  1:
 E= -649.173623344809     Delta-E=        0.000278168614 Rises=F Damp=F
 DIIS: error= 6.77D-04 at cycle   7 NSaved=   7.
 NSaved= 7 IEnMin= 6 EnMin= -649.173901513423     IErMin= 6 ErrMin= 5.18D-04
 ErrMax= 6.77D-04  0.00D+00 EMaxC= 1.00D-01 BMatC= 5.16D-05 BMatP= 3.28D-05
 IDIUse=3 WtCom= 9.95D-01 WtEn= 5.18D-03
 Coeff-Com: -0.164D-01 0.217D-01-0.110D-01 0.501D-01-0.899D-01 0.198D+00
 Coeff-Com:  0.847D+00
 Coeff-En:   0.000D+00 0.000D+00 0.000D+00 0.000D+00 0.000D+00 0.940D+00
 Coeff-En:   0.605D-01
 Coeff:     -0.163D-01 0.216D-01-0.109D-01 0.498D-01-0.894D-01 0.202D+00
 Coeff:      0.843D+00
 Gap=     0.020 Goal=   None    Shift=    0.000
 RMSDP=2.19D-04 MaxDP=9.74D-03 DE= 2.78D-04 OVMax= 1.87D-02

 Cycle   8  Pass 1  IDiag  1:
 E= -649.173914289074     Delta-E=       -0.000290944265 Rises=F Damp=F
 DIIS: error= 3.91D-04 at cycle   8 NSaved=   8.
 NSaved= 8 IEnMin= 8 EnMin= -649.173914289074     IErMin= 8 ErrMin= 3.91D-04
 ErrMax= 3.91D-04  0.00D+00 EMaxC= 1.00D-01 BMatC= 1.53D-05 BMatP= 3.28D-05
 IDIUse=3 WtCom= 9.96D-01 WtEn= 3.91D-03
 Coeff-Com: -0.109D-01 0.151D-01-0.216D-02 0.343D-01-0.117D+00-0.877D-01
 Coeff-Com:  0.360D+00 0.809D+00
 Coeff-En:   0.000D+00 0.000D+00 0.000D+00 0.000D+00 0.000D+00 0.418D+00
 Coeff-En:   0.000D+00 0.582D+00
 Coeff:     -0.108D-01 0.150D-01-0.215D-02 0.341D-01-0.117D+00-0.857D-01
 Coeff:      0.359D+00 0.808D+00
 Gap=     0.020 Goal=   None    Shift=    0.000
 RMSDP=1.31D-04 MaxDP=6.70D-03 DE=-2.91D-04 OVMax= 1.18D-02

 Cycle   9  Pass 1  IDiag  1:
 E= -649.174022118748     Delta-E=       -0.000107829675 Rises=F Damp=F
 DIIS: error= 1.25D-04 at cycle   9 NSaved=   9.
 NSaved= 9 IEnMin= 9 EnMin= -649.174022118748     IErMin= 9 ErrMin= 1.25D-04
 ErrMax= 1.25D-04  0.00D+00 EMaxC= 1.00D-01 BMatC= 1.97D-06 BMatP= 1.53D-05
 IDIUse=3 WtCom= 9.99D-01 WtEn= 1.25D-03
 Coeff-Com: -0.416D-02 0.562D-02 0.517D-03 0.110D-01-0.464D-01-0.579D-01
 Coeff-Com:  0.623D-01 0.693D-01 0.960D+00
 Coeff-En:   0.000D+00 0.000D+00 0.000D+00 0.000D+00 0.000D+00 0.000D+00
 Coeff-En:   0.000D+00 0.000D+00 0.100D+01
 Coeff:     -0.415D-02 0.562D-02 0.516D-03 0.110D-01-0.463D-01-0.578D-01
 Coeff:      0.622D-01 0.692D-01 0.960D+00
 Gap=     0.020 Goal=   None    Shift=    0.000
 RMSDP=4.37D-05 MaxDP=2.01D-03 DE=-1.08D-04 OVMax= 3.34D-03

 Cycle  10  Pass 1  IDiag  1:
 E= -649.174033120580     Delta-E=       -0.000011001831 Rises=F Damp=F
 DIIS: error= 5.95D-05 at cycle  10 NSaved=  10.
 NSaved=10 IEnMin=10 EnMin= -649.174033120580     IErMin=10 ErrMin= 5.95D-05
 ErrMax= 5.95D-05  0.00D+00 EMaxC= 1.00D-01 BMatC= 3.64D-07 BMatP= 1.97D-06
 IDIUse=1 WtCom= 1.00D+00 WtEn= 0.00D+00
 Coeff-Com: -0.107D-02 0.149D-02 0.453D-03 0.183D-02-0.751D-02-0.360D-02
 Coeff-Com:  0.899D-02-0.170D+00 0.267D+00 0.902D+00
 Coeff:     -0.107D-02 0.149D-02 0.453D-03 0.183D-02-0.751D-02-0.360D-02
 Coeff:      0.899D-02-0.170D+00 0.267D+00 0.902D+00
 Gap=     0.020 Goal=   None    Shift=    0.000
 RMSDP=3.35D-05 MaxDP=1.57D-03 DE=-1.10D-05 OVMax= 3.16D-03

 Cycle  11  Pass 1  IDiag  1:
 E= -649.174036201488     Delta-E=       -0.000003080908 Rises=F Damp=F
 DIIS: error= 2.82D-06 at cycle  11 NSaved=  11.
 NSaved=11 IEnMin=11 EnMin= -649.174036201488     IErMin=11 ErrMin= 2.82D-06
 ErrMax= 2.82D-06  0.00D+00 EMaxC= 1.00D-01 BMatC= 1.79D-09 BMatP= 3.64D-07
 IDIUse=1 WtCom= 1.00D+00 WtEn= 0.00D+00
 Coeff-Com: -0.139D-03 0.186D-03 0.314D-04 0.317D-04 0.121D-02 0.769D-02
 Coeff-Com:  0.118D-01-0.795D-01 0.834D-02 0.291D+00 0.759D+00
 Coeff:     -0.139D-03 0.186D-03 0.314D-04 0.317D-04 0.121D-02 0.769D-02
 Coeff:      0.118D-01-0.795D-01 0.834D-02 0.291D+00 0.759D+00
 Gap=     0.020 Goal=   None    Shift=    0.000
 RMSDP=3.50D-06 MaxDP=1.05D-04 DE=-3.08D-06 OVMax= 1.64D-04

 Cycle  12  Pass 1  IDiag  1:
 E= -649.174036207797     Delta-E=       -0.000000006309 Rises=F Damp=F
 DIIS: error= 1.78D-06 at cycle  12 NSaved=  12.
 NSaved=12 IEnMin=12 EnMin= -649.174036207797     IErMin=12 ErrMin= 1.78D-06
 ErrMax= 1.78D-06  0.00D+00 EMaxC= 1.00D-01 BMatC= 3.04D-10 BMatP= 1.79D-09
 IDIUse=1 WtCom= 1.00D+00 WtEn= 0.00D+00
 Coeff-Com:  0.135D-04-0.190D-04 0.338D-05 0.632D-05 0.191D-03 0.412D-03
 Coeff-Com:  0.167D-02-0.104D-02-0.387D-02 0.111D-01 0.936D-01 0.898D+00
 Coeff:      0.135D-04-0.190D-04 0.338D-05 0.632D-05 0.191D-03 0.412D-03
 Coeff:      0.167D-02-0.104D-02-0.387D-02 0.111D-01 0.936D-01 0.898D+00
 Gap=     0.020 Goal=   None    Shift=    0.000
 RMSDP=8.45D-07 MaxDP=2.89D-05 DE=-6.31D-09 OVMax= 4.60D-05

 Cycle  13  Pass 1  IDiag  1:
 E= -649.174036209794     Delta-E=       -0.000000001997 Rises=F Damp=F
 DIIS: error= 6.59D-07 at cycle  13 NSaved=  13.
 NSaved=13 IEnMin=13 EnMin= -649.174036209794     IErMin=13 ErrMin= 6.59D-07
 ErrMax= 6.59D-07  0.00D+00 EMaxC= 1.00D-01 BMatC= 4.98D-11 BMatP= 3.04D-10
 IDIUse=1 WtCom= 1.00D+00 WtEn= 0.00D+00
 Coeff-Com:  0.126D-04-0.164D-04 0.262D-05-0.113D-04 0.194D-04-0.551D-03
 Coeff-Com: -0.935D-03 0.680D-02-0.851D-03-0.174D-01-0.483D-01 0.198D+00
 Coeff-Com:  0.863D+00
 Coeff:      0.126D-04-0.164D-04 0.262D-05-0.113D-04 0.194D-04-0.551D-03
 Coeff:     -0.935D-03 0.680D-02-0.851D-03-0.174D-01-0.483D-01 0.198D+00
 Coeff:      0.863D+00
 Gap=     0.020 Goal=   None    Shift=    0.000
 RMSDP=3.87D-07 MaxDP=9.80D-06 DE=-2.00D-09 OVMax= 1.37D-05

 Cycle  14  Pass 1  IDiag  1:
 E= -649.174036210025     Delta-E=       -0.000000000231 Rises=F Damp=F
 DIIS: error= 4.08D-07 at cycle  14 NSaved=  14.
 NSaved=14 IEnMin=14 EnMin= -649.174036210025     IErMin=14 ErrMin= 4.08D-07
 ErrMax= 4.08D-07  0.00D+00 EMaxC= 1.00D-01 BMatC= 1.69D-11 BMatP= 4.98D-11
 IDIUse=1 WtCom= 1.00D+00 WtEn= 0.00D+00
 Coeff-Com: -0.381D-05 0.462D-05 0.249D-06 0.394D-05-0.301D-04-0.480D-04
 Coeff-Com:  0.397D-04 0.717D-03 0.644D-03-0.856D-04-0.129D-01-0.118D+00
 Coeff-Com:  0.453D-01 0.108D+01
 Coeff:     -0.381D-05 0.462D-05 0.249D-06 0.394D-05-0.301D-04-0.480D-04
 Coeff:      0.397D-04 0.717D-03 0.644D-03-0.856D-04-0.129D-01-0.118D+00
 Coeff:      0.453D-01 0.108D+01
 Gap=     0.020 Goal=   None    Shift=    0.000
 RMSDP=2.64D-07 MaxDP=1.26D-05 DE=-2.31D-10 OVMax= 1.85D-05

 Cycle  15  Pass 1  IDiag  1:
 E= -649.174036210162     Delta-E=       -0.000000000137 Rises=F Damp=F
 DIIS: error= 3.45D-08 at cycle  15 NSaved=  15.
 NSaved=15 IEnMin=15 EnMin= -649.174036210162     IErMin=15 ErrMin= 3.45D-08
 ErrMax= 3.45D-08  0.00D+00 EMaxC= 1.00D-01 BMatC= 1.48D-13 BMatP= 1.69D-11
 IDIUse=1 WtCom= 1.00D+00 WtEn= 0.00D+00
 Coeff-Com: -0.849D-06 0.107D-05 0.861D-06-0.130D-05-0.795D-05-0.164D-04
 Coeff-Com:  0.201D-04-0.114D-03 0.221D-03 0.959D-03-0.229D-02-0.277D-01
 Coeff-Com: -0.358D-01 0.326D+00 0.739D+00
 Coeff:     -0.849D-06 0.107D-05 0.861D-06-0.130D-05-0.795D-05-0.164D-04
 Coeff:      0.201D-04-0.114D-03 0.221D-03 0.959D-03-0.229D-02-0.277D-01
 Coeff:     -0.358D-01 0.326D+00 0.739D+00
 Gap=     0.020 Goal=   None    Shift=    0.000
 RMSDP=3.54D-08 MaxDP=1.51D-06 DE=-1.37D-10 OVMax= 3.03D-06

 Cycle  16  Pass 1  IDiag  1:
 E= -649.174036210160     Delta-E=        0.000000000002 Rises=F Damp=F
 DIIS: error= 2.24D-08 at cycle  16 NSaved=  16.
 NSaved=16 IEnMin=15 EnMin= -649.174036210162     IErMin=16 ErrMin= 2.24D-08
 ErrMax= 2.24D-08  0.00D+00 EMaxC= 1.00D-01 BMatC= 6.03D-14 BMatP= 1.48D-13
 IDIUse=1 WtCom= 1.00D+00 WtEn= 0.00D+00
 Coeff-Com: -0.144D-06 0.174D-06 0.253D-06-0.281D-06-0.169D-05 0.376D-06
 Coeff-Com:  0.253D-04-0.108D-03 0.435D-04 0.391D-03 0.632D-03 0.178D-02
 Coeff-Com: -0.127D-01-0.158D-01 0.187D+00 0.839D+00
 Coeff:     -0.144D-06 0.174D-06 0.253D-06-0.281D-06-0.169D-05 0.376D-06
 Coeff:      0.253D-04-0.108D-03 0.435D-04 0.391D-03 0.632D-03 0.178D-02
 Coeff:     -0.127D-01-0.158D-01 0.187D+00 0.839D+00
 Gap=     0.020 Goal=   None    Shift=    0.000
 RMSDP=1.04D-08 MaxDP=5.16D-07 DE= 2.05D-12 OVMax= 8.58D-07

 Cycle  17  Pass 1  IDiag  1:
 E= -649.174036210163     Delta-E=       -0.000000000003 Rises=F Damp=F
 DIIS: error= 6.17D-09 at cycle  17 NSaved=  17.
 NSaved=17 IEnMin=17 EnMin= -649.174036210163     IErMin=17 ErrMin= 6.17D-09
 ErrMax= 6.17D-09  0.00D+00 EMaxC= 1.00D-01 BMatC= 4.08D-15 BMatP= 6.03D-14
 IDIUse=1 WtCom= 1.00D+00 WtEn= 0.00D+00
 Large coefficients: NSaved= 17 BigCof=    0.00 CofMax=   10.00 Det=-1.11D-15
 Inversion failed.  Reducing to 16 matrices.
 Large coefficients: NSaved= 16 BigCof=    0.00 CofMax=   10.00 Det=-1.25D-15
 Inversion failed.  Reducing to 15 matrices.
 Coeff-Com:  0.408D-07-0.514D-07-0.152D-06 0.545D-06 0.349D-05-0.437D-05
 Coeff-Com: -0.487D-06 0.358D-05 0.171D-03 0.188D-02 0.509D-04-0.269D-01
 Coeff-Com: -0.846D-02 0.100D+00 0.933D+00
 Coeff:      0.408D-07-0.514D-07-0.152D-06 0.545D-06 0.349D-05-0.437D-05
 Coeff:     -0.487D-06 0.358D-05 0.171D-03 0.188D-02 0.509D-04-0.269D-01
 Coeff:     -0.846D-02 0.100D+00 0.933D+00
 Gap=     0.020 Goal=   None    Shift=    0.000
 RMSDP=3.32D-09 MaxDP=1.73D-07 DE=-3.18D-12 OVMax= 2.62D-07

 SCF Done:  E(RB3LYP) =  -649.174036210     A.U. after   17 cycles
            NFock= 17  Conv=0.33D-08     -V/T= 2.0029
 KE= 6.472997323482D+02 PE=-1.732450027905D+03 EE= 3.492799435012D+02
 Leave Link  502 at Fri Oct  6 22:01:54 2023, MaxMem=  1610612736 cpu:             184.9 elap:             114.9
 (Enter /home/sekinelabo/g16/l601.exe)
 Copying SCF densities to generalized density rwf, IOpCl= 0 IROHF=0.

 **********************************************************************

            Population analysis using the SCF Density.

 **********************************************************************

 Orbital symmetries:
       Occupied  (A) (A) (A) (A) (A) (A) (A) (A) (A) (A) (A) (A)
                 (A) (A) (A) (A) (A) (A) (A) (A) (A) (A)
       Virtual   (A) (A) (A) (A) (A) (A) (A) (A) (A) (A) (A) (A)
                 (A) (A) (A) (A) (A) (A) (A) (A) (A) (A) (A) (A)
                 (A) (A) (A) (A) (A) (A) (A) (A) (A) (A) (A) (A)
                 (A) (A) (A) (A) (A) (A) (A) (A) (A) (A) (A) (A)
                 (A) (A) (A) (A) (A) (A) (A) (A) (A) (A) (A) (A)
                 (A) (A) (A) (A) (A) (A) (A) (A) (A) (A) (A) (A)
                 (A) (A) (A) (A) (A) (A) (A) (A) (A) (A) (A) (A)
                 (A) (A) (A) (A) (A) (A) (A) (A) (A) (A) (A) (A)
                 (A) (A)
 The electronic state is 1-A.
 Alpha  occ. eigenvalues --  -38.47874 -38.44838 -38.44563 -38.43266  -2.23546
 Alpha  occ. eigenvalues --   -2.20537  -2.20407  -2.19100  -1.17233  -1.17200
 Alpha  occ. eigenvalues --   -1.17180  -1.14216  -1.14211  -1.14180  -1.14133
 Alpha  occ. eigenvalues --   -1.14069  -1.14037  -1.12797  -1.12736  -1.12725
 Alpha  occ. eigenvalues --   -0.14644  -0.10629
 Alpha virt. eigenvalues --   -0.08657  -0.04991  -0.03179  -0.02766  -0.02127
 Alpha virt. eigenvalues --   -0.01404  -0.00844  -0.00702  -0.00261   0.00021
 Alpha virt. eigenvalues --    0.00489   0.00793   0.00884   0.01143   0.01414
 Alpha virt. eigenvalues --    0.01443   0.01657   0.01866   0.01869   0.02051
 Alpha virt. eigenvalues --    0.02204   0.02271   0.02493   0.02610   0.02801
 Alpha virt. eigenvalues --    0.03044   0.03390   0.03929   0.04106   0.05289
 Alpha virt. eigenvalues --    0.06329   0.07301   0.07449   0.07539   0.07963
 Alpha virt. eigenvalues --    0.08319   0.08345   0.08650   0.09023   0.09714
 Alpha virt. eigenvalues --    0.10533   0.11258   0.11480   0.12353   0.12729
 Alpha virt. eigenvalues --    0.16566   0.28522   0.29479   0.29829   0.30505
 Alpha virt. eigenvalues --    0.33087   0.33652   0.33767   0.34803   0.35273
 Alpha virt. eigenvalues --    0.35622   0.35644   0.35865   0.35940   0.37136
 Alpha virt. eigenvalues --    0.38924   0.40433   0.41413   0.42388   0.43039
 Alpha virt. eigenvalues --    0.43553   0.43785   0.44213   0.44418   0.45407
 Alpha virt. eigenvalues --    0.46397   0.47073   0.48355   0.49707   0.52027
 Alpha virt. eigenvalues --    0.53275   0.53625   0.77656   2.01554   2.03537
 Alpha virt. eigenvalues --    2.08511   2.14201   4.41273   4.41421   4.42477
 Alpha virt. eigenvalues --    4.43028   4.43527   4.44209   4.44567   4.45657
 Alpha virt. eigenvalues --    4.46729   4.47730   4.48196   4.71548  96.20791
 Alpha virt. eigenvalues --   96.23040  96.28857  96.37420
          Condensed to atoms (all electrons):
               1          2          3          4
     1  Na  10.946083   0.151331   0.011630   0.220207
     2  Na   0.151331  10.990986  -0.184530  -0.141842
     3  Na   0.011630  -0.184530  11.063852   0.107431
     4  Na   0.220207  -0.141842   0.107431  10.670620
 Mulliken charges:
               1
     1  Na  -0.329252
     2  Na   0.184054
     3  Na   0.001616
     4  Na   0.143583
 Sum of Mulliken charges =   0.00000
 Mulliken charges with hydrogens summed into heavy atoms:
               1
     1  Na  -0.329252
     2  Na   0.184054
     3  Na   0.001616
     4  Na   0.143583
 Electronic spatial extent (au):  <R**2>=           1547.3507
 Charge=              0.0000 electrons
 Dipole moment (field-independent basis, Debye):
    X=             -1.1188    Y=              1.8590    Z=             -0.1673  Tot=              2.1761
 Quadrupole moment (field-independent basis, Debye-Ang):
   XX=            -45.1595   YY=            -32.4625   ZZ=            -43.1458
   XY=             -7.5256   XZ=              1.8936   YZ=             -0.8498
 Traceless Quadrupole moment (field-independent basis, Debye-Ang):
   XX=             -4.9035   YY=              7.7934   ZZ=             -2.8899
   XY=             -7.5256   XZ=              1.8936   YZ=             -0.8498
 Octapole moment (field-independent basis, Debye-Ang**2):
  XXX=            -23.0504  YYY=             47.7775  ZZZ=              2.2115  XYY=            -19.3068
  XXY=             -4.8189  XXZ=            -13.7290  XZZ=             -7.2000  YZZ=              0.9193
  YYZ=             -1.8382  XYZ=             -2.4342
 Hexadecapole moment (field-independent basis, Debye-Ang**3):
 XXXX=          -1818.4053 YYYY=           -727.8847 ZZZZ=           -234.4142 XXXY=            -39.6747
 XXXZ=             19.3232 YYYX=            -87.3947 YYYZ=             -7.0998 ZZZX=              9.6617
 ZZZY=             -6.1489 XXYY=           -455.1675 XXZZ=           -367.8621 YYZZ=           -177.3845
 XXYZ=             14.6771 YYXZ=              9.3039 ZZXY=            -13.1090
 N-N= 8.669631584564D+01 E-N=-1.732450027545D+03  KE= 6.472997323482D+02
 No NMR shielding tensors so no spin-rotation constants.
 Leave Link  601 at Fri Oct  6 22:02:00 2023, MaxMem=  1610612736 cpu:               8.4 elap:               5.2
 (Enter /home/sekinelabo/g16/l701.exe)
 ... and contract with generalized density number  0.
 Compute integral first derivatives.
 Leave Link  701 at Fri Oct  6 22:02:04 2023, MaxMem=  1610612736 cpu:               7.4 elap:               4.5
 (Enter /home/sekinelabo/g16/l702.exe)
 L702 exits ... SP integral derivatives will be done elsewhere.
 Leave Link  702 at Fri Oct  6 22:02:05 2023, MaxMem=  1610612736 cpu:               0.7 elap:               0.5
 (Enter /home/sekinelabo/g16/l703.exe)
 Integral derivatives from FoFJK, PRISM(SPDF).
 Compute integral first derivatives, UseDBF=F ICtDFT=           0.
 Calling FoFJK, ICntrl=      2127 FMM=F ISym2X=0 I1Cent= 0 IOpClX= 0 NMat=1 NMatS=1 NMatT=0.
 FoFJK:  IHMeth= 1 ICntrl=    2127 DoSepK=F KAlg= 0 I1Cent=           0 FoldK=F
 IRaf=         0 NMat=       1 IRICut=       1 DoRegI=T DoRafI=F ISym2E= 0 IDoP0=0 IntGTp=1.
 FoFCou: FMM=F IPFlag=           0 FMFlag=      100000 FMFlg1=         800
         NFxFlg=           0 DoJE=F BraDBF=F KetDBF=F FulRan=T
         wScrn=  0.000000 ICntrl=      2127 IOpCl=  0 I1Cent=           0 NGrid=           0
         NMat0=    1 NMatS0=      1 NMatT0=    0 NMatD0=    1 NMtDS0=    0 NMtDT0=    0
 Symmetry not used in FoFCou.
 Leave Link  703 at Fri Oct  6 22:02:13 2023, MaxMem=  1610612736 cpu:              12.7 elap:               7.9
 (Enter /home/sekinelabo/g16/l716.exe)
 Dipole        =-4.40185744D-01 7.31382993D-01-6.58085927D-02
 ***** Axes restored to original set *****
 -------------------------------------------------------------------
 Center     Atomic                   Forces (Hartrees/Bohr)
 Number     Number              X              Y              Z
 -------------------------------------------------------------------
      1       11           0.003773857   -0.003171645    0.006623472
      2       11          -0.004178375   -0.000823227   -0.006511675
      3       11           0.000470252   -0.003072164   -0.002775693
      4       11          -0.000065734    0.007067036    0.002663896
 -------------------------------------------------------------------
 Cartesian Forces:  Max     0.007067036 RMS     0.004114179
 Z-matrix is all fixed cartesians, so copy forces.
 Force constants in Cartesian coordinates: 
                1             2             3             4             5 
      1  0.212532D-01
      2  0.511847D-02  0.207253D-01
      3  0.253005D-01  0.376979D-02  0.303954D-01
      4 -0.191078D-01 -0.505666D-03 -0.232348D-01  0.188735D-01
      5 -0.450781D-02 -0.865185D-02 -0.446439D-02  0.498139D-03  0.852307D-02
      6 -0.227578D-01  0.414774D-03 -0.277943D-01  0.229500D-01 -0.408600D-03
      7  0.000000D+00  0.000000D+00  0.000000D+00  0.000000D+00  0.000000D+00
      8  0.000000D+00  0.000000D+00  0.000000D+00  0.000000D+00  0.000000D+00
      9  0.000000D+00  0.000000D+00  0.000000D+00  0.000000D+00  0.000000D+00
     10 -0.214534D-02 -0.461281D-02 -0.206565D-02  0.234349D-03  0.400967D-02
     11 -0.610666D-03 -0.120735D-01  0.694603D-03  0.752706D-05  0.128787D-03
     12 -0.254268D-02 -0.418456D-02 -0.260110D-02  0.284807D-03  0.487299D-02
                6             7             8             9            10 
      6  0.280279D-01
      7  0.000000D+00  0.100000D+01
      8  0.000000D+00  0.000000D+00  0.100000D+01
      9  0.000000D+00  0.000000D+00  0.000000D+00  0.100000D+01
     10 -0.192225D-03  0.000000D+00  0.000000D+00  0.000000D+00  0.191099D-02
     11 -0.617408D-05  0.000000D+00  0.000000D+00  0.000000D+00  0.603139D-03
     12 -0.233613D-03  0.000000D+00  0.000000D+00  0.000000D+00  0.225787D-02
               11            12 
     11  0.119447D-01
     12 -0.688429D-03  0.283472D-02
 Leave Link  716 at Fri Oct  6 22:02:13 2023, MaxMem=  1610612736 cpu:               0.8 elap:               0.5
 (Enter /home/sekinelabo/g16/l103.exe)

 GradGradGradGradGradGradGradGradGradGradGradGradGradGradGradGradGradGrad
 Berny optimization.
 Search for a local minimum.
 Step number   1 out of a maximum of    2
 All quantities printed in internal units (Hartrees-Bohrs-Radians)
 Second derivative matrix not updated -- first step.
 The second derivative matrix:
                          X1        Y1        Z1        X2        Y2
           X1           0.02125
           Y1           0.00512   0.02073
           Z1           0.02530   0.00377   0.03040
           X2          -0.01911  -0.00051  -0.02323   0.01887
           Y2          -0.00451  -0.00865  -0.00446   0.00050   0.00852
           Z2          -0.02276   0.00041  -0.02779   0.02295  -0.00041
           X3           0.00000   0.00000   0.00000   0.00000   0.00000
           Y3           0.00000   0.00000   0.00000   0.00000   0.00000
           Z3           0.00000   0.00000   0.00000   0.00000   0.00000
           X4          -0.00215  -0.00461  -0.00207   0.00023   0.00401
           Y4          -0.00061  -0.01207   0.00069   0.00001   0.00013
           Z4          -0.00254  -0.00418  -0.00260   0.00028   0.00487
                          Z2        X3        Y3        Z3        X4
           Z2           0.02803
           X3           0.00000   1.00000
           Y3           0.00000   0.00000   1.00000
           Z3           0.00000   0.00000  -0.00000   1.00000
           X4          -0.00019   0.00000   0.00000   0.00000   0.00191
           Y4          -0.00001   0.00000   0.00000   0.00000   0.00060
           Z4          -0.00023   0.00000   0.00000   0.00000   0.00226
                          Y4        Z4
           Y4           0.01194
           Z4          -0.00069   0.00283
 ITU=  0
     Eigenvalues ---    0.01378   0.03384   0.09687   0.10432   0.30075
     Eigenvalues ---    0.75000
 Quadratic step=3.548D-01 exceeds max=3.000D-01 adjusted using Lamda=-3.623D-03.
 Angle between NR and scaled steps=   4.33 degrees.
 Angle between quadratic step and forces=  41.63 degrees.
 Linear search not attempted -- first point.
 B after Tr=     0.000000    0.000000    0.000000
         Rot=    1.000000   -0.000000    0.000000   -0.000000 Ang=   0.00 deg.
 Variable       Old X    -DE/DX   Delta X   Delta X   Delta X     New X
                                 (Linear)    (Quad)   (Total)
    X1        0.00000   0.00377   0.00000   0.04923   0.04923   0.04923
    Y1        0.00000  -0.00317   0.00000  -0.14745  -0.14745  -0.14745
    Z1       -0.00000   0.00662   0.00000   0.08845   0.08845   0.08845
    X2       -3.42498  -0.00418   0.00000  -0.03284  -0.03284  -3.45782
    Y2        0.00000  -0.00082   0.00000  -0.06503  -0.06503  -0.06503
    Z2       -4.17553  -0.00651   0.00000  -0.04350  -0.04350  -4.21903
    X3        0.00000   0.00047   0.00000   0.00414   0.00414   0.00414
    Y3        0.00000  -0.00307   0.00000  -0.00814  -0.00814  -0.00814
    Z3        8.51088  -0.00278   0.00000  -0.00312  -0.00312   8.50776
    X4       -0.33122  -0.00007   0.00000  -0.02053  -0.02053  -0.35175
    Y4       -7.29088   0.00707   0.00000   0.22062   0.22062  -7.07026
    Z4        0.46523   0.00266   0.00000  -0.04182  -0.04182   0.42341
         Item               Value     Threshold  Converged?
 Maximum Force            0.007067     0.000450     NO 
 RMS     Force            0.004114     0.000300     NO 
 Maximum Displacement     0.220622     0.001800     NO 
 RMS     Displacement     0.086663     0.001200     NO 
 Predicted change in Energy=-1.762256D-03
 GradGradGradGradGradGradGradGradGradGradGradGradGradGradGradGradGradGrad

 Leave Link  103 at Fri Oct  6 22:02:16 2023, MaxMem=  1610612736 cpu:               4.9 elap:               3.1
 (Enter /home/sekinelabo/g16/l9999.exe)
 1\1\GINC-SEKINELABO-XA7R-R37\Force\RB3LYP\6-311+G(d)\Na4\SEKINELABO\06
 -Oct-2023\0\\#p B3LYP/6-311+g(d) force\\\0,1\Na,0.,0.,0.\Na,-1.8124217
 224,0.,-2.209592957\Na,0.,0.,4.5037626195\Na,-0.1752740494,-3.85816594
 36,0.2461878233\\Version=ES64L-G16RevB.01\State=1-A\HF=-649.1740362\RM
 SD=3.316e-09\RMSF=4.114e-03\Dipole=-0.0391319,-0.7681472,-0.3760771\Qu
 adrupole=-2.0162464,6.717882,-4.7016355,0.5557692,0.022976,4.8442474\P
 G=C01 [X(Na4)]\\@


 ERROR IS THE FORCE THAT WELDS MEN TOGETHER....
 TRUTH IS COMMUNICATED TO MEN ONLY BY DEEDS OF TRUTH.
           TOLSTOI,MY RELIGION
 Job cpu time:       0 days  0 hours  4 minutes 21.5 seconds.
 Elapsed time:       0 days  0 hours  2 minutes 42.4 seconds.
 File lengths (MBytes):  RWF=     10 Int=      0 D2E=      0 Chk=      2 Scr=      1
 Normal termination of Gaussian 16 at Fri Oct  6 22:02:17 2023.
 Initial command:
 /home/sekinelabo/g16/l1.exe "/home/sekinelabo/g16temp/Gau-708973.inp" -scrdir="/home/sekinelabo/g16temp/"
 Entering Link 1 = /home/sekinelabo/g16/l1.exe PID=    712152.
  
 Copyright (c) 1988-2017, Gaussian, Inc.  All Rights Reserved.
  
 This is part of the Gaussian(R) 16 program.  It is based on
 the Gaussian(R) 09 system (copyright 2009, Gaussian, Inc.),
 the Gaussian(R) 03 system (copyright 2003, Gaussian, Inc.),
 the Gaussian(R) 98 system (copyright 1998, Gaussian, Inc.),
 the Gaussian(R) 94 system (copyright 1995, Gaussian, Inc.),
 the Gaussian 92(TM) system (copyright 1992, Gaussian, Inc.),
 the Gaussian 90(TM) system (copyright 1990, Gaussian, Inc.),
 the Gaussian 88(TM) system (copyright 1988, Gaussian, Inc.),
 the Gaussian 86(TM) system (copyright 1986, Carnegie Mellon
 University), and the Gaussian 82(TM) system (copyright 1983,
 Carnegie Mellon University). Gaussian is a federally registered
 trademark of Gaussian, Inc.
  
 This software contains proprietary and confidential information,
 including trade secrets, belonging to Gaussian, Inc.
  
 This software is provided under written license and may be
 used, copied, transmitted, or stored only in accord with that
 written license.
  
 The following legend is applicable only to US Government
 contracts under FAR:
  
                    RESTRICTED RIGHTS LEGEND
  
 Use, reproduction and disclosure by the US Government is
 subject to restrictions as set forth in subparagraphs (a)
 and (c) of the Commercial Computer Software - Restricted
 Rights clause in FAR 52.227-19.
  
 Gaussian, Inc.
 340 Quinnipiac St., Bldg. 40, Wallingford CT 06492
  
  
 ---------------------------------------------------------------
 Warning -- This program may not be used in any manner that
 competes with the business of Gaussian, Inc. or will provide
 assistance to any competitor of Gaussian, Inc.  The licensee
 of this program is prohibited from giving any competitor of
 Gaussian, Inc. access to this program.  By using this program,
 the user acknowledges that Gaussian, Inc. is engaged in the
 business of creating and licensing software in the field of
 computational chemistry and represents and warrants to the
 licensee that it is not a competitor of Gaussian, Inc. and that
 it will not use this program in any manner prohibited above.
 ---------------------------------------------------------------
  

 Cite this work as:
 Gaussian 16, Revision B.01,
 M. J. Frisch, G. W. Trucks, H. B. Schlegel, G. E. Scuseria, 
 M. A. Robb, J. R. Cheeseman, G. Scalmani, V. Barone, 
 G. A. Petersson, H. Nakatsuji, X. Li, M. Caricato, A. V. Marenich, 
 J. Bloino, B. G. Janesko, R. Gomperts, B. Mennucci, H. P. Hratchian, 
 J. V. Ortiz, A. F. Izmaylov, J. L. Sonnenberg, D. Williams-Young, 
 F. Ding, F. Lipparini, F. Egidi, J. Goings, B. Peng, A. Petrone, 
 T. Henderson, D. Ranasinghe, V. G. Zakrzewski, J. Gao, N. Rega, 
 G. Zheng, W. Liang, M. Hada, M. Ehara, K. Toyota, R. Fukuda, 
 J. Hasegawa, M. Ishida, T. Nakajima, Y. Honda, O. Kitao, H. Nakai, 
 T. Vreven, K. Throssell, J. A. Montgomery, Jr., J. E. Peralta, 
 F. Ogliaro, M. J. Bearpark, J. J. Heyd, E. N. Brothers, K. N. Kudin, 
 V. N. Staroverov, T. A. Keith, R. Kobayashi, J. Normand, 
 K. Raghavachari, A. P. Rendell, J. C. Burant, S. S. Iyengar, 
 J. Tomasi, M. Cossi, J. M. Millam, M. Klene, C. Adamo, R. Cammi, 
 J. W. Ochterski, R. L. Martin, K. Morokuma, O. Farkas, 
 J. B. Foresman, and D. J. Fox, Gaussian, Inc., Wallingford CT, 2016.
 
 ******************************************
 Gaussian 16:  ES64L-G16RevB.01 20-Dec-2017
                 6-Oct-2023 
 ******************************************
 %NProcShared=16
 Will use up to   16 processors via shared memory.
 %mem=12GB
 %Chk=checkpoint.chk
 -------------------------
 #p B3LYP/6-311+g(d) force
 -------------------------
 1/10=7,30=1,38=1/1,3;
 2/12=2,17=6,18=5,40=1/2;
 3/5=4,6=6,7=11,11=2,25=1,30=1,71=1,74=-5/1,2,3;
 4//1;
 5/5=2,38=5/2;
 6/7=2,8=2,9=2,10=2,28=1/1;
 7/29=1/1,2,3,16;
 1/10=7,30=1/3;
 99//99;
 Leave Link    1 at Fri Oct  6 22:02:17 2023, MaxMem=  1610612736 cpu:               0.6 elap:               0.4
 (Enter /home/sekinelabo/g16/l101.exe)


 Symbolic Z-matrix:
 Charge =  0 Multiplicity = 1
 Na                    0.        0.        0. 
 Na                   -3.91738   0.       -2.93867 
 Na                    0.        0.        3.00999 
 Na                   -1.06244  -1.37197   6.13923 
 
 ITRead=  0  0  0  0
 MicOpt= -1 -1 -1 -1
 NAtoms=      4 NQM=        4 NQMF=       0 NMMI=      0 NMMIF=      0
                NMic=       0 NMicF=      0.
                    Isotopes and Nuclear Properties:
 (Nuclear quadrupole moments (NQMom) in fm**2, nuclear magnetic moments (NMagM)
  in nuclear magnetons)

  Atom         1           2           3           4
 IAtWgt=          23          23          23          23
 AtmWgt=  22.9897697  22.9897697  22.9897697  22.9897697
 NucSpn=           3           3           3           3
 AtZEff=  -0.0000000  -0.0000000  -0.0000000  -0.0000000
 NQMom=   10.4000000  10.4000000  10.4000000  10.4000000
 NMagM=    2.2175200   2.2175200   2.2175200   2.2175200
 AtZNuc=  11.0000000  11.0000000  11.0000000  11.0000000
 Leave Link  101 at Fri Oct  6 22:02:19 2023, MaxMem=  1610612736 cpu:               1.9 elap:               1.1
 (Enter /home/sekinelabo/g16/l103.exe)

 GradGradGradGradGradGradGradGradGradGradGradGradGradGradGradGradGradGrad
 Berny optimization.
 Initialization pass.
 Trust Radius=3.00D-01 FncErr=1.00D-07 GrdErr=1.00D-07 EigMax=2.50D+02 EigMin=1.00D-04
 Number of steps in this run=      2 maximum allowed number of steps=      2.
 GradGradGradGradGradGradGradGradGradGradGradGradGradGradGradGradGradGrad

 Leave Link  103 at Fri Oct  6 22:02:19 2023, MaxMem=  1610612736 cpu:               0.6 elap:               0.4
 (Enter /home/sekinelabo/g16/l202.exe)
                          Input orientation:                          
 ---------------------------------------------------------------------
 Center     Atomic      Atomic             Coordinates (Angstroms)
 Number     Number       Type             X           Y           Z
 ---------------------------------------------------------------------
      1         11           0        0.000000    0.000000    0.000000
      2         11           0       -3.917377    0.000000   -2.938675
      3         11           0        0.000000    0.000000    3.009994
      4         11           0       -1.062439   -1.371968    6.139229
 ---------------------------------------------------------------------
                    Distance matrix (angstroms):
                    1          2          3          4
     1  Na   0.000000
     2  Na   4.897106   0.000000
     3  Na   3.009994   7.122675   0.000000
     4  Na   6.379750   9.614641   3.578154   0.000000
 Stoichiometry    Na4
 Framework group  C1[X(Na4)]
 Deg. of freedom     6
 Full point group                 C1      NOp   1
 Largest Abelian subgroup         C1      NOp   1
 Largest concise Abelian subgroup C1      NOp   1
                         Standard orientation:                         
 ---------------------------------------------------------------------
 Center     Atomic      Atomic             Coordinates (Angstroms)
 Number     Number       Type             X           Y           Z
 ---------------------------------------------------------------------
      1         11           0       -1.138476    1.649482   -0.247625
      2         11           0       -5.091911   -1.225372    0.047698
      3         11           0        1.709645    0.869517    0.335406
      4         11           0        4.520742   -1.293627   -0.135479
 ---------------------------------------------------------------------
 Rotational constants (GHZ):           3.2108988           0.4329183           0.3840757
 Leave Link  202 at Fri Oct  6 22:02:20 2023, MaxMem=  1610612736 cpu:               1.2 elap:               0.8
 (Enter /home/sekinelabo/g16/l301.exe)
 Standard basis: 6-311+G(d) (5D, 7F)
 Ernie: Thresh=  0.10000D-02 Tol=  0.10000D-05 Strict=F.
 There are   124 symmetry adapted cartesian basis functions of A   symmetry.
 There are   120 symmetry adapted basis functions of A   symmetry.
   120 basis functions,   200 primitive gaussians,   124 cartesian basis functions
    22 alpha electrons       22 beta electrons
       nuclear repulsion energy        77.9284563625 Hartrees.
 IExCor=  402 DFT=T Ex+Corr=B3LYP ExCW=0 ScaHFX=  0.200000
 ScaDFX=  0.800000  0.720000  1.000000  0.810000 ScalE2=  1.000000  1.000000
 IRadAn=      5 IRanWt=     -1 IRanGd=            0 ICorTp=0 IEmpDi=  4
 NAtoms=    4 NActive=    4 NUniq=    4 SFac= 1.00D+00 NAtFMM=   60 NAOKFM=F Big=F
 Integral buffers will be    131072 words long.
 Raffenetti 2 integral format.
 Two-electron integral symmetry is turned on.
 Leave Link  301 at Fri Oct  6 22:02:20 2023, MaxMem=  1610612736 cpu:               0.8 elap:               0.5
 (Enter /home/sekinelabo/g16/l302.exe)
 NPDir=0 NMtPBC=     1 NCelOv=     1 NCel=       1 NClECP=     1 NCelD=      1
         NCelK=      1 NCelE2=     1 NClLst=     1 CellRange=     0.0.
 One-electron integrals computed using PRISM.
 One-electron integral symmetry used in STVInt
 NBasis=   120 RedAO= T EigKep=  2.13D-05  NBF=   120
 NBsUse=   120 1.00D-06 EigRej= -1.00D+00 NBFU=   120
 Precomputing XC quadrature grid using
 IXCGrd= 4 IRadAn=           5 IRanWt=          -1 IRanGd=           0 AccXCQ= 0.00D+00.
 Generated NRdTot=       0 NPtTot=           0 NUsed=           0 NTot=          32
 NSgBfM=   112   112   112   112   112 MxSgAt=     4 MxSgA2=     4.
 Leave Link  302 at Fri Oct  6 22:02:33 2023, MaxMem=  1610612736 cpu:              21.5 elap:              13.1
 (Enter /home/sekinelabo/g16/l303.exe)
 DipDrv:  MaxL=1.
 Leave Link  303 at Fri Oct  6 22:02:35 2023, MaxMem=  1610612736 cpu:               3.1 elap:               2.0
 (Enter /home/sekinelabo/g16/l401.exe)
 ExpMin= 7.60D-03 ExpMax= 3.62D+04 ExpMxC= 1.21D+03 IAcc=3 IRadAn=         5 AccDes= 0.00D+00
 Harris functional with IExCor=  402 and IRadAn=       5 diagonalized for initial guess.
 HarFok:  IExCor=  402 AccDes= 0.00D+00 IRadAn=         5 IDoV= 1 UseB2=F ITyADJ=14
 ICtDFT=  3500011 ScaDFX=  1.000000  1.000000  1.000000  1.000000
 FoFCou: FMM=F IPFlag=           0 FMFlag=      100000 FMFlg1=           0
         NFxFlg=           0 DoJE=T BraDBF=F KetDBF=T FulRan=T
         wScrn=  0.000000 ICntrl=       500 IOpCl=  0 I1Cent=   200000004 NGrid=           0
         NMat0=    1 NMatS0=      1 NMatT0=    0 NMatD0=    1 NMtDS0=    0 NMtDT0=    0
 Petite list used in FoFCou.
 Harris En= -649.055573387483    
 JPrj=0 DoOrth=F DoCkMO=F.
 Leave Link  401 at Fri Oct  6 22:02:44 2023, MaxMem=  1610612736 cpu:              14.7 elap:               9.1
 (Enter /home/sekinelabo/g16/l502.exe)
 Keep R1 ints in memory in canonical form, NReq=41581762.
 FoFCou: FMM=F IPFlag=           0 FMFlag=           0 FMFlg1=           0
         NFxFlg=           0 DoJE=F BraDBF=F KetDBF=F FulRan=T
         wScrn=  0.000000 ICntrl=       600 IOpCl=  0 I1Cent=           0 NGrid=           0
         NMat0=    1 NMatS0=   7260 NMatT0=    0 NMatD0=    1 NMtDS0=    0 NMtDT0=    0
 Symmetry not used in FoFCou.
 Two-electron integral symmetry not used.
 Closed shell SCF:
 Using DIIS extrapolation, IDIIS=  1040.
 NGot=  1610612736 LenX=  1584221380 LenY=  1584205563
 Requested convergence on RMS density matrix=1.00D-08 within 128 cycles.
 Requested convergence on MAX density matrix=1.00D-06.
 Requested convergence on             energy=1.00D-06.
 No special actions if energy rises.

 Cycle   1  Pass 1  IDiag  1:
 E= -649.150620536662    
 DIIS: error= 1.40D-02 at cycle   1 NSaved=   1.
 NSaved= 1 IEnMin= 1 EnMin= -649.150620536662     IErMin= 1 ErrMin= 1.40D-02
 ErrMax= 1.40D-02  0.00D+00 EMaxC= 1.00D-01 BMatC= 2.79D-02 BMatP= 2.79D-02
 IDIUse=3 WtCom= 8.60D-01 WtEn= 1.40D-01
 Coeff-Com:  0.100D+01
 Coeff-En:   0.100D+01
 Coeff:      0.100D+01
 Gap=     0.000 Goal=   None    Shift=    0.000
 GapD=    0.000 DampG=0.250 DampE=0.500 DampFc=0.2500 IDamp=-1.
 Damping current iteration by 2.50D-01
 RMSDP=1.07D-02 MaxDP=5.99D-01              OVMax= 6.74D-01

 Cycle   2  Pass 1  IDiag  1:
 E= -649.161155624235     Delta-E=       -0.010535087573 Rises=F Damp=T
 DIIS: error= 1.02D-02 at cycle   2 NSaved=   2.
 NSaved= 2 IEnMin= 2 EnMin= -649.161155624235     IErMin= 2 ErrMin= 1.02D-02
 ErrMax= 1.02D-02  0.00D+00 EMaxC= 1.00D-01 BMatC= 1.01D-02 BMatP= 2.79D-02
 IDIUse=3 WtCom= 8.98D-01 WtEn= 1.02D-01
 Coeff-Com: -0.916D+00 0.192D+01
 Coeff-En:   0.127D+00 0.873D+00
 Coeff:     -0.810D+00 0.181D+01
 Gap=     0.029 Goal=   None    Shift=    0.000
 RMSDP=7.52D-03 MaxDP=3.33D-01 DE=-1.05D-02 OVMax= 8.27D-01

 Cycle   3  Pass 1  IDiag  1:
 E= -649.055835136663     Delta-E=        0.105320487572 Rises=F Damp=F
 DIIS: error= 1.01D-02 at cycle   3 NSaved=   3.
 NSaved= 3 IEnMin= 2 EnMin= -649.161155624235     IErMin= 3 ErrMin= 1.01D-02
 ErrMax= 1.01D-02  0.00D+00 EMaxC= 1.00D-01 BMatC= 1.02D-02 BMatP= 1.01D-02
 IDIUse=3 WtCom= 8.99D-01 WtEn= 1.01D-01
 Rare condition: small coef for last iteration:  0.000D+00
 Coeff-Com: -0.663D+00 0.128D+01 0.380D+00
 Coeff-En:   0.000D+00 0.000D+00 0.100D+01
 Coeff:     -0.663D+00 0.128D+01 0.380D+00
 Gap=     0.015 Goal=   None    Shift=    0.000
 RMSDP=9.55D-03 MaxDP=4.80D-01 DE= 1.05D-01 OVMax= 8.09D-01

 Cycle   4  Pass 1  IDiag  1:
 E= -649.122618553405     Delta-E=       -0.066783416743 Rises=F Damp=F
 DIIS: error= 1.12D-02 at cycle   4 NSaved=   4.
 NSaved= 4 IEnMin= 2 EnMin= -649.161155624235     IErMin= 3 ErrMin= 1.01D-02
 ErrMax= 1.12D-02  0.00D+00 EMaxC= 1.00D-01 BMatC= 5.75D-03 BMatP= 1.01D-02
 IDIUse=3 WtCom= 8.88D-01 WtEn= 1.12D-01
 EnCoef did   100 forward-backward iterations
 Coeff-Com: -0.179D+00 0.439D+00 0.356D+00 0.383D+00
 Coeff-En:   0.621D+00 0.000D+00 0.156D-02 0.377D+00
 Coeff:     -0.892D-01 0.390D+00 0.316D+00 0.383D+00
 Gap=     0.017 Goal=   None    Shift=    0.000
 RMSDP=4.14D-03 MaxDP=2.35D-01 DE=-6.68D-02 OVMax= 3.86D-01

 Cycle   5  Pass 1  IDiag  1:
 E= -649.179563395827     Delta-E=       -0.056944842422 Rises=F Damp=F
 DIIS: error= 8.59D-04 at cycle   5 NSaved=   5.
 NSaved= 5 IEnMin= 5 EnMin= -649.179563395827     IErMin= 5 ErrMin= 8.59D-04
 ErrMax= 8.59D-04  0.00D+00 EMaxC= 1.00D-01 BMatC= 1.84D-04 BMatP= 5.75D-03
 IDIUse=3 WtCom= 9.91D-01 WtEn= 8.59D-03
 Coeff-Com:  0.156D+00-0.188D+00 0.868D-02 0.484D-01 0.975D+00
 Coeff-En:   0.000D+00 0.000D+00 0.000D+00 0.000D+00 0.100D+01
 Coeff:      0.155D+00-0.186D+00 0.861D-02 0.480D-01 0.975D+00
 Gap=     0.026 Goal=   None    Shift=    0.000
 RMSDP=1.20D-03 MaxDP=2.38D-02 DE=-5.69D-02 OVMax= 4.09D-02

 Cycle   6  Pass 1  IDiag  1:
 E= -649.179353551090     Delta-E=        0.000209844737 Rises=F Damp=F
 DIIS: error= 1.49D-03 at cycle   6 NSaved=   6.
 NSaved= 6 IEnMin= 5 EnMin= -649.179563395827     IErMin= 5 ErrMin= 8.59D-04
 ErrMax= 1.49D-03  0.00D+00 EMaxC= 1.00D-01 BMatC= 8.13D-05 BMatP= 1.84D-04
 IDIUse=3 WtCom= 9.91D-01 WtEn= 8.59D-03
 Coeff-Com:  0.797D-01-0.106D+00-0.275D-02-0.495D-01 0.362D+00 0.716D+00
 Coeff-En:   0.000D+00 0.000D+00 0.000D+00 0.000D+00 0.750D+00 0.250D+00
 Coeff:      0.790D-01-0.105D+00-0.273D-02-0.491D-01 0.366D+00 0.712D+00
 Gap=     0.027 Goal=   None    Shift=    0.000
 RMSDP=5.56D-04 MaxDP=2.17D-02 DE= 2.10D-04 OVMax= 3.61D-02

 Cycle   7  Pass 1  IDiag  1:
 E= -649.179994714101     Delta-E=       -0.000641163011 Rises=F Damp=F
 DIIS: error= 3.12D-04 at cycle   7 NSaved=   7.
 NSaved= 7 IEnMin= 7 EnMin= -649.179994714101     IErMin= 7 ErrMin= 3.12D-04
 ErrMax= 3.12D-04  0.00D+00 EMaxC= 1.00D-01 BMatC= 4.40D-06 BMatP= 8.13D-05
 IDIUse=3 WtCom= 9.97D-01 WtEn= 3.12D-03
 Coeff-Com:  0.352D-01-0.474D-01 0.145D-02-0.239D-01 0.126D+00 0.237D+00
 Coeff-Com:  0.672D+00
 Coeff-En:   0.000D+00 0.000D+00 0.000D+00 0.000D+00 0.000D+00 0.000D+00
 Coeff-En:   0.100D+01
 Coeff:      0.351D-01-0.472D-01 0.144D-02-0.239D-01 0.125D+00 0.236D+00
 Coeff:      0.673D+00
 Gap=     0.027 Goal=   None    Shift=    0.000
 RMSDP=7.95D-05 MaxDP=1.99D-03 DE=-6.41D-04 OVMax= 2.64D-03

 Cycle   8  Pass 1  IDiag  1:
 E= -649.179997733133     Delta-E=       -0.000003019032 Rises=F Damp=F
 DIIS: error= 2.83D-04 at cycle   8 NSaved=   8.
 NSaved= 8 IEnMin= 8 EnMin= -649.179997733133     IErMin= 8 ErrMin= 2.83D-04
 ErrMax= 2.83D-04  0.00D+00 EMaxC= 1.00D-01 BMatC= 2.71D-06 BMatP= 4.40D-06
 IDIUse=3 WtCom= 9.97D-01 WtEn= 2.83D-03
 Coeff-Com:  0.514D-02-0.718D-02 0.348D-02-0.503D-02-0.159D-01-0.109D+00
 Coeff-Com:  0.153D+00 0.976D+00
 Coeff-En:   0.000D+00 0.000D+00 0.000D+00 0.000D+00 0.000D+00 0.000D+00
 Coeff-En:   0.000D+00 0.100D+01
 Coeff:      0.513D-02-0.716D-02 0.347D-02-0.502D-02-0.159D-01-0.109D+00
 Coeff:      0.152D+00 0.976D+00
 Gap=     0.027 Goal=   None    Shift=    0.000
 RMSDP=5.06D-05 MaxDP=2.43D-03 DE=-3.02D-06 OVMax= 3.88D-03

 Cycle   9  Pass 1  IDiag  1:
 E= -649.180012607552     Delta-E=       -0.000014874419 Rises=F Damp=F
 DIIS: error= 1.79D-04 at cycle   9 NSaved=   9.
 NSaved= 9 IEnMin= 9 EnMin= -649.180012607552     IErMin= 9 ErrMin= 1.79D-04
 ErrMax= 1.79D-04  0.00D+00 EMaxC= 1.00D-01 BMatC= 8.26D-07 BMatP= 2.71D-06
 IDIUse=3 WtCom= 9.98D-01 WtEn= 1.79D-03
 Coeff-Com:  0.142D-02-0.208D-02 0.262D-02-0.187D-02-0.166D-01-0.106D+00
 Coeff-Com:  0.110D-01 0.468D+00 0.643D+00
 Coeff-En:   0.000D+00 0.000D+00 0.000D+00 0.000D+00 0.000D+00 0.000D+00
 Coeff-En:   0.000D+00 0.000D+00 0.100D+01
 Coeff:      0.142D-02-0.207D-02 0.262D-02-0.187D-02-0.165D-01-0.106D+00
 Coeff:      0.110D-01 0.467D+00 0.644D+00
 Gap=     0.027 Goal=   None    Shift=    0.000
 RMSDP=3.01D-05 MaxDP=1.43D-03 DE=-1.49D-05 OVMax= 1.79D-03

 Cycle  10  Pass 1  IDiag  1:
 E= -649.180016850336     Delta-E=       -0.000004242785 Rises=F Damp=F
 DIIS: error= 9.48D-05 at cycle  10 NSaved=  10.
 NSaved=10 IEnMin=10 EnMin= -649.180016850336     IErMin=10 ErrMin= 9.48D-05
 ErrMax= 9.48D-05  0.00D+00 EMaxC= 1.00D-01 BMatC= 3.54D-07 BMatP= 8.26D-07
 IDIUse=1 WtCom= 1.00D+00 WtEn= 0.00D+00
 Coeff-Com: -0.154D-02 0.194D-02 0.106D-02 0.110D-02-0.118D-01-0.580D-01
 Coeff-Com: -0.920D-01-0.188D+00 0.482D+00 0.865D+00
 Coeff:     -0.154D-02 0.194D-02 0.106D-02 0.110D-02-0.118D-01-0.580D-01
 Coeff:     -0.920D-01-0.188D+00 0.482D+00 0.865D+00
 Gap=     0.027 Goal=   None    Shift=    0.000
 RMSDP=3.12D-05 MaxDP=1.71D-03 DE=-4.24D-06 OVMax= 3.11D-03

 Cycle  11  Pass 1  IDiag  1:
 E= -649.180019907331     Delta-E=       -0.000003056995 Rises=F Damp=F
 DIIS: error= 6.91D-06 at cycle  11 NSaved=  11.
 NSaved=11 IEnMin=11 EnMin= -649.180019907331     IErMin=11 ErrMin= 6.91D-06
 ErrMax= 6.91D-06  0.00D+00 EMaxC= 1.00D-01 BMatC= 5.41D-09 BMatP= 3.54D-07
 IDIUse=1 WtCom= 1.00D+00 WtEn= 0.00D+00
 Coeff-Com:  0.100D-02-0.136D-02 0.156D-03 0.582D-04 0.395D-02 0.168D-02
 Coeff-Com: -0.167D-01-0.649D-01 0.196D-01 0.262D+00 0.795D+00
 Coeff:      0.100D-02-0.136D-02 0.156D-03 0.582D-04 0.395D-02 0.168D-02
 Coeff:     -0.167D-01-0.649D-01 0.196D-01 0.262D+00 0.795D+00
 Gap=     0.027 Goal=   None    Shift=    0.000
 RMSDP=6.77D-06 MaxDP=3.44D-04 DE=-3.06D-06 OVMax= 5.22D-04

 Cycle  12  Pass 1  IDiag  1:
 E= -649.180019896422     Delta-E=        0.000000010908 Rises=F Damp=F
 DIIS: error= 1.23D-05 at cycle  12 NSaved=  12.
 NSaved=12 IEnMin=11 EnMin= -649.180019907331     IErMin=11 ErrMin= 6.91D-06
 ErrMax= 1.23D-05  0.00D+00 EMaxC= 1.00D-01 BMatC= 4.48D-09 BMatP= 5.41D-09
 IDIUse=1 WtCom= 1.00D+00 WtEn= 0.00D+00
 Coeff-Com:  0.348D-03-0.465D-03 0.453D-05-0.136D-04 0.148D-02 0.170D-02
 Coeff-Com: -0.257D-02-0.132D-01-0.341D-01-0.103D-01 0.150D+00 0.907D+00
 Coeff:      0.348D-03-0.465D-03 0.453D-05-0.136D-04 0.148D-02 0.170D-02
 Coeff:     -0.257D-02-0.132D-01-0.341D-01-0.103D-01 0.150D+00 0.907D+00
 Gap=     0.027 Goal=   None    Shift=    0.000
 RMSDP=3.62D-06 MaxDP=1.57D-04 DE= 1.09D-08 OVMax= 3.10D-04

 Cycle  13  Pass 1  IDiag  1:
 E= -649.180019936854     Delta-E=       -0.000000040431 Rises=F Damp=F
 DIIS: error= 1.64D-06 at cycle  13 NSaved=  13.
 NSaved=13 IEnMin=13 EnMin= -649.180019936854     IErMin=13 ErrMin= 1.64D-06
 ErrMax= 1.64D-06  0.00D+00 EMaxC= 1.00D-01 BMatC= 9.27D-11 BMatP= 4.48D-09
 IDIUse=1 WtCom= 1.00D+00 WtEn= 0.00D+00
 Coeff-Com:  0.395D-04-0.529D-04 0.175D-05-0.488D-05 0.165D-03-0.180D-03
 Coeff-Com: -0.476D-03 0.323D-02-0.110D-01-0.176D-01-0.356D-01 0.155D+00
 Coeff-Com:  0.906D+00
 Coeff:      0.395D-04-0.529D-04 0.175D-05-0.488D-05 0.165D-03-0.180D-03
 Coeff:     -0.476D-03 0.323D-02-0.110D-01-0.176D-01-0.356D-01 0.155D+00
 Coeff:      0.906D+00
 Gap=     0.027 Goal=   None    Shift=    0.000
 RMSDP=8.53D-07 MaxDP=2.24D-05 DE=-4.04D-08 OVMax= 3.36D-05

 Cycle  14  Pass 1  IDiag  1:
 E= -649.180019937503     Delta-E=       -0.000000000649 Rises=F Damp=F
 DIIS: error= 3.34D-07 at cycle  14 NSaved=  14.
 NSaved=14 IEnMin=14 EnMin= -649.180019937503     IErMin=14 ErrMin= 3.34D-07
 ErrMax= 3.34D-07  0.00D+00 EMaxC= 1.00D-01 BMatC= 4.98D-12 BMatP= 9.27D-11
 IDIUse=1 WtCom= 1.00D+00 WtEn= 0.00D+00
 Coeff-Com: -0.134D-04 0.179D-04 0.168D-05 0.179D-05-0.474D-04-0.225D-03
 Coeff-Com: -0.271D-03 0.823D-03 0.816D-03-0.269D-02-0.119D-01-0.292D-01
 Coeff-Com:  0.163D+00 0.880D+00
 Coeff:     -0.134D-04 0.179D-04 0.168D-05 0.179D-05-0.474D-04-0.225D-03
 Coeff:     -0.271D-03 0.823D-03 0.816D-03-0.269D-02-0.119D-01-0.292D-01
 Coeff:      0.163D+00 0.880D+00
 Gap=     0.027 Goal=   None    Shift=    0.000
 RMSDP=2.22D-07 MaxDP=7.04D-06 DE=-6.49D-10 OVMax= 1.07D-05

 Cycle  15  Pass 1  IDiag  1:
 E= -649.180019937535     Delta-E=       -0.000000000032 Rises=F Damp=F
 DIIS: error= 5.04D-08 at cycle  15 NSaved=  15.
 NSaved=15 IEnMin=15 EnMin= -649.180019937535     IErMin=15 ErrMin= 5.04D-08
 ErrMax= 5.04D-08  0.00D+00 EMaxC= 1.00D-01 BMatC= 9.26D-14 BMatP= 4.98D-12
 IDIUse=1 WtCom= 1.00D+00 WtEn= 0.00D+00
 Coeff-Com: -0.272D-05 0.344D-05 0.398D-06-0.162D-06-0.745D-05-0.321D-04
 Coeff-Com: -0.374D-04-0.429D-04 0.668D-03 0.618D-03-0.101D-02-0.188D-01
 Coeff-Com:  0.173D-02 0.305D+00 0.712D+00
 Coeff:     -0.272D-05 0.344D-05 0.398D-06-0.162D-06-0.745D-05-0.321D-04
 Coeff:     -0.374D-04-0.429D-04 0.668D-03 0.618D-03-0.101D-02-0.188D-01
 Coeff:      0.173D-02 0.305D+00 0.712D+00
 Gap=     0.027 Goal=   None    Shift=    0.000
 RMSDP=2.16D-08 MaxDP=6.49D-07 DE=-3.19D-11 OVMax= 1.02D-06

 Cycle  16  Pass 1  IDiag  1:
 E= -649.180019937540     Delta-E=       -0.000000000005 Rises=F Damp=F
 DIIS: error= 1.28D-08 at cycle  16 NSaved=  16.
 NSaved=16 IEnMin=16 EnMin= -649.180019937540     IErMin=16 ErrMin= 1.28D-08
 ErrMax= 1.28D-08  0.00D+00 EMaxC= 1.00D-01 BMatC= 9.07D-15 BMatP= 9.26D-14
 IDIUse=1 WtCom= 1.00D+00 WtEn= 0.00D+00
 Coeff-Com: -0.717D-08 0.132D-07 0.361D-07-0.173D-06-0.164D-05 0.339D-05
 Coeff-Com:  0.107D-04-0.225D-04 0.638D-04 0.713D-04 0.487D-03-0.126D-02
 Coeff-Com: -0.616D-02-0.146D-01 0.257D-01 0.996D+00
 Coeff:     -0.717D-08 0.132D-07 0.361D-07-0.173D-06-0.164D-05 0.339D-05
 Coeff:      0.107D-04-0.225D-04 0.638D-04 0.713D-04 0.487D-03-0.126D-02
 Coeff:     -0.616D-02-0.146D-01 0.257D-01 0.996D+00
 Gap=     0.027 Goal=   None    Shift=    0.000
 RMSDP=6.00D-09 MaxDP=2.51D-07 DE=-5.12D-12 OVMax= 2.90D-07

 SCF Done:  E(RB3LYP) =  -649.180019938     A.U. after   16 cycles
            NFock= 16  Conv=0.60D-08     -V/T= 2.0029
 KE= 6.472879288917D+02 PE=-1.714873682200D+03 EE= 3.404772770086D+02
 Leave Link  502 at Fri Oct  6 22:04:34 2023, MaxMem=  1610612736 cpu:             175.1 elap:             109.8
 (Enter /home/sekinelabo/g16/l601.exe)
 Copying SCF densities to generalized density rwf, IOpCl= 0 IROHF=0.

 **********************************************************************

            Population analysis using the SCF Density.

 **********************************************************************

 Orbital symmetries:
       Occupied  (A) (A) (A) (A) (A) (A) (A) (A) (A) (A) (A) (A)
                 (A) (A) (A) (A) (A) (A) (A) (A) (A) (A)
       Virtual   (A) (A) (A) (A) (A) (A) (A) (A) (A) (A) (A) (A)
                 (A) (A) (A) (A) (A) (A) (A) (A) (A) (A) (A) (A)
                 (A) (A) (A) (A) (A) (A) (A) (A) (A) (A) (A) (A)
                 (A) (A) (A) (A) (A) (A) (A) (A) (A) (A) (A) (A)
                 (A) (A) (A) (A) (A) (A) (A) (A) (A) (A) (A) (A)
                 (A) (A) (A) (A) (A) (A) (A) (A) (A) (A) (A) (A)
                 (A) (A) (A) (A) (A) (A) (A) (A) (A) (A) (A) (A)
                 (A) (A) (A) (A) (A) (A) (A) (A) (A) (A) (A) (A)
                 (A) (A)
 The electronic state is 1-A.
 Alpha  occ. eigenvalues --  -38.46307 -38.45364 -38.45179 -38.44096  -2.21983
 Alpha  occ. eigenvalues --   -2.21089  -2.20946  -2.19902  -1.15660  -1.15659
 Alpha  occ. eigenvalues --   -1.15623  -1.14760  -1.14760  -1.14725  -1.14661
 Alpha  occ. eigenvalues --   -1.14607  -1.14576  -1.13580  -1.13569  -1.13540
 Alpha  occ. eigenvalues --   -0.14229  -0.11444
 Alpha virt. eigenvalues --   -0.08752  -0.04618  -0.02975  -0.02914  -0.01917
 Alpha virt. eigenvalues --   -0.01629  -0.01466  -0.00659  -0.00406   0.00008
 Alpha virt. eigenvalues --    0.00160   0.00985   0.01062   0.01221   0.01258
 Alpha virt. eigenvalues --    0.01469   0.01639   0.01774   0.01905   0.01964
 Alpha virt. eigenvalues --    0.02068   0.02278   0.02409   0.02597   0.03071
 Alpha virt. eigenvalues --    0.03311   0.03473   0.04011   0.04436   0.05561
 Alpha virt. eigenvalues --    0.07005   0.07430   0.07501   0.07872   0.07920
 Alpha virt. eigenvalues --    0.08098   0.08269   0.08456   0.08718   0.09554
 Alpha virt. eigenvalues --    0.10418   0.11096   0.11408   0.12088   0.14220
 Alpha virt. eigenvalues --    0.17018   0.28027   0.28895   0.31163   0.32206
 Alpha virt. eigenvalues --    0.32439   0.34211   0.34238   0.34285   0.34353
 Alpha virt. eigenvalues --    0.34705   0.35011   0.35082   0.36531   0.37296
 Alpha virt. eigenvalues --    0.38500   0.40106   0.40682   0.42280   0.42390
 Alpha virt. eigenvalues --    0.43087   0.43265   0.43320   0.43867   0.44525
 Alpha virt. eigenvalues --    0.45023   0.45520   0.46544   0.48323   0.50519
 Alpha virt. eigenvalues --    0.50966   0.57392   0.71636   2.00195   2.02457
 Alpha virt. eigenvalues --    2.09463   2.15624   4.41484   4.42411   4.42640
 Alpha virt. eigenvalues --    4.43209   4.43449   4.43638   4.43804   4.44339
 Alpha virt. eigenvalues --    4.45935   4.46736   4.47548   4.65052  96.19080
 Alpha virt. eigenvalues --   96.21777  96.30312  96.38227
          Condensed to atoms (all electrons):
               1          2          3          4
     1  Na  10.840528   0.226986   0.078518  -0.220764
     2  Na   0.226986  10.920907  -0.142674  -0.044950
     3  Na   0.078518  -0.142674  11.256939   0.203847
     4  Na  -0.220764  -0.044950   0.203847  10.779698
 Mulliken charges:
               1
     1  Na   0.074731
     2  Na   0.039730
     3  Na  -0.396630
     4  Na   0.282169
 Sum of Mulliken charges =  -0.00000
 Mulliken charges with hydrogens summed into heavy atoms:
               1
     1  Na   0.074731
     2  Na   0.039730
     3  Na  -0.396630
     4  Na   0.282169
 Electronic spatial extent (au):  <R**2>=           2337.7999
 Charge=             -0.0000 electrons
 Dipole moment (field-independent basis, Debye):
    X=              0.0253    Y=             -0.6993    Z=             -0.1120  Tot=              0.7087
 Quadrupole moment (field-independent basis, Debye-Ang):
   XX=            -28.0550   YY=            -37.5952   ZZ=            -44.4435
   XY=             -0.8770   XZ=             -0.7383   YZ=              0.0091
 Traceless Quadrupole moment (field-independent basis, Debye-Ang):
   XX=              8.6429   YY=             -0.8973   ZZ=             -7.7456
   XY=             -0.8770   XZ=             -0.7383   YZ=              0.0091
 Octapole moment (field-independent basis, Debye-Ang**2):
  XXX=              5.0283  YYY=              1.0253  ZZZ=             -0.1018  XYY=              3.5699
  XXY=            -59.0620  XXZ=             -3.0048  XZZ=              3.9720  YZZ=              0.9294
  YYZ=             -1.5716  XYZ=              4.4136
 Hexadecapole moment (field-independent basis, Debye-Ang**3):
 XXXX=          -2756.7214 YYYY=           -548.2201 ZZZZ=           -201.8793 XXXY=              1.8371
 XXXZ=            -45.3644 YYYX=            -20.0182 YYYZ=             -1.7821 ZZZX=             -2.7342
 ZZZY=              0.4396 XXYY=           -577.5291 XXZZ=           -624.8341 YYZZ=           -127.5069
 XXYZ=              7.0167 YYXZ=             -0.7413 ZZXY=             -1.9408
 N-N= 7.792845636248D+01 E-N=-1.714873682940D+03  KE= 6.472879288917D+02
 No NMR shielding tensors so no spin-rotation constants.
 Leave Link  601 at Fri Oct  6 22:04:40 2023, MaxMem=  1610612736 cpu:               8.3 elap:               5.2
 (Enter /home/sekinelabo/g16/l701.exe)
 ... and contract with generalized density number  0.
 Compute integral first derivatives.
 Leave Link  701 at Fri Oct  6 22:04:44 2023, MaxMem=  1610612736 cpu:               7.4 elap:               4.5
 (Enter /home/sekinelabo/g16/l702.exe)
 L702 exits ... SP integral derivatives will be done elsewhere.
 Leave Link  702 at Fri Oct  6 22:04:45 2023, MaxMem=  1610612736 cpu:               0.7 elap:               0.5
 (Enter /home/sekinelabo/g16/l703.exe)
 Integral derivatives from FoFJK, PRISM(SPDF).
 Compute integral first derivatives, UseDBF=F ICtDFT=           0.
 Calling FoFJK, ICntrl=      2127 FMM=F ISym2X=0 I1Cent= 0 IOpClX= 0 NMat=1 NMatS=1 NMatT=0.
 FoFJK:  IHMeth= 1 ICntrl=    2127 DoSepK=F KAlg= 0 I1Cent=           0 FoldK=F
 IRaf=         0 NMat=       1 IRICut=       1 DoRegI=T DoRafI=F ISym2E= 0 IDoP0=0 IntGTp=1.
 FoFCou: FMM=F IPFlag=           0 FMFlag=      100000 FMFlg1=         800
         NFxFlg=           0 DoJE=F BraDBF=F KetDBF=F FulRan=T
         wScrn=  0.000000 ICntrl=      2127 IOpCl=  0 I1Cent=           0 NGrid=           0
         NMat0=    1 NMatS0=      1 NMatT0=    0 NMatD0=    1 NMtDS0=    0 NMtDT0=    0
 Symmetry not used in FoFCou.
 Leave Link  703 at Fri Oct  6 22:04:52 2023, MaxMem=  1610612736 cpu:              12.2 elap:               7.4
 (Enter /home/sekinelabo/g16/l716.exe)
 Dipole        = 9.94463709D-03-2.75133702D-01-4.40744127D-02
 ***** Axes restored to original set *****
 -------------------------------------------------------------------
 Center     Atomic                   Forces (Hartrees/Bohr)
 Number     Number              X              Y              Z
 -------------------------------------------------------------------
      1       11          -0.004292280   -0.000087268   -0.008362533
      2       11           0.004377443    0.000055932    0.003207995
      3       11          -0.001501329   -0.001590029    0.008805260
      4       11           0.001416166    0.001621365   -0.003650723
 -------------------------------------------------------------------
 Cartesian Forces:  Max     0.008805260 RMS     0.004263181
 Z-matrix is all fixed cartesians, so copy forces.
 Force constants in Cartesian coordinates: 
                1             2             3             4             5 
      1  0.289666D-02
      2  0.374057D-02  0.483034D-02
      3  0.000000D+00  0.000000D+00  0.365511D-01
      4  0.000000D+00  0.000000D+00  0.000000D+00  0.100000D+01
      5  0.000000D+00  0.000000D+00  0.000000D+00  0.000000D+00  0.100000D+01
      6  0.000000D+00  0.000000D+00  0.000000D+00  0.000000D+00  0.000000D+00
      7 -0.502766D-02 -0.649241D-02  0.000000D+00  0.000000D+00  0.000000D+00
      8 -0.649241D-02 -0.838390D-02  0.000000D+00  0.000000D+00  0.000000D+00
      9 -0.193002D-02 -0.249231D-02 -0.365511D-01  0.000000D+00  0.000000D+00
     10  0.213100D-02  0.275184D-02  0.000000D+00  0.000000D+00  0.000000D+00
     11  0.275184D-02  0.355356D-02  0.000000D+00  0.000000D+00  0.000000D+00
     12  0.193002D-02  0.249231D-02  0.000000D+00  0.000000D+00  0.000000D+00
                6             7             8             9            10 
      6  0.100000D+01
      7  0.000000D+00  0.102048D-01
      8  0.000000D+00  0.131778D-01  0.170170D-01
      9  0.000000D+00 -0.100441D-02 -0.129703D-02  0.506619D-01
     10  0.000000D+00 -0.517709D-02 -0.668538D-02  0.293443D-02  0.304609D-02
     11  0.000000D+00 -0.668538D-02 -0.863309D-02  0.378934D-02  0.393354D-02
     12  0.000000D+00  0.100441D-02  0.129703D-02 -0.141108D-01 -0.293443D-02
               11            12 
     11  0.507953D-02
     12 -0.378934D-02  0.141108D-01
 Leave Link  716 at Fri Oct  6 22:04:53 2023, MaxMem=  1610612736 cpu:               0.9 elap:               0.7
 (Enter /home/sekinelabo/g16/l103.exe)

 GradGradGradGradGradGradGradGradGradGradGradGradGradGradGradGradGradGrad
 Berny optimization.
 Search for a local minimum.
 Step number   1 out of a maximum of    2
 All quantities printed in internal units (Hartrees-Bohrs-Radians)
 Second derivative matrix not updated -- first step.
 The second derivative matrix:
                          X1        Y1        Z1        X2        Y2
           X1           0.00290
           Y1           0.00374   0.00483
           Z1          -0.00000   0.00000   0.03655
           X2           0.00000   0.00000   0.00000   1.00000
           Y2           0.00000   0.00000   0.00000  -0.00000   1.00000
           Z2           0.00000   0.00000   0.00000   0.00000   0.00000
           X3          -0.00503  -0.00649   0.00000   0.00000   0.00000
           Y3          -0.00649  -0.00838  -0.00000   0.00000   0.00000
           Z3          -0.00193  -0.00249  -0.03655   0.00000   0.00000
           X4           0.00213   0.00275   0.00000   0.00000   0.00000
           Y4           0.00275   0.00355   0.00000   0.00000   0.00000
           Z4           0.00193   0.00249   0.00000   0.00000   0.00000
                          Z2        X3        Y3        Z3        X4
           Z2           1.00000
           X3           0.00000   0.01020
           Y3           0.00000   0.01318   0.01702
           Z3           0.00000  -0.00100  -0.00130   0.05066
           X4           0.00000  -0.00518  -0.00669   0.00293   0.00305
           Y4           0.00000  -0.00669  -0.00863   0.00379   0.00393
           Z4           0.00000   0.00100   0.00130  -0.01411  -0.00293
                          Y4        Z4
           Y4           0.00508
           Z4          -0.00379   0.01411
 ITU=  0
     Eigenvalues ---    0.01981   0.02041   0.04097   0.08302   0.27066
     Eigenvalues ---    0.75000
 Angle between quadratic step and forces=  32.21 degrees.
 Linear search not attempted -- first point.
 B after Tr=     0.000000    0.000000    0.000000
         Rot=    1.000000   -0.000000   -0.000000   -0.000000 Ang=   0.00 deg.
 Variable       Old X    -DE/DX   Delta X   Delta X   Delta X     New X
                                 (Linear)    (Quad)   (Total)
    X1       -0.00000  -0.00429   0.00000  -0.04230  -0.04230  -0.04230
    Y1       -0.00000  -0.00009   0.00000   0.01792   0.01792   0.01792
    Z1       -0.00000  -0.00836   0.00000  -0.05853  -0.05853  -0.05853
    X2       -7.40277   0.00438   0.00000   0.01183   0.01183  -7.39094
    Y2        0.00000   0.00006   0.00000  -0.00733  -0.00733  -0.00733
    Z2       -5.55329   0.00321   0.00000   0.00015   0.00015  -5.55314
    X3       -0.00000  -0.00150   0.00000   0.02349   0.02349   0.02349
    Y3       -0.00000  -0.00159   0.00000  -0.04664  -0.04664  -0.04664
    Z3        5.68806   0.00881   0.00000   0.13306   0.13306   5.82112
    X4       -2.00772   0.00142   0.00000   0.00698   0.00698  -2.00074
    Y4       -2.59264   0.00162   0.00000   0.03604   0.03604  -2.55660
    Z4       11.60146  -0.00365   0.00000  -0.07468  -0.07468  11.52678
         Item               Value     Threshold  Converged?
 Maximum Force            0.008805     0.000450     NO 
 RMS     Force            0.004263     0.000300     NO 
 Maximum Displacement     0.133060     0.001800     NO 
 RMS     Displacement     0.052509     0.001200     NO 
 Predicted change in Energy=-1.136362D-03
 GradGradGradGradGradGradGradGradGradGradGradGradGradGradGradGradGradGrad

 Leave Link  103 at Fri Oct  6 22:04:55 2023, MaxMem=  1610612736 cpu:               3.7 elap:               2.3
 (Enter /home/sekinelabo/g16/l9999.exe)
 1\1\GINC-SEKINELABO-XA7R-R37\Force\RB3LYP\6-311+G(d)\Na4\SEKINELABO\06
 -Oct-2023\0\\#p B3LYP/6-311+g(d) force\\\0,1\Na,0.,0.,0.\Na,-3.9173766
 538,0.,-2.938674943\Na,0.,0.,3.0099936477\Na,-1.0624388151,-1.37196832
 03,6.1392292722\\Version=ES64L-G16RevB.01\State=1-A\HF=-649.1800199\RM
 SD=6.002e-09\RMSF=4.263e-03\Dipole=-0.242691,-0.1167606,0.0721668\Quad
 rupole=-0.5719974,-5.0382134,5.6102108,0.6695825,1.7892522,-2.4357453\
 PG=C01 [X(Na4)]\\@


 GETTING A SIMPLE ANSWER FROM A PROFESSOR IS LIKE
 GETTING A THIMBLE OF WATER FROM A FIRE HYDRANT.
     -- PROF. LEN SHAPIRO, NDSU
 Job cpu time:       0 days  0 hours  4 minutes 13.6 seconds.
 Elapsed time:       0 days  0 hours  2 minutes 38.3 seconds.
 File lengths (MBytes):  RWF=     10 Int=      0 D2E=      0 Chk=      2 Scr=      1
 Normal termination of Gaussian 16 at Fri Oct  6 22:04:56 2023.
 Initial command:
 /home/sekinelabo/g16/l1.exe "/home/sekinelabo/g16temp/Gau-708973.inp" -scrdir="/home/sekinelabo/g16temp/"
 Entering Link 1 = /home/sekinelabo/g16/l1.exe PID=    714377.
  
 Copyright (c) 1988-2017, Gaussian, Inc.  All Rights Reserved.
  
 This is part of the Gaussian(R) 16 program.  It is based on
 the Gaussian(R) 09 system (copyright 2009, Gaussian, Inc.),
 the Gaussian(R) 03 system (copyright 2003, Gaussian, Inc.),
 the Gaussian(R) 98 system (copyright 1998, Gaussian, Inc.),
 the Gaussian(R) 94 system (copyright 1995, Gaussian, Inc.),
 the Gaussian 92(TM) system (copyright 1992, Gaussian, Inc.),
 the Gaussian 90(TM) system (copyright 1990, Gaussian, Inc.),
 the Gaussian 88(TM) system (copyright 1988, Gaussian, Inc.),
 the Gaussian 86(TM) system (copyright 1986, Carnegie Mellon
 University), and the Gaussian 82(TM) system (copyright 1983,
 Carnegie Mellon University). Gaussian is a federally registered
 trademark of Gaussian, Inc.
  
 This software contains proprietary and confidential information,
 including trade secrets, belonging to Gaussian, Inc.
  
 This software is provided under written license and may be
 used, copied, transmitted, or stored only in accord with that
 written license.
  
 The following legend is applicable only to US Government
 contracts under FAR:
  
                    RESTRICTED RIGHTS LEGEND
  
 Use, reproduction and disclosure by the US Government is
 subject to restrictions as set forth in subparagraphs (a)
 and (c) of the Commercial Computer Software - Restricted
 Rights clause in FAR 52.227-19.
  
 Gaussian, Inc.
 340 Quinnipiac St., Bldg. 40, Wallingford CT 06492
  
  
 ---------------------------------------------------------------
 Warning -- This program may not be used in any manner that
 competes with the business of Gaussian, Inc. or will provide
 assistance to any competitor of Gaussian, Inc.  The licensee
 of this program is prohibited from giving any competitor of
 Gaussian, Inc. access to this program.  By using this program,
 the user acknowledges that Gaussian, Inc. is engaged in the
 business of creating and licensing software in the field of
 computational chemistry and represents and warrants to the
 licensee that it is not a competitor of Gaussian, Inc. and that
 it will not use this program in any manner prohibited above.
 ---------------------------------------------------------------
  

 Cite this work as:
 Gaussian 16, Revision B.01,
 M. J. Frisch, G. W. Trucks, H. B. Schlegel, G. E. Scuseria, 
 M. A. Robb, J. R. Cheeseman, G. Scalmani, V. Barone, 
 G. A. Petersson, H. Nakatsuji, X. Li, M. Caricato, A. V. Marenich, 
 J. Bloino, B. G. Janesko, R. Gomperts, B. Mennucci, H. P. Hratchian, 
 J. V. Ortiz, A. F. Izmaylov, J. L. Sonnenberg, D. Williams-Young, 
 F. Ding, F. Lipparini, F. Egidi, J. Goings, B. Peng, A. Petrone, 
 T. Henderson, D. Ranasinghe, V. G. Zakrzewski, J. Gao, N. Rega, 
 G. Zheng, W. Liang, M. Hada, M. Ehara, K. Toyota, R. Fukuda, 
 J. Hasegawa, M. Ishida, T. Nakajima, Y. Honda, O. Kitao, H. Nakai, 
 T. Vreven, K. Throssell, J. A. Montgomery, Jr., J. E. Peralta, 
 F. Ogliaro, M. J. Bearpark, J. J. Heyd, E. N. Brothers, K. N. Kudin, 
 V. N. Staroverov, T. A. Keith, R. Kobayashi, J. Normand, 
 K. Raghavachari, A. P. Rendell, J. C. Burant, S. S. Iyengar, 
 J. Tomasi, M. Cossi, J. M. Millam, M. Klene, C. Adamo, R. Cammi, 
 J. W. Ochterski, R. L. Martin, K. Morokuma, O. Farkas, 
 J. B. Foresman, and D. J. Fox, Gaussian, Inc., Wallingford CT, 2016.
 
 ******************************************
 Gaussian 16:  ES64L-G16RevB.01 20-Dec-2017
                 6-Oct-2023 
 ******************************************
 %NProcShared=16
 Will use up to   16 processors via shared memory.
 %mem=12GB
 %Chk=checkpoint.chk
 -------------------------
 #p B3LYP/6-311+g(d) force
 -------------------------
 1/10=7,30=1,38=1/1,3;
 2/12=2,17=6,18=5,40=1/2;
 3/5=4,6=6,7=11,11=2,25=1,30=1,71=1,74=-5/1,2,3;
 4//1;
 5/5=2,38=5/2;
 6/7=2,8=2,9=2,10=2,28=1/1;
 7/29=1/1,2,3,16;
 1/10=7,30=1/3;
 99//99;
 Leave Link    1 at Fri Oct  6 22:04:56 2023, MaxMem=  1610612736 cpu:               0.5 elap:               0.4
 (Enter /home/sekinelabo/g16/l101.exe)


 Symbolic Z-matrix:
 Charge =  0 Multiplicity = 1
 Na                    0.        0.        0. 
 Na                   -5.60778   0.       -1.4757 
 Na                    0.        0.        4.41693 
 Na                    1.94235  -3.63087   1.82467 
 
 ITRead=  0  0  0  0
 MicOpt= -1 -1 -1 -1
 NAtoms=      4 NQM=        4 NQMF=       0 NMMI=      0 NMMIF=      0
[...]
 Gap=     0.028 Goal=   None    Shift=    0.000
 RMSDP=3.62D-04 MaxDP=2.14D-02 DE= 4.56D-05 OVMax= 3.35D-02

 Cycle   7  Pass 1  IDiag  1:
 E= -649.164893527048     Delta-E=       -0.000175847803 Rises=F Damp=F
 DIIS: error= 3.88D-04 at cycle   7 NSaved=   7.
 NSaved= 7 IEnMin= 7 EnMin= -649.164893527048     IErMin= 7 ErrMin= 3.88D-04
 ErrMax= 3.88D-04  0.00D+00 EMaxC= 1.00D-01 BMatC= 1.03D-05 BMatP= 3.89D-05
 IDIUse=3 WtCom= 9.96D-01 WtEn= 3.88D-03
 Coeff-Com: -0.893D-02 0.120D-01-0.869D-02 0.305D-02 0.148D+00 0.332D+00
 Coeff-Com:  0.523D+00
 Coeff-En:   0.000D+00 0.000D+00 0.000D+00 0.000D+00 0.000D+00 0.267D+00
 Coeff-En:   0.733D+00
 Coeff:     -0.890D-02 0.120D-01-0.865D-02 0.303D-02 0.147D+00 0.331D+00
 Coeff:      0.524D+00
 Gap=     0.028 Goal=   None    Shift=    0.000
 RMSDP=1.49D-04 MaxDP=7.13D-03 DE=-1.76D-04 OVMax= 1.20D-02

 Cycle   8  Pass 1  IDiag  1:
 E= -649.164968030981     Delta-E=       -0.000074503933 Rises=F Damp=F
 DIIS: error= 6.61D-05 at cycle   8 NSaved=   8.
 NSaved= 8 IEnMin= 8 EnMin= -649.164968030981     IErMin= 8 ErrMin= 6.61D-05
 ErrMax= 6.61D-05  0.00D+00 EMaxC= 1.00D-01 BMatC= 4.20D-07 BMatP= 1.03D-05
 IDIUse=1 WtCom= 1.00D+00 WtEn= 0.00D+00
 Coeff-Com: -0.294D-02 0.403D-02-0.622D-02 0.346D-02 0.124D-01 0.806D-01
 Coeff-Com:  0.189D+00 0.720D+00
 Coeff:     -0.294D-02 0.403D-02-0.622D-02 0.346D-02 0.124D-01 0.806D-01
 Coeff:      0.189D+00 0.720D+00
 Gap=     0.028 Goal=   None    Shift=    0.000
 RMSDP=2.24D-05 MaxDP=7.12D-04 DE=-7.45D-05 OVMax= 1.99D-03

 Cycle   9  Pass 1  IDiag  1:
 E= -649.164969981765     Delta-E=       -0.000001950785 Rises=F Damp=F
 DIIS: error= 3.97D-05 at cycle   9 NSaved=   9.
 NSaved= 9 IEnMin= 9 EnMin= -649.164969981765     IErMin= 9 ErrMin= 3.97D-05
 ErrMax= 3.97D-05  0.00D+00 EMaxC= 1.00D-01 BMatC= 1.16D-07 BMatP= 4.20D-07
 IDIUse=1 WtCom= 1.00D+00 WtEn= 0.00D+00
 Coeff-Com:  0.235D-03-0.213D-03-0.155D-02 0.315D-02-0.248D-01-0.405D-01
 Coeff-Com: -0.627D-01-0.226D-01 0.115D+01
 Coeff:      0.235D-03-0.213D-03-0.155D-02 0.315D-02-0.248D-01-0.405D-01
 Coeff:     -0.627D-01-0.226D-01 0.115D+01
 Gap=     0.028 Goal=   None    Shift=    0.000
 RMSDP=2.10D-05 MaxDP=5.96D-04 DE=-1.95D-06 OVMax= 1.94D-03

 Cycle  10  Pass 1  IDiag  1:
 E= -649.164971062717     Delta-E=       -0.000001080952 Rises=F Damp=F
 DIIS: error= 1.06D-05 at cycle  10 NSaved=  10.
 NSaved=10 IEnMin=10 EnMin= -649.164971062717     IErMin=10 ErrMin= 1.06D-05
 ErrMax= 1.06D-05  0.00D+00 EMaxC= 1.00D-01 BMatC= 8.46D-09 BMatP= 1.16D-07
 IDIUse=1 WtCom= 1.00D+00 WtEn= 0.00D+00
 Coeff-Com: -0.213D-03 0.286D-03-0.236D-03 0.728D-03 0.420D-03 0.301D-02
 Coeff-Com:  0.134D-02-0.233D-01-0.113D+00 0.113D+01
 Coeff:     -0.213D-03 0.286D-03-0.236D-03 0.728D-03 0.420D-03 0.301D-02
 Coeff:      0.134D-02-0.233D-01-0.113D+00 0.113D+01
 Gap=     0.028 Goal=   None    Shift=    0.000
 RMSDP=4.40D-06 MaxDP=1.82D-04 DE=-1.08D-06 OVMax= 4.53D-04

 Cycle  11  Pass 1  IDiag  1:
 E= -649.164971136133     Delta-E=       -0.000000073416 Rises=F Damp=F
 DIIS: error= 1.70D-06 at cycle  11 NSaved=  11.
 NSaved=11 IEnMin=11 EnMin= -649.164971136133     IErMin=11 ErrMin= 1.70D-06
 ErrMax= 1.70D-06  0.00D+00 EMaxC= 1.00D-01 BMatC= 2.08D-10 BMatP= 8.46D-09
 IDIUse=1 WtCom= 1.00D+00 WtEn= 0.00D+00
 Coeff-Com: -0.466D-04 0.593D-04-0.146D-05 0.433D-04 0.997D-03 0.139D-02
 Coeff-Com:  0.202D-02 0.522D-02-0.536D-01 0.535D-02 0.104D+01
 Coeff:     -0.466D-04 0.593D-04-0.146D-05 0.433D-04 0.997D-03 0.139D-02
 Coeff:      0.202D-02 0.522D-02-0.536D-01 0.535D-02 0.104D+01
 Gap=     0.028 Goal=   None    Shift=    0.000
 RMSDP=7.45D-07 MaxDP=2.78D-05 DE=-7.34D-08 OVMax= 6.89D-05

 Cycle  12  Pass 1  IDiag  1:
 E= -649.164971137846     Delta-E=       -0.000000001713 Rises=F Damp=F
 DIIS: error= 2.76D-07 at cycle  12 NSaved=  12.
 NSaved=12 IEnMin=12 EnMin= -649.164971137846     IErMin=12 ErrMin= 2.76D-07
 ErrMax= 2.76D-07  0.00D+00 EMaxC= 1.00D-01 BMatC= 4.45D-12 BMatP= 2.08D-10
 IDIUse=1 WtCom= 1.00D+00 WtEn= 0.00D+00
 Coeff-Com:  0.335D-05-0.473D-05 0.115D-05 0.134D-05 0.127D-03 0.175D-04
 Coeff-Com:  0.382D-04-0.662D-03 0.104D-02-0.254D-01 0.207D-01 0.100D+01
 Coeff:      0.335D-05-0.473D-05 0.115D-05 0.134D-05 0.127D-03 0.175D-04
 Coeff:      0.382D-04-0.662D-03 0.104D-02-0.254D-01 0.207D-01 0.100D+01
 Gap=     0.028 Goal=   None    Shift=    0.000
 RMSDP=1.78D-07 MaxDP=7.87D-06 DE=-1.71D-09 OVMax= 1.21D-05

 Cycle  13  Pass 1  IDiag  1:
 E= -649.164971137892     Delta-E=       -0.000000000046 Rises=F Damp=F
 DIIS: error= 1.11D-07 at cycle  13 NSaved=  13.
 NSaved=13 IEnMin=13 EnMin= -649.164971137892     IErMin=13 ErrMin= 1.11D-07
 ErrMax= 1.11D-07  0.00D+00 EMaxC= 1.00D-01 BMatC= 6.45D-13 BMatP= 4.45D-12
 IDIUse=1 WtCom= 1.00D+00 WtEn= 0.00D+00
 Coeff-Com:  0.378D-05-0.486D-05-0.589D-06-0.232D-05-0.223D-04-0.661D-04
 Coeff-Com: -0.182D-03-0.546D-03 0.458D-02-0.499D-02-0.771D-01 0.384D+00
 Coeff-Com:  0.695D+00
 Coeff:      0.378D-05-0.486D-05-0.589D-06-0.232D-05-0.223D-04-0.661D-04
 Coeff:     -0.182D-03-0.546D-03 0.458D-02-0.499D-02-0.771D-01 0.384D+00
 Coeff:      0.695D+00
 Gap=     0.028 Goal=   None    Shift=    0.000
 RMSDP=4.68D-08 MaxDP=2.47D-06 DE=-4.57D-11 OVMax= 3.34D-06

 Cycle  14  Pass 1  IDiag  1:
 E= -649.164971137891     Delta-E=        0.000000000001 Rises=F Damp=F
 DIIS: error= 8.56D-09 at cycle  14 NSaved=  14.
 NSaved=14 IEnMin=13 EnMin= -649.164971137892     IErMin=14 ErrMin= 8.56D-09
 ErrMax= 8.56D-09  0.00D+00 EMaxC= 1.00D-01 BMatC= 5.78D-15 BMatP= 6.45D-13
 IDIUse=1 WtCom= 1.00D+00 WtEn= 0.00D+00
 Coeff-Com:  0.130D-06-0.152D-06-0.427D-06-0.337D-06-0.410D-05 0.165D-06
 Coeff-Com: -0.182D-04-0.750D-04 0.481D-03 0.888D-03-0.132D-01 0.232D-01
 Coeff-Com:  0.125D+00 0.864D+00
 Coeff:      0.130D-06-0.152D-06-0.427D-06-0.337D-06-0.410D-05 0.165D-06
 Coeff:     -0.182D-04-0.750D-04 0.481D-03 0.888D-03-0.132D-01 0.232D-01
 Coeff:      0.125D+00 0.864D+00
 Gap=     0.028 Goal=   None    Shift=    0.000
 RMSDP=6.82D-09 MaxDP=2.09D-07 DE= 9.09D-13 OVMax= 6.22D-07

 SCF Done:  E(RB3LYP) =  -649.164971138     A.U. after   14 cycles
            NFock= 14  Conv=0.68D-08     -V/T= 2.0031
 KE= 6.471794537526D+02 PE=-1.688908619979D+03 EE= 3.274430936442D+02
 Leave Link  502 at Sat Oct  7 02:12:33 2023, MaxMem=  1610612736 cpu:              73.7 elap:               9.7
 (Enter /home/sekinelabo/g16/l601.exe)
 Copying SCF densities to generalized density rwf, IOpCl= 0 IROHF=0.

 **********************************************************************

            Population analysis using the SCF Density.

 **********************************************************************

 Orbital symmetries:
       Occupied  (A) (A) (A) (A) (A) (A) (A) (A) (A) (A) (A) (A)
                 (A) (A) (A) (A) (A) (A) (A) (A) (A) (A)
       Virtual   (A) (A) (A) (A) (A) (A) (A) (A) (A) (A) (A) (A)
                 (A) (A) (A) (A) (A) (A) (A) (A) (A) (A) (A) (A)
                 (A) (A) (A) (A) (A) (A) (A) (A) (A) (A) (A) (A)
                 (A) (A) (A) (A) (A) (A) (A) (A) (A) (A) (A) (A)
                 (A) (A) (A) (A) (A) (A) (A) (A) (A) (A) (A) (A)
                 (A) (A) (A) (A) (A) (A) (A) (A) (A) (A) (A) (A)
                 (A) (A) (A) (A) (A) (A) (A) (A) (A) (A) (A) (A)
                 (A) (A) (A) (A) (A) (A) (A) (A) (A) (A) (A) (A)
                 (A) (A)
 The electronic state is 1-A.
 Alpha  occ. eigenvalues --  -38.46610 -38.46576 -38.45589 -38.45037  -2.22287
 Alpha  occ. eigenvalues --   -2.22255  -2.21257  -2.20716  -1.15969  -1.15966
 Alpha  occ. eigenvalues --   -1.15940  -1.15922  -1.15909  -1.15881  -1.14949
 Alpha  occ. eigenvalues --   -1.14945  -1.14872  -1.14395  -1.14395  -1.14352
 Alpha  occ. eigenvalues --   -0.13305  -0.10902
 Alpha virt. eigenvalues --   -0.08099  -0.07000  -0.02862  -0.02678  -0.02338
 Alpha virt. eigenvalues --   -0.01786  -0.01367  -0.00830  -0.00490  -0.00377
 Alpha virt. eigenvalues --    0.00109   0.00324   0.00512   0.00599   0.01139
 Alpha virt. eigenvalues --    0.01152   0.01420   0.01657   0.01811   0.01922
 Alpha virt. eigenvalues --    0.01958   0.02075   0.02128   0.02484   0.02598
 Alpha virt. eigenvalues --    0.02835   0.03092   0.03131   0.03268   0.03885
 Alpha virt. eigenvalues --    0.06434   0.07327   0.07660   0.07816   0.08292
 Alpha virt. eigenvalues --    0.08384   0.08605   0.08831   0.08914   0.09147
 Alpha virt. eigenvalues --    0.09417   0.09689   0.10255   0.11483   0.11936
 Alpha virt. eigenvalues --    0.12191   0.30965   0.31588   0.31738   0.32819
 Alpha virt. eigenvalues --    0.33669   0.34155   0.34223   0.34480   0.35045
 Alpha virt. eigenvalues --    0.35221   0.35336   0.35344   0.35626   0.35738
 Alpha virt. eigenvalues --    0.36052   0.36407   0.36732   0.36869   0.38756
 Alpha virt. eigenvalues --    0.39427   0.42323   0.42497   0.42944   0.43392
 Alpha virt. eigenvalues --    0.43738   0.44428   0.44496   0.45919   0.46698
 Alpha virt. eigenvalues --    0.46905   0.47948   0.50449   1.99461   2.02095
 Alpha virt. eigenvalues --    2.02947   2.04124   4.41643   4.42100   4.42282
 Alpha virt. eigenvalues --    4.42680   4.43285   4.43597   4.43781   4.44284
 Alpha virt. eigenvalues --    4.44512   4.45009   4.46180   4.46976  96.18379
 Alpha virt. eigenvalues --   96.21376  96.22214  96.23718
          Condensed to atoms (all electrons):
               1          2          3          4
     1  Na  10.725737   0.237515  -0.011025  -0.029525
     2  Na   0.237515  10.801630  -0.072079  -0.023959
     3  Na  -0.011025  -0.072079  10.943709   0.199367
     4  Na  -0.029525  -0.023959   0.199367  10.928334
 Mulliken charges:
               1
     1  Na   0.077298
     2  Na   0.056893
     3  Na  -0.059973
     4  Na  -0.074218
 Sum of Mulliken charges =  -0.00000
 Mulliken charges with hydrogens summed into heavy atoms:
               1
     1  Na   0.077298
     2  Na   0.056893
     3  Na  -0.059973
     4  Na  -0.074218
 Electronic spatial extent (au):  <R**2>=           2940.9867
 Charge=             -0.0000 electrons
 Dipole moment (field-independent basis, Debye):
    X=              2.9192    Y=              0.1786    Z=             -0.1508  Tot=              2.9285
 Quadrupole moment (field-independent basis, Debye-Ang):
   XX=            -38.4541   YY=            -31.2559   ZZ=            -46.1234
   XY=             -1.4184   XZ=              1.2153   YZ=              0.8688
 Traceless Quadrupole moment (field-independent basis, Debye-Ang):
   XX=              0.1570   YY=              7.3552   ZZ=             -7.5123
   XY=             -1.4184   XZ=              1.2153   YZ=              0.8688
 Octapole moment (field-independent basis, Debye-Ang**2):
  XXX=            -16.8858  YYY=              2.2257  ZZZ=             -0.5192  XYY=             65.9172
  XXY=             14.5234  XXZ=            -16.1093  XZZ=              9.7849  YZZ=             -0.6262
  YYZ=             -3.6230  XYZ=              4.9621
 Hexadecapole moment (field-independent basis, Debye-Ang**3):
 XXXX=          -3835.9619 YYYY=           -632.3155 ZZZZ=           -260.6464 XXXY=            -49.9058
 XXXZ=             79.7783 YYYX=              2.8057 YYYZ=             11.0721 ZZZX=              5.5576
 ZZZY=              4.9117 XXYY=           -677.0584 XXZZ=           -800.6789 YYZZ=           -162.8389
 XXYZ=             10.2817 YYXZ=             -8.9641 ZZXY=             -4.2309
 N-N= 6.512110144387D+01 E-N=-1.688908620617D+03  KE= 6.471794537526D+02
 No NMR shielding tensors so no spin-rotation constants.
 Leave Link  601 at Sat Oct  7 02:12:34 2023, MaxMem=  1610612736 cpu:               5.2 elap:               0.7
 (Enter /home/sekinelabo/g16/l701.exe)
 ... and contract with generalized density number  0.
 Compute integral first derivatives.
 Leave Link  701 at Sat Oct  7 02:12:35 2023, MaxMem=  1610612736 cpu:               5.7 elap:               0.7
 (Enter /home/sekinelabo/g16/l702.exe)
 L702 exits ... SP integral derivatives will be done elsewhere.
 Leave Link  702 at Sat Oct  7 02:12:35 2023, MaxMem=  1610612736 cpu:               0.4 elap:               0.0
 (Enter /home/sekinelabo/g16/l703.exe)
 Integral derivatives from FoFJK, PRISM(SPDF).
 Compute integral first derivatives, UseDBF=F ICtDFT=           0.
 Calling FoFJK, ICntrl=      2127 FMM=F ISym2X=0 I1Cent= 0 IOpClX= 0 NMat=1 NMatS=1 NMatT=0.
 FoFJK:  IHMeth= 1 ICntrl=    2127 DoSepK=F KAlg= 0 I1Cent=           0 FoldK=F
 IRaf=         0 NMat=       1 IRICut=       1 DoRegI=T DoRafI=F ISym2E= 0 IDoP0=0 IntGTp=1.
 FoFCou: FMM=F IPFlag=           0 FMFlag=      100000 FMFlg1=         800
         NFxFlg=           0 DoJE=F BraDBF=F KetDBF=F FulRan=T
         wScrn=  0.000000 ICntrl=      2127 IOpCl=  0 I1Cent=           0 NGrid=           0
         NMat0=    1 NMatS0=      1 NMatT0=    0 NMatD0=    1 NMtDS0=    0 NMtDT0=    0
 Symmetry not used in FoFCou.
 Leave Link  703 at Sat Oct  7 02:12:36 2023, MaxMem=  1610612736 cpu:               9.2 elap:               1.1
 (Enter /home/sekinelabo/g16/l716.exe)
 Dipole        = 1.14848827D+00 7.02584882D-02-5.93349038D-02
 ***** Axes restored to original set *****
 -------------------------------------------------------------------
 Center     Atomic                   Forces (Hartrees/Bohr)
 Number     Number              X              Y              Z
 -------------------------------------------------------------------
      1       11          -0.007380318    0.000025901    0.003922225
      2       11           0.007680929    0.000033662   -0.001475749
      3       11           0.000516715   -0.002703055    0.003318189
      4       11          -0.000817327    0.002643492   -0.005764666
 -------------------------------------------------------------------
 Cartesian Forces:  Max     0.007680929 RMS     0.003984350
 Z-matrix is all fixed cartesians, so copy forces.
 Force constants in Cartesian coordinates: 
                1             2             3             4             5 
      1  0.100000D+01
      2  0.000000D+00  0.100000D+01
      3  0.000000D+00  0.000000D+00  0.100000D+01
      4  0.000000D+00  0.000000D+00  0.000000D+00  0.100000D+01
      5  0.000000D+00  0.000000D+00  0.000000D+00  0.000000D+00  0.100000D+01
      6  0.000000D+00  0.000000D+00  0.000000D+00  0.000000D+00  0.000000D+00
      7  0.000000D+00  0.000000D+00  0.000000D+00  0.000000D+00  0.000000D+00
      8  0.000000D+00  0.000000D+00  0.000000D+00  0.000000D+00  0.000000D+00
      9  0.000000D+00  0.000000D+00  0.000000D+00  0.000000D+00  0.000000D+00
     10  0.000000D+00  0.000000D+00  0.000000D+00  0.000000D+00  0.000000D+00
     11  0.000000D+00  0.000000D+00  0.000000D+00  0.000000D+00  0.000000D+00
     12  0.000000D+00  0.000000D+00  0.000000D+00  0.000000D+00  0.000000D+00
                6             7             8             9            10 
      6  0.100000D+01
      7  0.000000D+00  0.100000D+01
      8  0.000000D+00  0.000000D+00  0.100000D+01
      9  0.000000D+00  0.000000D+00  0.000000D+00  0.100000D+01
     10  0.000000D+00  0.000000D+00  0.000000D+00  0.000000D+00  0.100000D+01
     11  0.000000D+00  0.000000D+00  0.000000D+00  0.000000D+00  0.000000D+00
     12  0.000000D+00  0.000000D+00  0.000000D+00  0.000000D+00  0.000000D+00
               11            12 
     11  0.100000D+01
     12  0.000000D+00  0.100000D+01
 Leave Link  716 at Sat Oct  7 02:12:36 2023, MaxMem=  1610612736 cpu:               0.9 elap:               0.1
 (Enter /home/sekinelabo/g16/l103.exe)

 GradGradGradGradGradGradGradGradGradGradGradGradGradGradGradGradGradGrad
 Berny optimization.
 Search for a local minimum.
 Step number   1 out of a maximum of    2
 All quantities printed in internal units (Hartrees-Bohrs-Radians)
 Second derivative matrix not updated -- first step.
 The second derivative matrix:
                          X1        Y1        Z1        X2        Y2
           X1           1.00000
           Y1          -0.00000   1.00000
           Z1           0.00000   0.00000   1.00000
           X2           0.00000   0.00000   0.00000   1.00000
           Y2           0.00000   0.00000   0.00000  -0.00000   1.00000
           Z2           0.00000   0.00000   0.00000   0.00000   0.00000
           X3           0.00000   0.00000   0.00000   0.00000   0.00000
           Y3           0.00000   0.00000   0.00000   0.00000   0.00000
           Z3           0.00000   0.00000   0.00000   0.00000   0.00000
           X4           0.00000   0.00000   0.00000   0.00000   0.00000
           Y4           0.00000   0.00000   0.00000   0.00000   0.00000
           Z4           0.00000   0.00000   0.00000   0.00000   0.00000
                          Z2        X3        Y3        Z3        X4
           Z2           1.00000
           X3           0.00000   1.00000
           Y3           0.00000  -0.00000   1.00000
           Z3           0.00000   0.00000   0.00000   1.00000
           X4           0.00000   0.00000   0.00000   0.00000   1.00000
           Y4           0.00000   0.00000   0.00000   0.00000  -0.00000
           Z4           0.00000   0.00000   0.00000   0.00000   0.00000
                          Y4        Z4
           Y4           1.00000
           Z4           0.00000   1.00000
 ITU=  0
     Eigenvalues ---    1.00000   1.00000   1.00000   1.00000   1.00000
     Eigenvalues ---    1.00000   1.00000   1.00000   1.00000   1.00000
     Eigenvalues ---    1.00000   1.00000
 Angle between quadratic step and forces=   0.00 degrees.
 Linear search not attempted -- first point.
 B after Tr=     0.000000    0.000000    0.000000
         Rot=    1.000000   -0.000000    0.000000   -0.000000 Ang=   0.00 deg.
 Variable       Old X    -DE/DX   Delta X   Delta X   Delta X     New X
                                 (Linear)    (Quad)   (Total)
    X1       -0.00000  -0.00738   0.00000  -0.00738  -0.00738  -0.00738
    Y1       -0.00000   0.00003   0.00000   0.00003   0.00003   0.00003
    Z1        0.00000   0.00392   0.00000   0.00392   0.00392   0.00392
    X2       -7.98238   0.00768   0.00000   0.00768   0.00768  -7.97470
    Y2       -0.00000   0.00003   0.00000   0.00003   0.00003   0.00003
    Z2        1.83392  -0.00148   0.00000  -0.00148  -0.00148   1.83244
    X3        0.00000   0.00052   0.00000   0.00052   0.00052   0.00052
    Y3        0.00000  -0.00270   0.00000  -0.00270  -0.00270  -0.00270
    Z3        9.12225   0.00332   0.00000   0.00332   0.00332   9.12557
    X4        1.28984  -0.00082   0.00000  -0.00082  -0.00082   1.28902
    Y4       -3.84332   0.00264   0.00000   0.00264   0.00264  -3.84068
    Z4       17.68556  -0.00576   0.00000  -0.00576  -0.00576  17.67979
         Item               Value     Threshold  Converged?
 Maximum Force            0.007681     0.000450     NO 
 RMS     Force            0.003984     0.000300     NO 
 Maximum Displacement     0.007681     0.001800     NO 
 RMS     Displacement     0.003984     0.001200     NO 
 Predicted change in Energy=-9.525029D-05
 GradGradGradGradGradGradGradGradGradGradGradGradGradGradGradGradGradGrad

 Leave Link  103 at Sat Oct  7 02:12:36 2023, MaxMem=  1610612736 cpu:               0.4 elap:               0.1
 (Enter /home/sekinelabo/g16/l9999.exe)
 1\1\GINC-SEKINELABO-XA7R-R37\Force\RB3LYP\6-311+G(d)\Na4\SEKINELABO\07
 -Oct-2023\0\\#p B3LYP/6-311+g(d) force\\\0,1\Na,0.,0.,0.\Na,-4.2240933
 651,0.,0.9704670915\Na,0.,0.,4.82728558\Na,0.6825550392,-2.0337986382,
 9.3587929371\\Version=ES64L-G16RevB.01\State=1-A\HF=-649.1649711\RMSD=
 6.817e-09\RMSF=3.984e-03\Dipole=-0.4359331,0.1601515,-1.0544174\Quadru
 pole=4.2897531,-5.0229053,0.7331522,-0.2464203,-2.569083,-2.0386308\PG
 =C01 [X(Na4)]\\@


 NEVER LOSE YOUR IGNORANCE, IT CAN'T BE REPLACED.
   -- ANDY CAPP
 Job cpu time:       0 days  0 hours  2 minutes 10.3 seconds.
 Elapsed time:       0 days  0 hours  0 minutes 19.1 seconds.
 File lengths (MBytes):  RWF=     10 Int=      0 D2E=      0 Chk=      2 Scr=      1
 Normal termination of Gaussian 16 at Sat Oct  7 02:12:36 2023.
