 Entering Gaussian System, Link 0=g16
 Initial command:
 /home/sekinelabo/g16/l1.exe "/home/sekinelabo/g16temp/Gau-1046349.inp" -scrdir="/home/sekinelabo/g16temp/"
 Entering Link 1 = /home/sekinelabo/g16/l1.exe PID=   1046400.
  
 Copyright (c) 1988-2017, Gaussian, Inc.  All Rights Reserved.
  
 This is part of the Gaussian(R) 16 program.  It is based on
 the Gaussian(R) 09 system (copyright 2009, Gaussian, Inc.),
 the Gaussian(R) 03 system (copyright 2003, Gaussian, Inc.),
 the Gaussian(R) 98 system (copyright 1998, Gaussian, Inc.),
 the Gaussian(R) 94 system (copyright 1995, Gaussian, Inc.),
 the Gaussian 92(TM) system (copyright 1992, Gaussian, Inc.),
 the Gaussian 90(TM) system (copyright 1990, Gaussian, Inc.),
 the Gaussian 88(TM) system (copyright 1988, Gaussian, Inc.),
 the Gaussian 86(TM) system (copyright 1986, Carnegie Mellon
 University), and the Gaussian 82(TM) system (copyright 1983,
 Carnegie Mellon University). Gaussian is a federally registered
 trademark of Gaussian, Inc.
  
 This software contains proprietary and confidential information,
 including trade secrets, belonging to Gaussian, Inc.
  
 This software is provided under written license and may be
 used, copied, transmitted, or stored only in accord with that
 written license.
  
 The following legend is applicable only to US Government
 contracts under FAR:
  
                    RESTRICTED RIGHTS LEGEND
  
 Use, reproduction and disclosure by the US Government is
 subject to restrictions as set forth in subparagraphs (a)
 and (c) of the Commercial Computer Software - Restricted
 Rights clause in FAR 52.227-19.
  
 Gaussian, Inc.
 340 Quinnipiac St., Bldg. 40, Wallingford CT 06492
  
  
 ---------------------------------------------------------------
 Warning -- This program may not be used in any manner that
 competes with the business of Gaussian, Inc. or will provide
 assistance to any competitor of Gaussian, Inc.  The licensee
 of this program is prohibited from giving any competitor of
 Gaussian, Inc. access to this program.  By using this program,
 the user acknowledges that Gaussian, Inc. is engaged in the
 business of creating and licensing software in the field of
 computational chemistry and represents and warrants to the
 licensee that it is not a competitor of Gaussian, Inc. and that
 it will not use this program in any manner prohibited above.
 ---------------------------------------------------------------
  

 Cite this work as:
 Gaussian 16, Revision B.01,
 M. J. Frisch, G. W. Trucks, H. B. Schlegel, G. E. Scuseria, 
 M. A. Robb, J. R. Cheeseman, G. Scalmani, V. Barone, 
 G. A. Petersson, H. Nakatsuji, X. Li, M. Caricato, A. V. Marenich, 
 J. Bloino, B. G. Janesko, R. Gomperts, B. Mennucci, H. P. Hratchian, 
 J. V. Ortiz, A. F. Izmaylov, J. L. Sonnenberg, D. Williams-Young, 
 F. Ding, F. Lipparini, F. Egidi, J. Goings, B. Peng, A. Petrone, 
 T. Henderson, D. Ranasinghe, V. G. Zakrzewski, J. Gao, N. Rega, 
 G. Zheng, W. Liang, M. Hada, M. Ehara, K. Toyota, R. Fukuda, 
 J. Hasegawa, M. Ishida, T. Nakajima, Y. Honda, O. Kitao, H. Nakai, 
 T. Vreven, K. Throssell, J. A. Montgomery, Jr., J. E. Peralta, 
 F. Ogliaro, M. J. Bearpark, J. J. Heyd, E. N. Brothers, K. N. Kudin, 
 V. N. Staroverov, T. A. Keith, R. Kobayashi, J. Normand, 
 K. Raghavachari, A. P. Rendell, J. C. Burant, S. S. Iyengar, 
 J. Tomasi, M. Cossi, J. M. Millam, M. Klene, C. Adamo, R. Cammi, 
 J. W. Ochterski, R. L. Martin, K. Morokuma, O. Farkas, 
 J. B. Foresman, and D. J. Fox, Gaussian, Inc., Wallingford CT, 2016.
 
 ******************************************
 Gaussian 16:  ES64L-G16RevB.01 20-Dec-2017
                23-Nov-2023 
 ******************************************
 %nprocshared=14
 Will use up to   14 processors via shared memory.
 -------------------------
 #P B3LYP/6-311+g(d) force
 -------------------------
 1/10=7,30=1,38=1/1,3;
 2/12=2,17=6,18=5,40=1/2;
 3/5=4,6=6,7=11,11=2,25=1,30=1,71=1,74=-5/1,2,3;
 4//1;
 5/5=2,38=5/2;
 6/7=2,8=2,9=2,10=2,28=1/1;
 7/29=1/1,2,3,16;
 1/10=7,30=1/3;
 99//99;
 Leave Link    1 at Thu Nov 23 12:30:20 2023, MaxMem=           0 cpu:               0.4 elap:               0.5
 (Enter /home/sekinelabo/g16/l101.exe)
 -----
 DPGEN
 -----
 Symbolic Z-matrix:
 Charge =  0 Multiplicity = 2
 Na                    12.6533   1.00144   1.19122 
 Na                    10.9637   3.04934   99.7025 
 Na                    8.82437   1.99368   1.8446 
 Na                    6.01365   0.064     3.71185 
 Na                    3.63163   1.74974   3.21895 
 Na                    0.42608   4.37325   0.90459 
 Na                    1.79624   5.92005   98.3939 
 
 ITRead=  0  0  0  0  0  0  0
 MicOpt= -1 -1 -1 -1 -1 -1 -1
 NAtoms=      7 NQM=        7 NQMF=       0 NMMI=      0 NMMIF=      0
                NMic=       0 NMicF=      0.
                    Isotopes and Nuclear Properties:
 (Nuclear quadrupole moments (NQMom) in fm**2, nuclear magnetic moments (NMagM)
  in nuclear magnetons)

  Atom         1           2           3           4           5           6           7
 IAtWgt=          23          23          23          23          23          23          23
 AtmWgt=  22.9897697  22.9897697  22.9897697  22.9897697  22.9897697  22.9897697  22.9897697
 NucSpn=           3           3           3           3           3           3           3
 AtZEff=  -0.0000000  -0.0000000  -0.0000000  -0.0000000  -0.0000000  -0.0000000  -0.0000000
 NQMom=   10.4000000  10.4000000  10.4000000  10.4000000  10.4000000  10.4000000  10.4000000
 NMagM=    2.2175200   2.2175200   2.2175200   2.2175200   2.2175200   2.2175200   2.2175200
 AtZNuc=  11.0000000  11.0000000  11.0000000  11.0000000  11.0000000  11.0000000  11.0000000
 Leave Link  101 at Thu Nov 23 12:30:23 2023, MaxMem=   104857600 cpu:               2.4 elap:               2.9
 (Enter /home/sekinelabo/g16/l103.exe)

 GradGradGradGradGradGradGradGradGradGradGradGradGradGradGradGradGradGrad
 Berny optimization.
 Initialization pass.
 Trust Radius=3.00D-01 FncErr=1.00D-07 GrdErr=1.00D-07 EigMax=2.50D+02 EigMin=1.00D-04
 Number of steps in this run=      2 maximum allowed number of steps=      2.
 GradGradGradGradGradGradGradGradGradGradGradGradGradGradGradGradGradGrad

 Leave Link  103 at Thu Nov 23 12:30:24 2023, MaxMem=   104857600 cpu:               0.5 elap:               0.5
 (Enter /home/sekinelabo/g16/l202.exe)
                          Input orientation:                          
 ---------------------------------------------------------------------
 Center     Atomic      Atomic             Coordinates (Angstroms)
 Number     Number       Type             X           Y           Z
 ---------------------------------------------------------------------
      1         11           0       12.653300    1.001440    1.191220
      2         11           0       10.963700    3.049340   99.702500
      3         11           0        8.824370    1.993680    1.844600
      4         11           0        6.013650    0.064000    3.711850
      5         11           0        3.631630    1.749740    3.218950
      6         11           0        0.426083    4.373250    0.904588
      7         11           0        1.796240    5.920050   98.393900
 ---------------------------------------------------------------------
                    Distance matrix (angstroms):
                    1          2          3          4          5
     1  Na   0.000000
     2  Na  98.547049   0.000000
     3  Na   4.009009  97.886974   0.000000
     4  Na   7.163611  96.164547   3.887214   0.000000
     5  Na   9.276970  96.770469   5.377071   2.959508   0.000000
     6  Na  12.686847  99.367105   8.779362   7.594160   4.744956
     7  Na  97.930738   9.695140  96.884355  94.956677  95.283951
                    6          7
     6  Na   0.000000
     7  Na  97.511209   0.000000
 Stoichiometry    Na7(2)
 Framework group  C1[X(Na7)]
 Deg. of freedom    15
 Full point group                 C1      NOp   1
 Largest Abelian subgroup         C1      NOp   1
 Largest concise Abelian subgroup C1      NOp   1
                         Standard orientation:                         
 ---------------------------------------------------------------------
 Center     Atomic      Atomic             Coordinates (Angstroms)
 Number     Number       Type             X           Y           Z
 ---------------------------------------------------------------------
      1         11           0      -28.687943   -6.351809   -0.803462
      2         11           0       69.841267   -4.780220    0.219200
      3         11           0      -28.011655   -2.400315   -0.781600
      4         11           0      -26.199345   -0.177266    1.842142
      5         11           0      -26.649026    2.555402    0.798591
      6         11           0      -28.895118    6.331940   -0.992341
      7         11           0       68.601820    4.822268   -0.282529
 ---------------------------------------------------------------------
 Rotational constants (GHZ):           0.1513267           0.0016369           0.0016209
 Leave Link  202 at Thu Nov 23 12:30:25 2023, MaxMem=   104857600 cpu:               0.8 elap:               1.0
 (Enter /home/sekinelabo/g16/l301.exe)
 Standard basis: 6-311+G(d) (5D, 7F)
 Ernie: Thresh=  0.10000D-02 Tol=  0.10000D-05 Strict=F.
 There are   217 symmetry adapted cartesian basis functions of A   symmetry.
 There are   210 symmetry adapted basis functions of A   symmetry.
   210 basis functions,   350 primitive gaussians,   217 cartesian basis functions
    39 alpha electrons       38 beta electrons
       nuclear repulsion energy       129.2917197012 Hartrees.
 IExCor=  402 DFT=T Ex+Corr=B3LYP ExCW=0 ScaHFX=  0.200000
 ScaDFX=  0.800000  0.720000  1.000000  0.810000 ScalE2=  1.000000  1.000000
 IRadAn=      5 IRanWt=     -1 IRanGd=            0 ICorTp=0 IEmpDi=  4
 NAtoms=    7 NActive=    7 NUniq=    7 SFac= 1.00D+00 NAtFMM=   60 NAOKFM=F Big=F
 Integral buffers will be    131072 words long.
 Raffenetti 2 integral format.
 Two-electron integral symmetry is turned on.
 Leave Link  301 at Thu Nov 23 12:30:26 2023, MaxMem=   104857600 cpu:               0.7 elap:               0.9
 (Enter /home/sekinelabo/g16/l302.exe)
 NPDir=0 NMtPBC=     1 NCelOv=     1 NCel=       1 NClECP=     1 NCelD=      1
         NCelK=      1 NCelE2=     1 NClLst=     1 CellRange=     0.0.
 One-electron integrals computed using PRISM.
 One-electron integral symmetry used in STVInt
 NBasis=   210 RedAO= T EigKep=  1.09D-05  NBF=   210
 NBsUse=   210 1.00D-06 EigRej= -1.00D+00 NBFU=   210
 Precomputing XC quadrature grid using
 IXCGrd= 4 IRadAn=           5 IRanWt=          -1 IRanGd=           0 AccXCQ= 0.00D+00.
 Generated NRdTot=       0 NPtTot=           0 NUsed=           0 NTot=          32
 NSgBfM=   140   140   140   140   140 MxSgAt=     7 MxSgA2=     5.
 Leave Link  302 at Thu Nov 23 12:31:02 2023, MaxMem=   104857600 cpu:              29.3 elap:              36.3
 (Enter /home/sekinelabo/g16/l303.exe)
 DipDrv:  MaxL=1.
 Leave Link  303 at Thu Nov 23 12:31:06 2023, MaxMem=   104857600 cpu:               2.6 elap:               3.2
 (Enter /home/sekinelabo/g16/l401.exe)
 ExpMin= 7.60D-03 ExpMax= 3.62D+04 ExpMxC= 1.21D+03 IAcc=3 IRadAn=         5 AccDes= 0.00D+00
 Harris functional with IExCor=  402 and IRadAn=       5 diagonalized for initial guess.
 HarFok:  IExCor=  402 AccDes= 0.00D+00 IRadAn=         5 IDoV= 1 UseB2=F ITyADJ=14
 ICtDFT=  3500011 ScaDFX=  1.000000  1.000000  1.000000  1.000000
 FoFCou: FMM=F IPFlag=           0 FMFlag=      100000 FMFlg1=           0
         NFxFlg=           0 DoJE=T BraDBF=F KetDBF=T FulRan=T
         wScrn=  0.000000 ICntrl=       500 IOpCl=  0 I1Cent=   200000004 NGrid=           0
         NMat0=    1 NMatS0=      1 NMatT0=    0 NMatD0=    1 NMtDS0=    0 NMtDT0=    0
 Petite list used in FoFCou.
 Harris En= -1135.82014908979    
 JPrj=0 DoOrth=F DoCkMO=F.
 Initial guess <Sx>= 0.0000 <Sy>= 0.0000 <Sz>= 0.5000 <S**2>= 0.7500 S= 0.5000
 Leave Link  401 at Thu Nov 23 12:31:26 2023, MaxMem=   104857600 cpu:              16.0 elap:              20.2
 (Enter /home/sekinelabo/g16/l502.exe)
 Integral symmetry usage will be decided dynamically.
 UHF open shell SCF:
 Using DIIS extrapolation, IDIIS=  1040.
 NGot=   104857600 LenX=   104758440 LenY=   104710910
 Requested convergence on RMS density matrix=1.00D-08 within 128 cycles.
 Requested convergence on MAX density matrix=1.00D-06.
 Requested convergence on             energy=1.00D-06.
 No special actions if energy rises.
 Fock matrices will be formed incrementally for  20 cycles.

 Cycle   1  Pass 1  IDiag  1:
 FoFJK:  IHMeth= 1 ICntrl=       0 DoSepK=F KAlg= 0 I1Cent=           0 FoldK=F
 IRaf= 500000000 NMat=       1 IRICut=       1 DoRegI=T DoRafI=F ISym2E= 0 IDoP0=0 IntGTp=1.
 FoFCou: FMM=F IPFlag=           0 FMFlag=      100000 FMFlg1=           0
         NFxFlg=           0 DoJE=F BraDBF=F KetDBF=F FulRan=T
         wScrn=  0.000000 ICntrl=         0 IOpCl=  1 I1Cent=           0 NGrid=           0
         NMat0=    1 NMatS0=      1 NMatT0=    0 NMatD0=    1 NMtDS0=    0 NMtDT0=    0
 Symmetry not used in FoFCou.
 E= -1135.89822427623    
 DIIS: error= 2.13D-02 at cycle   1 NSaved=   1.
 NSaved= 1 IEnMin= 1 EnMin= -1135.89822427623     IErMin= 1 ErrMin= 2.13D-02
 ErrMax= 2.13D-02  0.00D+00 EMaxC= 1.00D-01 BMatC= 1.93D-01 BMatP= 1.93D-01
 IDIUse=3 WtCom= 7.87D-01 WtEn= 2.13D-01
 Coeff-Com:  0.100D+01
 Coeff-En:   0.100D+01
 Coeff:      0.100D+01
 Gap=     0.011 Goal=   None    Shift=    0.000
 Gap=    -0.210 Goal=   None    Shift=    0.000
 GapD=   -0.210 DampG=0.250 DampE=0.500 DampFc=0.2500 IDamp=-1.
 Damping current iteration by 2.50D-01
 RMSDP=9.79D-03 MaxDP=9.51D-01              OVMax= 1.00D+00

 Cycle   2  Pass 1  IDiag  1:
 RMSU=  2.39D-03    CP:  9.73D-01
 E= -1135.88324971268     Delta-E=        0.014974563545 Rises=F Damp=T
 DIIS: error= 1.24D-02 at cycle   2 NSaved=   2.
 NSaved= 2 IEnMin= 1 EnMin= -1135.89822427623     IErMin= 2 ErrMin= 1.24D-02
 ErrMax= 1.24D-02  0.00D+00 EMaxC= 1.00D-01 BMatC= 7.47D-02 BMatP= 1.93D-01
 IDIUse=3 WtCom= 8.76D-01 WtEn= 1.24D-01
 Coeff-Com: -0.797D+00 0.180D+01
 Coeff-En:   0.532D+00 0.468D+00
 Coeff:     -0.632D+00 0.163D+01
 Gap=     0.013 Goal=   None    Shift=    0.000
 Gap=     0.018 Goal=   None    Shift=    0.000
 RMSDP=9.01D-03 MaxDP=5.41D-01 DE= 1.50D-02 OVMax= 1.00D+00

 Cycle   3  Pass 1  IDiag  1:
 RMSU=  8.60D-03    CP:  9.96D-01 -1.10D-01
 E= -1135.24998198403     Delta-E=        0.633267728652 Rises=F Damp=F
 DIIS: error= 1.89D-02 at cycle   3 NSaved=   3.
 NSaved= 3 IEnMin= 1 EnMin= -1135.89822427623     IErMin= 2 ErrMin= 1.24D-02
 ErrMax= 1.89D-02  0.00D+00 EMaxC= 1.00D-01 BMatC= 2.12D-01 BMatP= 7.47D-02
 IDIUse=2 WtCom= 0.00D+00 WtEn= 1.00D+00
 Rare condition: small coef for last iteration:  0.000D+00
 Coeff-En:   0.436D+00 0.465D+00 0.990D-01
 Coeff:      0.436D+00 0.465D+00 0.990D-01
 Gap=     0.019 Goal=   None    Shift=    0.000
 Gap=     0.015 Goal=   None    Shift=    0.000
 RMSDP=1.12D-02 MaxDP=6.90D-01 DE= 6.33D-01 OVMax= 1.00D+00

 Cycle   4  Pass 1  IDiag  1:
 RMSU=  3.75D-03    CP:  9.23D-01  2.59D+00  4.56D-02
 E= -1135.52425883651     Delta-E=       -0.274276852476 Rises=F Damp=F
 DIIS: error= 1.38D-02 at cycle   4 NSaved=   4.
 NSaved= 4 IEnMin= 1 EnMin= -1135.89822427623     IErMin= 2 ErrMin= 1.24D-02
 ErrMax= 1.38D-02  0.00D+00 EMaxC= 1.00D-01 BMatC= 1.02D-01 BMatP= 7.47D-02
 IDIUse=2 WtCom= 0.00D+00 WtEn= 1.00D+00
 EnCoef did   100 forward-backward iterations
 Coeff-En:   0.677D+00 0.866D-02 0.137D-02 0.313D+00
 Coeff:      0.677D+00 0.866D-02 0.137D-02 0.313D+00
 Gap=     0.100 Goal=   None    Shift=    0.000
 Gap=     0.025 Goal=   None    Shift=    0.000
 RMSDP=5.76D-03 MaxDP=6.76D-01 DE=-2.74D-01 OVMax= 9.98D-01

 Cycle   5  Pass 1  IDiag  1:
 RMSU=  3.43D-03    CP:  9.68D-01  9.25D-01  4.11D-02  4.10D-01
 E= -1136.04882490267     Delta-E=       -0.524566066163 Rises=F Damp=F
 DIIS: error= 4.97D-03 at cycle   5 NSaved=   5.
 NSaved= 5 IEnMin= 5 EnMin= -1136.04882490267     IErMin= 5 ErrMin= 4.97D-03
 ErrMax= 4.97D-03  0.00D+00 EMaxC= 1.00D-01 BMatC= 3.12D-02 BMatP= 7.47D-02
 IDIUse=3 WtCom= 9.50D-01 WtEn= 4.97D-02
 Coeff-Com:  0.202D+00 0.853D-01-0.221D-01 0.111D-01 0.723D+00
 Coeff-En:   0.000D+00 0.000D+00 0.000D+00 0.000D+00 0.100D+01
 Coeff:      0.192D+00 0.811D-01-0.210D-01 0.105D-01 0.737D+00
 Gap=     0.049 Goal=   None    Shift=    0.000
 Gap=     0.034 Goal=   None    Shift=    0.000
 RMSDP=1.97D-03 MaxDP=1.38D-01 DE=-5.25D-01 OVMax= 1.81D-01

 Cycle   6  Pass 1  IDiag  1:
 RMSU=  1.75D-03    CP:  9.58D-01  1.13D+00  8.65D-03  4.59D-01  8.13D-01
 E= -1136.05855971617     Delta-E=       -0.009734813505 Rises=F Damp=F
 DIIS: error= 7.74D-04 at cycle   6 NSaved=   6.
 NSaved= 6 IEnMin= 6 EnMin= -1136.05855971617     IErMin= 6 ErrMin= 7.74D-04
 ErrMax= 7.74D-04  0.00D+00 EMaxC= 1.00D-01 BMatC= 9.32D-04 BMatP= 3.12D-02
 IDIUse=3 WtCom= 9.92D-01 WtEn= 7.74D-03
 Coeff-Com:  0.478D-01-0.551D-01 0.535D-02 0.182D-02 0.144D+00 0.857D+00
 Coeff-En:   0.000D+00 0.000D+00 0.000D+00 0.000D+00 0.000D+00 0.100D+01
 Coeff:      0.474D-01-0.547D-01 0.531D-02 0.180D-02 0.143D+00 0.858D+00
 Gap=     0.025 Goal=   None    Shift=    0.000
 Gap=     0.034 Goal=   None    Shift=    0.000
 RMSDP=5.22D-04 MaxDP=5.97D-02 DE=-9.73D-03 OVMax= 6.85D-02

 Cycle   7  Pass 1  IDiag  1:
 RMSU=  4.21D-04    CP:  9.57D-01  1.16D+00  6.94D-03  4.55D-01  7.86D-01
                    CP:  1.16D+00
 E= -1136.05876305088     Delta-E=       -0.000203334709 Rises=F Damp=F
 DIIS: error= 1.38D-03 at cycle   7 NSaved=   7.
 NSaved= 7 IEnMin= 7 EnMin= -1136.05876305088     IErMin= 6 ErrMin= 7.74D-04
 ErrMax= 1.38D-03  0.00D+00 EMaxC= 1.00D-01 BMatC= 2.60D-04 BMatP= 9.32D-04
 IDIUse=3 WtCom= 9.92D-01 WtEn= 7.74D-03
 Coeff-Com:  0.357D-01-0.446D-01 0.455D-02 0.510D-02 0.694D-01 0.418D+00
 Coeff-Com:  0.512D+00
 Coeff-En:   0.000D+00 0.000D+00 0.000D+00 0.000D+00 0.000D+00 0.285D+00
 Coeff-En:   0.715D+00
 Coeff:      0.354D-01-0.442D-01 0.451D-02 0.506D-02 0.689D-01 0.417D+00
 Coeff:      0.513D+00
 Gap=     0.032 Goal=   None    Shift=    0.000
 Gap=     0.043 Goal=   None    Shift=    0.000
 RMSDP=4.10D-04 MaxDP=2.54D-02 DE=-2.03D-04 OVMax= 7.33D-02

 Cycle   8  Pass 1  IDiag  1:
 RMSU=  3.83D-04    CP:  9.56D-01  1.17D+00  1.10D-02  4.74D-01  7.86D-01
                    CP:  1.10D+00  8.96D-01
 E= -1136.05933785481     Delta-E=       -0.000574803921 Rises=F Damp=F
 DIIS: error= 5.04D-04 at cycle   8 NSaved=   8.
 NSaved= 8 IEnMin= 8 EnMin= -1136.05933785481     IErMin= 8 ErrMin= 5.04D-04
 ErrMax= 5.04D-04  0.00D+00 EMaxC= 1.00D-01 BMatC= 7.09D-05 BMatP= 2.60D-04
 IDIUse=3 WtCom= 9.95D-01 WtEn= 5.04D-03
 Coeff-Com:  0.249D-01-0.319D-01 0.173D-03-0.117D-02 0.235D-01 0.491D-01
 Coeff-Com:  0.244D+00 0.691D+00
 Coeff-En:   0.000D+00 0.000D+00 0.000D+00 0.000D+00 0.000D+00 0.000D+00
 Coeff-En:   0.000D+00 0.100D+01
 Coeff:      0.248D-01-0.317D-01 0.172D-03-0.116D-02 0.234D-01 0.488D-01
 Coeff:      0.243D+00 0.693D+00
 Gap=     0.033 Goal=   None    Shift=    0.000
 Gap=     0.045 Goal=   None    Shift=    0.000
 RMSDP=1.94D-04 MaxDP=1.44D-02 DE=-5.75D-04 OVMax= 3.37D-02

 Cycle   9  Pass 1  IDiag  1:
 RMSU=  1.39D-04    CP:  9.56D-01  1.17D+00  1.70D-02  4.75D-01  7.77D-01
                    CP:  1.14D+00  1.11D+00  9.96D-01
 E= -1136.05950808547     Delta-E=       -0.000170230664 Rises=F Damp=F
 DIIS: error= 2.10D-04 at cycle   9 NSaved=   9.
 NSaved= 9 IEnMin= 9 EnMin= -1136.05950808547     IErMin= 9 ErrMin= 2.10D-04
 ErrMax= 2.10D-04  0.00D+00 EMaxC= 1.00D-01 BMatC= 2.38D-05 BMatP= 7.09D-05
 IDIUse=3 WtCom= 9.98D-01 WtEn= 2.10D-03
 Coeff-Com:  0.106D-01-0.141D-01-0.153D-02-0.367D-02 0.356D-03-0.767D-01
 Coeff-Com:  0.378D-02 0.363D+00 0.718D+00
 Coeff-En:   0.000D+00 0.000D+00 0.000D+00 0.000D+00 0.000D+00 0.000D+00
 Coeff-En:   0.000D+00 0.000D+00 0.100D+01
 Coeff:      0.106D-01-0.141D-01-0.152D-02-0.366D-02 0.356D-03-0.766D-01
 Coeff:      0.377D-02 0.362D+00 0.719D+00
 Gap=     0.034 Goal=   None    Shift=    0.000
 Gap=     0.049 Goal=   None    Shift=    0.000
 RMSDP=1.36D-04 MaxDP=1.35D-02 DE=-1.70D-04 OVMax= 1.69D-02

 Cycle  10  Pass 1  IDiag  1:
 RMSU=  1.09D-04    CP:  9.55D-01  1.17D+00  1.67D-02  4.80D-01  7.71D-01
                    CP:  1.16D+00  1.17D+00  1.15D+00  1.13D+00
 E= -1136.05956959655     Delta-E=       -0.000061511080 Rises=F Damp=F
 DIIS: error= 2.25D-04 at cycle  10 NSaved=  10.
 NSaved=10 IEnMin=10 EnMin= -1136.05956959655     IErMin= 9 ErrMin= 2.10D-04
 ErrMax= 2.25D-04  0.00D+00 EMaxC= 1.00D-01 BMatC= 9.02D-06 BMatP= 2.38D-05
 IDIUse=3 WtCom= 9.98D-01 WtEn= 2.10D-03
 Coeff-Com:  0.506D-02-0.686D-02-0.609D-03-0.220D-02-0.313D-02-0.614D-01
 Coeff-Com: -0.456D-01 0.523D-02 0.337D+00 0.772D+00
 Coeff-En:   0.000D+00 0.000D+00 0.000D+00 0.000D+00 0.000D+00 0.000D+00
 Coeff-En:   0.000D+00 0.000D+00 0.000D+00 0.100D+01
 Coeff:      0.505D-02-0.685D-02-0.607D-03-0.219D-02-0.313D-02-0.613D-01
 Coeff:     -0.455D-01 0.522D-02 0.337D+00 0.772D+00
 Gap=     0.034 Goal=   None    Shift=    0.000
 Gap=     0.048 Goal=   None    Shift=    0.000
 RMSDP=8.37D-05 MaxDP=7.56D-03 DE=-6.15D-05 OVMax= 1.61D-02

 Cycle  11  Pass 1  IDiag  1:
 RMSU=  6.56D-05    CP:  9.55D-01  1.17D+00  1.67D-02  4.77D-01  7.70D-01
                    CP:  1.17D+00  1.24D+00  1.20D+00  1.30D+00  1.24D+00
 E= -1136.05960996539     Delta-E=       -0.000040368837 Rises=F Damp=F
 DIIS: error= 9.99D-05 at cycle  11 NSaved=  11.
 NSaved=11 IEnMin=11 EnMin= -1136.05960996539     IErMin=11 ErrMin= 9.99D-05
 ErrMax= 9.99D-05  0.00D+00 EMaxC= 1.00D-01 BMatC= 2.77D-06 BMatP= 9.02D-06
 IDIUse=1 WtCom= 1.00D+00 WtEn= 0.00D+00
 Coeff-Com:  0.258D-02-0.330D-02-0.246D-03-0.141D-02 0.119D-02-0.181D-01
 Coeff-Com: -0.162D-01-0.313D-01-0.274D-01 0.221D+00 0.874D+00
 Coeff:      0.258D-02-0.330D-02-0.246D-03-0.141D-02 0.119D-02-0.181D-01
 Coeff:     -0.162D-01-0.313D-01-0.274D-01 0.221D+00 0.874D+00
 Gap=     0.034 Goal=   None    Shift=    0.000
 Gap=     0.048 Goal=   None    Shift=    0.000
 RMSDP=6.21D-05 MaxDP=6.96D-03 DE=-4.04D-05 OVMax= 1.06D-02

 Cycle  12  Pass 1  IDiag  1:
 RMSU=  2.87D-05    CP:  9.55D-01  1.17D+00  1.72D-02  4.75D-01  7.70D-01
                    CP:  1.17D+00  1.26D+00  1.23D+00  1.42D+00  1.58D+00
                    CP:  1.50D+00
 E= -1136.05963425297     Delta-E=       -0.000024287587 Rises=F Damp=F
 DIIS: error= 8.96D-05 at cycle  12 NSaved=  12.
 NSaved=12 IEnMin=12 EnMin= -1136.05963425297     IErMin=12 ErrMin= 8.96D-05
 ErrMax= 8.96D-05  0.00D+00 EMaxC= 1.00D-01 BMatC= 1.55D-06 BMatP= 2.77D-06
 IDIUse=1 WtCom= 1.00D+00 WtEn= 0.00D+00
 Coeff-Com:  0.866D-03-0.111D-02-0.128D-04-0.112D-02 0.341D-02 0.891D-02
 Coeff-Com:  0.106D-02-0.489D-02-0.913D-01-0.133D+00 0.531D-01 0.116D+01
 Coeff:      0.866D-03-0.111D-02-0.128D-04-0.112D-02 0.341D-02 0.891D-02
 Coeff:      0.106D-02-0.489D-02-0.913D-01-0.133D+00 0.531D-01 0.116D+01
 Gap=     0.034 Goal=   None    Shift=    0.000
 Gap=     0.048 Goal=   None    Shift=    0.000
 RMSDP=7.53D-05 MaxDP=8.22D-03 DE=-2.43D-05 OVMax= 1.40D-02

 Cycle  13  Pass 1  IDiag  1:
 RMSU=  8.50D-06    CP:  9.55D-01  1.16D+00  1.76D-02  4.73D-01  7.71D-01
                    CP:  1.17D+00  1.27D+00  1.24D+00  1.56D+00  1.93D+00
                    CP:  2.12D+00  2.56D+00
 E= -1136.05966047010     Delta-E=       -0.000026217123 Rises=F Damp=F
 DIIS: error= 7.60D-05 at cycle  13 NSaved=  13.
 NSaved=13 IEnMin=13 EnMin= -1136.05966047010     IErMin=13 ErrMin= 7.60D-05
 ErrMax= 7.60D-05  0.00D+00 EMaxC= 1.00D-01 BMatC= 1.02D-06 BMatP= 1.55D-06
 IDIUse=1 WtCom= 1.00D+00 WtEn= 0.00D+00
 Coeff-Com: -0.179D-02 0.239D-02-0.658D-04-0.423D-03-0.189D-02-0.117D-01
 Coeff-Com: -0.175D-01 0.687D-01 0.140D+00-0.119D+00-0.800D+00-0.968D+00
 Coeff-Com:  0.271D+01
 Coeff:     -0.179D-02 0.239D-02-0.658D-04-0.423D-03-0.189D-02-0.117D-01
 Coeff:     -0.175D-01 0.687D-01 0.140D+00-0.119D+00-0.800D+00-0.968D+00
 Coeff:      0.271D+01
 Gap=     0.035 Goal=   None    Shift=    0.000
 Gap=     0.049 Goal=   None    Shift=    0.000
 RMSDP=1.86D-04 MaxDP=2.07D-02 DE=-2.62D-05 OVMax= 3.48D-02

 Cycle  14  Pass 1  IDiag  1:
 RMSU=  1.16D-04    CP:  9.55D-01  1.16D+00  1.94D-02  4.68D-01  7.72D-01
                    CP:  1.16D+00  1.29D+00  1.27D+00  1.92D+00  2.66D+00
                    CP:  3.00D+00  3.00D+00  3.00D+00
 E= -1136.05970809326     Delta-E=       -0.000047623163 Rises=F Damp=F
 DIIS: error= 4.48D-05 at cycle  14 NSaved=  14.
 NSaved=14 IEnMin=14 EnMin= -1136.05970809326     IErMin=14 ErrMin= 4.48D-05
 ErrMax= 4.48D-05  0.00D+00 EMaxC= 1.00D-01 BMatC= 4.41D-07 BMatP= 1.02D-06
 IDIUse=1 WtCom= 1.00D+00 WtEn= 0.00D+00
 Coeff-Com: -0.290D-02 0.391D-02-0.179D-03 0.123D-03-0.286D-02-0.683D-02
 Coeff-Com: -0.453D-02 0.372D-01 0.766D-01 0.123D+00-0.285D+00-0.873D+00
 Coeff-Com:  0.364D+00 0.157D+01
 Coeff:     -0.290D-02 0.391D-02-0.179D-03 0.123D-03-0.286D-02-0.683D-02
 Coeff:     -0.453D-02 0.372D-01 0.766D-01 0.123D+00-0.285D+00-0.873D+00
 Coeff:      0.364D+00 0.157D+01
 Gap=     0.035 Goal=   None    Shift=    0.000
 Gap=     0.050 Goal=   None    Shift=    0.000
 RMSDP=1.67D-04 MaxDP=1.96D-02 DE=-4.76D-05 OVMax= 2.99D-02

 Cycle  15  Pass 1  IDiag  1:
 RMSU=  5.33D-05    CP:  9.55D-01  1.16D+00  2.11D-02  4.64D-01  7.73D-01
                    CP:  1.16D+00  1.30D+00  1.29D+00  2.20D+00  3.00D+00
                    CP:  3.00D+00  3.00D+00  3.00D+00  2.18D+00
 E= -1136.05972551842     Delta-E=       -0.000017425161 Rises=F Damp=F
 DIIS: error= 2.22D-05 at cycle  15 NSaved=  15.
 NSaved=15 IEnMin=15 EnMin= -1136.05972551842     IErMin=15 ErrMin= 2.22D-05
 ErrMax= 2.22D-05  0.00D+00 EMaxC= 1.00D-01 BMatC= 1.95D-07 BMatP= 4.41D-07
 IDIUse=1 WtCom= 1.00D+00 WtEn= 0.00D+00
 Coeff-Com: -0.164D-02 0.222D-02-0.572D-04 0.179D-03-0.171D-02-0.159D-02
 Coeff-Com:  0.301D-02 0.789D-02-0.455D-02 0.377D-01 0.929D-01-0.355D-01
 Coeff-Com: -0.178D+00 0.796D-01 0.999D+00
 Coeff:     -0.164D-02 0.222D-02-0.572D-04 0.179D-03-0.171D-02-0.159D-02
 Coeff:      0.301D-02 0.789D-02-0.455D-02 0.377D-01 0.929D-01-0.355D-01
 Coeff:     -0.178D+00 0.796D-01 0.999D+00
 Gap=     0.035 Goal=   None    Shift=    0.000
 Gap=     0.050 Goal=   None    Shift=    0.000
 RMSDP=6.94D-06 MaxDP=7.95D-04 DE=-1.74D-05 OVMax= 4.32D-04

 Cycle  16  Pass 1  IDiag  1:
 RMSU=  6.14D-06    CP:  9.55D-01  1.16D+00  2.10D-02  4.63D-01  7.73D-01
                    CP:  1.16D+00  1.30D+00  1.29D+00  2.19D+00  3.00D+00
                    CP:  3.00D+00  3.00D+00  3.00D+00  2.19D+00  9.81D-01
 E= -1136.05972574536     Delta-E=       -0.000000226937 Rises=F Damp=F
 DIIS: error= 2.31D-05 at cycle  16 NSaved=  16.
 NSaved=16 IEnMin=16 EnMin= -1136.05972574536     IErMin=15 ErrMin= 2.22D-05
 ErrMax= 2.31D-05  0.00D+00 EMaxC= 1.00D-01 BMatC= 8.74D-08 BMatP= 1.95D-07
 IDIUse=1 WtCom= 1.00D+00 WtEn= 0.00D+00
 Coeff-Com: -0.111D-02 0.148D-02-0.551D-05 0.821D-04-0.115D-02-0.174D-02
 Coeff-Com:  0.318D-02 0.215D-02-0.145D-01 0.179D-01 0.594D-01 0.356D-01
 Coeff-Com: -0.309D-01-0.230D+00 0.185D+00 0.975D+00
 Coeff:     -0.111D-02 0.148D-02-0.551D-05 0.821D-04-0.115D-02-0.174D-02
 Coeff:      0.318D-02 0.215D-02-0.145D-01 0.179D-01 0.594D-01 0.356D-01
 Coeff:     -0.309D-01-0.230D+00 0.185D+00 0.975D+00
 Gap=     0.035 Goal=   None    Shift=    0.000
 Gap=     0.050 Goal=   None    Shift=    0.000
 RMSDP=7.41D-06 MaxDP=6.10D-04 DE=-2.27D-07 OVMax= 1.08D-03

 Cycle  17  Pass 1  IDiag  1:
 RMSU=  4.58D-06    CP:  9.55D-01  1.16D+00  2.08D-02  4.63D-01  7.73D-01
                    CP:  1.16D+00  1.30D+00  1.29D+00  2.19D+00  3.00D+00
                    CP:  3.00D+00  3.00D+00  3.00D+00  2.23D+00  1.03D+00
                    CP:  1.13D+00
 E= -1136.05972600118     Delta-E=       -0.000000255827 Rises=F Damp=F
 DIIS: error= 1.14D-05 at cycle  17 NSaved=  17.
 NSaved=17 IEnMin=17 EnMin= -1136.05972600118     IErMin=17 ErrMin= 1.14D-05
 ErrMax= 1.14D-05  0.00D+00 EMaxC= 1.00D-01 BMatC= 2.97D-08 BMatP= 8.74D-08
 IDIUse=1 WtCom= 1.00D+00 WtEn= 0.00D+00
 Coeff-Com: -0.298D-03 0.373D-03 0.174D-04-0.655D-05-0.485D-04 0.114D-02
 Coeff-Com:  0.143D-02-0.969D-02-0.354D-02 0.387D-02 0.271D-01 0.179D-02
 Coeff-Com: -0.638D-02-0.107D+00-0.319D+00-0.257D+00 0.167D+01
 Coeff:     -0.298D-03 0.373D-03 0.174D-04-0.655D-05-0.485D-04 0.114D-02
 Coeff:      0.143D-02-0.969D-02-0.354D-02 0.387D-02 0.271D-01 0.179D-02
 Coeff:     -0.638D-02-0.107D+00-0.319D+00-0.257D+00 0.167D+01
 Gap=     0.035 Goal=   None    Shift=    0.000
 Gap=     0.050 Goal=   None    Shift=    0.000
 RMSDP=1.55D-05 MaxDP=1.50D-03 DE=-2.56D-07 OVMax= 2.62D-03

 Cycle  18  Pass 1  IDiag  1:
 RMSU=  2.16D-06    CP:  9.55D-01  1.16D+00  2.07D-02  4.63D-01  7.73D-01
                    CP:  1.16D+00  1.31D+00  1.29D+00  2.21D+00  3.00D+00
                    CP:  3.00D+00  3.00D+00  3.00D+00  2.33D+00  1.17D+00
                    CP:  1.46D+00  1.94D+00
 E= -1136.05972622604     Delta-E=       -0.000000224861 Rises=F Damp=F
 DIIS: error= 2.52D-06 at cycle  18 NSaved=  18.
 NSaved=18 IEnMin=18 EnMin= -1136.05972622604     IErMin=18 ErrMin= 2.52D-06
 ErrMax= 2.52D-06  0.00D+00 EMaxC= 1.00D-01 BMatC= 1.93D-09 BMatP= 2.97D-08
 IDIUse=1 WtCom= 1.00D+00 WtEn= 0.00D+00
 Coeff-Com: -0.106D-03 0.141D-03 0.613D-05 0.664D-05-0.886D-04-0.295D-04
 Coeff-Com:  0.536D-03-0.285D-02 0.265D-02 0.241D-02 0.170D-02-0.107D-01
 Coeff-Com: -0.104D-01 0.899D-02-0.117D+00-0.147D+00 0.452D+00 0.820D+00
 Coeff:     -0.106D-03 0.141D-03 0.613D-05 0.664D-05-0.886D-04-0.295D-04
 Coeff:      0.536D-03-0.285D-02 0.265D-02 0.241D-02 0.170D-02-0.107D-01
 Coeff:     -0.104D-01 0.899D-02-0.117D+00-0.147D+00 0.452D+00 0.820D+00
 Gap=     0.035 Goal=   None    Shift=    0.000
 Gap=     0.050 Goal=   None    Shift=    0.000
 RMSDP=3.46D-06 MaxDP=3.03D-04 DE=-2.25D-07 OVMax= 6.45D-04

 Cycle  19  Pass 1  IDiag  1:
 RMSU=  4.76D-07    CP:  9.55D-01  1.16D+00  2.07D-02  4.63D-01  7.73D-01
                    CP:  1.16D+00  1.31D+00  1.29D+00  2.21D+00  3.00D+00
                    CP:  3.00D+00  3.00D+00  3.00D+00  2.36D+00  1.19D+00
                    CP:  1.46D+00  2.15D+00  1.15D+00
 E= -1136.05972623386     Delta-E=       -0.000000007813 Rises=F Damp=F
 DIIS: error= 7.14D-07 at cycle  19 NSaved=  19.
 NSaved=19 IEnMin=19 EnMin= -1136.05972623386     IErMin=19 ErrMin= 7.14D-07
 ErrMax= 7.14D-07  0.00D+00 EMaxC= 1.00D-01 BMatC= 4.01D-10 BMatP= 1.93D-09
 IDIUse=1 WtCom= 1.00D+00 WtEn= 0.00D+00
 Coeff-Com: -0.172D-04 0.246D-04 0.341D-05-0.471D-05-0.361D-04-0.132D-03
 Coeff-Com: -0.230D-03 0.437D-03 0.187D-02-0.114D-02-0.491D-02-0.243D-02
 Coeff-Com:  0.924D-02 0.661D-02-0.227D-02-0.108D-01-0.976D-01 0.293D+00
 Coeff-Com:  0.808D+00
 Coeff:     -0.172D-04 0.246D-04 0.341D-05-0.471D-05-0.361D-04-0.132D-03
 Coeff:     -0.230D-03 0.437D-03 0.187D-02-0.114D-02-0.491D-02-0.243D-02
 Coeff:      0.924D-02 0.661D-02-0.227D-02-0.108D-01-0.976D-01 0.293D+00
 Coeff:      0.808D+00
 Gap=     0.035 Goal=   None    Shift=    0.000
 Gap=     0.050 Goal=   None    Shift=    0.000
 RMSDP=8.21D-07 MaxDP=9.29D-05 DE=-7.81D-09 OVMax= 1.07D-04

 Cycle  20  Pass 1  IDiag  1:
 RMSU=  2.32D-07    CP:  9.55D-01  1.16D+00  2.07D-02  4.63D-01  7.73D-01
                    CP:  1.16D+00  1.31D+00  1.29D+00  2.21D+00  3.00D+00
                    CP:  3.00D+00  3.00D+00  3.00D+00  2.35D+00  1.19D+00
                    CP:  1.51D+00  2.16D+00  1.27D+00  1.47D+00
 E= -1136.05972623471     Delta-E=       -0.000000000850 Rises=F Damp=F
 DIIS: error= 2.73D-07 at cycle  20 NSaved=  20.
 NSaved=20 IEnMin=20 EnMin= -1136.05972623471     IErMin=20 ErrMin= 2.73D-07
 ErrMax= 2.73D-07  0.00D+00 EMaxC= 1.00D-01 BMatC= 2.67D-11 BMatP= 4.01D-10
 IDIUse=1 WtCom= 1.00D+00 WtEn= 0.00D+00
 Coeff-Com: -0.100D-04 0.135D-04 0.979D-06-0.133D-05-0.118D-04-0.674D-04
 Coeff-Com: -0.101D-03 0.682D-03-0.112D-03-0.139D-03-0.102D-02-0.131D-02
 Coeff-Com:  0.217D-02 0.188D-02 0.183D-01 0.220D-01-0.712D-01-0.649D-01
 Coeff-Com: -0.197D-01 0.111D+01
 Coeff:     -0.100D-04 0.135D-04 0.979D-06-0.133D-05-0.118D-04-0.674D-04
 Coeff:     -0.101D-03 0.682D-03-0.112D-03-0.139D-03-0.102D-02-0.131D-02
 Coeff:      0.217D-02 0.188D-02 0.183D-01 0.220D-01-0.712D-01-0.649D-01
 Coeff:     -0.197D-01 0.111D+01
 Gap=     0.035 Goal=   None    Shift=    0.000
 Gap=     0.050 Goal=   None    Shift=    0.000
 RMSDP=3.67D-07 MaxDP=2.85D-05 DE=-8.50D-10 OVMax= 5.68D-05

 Cycle  21  Pass 1  IDiag  1:
 Restarting incremental Fock formation.
 E= -1136.05972623490     Delta-E=       -0.000000000195 Rises=F Damp=F
 DIIS: error= 1.22D-07 at cycle  21 NSaved=  20.
 NSaved=20 IEnMin=20 EnMin= -1136.05972623490     IErMin=20 ErrMin= 1.22D-07
 ErrMax= 1.22D-07  0.00D+00 EMaxC= 1.00D-01 BMatC= 5.34D-12 BMatP= 2.67D-11
 IDIUse=1 WtCom= 1.00D+00 WtEn= 0.00D+00
 Coeff-Com: -0.236D-05 0.261D-05-0.983D-07 0.281D-05 0.475D-05 0.423D-04
 Coeff-Com: -0.740D-04-0.177D-03 0.703D-04 0.516D-03 0.260D-03 0.110D-05
 Coeff-Com: -0.344D-02 0.421D-03 0.165D-04 0.277D-01-0.671D-01-0.173D+00
 Coeff-Com: -0.769D-02 0.122D+01
 Coeff:     -0.236D-05 0.261D-05-0.983D-07 0.281D-05 0.475D-05 0.423D-04
 Coeff:     -0.740D-04-0.177D-03 0.703D-04 0.516D-03 0.260D-03 0.110D-05
 Coeff:     -0.344D-02 0.421D-03 0.165D-04 0.277D-01-0.671D-01-0.173D+00
 Coeff:     -0.769D-02 0.122D+01
 Gap=     0.035 Goal=   None    Shift=    0.000
 Gap=     0.050 Goal=   None    Shift=    0.000
 RMSDP=1.57D-07 MaxDP=1.13D-05 DE=-1.95D-10 OVMax= 1.46D-05

 Cycle  22  Pass 1  IDiag  1:
 RMSU=  1.56D-07    CP:  1.00D+00
 E= -1136.05972623495     Delta-E=       -0.000000000044 Rises=F Damp=F
 DIIS: error= 4.81D-08 at cycle  22 NSaved=  20.
 NSaved=20 IEnMin=20 EnMin= -1136.05972623495     IErMin=20 ErrMin= 4.81D-08
 ErrMax= 4.81D-08  0.00D+00 EMaxC= 1.00D-01 BMatC= 7.58D-13 BMatP= 5.34D-12
 IDIUse=1 WtCom= 1.00D+00 WtEn= 0.00D+00
 Coeff-Com:  0.190D-06-0.302D-06-0.182D-07 0.410D-05-0.157D-05-0.552D-04
 Coeff-Com:  0.257D-04 0.841D-04-0.117D-03 0.143D-03 0.219D-03-0.340D-03
 Coeff-Com: -0.227D-02-0.227D-02 0.689D-02 0.332D-02 0.204D-01-0.167D+00
 Coeff-Com:  0.668D-01 0.107D+01
 Coeff:      0.190D-06-0.302D-06-0.182D-07 0.410D-05-0.157D-05-0.552D-04
 Coeff:      0.257D-04 0.841D-04-0.117D-03 0.143D-03 0.219D-03-0.340D-03
 Coeff:     -0.227D-02-0.227D-02 0.689D-02 0.332D-02 0.204D-01-0.167D+00
 Coeff:      0.668D-01 0.107D+01
 Gap=     0.035 Goal=   None    Shift=    0.000
 Gap=     0.050 Goal=   None    Shift=    0.000
 RMSDP=4.96D-08 MaxDP=4.19D-06 DE=-4.37D-11 OVMax= 7.33D-06

 Cycle  23  Pass 1  IDiag  1:
 RMSU=  4.00D-08    CP:  1.00D+00  1.19D+00
 E= -1136.05972623494     Delta-E=        0.000000000001 Rises=F Damp=F
 DIIS: error= 1.12D-08 at cycle  23 NSaved=  20.
 NSaved=20 IEnMin=19 EnMin= -1136.05972623495     IErMin=20 ErrMin= 1.12D-08
 ErrMax= 1.12D-08  0.00D+00 EMaxC= 1.00D-01 BMatC= 7.21D-14 BMatP= 7.58D-13
 IDIUse=1 WtCom= 1.00D+00 WtEn= 0.00D+00
 Coeff-Com:  0.219D-07-0.507D-06-0.138D-06-0.556D-05-0.995D-05 0.421D-04
 Coeff-Com:  0.216D-04-0.123D-03-0.205D-04-0.398D-06 0.381D-03-0.583D-03
 Coeff-Com: -0.120D-02-0.343D-04 0.773D-02 0.221D-01-0.439D-01-0.109D+00
 Coeff-Com:  0.264D+00 0.861D+00
 Coeff:      0.219D-07-0.507D-06-0.138D-06-0.556D-05-0.995D-05 0.421D-04
 Coeff:      0.216D-04-0.123D-03-0.205D-04-0.398D-06 0.381D-03-0.583D-03
 Coeff:     -0.120D-02-0.343D-04 0.773D-02 0.221D-01-0.439D-01-0.109D+00
 Coeff:      0.264D+00 0.861D+00
 Gap=     0.035 Goal=   None    Shift=    0.000
 Gap=     0.050 Goal=   None    Shift=    0.000
 RMSDP=1.96D-08 MaxDP=1.45D-06 DE= 6.82D-13 OVMax= 2.91D-06

 Cycle  24  Pass 1  IDiag  1:
 RMSU=  1.66D-08    CP:  1.00D+00  1.24D+00  8.35D-01
 E= -1136.05972623495     Delta-E=       -0.000000000005 Rises=F Damp=F
 DIIS: error= 5.48D-09 at cycle  24 NSaved=  20.
 NSaved=20 IEnMin=20 EnMin= -1136.05972623495     IErMin=20 ErrMin= 5.48D-09
 ErrMax= 5.48D-09  0.00D+00 EMaxC= 1.00D-01 BMatC= 9.27D-15 BMatP= 7.21D-14
 IDIUse=1 WtCom= 1.00D+00 WtEn= 0.00D+00
 Coeff-Com: -0.143D-06-0.147D-05-0.276D-05 0.128D-04 0.648D-05-0.194D-04
 Coeff-Com:  0.169D-05-0.345D-04 0.240D-04 0.204D-04 0.294D-03 0.254D-03
 Coeff-Com: -0.984D-03 0.296D-03-0.157D-03 0.182D-01-0.221D-01-0.124D+00
 Coeff-Com:  0.820D-01 0.105D+01
 Coeff:     -0.143D-06-0.147D-05-0.276D-05 0.128D-04 0.648D-05-0.194D-04
 Coeff:      0.169D-05-0.345D-04 0.240D-04 0.204D-04 0.294D-03 0.254D-03
 Coeff:     -0.984D-03 0.296D-03-0.157D-03 0.182D-01-0.221D-01-0.124D+00
 Coeff:      0.820D-01 0.105D+01
 Gap=     0.035 Goal=   None    Shift=    0.000
 Gap=     0.050 Goal=   None    Shift=    0.000
 RMSDP=5.75D-09 MaxDP=3.34D-07 DE=-5.46D-12 OVMax= 3.91D-07

 SCF Done:  E(UB3LYP) =  -1136.05972623     A.U. after   24 cycles
            NFock= 24  Conv=0.58D-08     -V/T= 2.0029
 <Sx>= 0.0000 <Sy>= 0.0000 <Sz>= 0.5000 <S**2>= 1.8487 S= 0.9487
 <L.S>= 0.000000000000E+00
 KE= 1.132774131182D+03 PE=-2.986880636075D+03 EE= 5.887550589565D+02
 Annihilation of the first spin contaminant:
 S**2 before annihilation     1.8487,   after     1.0795
 Leave Link  502 at Thu Nov 23 12:42:29 2023, MaxMem=   104857600 cpu:             637.6 elap:             663.4
 (Enter /home/sekinelabo/g16/l601.exe)
 Copying SCF densities to generalized density rwf, IOpCl= 1 IROHF=0.

 **********************************************************************

            Population analysis using the SCF Density.

 **********************************************************************

 Orbital symmetries:
 Alpha Orbitals:
       Occupied  (A) (A) (A) (A) (A) (A) (A) (A) (A) (A) (A) (A)
                 (A) (A) (A) (A) (A) (A) (A) (A) (A) (A) (A) (A)
                 (A) (A) (A) (A) (A) (A) (A) (A) (A) (A) (A) (A)
                 (A) (A) (A)
       Virtual   (A) (A) (A) (A) (A) (A) (A) (A) (A) (A) (A) (A)
                 (A) (A) (A) (A) (A) (A) (A) (A) (A) (A) (A) (A)
                 (A) (A) (A) (A) (A) (A) (A) (A) (A) (A) (A) (A)
                 (A) (A) (A) (A) (A) (A) (A) (A) (A) (A) (A) (A)
                 (A) (A) (A) (A) (A) (A) (A) (A) (A) (A) (A) (A)
                 (A) (A) (A) (A) (A) (A) (A) (A) (A) (A) (A) (A)
                 (A) (A) (A) (A) (A) (A) (A) (A) (A) (A) (A) (A)
                 (A) (A) (A) (A) (A) (A) (A) (A) (A) (A) (A) (A)
                 (A) (A) (A) (A) (A) (A) (A) (A) (A) (A) (A) (A)
                 (A) (A) (A) (A) (A) (A) (A) (A) (A) (A) (A) (A)
                 (A) (A) (A) (A) (A) (A) (A) (A) (A) (A) (A) (A)
                 (A) (A) (A) (A) (A) (A) (A) (A) (A) (A) (A) (A)
                 (A) (A) (A) (A) (A) (A) (A) (A) (A) (A) (A) (A)
                 (A) (A) (A) (A) (A) (A) (A) (A) (A) (A) (A) (A)
                 (A) (A) (A)
 Beta  Orbitals:
       Occupied  (A) (A) (A) (A) (A) (A) (A) (A) (A) (A) (A) (A)
                 (A) (A) (A) (A) (A) (A) (A) (A) (A) (A) (A) (A)
                 (A) (A) (A) (A) (A) (A) (A) (A) (A) (A) (A) (A)
                 (A) (A)
       Virtual   (A) (A) (A) (A) (A) (A) (A) (A) (A) (A) (A) (A)
                 (A) (A) (A) (A) (A) (A) (A) (A) (A) (A) (A) (A)
                 (A) (A) (A) (A) (A) (A) (A) (A) (A) (A) (A) (A)
                 (A) (A) (A) (A) (A) (A) (A) (A) (A) (A) (A) (A)
                 (A) (A) (A) (A) (A) (A) (A) (A) (A) (A) (A) (A)
                 (A) (A) (A) (A) (A) (A) (A) (A) (A) (A) (A) (A)
                 (A) (A) (A) (A) (A) (A) (A) (A) (A) (A) (A) (A)
                 (A) (A) (A) (A) (A) (A) (A) (A) (A) (A) (A) (A)
                 (A) (A) (A) (A) (A) (A) (A) (A) (A) (A) (A) (A)
                 (A) (A) (A) (A) (A) (A) (A) (A) (A) (A) (A) (A)
                 (A) (A) (A) (A) (A) (A) (A) (A) (A) (A) (A) (A)
                 (A) (A) (A) (A) (A) (A) (A) (A) (A) (A) (A) (A)
                 (A) (A) (A) (A) (A) (A) (A) (A) (A) (A) (A) (A)
                 (A) (A) (A) (A) (A) (A) (A) (A) (A) (A) (A) (A)
                 (A) (A) (A) (A)
 The electronic state is 2-A.
 Alpha  occ. eigenvalues --  -38.46141 -38.45770 -38.45770 -38.44834 -38.44751
 Alpha  occ. eigenvalues --  -38.44722 -38.44606  -2.21772  -2.21556  -2.21554
 Alpha  occ. eigenvalues --   -2.20562  -2.20555  -2.20410  -2.20400  -1.15492
 Alpha  occ. eigenvalues --   -1.15492  -1.15476  -1.15168  -1.15167  -1.15167
 Alpha  occ. eigenvalues --   -1.15167  -1.15167  -1.15167  -1.14315  -1.14245
 Alpha  occ. eigenvalues --   -1.14241  -1.14210  -1.14205  -1.14150  -1.14096
 Alpha  occ. eigenvalues --   -1.14096  -1.14069  -1.14051  -1.14043  -1.14008
 Alpha  occ. eigenvalues --   -0.14473  -0.12822  -0.12777  -0.11667
 Alpha virt. eigenvalues --   -0.08159  -0.06488  -0.04805  -0.03125  -0.02623
 Alpha virt. eigenvalues --   -0.02356  -0.02178  -0.02178  -0.02054  -0.02004
 Alpha virt. eigenvalues --   -0.02004  -0.01708  -0.01657  -0.01081  -0.00820
 Alpha virt. eigenvalues --   -0.00686  -0.00306   0.00041   0.00435   0.00564
 Alpha virt. eigenvalues --    0.00614   0.00636   0.00721   0.00990   0.01088
 Alpha virt. eigenvalues --    0.01252   0.01273   0.01273   0.01422   0.01574
 Alpha virt. eigenvalues --    0.01579   0.01579   0.01640   0.01753   0.01834
 Alpha virt. eigenvalues --    0.01938   0.01944   0.01998   0.02073   0.02428
 Alpha virt. eigenvalues --    0.02651   0.02713   0.02827   0.02966   0.03187
 Alpha virt. eigenvalues --    0.03305   0.03555   0.03564   0.03957   0.04204
 Alpha virt. eigenvalues --    0.04732   0.05543   0.07059   0.07191   0.07316
 Alpha virt. eigenvalues --    0.07316   0.07336   0.07586   0.07586   0.07763
 Alpha virt. eigenvalues --    0.07763   0.08153   0.08202   0.08211   0.08367
 Alpha virt. eigenvalues --    0.08522   0.08597   0.08822   0.09288   0.09401
 Alpha virt. eigenvalues --    0.09510   0.09572   0.10072   0.10289   0.10915
 Alpha virt. eigenvalues --    0.12017   0.12817   0.13171   0.14054   0.16526
 Alpha virt. eigenvalues --    0.28848   0.29148   0.29963   0.30621   0.32362
 Alpha virt. eigenvalues --    0.33081   0.33226   0.33226   0.33226   0.33226
 Alpha virt. eigenvalues --    0.33229   0.33229   0.33232   0.33232   0.33233
 Alpha virt. eigenvalues --    0.33254   0.33303   0.34613   0.34698   0.34789
 Alpha virt. eigenvalues --    0.34976   0.35018   0.35457   0.35833   0.35915
 Alpha virt. eigenvalues --    0.36407   0.37587   0.38686   0.38840   0.40989
 Alpha virt. eigenvalues --    0.41814   0.41814   0.41941   0.42126   0.42165
 Alpha virt. eigenvalues --    0.42165   0.42316   0.42411   0.42468   0.43211
 Alpha virt. eigenvalues --    0.43400   0.44142   0.44222   0.44371   0.45026
 Alpha virt. eigenvalues --    0.45204   0.45450   0.45666   0.46781   0.48865
 Alpha virt. eigenvalues --    0.49267   0.50242   0.51054   0.51953   0.53022
 Alpha virt. eigenvalues --    0.73266   1.98644   1.99442   2.00327   2.03231
 Alpha virt. eigenvalues --    2.06445   2.08384   2.15224   4.41787   4.42605
 Alpha virt. eigenvalues --    4.42714   4.42714   4.42766   4.42846   4.42982
 Alpha virt. eigenvalues --    4.42982   4.43178   4.43270   4.43699   4.44212
 Alpha virt. eigenvalues --    4.44262   4.44606   4.44693   4.45063   4.45479
 Alpha virt. eigenvalues --    4.46145   4.47173   4.49677   4.66868  96.17671
 Alpha virt. eigenvalues --   96.18603  96.19090  96.22553  96.26512  96.28651
 Alpha virt. eigenvalues --   96.38273
  Beta  occ. eigenvalues --  -38.46308 -38.45584 -38.45584 -38.44797 -38.44780
  Beta  occ. eigenvalues --  -38.44728 -38.44632  -2.22082  -2.21210  -2.21208
  Beta  occ. eigenvalues --   -2.20511  -2.20509  -2.20491  -2.20459  -1.15702
  Beta  occ. eigenvalues --   -1.15701  -1.15686  -1.14933  -1.14933  -1.14933
  Beta  occ. eigenvalues --   -1.14933  -1.14933  -1.14933  -1.14320  -1.14196
  Beta  occ. eigenvalues --   -1.14192  -1.14178  -1.14172  -1.14171  -1.14171
  Beta  occ. eigenvalues --   -1.14121  -1.14106  -1.14102  -1.14079  -1.14020
  Beta  occ. eigenvalues --   -0.14635  -0.13168  -0.11805
  Beta virt. eigenvalues --   -0.06823  -0.06334  -0.06254  -0.05169  -0.03235
  Beta virt. eigenvalues --   -0.02906  -0.02442  -0.02204  -0.01987  -0.01425
  Beta virt. eigenvalues --   -0.01227  -0.00425  -0.00410  -0.00301  -0.00300
  Beta virt. eigenvalues --    0.00065   0.00065   0.00250   0.00264   0.00544
  Beta virt. eigenvalues --    0.00616   0.00753   0.00758   0.00941   0.01009
  Beta virt. eigenvalues --    0.01143   0.01337   0.01363   0.01551   0.01624
  Beta virt. eigenvalues --    0.01787   0.01838   0.01858   0.01894   0.02127
  Beta virt. eigenvalues --    0.02128   0.02304   0.02342   0.02342   0.02494
  Beta virt. eigenvalues --    0.02587   0.02679   0.02722   0.02791   0.02949
  Beta virt. eigenvalues --    0.03057   0.03276   0.03466   0.03478   0.03878
  Beta virt. eigenvalues --    0.04207   0.04723   0.05331   0.07118   0.07148
  Beta virt. eigenvalues --    0.07404   0.07546   0.07745   0.08051   0.08190
  Beta virt. eigenvalues --    0.08251   0.08397   0.08677   0.08825   0.08825
  Beta virt. eigenvalues --    0.08921   0.09179   0.09251   0.09276   0.09277
  Beta virt. eigenvalues --    0.09541   0.09608   0.10033   0.10213   0.10774
  Beta virt. eigenvalues --    0.10793   0.11866   0.12546   0.13235   0.14010
  Beta virt. eigenvalues --    0.16419   0.28819   0.29079   0.29882   0.30555
  Beta virt. eigenvalues --    0.32049   0.32972   0.33043   0.33085   0.33105
  Beta virt. eigenvalues --    0.33492   0.33578   0.34683   0.35011   0.35325
  Beta virt. eigenvalues --    0.35325   0.35325   0.35325   0.35327   0.35327
  Beta virt. eigenvalues --    0.35330   0.35330   0.35330   0.35342   0.35393
  Beta virt. eigenvalues --    0.35917   0.36494   0.36940   0.38634   0.38700
  Beta virt. eigenvalues --    0.40951   0.41773   0.41846   0.41927   0.43022
  Beta virt. eigenvalues --    0.43234   0.43234   0.43266   0.43549   0.43593
  Beta virt. eigenvalues --    0.43593   0.43727   0.43964   0.44061   0.44171
  Beta virt. eigenvalues --    0.44929   0.45243   0.45382   0.45686   0.46804
  Beta virt. eigenvalues --    0.48841   0.49259   0.50210   0.51099   0.51975
  Beta virt. eigenvalues --    0.53077   0.73275   1.99515   2.00065   2.00310
  Beta virt. eigenvalues --    2.02691   2.06401   2.08437   2.15197   4.41751
  Beta virt. eigenvalues --    4.42397   4.42541   4.43030   4.43030   4.43163
  Beta virt. eigenvalues --    4.43214   4.43298   4.43298   4.43494   4.43684
  Beta virt. eigenvalues --    4.44140   4.44184   4.44570   4.44738   4.44935
  Beta virt. eigenvalues --    4.45507   4.46145   4.47143   4.49695   4.66859
  Beta virt. eigenvalues --   96.17940  96.18872  96.19014  96.22372  96.26494
  Beta virt. eigenvalues --   96.28664  96.38263
          Condensed to atoms (all electrons):
               1          2          3          4          5          6
     1  Na  10.692963   0.000000   0.285117  -0.040190  -0.017793  -0.003642
     2  Na   0.000000  11.004347   0.000000   0.000000   0.000000   0.000000
     3  Na   0.285117   0.000000  10.964156  -0.052283  -0.009265  -0.018290
     4  Na  -0.040190   0.000000  -0.052283  10.630712   0.180277  -0.073313
     5  Na  -0.017793   0.000000  -0.009265   0.180277  11.034551   0.099811
     6  Na  -0.003642   0.000000  -0.018290  -0.073313   0.099811  10.976760
     7  Na   0.000000  -0.004347   0.000000   0.000000   0.000000   0.000000
               7
     1  Na   0.000000
     2  Na  -0.004347
     3  Na   0.000000
     4  Na   0.000000
     5  Na   0.000000
     6  Na   0.000000
     7  Na  11.004347
          Atomic-Atomic Spin Densities.
               1          2          3          4          5          6
     1  Na  -0.262820   0.000000  -0.032414   0.012944  -0.006150   0.001292
     2  Na   0.000000   1.003954   0.000000   0.000000   0.000000   0.000000
     3  Na  -0.032414   0.000000   0.232187   0.019313  -0.055414  -0.000676
     4  Na   0.012944   0.000000   0.019313  -0.169628  -0.023511   0.039920
     5  Na  -0.006150   0.000000  -0.055414  -0.023511   0.232425  -0.027000
     6  Na   0.001292   0.000000  -0.000676   0.039920  -0.027000  -0.888771
     7  Na   0.000000  -0.003954   0.000000   0.000000   0.000000   0.000000
               7
     1  Na   0.000000
     2  Na  -0.003954
     3  Na   0.000000
     4  Na   0.000000
     5  Na   0.000000
     6  Na   0.000000
     7  Na   1.003954
 Mulliken charges and spin densities:
               1          2
     1  Na   0.083545  -0.287148
     2  Na  -0.000000   1.000000
     3  Na  -0.169435   0.162995
     4  Na   0.354797  -0.120963
     5  Na  -0.287581   0.120350
     6  Na   0.018674  -0.875235
     7  Na   0.000000   1.000000
 Sum of Mulliken charges =  -0.00000   1.00000
 Mulliken charges and spin densities with hydrogens summed into heavy atoms:
               1          2
     1  Na   0.083545  -0.287148
     2  Na  -0.000000   1.000000
     3  Na  -0.169435   0.162995
     4  Na   0.354797  -0.120963
     5  Na  -0.287581   0.120350
     6  Na   0.018674  -0.875235
     7  Na   0.000000   1.000000
 Electronic spatial extent (au):  <R**2>=         533146.3603
 Charge=             -0.0000 electrons
 Dipole moment (field-independent basis, Debye):
    X=             -0.0350    Y=              1.3416    Z=              0.1019  Tot=              1.3459
 Quadrupole moment (field-independent basis, Debye-Ang):
   XX=            -73.9349   YY=            -60.2117   ZZ=            -74.3582
   XY=            -39.5002   XZ=              0.0502   YZ=             -4.4416
 Traceless Quadrupole moment (field-independent basis, Debye-Ang):
   XX=             -4.4333   YY=              9.2899   ZZ=             -4.8566
   XY=            -39.5002   XZ=              0.0502   YZ=             -4.4416
 Octapole moment (field-independent basis, Debye-Ang**2):
  XXX=           -416.0396  YYY=            -15.5398  ZZZ=             13.1844  XYY=           -584.1198
  XXY=           1164.7813  XXZ=            -76.3518  XZZ=           -148.7438  YZZ=              1.9776
  YYZ=            -18.7281  XYZ=            121.6586
 Hexadecapole moment (field-independent basis, Debye-Ang**3):
 XXXX=        -899246.8787 YYYY=          -7981.9074 ZZZZ=           -698.9445 XXXY=         -34400.5412
 XXXZ=           4080.4034 YYYX=            462.9739 YYYZ=            -31.8982 ZZZX=           -330.7346
 ZZZY=            -44.3777 XXYY=        -137911.7108 XXZZ=        -149587.1799 YYZZ=          -1707.8534
 XXYZ=          -3345.2207 YYXZ=            571.2071 ZZXY=            -75.3207
 N-N= 1.292917197012D+02 E-N=-2.986880635916D+03  KE= 1.132774131182D+03
                          Isotropic Fermi Contact Couplings
        Atom                 a.u.       MegaHertz       Gauss      10(-4) cm-1
     1  Na(23)            -0.25292    -299.21080    -106.76585     -99.80598
     2  Na(23)             0.79351     938.74080     334.96606     313.13023
     3  Na(23)             0.17296     204.61900      73.01315      68.25355
     4  Na(23)            -0.13199    -156.15086     -55.71851     -52.08632
     5  Na(23)             0.13186     155.99964      55.66455      52.03588
     6  Na(23)            -0.70863    -838.33345    -299.13822    -279.63794
     7  Na(23)             0.79351     938.74080     334.96606     313.13023
 --------------------------------------------------------
       Center         ----  Spin Dipole Couplings  ----
                      3XX-RR        3YY-RR        3ZZ-RR
 --------------------------------------------------------
     1   Atom       -0.001949      0.004164     -0.002215
     2   Atom       -0.000156      0.000319     -0.000163
     3   Atom        0.004375     -0.008826      0.004451
     4   Atom       -0.006313      0.012492     -0.006179
     5   Atom        0.009570     -0.018797      0.009226
     6   Atom       -0.000182      0.000426     -0.000245
     7   Atom       -0.000156      0.000319     -0.000163
 --------------------------------------------------------
                        XY            XZ            YZ
 --------------------------------------------------------
     1   Atom        0.001309      0.000046      0.000329
     2   Atom       -0.000062      0.000003     -0.000025
     3   Atom       -0.005297     -0.001847     -0.004875
     4   Atom        0.003620      0.001316      0.004193
     5   Atom        0.010771     -0.003998      0.012678
     6   Atom       -0.000566      0.000302     -0.000485
     7   Atom       -0.000062      0.000003     -0.000025
 --------------------------------------------------------


 ---------------------------------------------------------------------------------
              Anisotropic Spin Dipole Couplings in Principal Axis System
 ---------------------------------------------------------------------------------

       Atom             a.u.   MegaHertz   Gauss  10(-4) cm-1        Axes

              Baa    -0.0022    -0.317    -0.113    -0.106  0.5673 -0.1573  0.8084
     1 Na(23) Bbb    -0.0022    -0.311    -0.111    -0.104  0.7988 -0.1339 -0.5866
              Bcc     0.0044     0.628     0.224     0.210  0.2005  0.9784  0.0497
 
              Baa    -0.0002    -0.023    -0.008    -0.008  0.9911  0.1294  0.0313
     2 Na(23) Bbb    -0.0002    -0.023    -0.008    -0.008 -0.0377  0.0473  0.9982
              Bcc     0.0003     0.046     0.017     0.015 -0.1277  0.9905 -0.0518
 
              Baa    -0.0123    -1.738    -0.620    -0.580  0.3187  0.9002  0.2969
     3 Na(23) Bbb     0.0060     0.849     0.303     0.283  0.3477 -0.4024  0.8469
              Bcc     0.0063     0.890     0.317     0.297  0.8818 -0.1666 -0.4412
 
              Baa    -0.0076    -1.069    -0.382    -0.357 -0.6780 -0.0312  0.7344
     4 Na(23) Bbb    -0.0065    -0.922    -0.329    -0.308  0.7117 -0.2776  0.6452
              Bcc     0.0141     1.992     0.711     0.664  0.1838  0.9602  0.2104
 
              Baa    -0.0273    -3.850    -1.374    -1.284 -0.2977  0.8912 -0.3422
     5 Na(23) Bbb     0.0131     1.855     0.662     0.619  0.9456  0.2260 -0.2341
              Bcc     0.0141     1.995     0.712     0.666  0.1312  0.3933  0.9100
 
              Baa    -0.0005    -0.074    -0.026    -0.025  0.8733  0.3445 -0.3445
     6 Na(23) Bbb    -0.0005    -0.070    -0.025    -0.023  0.1275  0.5209  0.8440
              Bcc     0.0010     0.144     0.052     0.048 -0.4702  0.7810 -0.4110
 
              Baa    -0.0002    -0.023    -0.008    -0.008  0.9912  0.1294  0.0289
     7 Na(23) Bbb    -0.0002    -0.023    -0.008    -0.008 -0.0353  0.0476  0.9982
              Bcc     0.0003     0.046     0.017     0.015 -0.1278  0.9905 -0.0518
 

 ---------------------------------------------------------------------------------

 No NMR shielding tensors so no spin-rotation constants.
 Leave Link  601 at Thu Nov 23 12:42:38 2023, MaxMem=   104857600 cpu:              17.0 elap:               8.5
 (Enter /home/sekinelabo/g16/l701.exe)
 ... and contract with generalized density number  0.
 Compute integral first derivatives.
 Leave Link  701 at Thu Nov 23 12:42:42 2023, MaxMem=   104857600 cpu:               6.8 elap:               3.5
 (Enter /home/sekinelabo/g16/l702.exe)
 L702 exits ... SP integral derivatives will be done elsewhere.
 Leave Link  702 at Thu Nov 23 12:42:42 2023, MaxMem=   104857600 cpu:               0.6 elap:               0.3
 (Enter /home/sekinelabo/g16/l703.exe)
 Integral derivatives from FoFJK, PRISM(SPDF).
 Compute integral first derivatives, UseDBF=F ICtDFT=           0.
 Calling FoFJK, ICntrl=      2127 FMM=F ISym2X=0 I1Cent= 0 IOpClX= 1 NMat=1 NMatS=1 NMatT=0.
 FoFJK:  IHMeth= 1 ICntrl=    2127 DoSepK=F KAlg= 0 I1Cent=           0 FoldK=F
 IRaf=         0 NMat=       1 IRICut=       1 DoRegI=T DoRafI=F ISym2E= 0 IDoP0=0 IntGTp=1.
 FoFCou: FMM=F IPFlag=           0 FMFlag=      100000 FMFlg1=         800
         NFxFlg=           0 DoJE=F BraDBF=F KetDBF=F FulRan=T
         wScrn=  0.000000 ICntrl=      2127 IOpCl=  1 I1Cent=           0 NGrid=           0
         NMat0=    1 NMatS0=      1 NMatT0=    0 NMatD0=    1 NMtDS0=    0 NMtDT0=    0
 Symmetry not used in FoFCou.
 Leave Link  703 at Thu Nov 23 12:42:51 2023, MaxMem=   104857600 cpu:              22.2 elap:               8.6
 (Enter /home/sekinelabo/g16/l716.exe)
 Dipole        =-1.37693183D-02 5.27817798D-01 4.00956618D-02
 ***** Axes restored to original set *****
 -------------------------------------------------------------------
 Center     Atomic                   Forces (Hartrees/Bohr)
 Number     Number              X              Y              Z
 -------------------------------------------------------------------
      1       11          -0.006653803    0.001705174    0.001167323
      2       11           0.000002894   -0.000000892    0.000000434
      3       11           0.004730260   -0.002590990   -0.000153922
      4       11           0.004461779   -0.001461389   -0.000116736
      5       11          -0.003901619    0.003514597   -0.001963587
      6       11           0.001363383   -0.001167392    0.001066921
      7       11          -0.000002894    0.000000892   -0.000000434
 -------------------------------------------------------------------
 Cartesian Forces:  Max     0.006653803 RMS     0.002540182
 Z-matrix is all fixed cartesians, so copy forces.
 Force constants in Cartesian coordinates: 
                1             2             3             4             5 
      1  0.955479D-02
      2 -0.192457D-02  0.386944D-02
      3 -0.189732D-02 -0.139533D-02  0.137764D-02
      4  0.000000D+00  0.000000D+00  0.000000D+00  0.100000D+01
      5  0.000000D+00  0.000000D+00  0.000000D+00  0.000000D+00  0.100000D+01
      6  0.000000D+00  0.000000D+00  0.000000D+00  0.000000D+00  0.000000D+00
      7 -0.915824D-02  0.438942D-02  0.478010D-03  0.000000D+00  0.000000D+00
      8  0.145619D-02 -0.675083D-02  0.302630D-02  0.000000D+00  0.000000D+00
      9  0.201020D-02  0.212788D-02 -0.182859D-02  0.000000D+00  0.000000D+00
     10 -0.400286D-03 -0.247122D-02  0.140710D-02  0.000000D+00  0.000000D+00
     11  0.458464D-03  0.286447D-02 -0.166337D-02  0.000000D+00  0.000000D+00
     12 -0.128748D-03 -0.759617D-03  0.399088D-03  0.000000D+00  0.000000D+00
     13  0.373343D-05  0.637085D-05  0.122037D-04  0.000000D+00  0.000000D+00
     14  0.991459D-05  0.169186D-04  0.324084D-04  0.000000D+00  0.000000D+00
     15  0.158659D-04  0.270741D-04  0.518618D-04  0.000000D+00  0.000000D+00
     16  0.000000D+00  0.000000D+00  0.000000D+00  0.000000D+00  0.000000D+00
     17  0.000000D+00  0.000000D+00  0.000000D+00  0.000000D+00  0.000000D+00
     18  0.000000D+00  0.000000D+00  0.000000D+00  0.000000D+00  0.000000D+00
     19  0.000000D+00  0.000000D+00  0.000000D+00  0.000000D+00  0.000000D+00
     20  0.000000D+00  0.000000D+00  0.000000D+00  0.000000D+00  0.000000D+00
     21  0.000000D+00  0.000000D+00  0.000000D+00  0.000000D+00  0.000000D+00
                6             7             8             9            10 
      6  0.100000D+01
      7  0.000000D+00  0.188565D-01
      8  0.000000D+00 -0.402413D-02  0.173489D-01
      9  0.000000D+00 -0.325673D-02 -0.812872D-02  0.554574D-02
     10  0.000000D+00 -0.743387D-02  0.206603D-03  0.221470D-02  0.337390D-01
     11  0.000000D+00  0.221699D-02 -0.132677D-01  0.712894D-02 -0.156033D-01
     12  0.000000D+00  0.667419D-03  0.738353D-02 -0.453786D-02  0.145406D-02
     13  0.000000D+00 -0.226434D-02  0.236134D-02 -0.968168D-03 -0.259049D-01
     14  0.000000D+00 -0.258228D-02  0.266968D-02 -0.112809D-02  0.178679D-01
     15  0.000000D+00  0.211130D-02 -0.228110D-02  0.820711D-03 -0.507586D-02
     16  0.000000D+00  0.000000D+00  0.000000D+00  0.000000D+00  0.000000D+00
     17  0.000000D+00  0.000000D+00  0.000000D+00  0.000000D+00  0.000000D+00
     18  0.000000D+00  0.000000D+00  0.000000D+00  0.000000D+00  0.000000D+00
     19  0.000000D+00  0.000000D+00  0.000000D+00  0.000000D+00  0.000000D+00
     20  0.000000D+00  0.000000D+00  0.000000D+00  0.000000D+00  0.000000D+00
     21  0.000000D+00  0.000000D+00  0.000000D+00  0.000000D+00  0.000000D+00
               11            12            13            14            15 
     11  0.291997D-01
     12 -0.141392D-01  0.840630D-02
     13  0.129279D-01 -0.199273D-02  0.281655D-01
     14 -0.187965D-01  0.751524D-02 -0.152956D-01  0.161099D-01
     15  0.867359D-02 -0.426753D-02  0.294870D-02 -0.641956D-02  0.339496D-02
     16  0.000000D+00  0.000000D+00  0.000000D+00  0.000000D+00  0.000000D+00
     17  0.000000D+00  0.000000D+00  0.000000D+00  0.000000D+00  0.000000D+00
     18  0.000000D+00  0.000000D+00  0.000000D+00  0.000000D+00  0.000000D+00
     19  0.000000D+00  0.000000D+00  0.000000D+00  0.000000D+00  0.000000D+00
     20  0.000000D+00  0.000000D+00  0.000000D+00  0.000000D+00  0.000000D+00
     21  0.000000D+00  0.000000D+00  0.000000D+00  0.000000D+00  0.000000D+00
               16            17            18            19            20 
     16  0.100000D+01
     17  0.000000D+00  0.100000D+01
     18  0.000000D+00  0.000000D+00  0.100000D+01
     19  0.000000D+00  0.000000D+00  0.000000D+00  0.100000D+01
     20  0.000000D+00  0.000000D+00  0.000000D+00  0.000000D+00  0.100000D+01
     21  0.000000D+00  0.000000D+00  0.000000D+00  0.000000D+00  0.000000D+00
               21 
     21  0.100000D+01
 Leave Link  716 at Thu Nov 23 12:42:51 2023, MaxMem=   104857600 cpu:               0.7 elap:               0.3
 (Enter /home/sekinelabo/g16/l103.exe)

 GradGradGradGradGradGradGradGradGradGradGradGradGradGradGradGradGradGrad
 Berny optimization.
 Search for a local minimum.
 Step number   1 out of a maximum of    2
 All quantities printed in internal units (Hartrees-Bohrs-Radians)
 Second derivative matrix not updated -- first step.
 ITU=  0
     Eigenvalues ---    0.00018   0.00032   0.00261   0.00770   0.01215
     Eigenvalues ---    0.02814   0.04056   0.08669   0.28370   0.57143
     Eigenvalues ---    0.79435   0.91048   1.00000   1.00000   1.00000
 Quadratic step=1.802D+00 exceeds max=3.000D-01 adjusted using Lamda=-1.311D-02.
 Angle between NR and scaled steps=  63.85 degrees.
 Angle between quadratic step and forces=  29.42 degrees.
 Linear search not attempted -- first point.
 B after Tr=    -0.000000    0.000000    0.000000
         Rot=    1.000000   -0.000000    0.000000   -0.000000 Ang=   0.00 deg.
 Variable       Old X    -DE/DX   Delta X   Delta X   Delta X     New X
                                 (Linear)    (Quad)   (Total)
    X1       23.91127  -0.00665   0.00000  -0.21992  -0.21992  23.69135
    Y1        1.89245   0.00171   0.00000   0.04707   0.04707   1.93951
    Z1        2.25108   0.00117   0.00000   0.07089   0.07089   2.32196
    X2       20.71839   0.00000   0.00000   0.00193   0.00193  20.72032
    Y2        5.76242  -0.00000   0.00000   0.00024   0.00024   5.76266
    Z2      188.41042   0.00000   0.00000   0.00019   0.00019 188.41061
    X3       16.67564   0.00473   0.00000   0.10976   0.10976  16.78540
    Y3        3.76751  -0.00259   0.00000  -0.07164  -0.07164   3.69587
    Z3        3.48579  -0.00015   0.00000   0.01359   0.01359   3.49938
    X4       11.36415   0.00446   0.00000   0.09855   0.09855  11.46270
    Y4        0.12094  -0.00146   0.00000  -0.01004  -0.01004   0.11091
    Z4        7.01438  -0.00012   0.00000  -0.00945  -0.00945   7.00493
    X5        6.86279  -0.00390   0.00000   0.00667   0.00667   6.86946
    Y5        3.30653   0.00351   0.00000   0.03702   0.03702   3.34355
    Z5        6.08293  -0.00196   0.00000  -0.07701  -0.07701   6.00592
    X6        0.80518   0.00136   0.00000   0.00136   0.00136   0.80654
    Y6        8.26424  -0.00117   0.00000  -0.00208  -0.00208   8.26216
    Z6        1.70942   0.00107   0.00000   0.00144   0.00144   1.71086
    X7        3.39440  -0.00000   0.00000   0.00165   0.00165   3.39605
    Y7       11.18727   0.00000   0.00000  -0.00057  -0.00057  11.18670
    Z7      185.93752  -0.00000   0.00000   0.00035   0.00035 185.93788
         Item               Value     Threshold  Converged?
 Maximum Force            0.006654     0.000450     NO 
 RMS     Force            0.002540     0.000300     NO 
 Maximum Displacement     0.219920     0.001800     NO 
 RMS     Displacement     0.065550     0.001200     NO 
 Predicted change in Energy=-2.114259D-03
 GradGradGradGradGradGradGradGradGradGradGradGradGradGradGradGradGradGrad

 Leave Link  103 at Thu Nov 23 12:42:53 2023, MaxMem=   104857600 cpu:               4.1 elap:               1.6
 (Enter /home/sekinelabo/g16/l9999.exe)
 1\1\GINC-SEKINELABO-XA7R-R37\Force\UB3LYP\6-311+G(d)\Na7(2)\SEKINELABO
 \23-Nov-2023\0\\#P B3LYP/6-311+g(d) force\\DPGEN\\0,2\Na,12.6533,1.001
 44,1.19122\Na,10.9637,3.04934,99.7025\Na,8.82437,1.99368,1.8446\Na,6.0
 1365,0.064,3.71185\Na,3.63163,1.74974,3.21895\Na,0.426083,4.37325,0.90
 4588\Na,1.79624,5.92005,98.3939\\Version=ES64L-G16RevB.01\State=2-A\HF
 =-1136.0597262\S2=1.848691\S2-1=0.\S2A=1.079489\RMSD=5.754e-09\RMSF=2.
 540e-03\Dipole=-0.5209062,0.0937837,-0.015819\Quadrupole=4.6803296,-1.
 7326408,-2.9476888,-4.6906112,28.5395821,-7.4731918\PG=C01 [X(Na7)]\\@


 IT IS BY LOGIC THAT WE PROVE, BUT BY INTUITION THAT WE DISCOVER.
     -- J.H.POINCARE (1854-1912)
 Job cpu time:       0 days  0 hours 12 minutes 22.9 seconds.
 Elapsed time:       0 days  0 hours 12 minutes 32.2 seconds.
 File lengths (MBytes):  RWF=     46 Int=      0 D2E=      0 Chk=      4 Scr=      1
 Normal termination of Gaussian 16 at Thu Nov 23 12:42:53 2023.
