 Entering Gaussian System, Link 0=g16
 Initial command:
 /home/sekinelabo/g16/l1.exe "/home/sekinelabo/g16temp/Gau-1046174.inp" -scrdir="/home/sekinelabo/g16temp/"
 Entering Link 1 = /home/sekinelabo/g16/l1.exe PID=   1046220.
  
 Copyright (c) 1988-2017, Gaussian, Inc.  All Rights Reserved.
  
 This is part of the Gaussian(R) 16 program.  It is based on
 the Gaussian(R) 09 system (copyright 2009, Gaussian, Inc.),
 the Gaussian(R) 03 system (copyright 2003, Gaussian, Inc.),
 the Gaussian(R) 98 system (copyright 1998, Gaussian, Inc.),
 the Gaussian(R) 94 system (copyright 1995, Gaussian, Inc.),
 the Gaussian 92(TM) system (copyright 1992, Gaussian, Inc.),
 the Gaussian 90(TM) system (copyright 1990, Gaussian, Inc.),
 the Gaussian 88(TM) system (copyright 1988, Gaussian, Inc.),
 the Gaussian 86(TM) system (copyright 1986, Carnegie Mellon
 University), and the Gaussian 82(TM) system (copyright 1983,
 Carnegie Mellon University). Gaussian is a federally registered
 trademark of Gaussian, Inc.
  
 This software contains proprietary and confidential information,
 including trade secrets, belonging to Gaussian, Inc.
  
 This software is provided under written license and may be
 used, copied, transmitted, or stored only in accord with that
 written license.
  
 The following legend is applicable only to US Government
 contracts under FAR:
  
                    RESTRICTED RIGHTS LEGEND
  
 Use, reproduction and disclosure by the US Government is
 subject to restrictions as set forth in subparagraphs (a)
 and (c) of the Commercial Computer Software - Restricted
 Rights clause in FAR 52.227-19.
  
 Gaussian, Inc.
 340 Quinnipiac St., Bldg. 40, Wallingford CT 06492
  
  
 ---------------------------------------------------------------
 Warning -- This program may not be used in any manner that
 competes with the business of Gaussian, Inc. or will provide
 assistance to any competitor of Gaussian, Inc.  The licensee
 of this program is prohibited from giving any competitor of
 Gaussian, Inc. access to this program.  By using this program,
 the user acknowledges that Gaussian, Inc. is engaged in the
 business of creating and licensing software in the field of
 computational chemistry and represents and warrants to the
 licensee that it is not a competitor of Gaussian, Inc. and that
 it will not use this program in any manner prohibited above.
 ---------------------------------------------------------------
  

 Cite this work as:
 Gaussian 16, Revision B.01,
 M. J. Frisch, G. W. Trucks, H. B. Schlegel, G. E. Scuseria, 
 M. A. Robb, J. R. Cheeseman, G. Scalmani, V. Barone, 
 G. A. Petersson, H. Nakatsuji, X. Li, M. Caricato, A. V. Marenich, 
 J. Bloino, B. G. Janesko, R. Gomperts, B. Mennucci, H. P. Hratchian, 
 J. V. Ortiz, A. F. Izmaylov, J. L. Sonnenberg, D. Williams-Young, 
 F. Ding, F. Lipparini, F. Egidi, J. Goings, B. Peng, A. Petrone, 
 T. Henderson, D. Ranasinghe, V. G. Zakrzewski, J. Gao, N. Rega, 
 G. Zheng, W. Liang, M. Hada, M. Ehara, K. Toyota, R. Fukuda, 
 J. Hasegawa, M. Ishida, T. Nakajima, Y. Honda, O. Kitao, H. Nakai, 
 T. Vreven, K. Throssell, J. A. Montgomery, Jr., J. E. Peralta, 
 F. Ogliaro, M. J. Bearpark, J. J. Heyd, E. N. Brothers, K. N. Kudin, 
 V. N. Staroverov, T. A. Keith, R. Kobayashi, J. Normand, 
 K. Raghavachari, A. P. Rendell, J. C. Burant, S. S. Iyengar, 
 J. Tomasi, M. Cossi, J. M. Millam, M. Klene, C. Adamo, R. Cammi, 
 J. W. Ochterski, R. L. Martin, K. Morokuma, O. Farkas, 
 J. B. Foresman, and D. J. Fox, Gaussian, Inc., Wallingford CT, 2016.
 
 ******************************************
 Gaussian 16:  ES64L-G16RevB.01 20-Dec-2017
                23-Nov-2023 
 ******************************************
 %nprocshared=14
 Will use up to   14 processors via shared memory.
 -------------------------
 #P B3LYP/6-311+g(d) force
 -------------------------
 1/10=7,30=1,38=1/1,3;
 2/12=2,17=6,18=5,40=1/2;
 3/5=4,6=6,7=11,11=2,25=1,30=1,71=1,74=-5/1,2,3;
 4//1;
 5/5=2,38=5/2;
 6/7=2,8=2,9=2,10=2,28=1/1;
 7/29=1/1,2,3,16;
 1/10=7,30=1/3;
 99//99;
 Leave Link    1 at Thu Nov 23 12:30:20 2023, MaxMem=           0 cpu:               0.4 elap:               0.3
 (Enter /home/sekinelabo/g16/l101.exe)
 -----
 DPGEN
 -----
 Symbolic Z-matrix:
 Charge =  0 Multiplicity = 2
 Na                    12.3402   0.80009   0.61884 
 Na                    10.3408   3.52421   99.7725 
 Na                    9.35167   1.78352   2.26361 
 Na                    5.84435   0.41925   4.25681 
 Na                    3.21847   1.30349   3.60405 
 Na                    1.32821   4.42717   0.63657 
 Na                    1.88527   5.89423   97.8153 
 
 ITRead=  0  0  0  0  0  0  0
 MicOpt= -1 -1 -1 -1 -1 -1 -1
 NAtoms=      7 NQM=        7 NQMF=       0 NMMI=      0 NMMIF=      0
                NMic=       0 NMicF=      0.
                    Isotopes and Nuclear Properties:
 (Nuclear quadrupole moments (NQMom) in fm**2, nuclear magnetic moments (NMagM)
  in nuclear magnetons)

  Atom         1           2           3           4           5           6           7
 IAtWgt=          23          23          23          23          23          23          23
 AtmWgt=  22.9897697  22.9897697  22.9897697  22.9897697  22.9897697  22.9897697  22.9897697
 NucSpn=           3           3           3           3           3           3           3
 AtZEff=  -0.0000000  -0.0000000  -0.0000000  -0.0000000  -0.0000000  -0.0000000  -0.0000000
 NQMom=   10.4000000  10.4000000  10.4000000  10.4000000  10.4000000  10.4000000  10.4000000
 NMagM=    2.2175200   2.2175200   2.2175200   2.2175200   2.2175200   2.2175200   2.2175200
 AtZNuc=  11.0000000  11.0000000  11.0000000  11.0000000  11.0000000  11.0000000  11.0000000
 Leave Link  101 at Thu Nov 23 12:30:23 2023, MaxMem=   104857600 cpu:               2.5 elap:               3.0
 (Enter /home/sekinelabo/g16/l103.exe)

 GradGradGradGradGradGradGradGradGradGradGradGradGradGradGradGradGradGrad
 Berny optimization.
 Initialization pass.
 Trust Radius=3.00D-01 FncErr=1.00D-07 GrdErr=1.00D-07 EigMax=2.50D+02 EigMin=1.00D-04
 Number of steps in this run=      2 maximum allowed number of steps=      2.
 GradGradGradGradGradGradGradGradGradGradGradGradGradGradGradGradGradGrad

 Leave Link  103 at Thu Nov 23 12:30:23 2023, MaxMem=   104857600 cpu:               0.5 elap:               0.5
 (Enter /home/sekinelabo/g16/l202.exe)
                          Input orientation:                          
 ---------------------------------------------------------------------
 Center     Atomic      Atomic             Coordinates (Angstroms)
 Number     Number       Type             X           Y           Z
 ---------------------------------------------------------------------
      1         11           0       12.340200    0.800086    0.618837
      2         11           0       10.340800    3.524210   99.772500
      3         11           0        9.351670    1.783520    2.263610
      4         11           0        5.844350    0.419251    4.256810
      5         11           0        3.218470    1.303490    3.604050
      6         11           0        1.328210    4.427170    0.636573
      7         11           0        1.885270    5.894230   97.815300
 ---------------------------------------------------------------------
                    Distance matrix (angstroms):
                    1          2          3          4          5
     1  Na   0.000000
     2  Na  99.211226   0.000000
     3  Na   3.550174  97.529442   0.000000
     4  Na   7.454928  95.671866   4.258564   0.000000
     5  Na   9.610977  96.457400   6.296297   2.846616   0.000000
     6  Na  11.593963  99.548853   8.603025   7.040245   4.704931
     7  Na  97.889776   8.996867  95.931072  93.802136  94.332454
                    6          7
     6  Na   0.000000
     7  Na  97.191397   0.000000
 Stoichiometry    Na7(2)
 Framework group  C1[X(Na7)]
 Deg. of freedom    15
 Full point group                 C1      NOp   1
 Largest Abelian subgroup         C1      NOp   1
 Largest concise Abelian subgroup C1      NOp   1
                         Standard orientation:                         
 ---------------------------------------------------------------------
 Center     Atomic      Atomic             Coordinates (Angstroms)
 Number     Number       Type             X           Y           Z
 ---------------------------------------------------------------------
      1         11           0       29.293014    5.964949   -0.535307
      2         11           0      -69.903492    4.386879    0.120616
      3         11           0       27.610093    2.844753   -0.724751
      4         11           0       25.647852   -0.211873    1.498314
      5         11           0       26.265529   -2.979788    1.252675
      6         11           0       29.131850   -5.594968   -1.408419
      7         11           0      -68.044848   -4.409952   -0.203128
 ---------------------------------------------------------------------
 Rotational constants (GHZ):           0.1700680           0.0016479           0.0016337
 Leave Link  202 at Thu Nov 23 12:30:24 2023, MaxMem=   104857600 cpu:               0.9 elap:               1.0
 (Enter /home/sekinelabo/g16/l301.exe)
 Standard basis: 6-311+G(d) (5D, 7F)
 Ernie: Thresh=  0.10000D-02 Tol=  0.10000D-05 Strict=F.
 There are   217 symmetry adapted cartesian basis functions of A   symmetry.
 There are   210 symmetry adapted basis functions of A   symmetry.
   210 basis functions,   350 primitive gaussians,   217 cartesian basis functions
    39 alpha electrons       38 beta electrons
       nuclear repulsion energy       130.3924650210 Hartrees.
 IExCor=  402 DFT=T Ex+Corr=B3LYP ExCW=0 ScaHFX=  0.200000
 ScaDFX=  0.800000  0.720000  1.000000  0.810000 ScalE2=  1.000000  1.000000
 IRadAn=      5 IRanWt=     -1 IRanGd=            0 ICorTp=0 IEmpDi=  4
 NAtoms=    7 NActive=    7 NUniq=    7 SFac= 1.00D+00 NAtFMM=   60 NAOKFM=F Big=F
 Integral buffers will be    131072 words long.
 Raffenetti 2 integral format.
 Two-electron integral symmetry is turned on.
 Leave Link  301 at Thu Nov 23 12:30:25 2023, MaxMem=   104857600 cpu:               0.7 elap:               0.9
 (Enter /home/sekinelabo/g16/l302.exe)
 NPDir=0 NMtPBC=     1 NCelOv=     1 NCel=       1 NClECP=     1 NCelD=      1
         NCelK=      1 NCelE2=     1 NClLst=     1 CellRange=     0.0.
 One-electron integrals computed using PRISM.
 One-electron integral symmetry used in STVInt
 NBasis=   210 RedAO= T EigKep=  2.64D-05  NBF=   210
 NBsUse=   210 1.00D-06 EigRej= -1.00D+00 NBFU=   210
 Precomputing XC quadrature grid using
 IXCGrd= 4 IRadAn=           5 IRanWt=          -1 IRanGd=           0 AccXCQ= 0.00D+00.
 Generated NRdTot=       0 NPtTot=           0 NUsed=           0 NTot=          32
 NSgBfM=   139   139   139   139   139 MxSgAt=     7 MxSgA2=     5.
 Leave Link  302 at Thu Nov 23 12:31:02 2023, MaxMem=   104857600 cpu:              29.1 elap:              36.8
 (Enter /home/sekinelabo/g16/l303.exe)
 DipDrv:  MaxL=1.
 Leave Link  303 at Thu Nov 23 12:31:06 2023, MaxMem=   104857600 cpu:               2.5 elap:               3.2
 (Enter /home/sekinelabo/g16/l401.exe)
 ExpMin= 7.60D-03 ExpMax= 3.62D+04 ExpMxC= 1.21D+03 IAcc=3 IRadAn=         5 AccDes= 0.00D+00
 Harris functional with IExCor=  402 and IRadAn=       5 diagonalized for initial guess.
 HarFok:  IExCor=  402 AccDes= 0.00D+00 IRadAn=         5 IDoV= 1 UseB2=F ITyADJ=14
 ICtDFT=  3500011 ScaDFX=  1.000000  1.000000  1.000000  1.000000
 FoFCou: FMM=F IPFlag=           0 FMFlag=      100000 FMFlg1=           0
         NFxFlg=           0 DoJE=T BraDBF=F KetDBF=T FulRan=T
         wScrn=  0.000000 ICntrl=       500 IOpCl=  0 I1Cent=   200000004 NGrid=           0
         NMat0=    1 NMatS0=      1 NMatT0=    0 NMatD0=    1 NMtDS0=    0 NMtDT0=    0
 Petite list used in FoFCou.
 Harris En= -1135.82278910141    
 JPrj=0 DoOrth=F DoCkMO=F.
 Initial guess <Sx>= 0.0000 <Sy>= 0.0000 <Sz>= 0.5000 <S**2>= 0.7500 S= 0.5000
 Leave Link  401 at Thu Nov 23 12:31:27 2023, MaxMem=   104857600 cpu:              16.6 elap:              21.2
 (Enter /home/sekinelabo/g16/l502.exe)
 Integral symmetry usage will be decided dynamically.
 UHF open shell SCF:
 Using DIIS extrapolation, IDIIS=  1040.
 NGot=   104857600 LenX=   104758440 LenY=   104710910
 Requested convergence on RMS density matrix=1.00D-08 within 128 cycles.
 Requested convergence on MAX density matrix=1.00D-06.
 Requested convergence on             energy=1.00D-06.
 No special actions if energy rises.
 Fock matrices will be formed incrementally for  20 cycles.

 Cycle   1  Pass 1  IDiag  1:
 FoFJK:  IHMeth= 1 ICntrl=       0 DoSepK=F KAlg= 0 I1Cent=           0 FoldK=F
 IRaf= 500000000 NMat=       1 IRICut=       1 DoRegI=T DoRafI=F ISym2E= 0 IDoP0=0 IntGTp=1.
 FoFCou: FMM=F IPFlag=           0 FMFlag=      100000 FMFlg1=           0
         NFxFlg=           0 DoJE=F BraDBF=F KetDBF=F FulRan=T
         wScrn=  0.000000 ICntrl=         0 IOpCl=  1 I1Cent=           0 NGrid=           0
         NMat0=    1 NMatS0=      1 NMatT0=    0 NMatD0=    1 NMtDS0=    0 NMtDT0=    0
 Symmetry not used in FoFCou.
 E= -1135.89286005163    
 DIIS: error= 2.12D-02 at cycle   1 NSaved=   1.
 NSaved= 1 IEnMin= 1 EnMin= -1135.89286005163     IErMin= 1 ErrMin= 2.12D-02
 ErrMax= 2.12D-02  0.00D+00 EMaxC= 1.00D-01 BMatC= 1.93D-01 BMatP= 1.93D-01
 IDIUse=3 WtCom= 7.88D-01 WtEn= 2.12D-01
 Coeff-Com:  0.100D+01
 Coeff-En:   0.100D+01
 Coeff:      0.100D+01
 Gap=     0.012 Goal=   None    Shift=    0.000
 Gap=    -0.224 Goal=   None    Shift=    0.000
 GapD=   -0.224 DampG=0.250 DampE=0.500 DampFc=0.2500 IDamp=-1.
 Damping current iteration by 2.50D-01
 RMSDP=1.05D-02 MaxDP=9.65D-01              OVMax= 1.00D+00

 Cycle   2  Pass 1  IDiag  1:
 RMSU=  2.54D-03    CP:  9.67D-01
 E= -1135.88211035476     Delta-E=        0.010749696869 Rises=F Damp=T
 DIIS: error= 1.25D-02 at cycle   2 NSaved=   2.
 NSaved= 2 IEnMin= 1 EnMin= -1135.89286005163     IErMin= 2 ErrMin= 1.25D-02
 ErrMax= 1.25D-02  0.00D+00 EMaxC= 1.00D-01 BMatC= 7.47D-02 BMatP= 1.93D-01
 IDIUse=3 WtCom= 8.75D-01 WtEn= 1.25D-01
 Coeff-Com: -0.802D+00 0.180D+01
 Coeff-En:   0.522D+00 0.478D+00
 Coeff:     -0.637D+00 0.164D+01
 Gap=     0.014 Goal=   None    Shift=    0.000
 Gap=     0.018 Goal=   None    Shift=    0.000
 RMSDP=8.02D-03 MaxDP=5.19D-01 DE= 1.07D-02 OVMax= 1.00D+00

 Cycle   3  Pass 1  IDiag  1:
 RMSU=  7.71D-03    CP:  9.77D-01  1.35D-01
 E= -1135.28866281329     Delta-E=        0.593447541468 Rises=F Damp=F
 DIIS: error= 2.07D-02 at cycle   3 NSaved=   3.
 NSaved= 3 IEnMin= 1 EnMin= -1135.89286005163     IErMin= 2 ErrMin= 1.25D-02
 ErrMax= 2.07D-02  0.00D+00 EMaxC= 1.00D-01 BMatC= 1.89D-01 BMatP= 7.47D-02
 IDIUse=2 WtCom= 0.00D+00 WtEn= 1.00D+00
 Rare condition: small coef for last iteration:  0.000D+00
 Coeff-En:   0.405D+00 0.484D+00 0.111D+00
 Coeff:      0.405D+00 0.484D+00 0.111D+00
 Gap=     0.024 Goal=   None    Shift=    0.000
 Gap=     0.012 Goal=   None    Shift=    0.000
 RMSDP=1.01D-02 MaxDP=6.87D-01 DE= 5.93D-01 OVMax= 1.00D+00

 Cycle   4  Pass 1  IDiag  1:
 RMSU=  3.81D-03    CP:  9.15D-01  2.41D+00  6.52D-02
 E= -1135.47622838218     Delta-E=       -0.187565568887 Rises=F Damp=F
 DIIS: error= 1.57D-02 at cycle   4 NSaved=   4.
 NSaved= 4 IEnMin= 1 EnMin= -1135.89286005163     IErMin= 2 ErrMin= 1.25D-02
 ErrMax= 1.57D-02  0.00D+00 EMaxC= 1.00D-01 BMatC= 1.06D-01 BMatP= 7.47D-02
 IDIUse=2 WtCom= 0.00D+00 WtEn= 1.00D+00
 EnCoef did   100 forward-backward iterations
 Coeff-En:   0.683D+00 0.919D-02 0.198D-02 0.306D+00
 Coeff:      0.683D+00 0.919D-02 0.198D-02 0.306D+00
 Gap=     0.114 Goal=   None    Shift=    0.000
 Gap=    -0.003 Goal=   None    Shift=    0.000
 RMSDP=4.13D-03 MaxDP=4.41D-01 DE=-1.88D-01 OVMax= 7.51D-01

 Cycle   5  Pass 1  IDiag  1:
 RMSU=  3.10D-03    CP:  9.37D-01  1.54D+00  1.21D-01  6.10D-01
 E= -1135.88990192441     Delta-E=       -0.413673542230 Rises=F Damp=F
 DIIS: error= 6.53D-03 at cycle   5 NSaved=   5.
 NSaved= 5 IEnMin= 1 EnMin= -1135.89286005163     IErMin= 5 ErrMin= 6.53D-03
 ErrMax= 6.53D-03  0.00D+00 EMaxC= 1.00D-01 BMatC= 4.25D-02 BMatP= 7.47D-02
 IDIUse=3 WtCom= 9.35D-01 WtEn= 6.53D-02
 EnCoef did   100 forward-backward iterations
 Coeff-Com:  0.192D+00 0.131D+00 0.440D-01 0.148D-01 0.618D+00
 Coeff-En:   0.505D+00 0.239D-02 0.516D-03 0.465D-02 0.488D+00
 Coeff:      0.213D+00 0.122D+00 0.412D-01 0.141D-01 0.610D+00
 Gap=    -0.086 Goal=   None    Shift=    0.000
 Gap=     0.008 Goal=   None    Shift=    0.000
 RMSDP=8.14D-03 MaxDP=8.74D-01 DE=-4.14D-01 OVMax= 9.90D-01

 Cycle   6  Pass 1  IDiag  1:
 RMSU=  6.11D-03    CP:  9.61D-01  3.65D-01  6.19D-03 -6.07D-02 -1.32D-01
 E= -1135.51163929188     Delta-E=        0.378262632528 Rises=F Damp=F
 DIIS: error= 1.29D-02 at cycle   6 NSaved=   6.
 NSaved= 6 IEnMin= 1 EnMin= -1135.89286005163     IErMin= 5 ErrMin= 6.53D-03
 ErrMax= 1.29D-02  0.00D+00 EMaxC= 1.00D-01 BMatC= 6.05D-02 BMatP= 4.25D-02
 IDIUse=2 WtCom= 0.00D+00 WtEn= 1.00D+00
 EnCoef did   100 forward-backward iterations
 Rare condition: small coef for last iteration:  0.380D-15
 Coeff-En:   0.120D+00 0.000D+00 0.000D+00 0.000D+00 0.598D+00 0.283D+00
 Coeff:      0.120D+00 0.000D+00 0.000D+00 0.000D+00 0.598D+00 0.283D+00
 Gap=     0.021 Goal=   None    Shift=    0.000
 Gap=     0.056 Goal=   None    Shift=    0.000
 RMSDP=7.76D-03 MaxDP=7.74D-01 DE= 3.78D-01 OVMax= 1.00D+00

 Cycle   7  Pass 1  IDiag  1:
 RMSU=  2.11D-03    CP:  9.26D-01  1.73D+00  5.26D-02  6.10D-01  7.14D-01
                    CP:  1.07D-01
 E= -1135.90280965108     Delta-E=       -0.391170359202 Rises=F Damp=F
 DIIS: error= 5.89D-03 at cycle   7 NSaved=   7.
 NSaved= 7 IEnMin= 7 EnMin= -1135.90280965108     IErMin= 7 ErrMin= 5.89D-03
 ErrMax= 5.89D-03  0.00D+00 EMaxC= 1.00D-01 BMatC= 1.77D-02 BMatP= 4.25D-02
 IDIUse=3 WtCom= 9.41D-01 WtEn= 5.89D-02
 EnCoef did   100 forward-backward iterations
 Coeff-Com: -0.335D-01 0.119D+00 0.490D-01-0.161D+00 0.371D+00 0.156D+00
 Coeff-Com:  0.500D+00
 Coeff-En:   0.480D+00 0.000D+00 0.000D+00 0.000D+00 0.233D+00 0.551D-02
 Coeff-En:   0.281D+00
 Coeff:     -0.326D-02 0.112D+00 0.461D-01-0.151D+00 0.363D+00 0.147D+00
 Coeff:      0.487D+00
 Gap=    -0.028 Goal=   None    Shift=    0.000
 Gap=    -0.071 Goal=   None    Shift=    0.000
 RMSDP=5.55D-03 MaxDP=6.07D-01 DE=-3.91D-01 OVMax= 9.20D-01

 Cycle   8  Pass 1  IDiag  1:
 RMSU=  2.68D-03    CP:  9.57D-01  7.03D-01 -3.77D-02  6.42D-02  9.03D-02
                    CP:  4.61D-01  1.53D-01
 E= -1135.86844105177     Delta-E=        0.034368599311 Rises=F Damp=F
 DIIS: error= 5.13D-03 at cycle   8 NSaved=   8.
 NSaved= 8 IEnMin= 7 EnMin= -1135.90280965108     IErMin= 8 ErrMin= 5.13D-03
 ErrMax= 5.13D-03  0.00D+00 EMaxC= 1.00D-01 BMatC= 2.10D-02 BMatP= 1.77D-02
 IDIUse=3 WtCom= 9.41D-01 WtEn= 5.89D-02
 EnCoef did    42 forward-backward iterations
 Coeff-Com: -0.387D-01 0.999D-01 0.500D-01-0.134D+00 0.282D+00 0.360D-02
 Coeff-Com:  0.453D+00 0.285D+00
 Coeff-En:   0.399D-01 0.000D+00 0.000D+00 0.000D+00 0.358D-01 0.000D+00
 Coeff-En:   0.493D+00 0.431D+00
 Coeff:     -0.341D-01 0.940D-01 0.470D-01-0.126D+00 0.267D+00 0.339D-02
 Coeff:      0.456D+00 0.293D+00
 Gap=     0.021 Goal=   None    Shift=    0.000
 Gap=     0.040 Goal=   None    Shift=    0.000
 RMSDP=1.35D-03 MaxDP=1.38D-01 DE= 3.44D-02 OVMax= 1.03D-01

 Cycle   9  Pass 1  IDiag  1:
 RMSU=  9.16D-04    CP:  9.52D-01  7.36D-01  1.14D-02  1.12D-01  1.66D-01
                    CP:  3.24D-01  1.29D-01  9.26D-01
 E= -1135.88476360293     Delta-E=       -0.016322551161 Rises=F Damp=F
 DIIS: error= 3.47D-03 at cycle   9 NSaved=   9.
 NSaved= 9 IEnMin= 7 EnMin= -1135.90280965108     IErMin= 9 ErrMin= 3.47D-03
 ErrMax= 3.47D-03  0.00D+00 EMaxC= 1.00D-01 BMatC= 1.22D-02 BMatP= 1.77D-02
 IDIUse=3 WtCom= 9.65D-01 WtEn= 3.47D-02
 Coeff-Com: -0.209D+00 0.306D+00 0.403D-01-0.858D-01 0.111D+00-0.269D-01
 Coeff-Com:  0.288D+00-0.589D+00 0.117D+01
 Coeff-En:   0.000D+00 0.000D+00 0.000D+00 0.000D+00 0.000D+00 0.000D+00
 Coeff-En:   0.517D+00 0.000D+00 0.483D+00
 Coeff:     -0.202D+00 0.295D+00 0.389D-01-0.828D-01 0.107D+00-0.260D-01
 Coeff:      0.296D+00-0.569D+00 0.114D+01
 Gap=    -0.015 Goal=   None    Shift=    0.000
 Gap=     0.022 Goal=   None    Shift=    0.000
 RMSDP=5.40D-03 MaxDP=7.01D-01 DE=-1.63D-02 OVMax= 1.00D+00

 Cycle  10  Pass 1  IDiag  1:
 RMSU=  2.05D-03    CP:  9.26D-01  1.79D+00  1.10D-01  6.70D-01  5.47D-01
                    CP:  2.63D-02  6.25D-01 -2.52D-02  5.95D-01
 E= -1135.85628265680     Delta-E=        0.028480946134 Rises=F Damp=F
 DIIS: error= 6.67D-03 at cycle  10 NSaved=  10.
 NSaved=10 IEnMin= 7 EnMin= -1135.90280965108     IErMin= 9 ErrMin= 3.47D-03
 ErrMax= 6.67D-03  0.00D+00 EMaxC= 1.00D-01 BMatC= 2.20D-02 BMatP= 1.22D-02
 IDIUse=3 WtCom= 9.65D-01 WtEn= 3.47D-02
 Coeff-Com: -0.180D+00 0.267D+00 0.395D-01-0.824D-01 0.153D+00-0.258D-01
 Coeff-Com:  0.364D+00-0.626D+00 0.119D+01-0.966D-01
 Coeff-En:   0.000D+00 0.000D+00 0.000D+00 0.000D+00 0.000D+00 0.000D+00
 Coeff-En:   0.000D+00 0.000D+00 0.522D+00 0.478D+00
 Coeff:     -0.174D+00 0.258D+00 0.381D-01-0.795D-01 0.147D+00-0.249D-01
 Coeff:      0.351D+00-0.604D+00 0.116D+01-0.766D-01
 Gap=     0.009 Goal=   None    Shift=    0.000
 Gap=     0.022 Goal=   None    Shift=    0.000
 RMSDP=1.15D-04 MaxDP=1.71D-02 DE= 2.85D-02 OVMax= 1.11D-02

 Cycle  11  Pass 1  IDiag  1:
 RMSU=  9.53D-05    CP:  9.26D-01  1.80D+00  1.08D-01  6.70D-01  5.45D-01
                    CP:  2.66D-02  6.43D-01 -3.99D-02  5.99D-01  1.01D+00
 E= -1135.85619299328     Delta-E=        0.000089663518 Rises=F Damp=F
 DIIS: error= 6.81D-03 at cycle  11 NSaved=  11.
 NSaved=11 IEnMin= 7 EnMin= -1135.90280965108     IErMin= 9 ErrMin= 3.47D-03
 ErrMax= 6.81D-03  0.00D+00 EMaxC= 1.00D-01 BMatC= 2.26D-02 BMatP= 1.22D-02
 IDIUse=3 WtCom= 9.65D-01 WtEn= 3.47D-02
 Coeff-Com: -0.226D+00 0.318D+00 0.347D-01-0.879D-01 0.969D-01-0.405D-02
 Coeff-Com:  0.355D+00-0.692D+00 0.124D+01 0.393D+01-0.396D+01
 Coeff-En:   0.000D+00 0.000D+00 0.000D+00 0.000D+00 0.000D+00 0.000D+00
 Coeff-En:   0.000D+00 0.000D+00 0.522D+00 0.000D+00 0.478D+00
 Coeff:     -0.218D+00 0.307D+00 0.335D-01-0.849D-01 0.936D-01-0.391D-02
 Coeff:      0.343D+00-0.668D+00 0.121D+01 0.379D+01-0.381D+01
 Gap=     0.003 Goal=   None    Shift=    0.000
 Gap=     0.012 Goal=   None    Shift=    0.000
 RMSDP=2.60D-04 MaxDP=4.04D-02 DE= 8.97D-05 OVMax= 1.81D-02

 Cycle  12  Pass 1  IDiag  1:
 RMSU=  1.10D-04    CP:  9.26D-01  1.78D+00  1.09D-01  6.63D-01  5.60D-01
                    CP:  3.14D-02  6.48D-01 -1.23D-02  5.84D-01  9.56D-01
                    CP: -8.76D-01
 E= -1135.86054737030     Delta-E=       -0.004354377018 Rises=F Damp=F
 DIIS: error= 6.46D-03 at cycle  12 NSaved=  12.
 NSaved=12 IEnMin= 7 EnMin= -1135.90280965108     IErMin= 9 ErrMin= 3.47D-03
 ErrMax= 6.46D-03  0.00D+00 EMaxC= 1.00D-01 BMatC= 2.13D-02 BMatP= 1.22D-02
 IDIUse=3 WtCom= 9.65D-01 WtEn= 3.47D-02
 Coeff-Com: -0.201D+00 0.280D+00 0.308D-01-0.799D-01 0.677D-01-0.207D-01
 Coeff-Com:  0.358D+00-0.593D+00 0.111D+01 0.628D+01-0.801D+01 0.178D+01
 Coeff-En:   0.000D+00 0.000D+00 0.000D+00 0.000D+00 0.000D+00 0.000D+00
 Coeff-En:   0.000D+00 0.000D+00 0.519D+00 0.000D+00 0.000D+00 0.481D+00
 Coeff:     -0.194D+00 0.270D+00 0.298D-01-0.771D-01 0.653D-01-0.200D-01
 Coeff:      0.345D+00-0.572D+00 0.108D+01 0.607D+01-0.773D+01 0.174D+01
 Gap=    -0.013 Goal=   None    Shift=    0.000
 Gap=    -0.014 Goal=   None    Shift=    0.000
 RMSDP=4.95D-03 MaxDP=6.45D-01 DE=-4.35D-03 OVMax= 9.99D-01

 Cycle  13  Pass 1  IDiag  1:
 RMSU=  2.25D-03    CP:  9.55D-01  7.35D-01  1.89D-02  1.03D-01  1.56D-01
                    CP:  2.44D-01  2.41D-01  6.76D-02  1.12D+00  1.96D-01
                    CP:  3.00D+00 -1.34D+00
 E= -1135.89759978744     Delta-E=       -0.037052417142 Rises=F Damp=F
 DIIS: error= 3.91D-03 at cycle  13 NSaved=  13.
 NSaved=13 IEnMin= 7 EnMin= -1135.90280965108     IErMin= 9 ErrMin= 3.47D-03
 ErrMax= 3.91D-03  0.00D+00 EMaxC= 1.00D-01 BMatC= 1.03D-02 BMatP= 1.22D-02
 IDIUse=3 WtCom= 9.65D-01 WtEn= 3.47D-02
 Rare condition: small coef for last iteration:  0.000D+00
 Coeff-Com: -0.216D+00 0.300D+00 0.274D-01-0.829D-01 0.555D-01-0.349D-01
 Coeff-Com:  0.357D+00-0.493D+00 0.845D+00 0.711D+01-0.837D+01 0.128D+01
 Coeff-Com:  0.220D+00
 Coeff-En:   0.752D-01 0.000D+00 0.000D+00 0.000D+00 0.543D-01 0.000D+00
 Coeff-En:   0.190D+00 0.000D+00 0.162D+00 0.000D+00 0.000D+00 0.239D+00
 Coeff-En:   0.280D+00
 Coeff:     -0.216D+00 0.300D+00 0.274D-01-0.829D-01 0.555D-01-0.349D-01
 Coeff:      0.357D+00-0.493D+00 0.845D+00 0.711D+01-0.837D+01 0.128D+01
 Coeff:      0.220D+00
 Gap=    -0.012 Goal=   None    Shift=    0.000
 Gap=     0.027 Goal=   None    Shift=    0.000
 RMSDP=3.33D-03 MaxDP=5.68D-01 DE=-3.71D-02 OVMax= 9.58D-01

 Cycle  14  Pass 1  IDiag  1:
 RMSU=  6.76D-04    CP:  9.53D-01  7.52D-01  3.75D-02  1.24D-01  1.95D-01
                    CP:  2.26D-01  1.86D-01  8.50D-01  1.23D+00 -7.78D-02
                    CP: -3.00D+00 -3.03D-01 -2.24D-02
 E= -1135.89963099340     Delta-E=       -0.002031205961 Rises=F Damp=F
 DIIS: error= 2.85D-03 at cycle  14 NSaved=  14.
 NSaved=14 IEnMin= 7 EnMin= -1135.90280965108     IErMin=14 ErrMin= 2.85D-03
 ErrMax= 2.85D-03  0.00D+00 EMaxC= 1.00D-01 BMatC= 7.31D-03 BMatP= 1.03D-02
 IDIUse=3 WtCom= 9.71D-01 WtEn= 2.85D-02
 EnCoef did   100 forward-backward iterations
 Coeff-Com: -0.245D+00 0.343D+00 0.142D-01-0.867D-01 0.276D-01-0.270D-01
 Coeff-Com:  0.265D+00-0.318D+00 0.134D-01 0.407D+01-0.491D+01 0.868D+00
 Coeff-Com:  0.262D+00 0.733D+00
 Coeff-En:   0.000D+00 0.000D+00 0.000D+00 0.000D+00 0.238D-02 0.000D+00
 Coeff-En:   0.453D-01 0.347D-03 0.230D+00 0.101D-02 0.587D-04 0.425D+00
 Coeff-En:   0.101D-01 0.285D+00
 Coeff:     -0.238D+00 0.333D+00 0.138D-01-0.842D-01 0.268D-01-0.262D-01
 Coeff:      0.259D+00-0.309D+00 0.196D-01 0.395D+01-0.477D+01 0.855D+00
 Coeff:      0.255D+00 0.721D+00
 Gap=    -0.034 Goal=   None    Shift=    0.000
 Gap=    -0.013 Goal=   None    Shift=    0.000
 RMSDP=4.83D-03 MaxDP=5.83D-01 DE=-2.03D-03 OVMax= 1.00D+00

 Cycle  15  Pass 1  IDiag  1:
 RMSU=  5.14D-04    CP:  9.26D-01  1.75D+00  1.04D-01  6.60D-01  6.25D-01
                    CP:  3.00D-02  6.19D-01  9.49D-02  3.64D-01  7.38D-01
                    CP: -3.00D+00  2.23D-01 -1.55D-02  1.88D-01
 E= -1135.86575986318     Delta-E=        0.033871130227 Rises=F Damp=F
 DIIS: error= 6.09D-03 at cycle  15 NSaved=  15.
 NSaved=15 IEnMin= 7 EnMin= -1135.90280965108     IErMin=14 ErrMin= 2.85D-03
 ErrMax= 6.09D-03  0.00D+00 EMaxC= 1.00D-01 BMatC= 1.85D-02 BMatP= 7.31D-03
 IDIUse=3 WtCom= 9.71D-01 WtEn= 2.85D-02
 EnCoef did   100 forward-backward iterations
 Coeff-Com: -0.232D+00 0.326D+00 0.133D-01-0.907D-01 0.546D-01-0.288D-01
 Coeff-Com:  0.320D+00-0.322D+00 0.661D-01 0.512D+01-0.592D+01 0.101D+01
 Coeff-Com:  0.247D+00 0.674D+00-0.243D+00
 Coeff-En:   0.000D+00 0.000D+00 0.000D+00 0.000D+00 0.000D+00 0.000D+00
 Coeff-En:   0.125D-02 0.199D-02 0.393D+00 0.113D-03 0.118D-03 0.460D-03
 Coeff-En:   0.000D+00 0.123D+00 0.479D+00
 Coeff:     -0.226D+00 0.317D+00 0.130D-01-0.881D-01 0.531D-01-0.280D-01
 Coeff:      0.311D+00-0.313D+00 0.754D-01 0.498D+01-0.575D+01 0.979D+00
 Coeff:      0.240D+00 0.658D+00-0.223D+00
 Gap=     0.029 Goal=   None    Shift=    0.000
 Gap=     0.006 Goal=   None    Shift=    0.000
 RMSDP=1.36D-04 MaxDP=2.21D-02 DE= 3.39D-02 OVMax= 1.55D-02

 Cycle  16  Pass 1  IDiag  1:
 RMSU=  6.85D-05    CP:  9.26D-01  1.74D+00  1.05D-01  6.58D-01  6.31D-01
                    CP:  3.50D-02  6.31D-01  9.08D-02  4.03D-01  7.23D-01
                    CP: -3.00D+00  6.72D-01 -1.20D-02  1.21D-01  8.92D-01
 E= -1135.86838475230     Delta-E=       -0.002624889122 Rises=F Damp=F
 DIIS: error= 6.01D-03 at cycle  16 NSaved=  16.
 NSaved=16 IEnMin= 7 EnMin= -1135.90280965108     IErMin=14 ErrMin= 2.85D-03
 ErrMax= 6.01D-03  0.00D+00 EMaxC= 1.00D-01 BMatC= 1.78D-02 BMatP= 7.31D-03
 IDIUse=3 WtCom= 9.71D-01 WtEn= 2.85D-02
 EnCoef did   100 forward-backward iterations
 Coeff-Com: -0.231D+00 0.326D+00 0.605D-02-0.692D-01 0.227D-01-0.329D-01
 Coeff-Com:  0.266D+00-0.244D+00-0.126D+00 0.650D+01-0.718D+01 0.866D+00
 Coeff-Com:  0.292D+00 0.718D+00-0.408D+01 0.396D+01
 Coeff-En:   0.000D+00 0.000D+00 0.000D+00 0.000D+00 0.000D+00 0.000D+00
 Coeff-En:   0.146D-02 0.232D-02 0.511D+00 0.132D-03 0.138D-03 0.537D-03
 Coeff-En:   0.000D+00 0.115D-02 0.321D+00 0.162D+00
 Coeff:     -0.224D+00 0.317D+00 0.587D-02-0.672D-01 0.220D-01-0.320D-01
 Coeff:      0.258D+00-0.237D+00-0.108D+00 0.632D+01-0.698D+01 0.842D+00
 Coeff:      0.283D+00 0.697D+00-0.395D+01 0.385D+01
 Gap=     0.001 Goal=   None    Shift=    0.000
 Gap=    -0.022 Goal=   None    Shift=    0.000
 RMSDP=3.27D-03 MaxDP=5.25D-01 DE=-2.62D-03 OVMax= 9.99D-01

 Cycle  17  Pass 1  IDiag  1:
 RMSU=  1.97D-03    CP:  9.41D-01  1.20D+00  4.10D-02  3.86D-01  5.49D-01
                    CP:  9.45D-02  3.44D-01  4.09D-01  7.70D-01  1.91D-01
                    CP: -3.00D+00 -6.23D-01  3.66D-01  6.96D-01  4.72D-01
                    CP:  1.05D+00
 E= -1136.05679608237     Delta-E=       -0.188411330077 Rises=F Damp=F
 DIIS: error= 2.27D-03 at cycle  17 NSaved=  17.
 NSaved=17 IEnMin=17 EnMin= -1136.05679608237     IErMin=17 ErrMin= 2.27D-03
 ErrMax= 2.27D-03  0.00D+00 EMaxC= 1.00D-01 BMatC= 1.50D-03 BMatP= 7.31D-03
 IDIUse=3 WtCom= 9.77D-01 WtEn= 2.27D-02
 Coeff-Com: -0.145D+00 0.200D+00 0.838D-03-0.345D-01-0.138D-02-0.239D-02
 Coeff-Com:  0.155D+00-0.219D+00 0.352D+00 0.303D+01-0.324D+01 0.382D+00
 Coeff-Com:  0.904D-01 0.789D-01-0.210D+01 0.191D+01 0.546D+00
 Coeff-En:   0.000D+00 0.000D+00 0.000D+00 0.000D+00 0.000D+00 0.000D+00
 Coeff-En:   0.000D+00 0.000D+00 0.000D+00 0.000D+00 0.000D+00 0.000D+00
 Coeff-En:   0.000D+00 0.000D+00 0.000D+00 0.000D+00 0.100D+01
 Coeff:     -0.142D+00 0.196D+00 0.819D-03-0.337D-01-0.135D-02-0.233D-02
 Coeff:      0.152D+00-0.214D+00 0.344D+00 0.296D+01-0.317D+01 0.373D+00
 Coeff:      0.883D-01 0.771D-01-0.205D+01 0.187D+01 0.556D+00
 Gap=     0.032 Goal=   None    Shift=    0.000
 Gap=     0.041 Goal=   None    Shift=    0.000
 RMSDP=7.44D-04 MaxDP=8.92D-02 DE=-1.88D-01 OVMax= 1.08D-01

 Cycle  18  Pass 1  IDiag  1:
 RMSU=  5.30D-04    CP:  9.40D-01  1.24D+00  3.69D-02  3.98D-01  5.67D-01
                    CP:  1.01D-01  3.10D-01  3.84D-01  8.96D-01  2.75D-01
                    CP: -3.00D+00 -8.24D-01  4.17D-01  1.78D-01  2.80D-01
                    CP: -2.32D+00  9.91D-01
 E= -1136.06036840888     Delta-E=       -0.003572326506 Rises=F Damp=F
 DIIS: error= 1.20D-03 at cycle  18 NSaved=  18.
 NSaved=18 IEnMin=18 EnMin= -1136.06036840888     IErMin=18 ErrMin= 1.20D-03
 ErrMax= 1.20D-03  0.00D+00 EMaxC= 1.00D-01 BMatC= 5.52D-04 BMatP= 1.50D-03
 IDIUse=3 WtCom= 9.88D-01 WtEn= 1.20D-02
 Coeff-Com: -0.529D-01 0.732D-01 0.294D-02-0.581D-02-0.895D-02-0.749D-03
 Coeff-Com:  0.872D-01-0.314D-01 0.149D+00 0.174D+01-0.197D+01 0.183D+00
 Coeff-Com:  0.167D-02-0.177D-01-0.251D+00 0.259D+00-0.538D+00 0.138D+01
 Coeff-En:   0.000D+00 0.000D+00 0.000D+00 0.000D+00 0.000D+00 0.000D+00
 Coeff-En:   0.000D+00 0.000D+00 0.000D+00 0.000D+00 0.000D+00 0.000D+00
 Coeff-En:   0.000D+00 0.000D+00 0.000D+00 0.000D+00 0.000D+00 0.100D+01
 Coeff:     -0.523D-01 0.723D-01 0.290D-02-0.574D-02-0.884D-02-0.740D-03
 Coeff:      0.861D-01-0.310D-01 0.147D+00 0.172D+01-0.195D+01 0.181D+00
 Coeff:      0.165D-02-0.175D-01-0.248D+00 0.256D+00-0.531D+00 0.138D+01
 Gap=     0.039 Goal=   None    Shift=    0.000
 Gap=     0.050 Goal=   None    Shift=    0.000
 RMSDP=4.89D-04 MaxDP=8.23D-02 DE=-3.57D-03 OVMax= 7.37D-02

 Cycle  19  Pass 1  IDiag  1:
 RMSU=  2.57D-04    CP:  9.39D-01  1.26D+00  2.63D-02  3.99D-01  5.65D-01
                    CP:  1.22D-01  2.91D-01  4.03D-01  8.34D-01  3.05D-01
                    CP: -2.14D+00 -1.11D+00  4.39D-01 -1.36D-01  3.48D-01
                    CP: -3.00D+00  1.00D+00  1.50D+00
 E= -1136.06189317658     Delta-E=       -0.001524767703 Rises=F Damp=F
 DIIS: error= 4.60D-04 at cycle  19 NSaved=  19.
 NSaved=19 IEnMin=19 EnMin= -1136.06189317658     IErMin=19 ErrMin= 4.60D-04
 ErrMax= 4.60D-04  0.00D+00 EMaxC= 1.00D-01 BMatC= 1.28D-04 BMatP= 5.52D-04
 IDIUse=3 WtCom= 9.95D-01 WtEn= 4.60D-03
 Coeff-Com: -0.195D-02 0.524D-02-0.165D-03 0.108D-03 0.328D-03-0.116D-02
 Coeff-Com: -0.197D-02 0.358D-01 0.157D-01-0.362D-01-0.258D+00 0.165D+00
 Coeff-Com: -0.208D-01-0.304D-01 0.265D+00-0.140D+00-0.404D-01-0.361D+00
 Coeff-Com:  0.140D+01
 Coeff-En:   0.000D+00 0.000D+00 0.000D+00 0.000D+00 0.000D+00 0.000D+00
 Coeff-En:   0.000D+00 0.000D+00 0.000D+00 0.000D+00 0.000D+00 0.000D+00
 Coeff-En:   0.000D+00 0.000D+00 0.000D+00 0.000D+00 0.000D+00 0.000D+00
 Coeff-En:   0.100D+01
 Coeff:     -0.194D-02 0.521D-02-0.164D-03 0.107D-03 0.327D-03-0.115D-02
 Coeff:     -0.197D-02 0.356D-01 0.156D-01-0.360D-01-0.257D+00 0.164D+00
 Coeff:     -0.207D-01-0.303D-01 0.264D+00-0.139D+00-0.402D-01-0.359D+00
 Coeff:      0.140D+01
 Gap=     0.047 Goal=   None    Shift=    0.000
 Gap=     0.057 Goal=   None    Shift=    0.000
 RMSDP=3.16D-04 MaxDP=5.60D-02 DE=-1.52D-03 OVMax= 3.79D-02

 Cycle  20  Pass 1  IDiag  1:
 RMSU=  1.01D-04    CP:  9.39D-01  1.27D+00  2.00D-02  3.92D-01  5.67D-01
                    CP:  1.38D-01  2.82D-01  4.32D-01  7.17D-01  3.00D-01
                    CP: -2.49D+00 -8.34D-01  4.40D-01 -2.76D-01  4.20D-01
                    CP: -3.00D+00  1.01D+00  1.71D+00  1.73D+00
 E= -1136.06224476997     Delta-E=       -0.000351593384 Rises=F Damp=F
 DIIS: error= 2.10D-04 at cycle  20 NSaved=  20.
 NSaved=20 IEnMin=20 EnMin= -1136.06224476997     IErMin=20 ErrMin= 2.10D-04
 ErrMax= 2.10D-04  0.00D+00 EMaxC= 1.00D-01 BMatC= 2.01D-05 BMatP= 1.28D-04
 IDIUse=3 WtCom= 9.98D-01 WtEn= 2.10D-03
 Coeff-Com:  0.487D-02-0.566D-02-0.341D-04 0.899D-03-0.507D-03-0.200D-02
 Coeff-Com: -0.143D-01 0.356D-01-0.517D-01-0.453D+00 0.383D+00-0.878D-03
 Coeff-Com: -0.389D-02 0.207D-01 0.244D+00-0.174D+00 0.148D+00-0.475D+00
 Coeff-Com:  0.555D+00 0.788D+00
 Coeff-En:   0.000D+00 0.000D+00 0.000D+00 0.000D+00 0.000D+00 0.000D+00
 Coeff-En:   0.000D+00 0.000D+00 0.000D+00 0.000D+00 0.000D+00 0.000D+00
 Coeff-En:   0.000D+00 0.000D+00 0.000D+00 0.000D+00 0.000D+00 0.000D+00
 Coeff-En:   0.000D+00 0.100D+01
 Coeff:      0.486D-02-0.564D-02-0.340D-04 0.897D-03-0.505D-03-0.200D-02
 Coeff:     -0.143D-01 0.355D-01-0.516D-01-0.452D+00 0.382D+00-0.876D-03
 Coeff:     -0.389D-02 0.207D-01 0.243D+00-0.173D+00 0.147D+00-0.474D+00
 Coeff:      0.554D+00 0.789D+00
 Gap=     0.044 Goal=   None    Shift=    0.000
 Gap=     0.052 Goal=   None    Shift=    0.000
 RMSDP=1.11D-04 MaxDP=1.62D-02 DE=-3.52D-04 OVMax= 7.84D-03

 Cycle  21  Pass 1  IDiag  1:
 Restarting incremental Fock formation.
 E= -1136.06226598584     Delta-E=       -0.000021215871 Rises=F Damp=F
 DIIS: error= 9.10D-05 at cycle  21 NSaved=  20.
 NSaved=20 IEnMin=20 EnMin= -1136.06226598584     IErMin=20 ErrMin= 9.10D-05
 ErrMax= 9.10D-05  0.00D+00 EMaxC= 1.00D-01 BMatC= 4.41D-06 BMatP= 2.01D-05
 IDIUse=1 WtCom= 1.00D+00 WtEn= 0.00D+00
 Coeff-Com:  0.407D-02-0.555D-02-0.121D-02 0.389D-02-0.962D-03-0.240D-02
 Coeff-Com:  0.397D-02-0.102D-01-0.754D-01 0.952D-01-0.154D-01 0.184D-02
 Coeff-Com:  0.105D-01 0.921D-01-0.104D+00 0.679D-01-0.101D+00-0.131D-01
 Coeff-Com:  0.192D+00 0.858D+00
 Coeff:      0.407D-02-0.555D-02-0.121D-02 0.389D-02-0.962D-03-0.240D-02
 Coeff:      0.397D-02-0.102D-01-0.754D-01 0.952D-01-0.154D-01 0.184D-02
 Coeff:      0.105D-01 0.921D-01-0.104D+00 0.679D-01-0.101D+00-0.131D-01
 Coeff:      0.192D+00 0.858D+00
 Gap=     0.044 Goal=   None    Shift=    0.000
 Gap=     0.052 Goal=   None    Shift=    0.000
 RMSDP=4.55D-05 MaxDP=4.45D-03 DE=-2.12D-05 OVMax= 4.41D-03

 Cycle  22  Pass 1  IDiag  1:
 RMSU=  4.55D-05    CP:  1.00D+00
 E= -1136.06227212629     Delta-E=       -0.000006140456 Rises=F Damp=F
 DIIS: error= 7.44D-05 at cycle  22 NSaved=  20.
 NSaved=20 IEnMin=20 EnMin= -1136.06227212629     IErMin=20 ErrMin= 7.44D-05
 ErrMax= 7.44D-05  0.00D+00 EMaxC= 1.00D-01 BMatC= 2.52D-06 BMatP= 4.41D-06
 IDIUse=1 WtCom= 1.00D+00 WtEn= 0.00D+00
 Coeff-Com:  0.315D-02-0.435D-02 0.123D-02-0.529D-03-0.457D-02-0.324D-02
 Coeff-Com: -0.130D-02-0.438D-01 0.709D-01-0.244D-01 0.240D-02 0.941D-02
 Coeff-Com: -0.386D-01 0.329D-01 0.272D-01-0.178D-01-0.599D-01 0.288D-01
 Coeff-Com:  0.306D+00 0.716D+00
 Coeff:      0.315D-02-0.435D-02 0.123D-02-0.529D-03-0.457D-02-0.324D-02
 Coeff:     -0.130D-02-0.438D-01 0.709D-01-0.244D-01 0.240D-02 0.941D-02
 Coeff:     -0.386D-01 0.329D-01 0.272D-01-0.178D-01-0.599D-01 0.288D-01
 Coeff:      0.306D+00 0.716D+00
 Gap=     0.044 Goal=   None    Shift=    0.000
 Gap=     0.052 Goal=   None    Shift=    0.000
 RMSDP=1.92D-05 MaxDP=2.01D-03 DE=-6.14D-06 OVMax= 2.06D-03

 Cycle  23  Pass 1  IDiag  1:
 RMSU=  1.85D-05    CP:  1.00D+00  1.12D+00
 E= -1136.06227380018     Delta-E=       -0.000001673884 Rises=F Damp=F
 DIIS: error= 6.78D-05 at cycle  23 NSaved=  20.
 NSaved=20 IEnMin=20 EnMin= -1136.06227380018     IErMin=20 ErrMin= 6.78D-05
 ErrMax= 6.78D-05  0.00D+00 EMaxC= 1.00D-01 BMatC= 2.04D-06 BMatP= 2.52D-06
 IDIUse=1 WtCom= 1.00D+00 WtEn= 0.00D+00
 Coeff-Com:  0.310D-02-0.418D-02 0.179D-03-0.495D-02 0.148D-03-0.419D-02
 Coeff-Com: -0.606D-01 0.703D-01-0.850D-02 0.170D-02 0.670D-02-0.442D-01
 Coeff-Com:  0.422D-01 0.199D-01-0.590D-01 0.258D-01 0.238D-01-0.265D+00
 Coeff-Com: -0.281D-01 0.128D+01
 Coeff:      0.310D-02-0.418D-02 0.179D-03-0.495D-02 0.148D-03-0.419D-02
 Coeff:     -0.606D-01 0.703D-01-0.850D-02 0.170D-02 0.670D-02-0.442D-01
 Coeff:      0.422D-01 0.199D-01-0.590D-01 0.258D-01 0.238D-01-0.265D+00
 Coeff:     -0.281D-01 0.128D+01
 Gap=     0.044 Goal=   None    Shift=    0.000
 Gap=     0.052 Goal=   None    Shift=    0.000
 RMSDP=1.92D-05 MaxDP=2.13D-03 DE=-1.67D-06 OVMax= 3.18D-03

 Cycle  24  Pass 1  IDiag  1:
 RMSU=  1.25D-05    CP:  1.00D+00  1.34D+00  1.57D+00
 E= -1136.06227622816     Delta-E=       -0.000002427980 Rises=F Damp=F
 DIIS: error= 5.97D-05 at cycle  24 NSaved=  20.
 NSaved=20 IEnMin=20 EnMin= -1136.06227622816     IErMin=20 ErrMin= 5.97D-05
 ErrMax= 5.97D-05  0.00D+00 EMaxC= 1.00D-01 BMatC= 1.37D-06 BMatP= 2.04D-06
 IDIUse=1 WtCom= 1.00D+00 WtEn= 0.00D+00
 Coeff-Com:  0.169D-02-0.243D-02-0.212D-04-0.233D-02 0.930D-03-0.261D-02
 Coeff-Com:  0.929D-02-0.234D-02 0.221D-02 0.313D-02-0.532D-01 0.455D-01
 Coeff-Com:  0.114D-01-0.307D-01 0.594D-02 0.344D-01-0.100D+00-0.244D+00
 Coeff-Com: -0.159D+00 0.148D+01
 Coeff:      0.169D-02-0.243D-02-0.212D-04-0.233D-02 0.930D-03-0.261D-02
 Coeff:      0.929D-02-0.234D-02 0.221D-02 0.313D-02-0.532D-01 0.455D-01
 Coeff:      0.114D-01-0.307D-01 0.594D-02 0.344D-01-0.100D+00-0.244D+00
 Coeff:     -0.159D+00 0.148D+01
 Gap=     0.044 Goal=   None    Shift=    0.000
 Gap=     0.052 Goal=   None    Shift=    0.000
 RMSDP=2.32D-05 MaxDP=3.02D-03 DE=-2.43D-06 OVMax= 3.35D-03

 Cycle  25  Pass 1  IDiag  1:
 RMSU=  1.02D-05    CP:  1.00D+00  1.64D+00  1.98D+00  2.11D+00
 E= -1136.06227873381     Delta-E=       -0.000002505646 Rises=F Damp=F
 DIIS: error= 3.93D-05 at cycle  25 NSaved=  20.
 NSaved=20 IEnMin=20 EnMin= -1136.06227873381     IErMin=20 ErrMin= 3.93D-05
 ErrMax= 3.93D-05  0.00D+00 EMaxC= 1.00D-01 BMatC= 5.78D-07 BMatP= 1.37D-06
 IDIUse=1 WtCom= 1.00D+00 WtEn= 0.00D+00
 Coeff-Com:  0.594D-03-0.872D-03 0.229D-03-0.589D-03 0.377D-03 0.296D-02
 Coeff-Com:  0.431D-03-0.275D-03-0.368D-02 0.240D-02-0.293D-02-0.238D-02
 Coeff-Com:  0.699D-02-0.713D-02 0.317D-01 0.162D+00-0.970D-01-0.768D+00
 Coeff-Com: -0.291D+00 0.197D+01
 Coeff:      0.594D-03-0.872D-03 0.229D-03-0.589D-03 0.377D-03 0.296D-02
 Coeff:      0.431D-03-0.275D-03-0.368D-02 0.240D-02-0.293D-02-0.238D-02
 Coeff:      0.699D-02-0.713D-02 0.317D-01 0.162D+00-0.970D-01-0.768D+00
 Coeff:     -0.291D+00 0.197D+01
 Gap=     0.044 Goal=   None    Shift=    0.000
 Gap=     0.052 Goal=   None    Shift=    0.000
 RMSDP=3.45D-05 MaxDP=3.49D-03 DE=-2.51D-06 OVMax= 4.93D-03

 Cycle  26  Pass 1  IDiag  1:
 RMSU=  1.32D-05    CP:  1.00D+00  1.92D+00  2.39D+00  3.00D+00  2.99D+00
 E= -1136.06228050565     Delta-E=       -0.000001771846 Rises=F Damp=F
 DIIS: error= 1.33D-05 at cycle  26 NSaved=  20.
 NSaved=20 IEnMin=20 EnMin= -1136.06228050565     IErMin=20 ErrMin= 1.33D-05
 ErrMax= 1.33D-05  0.00D+00 EMaxC= 1.00D-01 BMatC= 3.01D-08 BMatP= 5.78D-07
 IDIUse=1 WtCom= 1.00D+00 WtEn= 0.00D+00
 Coeff-Com:  0.226D-03-0.271D-03 0.442D-04-0.184D-03-0.340D-03 0.971D-03
 Coeff-Com: -0.299D-03-0.527D-03 0.564D-02-0.552D-02-0.397D-02 0.122D-01
 Coeff-Com: -0.477D-02-0.119D-01 0.855D-03 0.440D-01-0.512D-01-0.324D+00
 Coeff-Com:  0.435D+00 0.904D+00
 Coeff:      0.226D-03-0.271D-03 0.442D-04-0.184D-03-0.340D-03 0.971D-03
 Coeff:     -0.299D-03-0.527D-03 0.564D-02-0.552D-02-0.397D-02 0.122D-01
 Coeff:     -0.477D-02-0.119D-01 0.855D-03 0.440D-01-0.512D-01-0.324D+00
 Coeff:      0.435D+00 0.904D+00
 Gap=     0.044 Goal=   None    Shift=    0.000
 Gap=     0.052 Goal=   None    Shift=    0.000
 RMSDP=6.26D-06 MaxDP=4.96D-04 DE=-1.77D-06 OVMax= 9.96D-04

 Cycle  27  Pass 1  IDiag  1:
 RMSU=  3.79D-06    CP:  1.00D+00  2.01D+00  2.45D+00  3.00D+00  3.00D+00
                    CP:  1.12D+00
 E= -1136.06228058890     Delta-E=       -0.000000083248 Rises=F Damp=F
 DIIS: error= 3.96D-06 at cycle  27 NSaved=  20.
 NSaved=20 IEnMin=20 EnMin= -1136.06228058890     IErMin=20 ErrMin= 3.96D-06
 ErrMax= 3.96D-06  0.00D+00 EMaxC= 1.00D-01 BMatC= 4.27D-09 BMatP= 3.01D-08
 IDIUse=1 WtCom= 1.00D+00 WtEn= 0.00D+00
 Coeff-Com:  0.756D-04-0.100D-03-0.111D-04-0.793D-04-0.130D-03 0.893D-05
 Coeff-Com: -0.469D-04 0.230D-03 0.105D-03 0.127D-03 0.173D-02-0.812D-03
 Coeff-Com: -0.491D-02 0.174D-02-0.312D-03 0.308D-01-0.120D+00 0.104D+00
 Coeff-Com:  0.269D+00 0.718D+00
 Coeff:      0.756D-04-0.100D-03-0.111D-04-0.793D-04-0.130D-03 0.893D-05
 Coeff:     -0.469D-04 0.230D-03 0.105D-03 0.127D-03 0.173D-02-0.812D-03
 Coeff:     -0.491D-02 0.174D-02-0.312D-03 0.308D-01-0.120D+00 0.104D+00
 Coeff:      0.269D+00 0.718D+00
 Gap=     0.044 Goal=   None    Shift=    0.000
 Gap=     0.052 Goal=   None    Shift=    0.000
 RMSDP=1.44D-06 MaxDP=1.39D-04 DE=-8.32D-08 OVMax= 1.58D-04

 Cycle  28  Pass 1  IDiag  1:
 RMSU=  1.02D-06    CP:  1.00D+00  2.01D+00  2.50D+00  3.00D+00  3.00D+00
                    CP:  1.08D+00  1.02D+00
 E= -1136.06228059872     Delta-E=       -0.000000009817 Rises=F Damp=F
 DIIS: error= 3.49D-06 at cycle  28 NSaved=  20.
 NSaved=20 IEnMin=20 EnMin= -1136.06228059872     IErMin=20 ErrMin= 3.49D-06
 ErrMax= 3.49D-06  0.00D+00 EMaxC= 1.00D-01 BMatC= 1.06D-09 BMatP= 4.27D-09
 IDIUse=1 WtCom= 1.00D+00 WtEn= 0.00D+00
 Coeff-Com:  0.209D-05-0.227D-05 0.171D-04-0.268D-04-0.711D-04 0.294D-04
 Coeff-Com: -0.191D-04 0.108D-03 0.944D-03-0.189D-02 0.648D-03 0.396D-02
 Coeff-Com:  0.600D-02-0.735D-02-0.296D-01 0.447D-01-0.193D-01-0.109D+00
 Coeff-Com:  0.974D-01 0.101D+01
 Coeff:      0.209D-05-0.227D-05 0.171D-04-0.268D-04-0.711D-04 0.294D-04
 Coeff:     -0.191D-04 0.108D-03 0.944D-03-0.189D-02 0.648D-03 0.396D-02
 Coeff:      0.600D-02-0.735D-02-0.296D-01 0.447D-01-0.193D-01-0.109D+00
 Coeff:      0.974D-01 0.101D+01
 Gap=     0.044 Goal=   None    Shift=    0.000
 Gap=     0.052 Goal=   None    Shift=    0.000
 RMSDP=1.02D-06 MaxDP=9.24D-05 DE=-9.82D-09 OVMax= 1.52D-04

 Cycle  29  Pass 1  IDiag  1:
 RMSU=  7.09D-07    CP:  1.00D+00  2.01D+00  2.52D+00  3.00D+00  3.00D+00
                    CP:  1.10D+00  1.15D+00  1.34D+00
 E= -1136.06228060423     Delta-E=       -0.000000005509 Rises=F Damp=F
 DIIS: error= 1.20D-06 at cycle  29 NSaved=  20.
 NSaved=20 IEnMin=20 EnMin= -1136.06228060423     IErMin=20 ErrMin= 1.20D-06
 ErrMax= 1.20D-06  0.00D+00 EMaxC= 1.00D-01 BMatC= 2.22D-10 BMatP= 1.06D-09
 IDIUse=1 WtCom= 1.00D+00 WtEn= 0.00D+00
 Coeff-Com: -0.233D-04 0.297D-04-0.548D-05-0.361D-05 0.498D-04-0.101D-04
 Coeff-Com: -0.391D-04 0.423D-03-0.114D-02 0.230D-03 0.157D-02 0.286D-02
 Coeff-Com: -0.229D-02-0.144D-01 0.224D-01-0.955D-02-0.657D-01-0.149D+00
 Coeff-Com:  0.376D-01 0.118D+01
 Coeff:     -0.233D-04 0.297D-04-0.548D-05-0.361D-05 0.498D-04-0.101D-04
 Coeff:     -0.391D-04 0.423D-03-0.114D-02 0.230D-03 0.157D-02 0.286D-02
 Coeff:     -0.229D-02-0.144D-01 0.224D-01-0.955D-02-0.657D-01-0.149D+00
 Coeff:      0.376D-01 0.118D+01
 Gap=     0.044 Goal=   None    Shift=    0.000
 Gap=     0.052 Goal=   None    Shift=    0.000
 RMSDP=7.47D-07 MaxDP=5.89D-05 DE=-5.51D-09 OVMax= 1.09D-04

 Cycle  30  Pass 1  IDiag  1:
 RMSU=  3.03D-07    CP:  1.00D+00  2.01D+00  2.53D+00  3.00D+00  3.00D+00
                    CP:  1.12D+00  1.21D+00  1.77D+00  1.43D+00
 E= -1136.06228060628     Delta-E=       -0.000000002057 Rises=F Damp=F
 DIIS: error= 5.76D-07 at cycle  30 NSaved=  20.
 NSaved=20 IEnMin=20 EnMin= -1136.06228060628     IErMin=20 ErrMin= 5.76D-07
 ErrMax= 5.76D-07  0.00D+00 EMaxC= 1.00D-01 BMatC= 5.69D-11 BMatP= 2.22D-10
 IDIUse=1 WtCom= 1.00D+00 WtEn= 0.00D+00
 Coeff-Com: -0.129D-05-0.899D-05 0.124D-04-0.845D-05 0.143D-04 0.334D-05
 Coeff-Com: -0.191D-04 0.582D-05-0.367D-04-0.140D-02-0.390D-02 0.416D-02
 Coeff-Com:  0.205D-01-0.143D-01-0.104D-01 0.316D-01-0.768D-02-0.196D+00
 Coeff-Com: -0.132D+00 0.131D+01
 Coeff:     -0.129D-05-0.899D-05 0.124D-04-0.845D-05 0.143D-04 0.334D-05
 Coeff:     -0.191D-04 0.582D-05-0.367D-04-0.140D-02-0.390D-02 0.416D-02
 Coeff:      0.205D-01-0.143D-01-0.104D-01 0.316D-01-0.768D-02-0.196D+00
 Coeff:     -0.132D+00 0.131D+01
 Gap=     0.044 Goal=   None    Shift=    0.000
 Gap=     0.052 Goal=   None    Shift=    0.000
 RMSDP=4.20D-07 MaxDP=4.31D-05 DE=-2.06D-09 OVMax= 6.48D-05

 Cycle  31  Pass 1  IDiag  1:
 RMSU=  1.06D-07    CP:  1.00D+00  2.01D+00  2.53D+00  3.00D+00  3.00D+00
                    CP:  1.12D+00  1.22D+00  2.08D+00  1.63D+00  1.64D+00
 E= -1136.06228060679     Delta-E=       -0.000000000504 Rises=F Damp=F
 DIIS: error= 1.94D-07 at cycle  31 NSaved=  20.
 NSaved=20 IEnMin=20 EnMin= -1136.06228060679     IErMin=20 ErrMin= 1.94D-07
 ErrMax= 1.94D-07  0.00D+00 EMaxC= 1.00D-01 BMatC= 9.79D-12 BMatP= 5.69D-11
 IDIUse=1 WtCom= 1.00D+00 WtEn= 0.00D+00
 Coeff-Com:  0.310D-06-0.294D-06 0.247D-05 0.413D-05-0.795D-05-0.971D-04
 Coeff-Com:  0.139D-03 0.665D-04-0.143D-03-0.112D-02 0.993D-03 0.416D-02
 Coeff-Com: -0.213D-02-0.483D-02 0.763D-02 0.999D-02-0.208D-01-0.186D+00
 Coeff-Com:  0.190D+00 0.100D+01
 Coeff:      0.310D-06-0.294D-06 0.247D-05 0.413D-05-0.795D-05-0.971D-04
 Coeff:      0.139D-03 0.665D-04-0.143D-03-0.112D-02 0.993D-03 0.416D-02
 Coeff:     -0.213D-02-0.483D-02 0.763D-02 0.999D-02-0.208D-01-0.186D+00
 Coeff:      0.190D+00 0.100D+01
 Gap=     0.044 Goal=   None    Shift=    0.000
 Gap=     0.052 Goal=   None    Shift=    0.000
 RMSDP=1.69D-07 MaxDP=1.40D-05 DE=-5.04D-10 OVMax= 2.29D-05

 Cycle  32  Pass 1  IDiag  1:
 RMSU=  4.60D-08    CP:  1.00D+00  2.01D+00  2.53D+00  3.00D+00  3.00D+00
                    CP:  1.13D+00  1.23D+00  2.15D+00  1.75D+00  1.77D+00
                    CP:  1.40D+00
 E= -1136.06228060687     Delta-E=       -0.000000000083 Rises=F Damp=F
 DIIS: error= 7.50D-08 at cycle  32 NSaved=  20.
 NSaved=20 IEnMin=20 EnMin= -1136.06228060687     IErMin=20 ErrMin= 7.50D-08
 ErrMax= 7.50D-08  0.00D+00 EMaxC= 1.00D-01 BMatC= 2.47D-12 BMatP= 9.79D-12
 IDIUse=1 WtCom= 1.00D+00 WtEn= 0.00D+00
 Coeff-Com: -0.394D-06 0.185D-05 0.957D-06-0.241D-05-0.550D-04 0.107D-03
 Coeff-Com: -0.133D-04-0.165D-04 0.277D-03-0.353D-03-0.157D-02 0.179D-02
 Coeff-Com: -0.668D-04-0.263D-02 0.171D-03 0.143D-01 0.888D-02-0.106D+00
 Coeff-Com:  0.701D-01 0.102D+01
 Coeff:     -0.394D-06 0.185D-05 0.957D-06-0.241D-05-0.550D-04 0.107D-03
 Coeff:     -0.133D-04-0.165D-04 0.277D-03-0.353D-03-0.157D-02 0.179D-02
 Coeff:     -0.668D-04-0.263D-02 0.171D-03 0.143D-01 0.888D-02-0.106D+00
 Coeff:      0.701D-01 0.102D+01
 Gap=     0.044 Goal=   None    Shift=    0.000
 Gap=     0.052 Goal=   None    Shift=    0.000
 RMSDP=6.68D-08 MaxDP=7.20D-06 DE=-8.28D-11 OVMax= 1.03D-05

 Cycle  33  Pass 1  IDiag  1:
 RMSU=  3.45D-08    CP:  1.00D+00  2.01D+00  2.53D+00  3.00D+00  3.00D+00
                    CP:  1.13D+00  1.24D+00  2.16D+00  1.76D+00  1.78D+00
                    CP:  1.62D+00  1.41D+00
 E= -1136.06228060689     Delta-E=       -0.000000000020 Rises=F Damp=F
 DIIS: error= 5.36D-08 at cycle  33 NSaved=  20.
 NSaved=20 IEnMin=20 EnMin= -1136.06228060689     IErMin=20 ErrMin= 5.36D-08
 ErrMax= 5.36D-08  0.00D+00 EMaxC= 1.00D-01 BMatC= 1.02D-12 BMatP= 2.47D-12
 IDIUse=1 WtCom= 1.00D+00 WtEn= 0.00D+00
 Coeff-Com:  0.997D-06-0.239D-05-0.202D-06 0.296D-04-0.628D-04-0.794D-05
 Coeff-Com:  0.512D-04 0.930D-04-0.344D-03-0.126D-02 0.109D-02 0.124D-02
 Coeff-Com: -0.216D-02-0.577D-02 0.135D-02 0.723D-01-0.402D-01-0.407D+00
 Coeff-Com: -0.324D+00 0.170D+01
 Coeff:      0.997D-06-0.239D-05-0.202D-06 0.296D-04-0.628D-04-0.794D-05
 Coeff:      0.512D-04 0.930D-04-0.344D-03-0.126D-02 0.109D-02 0.124D-02
 Coeff:     -0.216D-02-0.577D-02 0.135D-02 0.723D-01-0.402D-01-0.407D+00
 Coeff:     -0.324D+00 0.170D+01
 Gap=     0.044 Goal=   None    Shift=    0.000
 Gap=     0.052 Goal=   None    Shift=    0.000
 RMSDP=1.07D-07 MaxDP=1.03D-05 DE=-1.96D-11 OVMax= 1.89D-05

 Cycle  34  Pass 1  IDiag  1:
 RMSU=  1.47D-08    CP:  1.00D+00  2.01D+00  2.53D+00  3.00D+00  3.00D+00
                    CP:  1.14D+00  1.25D+00  2.17D+00  1.78D+00  1.76D+00
                    CP:  1.89D+00  2.08D+00  2.20D+00
 E= -1136.06228060692     Delta-E=       -0.000000000033 Rises=F Damp=F
 DIIS: error= 3.79D-08 at cycle  34 NSaved=  20.
 NSaved=20 IEnMin=20 EnMin= -1136.06228060692     IErMin=20 ErrMin= 3.79D-08
 ErrMax= 3.79D-08  0.00D+00 EMaxC= 1.00D-01 BMatC= 4.22D-13 BMatP= 1.02D-12
 IDIUse=1 WtCom= 1.00D+00 WtEn= 0.00D+00
 Coeff-Com:  0.106D-05-0.755D-06 0.936D-05-0.396D-06-0.357D-04-0.487D-04
 Coeff-Com: -0.150D-04 0.154D-05 0.432D-03-0.938D-03 0.102D-02 0.133D-02
 Coeff-Com: -0.186D-02-0.893D-02-0.575D-02 0.556D-01 0.801D-03-0.371D+00
 Coeff-Com: -0.223D+00 0.155D+01
 Coeff:      0.106D-05-0.755D-06 0.936D-05-0.396D-06-0.357D-04-0.487D-04
 Coeff:     -0.150D-04 0.154D-05 0.432D-03-0.938D-03 0.102D-02 0.133D-02
 Coeff:     -0.186D-02-0.893D-02-0.575D-02 0.556D-01 0.801D-03-0.371D+00
 Coeff:     -0.223D+00 0.155D+01
 Gap=     0.044 Goal=   None    Shift=    0.000
 Gap=     0.052 Goal=   None    Shift=    0.000
 RMSDP=8.44D-08 MaxDP=8.75D-06 DE=-3.25D-11 OVMax= 1.39D-05

 Cycle  35  Pass 1  IDiag  1:
 RMSU=  1.25D-08    CP:  1.00D+00  2.01D+00  2.53D+00  3.00D+00  3.00D+00
                    CP:  1.14D+00  1.25D+00  2.17D+00  1.80D+00  1.77D+00
                    CP:  2.06D+00  2.53D+00  3.00D+00  2.09D+00
 E= -1136.06228060693     Delta-E=       -0.000000000007 Rises=F Damp=F
 DIIS: error= 1.48D-08 at cycle  35 NSaved=  20.
 NSaved=20 IEnMin=20 EnMin= -1136.06228060693     IErMin=20 ErrMin= 1.48D-08
 ErrMax= 1.48D-08  0.00D+00 EMaxC= 1.00D-01 BMatC= 8.75D-14 BMatP= 4.22D-13
 IDIUse=1 WtCom= 1.00D+00 WtEn= 0.00D+00
 Coeff-Com:  0.818D-08-0.643D-05 0.191D-04-0.473D-05-0.260D-04 0.201D-04
 Coeff-Com:  0.152D-03 0.148D-03-0.570D-03 0.410D-03 0.961D-03 0.290D-04
 Coeff-Com: -0.272D-02-0.457D-02 0.148D-01 0.208D-01-0.586D-02-0.316D+00
 Coeff-Com:  0.148D+00 0.114D+01
 Coeff:      0.818D-08-0.643D-05 0.191D-04-0.473D-05-0.260D-04 0.201D-04
 Coeff:      0.152D-03 0.148D-03-0.570D-03 0.410D-03 0.961D-03 0.290D-04
 Coeff:     -0.272D-02-0.457D-02 0.148D-01 0.208D-01-0.586D-02-0.316D+00
 Coeff:      0.148D+00 0.114D+01
 Gap=     0.044 Goal=   None    Shift=    0.000
 Gap=     0.052 Goal=   None    Shift=    0.000
 RMSDP=3.50D-08 MaxDP=3.21D-06 DE=-6.82D-12 OVMax= 5.63D-06

 Cycle  36  Pass 1  IDiag  1:
 RMSU=  8.47D-09    CP:  1.00D+00  2.01D+00  2.53D+00  3.00D+00  3.00D+00
                    CP:  1.14D+00  1.25D+00  2.17D+00  1.81D+00  1.76D+00
                    CP:  2.16D+00  2.75D+00  3.00D+00  2.72D+00  2.18D+00
 E= -1136.06228060693     Delta-E=       -0.000000000001 Rises=F Damp=F
 DIIS: error= 4.10D-09 at cycle  36 NSaved=  20.
 NSaved=20 IEnMin=20 EnMin= -1136.06228060693     IErMin=20 ErrMin= 4.10D-09
 ErrMax= 4.10D-09  0.00D+00 EMaxC= 1.00D-01 BMatC= 9.11D-15 BMatP= 8.75D-14
 IDIUse=1 WtCom= 1.00D+00 WtEn= 0.00D+00
 Coeff-Com: -0.204D-05 0.379D-05 0.544D-06 0.681D-05 0.483D-04 0.103D-04
 Coeff-Com: -0.183D-03 0.758D-04 0.255D-04-0.168D-03 0.161D-03 0.114D-02
 Coeff-Com:  0.102D-02-0.873D-02 0.594D-02 0.526D-01-0.302D-01-0.180D+00
 Coeff-Com:  0.180D+00 0.978D+00
 Coeff:     -0.204D-05 0.379D-05 0.544D-06 0.681D-05 0.483D-04 0.103D-04
 Coeff:     -0.183D-03 0.758D-04 0.255D-04-0.168D-03 0.161D-03 0.114D-02
 Coeff:      0.102D-02-0.873D-02 0.594D-02 0.526D-01-0.302D-01-0.180D+00
 Coeff:      0.180D+00 0.978D+00
 Gap=     0.044 Goal=   None    Shift=    0.000
 Gap=     0.052 Goal=   None    Shift=    0.000
 RMSDP=8.37D-09 MaxDP=7.81D-07 DE=-1.14D-12 OVMax= 1.33D-06

 SCF Done:  E(UB3LYP) =  -1136.06228061     A.U. after   36 cycles
            NFock= 36  Conv=0.84D-08     -V/T= 2.0029
 <Sx>= 0.0000 <Sy>= 0.0000 <Sz>= 0.5000 <S**2>= 1.7632 S= 0.9189
 <L.S>= 0.000000000000E+00
 KE= 1.132809026414D+03 PE=-2.989194223422D+03 EE= 5.899304513797D+02
 Annihilation of the first spin contaminant:
 S**2 before annihilation     1.7632,   after     0.7940
 Leave Link  502 at Thu Nov 23 12:43:40 2023, MaxMem=   104857600 cpu:             909.3 elap:             733.0
 (Enter /home/sekinelabo/g16/l601.exe)
 Copying SCF densities to generalized density rwf, IOpCl= 1 IROHF=0.

 **********************************************************************

            Population analysis using the SCF Density.

 **********************************************************************

 Orbital symmetries:
 Alpha Orbitals:
       Occupied  (A) (A) (A) (A) (A) (A) (A) (A) (A) (A) (A) (A)
                 (A) (A) (A) (A) (A) (A) (A) (A) (A) (A) (A) (A)
                 (A) (A) (A) (A) (A) (A) (A) (A) (A) (A) (A) (A)
                 (A) (A) (A)
       Virtual   (A) (A) (A) (A) (A) (A) (A) (A) (A) (A) (A) (A)
                 (A) (A) (A) (A) (A) (A) (A) (A) (A) (A) (A) (A)
                 (A) (A) (A) (A) (A) (A) (A) (A) (A) (A) (A) (A)
                 (A) (A) (A) (A) (A) (A) (A) (A) (A) (A) (A) (A)
                 (A) (A) (A) (A) (A) (A) (A) (A) (A) (A) (A) (A)
                 (A) (A) (A) (A) (A) (A) (A) (A) (A) (A) (A) (A)
                 (A) (A) (A) (A) (A) (A) (A) (A) (A) (A) (A) (A)
                 (A) (A) (A) (A) (A) (A) (A) (A) (A) (A) (A) (A)
                 (A) (A) (A) (A) (A) (A) (A) (A) (A) (A) (A) (A)
                 (A) (A) (A) (A) (A) (A) (A) (A) (A) (A) (A) (A)
                 (A) (A) (A) (A) (A) (A) (A) (A) (A) (A) (A) (A)
                 (A) (A) (A) (A) (A) (A) (A) (A) (A) (A) (A) (A)
                 (A) (A) (A) (A) (A) (A) (A) (A) (A) (A) (A) (A)
                 (A) (A) (A) (A) (A) (A) (A) (A) (A) (A) (A) (A)
                 (A) (A) (A)
 Beta  Orbitals:
       Occupied  (A) (A) (A) (A) (A) (A) (A) (A) (A) (A) (A) (A)
                 (A) (A) (A) (A) (A) (A) (A) (A) (A) (A) (A) (A)
                 (A) (A) (A) (A) (A) (A) (A) (A) (A) (A) (A) (A)
                 (A) (A)
       Virtual   (A) (A) (A) (A) (A) (A) (A) (A) (A) (A) (A) (A)
                 (A) (A) (A) (A) (A) (A) (A) (A) (A) (A) (A) (A)
                 (A) (A) (A) (A) (A) (A) (A) (A) (A) (A) (A) (A)
                 (A) (A) (A) (A) (A) (A) (A) (A) (A) (A) (A) (A)
                 (A) (A) (A) (A) (A) (A) (A) (A) (A) (A) (A) (A)
                 (A) (A) (A) (A) (A) (A) (A) (A) (A) (A) (A) (A)
                 (A) (A) (A) (A) (A) (A) (A) (A) (A) (A) (A) (A)
                 (A) (A) (A) (A) (A) (A) (A) (A) (A) (A) (A) (A)
                 (A) (A) (A) (A) (A) (A) (A) (A) (A) (A) (A) (A)
                 (A) (A) (A) (A) (A) (A) (A) (A) (A) (A) (A) (A)
                 (A) (A) (A) (A) (A) (A) (A) (A) (A) (A) (A) (A)
                 (A) (A) (A) (A) (A) (A) (A) (A) (A) (A) (A) (A)
                 (A) (A) (A) (A) (A) (A) (A) (A) (A) (A) (A) (A)
                 (A) (A) (A) (A) (A) (A) (A) (A) (A) (A) (A) (A)
                 (A) (A) (A) (A)
 The electronic state is 2-A.
 Alpha  occ. eigenvalues --  -38.46096 -38.45767 -38.45767 -38.44637 -38.44630
 Alpha  occ. eigenvalues --  -38.44448 -38.44365  -2.21725  -2.21554  -2.21552
 Alpha  occ. eigenvalues --   -2.20458  -2.20354  -2.20183  -2.20177  -1.15446
 Alpha  occ. eigenvalues --   -1.15446  -1.15432  -1.15165  -1.15165  -1.15165
 Alpha  occ. eigenvalues --   -1.15165  -1.15165  -1.15165  -1.14263  -1.14103
 Alpha  occ. eigenvalues --   -1.14090  -1.14032  -1.14031  -1.13987  -1.13864
 Alpha  occ. eigenvalues --   -1.13861  -1.13824  -1.13817  -1.13789  -1.13784
 Alpha  occ. eigenvalues --   -0.14100  -0.12841  -0.12756  -0.12288
 Alpha virt. eigenvalues --   -0.07908  -0.06520  -0.04259  -0.02997  -0.02732
 Alpha virt. eigenvalues --   -0.02423  -0.02209  -0.02209  -0.02117  -0.01963
 Alpha virt. eigenvalues --   -0.01963  -0.01799  -0.01581  -0.01060  -0.00635
 Alpha virt. eigenvalues --   -0.00464  -0.00335   0.00062   0.00513   0.00574
 Alpha virt. eigenvalues --    0.00635   0.00672   0.00696   0.01134   0.01215
 Alpha virt. eigenvalues --    0.01289   0.01289   0.01361   0.01474   0.01587
 Alpha virt. eigenvalues --    0.01587   0.01620   0.01712   0.01740   0.01841
 Alpha virt. eigenvalues --    0.01949   0.01963   0.02047   0.02148   0.02327
 Alpha virt. eigenvalues --    0.02670   0.02761   0.02772   0.03028   0.03164
 Alpha virt. eigenvalues --    0.03241   0.03603   0.03641   0.03934   0.04314
 Alpha virt. eigenvalues --    0.04919   0.05796   0.07159   0.07249   0.07285
 Alpha virt. eigenvalues --    0.07285   0.07313   0.07404   0.07690   0.07826
 Alpha virt. eigenvalues --    0.07826   0.07994   0.08068   0.08222   0.08251
 Alpha virt. eigenvalues --    0.08569   0.08715   0.08833   0.08968   0.09299
 Alpha virt. eigenvalues --    0.09498   0.09783   0.09836   0.10689   0.11286
 Alpha virt. eigenvalues --    0.12008   0.12271   0.13116   0.14937   0.17012
 Alpha virt. eigenvalues --    0.28827   0.29247   0.30521   0.31066   0.32005
 Alpha virt. eigenvalues --    0.32453   0.32947   0.33227   0.33227   0.33227
 Alpha virt. eigenvalues --    0.33227   0.33230   0.33230   0.33235   0.33235
 Alpha virt. eigenvalues --    0.33250   0.33331   0.34022   0.34609   0.34869
 Alpha virt. eigenvalues --    0.34884   0.34967   0.35263   0.35524   0.36682
 Alpha virt. eigenvalues --    0.36753   0.38414   0.38846   0.39709   0.41826
 Alpha virt. eigenvalues --    0.41826   0.41954   0.42104   0.42176   0.42176
 Alpha virt. eigenvalues --    0.42475   0.42636   0.42641   0.43041   0.43234
 Alpha virt. eigenvalues --    0.43421   0.43627   0.43889   0.44143   0.45018
 Alpha virt. eigenvalues --    0.45278   0.45295   0.46218   0.46283   0.47963
 Alpha virt. eigenvalues --    0.49851   0.50377   0.50987   0.53955   0.57225
 Alpha virt. eigenvalues --    0.77475   1.98503   1.99777   2.00705   2.03590
 Alpha virt. eigenvalues --    2.06848   2.11297   2.13710   4.42292   4.42594
 Alpha virt. eigenvalues --    4.42663   4.42716   4.42716   4.42902   4.42999
 Alpha virt. eigenvalues --    4.42999   4.43055   4.43212   4.43326   4.44262
 Alpha virt. eigenvalues --    4.44354   4.44478   4.45001   4.45421   4.46190
 Alpha virt. eigenvalues --    4.46739   4.48228   4.50597   4.71361  96.17501
 Alpha virt. eigenvalues --   96.19005  96.19472  96.22952  96.27017  96.32222
 Alpha virt. eigenvalues --   96.36978
  Beta  occ. eigenvalues --  -38.46267 -38.45582 -38.45582 -38.44645 -38.44627
  Beta  occ. eigenvalues --  -38.44439 -38.44392  -2.22045  -2.21208  -2.21206
  Beta  occ. eigenvalues --   -2.20435  -2.20382  -2.20227  -2.20166  -1.15663
  Beta  occ. eigenvalues --   -1.15663  -1.15649  -1.14931  -1.14931  -1.14931
  Beta  occ. eigenvalues --   -1.14931  -1.14930  -1.14930  -1.14272  -1.14085
  Beta  occ. eigenvalues --   -1.14076  -1.14050  -1.14050  -1.14004  -1.13858
  Beta  occ. eigenvalues --   -1.13852  -1.13851  -1.13848  -1.13808  -1.13782
  Beta  occ. eigenvalues --   -0.14511  -0.13099  -0.12109
  Beta virt. eigenvalues --   -0.06871  -0.06354  -0.06224  -0.04736  -0.03168
  Beta virt. eigenvalues --   -0.02987  -0.02494  -0.02155  -0.01822  -0.01411
  Beta virt. eigenvalues --   -0.01158  -0.00513  -0.00415  -0.00334  -0.00333
  Beta virt. eigenvalues --    0.00115   0.00115   0.00325   0.00349   0.00458
  Beta virt. eigenvalues --    0.00564   0.00643   0.00774   0.01093   0.01135
  Beta virt. eigenvalues --    0.01233   0.01311   0.01496   0.01629   0.01717
  Beta virt. eigenvalues --    0.01763   0.01801   0.01950   0.02035   0.02140
  Beta virt. eigenvalues --    0.02143   0.02218   0.02362   0.02362   0.02424
  Beta virt. eigenvalues --    0.02565   0.02696   0.02713   0.02752   0.02974
  Beta virt. eigenvalues --    0.03143   0.03186   0.03571   0.03598   0.03701
  Beta virt. eigenvalues --    0.04277   0.04852   0.05619   0.06957   0.07268
  Beta virt. eigenvalues --    0.07459   0.07619   0.07789   0.08001   0.08120
  Beta virt. eigenvalues --    0.08295   0.08465   0.08544   0.08657   0.08779
  Beta virt. eigenvalues --    0.08781   0.08798   0.09132   0.09317   0.09317
  Beta virt. eigenvalues --    0.09493   0.09598   0.09681   0.10606   0.11107
  Beta virt. eigenvalues --    0.11213   0.11807   0.11914   0.13123   0.14892
  Beta virt. eigenvalues --    0.16901   0.28596   0.29151   0.30439   0.30978
  Beta virt. eigenvalues --    0.31925   0.32305   0.32615   0.33046   0.33155
  Beta virt. eigenvalues --    0.33440   0.33504   0.34231   0.34607   0.34760
  Beta virt. eigenvalues --    0.35327   0.35327   0.35327   0.35327   0.35329
  Beta virt. eigenvalues --    0.35329   0.35333   0.35334   0.35343   0.35417
  Beta virt. eigenvalues --    0.36437   0.36742   0.37917   0.38769   0.39596
  Beta virt. eigenvalues --    0.41788   0.41966   0.42319   0.42696   0.43098
  Beta virt. eigenvalues --    0.43248   0.43248   0.43374   0.43374   0.43479
  Beta virt. eigenvalues --    0.43608   0.43608   0.43838   0.44053   0.44121
  Beta virt. eigenvalues --    0.44967   0.45284   0.45330   0.45865   0.46235
  Beta virt. eigenvalues --    0.47926   0.49825   0.50376   0.50972   0.53846
  Beta virt. eigenvalues --    0.57210   0.77466   1.99374   2.00360   2.00643
  Beta virt. eigenvalues --    2.03130   2.06836   2.11291   2.13675   4.42234
  Beta virt. eigenvalues --    4.42442   4.42480   4.42867   4.43033   4.43033
  Beta virt. eigenvalues --    4.43219   4.43294   4.43316   4.43316   4.43529
  Beta virt. eigenvalues --    4.44212   4.44329   4.44459   4.44938   4.45392
  Beta virt. eigenvalues --    4.46178   4.46729   4.48216   4.50592   4.71346
  Beta virt. eigenvalues --   96.17770  96.19274  96.19375  96.22797  96.27010
  Beta virt. eigenvalues --   96.32219  96.36963
          Condensed to atoms (all electrons):
               1          2          3          4          5          6
     1  Na  10.717992   0.000000   0.349591  -0.066557  -0.068579  -0.005340
     2  Na   0.000000  11.006836   0.000000   0.000000   0.000000   0.000000
     3  Na   0.349591   0.000000  11.016390   0.064082  -0.198796  -0.036827
     4  Na  -0.066557   0.000000   0.064082  10.731143   0.249977  -0.081638
     5  Na  -0.068579   0.000000  -0.198796   0.249977  10.972603   0.062510
     6  Na  -0.005340   0.000000  -0.036827  -0.081638   0.062510  11.025027
     7  Na   0.000000  -0.006836   0.000000   0.000000   0.000000   0.000000
               7
     1  Na   0.000000
     2  Na  -0.006836
     3  Na   0.000000
     4  Na   0.000000
     5  Na   0.000000
     6  Na   0.000000
     7  Na  11.006836
          Atomic-Atomic Spin Densities.
               1          2          3          4          5          6
     1  Na  -0.067983   0.000000  -0.007514   0.006034  -0.002629  -0.001547
     2  Na   0.000000   1.006170   0.000000   0.000000   0.000000   0.000000
     3  Na  -0.007514   0.000000   0.061396   0.006412  -0.017433  -0.005355
     4  Na   0.006034   0.000000   0.006412  -0.146032  -0.029246   0.045267
     5  Na  -0.002629   0.000000  -0.017433  -0.029246   0.111205   0.003244
     6  Na  -0.001547   0.000000  -0.005355   0.045267   0.003244  -0.953055
     7  Na   0.000000  -0.006170   0.000000   0.000000   0.000000   0.000000
               7
     1  Na   0.000000
     2  Na  -0.006170
     3  Na   0.000000
     4  Na   0.000000
     5  Na   0.000000
     6  Na   0.000000
     7  Na   1.006170
 Mulliken charges and spin densities:
               1          2
     1  Na   0.072894  -0.073638
     2  Na  -0.000000   1.000000
     3  Na  -0.194440   0.037506
     4  Na   0.102993  -0.117564
     5  Na  -0.017715   0.065142
     6  Na   0.036268  -0.911446
     7  Na   0.000000   1.000000
 Sum of Mulliken charges =  -0.00000   1.00000
 Mulliken charges and spin densities with hydrogens summed into heavy atoms:
               1          2
     1  Na   0.072894  -0.073638
     2  Na  -0.000000   1.000000
     3  Na  -0.194440   0.037506
     4  Na   0.102993  -0.117564
     5  Na  -0.017715   0.065142
     6  Na   0.036268  -0.911446
     7  Na   0.000000   1.000000
 Electronic spatial extent (au):  <R**2>=         528970.9996
 Charge=             -0.0000 electrons
 Dipole moment (field-independent basis, Debye):
    X=              0.4458    Y=             -0.7755    Z=             -0.2053  Tot=              0.9177
 Quadrupole moment (field-independent basis, Debye-Ang):
   XX=            -48.8360   YY=            -59.0368   ZZ=            -75.8207
   XY=            -19.6884   XZ=             -7.7411   YZ=              2.6625
 Traceless Quadrupole moment (field-independent basis, Debye-Ang):
   XX=             12.3951   YY=              2.1944   ZZ=            -14.5895
   XY=            -19.6884   XZ=             -7.7411   YZ=              2.6625
 Octapole moment (field-independent basis, Debye-Ang**2):
  XXX=           1563.5742  YYY=             50.9769  ZZZ=              2.0257  XYY=            641.6885
  XXY=           -484.4538  XXZ=           -270.5813  XZZ=            112.6455  YZZ=             -9.1615
  YYZ=             -5.6567  XYZ=             76.7227
 Hexadecapole moment (field-independent basis, Debye-Ang**3):
 XXXX=        -846513.4918 YYYY=          -7142.9051 ZZZZ=           -743.9713 XXXY=         -11098.0561
 XXXZ=          -9054.0082 YYYX=           1783.8025 YYYZ=              7.8557 ZZZX=             32.8659
 ZZZY=             24.3096 XXYY=        -134613.1301 XXZZ=        -149399.9262 YYZZ=          -1494.2235
 XXYZ=           2200.3029 YYXZ=           -229.0576 ZZXY=           -265.0620
 N-N= 1.303924650210D+02 E-N=-2.989194223116D+03  KE= 1.132809026414D+03
                          Isotropic Fermi Contact Couplings
        Atom                 a.u.       MegaHertz       Gauss      10(-4) cm-1
     1  Na(23)            -0.06418     -75.92710     -27.09268     -25.32655
     2  Na(23)             0.79374     939.01900     335.06533     313.22302
     3  Na(23)             0.04309      50.97523      18.18923      17.00351
     4  Na(23)            -0.12113    -143.30319     -51.13414     -47.80080
     5  Na(23)             0.07705      91.15640      32.52687      30.40650
     6  Na(23)            -0.73203    -866.01616    -309.01610    -288.87190
     7  Na(23)             0.79374     939.01900     335.06533     313.22302
 --------------------------------------------------------
       Center         ----  Spin Dipole Couplings  ----
                      3XX-RR        3YY-RR        3ZZ-RR
 --------------------------------------------------------
     1   Atom       -0.000070      0.000680     -0.000610
     2   Atom       -0.000181      0.000387     -0.000206
     3   Atom        0.000944     -0.003790      0.002847
     4   Atom       -0.002340      0.004843     -0.002503
     5   Atom        0.005024     -0.012871      0.007847
     6   Atom        0.000019     -0.000021      0.000002
     7   Atom       -0.000181      0.000387     -0.000206
 --------------------------------------------------------
                        XY            XZ            YZ
 --------------------------------------------------------
     1   Atom        0.000873     -0.000014     -0.000059
     2   Atom       -0.000125     -0.000005      0.000022
     3   Atom       -0.004132      0.001122      0.001792
     4   Atom       -0.000987     -0.000218     -0.000131
     5   Atom        0.013783      0.006371     -0.010674
     6   Atom       -0.000182     -0.000097      0.000176
     7   Atom       -0.000126     -0.000005      0.000022
 --------------------------------------------------------


 ---------------------------------------------------------------------------------
              Anisotropic Spin Dipole Couplings in Principal Axis System
 ---------------------------------------------------------------------------------

       Atom             a.u.   MegaHertz   Gauss  10(-4) cm-1        Axes

              Baa    -0.0007    -0.092    -0.033    -0.031  0.7471 -0.5075 -0.4292
     1 Na(23) Bbb    -0.0006    -0.085    -0.030    -0.028  0.3740 -0.2129  0.9027
              Bcc     0.0013     0.177     0.063     0.059  0.5495  0.8349 -0.0308
 
              Baa    -0.0002    -0.029    -0.010    -0.010  0.9779  0.2074 -0.0276
     2 Na(23) Bbb    -0.0002    -0.029    -0.010    -0.010  0.0345 -0.0295  0.9990
              Bcc     0.0004     0.059     0.021     0.020 -0.2064  0.9778  0.0360
 
              Baa    -0.0067    -0.940    -0.335    -0.313  0.4909  0.8437 -0.2171
     3 Na(23) Bbb     0.0033     0.460     0.164     0.153 -0.4791  0.4695  0.7417
              Bcc     0.0034     0.480     0.171     0.160  0.7277 -0.2601  0.6347
 
              Baa    -0.0027    -0.384    -0.137    -0.128  0.6755  0.1008  0.7305
     4 Na(23) Bbb    -0.0023    -0.318    -0.114    -0.106  0.7252  0.0882 -0.6828
              Bcc     0.0050     0.703     0.251     0.234 -0.1333  0.9910 -0.0135
 
              Baa    -0.0250    -3.537    -1.262    -1.180 -0.4506  0.8198  0.3533
     5 Na(23) Bbb     0.0121     1.702     0.607     0.568 -0.5109 -0.5614  0.6510
              Bcc     0.0130     1.835     0.655     0.612  0.7321  0.1129  0.6718
 
              Baa    -0.0002    -0.031    -0.011    -0.010  0.4249  0.7891 -0.4436
     6 Na(23) Bbb    -0.0001    -0.012    -0.004    -0.004  0.6995  0.0249  0.7142
              Bcc     0.0003     0.043     0.015     0.014 -0.5746  0.6137  0.5414
 
              Baa    -0.0002    -0.029    -0.010    -0.010  0.9779  0.2074 -0.0247
     7 Na(23) Bbb    -0.0002    -0.029    -0.010    -0.010  0.0316 -0.0301  0.9990
              Bcc     0.0004     0.059     0.021     0.020 -0.2064  0.9778  0.0360
 

 ---------------------------------------------------------------------------------

 No NMR shielding tensors so no spin-rotation constants.
 Leave Link  601 at Thu Nov 23 12:43:43 2023, MaxMem=   104857600 cpu:              13.5 elap:               2.7
 (Enter /home/sekinelabo/g16/l701.exe)
 ... and contract with generalized density number  0.
 Compute integral first derivatives.
 Leave Link  701 at Thu Nov 23 12:43:44 2023, MaxMem=   104857600 cpu:               7.3 elap:               1.5
 (Enter /home/sekinelabo/g16/l702.exe)
 L702 exits ... SP integral derivatives will be done elsewhere.
 Leave Link  702 at Thu Nov 23 12:43:45 2023, MaxMem=   104857600 cpu:               0.5 elap:               0.1
 (Enter /home/sekinelabo/g16/l703.exe)
 Integral derivatives from FoFJK, PRISM(SPDF).
 Compute integral first derivatives, UseDBF=F ICtDFT=           0.
 Calling FoFJK, ICntrl=      2127 FMM=F ISym2X=0 I1Cent= 0 IOpClX= 1 NMat=1 NMatS=1 NMatT=0.
 FoFJK:  IHMeth= 1 ICntrl=    2127 DoSepK=F KAlg= 0 I1Cent=           0 FoldK=F
 IRaf=         0 NMat=       1 IRICut=       1 DoRegI=T DoRafI=F ISym2E= 0 IDoP0=0 IntGTp=1.
 FoFCou: FMM=F IPFlag=           0 FMFlag=      100000 FMFlg1=         800
         NFxFlg=           0 DoJE=F BraDBF=F KetDBF=F FulRan=T
         wScrn=  0.000000 ICntrl=      2127 IOpCl=  1 I1Cent=           0 NGrid=           0
         NMat0=    1 NMatS0=      1 NMatT0=    0 NMatD0=    1 NMtDS0=    0 NMtDT0=    0
 Symmetry not used in FoFCou.
 Leave Link  703 at Thu Nov 23 12:43:48 2023, MaxMem=   104857600 cpu:              19.6 elap:               3.8
 (Enter /home/sekinelabo/g16/l716.exe)
 Dipole        = 1.75382164D-01-3.05103567D-01-8.07739374D-02
 ***** Axes restored to original set *****
 -------------------------------------------------------------------
 Center     Atomic                   Forces (Hartrees/Bohr)
 Number     Number              X              Y              Z
 -------------------------------------------------------------------
      1       11          -0.005049897    0.001657611    0.002873205
      2       11           0.000006554   -0.000001864    0.000001525
      3       11           0.003732610   -0.002030610   -0.002274591
      4       11           0.006904367   -0.001756929    0.000947937
      5       11          -0.006226530    0.003279234   -0.002639022
      6       11           0.000639449   -0.001149306    0.001092471
      7       11          -0.000006554    0.000001864   -0.000001525
 -------------------------------------------------------------------
 Cartesian Forces:  Max     0.006904367 RMS     0.002851904
 Z-matrix is all fixed cartesians, so copy forces.
 Force constants in Cartesian coordinates: 
                1             2             3             4             5 
      1  0.700144D-01
      2  0.229064D+00  0.942753D+00
      3 -0.135955D-01 -0.253558D-01  0.453176D-02
      4  0.000000D+00  0.000000D+00  0.000000D+00  0.100000D+01
      5  0.000000D+00  0.000000D+00  0.000000D+00  0.000000D+00  0.100000D+01
      6  0.000000D+00  0.000000D+00  0.000000D+00  0.000000D+00  0.000000D+00
      7 -0.122934D-01  0.404537D-02  0.676580D-02  0.000000D+00  0.000000D+00
      8  0.404537D-02 -0.133121D-02 -0.222642D-02  0.000000D+00  0.000000D+00
      9  0.676580D-02 -0.222642D-02 -0.372364D-02  0.000000D+00  0.000000D+00
     10  0.000000D+00  0.000000D+00  0.000000D+00  0.000000D+00  0.000000D+00
     11  0.000000D+00  0.000000D+00  0.000000D+00  0.000000D+00  0.000000D+00
     12  0.000000D+00  0.000000D+00  0.000000D+00  0.000000D+00  0.000000D+00
     13  0.000000D+00  0.000000D+00  0.000000D+00  0.000000D+00  0.000000D+00
     14  0.000000D+00  0.000000D+00  0.000000D+00  0.000000D+00  0.000000D+00
     15  0.000000D+00  0.000000D+00  0.000000D+00  0.000000D+00  0.000000D+00
     16  0.000000D+00  0.000000D+00  0.000000D+00  0.000000D+00  0.000000D+00
     17  0.000000D+00  0.000000D+00  0.000000D+00  0.000000D+00  0.000000D+00
     18  0.000000D+00  0.000000D+00  0.000000D+00  0.000000D+00  0.000000D+00
     19  0.000000D+00  0.000000D+00  0.000000D+00  0.000000D+00  0.000000D+00
     20  0.000000D+00  0.000000D+00  0.000000D+00  0.000000D+00  0.000000D+00
     21  0.000000D+00  0.000000D+00  0.000000D+00  0.000000D+00  0.000000D+00
                6             7             8             9            10 
      6  0.100000D+01
      7  0.000000D+00  0.700144D-01
      8  0.000000D+00  0.229064D+00  0.942753D+00
      9  0.000000D+00 -0.135955D-01 -0.253558D-01  0.453176D-02
     10  0.000000D+00  0.000000D+00  0.000000D+00  0.000000D+00  0.406384D-01
     11  0.000000D+00  0.000000D+00  0.000000D+00  0.000000D+00 -0.136846D-01
     12  0.000000D+00  0.000000D+00  0.000000D+00  0.000000D+00  0.101022D-01
     13  0.000000D+00  0.000000D+00  0.000000D+00  0.000000D+00 -0.406384D-01
     14  0.000000D+00  0.000000D+00  0.000000D+00  0.000000D+00  0.136846D-01
     15  0.000000D+00  0.000000D+00  0.000000D+00  0.000000D+00 -0.101022D-01
     16  0.000000D+00  0.000000D+00  0.000000D+00  0.000000D+00  0.000000D+00
     17  0.000000D+00  0.000000D+00  0.000000D+00  0.000000D+00  0.000000D+00
     18  0.000000D+00  0.000000D+00  0.000000D+00  0.000000D+00  0.000000D+00
     19  0.000000D+00  0.000000D+00  0.000000D+00  0.000000D+00  0.000000D+00
     20  0.000000D+00  0.000000D+00  0.000000D+00  0.000000D+00  0.000000D+00
     21  0.000000D+00  0.000000D+00  0.000000D+00  0.000000D+00  0.000000D+00
               11            12            13            14            15 
     11  0.460814D-02
     12 -0.340181D-02  0.251127D-02
     13  0.136846D-01 -0.101022D-01  0.406384D-01
     14 -0.460814D-02  0.340181D-02 -0.136846D-01  0.460814D-02
     15  0.340181D-02 -0.251127D-02  0.101022D-01 -0.340181D-02  0.251127D-02
     16  0.000000D+00  0.000000D+00  0.000000D+00  0.000000D+00  0.000000D+00
     17  0.000000D+00  0.000000D+00  0.000000D+00  0.000000D+00  0.000000D+00
     18  0.000000D+00  0.000000D+00  0.000000D+00  0.000000D+00  0.000000D+00
     19  0.000000D+00  0.000000D+00  0.000000D+00  0.000000D+00  0.000000D+00
     20  0.000000D+00  0.000000D+00  0.000000D+00  0.000000D+00  0.000000D+00
     21  0.000000D+00  0.000000D+00  0.000000D+00  0.000000D+00  0.000000D+00
               16            17            18            19            20 
     16  0.100000D+01
     17  0.000000D+00  0.100000D+01
     18  0.000000D+00  0.000000D+00  0.100000D+01
     19  0.000000D+00  0.000000D+00  0.000000D+00  0.100000D+01
     20  0.000000D+00  0.000000D+00  0.000000D+00  0.000000D+00  0.100000D+01
     21  0.000000D+00  0.000000D+00  0.000000D+00  0.000000D+00  0.000000D+00
               21 
     21  0.100000D+01
 Leave Link  716 at Thu Nov 23 12:43:49 2023, MaxMem=   104857600 cpu:               0.7 elap:               0.2
 (Enter /home/sekinelabo/g16/l103.exe)

 GradGradGradGradGradGradGradGradGradGradGradGradGradGradGradGradGradGrad
 Berny optimization.
 Search for a local minimum.
 Step number   1 out of a maximum of    2
 All quantities printed in internal units (Hartrees-Bohrs-Radians)
 Second derivative matrix not updated -- first step.
 ITU=  0
     Eigenvalues ---   -0.00000   0.00000   0.00009   0.00278   0.03442
     Eigenvalues ---    0.05476   0.09552   0.43237   0.57149   0.79793
     Eigenvalues ---    0.99999   1.00000   1.00000   1.00000   1.00005
 Eigenvalue     1 is  -2.22D-16 should be greater than     0.000000 Eigenvector:
                          X3        Z3        Y4        X5        Z1
   1                    0.46082   0.44170   0.42686  -0.39042  -0.35988
                          Y5        X4        Y3        Z4        X1
   1                   -0.30382  -0.11616  -0.10117  -0.09765   0.04576
 Eigenvalue     2 is   0.00D+00 Eigenvector:
                          Z4        Z5        Z1        Z3        X5
   1                    0.57998  -0.57900  -0.28396   0.28298   0.28048
                          X1        Y4        X4        Y5        Y1
   1                   -0.25512  -0.11024  -0.06382   0.05662   0.05485
 Eigenvalue     3 is   9.35D-05 Eigenvector:
                          Z3        Z4        X1        Y4        Y5
   1                    0.56095  -0.55655  -0.34809  -0.34108   0.22489
                          X5        X4        Z1        Z5        Y1
   1                    0.19581   0.16434  -0.08719   0.08353   0.08342
 Quadratic step=1.066D+01 exceeds max=3.000D-01 adjusted using Lamda=-5.782D-03.
 Angle between NR and scaled steps=  50.93 degrees.
 Angle between quadratic step and forces=  45.04 degrees.
 Linear search not attempted -- first point.
 B after Tr=     0.000000    0.000000    0.000000
         Rot=    1.000000   -0.000000   -0.000000   -0.000000 Ang=   0.00 deg.
 Variable       Old X    -DE/DX   Delta X   Delta X   Delta X     New X
                                 (Linear)    (Quad)   (Total)
    X1       23.31960  -0.00505   0.00000  -0.16781  -0.16781  23.15179
    Y1        1.51194   0.00166   0.00000   0.04420   0.04420   1.55614
    Z1        1.16943   0.00287   0.00000   0.14147   0.14147   1.31090
    X2       19.54128   0.00001   0.00000   0.00373   0.00373  19.54501
    Y2        6.65979  -0.00000   0.00000   0.00046   0.00046   6.66025
    Z2      188.54270   0.00000   0.00000   0.00015   0.00015 188.54285
    X3       17.67210   0.00373   0.00000   0.05374   0.05374  17.72584
    Y3        3.37036  -0.00203   0.00000  -0.01520  -0.01520   3.35516
    Z3        4.27760  -0.00227   0.00000   0.00519   0.00519   4.28279
    X4       11.04422   0.00690   0.00000   0.09416   0.09416  11.13839
    Y4        0.79227  -0.00176   0.00000  -0.09896  -0.09896   0.69331
    Z4        8.04421   0.00095   0.00000  -0.04296  -0.04296   8.00124
    X5        6.08203  -0.00623   0.00000   0.01158   0.01158   6.09361
    Y5        2.46324   0.00328   0.00000   0.07020   0.07020   2.53344
    Z5        6.81067  -0.00264   0.00000  -0.10582  -0.10582   6.70485
    X6        2.50995   0.00064   0.00000   0.00077   0.00077   2.51072
    Y6        8.36614  -0.00115   0.00000  -0.00179  -0.00179   8.36435
    Z6        1.20295   0.00109   0.00000   0.00155   0.00155   1.20450
    X7        3.56264  -0.00001   0.00000   0.00383   0.00383   3.56647
    Y7       11.13848   0.00000   0.00000   0.00110   0.00110  11.13958
    Z7      184.84413  -0.00000   0.00000   0.00042   0.00042 184.84454
         Item               Value     Threshold  Converged?
 Maximum Force            0.006904     0.000450     NO 
 RMS     Force            0.002852     0.000300     NO 
 Maximum Displacement     0.167810     0.001800     NO 
 RMS     Displacement     0.065493     0.001200     NO 
 Predicted change in Energy=-1.647070D-03
 GradGradGradGradGradGradGradGradGradGradGradGradGradGradGradGradGradGrad

 Leave Link  103 at Thu Nov 23 12:43:49 2023, MaxMem=   104857600 cpu:               2.8 elap:               0.6
 (Enter /home/sekinelabo/g16/l9999.exe)
 1\1\GINC-SEKINELABO-XA7R-R37\Force\UB3LYP\6-311+G(d)\Na7(2)\SEKINELABO
 \23-Nov-2023\0\\#P B3LYP/6-311+g(d) force\\DPGEN\\0,2\Na,12.3402,0.800
 086,0.618837\Na,10.3408,3.52421,99.7725\Na,9.35167,1.78352,2.26361\Na,
 5.84435,0.419251,4.25681\Na,3.21847,1.30349,3.60405\Na,1.32821,4.42717
 ,0.636573\Na,1.88527,5.89423,97.8153\\Version=ES64L-G16RevB.01\State=2
 -A\HF=-1136.0622806\S2=1.763174\S2-1=0.\S2A=0.794035\RMSD=8.367e-09\RM
 SF=2.852e-03\Dipole=-0.2762107,0.1463455,-0.1807268\Quadrupole=-0.0922
 492,-9.7345034,9.8267526,-4.245994,12.9307134,-8.5458744\PG=C01 [X(Na7
 )]\\@


 I (ERNEST RUTHERFORD) CAME INTO THE ROOM, WHICH WAS HALF DARK, AND PRESENTLY
 SPOTTED LORD KELVIN IN THE AUDIENCE AND REALIZED I WAS IN TROUBLE AT
 THE LAST PART OF MY SPEECH DEALING THE AGE OF THE EARTH, WHERE MY VIEWS
 CONFLICTED WITH HIS.  TO MY RELIEF KELVIN FELL FAST ASLEEP, BUT AS I CAME
 TO THE IMPORTANT POINT, I SAW THE OLD BIRD SIT UP AND COCK A BALEFUL GLANCE
 AT ME! THEN A SUDDEN INSPIRATION CAME AND I SAID LORD KELVIN HAD LIMITED
 THE AGE OF THE EARTH PROVIDED NO NEW SOURCE WAS DISCOVERED. THAT
 PROPHETIC UTTERANCE REFERS TO WHAT WE ARE NOW CONSIDERING TONIGHT, RADIUM!
 BEHOLD!  THE OLD BOY BEAMED UPON ME.
 Job cpu time:       0 days  0 hours 16 minutes 48.2 seconds.
 Elapsed time:       0 days  0 hours 13 minutes 28.9 seconds.
 File lengths (MBytes):  RWF=     46 Int=      0 D2E=      0 Chk=      4 Scr=      1
 Normal termination of Gaussian 16 at Thu Nov 23 12:43:49 2023.
