 Entering Gaussian System, Link 0=g16
 Initial command:
 /home/sekinelabo/g16/l1.exe "/home/sekinelabo/g16temp/Gau-708745.inp" -scrdir="/home/sekinelabo/g16temp/"
 Entering Link 1 = /home/sekinelabo/g16/l1.exe PID=    708747.
  
 Copyright (c) 1988-2017, Gaussian, Inc.  All Rights Reserved.
  
 This is part of the Gaussian(R) 16 program.  It is based on
 the Gaussian(R) 09 system (copyright 2009, Gaussian, Inc.),
 the Gaussian(R) 03 system (copyright 2003, Gaussian, Inc.),
 the Gaussian(R) 98 system (copyright 1998, Gaussian, Inc.),
 the Gaussian(R) 94 system (copyright 1995, Gaussian, Inc.),
 the Gaussian 92(TM) system (copyright 1992, Gaussian, Inc.),
 the Gaussian 90(TM) system (copyright 1990, Gaussian, Inc.),
 the Gaussian 88(TM) system (copyright 1988, Gaussian, Inc.),
 the Gaussian 86(TM) system (copyright 1986, Carnegie Mellon
 University), and the Gaussian 82(TM) system (copyright 1983,
 Carnegie Mellon University). Gaussian is a federally registered
 trademark of Gaussian, Inc.
  
 This software contains proprietary and confidential information,
 including trade secrets, belonging to Gaussian, Inc.
  
 This software is provided under written license and may be
 used, copied, transmitted, or stored only in accord with that
 written license.
  
 The following legend is applicable only to US Government
 contracts under FAR:
  
                    RESTRICTED RIGHTS LEGEND
  
 Use, reproduction and disclosure by the US Government is
 subject to restrictions as set forth in subparagraphs (a)
 and (c) of the Commercial Computer Software - Restricted
 Rights clause in FAR 52.227-19.
  
 Gaussian, Inc.
 340 Quinnipiac St., Bldg. 40, Wallingford CT 06492
  
  
 ---------------------------------------------------------------
 Warning -- This program may not be used in any manner that
 competes with the business of Gaussian, Inc. or will provide
 assistance to any competitor of Gaussian, Inc.  The licensee
 of this program is prohibited from giving any competitor of
 Gaussian, Inc. access to this program.  By using this program,
 the user acknowledges that Gaussian, Inc. is engaged in the
 business of creating and licensing software in the field of
 computational chemistry and represents and warrants to the
 licensee that it is not a competitor of Gaussian, Inc. and that
 it will not use this program in any manner prohibited above.
 ---------------------------------------------------------------
  

 Cite this work as:
 Gaussian 16, Revision B.01,
 M. J. Frisch, G. W. Trucks, H. B. Schlegel, G. E. Scuseria, 
 M. A. Robb, J. R. Cheeseman, G. Scalmani, V. Barone, 
 G. A. Petersson, H. Nakatsuji, X. Li, M. Caricato, A. V. Marenich, 
 J. Bloino, B. G. Janesko, R. Gomperts, B. Mennucci, H. P. Hratchian, 
 J. V. Ortiz, A. F. Izmaylov, J. L. Sonnenberg, D. Williams-Young, 
 F. Ding, F. Lipparini, F. Egidi, J. Goings, B. Peng, A. Petrone, 
 T. Henderson, D. Ranasinghe, V. G. Zakrzewski, J. Gao, N. Rega, 
 G. Zheng, W. Liang, M. Hada, M. Ehara, K. Toyota, R. Fukuda, 
 J. Hasegawa, M. Ishida, T. Nakajima, Y. Honda, O. Kitao, H. Nakai, 
 T. Vreven, K. Throssell, J. A. Montgomery, Jr., J. E. Peralta, 
 F. Ogliaro, M. J. Bearpark, J. J. Heyd, E. N. Brothers, K. N. Kudin, 
 V. N. Staroverov, T. A. Keith, R. Kobayashi, J. Normand, 
 K. Raghavachari, A. P. Rendell, J. C. Burant, S. S. Iyengar, 
 J. Tomasi, M. Cossi, J. M. Millam, M. Klene, C. Adamo, R. Cammi, 
 J. W. Ochterski, R. L. Martin, K. Morokuma, O. Farkas, 
 J. B. Foresman, and D. J. Fox, Gaussian, Inc., Wallingford CT, 2016.
 
 ******************************************
 Gaussian 16:  ES64L-G16RevB.01 20-Dec-2017
                 6-Oct-2023 
 ******************************************
 %NProcShared=16
 Will use up to   16 processors via shared memory.
 %mem=12GB
 %Chk=checkpoint.chk
 -------------------------
 #p B3LYP/6-311+g(d) force
 -------------------------
 1/10=7,30=1,38=1/1,3;
 2/12=2,17=6,18=5,40=1/2;
 3/5=4,6=6,7=11,11=2,25=1,30=1,71=1,74=-5/1,2,3;
 4//1;
 5/5=2,38=5/2;
 6/7=2,8=2,9=2,10=2,28=1/1;
 7/29=1/1,2,3,16;
 1/10=7,30=1/3;
 99//99;
 Leave Link    1 at Fri Oct  6 21:59:34 2023, MaxMem=  1610612736 cpu:               0.7 elap:               0.1
 (Enter /home/sekinelabo/g16/l101.exe)


 Symbolic Z-matrix:
 Charge =  0 Multiplicity = 1
 Na                    0.        0.        0. 
 Na                   -0.09408   0.       -3.62362 
 Na                    0.        0.        5.42338 
 Na                    2.38498  -3.7096    5.30415 
 
 ITRead=  0  0  0  0
 MicOpt= -1 -1 -1 -1
 NAtoms=      4 NQM=        4 NQMF=       0 NMMI=      0 NMMIF=      0
                NMic=       0 NMicF=      0.
                    Isotopes and Nuclear Properties:
 (Nuclear quadrupole moments (NQMom) in fm**2, nuclear magnetic moments (NMagM)
  in nuclear magnetons)

  Atom         1           2           3           4
 IAtWgt=          23          23          23          23
 AtmWgt=  22.9897697  22.9897697  22.9897697  22.9897697
 NucSpn=           3           3           3           3
 AtZEff=  -0.0000000  -0.0000000  -0.0000000  -0.0000000
 NQMom=   10.4000000  10.4000000  10.4000000  10.4000000
 NMagM=    2.2175200   2.2175200   2.2175200   2.2175200
 AtZNuc=  11.0000000  11.0000000  11.0000000  11.0000000
 Leave Link  101 at Fri Oct  6 21:59:35 2023, MaxMem=  1610612736 cpu:               2.1 elap:               0.9
 (Enter /home/sekinelabo/g16/l103.exe)

 GradGradGradGradGradGradGradGradGradGradGradGradGradGradGradGradGradGrad
 Berny optimization.
 Initialization pass.
 Trust Radius=3.00D-01 FncErr=1.00D-07 GrdErr=1.00D-07 EigMax=2.50D+02 EigMin=1.00D-04
 Number of steps in this run=      2 maximum allowed number of steps=      2.
 GradGradGradGradGradGradGradGradGradGradGradGradGradGradGradGradGradGrad

 Leave Link  103 at Fri Oct  6 21:59:35 2023, MaxMem=  1610612736 cpu:               0.5 elap:               0.3
 (Enter /home/sekinelabo/g16/l202.exe)
                          Input orientation:                          
 ---------------------------------------------------------------------
 Center     Atomic      Atomic             Coordinates (Angstroms)
 Number     Number       Type             X           Y           Z
 ---------------------------------------------------------------------
      1         11           0        0.000000    0.000000    0.000000
      2         11           0       -0.094084    0.000000   -3.623620
      3         11           0        0.000000    0.000000    5.423381
      4         11           0        2.384981   -3.709604    5.304155
 ---------------------------------------------------------------------
                    Distance matrix (angstroms):
                    1          2          3          4
     1  Na   0.000000
     2  Na   3.624841   0.000000
     3  Na   5.423381   9.047490   0.000000
     4  Na   6.898069   9.980585   4.411747   0.000000
 Stoichiometry    Na4
 Framework group  C1[X(Na4)]
 Deg. of freedom     6
 Full point group                 C1      NOp   1
 Largest Abelian subgroup         C1      NOp   1
 Largest concise Abelian subgroup C1      NOp   1
                         Standard orientation:                         
 ---------------------------------------------------------------------
 Center     Atomic      Atomic             Coordinates (Angstroms)
 Number     Number       Type             X           Y           Z
 ---------------------------------------------------------------------
      1         11           0        2.026249    0.485306    0.031323
      2         11           0        5.487365   -0.590627   -0.018773
      3         11           0       -3.129483    2.167443   -0.012334
      4         11           0       -4.384131   -2.062122   -0.000216
 ---------------------------------------------------------------------
 Rotational constants (GHZ):           2.3052389           0.3476493           0.3021038
 Leave Link  202 at Fri Oct  6 21:59:36 2023, MaxMem=  1610612736 cpu:               1.0 elap:               0.7
 (Enter /home/sekinelabo/g16/l301.exe)
 Standard basis: 6-311+G(d) (5D, 7F)
 Ernie: Thresh=  0.10000D-02 Tol=  0.10000D-05 Strict=F.
 There are   124 symmetry adapted cartesian basis functions of A   symmetry.
 There are   120 symmetry adapted basis functions of A   symmetry.
   120 basis functions,   200 primitive gaussians,   124 cartesian basis functions
    22 alpha electrons       22 beta electrons
       nuclear repulsion energy        66.7593612790 Hartrees.
 IExCor=  402 DFT=T Ex+Corr=B3LYP ExCW=0 ScaHFX=  0.200000
 ScaDFX=  0.800000  0.720000  1.000000  0.810000 ScalE2=  1.000000  1.000000
 IRadAn=      5 IRanWt=     -1 IRanGd=            0 ICorTp=0 IEmpDi=  4
 NAtoms=    4 NActive=    4 NUniq=    4 SFac= 1.00D+00 NAtFMM=   60 NAOKFM=F Big=F
 Integral buffers will be    131072 words long.
 Raffenetti 2 integral format.
 Two-electron integral symmetry is turned on.
 Leave Link  301 at Fri Oct  6 21:59:36 2023, MaxMem=  1610612736 cpu:               0.7 elap:               0.4
 (Enter /home/sekinelabo/g16/l302.exe)
 NPDir=0 NMtPBC=     1 NCelOv=     1 NCel=       1 NClECP=     1 NCelD=      1
         NCelK=      1 NCelE2=     1 NClLst=     1 CellRange=     0.0.
 One-electron integrals computed using PRISM.
 One-electron integral symmetry used in STVInt
 NBasis=   120 RedAO= T EigKep=  2.65D-05  NBF=   120
 NBsUse=   120 1.00D-06 EigRej= -1.00D+00 NBFU=   120
 Precomputing XC quadrature grid using
 IXCGrd= 4 IRadAn=           5 IRanWt=          -1 IRanGd=           0 AccXCQ= 0.00D+00.
 Generated NRdTot=       0 NPtTot=           0 NUsed=           0 NTot=          32
 NSgBfM=   111   111   111   111   111 MxSgAt=     4 MxSgA2=     4.
 Leave Link  302 at Fri Oct  6 21:59:48 2023, MaxMem=  1610612736 cpu:              19.9 elap:              12.3
 (Enter /home/sekinelabo/g16/l303.exe)
 DipDrv:  MaxL=1.
 Leave Link  303 at Fri Oct  6 21:59:50 2023, MaxMem=  1610612736 cpu:               2.6 elap:               1.7
 (Enter /home/sekinelabo/g16/l401.exe)
 ExpMin= 7.60D-03 ExpMax= 3.62D+04 ExpMxC= 1.21D+03 IAcc=3 IRadAn=         5 AccDes= 0.00D+00
 Harris functional with IExCor=  402 and IRadAn=       5 diagonalized for initial guess.
 HarFok:  IExCor=  402 AccDes= 0.00D+00 IRadAn=         5 IDoV= 1 UseB2=F ITyADJ=14
 ICtDFT=  3500011 ScaDFX=  1.000000  1.000000  1.000000  1.000000
 FoFCou: FMM=F IPFlag=           0 FMFlag=      100000 FMFlg1=           0
         NFxFlg=           0 DoJE=T BraDBF=F KetDBF=T FulRan=T
         wScrn=  0.000000 ICntrl=       500 IOpCl=  0 I1Cent=   200000004 NGrid=           0
         NMat0=    1 NMatS0=      1 NMatT0=    0 NMatD0=    1 NMtDS0=    0 NMtDT0=    0
 Petite list used in FoFCou.
 Harris En= -649.055462114880    
 JPrj=0 DoOrth=F DoCkMO=F.
 Leave Link  401 at Fri Oct  6 21:59:58 2023, MaxMem=  1610612736 cpu:              13.3 elap:               8.5
 (Enter /home/sekinelabo/g16/l502.exe)
 Keep R1 ints in memory in canonical form, NReq=41581754.
 FoFCou: FMM=F IPFlag=           0 FMFlag=           0 FMFlg1=           0
         NFxFlg=           0 DoJE=F BraDBF=F KetDBF=F FulRan=T
         wScrn=  0.000000 ICntrl=       600 IOpCl=  0 I1Cent=           0 NGrid=           0
         NMat0=    1 NMatS0=   7260 NMatT0=    0 NMatD0=    1 NMtDS0=    0 NMtDT0=    0
 Symmetry not used in FoFCou.
 Two-electron integral symmetry not used.
 Closed shell SCF:
 Using DIIS extrapolation, IDIIS=  1040.
 NGot=  1610612736 LenX=  1584221388 LenY=  1584205571
 Requested convergence on RMS density matrix=1.00D-08 within 128 cycles.
 Requested convergence on MAX density matrix=1.00D-06.
 Requested convergence on             energy=1.00D-06.
 No special actions if energy rises.

 Cycle   1  Pass 1  IDiag  1:
 E= -649.168266084305    
 DIIS: error= 1.62D-02 at cycle   1 NSaved=   1.
 NSaved= 1 IEnMin= 1 EnMin= -649.168266084305     IErMin= 1 ErrMin= 1.62D-02
 ErrMax= 1.62D-02  0.00D+00 EMaxC= 1.00D-01 BMatC= 2.68D-02 BMatP= 2.68D-02
 IDIUse=3 WtCom= 8.38D-01 WtEn= 1.62D-01
 Coeff-Com:  0.100D+01
 Coeff-En:   0.100D+01
 Coeff:      0.100D+01
 Gap=     0.043 Goal=   None    Shift=    0.000
 GapD=    0.043 DampG=0.250 DampE=0.500 DampFc=0.2500 IDamp=-1.
 Damping current iteration by 2.50D-01
 RMSDP=5.31D-03 MaxDP=1.88D-01              OVMax= 9.57D-02

 Cycle   2  Pass 1  IDiag  1:
 E= -649.172473813277     Delta-E=       -0.004207728972 Rises=F Damp=T
 DIIS: error= 1.14D-02 at cycle   2 NSaved=   2.
 NSaved= 2 IEnMin= 2 EnMin= -649.172473813277     IErMin= 2 ErrMin= 1.14D-02
 ErrMax= 1.14D-02  0.00D+00 EMaxC= 1.00D-01 BMatC= 1.03D-02 BMatP= 2.68D-02
 IDIUse=3 WtCom= 8.86D-01 WtEn= 1.14D-01
 Coeff-Com: -0.130D+01 0.230D+01
 Coeff-En:   0.000D+00 0.100D+01
 Coeff:     -0.115D+01 0.215D+01
 Gap=     0.040 Goal=   None    Shift=    0.000
 RMSDP=2.82D-03 MaxDP=9.46D-02 DE=-4.21D-03 OVMax= 4.11D-02

 Cycle   3  Pass 1  IDiag  1:
 E= -649.181108438330     Delta-E=       -0.008634625053 Rises=F Damp=F
 DIIS: error= 5.70D-04 at cycle   3 NSaved=   3.
 NSaved= 3 IEnMin= 3 EnMin= -649.181108438330     IErMin= 3 ErrMin= 5.70D-04
 ErrMax= 5.70D-04  0.00D+00 EMaxC= 1.00D-01 BMatC= 4.52D-05 BMatP= 1.03D-02
 IDIUse=3 WtCom= 9.94D-01 WtEn= 5.70D-03
 Coeff-Com:  0.697D-01-0.823D-01 0.101D+01
 Coeff-En:   0.000D+00 0.000D+00 0.100D+01
 Coeff:      0.693D-01-0.818D-01 0.101D+01
 Gap=     0.041 Goal=   None    Shift=    0.000
 RMSDP=8.95D-04 MaxDP=4.81D-02 DE=-8.63D-03 OVMax= 6.39D-02

 Cycle   4  Pass 1  IDiag  1:
 E= -649.180135510602     Delta-E=        0.000972927728 Rises=F Damp=F
 DIIS: error= 1.48D-03 at cycle   4 NSaved=   4.
 NSaved= 4 IEnMin= 3 EnMin= -649.181108438330     IErMin= 3 ErrMin= 5.70D-04
 ErrMax= 1.48D-03  0.00D+00 EMaxC= 1.00D-01 BMatC= 1.67D-04 BMatP= 4.52D-05
 IDIUse=3 WtCom= 2.06D-01 WtEn= 7.94D-01
 Coeff-Com:  0.640D-01-0.841D-01 0.720D+00 0.300D+00
 Coeff-En:   0.000D+00 0.000D+00 0.804D+00 0.196D+00
 Coeff:      0.132D-01-0.174D-01 0.786D+00 0.218D+00
 Gap=     0.041 Goal=   None    Shift=    0.000
 RMSDP=4.27D-04 MaxDP=2.85D-02 DE= 9.73D-04 OVMax= 3.48D-02

 Cycle   5  Pass 1  IDiag  1:
 E= -649.181251077240     Delta-E=       -0.001115566639 Rises=F Damp=F
 DIIS: error= 3.05D-04 at cycle   5 NSaved=   5.
 NSaved= 5 IEnMin= 5 EnMin= -649.181251077240     IErMin= 5 ErrMin= 3.05D-04
 ErrMax= 3.05D-04  0.00D+00 EMaxC= 1.00D-01 BMatC= 1.19D-05 BMatP= 4.52D-05
 IDIUse=3 WtCom= 9.97D-01 WtEn= 3.05D-03
 Coeff-Com: -0.332D-01 0.437D-01 0.157D+00-0.147D+00 0.980D+00
 Coeff-En:   0.000D+00 0.000D+00 0.262D+00 0.000D+00 0.738D+00
 Coeff:     -0.331D-01 0.436D-01 0.157D+00-0.147D+00 0.979D+00
 Gap=     0.041 Goal=   None    Shift=    0.000
 RMSDP=1.61D-04 MaxDP=6.97D-03 DE=-1.12D-03 OVMax= 9.81D-03

 Cycle   6  Pass 1  IDiag  1:
 E= -649.181303931353     Delta-E=       -0.000052854113 Rises=F Damp=F
 DIIS: error= 6.62D-06 at cycle   6 NSaved=   6.
 NSaved= 6 IEnMin= 6 EnMin= -649.181303931353     IErMin= 6 ErrMin= 6.62D-06
 ErrMax= 6.62D-06  0.00D+00 EMaxC= 1.00D-01 BMatC= 1.03D-08 BMatP= 1.19D-05
 IDIUse=1 WtCom= 1.00D+00 WtEn= 0.00D+00
 Coeff-Com: -0.550D-02 0.719D-02-0.117D-03-0.193D-01 0.938D-01 0.924D+00
 Coeff:     -0.550D-02 0.719D-02-0.117D-03-0.193D-01 0.938D-01 0.924D+00
 Gap=     0.041 Goal=   None    Shift=    0.000
 RMSDP=7.45D-06 MaxDP=2.50D-04 DE=-5.29D-05 OVMax= 3.28D-04

 Cycle   7  Pass 1  IDiag  1:
 E= -649.181303950168     Delta-E=       -0.000000018814 Rises=F Damp=F
 DIIS: error= 5.70D-06 at cycle   7 NSaved=   7.
 NSaved= 7 IEnMin= 7 EnMin= -649.181303950168     IErMin= 7 ErrMin= 5.70D-06
 ErrMax= 5.70D-06  0.00D+00 EMaxC= 1.00D-01 BMatC= 5.47D-09 BMatP= 1.03D-08
 IDIUse=1 WtCom= 1.00D+00 WtEn= 0.00D+00
 Coeff-Com: -0.797D-03 0.101D-02-0.697D-02-0.187D-02-0.490D-02 0.467D+00
 Coeff-Com:  0.546D+00
 Coeff:     -0.797D-03 0.101D-02-0.697D-02-0.187D-02-0.490D-02 0.467D+00
 Coeff:      0.546D+00
 Gap=     0.041 Goal=   None    Shift=    0.000
 RMSDP=3.34D-06 MaxDP=1.85D-04 DE=-1.88D-08 OVMax= 2.16D-04

 Cycle   8  Pass 1  IDiag  1:
 E= -649.181303965493     Delta-E=       -0.000000015326 Rises=F Damp=F
 DIIS: error= 1.34D-06 at cycle   8 NSaved=   8.
 NSaved= 8 IEnMin= 8 EnMin= -649.181303965493     IErMin= 8 ErrMin= 1.34D-06
 ErrMax= 1.34D-06  0.00D+00 EMaxC= 1.00D-01 BMatC= 2.69D-10 BMatP= 5.47D-09
 IDIUse=1 WtCom= 1.00D+00 WtEn= 0.00D+00
 Coeff-Com:  0.852D-03-0.114D-02-0.140D-02 0.293D-02-0.176D-01 0.443D-02
 Coeff-Com:  0.170D+00 0.842D+00
 Coeff:      0.852D-03-0.114D-02-0.140D-02 0.293D-02-0.176D-01 0.443D-02
 Coeff:      0.170D+00 0.842D+00
 Gap=     0.041 Goal=   None    Shift=    0.000
 RMSDP=2.17D-06 MaxDP=7.03D-05 DE=-1.53D-08 OVMax= 7.91D-05

 Cycle   9  Pass 1  IDiag  1:
 E= -649.181303966529     Delta-E=       -0.000000001035 Rises=F Damp=F
 DIIS: error= 6.40D-07 at cycle   9 NSaved=   9.
 NSaved= 9 IEnMin= 9 EnMin= -649.181303966529     IErMin= 9 ErrMin= 6.40D-07
 ErrMax= 6.40D-07  0.00D+00 EMaxC= 1.00D-01 BMatC= 4.64D-11 BMatP= 2.69D-10
 IDIUse=1 WtCom= 1.00D+00 WtEn= 0.00D+00
 Coeff-Com:  0.475D-03-0.630D-03-0.109D-03 0.178D-02-0.836D-02-0.258D-01
 Coeff-Com:  0.192D-01 0.390D+00 0.624D+00
 Coeff:      0.475D-03-0.630D-03-0.109D-03 0.178D-02-0.836D-02-0.258D-01
 Coeff:      0.192D-01 0.390D+00 0.624D+00
 Gap=     0.041 Goal=   None    Shift=    0.000
 RMSDP=4.42D-07 MaxDP=1.99D-05 DE=-1.04D-09 OVMax= 3.27D-05

 Cycle  10  Pass 1  IDiag  1:
 E= -649.181303966907     Delta-E=       -0.000000000379 Rises=F Damp=F
 DIIS: error= 6.29D-08 at cycle  10 NSaved=  10.
 NSaved=10 IEnMin=10 EnMin= -649.181303966907     IErMin=10 ErrMin= 6.29D-08
 ErrMax= 6.29D-08  0.00D+00 EMaxC= 1.00D-01 BMatC= 4.38D-13 BMatP= 4.64D-11
 IDIUse=1 WtCom= 1.00D+00 WtEn= 0.00D+00
 Coeff-Com:  0.154D-04-0.202D-04 0.468D-04 0.795D-04-0.298D-03-0.246D-02
 Coeff-Com: -0.210D-02 0.960D-02 0.858D-01 0.909D+00
 Coeff:      0.154D-04-0.202D-04 0.468D-04 0.795D-04-0.298D-03-0.246D-02
 Coeff:     -0.210D-02 0.960D-02 0.858D-01 0.909D+00
 Gap=     0.041 Goal=   None    Shift=    0.000
 RMSDP=9.26D-08 MaxDP=3.21D-06 DE=-3.79D-10 OVMax= 2.52D-06

 Cycle  11  Pass 1  IDiag  1:
 E= -649.181303966914     Delta-E=       -0.000000000007 Rises=F Damp=F
 DIIS: error= 7.23D-09 at cycle  11 NSaved=  11.
 NSaved=11 IEnMin=11 EnMin= -649.181303966914     IErMin=11 ErrMin= 7.23D-09
 ErrMax= 7.23D-09  0.00D+00 EMaxC= 1.00D-01 BMatC= 9.95D-15 BMatP= 4.38D-13
 IDIUse=1 WtCom= 1.00D+00 WtEn= 0.00D+00
 Coeff-Com: -0.129D-04 0.172D-04 0.856D-05-0.423D-04 0.217D-03 0.428D-03
 Coeff-Com: -0.130D-02-0.938D-02-0.910D-02 0.100D+00 0.919D+00
 Coeff:     -0.129D-04 0.172D-04 0.856D-05-0.423D-04 0.217D-03 0.428D-03
 Coeff:     -0.130D-02-0.938D-02-0.910D-02 0.100D+00 0.919D+00
 Gap=     0.041 Goal=   None    Shift=    0.000
 RMSDP=9.81D-09 MaxDP=2.42D-07 DE=-6.82D-12 OVMax= 3.70D-07

 SCF Done:  E(RB3LYP) =  -649.181303967     A.U. after   11 cycles
            NFock= 11  Conv=0.98D-08     -V/T= 2.0030
 KE= 6.472169501844D+02 PE=-1.692488626797D+03 EE= 3.293310113671D+02
 Leave Link  502 at Fri Oct  6 22:01:12 2023, MaxMem=  1610612736 cpu:             117.8 elap:              73.9
 (Enter /home/sekinelabo/g16/l601.exe)
 Copying SCF densities to generalized density rwf, IOpCl= 0 IROHF=0.

 **********************************************************************

            Population analysis using the SCF Density.

 **********************************************************************

 Orbital symmetries:
       Occupied  (A) (A) (A) (A) (A) (A) (A) (A) (A) (A) (A) (A)
                 (A) (A) (A) (A) (A) (A) (A) (A) (A) (A)
       Virtual   (A) (A) (A) (A) (A) (A) (A) (A) (A) (A) (A) (A)
                 (A) (A) (A) (A) (A) (A) (A) (A) (A) (A) (A) (A)
                 (A) (A) (A) (A) (A) (A) (A) (A) (A) (A) (A) (A)
                 (A) (A) (A) (A) (A) (A) (A) (A) (A) (A) (A) (A)
                 (A) (A) (A) (A) (A) (A) (A) (A) (A) (A) (A) (A)
                 (A) (A) (A) (A) (A) (A) (A) (A) (A) (A) (A) (A)
                 (A) (A) (A) (A) (A) (A) (A) (A) (A) (A) (A) (A)
                 (A) (A) (A) (A) (A) (A) (A) (A) (A) (A) (A) (A)
                 (A) (A)
 The electronic state is 1-A.
 Alpha  occ. eigenvalues --  -38.46323 -38.46093 -38.44476 -38.44292  -2.22000
 Alpha  occ. eigenvalues --   -2.21774  -2.20192  -2.20017  -1.15681  -1.15680
 Alpha  occ. eigenvalues --   -1.15621  -1.15455  -1.15451  -1.15397  -1.13874
 Alpha  occ. eigenvalues --   -1.13874  -1.13806  -1.13692  -1.13692  -1.13634
 Alpha  occ. eigenvalues --   -0.12809  -0.11934
 Alpha virt. eigenvalues --   -0.07827  -0.05866  -0.02595  -0.02457  -0.02193
 Alpha virt. eigenvalues --   -0.01767  -0.01696  -0.00691  -0.00371  -0.00015
 Alpha virt. eigenvalues --    0.00206   0.00644   0.00733   0.00879   0.01155
 Alpha virt. eigenvalues --    0.01315   0.01475   0.01597   0.01744   0.01845
 Alpha virt. eigenvalues --    0.02101   0.02171   0.02417   0.02470   0.02881
 Alpha virt. eigenvalues --    0.03006   0.03283   0.03319   0.04106   0.04941
 Alpha virt. eigenvalues --    0.06743   0.07165   0.07708   0.08070   0.08220
 Alpha virt. eigenvalues --    0.08283   0.08537   0.08740   0.09379   0.09672
 Alpha virt. eigenvalues --    0.09782   0.10420   0.10921   0.11875   0.12913
 Alpha virt. eigenvalues --    0.15000   0.31089   0.31115   0.31649   0.32107
 Alpha virt. eigenvalues --    0.32279   0.32577   0.34312   0.34688   0.34694
 Alpha virt. eigenvalues --    0.34706   0.34792   0.35406   0.36705   0.36709
 Alpha virt. eigenvalues --    0.36794   0.36872   0.39082   0.42103   0.42365
 Alpha virt. eigenvalues --    0.42606   0.42664   0.43285   0.43385   0.44331
 Alpha virt. eigenvalues --    0.44333   0.45053   0.45086   0.46264   0.47031
 Alpha virt. eigenvalues --    0.47404   0.49851   0.56019   1.99636   2.01621
 Alpha virt. eigenvalues --    2.03892   2.11077   4.42113   4.42469   4.42898
 Alpha virt. eigenvalues --    4.43056   4.43824   4.44595   4.44675   4.44982
 Alpha virt. eigenvalues --    4.44985   4.46337   4.46473   4.48734  96.18353
 Alpha virt. eigenvalues --   96.20807  96.23446  96.31881
          Condensed to atoms (all electrons):
               1          2          3          4
     1  Na  11.326058   0.071431   0.079166  -0.035427
     2  Na   0.071431  10.466703  -0.017960   0.017476
     3  Na   0.079166  -0.017960  10.772747   0.208841
     4  Na  -0.035427   0.017476   0.208841  10.787440
 Mulliken charges:
               1
     1  Na  -0.441228
     2  Na   0.462351
     3  Na  -0.042793
     4  Na   0.021671
 Sum of Mulliken charges =  -0.00000
 Mulliken charges with hydrogens summed into heavy atoms:
               1
     1  Na  -0.441228
     2  Na   0.462351
     3  Na  -0.042793
     4  Na   0.021671
 Electronic spatial extent (au):  <R**2>=           2940.5656
 Charge=              0.0000 electrons
 Dipole moment (field-independent basis, Debye):
    X=             -1.2984    Y=             -0.3119    Z=             -0.0060  Tot=              1.3353
 Quadrupole moment (field-independent basis, Debye-Ang):
   XX=            -32.8938   YY=            -31.3829   ZZ=            -46.2147
   XY=              0.6882   XZ=             -0.1425   YZ=              0.0010
 Traceless Quadrupole moment (field-independent basis, Debye-Ang):
   XX=              3.9367   YY=              5.4475   ZZ=             -9.3842
   XY=              0.6882   XZ=             -0.1425   YZ=              0.0010
 Octapole moment (field-independent basis, Debye-Ang**2):
  XXX=             78.9316  YYY=              0.4819  ZZZ=             -0.0295  XYY=            -50.3293
  XXY=            -55.5513  XXZ=             -1.1311  XZZ=             -1.6406  YZZ=             -0.4573
  YYZ=             -0.1243  XYZ=              0.3075
 Hexadecapole moment (field-independent basis, Debye-Ang**3):
 XXXX=          -3394.7920 YYYY=           -632.4372 ZZZZ=           -210.0777 XXXY=             12.1208
 XXXZ=             -7.3850 YYYX=             14.4502 YYYZ=             -0.2307 ZZZX=             -0.7849
 ZZZY=              0.0295 XXYY=           -638.4429 XXZZ=           -779.9152 YYZZ=           -153.7757
 XXYZ=              0.3167 YYXZ=              0.0433 ZZXY=              1.0686
 N-N= 6.675936127900D+01 E-N=-1.692488627279D+03  KE= 6.472169501844D+02
 No NMR shielding tensors so no spin-rotation constants.
 Leave Link  601 at Fri Oct  6 22:01:18 2023, MaxMem=  1610612736 cpu:               8.0 elap:               5.0
 (Enter /home/sekinelabo/g16/l701.exe)
 ... and contract with generalized density number  0.
 Compute integral first derivatives.
 Leave Link  701 at Fri Oct  6 22:01:22 2023, MaxMem=  1610612736 cpu:               6.7 elap:               4.1
 (Enter /home/sekinelabo/g16/l702.exe)
 L702 exits ... SP integral derivatives will be done elsewhere.
 Leave Link  702 at Fri Oct  6 22:01:22 2023, MaxMem=  1610612736 cpu:               0.6 elap:               0.5
 (Enter /home/sekinelabo/g16/l703.exe)
 Integral derivatives from FoFJK, PRISM(SPDF).
 Compute integral first derivatives, UseDBF=F ICtDFT=           0.
 Calling FoFJK, ICntrl=      2127 FMM=F ISym2X=0 I1Cent= 0 IOpClX= 0 NMat=1 NMatS=1 NMatT=0.
 FoFJK:  IHMeth= 1 ICntrl=    2127 DoSepK=F KAlg= 0 I1Cent=           0 FoldK=F
 IRaf=         0 NMat=       1 IRICut=       1 DoRegI=T DoRafI=F ISym2E= 0 IDoP0=0 IntGTp=1.
 FoFCou: FMM=F IPFlag=           0 FMFlag=      100000 FMFlg1=         800
         NFxFlg=           0 DoJE=F BraDBF=F KetDBF=F FulRan=T
         wScrn=  0.000000 ICntrl=      2127 IOpCl=  0 I1Cent=           0 NGrid=           0
         NMat0=    1 NMatS0=      1 NMatT0=    0 NMatD0=    1 NMtDS0=    0 NMtDT0=    0
 Symmetry not used in FoFCou.
 Leave Link  703 at Fri Oct  6 22:01:30 2023, MaxMem=  1610612736 cpu:              12.1 elap:               7.4
 (Enter /home/sekinelabo/g16/l716.exe)
 Dipole        =-5.10829322D-01-1.22711035D-01-2.34634635D-03
 ***** Axes restored to original set *****
 -------------------------------------------------------------------
 Center     Atomic                   Forces (Hartrees/Bohr)
 Number     Number              X              Y              Z
 -------------------------------------------------------------------
      1       11          -0.000047912   -0.000215479   -0.005932456
      2       11           0.000138401    0.000068991    0.006837530
      3       11           0.004261515   -0.006625308   -0.000976091
      4       11          -0.004352004    0.006771797    0.000071017
 -------------------------------------------------------------------
 Cartesian Forces:  Max     0.006837530 RMS     0.004181593
 Z-matrix is all fixed cartesians, so copy forces.
 Force constants in Cartesian coordinates: 
                1             2             3             4             5 
      1  0.709802D+00
      2  0.453805D+00  0.290141D+00
      3 -0.637040D-02 -0.433597D-02  0.159115D-01
      4 -0.106827D-04  0.000000D+00 -0.411444D-03  0.709802D+00
      5  0.000000D+00  0.000000D+00  0.000000D+00  0.453805D+00  0.290141D+00
      6 -0.411444D-03  0.000000D+00 -0.158467D-01 -0.637040D-02 -0.433597D-02
      7  0.000000D+00  0.000000D+00  0.000000D+00  0.000000D+00  0.000000D+00
      8  0.000000D+00  0.000000D+00  0.000000D+00  0.000000D+00  0.000000D+00
      9  0.000000D+00  0.000000D+00  0.000000D+00  0.000000D+00  0.000000D+00
     10  0.000000D+00  0.000000D+00  0.000000D+00  0.000000D+00  0.000000D+00
     11  0.000000D+00  0.000000D+00  0.000000D+00  0.000000D+00  0.000000D+00
     12  0.000000D+00  0.000000D+00  0.000000D+00  0.000000D+00  0.000000D+00
                6             7             8             9            10 
      6  0.159115D-01
      7  0.000000D+00  0.100000D+01
      8  0.000000D+00  0.000000D+00  0.100000D+01
      9  0.000000D+00  0.000000D+00  0.000000D+00  0.100000D+01
     10  0.000000D+00  0.000000D+00  0.000000D+00  0.000000D+00  0.100000D+01
     11  0.000000D+00  0.000000D+00  0.000000D+00  0.000000D+00  0.000000D+00
     12  0.000000D+00  0.000000D+00  0.000000D+00  0.000000D+00  0.000000D+00
               11            12 
     11  0.100000D+01
     12  0.000000D+00  0.100000D+01
 Leave Link  716 at Fri Oct  6 22:01:30 2023, MaxMem=  1610612736 cpu:               0.8 elap:               0.5
 (Enter /home/sekinelabo/g16/l103.exe)

 GradGradGradGradGradGradGradGradGradGradGradGradGradGradGradGradGradGrad
 Berny optimization.
 Search for a local minimum.
 Step number   1 out of a maximum of    2
 All quantities printed in internal units (Hartrees-Bohrs-Radians)
 Second derivative matrix not updated -- first step.
 The second derivative matrix:
                          X1        Y1        Z1        X2        Y2
           X1           0.70980
           Y1           0.45381   0.29014
           Z1          -0.00637  -0.00434   0.01591
           X2          -0.00001   0.00000  -0.00041   0.70980
           Y2           0.00000  -0.00000  -0.00000   0.45381   0.29014
           Z2          -0.00041  -0.00000  -0.01585  -0.00637  -0.00434
           X3           0.00000   0.00000   0.00000   0.00000   0.00000
           Y3           0.00000   0.00000   0.00000   0.00000   0.00000
           Z3           0.00000   0.00000   0.00000   0.00000   0.00000
           X4           0.00000   0.00000   0.00000   0.00000   0.00000
           Y4           0.00000   0.00000   0.00000   0.00000   0.00000
           Z4           0.00000   0.00000   0.00000   0.00000   0.00000
                          Z2        X3        Y3        Z3        X4
           Z2           0.01591
           X3           0.00000   1.00000
           Y3           0.00000   0.00000   1.00000
           Z3           0.00000  -0.00000   0.00000   1.00000
           X4           0.00000   0.00000   0.00000   0.00000   1.00000
           Y4           0.00000   0.00000   0.00000   0.00000   0.00000
           Z4           0.00000   0.00000   0.00000   0.00000  -0.00000
                          Y4        Z4
           Y4           1.00000
           Z4           0.00000   1.00000
 ITU=  0
     Eigenvalues ---    0.03174   0.04868   0.50000   0.92972   1.00000
     Eigenvalues ---    1.00000
 Angle between quadratic step and forces=  49.14 degrees.
 Linear search not attempted -- first point.
 B after Tr=    -0.000000    0.000000   -0.000000
         Rot=    1.000000   -0.000000    0.000000   -0.000000 Ang=   0.00 deg.
 Variable       Old X    -DE/DX   Delta X   Delta X   Delta X     New X
                                 (Linear)    (Quad)   (Total)
    X1        0.00000  -0.00005   0.00000  -0.00086  -0.00086  -0.00086
    Y1       -0.00000  -0.00022   0.00000  -0.00141  -0.00141  -0.00141
    Z1        0.00000  -0.00593   0.00000  -0.20044  -0.20044  -0.20044
    X2       -0.17779   0.00014   0.00000   0.00268   0.00268  -0.17511
    Y2       -0.00000   0.00007   0.00000   0.00075   0.00075   0.00075
    Z2       -6.84765   0.00684   0.00000   0.20187   0.20187  -6.64577
    X3       -0.00000   0.00426   0.00000   0.00289   0.00289   0.00289
    Y3        0.00000  -0.00663   0.00000  -0.00669  -0.00669  -0.00669
    Z3       10.24870  -0.00098   0.00000  -0.00142  -0.00142  10.24728
    X4        4.50696  -0.00435   0.00000  -0.00471  -0.00471   4.50225
    Y4       -7.01014   0.00677   0.00000   0.00735   0.00735  -7.00278
    Z4       10.02340   0.00007   0.00000  -0.00001  -0.00001  10.02339
         Item               Value     Threshold  Converged?
 Maximum Force            0.006838     0.000450     NO 
 RMS     Force            0.004182     0.000300     NO 
 Maximum Displacement     0.201874     0.001800     NO 
 RMS     Displacement     0.082195     0.001200     NO 
 Predicted change in Energy=-1.349237D-03
 GradGradGradGradGradGradGradGradGradGradGradGradGradGradGradGradGradGrad

 Leave Link  103 at Fri Oct  6 22:01:33 2023, MaxMem=  1610612736 cpu:               3.9 elap:               2.5
 (Enter /home/sekinelabo/g16/l9999.exe)
 1\1\GINC-SEKINELABO-XA7R-R37\Force\RB3LYP\6-311+G(d)\Na4\SEKINELABO\06
 -Oct-2023\0\\#p B3LYP/6-311+g(d) force\\\0,1\Na,0.,0.,0.\Na,-0.0940836
 166,0.,-3.6236195959\Na,0.,0.,5.4233810589\Na,2.3849814707,-3.70960430
 94,5.3041547183\\Version=ES64L-G16RevB.01\State=1-A\HF=-649.181304\RMS
 D=9.812e-09\RMSF=4.182e-03\Dipole=0.1492481,-0.2311044,0.4475777\Quadr
 upole=-3.6897821,0.9588563,2.7309258,-5.1051145,0.1948767,0.0276274\PG
 =C01 [X(Na4)]\\@


 I DON'T EXACTLY UNDERSTAND WHAT YOU ARE SAYING,
 BUT YOU ARE ABSOLUTELY RIGHT.
     M.S.GORDON, IN A NDSU FACULTY MEETING
 Job cpu time:       0 days  0 hours  3 minutes 11.9 seconds.
 Elapsed time:       0 days  0 hours  1 minutes 59.3 seconds.
 File lengths (MBytes):  RWF=     10 Int=      0 D2E=      0 Chk=      2 Scr=      1
 Normal termination of Gaussian 16 at Fri Oct  6 22:01:33 2023.
 Initial command:
 /home/sekinelabo/g16/l1.exe "/home/sekinelabo/g16temp/Gau-708745.inp" -scrdir="/home/sekinelabo/g16temp/"
 Entering Link 1 = /home/sekinelabo/g16/l1.exe PID=    710381.
  
 Copyright (c) 1988-2017, Gaussian, Inc.  All Rights Reserved.
  
 This is part of the Gaussian(R) 16 program.  It is based on
 the Gaussian(R) 09 system (copyright 2009, Gaussian, Inc.),
 the Gaussian(R) 03 system (copyright 2003, Gaussian, Inc.),
 the Gaussian(R) 98 system (copyright 1998, Gaussian, Inc.),
 the Gaussian(R) 94 system (copyright 1995, Gaussian, Inc.),
 the Gaussian 92(TM) system (copyright 1992, Gaussian, Inc.),
 the Gaussian 90(TM) system (copyright 1990, Gaussian, Inc.),
 the Gaussian 88(TM) system (copyright 1988, Gaussian, Inc.),
 the Gaussian 86(TM) system (copyright 1986, Carnegie Mellon
 University), and the Gaussian 82(TM) system (copyright 1983,
 Carnegie Mellon University). Gaussian is a federally registered
 trademark of Gaussian, Inc.
  
 This software contains proprietary and confidential information,
 including trade secrets, belonging to Gaussian, Inc.
  
 This software is provided under written license and may be
 used, copied, transmitted, or stored only in accord with that
 written license.
  
 The following legend is applicable only to US Government
 contracts under FAR:
  
                    RESTRICTED RIGHTS LEGEND
  
 Use, reproduction and disclosure by the US Government is
 subject to restrictions as set forth in subparagraphs (a)
 and (c) of the Commercial Computer Software - Restricted
 Rights clause in FAR 52.227-19.
  
 Gaussian, Inc.
 340 Quinnipiac St., Bldg. 40, Wallingford CT 06492
  
  
 ---------------------------------------------------------------
 Warning -- This program may not be used in any manner that
 competes with the business of Gaussian, Inc. or will provide
 assistance to any competitor of Gaussian, Inc.  The licensee
 of this program is prohibited from giving any competitor of
 Gaussian, Inc. access to this program.  By using this program,
 the user acknowledges that Gaussian, Inc. is engaged in the
 business of creating and licensing software in the field of
 computational chemistry and represents and warrants to the
 licensee that it is not a competitor of Gaussian, Inc. and that
 it will not use this program in any manner prohibited above.
 ---------------------------------------------------------------
  

 Cite this work as:
 Gaussian 16, Revision B.01,
 M. J. Frisch, G. W. Trucks, H. B. Schlegel, G. E. Scuseria, 
 M. A. Robb, J. R. Cheeseman, G. Scalmani, V. Barone, 
 G. A. Petersson, H. Nakatsuji, X. Li, M. Caricato, A. V. Marenich, 
 J. Bloino, B. G. Janesko, R. Gomperts, B. Mennucci, H. P. Hratchian, 
 J. V. Ortiz, A. F. Izmaylov, J. L. Sonnenberg, D. Williams-Young, 
 F. Ding, F. Lipparini, F. Egidi, J. Goings, B. Peng, A. Petrone, 
 T. Henderson, D. Ranasinghe, V. G. Zakrzewski, J. Gao, N. Rega, 
 G. Zheng, W. Liang, M. Hada, M. Ehara, K. Toyota, R. Fukuda, 
 J. Hasegawa, M. Ishida, T. Nakajima, Y. Honda, O. Kitao, H. Nakai, 
 T. Vreven, K. Throssell, J. A. Montgomery, Jr., J. E. Peralta, 
 F. Ogliaro, M. J. Bearpark, J. J. Heyd, E. N. Brothers, K. N. Kudin, 
 V. N. Staroverov, T. A. Keith, R. Kobayashi, J. Normand, 
 K. Raghavachari, A. P. Rendell, J. C. Burant, S. S. Iyengar, 
 J. Tomasi, M. Cossi, J. M. Millam, M. Klene, C. Adamo, R. Cammi, 
 J. W. Ochterski, R. L. Martin, K. Morokuma, O. Farkas, 
 J. B. Foresman, and D. J. Fox, Gaussian, Inc., Wallingford CT, 2016.
 
 ******************************************
 Gaussian 16:  ES64L-G16RevB.01 20-Dec-2017
                 6-Oct-2023 
 ******************************************
 %NProcShared=16
 Will use up to   16 processors via shared memory.
 %mem=12GB
 %Chk=checkpoint.chk
 -------------------------
 #p B3LYP/6-311+g(d) force
 -------------------------
 1/10=7,30=1,38=1/1,3;
 2/12=2,17=6,18=5,40=1/2;
 3/5=4,6=6,7=11,11=2,25=1,30=1,71=1,74=-5/1,2,3;
 4//1;
 5/5=2,38=5/2;
 6/7=2,8=2,9=2,10=2,28=1/1;
 7/29=1/1,2,3,16;
 1/10=7,30=1/3;
 99//99;
 Leave Link    1 at Fri Oct  6 22:01:34 2023, MaxMem=  1610612736 cpu:               0.6 elap:               0.4
 (Enter /home/sekinelabo/g16/l101.exe)


 Symbolic Z-matrix:
 Charge =  0 Multiplicity = 1
 Na                    0.        0.        0. 
 Na                   -4.52727   0.        3.35711 
 Na                    0.        0.        4.52539 
 Na                   -0.36612  -0.96913   9.06729 
 
 ITRead=  0  0  0  0
 MicOpt= -1 -1 -1 -1
 NAtoms=      4 NQM=        4 NQMF=       0 NMMI=      0 NMMIF=      0
                NMic=       0 NMicF=      0.
                    Isotopes and Nuclear Properties:
 (Nuclear quadrupole moments (NQMom) in fm**2, nuclear magnetic moments (NMagM)
  in nuclear magnetons)

  Atom         1           2           3           4
 IAtWgt=          23          23          23          23
 AtmWgt=  22.9897697  22.9897697  22.9897697  22.9897697
 NucSpn=           3           3           3           3
 AtZEff=  -0.0000000  -0.0000000  -0.0000000  -0.0000000
 NQMom=   10.4000000  10.4000000  10.4000000  10.4000000
 NMagM=    2.2175200   2.2175200   2.2175200   2.2175200
 AtZNuc=  11.0000000  11.0000000  11.0000000  11.0000000
 Leave Link  101 at Fri Oct  6 22:01:35 2023, MaxMem=  1610612736 cpu:               2.1 elap:               1.2
 (Enter /home/sekinelabo/g16/l103.exe)

 GradGradGradGradGradGradGradGradGradGradGradGradGradGradGradGradGradGrad
 Berny optimization.
 Initialization pass.
 Trust Radius=3.00D-01 FncErr=1.00D-07 GrdErr=1.00D-07 EigMax=2.50D+02 EigMin=1.00D-04
 Number of steps in this run=      2 maximum allowed number of steps=      2.
 GradGradGradGradGradGradGradGradGradGradGradGradGradGradGradGradGradGrad

 Leave Link  103 at Fri Oct  6 22:01:35 2023, MaxMem=  1610612736 cpu:               0.6 elap:               0.4
 (Enter /home/sekinelabo/g16/l202.exe)
                          Input orientation:                          
 ---------------------------------------------------------------------
 Center     Atomic      Atomic             Coordinates (Angstroms)
 Number     Number       Type             X           Y           Z
 ---------------------------------------------------------------------
      1         11           0        0.000000    0.000000    0.000000
      2         11           0       -4.527273    0.000000    3.357114
      3         11           0        0.000000    0.000000    4.525394
      4         11           0       -0.366116   -0.969132    9.067286
 ---------------------------------------------------------------------
                    Distance matrix (angstroms):
                    1          2          3          4
     1  Na   0.000000
     2  Na   5.636170   0.000000
     3  Na   4.525394   4.675584   0.000000
     4  Na   9.126277   7.131656   4.658545   0.000000
 Stoichiometry    Na4
 Framework group  C1[X(Na4)]
 Deg. of freedom     6
 Full point group                 C1      NOp   1
 Largest Abelian subgroup         C1      NOp   1
 Largest concise Abelian subgroup C1      NOp   1
                         Standard orientation:                         
 ---------------------------------------------------------------------
 Center     Atomic      Atomic             Coordinates (Angstroms)
 Number     Number       Type             X           Y           Z
 ---------------------------------------------------------------------
      1         11           0        4.124691   -1.571369   -0.170233
      2         11           0        1.167042    3.222963    0.011750
      3         11           0       -0.357419   -1.186265    0.321278
      4         11           0       -4.934314   -0.465329   -0.162794
 ---------------------------------------------------------------------
 Rotational constants (GHZ):           1.5016293           0.5111192           0.3834381
 Leave Link  202 at Fri Oct  6 22:01:36 2023, MaxMem=  1610612736 cpu:               1.1 elap:               0.7
 (Enter /home/sekinelabo/g16/l301.exe)
 Standard basis: 6-311+G(d) (5D, 7F)
 Ernie: Thresh=  0.10000D-02 Tol=  0.10000D-05 Strict=F.
 There are   124 symmetry adapted cartesian basis functions of A   symmetry.
 There are   120 symmetry adapted basis functions of A   symmetry.
   120 basis functions,   200 primitive gaussians,   124 cartesian basis functions
    22 alpha electrons       22 beta electrons
       nuclear repulsion energy        68.9435366930 Hartrees.
 IExCor=  402 DFT=T Ex+Corr=B3LYP ExCW=0 ScaHFX=  0.200000
 ScaDFX=  0.800000  0.720000  1.000000  0.810000 ScalE2=  1.000000  1.000000
 IRadAn=      5 IRanWt=     -1 IRanGd=            0 ICorTp=0 IEmpDi=  4
 NAtoms=    4 NActive=    4 NUniq=    4 SFac= 1.00D+00 NAtFMM=   60 NAOKFM=F Big=F
 Integral buffers will be    131072 words long.
 Raffenetti 2 integral format.
 Two-electron integral symmetry is turned on.
 Leave Link  301 at Fri Oct  6 22:01:37 2023, MaxMem=  1610612736 cpu:               0.8 elap:               0.5
 (Enter /home/sekinelabo/g16/l302.exe)
 NPDir=0 NMtPBC=     1 NCelOv=     1 NCel=       1 NClECP=     1 NCelD=      1
         NCelK=      1 NCelE2=     1 NClLst=     1 CellRange=     0.0.
 One-electron integrals computed using PRISM.
 One-electron integral symmetry used in STVInt
 NBasis=   120 RedAO= T EigKep=  1.32D-04  NBF=   120
 NBsUse=   120 1.00D-06 EigRej= -1.00D+00 NBFU=   120
 Precomputing XC quadrature grid using
 IXCGrd= 4 IRadAn=           5 IRanWt=          -1 IRanGd=           0 AccXCQ= 0.00D+00.
 Generated NRdTot=       0 NPtTot=           0 NUsed=           0 NTot=          32
 NSgBfM=   118   118   118   118   118 MxSgAt=     4 MxSgA2=     4.
 Leave Link  302 at Fri Oct  6 22:01:50 2023, MaxMem=  1610612736 cpu:              21.3 elap:              12.9
 (Enter /home/sekinelabo/g16/l303.exe)
 DipDrv:  MaxL=1.
 Leave Link  303 at Fri Oct  6 22:01:51 2023, MaxMem=  1610612736 cpu:               2.9 elap:               1.9
 (Enter /home/sekinelabo/g16/l401.exe)
 ExpMin= 7.60D-03 ExpMax= 3.62D+04 ExpMxC= 1.21D+03 IAcc=3 IRadAn=         5 AccDes= 0.00D+00
 Harris functional with IExCor=  402 and IRadAn=       5 diagonalized for initial guess.
 HarFok:  IExCor=  402 AccDes= 0.00D+00 IRadAn=         5 IDoV= 1 UseB2=F ITyADJ=14
 ICtDFT=  3500011 ScaDFX=  1.000000  1.000000  1.000000  1.000000
 FoFCou: FMM=F IPFlag=           0 FMFlag=      100000 FMFlg1=           0
         NFxFlg=           0 DoJE=T BraDBF=F KetDBF=T FulRan=T
         wScrn=  0.000000 ICntrl=       500 IOpCl=  0 I1Cent=   200000004 NGrid=           0
         NMat0=    1 NMatS0=      1 NMatT0=    0 NMatD0=    1 NMtDS0=    0 NMtDT0=    0
 Petite list used in FoFCou.
 Harris En= -649.036464544223    
 JPrj=0 DoOrth=F DoCkMO=F.
 Leave Link  401 at Fri Oct  6 22:02:01 2023, MaxMem=  1610612736 cpu:              14.9 elap:               9.3
 (Enter /home/sekinelabo/g16/l502.exe)
 Keep R1 ints in memory in canonical form, NReq=41581754.
 FoFCou: FMM=F IPFlag=           0 FMFlag=           0 FMFlg1=           0
         NFxFlg=           0 DoJE=F BraDBF=F KetDBF=F FulRan=T
         wScrn=  0.000000 ICntrl=       600 IOpCl=  0 I1Cent=           0 NGrid=           0
         NMat0=    1 NMatS0=   7260 NMatT0=    0 NMatD0=    1 NMtDS0=    0 NMtDT0=    0
 Symmetry not used in FoFCou.
 Two-electron integral symmetry not used.
 Closed shell SCF:
 Using DIIS extrapolation, IDIIS=  1040.
 NGot=  1610612736 LenX=  1584221388 LenY=  1584205571
 Requested convergence on RMS density matrix=1.00D-08 within 128 cycles.
 Requested convergence on MAX density matrix=1.00D-06.
 Requested convergence on             energy=1.00D-06.
 No special actions if energy rises.

 Cycle   1  Pass 1  IDiag  1:
 E= -649.126071270812    
 DIIS: error= 1.50D-02 at cycle   1 NSaved=   1.
 NSaved= 1 IEnMin= 1 EnMin= -649.126071270812     IErMin= 1 ErrMin= 1.50D-02
 ErrMax= 1.50D-02  0.00D+00 EMaxC= 1.00D-01 BMatC= 2.86D-02 BMatP= 2.86D-02
 IDIUse=3 WtCom= 8.50D-01 WtEn= 1.50D-01
 Coeff-Com:  0.100D+01
 Coeff-En:   0.100D+01
 Coeff:      0.100D+01
 Gap=    -0.038 Goal=   None    Shift=    0.000
 GapD=   -0.038 DampG=0.250 DampE=0.500 DampFc=0.2500 IDamp=-1.
 Damping current iteration by 2.50D-01
 RMSDP=1.05D-02 MaxDP=6.62D-01              OVMax= 9.31D-01

 Cycle   2  Pass 1  IDiag  1:
 E= -649.138710095230     Delta-E=       -0.012638824419 Rises=F Damp=T
 DIIS: error= 1.06D-02 at cycle   2 NSaved=   2.
 NSaved= 2 IEnMin= 2 EnMin= -649.138710095230     IErMin= 2 ErrMin= 1.06D-02
 ErrMax= 1.06D-02  0.00D+00 EMaxC= 1.00D-01 BMatC= 1.02D-02 BMatP= 2.86D-02
 IDIUse=3 WtCom= 8.94D-01 WtEn= 1.06D-01
 Coeff-Com: -0.880D+00 0.188D+01
 Coeff-En:   0.190D+00 0.810D+00
 Coeff:     -0.767D+00 0.177D+01
 Gap=    -0.022 Goal=   None    Shift=    0.000
 RMSDP=5.61D-03 MaxDP=2.88D-01 DE=-1.26D-02 OVMax= 9.24D-01

 Cycle   3  Pass 1  IDiag  1:
 E= -649.019684830289     Delta-E=        0.119025264941 Rises=F Damp=F
 DIIS: error= 1.48D-02 at cycle   3 NSaved=   3.
 NSaved= 3 IEnMin= 2 EnMin= -649.138710095230     IErMin= 2 ErrMin= 1.06D-02
 ErrMax= 1.48D-02  0.00D+00 EMaxC= 1.00D-01 BMatC= 1.46D-02 BMatP= 1.02D-02
 IDIUse=2 WtCom= 0.00D+00 WtEn= 1.00D+00
 Rare condition: small coef for last iteration:  0.000D+00
 Coeff-En:   0.000D+00 0.000D+00 0.100D+01
 Coeff:      0.000D+00 0.000D+00 0.100D+01
 Gap=     0.013 Goal=   None    Shift=    0.000
 RMSDP=1.57D-02 MaxDP=8.49D-01 DE= 1.19D-01 OVMax= 9.98D-01

 Cycle   4  Pass 1  IDiag  1:
 E= -648.839635224520     Delta-E=        0.180049605769 Rises=F Damp=F
 DIIS: error= 1.27D-02 at cycle   4 NSaved=   4.
 NSaved= 4 IEnMin= 2 EnMin= -649.138710095230     IErMin= 2 ErrMin= 1.06D-02
 ErrMax= 1.27D-02  0.00D+00 EMaxC= 1.00D-01 BMatC= 3.13D-02 BMatP= 1.02D-02
 IDIUse=2 WtCom= 0.00D+00 WtEn= 1.00D+00
 Coeff-En:   0.000D+00 0.000D+00 0.633D+00 0.367D+00
 Coeff:      0.000D+00 0.000D+00 0.633D+00 0.367D+00
 Gap=     0.036 Goal=   None    Shift=    0.000
 RMSDP=9.79D-03 MaxDP=4.97D-01 DE= 1.80D-01 OVMax= 4.77D-01

 Cycle   5  Pass 1  IDiag  1:
 E= -649.037899838573     Delta-E=       -0.198264614053 Rises=F Damp=F
 DIIS: error= 1.36D-02 at cycle   5 NSaved=   5.
 NSaved= 5 IEnMin= 2 EnMin= -649.138710095230     IErMin= 2 ErrMin= 1.06D-02
 ErrMax= 1.36D-02  0.00D+00 EMaxC= 1.00D-01 BMatC= 5.49D-03 BMatP= 1.02D-02
 IDIUse=3 WtCom= 8.64D-01 WtEn= 1.36D-01
 EnCoef did   100 forward-backward iterations
 Coeff-Com: -0.388D+00 0.739D+00 0.311D+00 0.799D-02 0.331D+00
 Coeff-En:   0.381D+00 0.519D+00 0.198D-02 0.000D+00 0.981D-01
 Coeff:     -0.284D+00 0.709D+00 0.269D+00 0.691D-02 0.299D+00
 Gap=    -0.015 Goal=   None    Shift=    0.000
 RMSDP=8.76D-03 MaxDP=4.95D-01 DE=-1.98D-01 OVMax= 8.14D-01

 Cycle   6  Pass 1  IDiag  1:
 E= -649.098996075400     Delta-E=       -0.061096236827 Rises=F Damp=F
 DIIS: error= 1.17D-02 at cycle   6 NSaved=   6.
 NSaved= 6 IEnMin= 2 EnMin= -649.138710095230     IErMin= 2 ErrMin= 1.06D-02
 ErrMax= 1.17D-02  0.00D+00 EMaxC= 1.00D-01 BMatC= 5.02D-03 BMatP= 5.49D-03
 IDIUse=3 WtCom= 8.83D-01 WtEn= 1.17D-01
 Coeff-Com: -0.380D+00 0.670D+00-0.109D+00-0.364D-01 0.250D+00 0.604D+00
 Coeff-En:   0.000D+00 0.000D+00 0.000D+00 0.000D+00 0.391D+00 0.609D+00
 Coeff:     -0.335D+00 0.592D+00-0.958D-01-0.321D-01 0.267D+00 0.604D+00
 Gap=     0.015 Goal=   None    Shift=    0.000
 RMSDP=2.89D-03 MaxDP=1.93D-01 DE=-6.11D-02 OVMax= 2.68D-01

 Cycle   7  Pass 1  IDiag  1:
 E= -649.138344259672     Delta-E=       -0.039348184272 Rises=F Damp=F
 DIIS: error= 5.63D-03 at cycle   7 NSaved=   7.
 NSaved= 7 IEnMin= 2 EnMin= -649.138710095230     IErMin= 7 ErrMin= 5.63D-03
 ErrMax= 5.63D-03  0.00D+00 EMaxC= 1.00D-01 BMatC= 1.67D-03 BMatP= 5.02D-03
 IDIUse=3 WtCom= 9.44D-01 WtEn= 5.63D-02
 Coeff-Com: -0.356D+00 0.557D+00-0.152D+00-0.307D-01 0.123D+00 0.218D+00
 Coeff-Com:  0.641D+00
 Coeff-En:   0.000D+00 0.000D+00 0.000D+00 0.000D+00 0.216D+00 0.000D+00
 Coeff-En:   0.784D+00
 Coeff:     -0.336D+00 0.525D+00-0.143D+00-0.289D-01 0.128D+00 0.206D+00
 Coeff:      0.649D+00
 Gap=     0.007 Goal=   None    Shift=    0.000
 RMSDP=3.14D-03 MaxDP=1.87D-01 DE=-3.93D-02 OVMax= 2.98D-01

 Cycle   8  Pass 1  IDiag  1:
 E= -649.131776931122     Delta-E=        0.006567328550 Rises=F Damp=F
 DIIS: error= 6.01D-03 at cycle   8 NSaved=   8.
 NSaved= 8 IEnMin= 2 EnMin= -649.138710095230     IErMin= 7 ErrMin= 5.63D-03
 ErrMax= 6.01D-03  0.00D+00 EMaxC= 1.00D-01 BMatC= 2.38D-03 BMatP= 1.67D-03
 IDIUse=3 WtCom= 9.44D-01 WtEn= 5.63D-02
 EnCoef did     1 forward-backward iterations
 Coeff-Com: -0.307D+00 0.468D+00-0.822D-01-0.209D-01 0.823D-01-0.399D-01
 Coeff-Com:  0.662D+00 0.238D+00
 Coeff-En:   0.000D+00 0.000D+00 0.000D+00 0.000D+00 0.197D+00 0.000D+00
 Coeff-En:   0.538D+00 0.265D+00
 Coeff:     -0.290D+00 0.441D+00-0.776D-01-0.198D-01 0.887D-01-0.377D-01
 Coeff:      0.655D+00 0.240D+00
 Gap=     0.007 Goal=   None    Shift=    0.000
 RMSDP=2.62D-03 MaxDP=1.21D-01 DE= 6.57D-03 OVMax= 2.85D-01

 Cycle   9  Pass 1  IDiag  1:
 E= -649.152793756432     Delta-E=       -0.021016825309 Rises=F Damp=F
 DIIS: error= 2.74D-03 at cycle   9 NSaved=   9.
 NSaved= 9 IEnMin= 9 EnMin= -649.152793756432     IErMin= 9 ErrMin= 2.74D-03
 ErrMax= 2.74D-03  0.00D+00 EMaxC= 1.00D-01 BMatC= 3.27D-04 BMatP= 1.67D-03
 IDIUse=3 WtCom= 9.73D-01 WtEn= 2.74D-02
 Coeff-Com: -0.134D+00 0.198D+00 0.116D+00-0.302D-02 0.467D-01-0.322D+00
 Coeff-Com: -0.125D-01 0.107D+00 0.100D+01
 Coeff-En:   0.000D+00 0.000D+00 0.000D+00 0.000D+00 0.601D-01 0.000D+00
 Coeff-En:   0.000D+00 0.000D+00 0.940D+00
 Coeff:     -0.130D+00 0.193D+00 0.113D+00-0.294D-02 0.470D-01-0.313D+00
 Coeff:     -0.122D-01 0.104D+00 0.100D+01
 Gap=     0.010 Goal=   None    Shift=    0.000
 RMSDP=6.56D-04 MaxDP=3.06D-02 DE=-2.10D-02 OVMax= 4.87D-02

 Cycle  10  Pass 1  IDiag  1:
 E= -649.155044943236     Delta-E=       -0.002251186804 Rises=F Damp=F
 DIIS: error= 1.93D-03 at cycle  10 NSaved=  10.
 NSaved=10 IEnMin=10 EnMin= -649.155044943236     IErMin=10 ErrMin= 1.93D-03
 ErrMax= 1.93D-03  0.00D+00 EMaxC= 1.00D-01 BMatC= 1.10D-04 BMatP= 3.27D-04
 IDIUse=3 WtCom= 9.81D-01 WtEn= 1.93D-02
 Coeff-Com: -0.222D-01 0.389D-01 0.944D-01-0.296D-03 0.158D-01-0.163D+00
 Coeff-Com: -0.227D+00-0.110D+00 0.196D+00 0.118D+01
 Coeff-En:   0.000D+00 0.000D+00 0.000D+00 0.000D+00 0.000D+00 0.000D+00
 Coeff-En:   0.000D+00 0.000D+00 0.000D+00 0.100D+01
 Coeff:     -0.218D-01 0.381D-01 0.926D-01-0.290D-03 0.155D-01-0.160D+00
 Coeff:     -0.222D+00-0.108D+00 0.193D+00 0.117D+01
 Gap=     0.010 Goal=   None    Shift=    0.000
 RMSDP=1.02D-03 MaxDP=4.17D-02 DE=-2.25D-03 OVMax= 1.17D-01

 Cycle  11  Pass 1  IDiag  1:
 E= -649.155915576133     Delta-E=       -0.000870632897 Rises=F Damp=F
 DIIS: error= 1.10D-03 at cycle  11 NSaved=  11.
 NSaved=11 IEnMin=11 EnMin= -649.155915576133     IErMin=11 ErrMin= 1.10D-03
 ErrMax= 1.10D-03  0.00D+00 EMaxC= 1.00D-01 BMatC= 5.45D-05 BMatP= 1.10D-04
 IDIUse=3 WtCom= 9.89D-01 WtEn= 1.10D-02
 Coeff-Com: -0.676D-02 0.980D-02 0.269D-01-0.296D-02 0.438D-02-0.463D-01
 Coeff-Com: -0.612D-01 0.677D-02-0.574D-01 0.605D+00 0.522D+00
 Coeff-En:   0.000D+00 0.000D+00 0.000D+00 0.000D+00 0.000D+00 0.000D+00
 Coeff-En:   0.000D+00 0.000D+00 0.000D+00 0.313D+00 0.687D+00
 Coeff:     -0.668D-02 0.970D-02 0.266D-01-0.293D-02 0.433D-02-0.458D-01
 Coeff:     -0.605D-01 0.669D-02-0.568D-01 0.602D+00 0.524D+00
 Gap=     0.010 Goal=   None    Shift=    0.000
 RMSDP=2.07D-04 MaxDP=1.27D-02 DE=-8.71D-04 OVMax= 1.88D-02

 Cycle  12  Pass 1  IDiag  1:
 E= -649.156268411136     Delta-E=       -0.000352835003 Rises=F Damp=F
 DIIS: error= 5.50D-04 at cycle  12 NSaved=  12.
 NSaved=12 IEnMin=12 EnMin= -649.156268411136     IErMin=12 ErrMin= 5.50D-04
 ErrMax= 5.50D-04  0.00D+00 EMaxC= 1.00D-01 BMatC= 1.03D-05 BMatP= 5.45D-05
 IDIUse=3 WtCom= 9.94D-01 WtEn= 5.50D-03
 Coeff-Com: -0.193D-02 0.237D-02 0.128D-02-0.643D-03-0.339D-04-0.349D-02
 Coeff-Com: -0.243D-02 0.327D-02 0.975D-02 0.155D+00-0.282D+00 0.112D+01
 Coeff-En:   0.000D+00 0.000D+00 0.000D+00 0.000D+00 0.000D+00 0.000D+00
 Coeff-En:   0.000D+00 0.000D+00 0.000D+00 0.103D+00 0.000D+00 0.897D+00
 Coeff:     -0.191D-02 0.235D-02 0.128D-02-0.639D-03-0.337D-04-0.347D-02
 Coeff:     -0.241D-02 0.325D-02 0.969D-02 0.155D+00-0.280D+00 0.112D+01
 Gap=     0.011 Goal=   None    Shift=    0.000
 RMSDP=9.07D-05 MaxDP=4.66D-03 DE=-3.53D-04 OVMax= 8.05D-03

 Cycle  13  Pass 1  IDiag  1:
 E= -649.156339216211     Delta-E=       -0.000070805076 Rises=F Damp=F
 DIIS: error= 2.63D-04 at cycle  13 NSaved=  13.
 NSaved=13 IEnMin=13 EnMin= -649.156339216211     IErMin=13 ErrMin= 2.63D-04
 ErrMax= 2.63D-04  0.00D+00 EMaxC= 1.00D-01 BMatC= 2.43D-06 BMatP= 1.03D-05
 IDIUse=3 WtCom= 9.97D-01 WtEn= 2.63D-03
 Coeff-Com:  0.261D-03-0.413D-03-0.862D-03-0.130D-03-0.227D-04 0.277D-03
 Coeff-Com:  0.651D-02 0.202D-03 0.968D-02 0.185D-01-0.200D+00-0.169D-02
 Coeff-Com:  0.117D+01
 Coeff-En:   0.000D+00 0.000D+00 0.000D+00 0.000D+00 0.000D+00 0.000D+00
 Coeff-En:   0.000D+00 0.000D+00 0.000D+00 0.000D+00 0.000D+00 0.000D+00
 Coeff-En:   0.100D+01
 Coeff:      0.260D-03-0.412D-03-0.860D-03-0.130D-03-0.226D-04 0.276D-03
 Coeff:      0.650D-02 0.202D-03 0.966D-02 0.185D-01-0.200D+00-0.168D-02
 Coeff:      0.117D+01
 Gap=     0.011 Goal=   None    Shift=    0.000
 RMSDP=6.48D-05 MaxDP=2.53D-03 DE=-7.08D-05 OVMax= 5.95D-03

 Cycle  14  Pass 1  IDiag  1:
 E= -649.156357880452     Delta-E=       -0.000018664241 Rises=F Damp=F
 DIIS: error= 1.04D-04 at cycle  14 NSaved=  14.
 NSaved=14 IEnMin=14 EnMin= -649.156357880452     IErMin=14 ErrMin= 1.04D-04
 ErrMax= 1.04D-04  0.00D+00 EMaxC= 1.00D-01 BMatC= 3.96D-07 BMatP= 2.43D-06
 IDIUse=3 WtCom= 9.99D-01 WtEn= 1.04D-03
 Coeff-Com:  0.321D-03-0.510D-03-0.386D-03 0.117D-03-0.145D-03-0.420D-03
 Coeff-Com:  0.420D-02 0.107D-02-0.529D-03-0.202D-02-0.550D-01-0.113D+00
 Coeff-Com:  0.945D-01 0.107D+01
 Coeff-En:   0.000D+00 0.000D+00 0.000D+00 0.000D+00 0.000D+00 0.000D+00
 Coeff-En:   0.000D+00 0.000D+00 0.000D+00 0.000D+00 0.000D+00 0.000D+00
 Coeff-En:   0.000D+00 0.100D+01
 Coeff:      0.321D-03-0.509D-03-0.386D-03 0.117D-03-0.145D-03-0.420D-03
 Coeff:      0.420D-02 0.107D-02-0.529D-03-0.201D-02-0.549D-01-0.113D+00
 Coeff:      0.944D-01 0.107D+01
 Gap=     0.011 Goal=   None    Shift=    0.000
 RMSDP=3.62D-05 MaxDP=1.38D-03 DE=-1.87D-05 OVMax= 3.34D-03

 Cycle  15  Pass 1  IDiag  1:
 E= -649.156361509699     Delta-E=       -0.000003629247 Rises=F Damp=F
 DIIS: error= 2.89D-05 at cycle  15 NSaved=  15.
 NSaved=15 IEnMin=15 EnMin= -649.156361509699     IErMin=15 ErrMin= 2.89D-05
 ErrMax= 2.89D-05  0.00D+00 EMaxC= 1.00D-01 BMatC= 3.28D-08 BMatP= 3.96D-07
 IDIUse=1 WtCom= 1.00D+00 WtEn= 0.00D+00
 Coeff-Com: -0.192D-03 0.218D-03 0.118D-03-0.183D-04-0.117D-04-0.557D-03
 Coeff-Com:  0.117D-02 0.549D-03-0.536D-04-0.366D-02 0.804D-02 0.148D-01
 Coeff-Com: -0.159D+00-0.157D+00 0.130D+01
 Coeff:     -0.192D-03 0.218D-03 0.118D-03-0.183D-04-0.117D-04-0.557D-03
 Coeff:      0.117D-02 0.549D-03-0.536D-04-0.366D-02 0.804D-02 0.148D-01
 Coeff:     -0.159D+00-0.157D+00 0.130D+01
 Gap=     0.011 Goal=   None    Shift=    0.000
 RMSDP=2.35D-05 MaxDP=6.90D-04 DE=-3.63D-06 OVMax= 2.61D-03

 Cycle  16  Pass 1  IDiag  1:
 E= -649.156361853643     Delta-E=       -0.000000343944 Rises=F Damp=F
 DIIS: error= 1.68D-05 at cycle  16 NSaved=  16.
 NSaved=16 IEnMin=16 EnMin= -649.156361853643     IErMin=16 ErrMin= 1.68D-05
 ErrMax= 1.68D-05  0.00D+00 EMaxC= 1.00D-01 BMatC= 1.14D-08 BMatP= 3.28D-08
 IDIUse=1 WtCom= 1.00D+00 WtEn= 0.00D+00
 Coeff-Com: -0.854D-04 0.999D-04 0.109D-03-0.301D-04 0.483D-04-0.251D-03
 Coeff-Com: -0.587D-05 0.242D-03 0.136D-02-0.108D-02-0.503D-02 0.129D-01
 Coeff-Com:  0.298D-01-0.330D+00 0.371D+00 0.921D+00
 Coeff:     -0.854D-04 0.999D-04 0.109D-03-0.301D-04 0.483D-04-0.251D-03
 Coeff:     -0.587D-05 0.242D-03 0.136D-02-0.108D-02-0.503D-02 0.129D-01
 Coeff:      0.298D-01-0.330D+00 0.371D+00 0.921D+00
 Gap=     0.011 Goal=   None    Shift=    0.000
 RMSDP=7.54D-06 MaxDP=2.19D-04 DE=-3.44D-07 OVMax= 7.43D-04

 Cycle  17  Pass 1  IDiag  1:
 E= -649.156361953420     Delta-E=       -0.000000099777 Rises=F Damp=F
 DIIS: error= 5.57D-06 at cycle  17 NSaved=  17.
 NSaved=17 IEnMin=17 EnMin= -649.156361953420     IErMin=17 ErrMin= 5.57D-06
 ErrMax= 5.57D-06  0.00D+00 EMaxC= 1.00D-01 BMatC= 1.26D-09 BMatP= 1.14D-08
 IDIUse=1 WtCom= 1.00D+00 WtEn= 0.00D+00
 Coeff-Com:  0.403D-04-0.543D-04 0.239D-04-0.552D-05 0.836D-05-0.542D-04
 Coeff-Com:  0.326D-04-0.402D-04-0.222D-03 0.100D-02-0.386D-02-0.985D-03
 Coeff-Com:  0.203D-01-0.498D-01-0.341D-01 0.804D-01 0.987D+00
 Coeff:      0.403D-04-0.543D-04 0.239D-04-0.552D-05 0.836D-05-0.542D-04
 Coeff:      0.326D-04-0.402D-04-0.222D-03 0.100D-02-0.386D-02-0.985D-03
 Coeff:      0.203D-01-0.498D-01-0.341D-01 0.804D-01 0.987D+00
 Gap=     0.011 Goal=   None    Shift=    0.000
 RMSDP=2.51D-06 MaxDP=9.82D-05 DE=-9.98D-08 OVMax= 2.09D-04

 Cycle  18  Pass 1  IDiag  1:
 E= -649.156361964738     Delta-E=       -0.000000011317 Rises=F Damp=F
 DIIS: error= 8.59D-07 at cycle  18 NSaved=  18.
 NSaved=18 IEnMin=18 EnMin= -649.156361964738     IErMin=18 ErrMin= 8.59D-07
 ErrMax= 8.59D-07  0.00D+00 EMaxC= 1.00D-01 BMatC= 2.51D-11 BMatP= 1.26D-09
 IDIUse=1 WtCom= 1.00D+00 WtEn= 0.00D+00
 Coeff-Com: -0.774D-05 0.105D-04-0.156D-05-0.124D-05-0.148D-05-0.682D-05
 Coeff-Com:  0.390D-04-0.441D-05 0.611D-04 0.925D-04 0.255D-04 0.376D-03
 Coeff-Com:  0.139D-03-0.183D-02-0.112D-02-0.234D-02-0.106D+00 0.111D+01
 Coeff:     -0.774D-05 0.105D-04-0.156D-05-0.124D-05-0.148D-05-0.682D-05
 Coeff:      0.390D-04-0.441D-05 0.611D-04 0.925D-04 0.255D-04 0.376D-03
 Coeff:      0.139D-03-0.183D-02-0.112D-02-0.234D-02-0.106D+00 0.111D+01
 Gap=     0.011 Goal=   None    Shift=    0.000
 RMSDP=4.04D-07 MaxDP=1.17D-05 DE=-1.13D-08 OVMax= 3.63D-05

 Cycle  19  Pass 1  IDiag  1:
 E= -649.156361964999     Delta-E=       -0.000000000262 Rises=F Damp=F
 DIIS: error= 1.05D-07 at cycle  19 NSaved=  19.
 NSaved=19 IEnMin=19 EnMin= -649.156361964999     IErMin=19 ErrMin= 1.05D-07
 ErrMax= 1.05D-07  0.00D+00 EMaxC= 1.00D-01 BMatC= 3.84D-13 BMatP= 2.51D-11
 IDIUse=1 WtCom= 1.00D+00 WtEn= 0.00D+00
 Coeff-Com: -0.234D-05 0.311D-05-0.166D-05-0.112D-06-0.391D-06 0.151D-05
 Coeff-Com:  0.108D-04 0.169D-06 0.165D-04-0.282D-04 0.953D-04-0.160D-03
 Coeff-Com: -0.506D-03 0.196D-02-0.247D-02-0.229D-02-0.332D-01 0.168D+00
 Coeff-Com:  0.868D+00
 Coeff:     -0.234D-05 0.311D-05-0.166D-05-0.112D-06-0.391D-06 0.151D-05
 Coeff:      0.108D-04 0.169D-06 0.165D-04-0.282D-04 0.953D-04-0.160D-03
 Coeff:     -0.506D-03 0.196D-02-0.247D-02-0.229D-02-0.332D-01 0.168D+00
 Coeff:      0.868D+00
 Gap=     0.011 Goal=   None    Shift=    0.000
 RMSDP=8.38D-08 MaxDP=2.31D-06 DE=-2.62D-10 OVMax= 8.95D-06

 Cycle  20  Pass 1  IDiag  1:
 E= -649.156361965001     Delta-E=       -0.000000000001 Rises=F Damp=F
 DIIS: error= 2.37D-08 at cycle  20 NSaved=  20.
 NSaved=20 IEnMin=20 EnMin= -649.156361965001     IErMin=20 ErrMin= 2.37D-08
 ErrMax= 2.37D-08  0.00D+00 EMaxC= 1.00D-01 BMatC= 2.35D-14 BMatP= 3.84D-13
 IDIUse=1 WtCom= 1.00D+00 WtEn= 0.00D+00
 Coeff-Com: -0.337D-06 0.417D-06-0.339D-06-0.267D-07 0.364D-07 0.938D-06
 Coeff-Com:  0.567D-06 0.413D-06-0.527D-06-0.155D-04 0.370D-04-0.156D-04
 Coeff-Com: -0.183D-03 0.462D-03-0.526D-03 0.609D-03-0.334D-02-0.310D-01
 Coeff-Com:  0.149D+00 0.885D+00
 Coeff:     -0.337D-06 0.417D-06-0.339D-06-0.267D-07 0.364D-07 0.938D-06
 Coeff:      0.567D-06 0.413D-06-0.527D-06-0.155D-04 0.370D-04-0.156D-04
 Coeff:     -0.183D-03 0.462D-03-0.526D-03 0.609D-03-0.334D-02-0.310D-01
 Coeff:      0.149D+00 0.885D+00
 Gap=     0.011 Goal=   None    Shift=    0.000
 RMSDP=1.25D-08 MaxDP=3.87D-07 DE=-1.36D-12 OVMax= 1.51D-06

 Cycle  21  Pass 1  IDiag  1:
 E= -649.156361965008     Delta-E=       -0.000000000007 Rises=F Damp=F
 DIIS: error= 5.35D-09 at cycle  21 NSaved=  20.
 NSaved=20 IEnMin=20 EnMin= -649.156361965008     IErMin=20 ErrMin= 5.35D-09
 ErrMax= 5.35D-09  0.00D+00 EMaxC= 1.00D-01 BMatC= 1.94D-15 BMatP= 2.35D-14
 IDIUse=1 WtCom= 1.00D+00 WtEn= 0.00D+00
 Large coefficients: NSaved= 20 BigCof=    0.00 CofMax=   10.00 Det=-1.17D-15
 Inversion failed.  Reducing to 19 matrices.
 Large coefficients: NSaved= 19 BigCof=    0.00 CofMax=   10.00 Det=-1.22D-15
 Inversion failed.  Reducing to 18 matrices.
 Large coefficients: NSaved= 18 BigCof=    0.00 CofMax=   10.00 Det=-1.23D-15
 Inversion failed.  Reducing to 17 matrices.
 Large coefficients: NSaved= 17 BigCof=    0.00 CofMax=   10.00 Det=-1.39D-15
 Inversion failed.  Reducing to 16 matrices.
 Large coefficients: NSaved= 16 BigCof=    0.00 CofMax=   10.00 Det=-1.58D-15
 Inversion failed.  Reducing to 15 matrices.
 Coeff-Com:  0.108D-07-0.104D-06-0.460D-06 0.398D-06 0.330D-05-0.708D-05
 Coeff-Com: -0.543D-05 0.832D-04-0.523D-04 0.107D-03 0.943D-03-0.361D-02
 Coeff-Com: -0.117D-01 0.210D+00 0.804D+00
 Coeff:      0.108D-07-0.104D-06-0.460D-06 0.398D-06 0.330D-05-0.708D-05
 Coeff:     -0.543D-05 0.832D-04-0.523D-04 0.107D-03 0.943D-03-0.361D-02
 Coeff:     -0.117D-01 0.210D+00 0.804D+00
 Gap=     0.011 Goal=   None    Shift=    0.000
 RMSDP=6.16D-09 MaxDP=1.56D-07 DE=-7.05D-12 OVMax= 5.50D-07

 SCF Done:  E(RB3LYP) =  -649.156361965     A.U. after   21 cycles
            NFock= 21  Conv=0.62D-08     -V/T= 2.0031
 KE= 6.471736559960D+02 PE=-1.696465861418D+03 EE= 3.311923067638D+02
 Leave Link  502 at Fri Oct  6 22:04:27 2023, MaxMem=  1610612736 cpu:             234.6 elap:             146.0
 (Enter /home/sekinelabo/g16/l601.exe)
 Copying SCF densities to generalized density rwf, IOpCl= 0 IROHF=0.

 **********************************************************************

            Population analysis using the SCF Density.

 **********************************************************************

 Orbital symmetries:
       Occupied  (A) (A) (A) (A) (A) (A) (A) (A) (A) (A) (A) (A)
                 (A) (A) (A) (A) (A) (A) (A) (A) (A) (A)
       Virtual   (A) (A) (A) (A) (A) (A) (A) (A) (A) (A) (A) (A)
                 (A) (A) (A) (A) (A) (A) (A) (A) (A) (A) (A) (A)
                 (A) (A) (A) (A) (A) (A) (A) (A) (A) (A) (A) (A)
                 (A) (A) (A) (A) (A) (A) (A) (A) (A) (A) (A) (A)
                 (A) (A) (A) (A) (A) (A) (A) (A) (A) (A) (A) (A)
                 (A) (A) (A) (A) (A) (A) (A) (A) (A) (A) (A) (A)
                 (A) (A) (A) (A) (A) (A) (A) (A) (A) (A) (A) (A)
                 (A) (A) (A) (A) (A) (A) (A) (A) (A) (A) (A) (A)
                 (A) (A)
 The electronic state is 1-A.
 Alpha  occ. eigenvalues --  -38.48716 -38.46143 -38.45750 -38.43941  -2.24362
 Alpha  occ. eigenvalues --   -2.21816  -2.21442  -2.19635  -1.18045  -1.18025
 Alpha  occ. eigenvalues --   -1.17997  -1.15521  -1.15495  -1.15420  -1.15119
 Alpha  occ. eigenvalues --   -1.15119  -1.15085  -1.13314  -1.13314  -1.13269
 Alpha  occ. eigenvalues --   -0.13485  -0.10371
 Alpha virt. eigenvalues --   -0.09257  -0.06482  -0.02986  -0.02897  -0.02471
 Alpha virt. eigenvalues --   -0.01986  -0.01172  -0.01037  -0.00693  -0.00141
 Alpha virt. eigenvalues --   -0.00020   0.00538   0.00618   0.00682   0.00997
 Alpha virt. eigenvalues --    0.01300   0.01420   0.01641   0.01733   0.01817
 Alpha virt. eigenvalues --    0.01891   0.02009   0.02272   0.02378   0.02403
 Alpha virt. eigenvalues --    0.02772   0.03050   0.03222   0.03583   0.04529
 Alpha virt. eigenvalues --    0.06379   0.07239   0.07528   0.07838   0.07968
 Alpha virt. eigenvalues --    0.08014   0.08334   0.08726   0.08833   0.09223
 Alpha virt. eigenvalues --    0.09405   0.09619   0.10925   0.11786   0.12055
 Alpha virt. eigenvalues --    0.13283   0.30744   0.31557   0.32158   0.32738
 Alpha virt. eigenvalues --    0.32886   0.32948   0.33252   0.34149   0.34608
 Alpha virt. eigenvalues --    0.35125   0.35319   0.35590   0.35824   0.36087
 Alpha virt. eigenvalues --    0.36170   0.36259   0.36946   0.37450   0.37719
 Alpha virt. eigenvalues --    0.41114   0.41426   0.41973   0.42942   0.43728
 Alpha virt. eigenvalues --    0.44090   0.44606   0.44756   0.45201   0.47374
 Alpha virt. eigenvalues --    0.47413   0.49072   0.51381   1.98496   2.01509
 Alpha virt. eigenvalues --    2.04163   2.05054   4.40309   4.40550   4.41038
 Alpha virt. eigenvalues --    4.42897   4.43484   4.43660   4.43842   4.44801
 Alpha virt. eigenvalues --    4.45031   4.45634   4.45823   4.49078  96.17272
 Alpha virt. eigenvalues --   96.20769  96.23656  96.24806
          Condensed to atoms (all electrons):
               1          2          3          4
     1  Na  10.988111   0.058454  -0.044353  -0.068985
     2  Na   0.058454  10.692691   0.129904  -0.004764
     3  Na  -0.044353   0.129904  10.734736   0.224108
     4  Na  -0.068985  -0.004764   0.224108  10.995737
 Mulliken charges:
               1
     1  Na   0.066774
     2  Na   0.123716
     3  Na  -0.044395
     4  Na  -0.146095
 Sum of Mulliken charges =  -0.00000
 Mulliken charges with hydrogens summed into heavy atoms:
               1
     1  Na   0.066774
     2  Na   0.123716
     3  Na  -0.044395
     4  Na  -0.146095
 Electronic spatial extent (au):  <R**2>=           2349.6021
 Charge=             -0.0000 electrons
 Dipole moment (field-independent basis, Debye):
    X=              2.4465    Y=              2.4563    Z=              0.0352  Tot=              3.4669
 Quadrupole moment (field-independent basis, Debye-Ang):
   XX=            -49.6970   YY=            -26.3328   ZZ=            -46.7909
   XY=             -0.8096   XZ=              0.3671   YZ=             -0.5302
 Traceless Quadrupole moment (field-independent basis, Debye-Ang):
   XX=             -8.7568   YY=             14.6074   ZZ=             -5.8507
   XY=             -0.8096   XZ=              0.3671   YZ=             -0.5302
 Octapole moment (field-independent basis, Debye-Ang**2):
  XXX=              9.6020  YYY=             75.9448  ZZZ=              0.9251  XYY=             32.5704
  XXY=              0.6327  XXZ=             -5.1704  XZZ=              7.4535  YZZ=              5.2090
  YYZ=              0.6197  XYZ=              0.4542
 Hexadecapole moment (field-independent basis, Debye-Ang**3):
 XXXX=          -3041.2112 YYYY=           -761.6548 ZZZZ=           -230.3776 XXXY=            -69.4603
 XXXZ=             11.3095 YYYX=             52.1060 YYYZ=             -3.9622 ZZZX=              2.3468
 ZZZY=             -3.3308 XXYY=           -699.9186 XXZZ=           -603.1838 YYZZ=           -204.0251
 XXYZ=              5.3303 YYXZ=             -0.5165 ZZXY=             -1.5645
 N-N= 6.894353669300D+01 E-N=-1.696465861132D+03  KE= 6.471736559960D+02
 No NMR shielding tensors so no spin-rotation constants.
 Leave Link  601 at Fri Oct  6 22:04:33 2023, MaxMem=  1610612736 cpu:               8.9 elap:               5.6
 (Enter /home/sekinelabo/g16/l701.exe)
 ... and contract with generalized density number  0.
 Compute integral first derivatives.
 Leave Link  701 at Fri Oct  6 22:04:37 2023, MaxMem=  1610612736 cpu:               6.9 elap:               4.1
 (Enter /home/sekinelabo/g16/l702.exe)
 L702 exits ... SP integral derivatives will be done elsewhere.
 Leave Link  702 at Fri Oct  6 22:04:37 2023, MaxMem=  1610612736 cpu:               0.7 elap:               0.4
 (Enter /home/sekinelabo/g16/l703.exe)
 Integral derivatives from FoFJK, PRISM(SPDF).
 Compute integral first derivatives, UseDBF=F ICtDFT=           0.
 Calling FoFJK, ICntrl=      2127 FMM=F ISym2X=0 I1Cent= 0 IOpClX= 0 NMat=1 NMatS=1 NMatT=0.
 FoFJK:  IHMeth= 1 ICntrl=    2127 DoSepK=F KAlg= 0 I1Cent=           0 FoldK=F
 IRaf=         0 NMat=       1 IRICut=       1 DoRegI=T DoRafI=F ISym2E= 0 IDoP0=0 IntGTp=1.
 FoFCou: FMM=F IPFlag=           0 FMFlag=      100000 FMFlg1=         800
         NFxFlg=           0 DoJE=F BraDBF=F KetDBF=F FulRan=T
         wScrn=  0.000000 ICntrl=      2127 IOpCl=  0 I1Cent=           0 NGrid=           0
         NMat0=    1 NMatS0=      1 NMatT0=    0 NMatD0=    1 NMtDS0=    0 NMtDT0=    0
 Symmetry not used in FoFCou.
 Leave Link  703 at Fri Oct  6 22:04:44 2023, MaxMem=  1610612736 cpu:              12.0 elap:               7.2
 (Enter /home/sekinelabo/g16/l716.exe)
 Dipole        = 9.62510403D-01 9.66363200D-01 1.38528168D-02
 ***** Axes restored to original set *****
 -------------------------------------------------------------------
 Center     Atomic                   Forces (Hartrees/Bohr)
 Number     Number              X              Y              Z
 -------------------------------------------------------------------
      1       11          -0.003098000    0.000099759    0.002928217
      2       11           0.007799192   -0.000054403   -0.000861427
      3       11          -0.004970018   -0.001429891    0.004021994
      4       11           0.000268825    0.001384535   -0.006088785
 -------------------------------------------------------------------
 Cartesian Forces:  Max     0.007799192 RMS     0.003671274
 Z-matrix is all fixed cartesians, so copy forces.
 Force constants in Cartesian coordinates: 
                1             2             3             4             5 
      1  0.100000D+01
      2  0.000000D+00  0.100000D+01
      3  0.000000D+00  0.000000D+00  0.100000D+01
      4  0.000000D+00  0.000000D+00  0.000000D+00  0.100000D+01
      5  0.000000D+00  0.000000D+00  0.000000D+00  0.000000D+00  0.100000D+01
      6  0.000000D+00  0.000000D+00  0.000000D+00  0.000000D+00  0.000000D+00
      7  0.000000D+00  0.000000D+00  0.000000D+00  0.000000D+00  0.000000D+00
      8  0.000000D+00  0.000000D+00  0.000000D+00  0.000000D+00  0.000000D+00
      9  0.000000D+00  0.000000D+00  0.000000D+00  0.000000D+00  0.000000D+00
     10  0.000000D+00  0.000000D+00  0.000000D+00  0.000000D+00  0.000000D+00
     11  0.000000D+00  0.000000D+00  0.000000D+00  0.000000D+00  0.000000D+00
     12  0.000000D+00  0.000000D+00  0.000000D+00  0.000000D+00  0.000000D+00
                6             7             8             9            10 
      6  0.100000D+01
      7  0.000000D+00  0.100000D+01
      8  0.000000D+00  0.000000D+00  0.100000D+01
      9  0.000000D+00  0.000000D+00  0.000000D+00  0.100000D+01
     10  0.000000D+00  0.000000D+00  0.000000D+00  0.000000D+00  0.100000D+01
     11  0.000000D+00  0.000000D+00  0.000000D+00  0.000000D+00  0.000000D+00
     12  0.000000D+00  0.000000D+00  0.000000D+00  0.000000D+00  0.000000D+00
               11            12 
     11  0.100000D+01
     12  0.000000D+00  0.100000D+01
 Leave Link  716 at Fri Oct  6 22:04:45 2023, MaxMem=  1610612736 cpu:               0.7 elap:               0.5
 (Enter /home/sekinelabo/g16/l103.exe)

 GradGradGradGradGradGradGradGradGradGradGradGradGradGradGradGradGradGrad
 Berny optimization.
 Search for a local minimum.
 Step number   1 out of a maximum of    2
 All quantities printed in internal units (Hartrees-Bohrs-Radians)
 Second derivative matrix not updated -- first step.
 The second derivative matrix:
                          X1        Y1        Z1        X2        Y2
           X1           1.00000
           Y1          -0.00000   1.00000
           Z1           0.00000   0.00000   1.00000
           X2           0.00000   0.00000   0.00000   1.00000
           Y2           0.00000   0.00000   0.00000  -0.00000   1.00000
           Z2           0.00000   0.00000   0.00000   0.00000   0.00000
           X3           0.00000   0.00000   0.00000   0.00000   0.00000
           Y3           0.00000   0.00000   0.00000   0.00000   0.00000
           Z3           0.00000   0.00000   0.00000   0.00000   0.00000
           X4           0.00000   0.00000   0.00000   0.00000   0.00000
           Y4           0.00000   0.00000   0.00000   0.00000   0.00000
           Z4           0.00000   0.00000   0.00000   0.00000   0.00000
                          Z2        X3        Y3        Z3        X4
           Z2           1.00000
           X3           0.00000   1.00000
           Y3           0.00000  -0.00000   1.00000
           Z3           0.00000   0.00000   0.00000   1.00000
           X4           0.00000   0.00000   0.00000   0.00000   1.00000
           Y4           0.00000   0.00000   0.00000   0.00000  -0.00000
           Z4           0.00000   0.00000   0.00000   0.00000   0.00000
                          Y4        Z4
           Y4           1.00000
           Z4           0.00000   1.00000
 ITU=  0
     Eigenvalues ---    1.00000   1.00000   1.00000   1.00000   1.00000
     Eigenvalues ---    1.00000   1.00000   1.00000   1.00000   1.00000
     Eigenvalues ---    1.00000   1.00000
 Angle between quadratic step and forces=   0.00 degrees.
 Linear search not attempted -- first point.
 B after Tr=    -0.000000   -0.000000   -0.000000
         Rot=    1.000000    0.000000   -0.000000   -0.000000 Ang=   0.00 deg.
 Variable       Old X    -DE/DX   Delta X   Delta X   Delta X     New X
                                 (Linear)    (Quad)   (Total)
    X1        0.00000  -0.00310   0.00000  -0.00310  -0.00310  -0.00310
    Y1        0.00000   0.00010   0.00000   0.00010   0.00010   0.00010
    Z1        0.00000   0.00293   0.00000   0.00293   0.00293   0.00293
    X2       -8.55531   0.00780   0.00000   0.00780   0.00780  -8.54751
    Y2        0.00000  -0.00005   0.00000  -0.00005  -0.00005  -0.00005
    Z2        6.34403  -0.00086   0.00000  -0.00086  -0.00086   6.34316
    X3       -0.00000  -0.00497   0.00000  -0.00497  -0.00497  -0.00497
    Y3        0.00000  -0.00143   0.00000  -0.00143  -0.00143  -0.00143
    Z3        8.55176   0.00402   0.00000   0.00402   0.00402   8.55578
    X4       -0.69186   0.00027   0.00000   0.00027   0.00027  -0.69159
    Y4       -1.83139   0.00138   0.00000   0.00138   0.00138  -1.83001
    Z4       17.13469  -0.00609   0.00000  -0.00609  -0.00609  17.12860
         Item               Value     Threshold  Converged?
 Maximum Force            0.007799     0.000450     NO 
 RMS     Force            0.003671     0.000300     NO 
 Maximum Displacement     0.007799     0.001800     NO 
 RMS     Displacement     0.003671     0.001200     NO 
 Predicted change in Energy=-8.086952D-05
 GradGradGradGradGradGradGradGradGradGradGradGradGradGradGradGradGradGrad

 Leave Link  103 at Fri Oct  6 22:04:46 2023, MaxMem=  1610612736 cpu:               0.6 elap:               0.5
 (Enter /home/sekinelabo/g16/l9999.exe)
 1\1\GINC-SEKINELABO-XA7R-R37\Force\RB3LYP\6-311+G(d)\Na4\SEKINELABO\06
 -Oct-2023\0\\#p B3LYP/6-311+g(d) force\\\0,1\Na,0.,0.,0.\Na,-4.5272731
 348,0.,3.3571137964\Na,0.,0.,4.5253944421\Na,-0.3661161902,-0.96913183
 44,9.067286391\\Version=ES64L-G16RevB.01\State=1-A\HF=-649.156362\RMSD
 =6.165e-09\RMSF=3.671e-03\Dipole=-1.0399292,0.1512692,-0.8695636\Quadr
 upole=10.6537481,-4.3300511,-6.3236969,-0.0151282,-2.0242544,-0.007871
 4\PG=C01 [X(Na4)]\\@


 THE DIFFERENCE BETWEEN A NOOSE AND A HALO IS ONLY 12 INCHES.
 Job cpu time:       0 days  0 hours  5 minutes  9.6 seconds.
 Elapsed time:       0 days  0 hours  3 minutes 12.3 seconds.
 File lengths (MBytes):  RWF=     10 Int=      0 D2E=      0 Chk=      2 Scr=      1
 Normal termination of Gaussian 16 at Fri Oct  6 22:04:46 2023.
 Initial command:
 /home/sekinelabo/g16/l1.exe "/home/sekinelabo/g16temp/Gau-708745.inp" -scrdir="/home/sekinelabo/g16temp/"
 Entering Link 1 = /home/sekinelabo/g16/l1.exe PID=    714090.
  
 Copyright (c) 1988-2017, Gaussian, Inc.  All Rights Reserved.
  
 This is part of the Gaussian(R) 16 program.  It is based on
 the Gaussian(R) 09 system (copyright 2009, Gaussian, Inc.),
 the Gaussian(R) 03 system (copyright 2003, Gaussian, Inc.),
 the Gaussian(R) 98 system (copyright 1998, Gaussian, Inc.),
 the Gaussian(R) 94 system (copyright 1995, Gaussian, Inc.),
 the Gaussian 92(TM) system (copyright 1992, Gaussian, Inc.),
 the Gaussian 90(TM) system (copyright 1990, Gaussian, Inc.),
 the Gaussian 88(TM) system (copyright 1988, Gaussian, Inc.),
 the Gaussian 86(TM) system (copyright 1986, Carnegie Mellon
 University), and the Gaussian 82(TM) system (copyright 1983,
 Carnegie Mellon University). Gaussian is a federally registered
 trademark of Gaussian, Inc.
  
 This software contains proprietary and confidential information,
 including trade secrets, belonging to Gaussian, Inc.
  
 This software is provided under written license and may be
 used, copied, transmitted, or stored only in accord with that
 written license.
  
 The following legend is applicable only to US Government
 contracts under FAR:
  
                    RESTRICTED RIGHTS LEGEND
  
 Use, reproduction and disclosure by the US Government is
 subject to restrictions as set forth in subparagraphs (a)
 and (c) of the Commercial Computer Software - Restricted
 Rights clause in FAR 52.227-19.
  
 Gaussian, Inc.
 340 Quinnipiac St., Bldg. 40, Wallingford CT 06492
  
  
 ---------------------------------------------------------------
 Warning -- This program may not be used in any manner that
 competes with the business of Gaussian, Inc. or will provide
 assistance to any competitor of Gaussian, Inc.  The licensee
 of this program is prohibited from giving any competitor of
 Gaussian, Inc. access to this program.  By using this program,
 the user acknowledges that Gaussian, Inc. is engaged in the
 business of creating and licensing software in the field of
 computational chemistry and represents and warrants to the
 licensee that it is not a competitor of Gaussian, Inc. and that
 it will not use this program in any manner prohibited above.
 ---------------------------------------------------------------
  

 Cite this work as:
 Gaussian 16, Revision B.01,
 M. J. Frisch, G. W. Trucks, H. B. Schlegel, G. E. Scuseria, 
 M. A. Robb, J. R. Cheeseman, G. Scalmani, V. Barone, 
 G. A. Petersson, H. Nakatsuji, X. Li, M. Caricato, A. V. Marenich, 
 J. Bloino, B. G. Janesko, R. Gomperts, B. Mennucci, H. P. Hratchian, 
 J. V. Ortiz, A. F. Izmaylov, J. L. Sonnenberg, D. Williams-Young, 
 F. Ding, F. Lipparini, F. Egidi, J. Goings, B. Peng, A. Petrone, 
 T. Henderson, D. Ranasinghe, V. G. Zakrzewski, J. Gao, N. Rega, 
 G. Zheng, W. Liang, M. Hada, M. Ehara, K. Toyota, R. Fukuda, 
 J. Hasegawa, M. Ishida, T. Nakajima, Y. Honda, O. Kitao, H. Nakai, 
 T. Vreven, K. Throssell, J. A. Montgomery, Jr., J. E. Peralta, 
 F. Ogliaro, M. J. Bearpark, J. J. Heyd, E. N. Brothers, K. N. Kudin, 
 V. N. Staroverov, T. A. Keith, R. Kobayashi, J. Normand, 
 K. Raghavachari, A. P. Rendell, J. C. Burant, S. S. Iyengar, 
 J. Tomasi, M. Cossi, J. M. Millam, M. Klene, C. Adamo, R. Cammi, 
 J. W. Ochterski, R. L. Martin, K. Morokuma, O. Farkas, 
 J. B. Foresman, and D. J. Fox, Gaussian, Inc., Wallingford CT, 2016.
 
 ******************************************
 Gaussian 16:  ES64L-G16RevB.01 20-Dec-2017
                 6-Oct-2023 
 ******************************************
 %NProcShared=16
 Will use up to   16 processors via shared memory.
 %mem=12GB
 %Chk=checkpoint.chk
 -------------------------
 #p B3LYP/6-311+g(d) force
 -------------------------
 1/10=7,30=1,38=1/1,3;
 2/12=2,17=6,18=5,40=1/2;
 3/5=4,6=6,7=11,11=2,25=1,30=1,71=1,74=-5/1,2,3;
 4//1;
 5/5=2,38=5/2;
 6/7=2,8=2,9=2,10=2,28=1/1;
 7/29=1/1,2,3,16;
 1/10=7,30=1/3;
 99//99;
 Leave Link    1 at Fri Oct  6 22:04:47 2023, MaxMem=  1610612736 cpu:               0.6 elap:               0.5
 (Enter /home/sekinelabo/g16/l101.exe)


 Symbolic Z-matrix:
 Charge =  0 Multiplicity = 1
 Na                    0.        0.        0. 
 Na                   -2.10939   0.       -1.40736 
 Na                    0.        0.        3.58694 
 Na                   -0.56566  -4.05913   6.94056 
 
 ITRead=  0  0  0  0
[...]
 Coeff:      0.550D-01 0.104D+01
 Gap=     0.016 Goal=   None    Shift=    0.000
 RMSDP=1.85D-05 MaxDP=1.04D-03 DE=-4.83D-07 OVMax= 2.16D-03

 Cycle  15  Pass 1  IDiag  1:
 E= -649.162228099754     Delta-E=       -0.000001994120 Rises=F Damp=F
 DIIS: error= 1.28D-06 at cycle  15 NSaved=  15.
 NSaved=15 IEnMin=15 EnMin= -649.162228099754     IErMin=15 ErrMin= 1.28D-06
 ErrMax= 1.28D-06  0.00D+00 EMaxC= 1.00D-01 BMatC= 2.34D-10 BMatP= 2.54D-07
 IDIUse=1 WtCom= 1.00D+00 WtEn= 0.00D+00
 Coeff-Com: -0.145D-03 0.197D-03-0.535D-04-0.204D-03-0.609D-04 0.662D-03
 Coeff-Com: -0.425D-04-0.498D-02-0.126D-01 0.305D-01-0.934D-02-0.243D-01
 Coeff-Com: -0.139D-01 0.149D+00 0.885D+00
 Coeff:     -0.145D-03 0.197D-03-0.535D-04-0.204D-03-0.609D-04 0.662D-03
 Coeff:     -0.425D-04-0.498D-02-0.126D-01 0.305D-01-0.934D-02-0.243D-01
 Coeff:     -0.139D-01 0.149D+00 0.885D+00
 Gap=     0.016 Goal=   None    Shift=    0.000
 RMSDP=2.44D-06 MaxDP=9.09D-05 DE=-1.99D-06 OVMax= 2.01D-04

 Cycle  16  Pass 1  IDiag  1:
 E= -649.162228089223     Delta-E=        0.000000010531 Rises=F Damp=F
 DIIS: error= 7.08D-06 at cycle  16 NSaved=  16.
 NSaved=16 IEnMin=15 EnMin= -649.162228099754     IErMin=15 ErrMin= 1.28D-06
 ErrMax= 7.08D-06  0.00D+00 EMaxC= 1.00D-01 BMatC= 1.67D-09 BMatP= 2.34D-10
 IDIUse=1 WtCom= 1.00D+00 WtEn= 0.00D+00
 Coeff-Com: -0.306D-04 0.408D-04-0.210D-04-0.485D-04 0.131D-03 0.303D-03
 Coeff-Com:  0.501D-03-0.252D-04-0.267D-02-0.270D-02 0.621D-02-0.273D-02
 Coeff-Com: -0.996D-02-0.450D-01 0.217D+00 0.839D+00
 Coeff:     -0.306D-04 0.408D-04-0.210D-04-0.485D-04 0.131D-03 0.303D-03
 Coeff:      0.501D-03-0.252D-04-0.267D-02-0.270D-02 0.621D-02-0.273D-02
 Coeff:     -0.996D-02-0.450D-01 0.217D+00 0.839D+00
 Gap=     0.016 Goal=   None    Shift=    0.000
 RMSDP=9.57D-07 MaxDP=3.44D-05 DE= 1.05D-08 OVMax= 6.41D-05

 Cycle  17  Pass 1  IDiag  1:
 E= -649.162228097025     Delta-E=       -0.000000007802 Rises=F Damp=F
 DIIS: error= 4.59D-06 at cycle  17 NSaved=  17.
 NSaved=17 IEnMin=15 EnMin= -649.162228099754     IErMin=15 ErrMin= 1.28D-06
 ErrMax= 4.59D-06  0.00D+00 EMaxC= 1.00D-01 BMatC= 6.72D-10 BMatP= 2.34D-10
 IDIUse=1 WtCom= 1.00D+00 WtEn= 0.00D+00
 Coeff-Com:  0.841D-05-0.117D-04-0.896D-05 0.111D-04 0.134D-03 0.216D-04
 Coeff-Com: -0.160D-03 0.246D-03 0.926D-03-0.353D-02 0.185D-02 0.703D-03
 Coeff-Com:  0.795D-03-0.179D-01-0.480D-01 0.684D-01 0.997D+00
 Coeff:      0.841D-05-0.117D-04-0.896D-05 0.111D-04 0.134D-03 0.216D-04
 Coeff:     -0.160D-03 0.246D-03 0.926D-03-0.353D-02 0.185D-02 0.703D-03
 Coeff:      0.795D-03-0.179D-01-0.480D-01 0.684D-01 0.997D+00
 Gap=     0.016 Goal=   None    Shift=    0.000
 RMSDP=7.87D-07 MaxDP=4.30D-05 DE=-7.80D-09 OVMax= 9.16D-05

 Cycle  18  Pass 1  IDiag  1:
 E= -649.162228102197     Delta-E=       -0.000000005172 Rises=F Damp=F
 DIIS: error= 8.01D-07 at cycle  18 NSaved=  18.
 NSaved=18 IEnMin=18 EnMin= -649.162228102197     IErMin=18 ErrMin= 8.01D-07
 ErrMax= 8.01D-07  0.00D+00 EMaxC= 1.00D-01 BMatC= 2.17D-11 BMatP= 2.34D-10
 IDIUse=1 WtCom= 1.00D+00 WtEn= 0.00D+00
 Coeff-Com:  0.547D-05-0.723D-05 0.263D-06 0.358D-05 0.728D-05-0.271D-04
 Coeff-Com: -0.781D-04-0.956D-05 0.127D-03 0.638D-03-0.880D-03-0.133D-03
 Coeff-Com:  0.845D-03 0.945D-03-0.624D-02-0.343D-01 0.384D-01 0.100D+01
 Coeff:      0.547D-05-0.723D-05 0.263D-06 0.358D-05 0.728D-05-0.271D-04
 Coeff:     -0.781D-04-0.956D-05 0.127D-03 0.638D-03-0.880D-03-0.133D-03
 Coeff:      0.845D-03 0.945D-03-0.624D-02-0.343D-01 0.384D-01 0.100D+01
 Gap=     0.016 Goal=   None    Shift=    0.000
 RMSDP=1.64D-07 MaxDP=9.28D-06 DE=-5.17D-09 OVMax= 1.89D-05

 Cycle  19  Pass 1  IDiag  1:
 E= -649.162228102373     Delta-E=       -0.000000000175 Rises=F Damp=F
 DIIS: error= 4.13D-08 at cycle  19 NSaved=  19.
 NSaved=19 IEnMin=19 EnMin= -649.162228102373     IErMin=19 ErrMin= 4.13D-08
 ErrMax= 4.13D-08  0.00D+00 EMaxC= 1.00D-01 BMatC= 6.04D-14 BMatP= 2.17D-11
 IDIUse=1 WtCom= 1.00D+00 WtEn= 0.00D+00
 Coeff-Com:  0.647D-06-0.840D-06 0.190D-06 0.535D-06-0.678D-06-0.438D-05
 Coeff-Com: -0.110D-04 0.361D-05 0.130D-04 0.831D-04-0.110D-03-0.602D-05
 Coeff-Com:  0.164D-03-0.277D-03 0.979D-03-0.797D-02-0.792D-02 0.151D+00
 Coeff-Com:  0.864D+00
 Coeff:      0.647D-06-0.840D-06 0.190D-06 0.535D-06-0.678D-06-0.438D-05
 Coeff:     -0.110D-04 0.361D-05 0.130D-04 0.831D-04-0.110D-03-0.602D-05
 Coeff:      0.164D-03-0.277D-03 0.979D-03-0.797D-02-0.792D-02 0.151D+00
 Coeff:      0.864D+00
 Gap=     0.016 Goal=   None    Shift=    0.000
 RMSDP=1.27D-08 MaxDP=6.92D-07 DE=-1.75D-10 OVMax= 1.47D-06

 Cycle  20  Pass 1  IDiag  1:
 E= -649.162228102374     Delta-E=       -0.000000000001 Rises=F Damp=F
 DIIS: error= 1.62D-08 at cycle  20 NSaved=  20.
 NSaved=20 IEnMin=20 EnMin= -649.162228102374     IErMin=20 ErrMin= 1.62D-08
 ErrMax= 1.62D-08  0.00D+00 EMaxC= 1.00D-01 BMatC= 8.41D-15 BMatP= 6.04D-14
 IDIUse=1 WtCom= 1.00D+00 WtEn= 0.00D+00
 Large coefficients: NSaved= 20 BigCof=    0.00 CofMax=   10.00 Det=-1.07D-15
 Inversion failed.  Reducing to 19 matrices.
 Large coefficients: NSaved= 19 BigCof=    0.00 CofMax=   10.00 Det=-1.13D-15
 Inversion failed.  Reducing to 18 matrices.
 Large coefficients: NSaved= 18 BigCof=    0.00 CofMax=   10.00 Det=-1.13D-15
 Inversion failed.  Reducing to 17 matrices.
 Large coefficients: NSaved= 17 BigCof=    0.00 CofMax=   10.00 Det=-1.16D-15
 Inversion failed.  Reducing to 16 matrices.
 Large coefficients: NSaved= 16 BigCof=    0.00 CofMax=   10.00 Det=-1.16D-15
 Inversion failed.  Reducing to 15 matrices.
 Coeff-Com: -0.113D-07 0.205D-05 0.318D-05-0.309D-05-0.261D-04 0.305D-04
 Coeff-Com:  0.103D-04-0.582D-05-0.164D-03 0.714D-03 0.108D-02-0.801D-03
 Coeff-Com: -0.118D-01 0.122D+00 0.889D+00
 Coeff:     -0.113D-07 0.205D-05 0.318D-05-0.309D-05-0.261D-04 0.305D-04
 Coeff:      0.103D-04-0.582D-05-0.164D-03 0.714D-03 0.108D-02-0.801D-03
 Coeff:     -0.118D-01 0.122D+00 0.889D+00
 Gap=     0.016 Goal=   None    Shift=    0.000
 RMSDP=4.93D-09 MaxDP=2.63D-07 DE=-9.09D-13 OVMax= 5.77D-07

 SCF Done:  E(RB3LYP) =  -649.162228102     A.U. after   20 cycles
            NFock= 20  Conv=0.49D-08     -V/T= 2.0030
 KE= 6.472427735184D+02 PE=-1.696341211276D+03 EE= 3.311542792709D+02
 Leave Link  502 at Sat Oct  7 02:05:50 2023, MaxMem=  1610612736 cpu:             222.1 elap:             139.6
 (Enter /home/sekinelabo/g16/l601.exe)
 Copying SCF densities to generalized density rwf, IOpCl= 0 IROHF=0.

 **********************************************************************

            Population analysis using the SCF Density.

 **********************************************************************

 Orbital symmetries:
       Occupied  (A) (A) (A) (A) (A) (A) (A) (A) (A) (A) (A) (A)
                 (A) (A) (A) (A) (A) (A) (A) (A) (A) (A)
       Virtual   (A) (A) (A) (A) (A) (A) (A) (A) (A) (A) (A) (A)
                 (A) (A) (A) (A) (A) (A) (A) (A) (A) (A) (A) (A)
                 (A) (A) (A) (A) (A) (A) (A) (A) (A) (A) (A) (A)
                 (A) (A) (A) (A) (A) (A) (A) (A) (A) (A) (A) (A)
                 (A) (A) (A) (A) (A) (A) (A) (A) (A) (A) (A) (A)
                 (A) (A) (A) (A) (A) (A) (A) (A) (A) (A) (A) (A)
                 (A) (A) (A) (A) (A) (A) (A) (A) (A) (A) (A) (A)
                 (A) (A) (A) (A) (A) (A) (A) (A) (A) (A) (A) (A)
                 (A) (A)
 The electronic state is 1-A.
 Alpha  occ. eigenvalues --  -38.46430 -38.45713 -38.45543 -38.45287  -2.22106
 Alpha  occ. eigenvalues --   -2.21462  -2.21228  -2.21028  -1.15785  -1.15784
 Alpha  occ. eigenvalues --   -1.15750  -1.15133  -1.15132  -1.15101  -1.14901
 Alpha  occ. eigenvalues --   -1.14901  -1.14883  -1.14707  -1.14702  -1.14650
 Alpha  occ. eigenvalues --   -0.13931  -0.10680
 Alpha virt. eigenvalues --   -0.09063  -0.06014  -0.03010  -0.02997  -0.02077
 Alpha virt. eigenvalues --   -0.01671  -0.01503  -0.01164  -0.00941  -0.00246
 Alpha virt. eigenvalues --   -0.00102   0.00523   0.00682   0.00759   0.01237
 Alpha virt. eigenvalues --    0.01273   0.01455   0.01597   0.01714   0.01798
 Alpha virt. eigenvalues --    0.01888   0.02014   0.02125   0.02265   0.02494
 Alpha virt. eigenvalues --    0.02892   0.03131   0.03254   0.03414   0.04764
 Alpha virt. eigenvalues --    0.06549   0.07154   0.07403   0.07735   0.07885
 Alpha virt. eigenvalues --    0.07984   0.08383   0.08527   0.08793   0.09435
 Alpha virt. eigenvalues --    0.09610   0.10031   0.10784   0.11083   0.12016
 Alpha virt. eigenvalues --    0.14843   0.29310   0.29403   0.30421   0.32652
 Alpha virt. eigenvalues --    0.32863   0.34120   0.34170   0.34424   0.34447
 Alpha virt. eigenvalues --    0.34726   0.34731   0.34985   0.35039   0.35518
 Alpha virt. eigenvalues --    0.35706   0.36823   0.37162   0.41910   0.42218
 Alpha virt. eigenvalues --    0.42350   0.42650   0.43004   0.43217   0.43847
 Alpha virt. eigenvalues --    0.44042   0.44165   0.45658   0.46326   0.46751
 Alpha virt. eigenvalues --    0.47387   0.48905   0.63628   2.00282   2.01607
 Alpha virt. eigenvalues --    2.01889   2.12442   4.41066   4.42140   4.42527
 Alpha virt. eigenvalues --    4.43116   4.43283   4.43380   4.43450   4.43959
 Alpha virt. eigenvalues --    4.44337   4.44557   4.45589   4.55910  96.19316
 Alpha virt. eigenvalues --   96.20815  96.21075  96.34137
          Condensed to atoms (all electrons):
               1          2          3          4
     1  Na  10.456425   0.029208   0.143131  -0.033200
     2  Na   0.029208  10.996829  -0.020571  -0.031383
     3  Na   0.143131  -0.020571  11.067723   0.132936
     4  Na  -0.033200  -0.031383   0.132936  11.038780
 Mulliken charges:
               1
     1  Na   0.404436
     2  Na   0.025917
     3  Na  -0.323220
     4  Na  -0.107134
 Sum of Mulliken charges =  -0.00000
 Mulliken charges with hydrogens summed into heavy atoms:
               1
     1  Na   0.404436
     2  Na   0.025917
     3  Na  -0.323220
     4  Na  -0.107134
 Electronic spatial extent (au):  <R**2>=           2852.1499
 Charge=             -0.0000 electrons
 Dipole moment (field-independent basis, Debye):
    X=             -1.9613    Y=              0.4267    Z=             -0.0366  Tot=              2.0075
 Quadrupole moment (field-independent basis, Debye-Ang):
   XX=            -40.9611   YY=            -36.7147   ZZ=            -46.0791
   XY=             -3.9456   XZ=              0.5594   YZ=             -0.8499
 Traceless Quadrupole moment (field-independent basis, Debye-Ang):
   XX=              0.2905   YY=              4.5369   ZZ=             -4.8274
   XY=             -3.9456   XZ=              0.5594   YZ=             -0.8499
 Octapole moment (field-independent basis, Debye-Ang**2):
  XXX=            -21.4811  YYY=             24.1168  ZZZ=              0.2555  XYY=            -42.6486
  XXY=              3.8759  XXZ=             -4.4371  XZZ=             -7.5704  YZZ=              3.9482
  YYZ=             -2.6972  XYZ=              3.0200
 Hexadecapole moment (field-independent basis, Debye-Ang**3):
 XXXX=          -4003.2977 YYYY=           -862.0069 ZZZZ=           -218.2836 XXXY=            -67.8249
 XXXZ=            -11.5035 YYYX=            -67.3984 YYYZ=            -11.1769 ZZZX=              3.5186
 ZZZY=             -4.5774 XXYY=           -764.0137 XXZZ=           -764.6654 YYZZ=           -193.1365
 XXYZ=             -5.1142 YYXZ=              7.1364 ZZXY=            -10.5882
 N-N= 6.878193038416D+01 E-N=-1.696341211831D+03  KE= 6.472427735184D+02
 No NMR shielding tensors so no spin-rotation constants.
 Leave Link  601 at Sat Oct  7 02:05:55 2023, MaxMem=  1610612736 cpu:               7.8 elap:               4.9
 (Enter /home/sekinelabo/g16/l701.exe)
 ... and contract with generalized density number  0.
 Compute integral first derivatives.
 Leave Link  701 at Sat Oct  7 02:06:00 2023, MaxMem=  1610612736 cpu:               6.6 elap:               4.2
 (Enter /home/sekinelabo/g16/l702.exe)
 L702 exits ... SP integral derivatives will be done elsewhere.
 Leave Link  702 at Sat Oct  7 02:06:00 2023, MaxMem=  1610612736 cpu:               0.6 elap:               0.5
 (Enter /home/sekinelabo/g16/l703.exe)
 Integral derivatives from FoFJK, PRISM(SPDF).
 Compute integral first derivatives, UseDBF=F ICtDFT=           0.
 Calling FoFJK, ICntrl=      2127 FMM=F ISym2X=0 I1Cent= 0 IOpClX= 0 NMat=1 NMatS=1 NMatT=0.
 FoFJK:  IHMeth= 1 ICntrl=    2127 DoSepK=F KAlg= 0 I1Cent=           0 FoldK=F
 IRaf=         0 NMat=       1 IRICut=       1 DoRegI=T DoRafI=F ISym2E= 0 IDoP0=0 IntGTp=1.
 FoFCou: FMM=F IPFlag=           0 FMFlag=      100000 FMFlg1=         800
         NFxFlg=           0 DoJE=F BraDBF=F KetDBF=F FulRan=T
         wScrn=  0.000000 ICntrl=      2127 IOpCl=  0 I1Cent=           0 NGrid=           0
         NMat0=    1 NMatS0=      1 NMatT0=    0 NMatD0=    1 NMtDS0=    0 NMtDT0=    0
 Symmetry not used in FoFCou.
 Leave Link  703 at Sat Oct  7 02:06:08 2023, MaxMem=  1610612736 cpu:              12.1 elap:               7.5
 (Enter /home/sekinelabo/g16/l716.exe)
 Dipole        =-7.71643383D-01 1.67893229D-01-1.43818297D-02
 ***** Axes restored to original set *****
 -------------------------------------------------------------------
 Center     Atomic                   Forces (Hartrees/Bohr)
 Number     Number              X              Y              Z
 -------------------------------------------------------------------
      1       11          -0.003442683    0.000015460    0.001656879
      2       11           0.003946681    0.000020118   -0.000323043
      3       11           0.000223344   -0.000677231    0.001554974
      4       11          -0.000727342    0.000641652   -0.002888809
 -------------------------------------------------------------------
 Cartesian Forces:  Max     0.003946681 RMS     0.001881733
 Z-matrix is all fixed cartesians, so copy forces.
 Force constants in Cartesian coordinates: 
                1             2             3             4             5 
      1  0.000000D+00
      2  0.000000D+00  0.000000D+00
      3  0.000000D+00  0.000000D+00  0.261192D-01
      4  0.000000D+00  0.000000D+00  0.000000D+00  0.100000D+01
      5  0.000000D+00  0.000000D+00  0.000000D+00  0.000000D+00  0.100000D+01
      6  0.000000D+00  0.000000D+00  0.000000D+00  0.000000D+00  0.000000D+00
      7  0.000000D+00  0.000000D+00  0.000000D+00  0.000000D+00  0.000000D+00
      8  0.000000D+00  0.000000D+00  0.000000D+00  0.000000D+00  0.000000D+00
      9  0.000000D+00  0.000000D+00 -0.261192D-01  0.000000D+00  0.000000D+00
     10  0.000000D+00  0.000000D+00  0.000000D+00  0.000000D+00  0.000000D+00
     11  0.000000D+00  0.000000D+00  0.000000D+00  0.000000D+00  0.000000D+00
     12  0.000000D+00  0.000000D+00  0.000000D+00  0.000000D+00  0.000000D+00
                6             7             8             9            10 
      6  0.100000D+01
      7  0.000000D+00  0.000000D+00
      8  0.000000D+00  0.000000D+00  0.000000D+00
      9  0.000000D+00  0.000000D+00  0.000000D+00  0.261192D-01
     10  0.000000D+00  0.000000D+00  0.000000D+00  0.000000D+00  0.100000D+01
     11  0.000000D+00  0.000000D+00  0.000000D+00  0.000000D+00  0.000000D+00
     12  0.000000D+00  0.000000D+00  0.000000D+00  0.000000D+00  0.000000D+00
               11            12 
     11  0.100000D+01
     12  0.000000D+00  0.100000D+01
 Leave Link  716 at Sat Oct  7 02:06:08 2023, MaxMem=  1610612736 cpu:               0.8 elap:               0.5
 (Enter /home/sekinelabo/g16/l103.exe)

 GradGradGradGradGradGradGradGradGradGradGradGradGradGradGradGradGradGrad
 Berny optimization.
 Search for a local minimum.
 Step number   1 out of a maximum of    2
 All quantities printed in internal units (Hartrees-Bohrs-Radians)
 Second derivative matrix not updated -- first step.
 The second derivative matrix:
                          X1        Y1        Z1        X2        Y2
           X1          -0.00000
           Y1          -0.00000  -0.00000
           Z1          -0.00000  -0.00000   0.02612
           X2           0.00000   0.00000   0.00000   1.00000
           Y2           0.00000   0.00000   0.00000   0.00000   1.00000
           Z2           0.00000   0.00000   0.00000  -0.00000  -0.00000
           X3           0.00000  -0.00000   0.00000   0.00000   0.00000
           Y3           0.00000   0.00000   0.00000   0.00000   0.00000
           Z3           0.00000   0.00000  -0.02612   0.00000   0.00000
           X4           0.00000   0.00000   0.00000   0.00000   0.00000
           Y4           0.00000   0.00000   0.00000   0.00000   0.00000
           Z4           0.00000   0.00000   0.00000   0.00000   0.00000
                          Z2        X3        Y3        Z3        X4
           Z2           1.00000
           X3           0.00000  -0.00000
           Y3           0.00000  -0.00000  -0.00000
           Z3           0.00000  -0.00000  -0.00000   0.02612
           X4           0.00000   0.00000   0.00000   0.00000   1.00000
           Y4           0.00000   0.00000   0.00000   0.00000   0.00000
           Z4           0.00000   0.00000   0.00000   0.00000  -0.00000
                          Y4        Z4
           Y4           1.00000
           Z4          -0.00000   1.00000
 ITU=  0
     Eigenvalues ---    0.05224   0.06386   0.10177   0.50000   0.60303
     Eigenvalues ---    1.00000
 Angle between quadratic step and forces=  53.33 degrees.
 Linear search not attempted -- first point.
 B after Tr=    -0.000000    0.000000    0.000000
         Rot=    1.000000    0.000000    0.000000    0.000000 Ang=   0.00 deg.
 Variable       Old X    -DE/DX   Delta X   Delta X   Delta X     New X
                                 (Linear)    (Quad)   (Total)
    X1        0.00000  -0.00344   0.00000  -0.02682  -0.02682  -0.02682
    Y1        0.00000   0.00002   0.00000   0.00419   0.00419   0.00419
    Z1       -0.00000   0.00166   0.00000   0.00606   0.00606   0.00606
    X2       -9.43701   0.00395   0.00000   0.00655   0.00655  -9.43046
    Y2        0.00000   0.00002   0.00000  -0.00077  -0.00077  -0.00077
    Z2        1.39256  -0.00032   0.00000  -0.00758  -0.00758   1.38497
    X3        0.00000   0.00022   0.00000   0.02706   0.02706   0.02706
    Y3        0.00000  -0.00068   0.00000  -0.00616  -0.00616  -0.00616
    Z3        6.11714   0.00155   0.00000   0.00411   0.00411   6.12126
    X4        2.76475  -0.00073   0.00000  -0.00679  -0.00679   2.75796
    Y4       -2.17799   0.00064   0.00000   0.00274   0.00274  -2.17526
    Z4       16.22586  -0.00289   0.00000  -0.00259  -0.00259  16.22326
         Item               Value     Threshold  Converged?
 Maximum Force            0.003947     0.000450     NO 
 RMS     Force            0.001882     0.000300     NO 
 Maximum Displacement     0.027060     0.001800     NO 
 RMS     Displacement     0.011980     0.001200     NO 
 Predicted change in Energy=-8.077102D-05
 GradGradGradGradGradGradGradGradGradGradGradGradGradGradGradGradGradGrad

 Leave Link  103 at Sat Oct  7 02:06:11 2023, MaxMem=  1610612736 cpu:               4.0 elap:               2.5
 (Enter /home/sekinelabo/g16/l9999.exe)
 1\1\GINC-SEKINELABO-XA7R-R37\Force\RB3LYP\6-311+G(d)\Na4\SEKINELABO\07
 -Oct-2023\0\\#p B3LYP/6-311+g(d) force\\\0,1\Na,0.,0.,0.\Na,-4.9938527
 809,0.,0.7369107247\Na,0.,0.,3.2370532072\Na,1.4630444353,-1.152543787
 6,8.586352711\\Version=ES64L-G16RevB.01\State=1-A\HF=-649.1622281\RMSD
 =4.931e-09\RMSF=1.882e-03\Dipole=-0.2477948,0.089305,-0.7446146\Quadru
 pole=-0.0094166,-3.6361342,3.6455508,0.0784194,-2.8183099,-0.3541303\P
 G=C01 [X(Na4)]\\@


 ...THE PHYSICISTS HAVE MADE THEIR UNIVERSE, AND IF YOU DO NOT LIKE
 IT, YOU MUST MAKE YOUR OWN.
                               -- E. R. HARRISON IN "COSMOLOGY" (1980)
 Job cpu time:       0 days  0 hours  4 minutes 57.7 seconds.
 Elapsed time:       0 days  0 hours  3 minutes  7.5 seconds.
 File lengths (MBytes):  RWF=     10 Int=      0 D2E=      0 Chk=      2 Scr=      1
 Normal termination of Gaussian 16 at Sat Oct  7 02:06:11 2023.
