 Entering Gaussian System, Link 0=g16
 Initial command:
 /home/sekinelabo/g16/l1.exe "/home/sekinelabo/g16temp/Gau-709057.inp" -scrdir="/home/sekinelabo/g16temp/"
 Entering Link 1 = /home/sekinelabo/g16/l1.exe PID=    709059.
  
 Copyright (c) 1988-2017, Gaussian, Inc.  All Rights Reserved.
  
 This is part of the Gaussian(R) 16 program.  It is based on
 the Gaussian(R) 09 system (copyright 2009, Gaussian, Inc.),
 the Gaussian(R) 03 system (copyright 2003, Gaussian, Inc.),
 the Gaussian(R) 98 system (copyright 1998, Gaussian, Inc.),
 the Gaussian(R) 94 system (copyright 1995, Gaussian, Inc.),
 the Gaussian 92(TM) system (copyright 1992, Gaussian, Inc.),
 the Gaussian 90(TM) system (copyright 1990, Gaussian, Inc.),
 the Gaussian 88(TM) system (copyright 1988, Gaussian, Inc.),
 the Gaussian 86(TM) system (copyright 1986, Carnegie Mellon
 University), and the Gaussian 82(TM) system (copyright 1983,
 Carnegie Mellon University). Gaussian is a federally registered
 trademark of Gaussian, Inc.
  
 This software contains proprietary and confidential information,
 including trade secrets, belonging to Gaussian, Inc.
  
 This software is provided under written license and may be
 used, copied, transmitted, or stored only in accord with that
 written license.
  
 The following legend is applicable only to US Government
 contracts under FAR:
  
                    RESTRICTED RIGHTS LEGEND
  
 Use, reproduction and disclosure by the US Government is
 subject to restrictions as set forth in subparagraphs (a)
 and (c) of the Commercial Computer Software - Restricted
 Rights clause in FAR 52.227-19.
  
 Gaussian, Inc.
 340 Quinnipiac St., Bldg. 40, Wallingford CT 06492
  
  
 ---------------------------------------------------------------
 Warning -- This program may not be used in any manner that
 competes with the business of Gaussian, Inc. or will provide
 assistance to any competitor of Gaussian, Inc.  The licensee
 of this program is prohibited from giving any competitor of
 Gaussian, Inc. access to this program.  By using this program,
 the user acknowledges that Gaussian, Inc. is engaged in the
 business of creating and licensing software in the field of
 computational chemistry and represents and warrants to the
 licensee that it is not a competitor of Gaussian, Inc. and that
 it will not use this program in any manner prohibited above.
 ---------------------------------------------------------------
  

 Cite this work as:
 Gaussian 16, Revision B.01,
 M. J. Frisch, G. W. Trucks, H. B. Schlegel, G. E. Scuseria, 
 M. A. Robb, J. R. Cheeseman, G. Scalmani, V. Barone, 
 G. A. Petersson, H. Nakatsuji, X. Li, M. Caricato, A. V. Marenich, 
 J. Bloino, B. G. Janesko, R. Gomperts, B. Mennucci, H. P. Hratchian, 
 J. V. Ortiz, A. F. Izmaylov, J. L. Sonnenberg, D. Williams-Young, 
 F. Ding, F. Lipparini, F. Egidi, J. Goings, B. Peng, A. Petrone, 
 T. Henderson, D. Ranasinghe, V. G. Zakrzewski, J. Gao, N. Rega, 
 G. Zheng, W. Liang, M. Hada, M. Ehara, K. Toyota, R. Fukuda, 
 J. Hasegawa, M. Ishida, T. Nakajima, Y. Honda, O. Kitao, H. Nakai, 
 T. Vreven, K. Throssell, J. A. Montgomery, Jr., J. E. Peralta, 
 F. Ogliaro, M. J. Bearpark, J. J. Heyd, E. N. Brothers, K. N. Kudin, 
 V. N. Staroverov, T. A. Keith, R. Kobayashi, J. Normand, 
 K. Raghavachari, A. P. Rendell, J. C. Burant, S. S. Iyengar, 
 J. Tomasi, M. Cossi, J. M. Millam, M. Klene, C. Adamo, R. Cammi, 
 J. W. Ochterski, R. L. Martin, K. Morokuma, O. Farkas, 
 J. B. Foresman, and D. J. Fox, Gaussian, Inc., Wallingford CT, 2016.
 
 ******************************************
 Gaussian 16:  ES64L-G16RevB.01 20-Dec-2017
                 6-Oct-2023 
 ******************************************
 %NProcShared=16
 Will use up to   16 processors via shared memory.
 %mem=12GB
 %Chk=checkpoint.chk
 -------------------------
 #p B3LYP/6-311+g(d) force
 -------------------------
 1/10=7,30=1,38=1/1,3;
 2/12=2,17=6,18=5,40=1/2;
 3/5=4,6=6,7=11,11=2,25=1,30=1,71=1,74=-5/1,2,3;
 4//1;
 5/5=2,38=5/2;
 6/7=2,8=2,9=2,10=2,28=1/1;
 7/29=1/1,2,3,16;
 1/10=7,30=1/3;
 99//99;
 Leave Link    1 at Fri Oct  6 21:59:35 2023, MaxMem=  1610612736 cpu:               0.5 elap:               0.2
 (Enter /home/sekinelabo/g16/l101.exe)


 Symbolic Z-matrix:
 Charge =  0 Multiplicity = 1
 Na                    0.        0.        0. 
 Na                   -4.60611   0.       -0.53624 
 Na                    0.        0.        5.6825 
 Na                    1.20375  -4.01386   5.65905 
 
 ITRead=  0  0  0  0
 MicOpt= -1 -1 -1 -1
 NAtoms=      4 NQM=        4 NQMF=       0 NMMI=      0 NMMIF=      0
                NMic=       0 NMicF=      0.
                    Isotopes and Nuclear Properties:
 (Nuclear quadrupole moments (NQMom) in fm**2, nuclear magnetic moments (NMagM)
  in nuclear magnetons)

  Atom         1           2           3           4
 IAtWgt=          23          23          23          23
 AtmWgt=  22.9897697  22.9897697  22.9897697  22.9897697
 NucSpn=           3           3           3           3
 AtZEff=  -0.0000000  -0.0000000  -0.0000000  -0.0000000
 NQMom=   10.4000000  10.4000000  10.4000000  10.4000000
 NMagM=    2.2175200   2.2175200   2.2175200   2.2175200
 AtZNuc=  11.0000000  11.0000000  11.0000000  11.0000000
 Leave Link  101 at Fri Oct  6 21:59:36 2023, MaxMem=  1610612736 cpu:               1.9 elap:               1.1
 (Enter /home/sekinelabo/g16/l103.exe)

 GradGradGradGradGradGradGradGradGradGradGradGradGradGradGradGradGradGrad
 Berny optimization.
 Initialization pass.
 Trust Radius=3.00D-01 FncErr=1.00D-07 GrdErr=1.00D-07 EigMax=2.50D+02 EigMin=1.00D-04
 Number of steps in this run=      2 maximum allowed number of steps=      2.
 GradGradGradGradGradGradGradGradGradGradGradGradGradGradGradGradGradGrad

 Leave Link  103 at Fri Oct  6 21:59:36 2023, MaxMem=  1610612736 cpu:               0.5 elap:               0.3
 (Enter /home/sekinelabo/g16/l202.exe)
                          Input orientation:                          
 ---------------------------------------------------------------------
 Center     Atomic      Atomic             Coordinates (Angstroms)
 Number     Number       Type             X           Y           Z
 ---------------------------------------------------------------------
      1         11           0        0.000000    0.000000    0.000000
      2         11           0       -4.606107    0.000000   -0.536236
      3         11           0        0.000000    0.000000    5.682502
      4         11           0        1.203749   -4.013865    5.659049
 ---------------------------------------------------------------------
                    Distance matrix (angstroms):
                    1          2          3          4
     1  Na   0.000000
     2  Na   4.637216   0.000000
     3  Na   5.682502   7.738793   0.000000
     4  Na   7.041659   9.393993   4.190545   0.000000
 Stoichiometry    Na4
 Framework group  C1[X(Na4)]
 Deg. of freedom     6
 Full point group                 C1      NOp   1
 Largest Abelian subgroup         C1      NOp   1
 Largest concise Abelian subgroup C1      NOp   1
                         Standard orientation:                         
 ---------------------------------------------------------------------
 Center     Atomic      Atomic             Coordinates (Angstroms)
 Number     Number       Type             X           Y           Z
 ---------------------------------------------------------------------
      1         11           0        2.010011    1.895285   -1.181260
      2         11           0        4.836940   -0.972132    1.118774
      3         11           0       -2.446706   -1.622438   -1.413918
      4         11           0       -4.400244    0.699285    1.476404
 ---------------------------------------------------------------------
 Rotational constants (GHZ):           1.5176849           0.3687729           0.3636938
 Leave Link  202 at Fri Oct  6 21:59:37 2023, MaxMem=  1610612736 cpu:               1.0 elap:               0.7
 (Enter /home/sekinelabo/g16/l301.exe)
 Standard basis: 6-311+G(d) (5D, 7F)
 Ernie: Thresh=  0.10000D-02 Tol=  0.10000D-05 Strict=F.
 There are   124 symmetry adapted cartesian basis functions of A   symmetry.
 There are   120 symmetry adapted basis functions of A   symmetry.
   120 basis functions,   200 primitive gaussians,   124 cartesian basis functions
    22 alpha electrons       22 beta electrons
       nuclear repulsion energy        64.5388450338 Hartrees.
 IExCor=  402 DFT=T Ex+Corr=B3LYP ExCW=0 ScaHFX=  0.200000
 ScaDFX=  0.800000  0.720000  1.000000  0.810000 ScalE2=  1.000000  1.000000
 IRadAn=      5 IRanWt=     -1 IRanGd=            0 ICorTp=0 IEmpDi=  4
 NAtoms=    4 NActive=    4 NUniq=    4 SFac= 1.00D+00 NAtFMM=   60 NAOKFM=F Big=F
 Integral buffers will be    131072 words long.
 Raffenetti 2 integral format.
 Two-electron integral symmetry is turned on.
 Leave Link  301 at Fri Oct  6 21:59:38 2023, MaxMem=  1610612736 cpu:               0.6 elap:               0.4
 (Enter /home/sekinelabo/g16/l302.exe)
 NPDir=0 NMtPBC=     1 NCelOv=     1 NCel=       1 NClECP=     1 NCelD=      1
         NCelK=      1 NCelE2=     1 NClLst=     1 CellRange=     0.0.
 One-electron integrals computed using PRISM.
 One-electron integral symmetry used in STVInt
 NBasis=   120 RedAO= T EigKep=  7.04D-04  NBF=   120
 NBsUse=   120 1.00D-06 EigRej= -1.00D+00 NBFU=   120
 Precomputing XC quadrature grid using
 IXCGrd= 4 IRadAn=           5 IRanWt=          -1 IRanGd=           0 AccXCQ= 0.00D+00.
 Generated NRdTot=       0 NPtTot=           0 NUsed=           0 NTot=          32
 NSgBfM=   112   112   112   112   112 MxSgAt=     4 MxSgA2=     4.
 Leave Link  302 at Fri Oct  6 21:59:50 2023, MaxMem=  1610612736 cpu:              20.5 elap:              12.8
 (Enter /home/sekinelabo/g16/l303.exe)
 DipDrv:  MaxL=1.
 Leave Link  303 at Fri Oct  6 21:59:52 2023, MaxMem=  1610612736 cpu:               3.0 elap:               1.9
 (Enter /home/sekinelabo/g16/l401.exe)
 ExpMin= 7.60D-03 ExpMax= 3.62D+04 ExpMxC= 1.21D+03 IAcc=3 IRadAn=         5 AccDes= 0.00D+00
 Harris functional with IExCor=  402 and IRadAn=       5 diagonalized for initial guess.
 HarFok:  IExCor=  402 AccDes= 0.00D+00 IRadAn=         5 IDoV= 1 UseB2=F ITyADJ=14
 ICtDFT=  3500011 ScaDFX=  1.000000  1.000000  1.000000  1.000000
 FoFCou: FMM=F IPFlag=           0 FMFlag=      100000 FMFlg1=           0
         NFxFlg=           0 DoJE=T BraDBF=F KetDBF=T FulRan=T
         wScrn=  0.000000 ICntrl=       500 IOpCl=  0 I1Cent=   200000004 NGrid=           0
         NMat0=    1 NMatS0=      1 NMatT0=    0 NMatD0=    1 NMtDS0=    0 NMtDT0=    0
 Petite list used in FoFCou.
 Harris En= -649.043450005433    
 JPrj=0 DoOrth=F DoCkMO=F.
 Leave Link  401 at Fri Oct  6 22:00:01 2023, MaxMem=  1610612736 cpu:              13.9 elap:               9.0
 (Enter /home/sekinelabo/g16/l502.exe)
 Keep R1 ints in memory in canonical form, NReq=41581754.
 FoFCou: FMM=F IPFlag=           0 FMFlag=           0 FMFlg1=           0
         NFxFlg=           0 DoJE=F BraDBF=F KetDBF=F FulRan=T
         wScrn=  0.000000 ICntrl=       600 IOpCl=  0 I1Cent=           0 NGrid=           0
         NMat0=    1 NMatS0=   7260 NMatT0=    0 NMatD0=    1 NMtDS0=    0 NMtDT0=    0
 Symmetry not used in FoFCou.
 Two-electron integral symmetry not used.
 Closed shell SCF:
 Using DIIS extrapolation, IDIIS=  1040.
 NGot=  1610612736 LenX=  1584221388 LenY=  1584205571
 Requested convergence on RMS density matrix=1.00D-08 within 128 cycles.
 Requested convergence on MAX density matrix=1.00D-06.
 Requested convergence on             energy=1.00D-06.
 No special actions if energy rises.

 Cycle   1  Pass 1  IDiag  1:
 E= -649.156444986150    
 DIIS: error= 1.59D-02 at cycle   1 NSaved=   1.
 NSaved= 1 IEnMin= 1 EnMin= -649.156444986150     IErMin= 1 ErrMin= 1.59D-02
 ErrMax= 1.59D-02  0.00D+00 EMaxC= 1.00D-01 BMatC= 2.70D-02 BMatP= 2.70D-02
 IDIUse=3 WtCom= 8.41D-01 WtEn= 1.59D-01
 Coeff-Com:  0.100D+01
 Coeff-En:   0.100D+01
 Coeff:      0.100D+01
 Gap=     0.039 Goal=   None    Shift=    0.000
 GapD=    0.039 DampG=0.250 DampE=0.500 DampFc=0.2500 IDamp=-1.
 Damping current iteration by 2.50D-01
 RMSDP=1.57D-03 MaxDP=3.63D-02              OVMax= 5.25D-02

 Cycle   2  Pass 1  IDiag  1:
 E= -649.160455497496     Delta-E=       -0.004010511346 Rises=F Damp=T
 DIIS: error= 1.11D-02 at cycle   2 NSaved=   2.
 NSaved= 2 IEnMin= 2 EnMin= -649.160455497496     IErMin= 2 ErrMin= 1.11D-02
 ErrMax= 1.11D-02  0.00D+00 EMaxC= 1.00D-01 BMatC= 1.03D-02 BMatP= 2.70D-02
 IDIUse=3 WtCom= 8.89D-01 WtEn= 1.11D-01
 Coeff-Com: -0.128D+01 0.228D+01
 Coeff-En:   0.000D+00 0.100D+01
 Coeff:     -0.114D+01 0.214D+01
 Gap=     0.039 Goal=   None    Shift=    0.000
 RMSDP=1.29D-03 MaxDP=3.41D-02 DE=-4.01D-03 OVMax= 1.52D-02

 Cycle   3  Pass 1  IDiag  1:
 E= -649.168805452977     Delta-E=       -0.008349955481 Rises=F Damp=F
 DIIS: error= 3.28D-04 at cycle   3 NSaved=   3.
 NSaved= 3 IEnMin= 3 EnMin= -649.168805452977     IErMin= 3 ErrMin= 3.28D-04
 ErrMax= 3.28D-04  0.00D+00 EMaxC= 1.00D-01 BMatC= 2.22D-05 BMatP= 1.03D-02
 IDIUse=3 WtCom= 9.97D-01 WtEn= 3.28D-03
 Coeff-Com:  0.958D-01-0.126D+00 0.103D+01
 Coeff-En:   0.000D+00 0.000D+00 0.100D+01
 Coeff:      0.955D-01-0.125D+00 0.103D+01
 Gap=     0.040 Goal=   None    Shift=    0.000
 RMSDP=2.51D-04 MaxDP=1.30D-02 DE=-8.35D-03 OVMax= 1.72D-02

 Cycle   4  Pass 1  IDiag  1:
 E= -649.168771480447     Delta-E=        0.000033972529 Rises=F Damp=F
 DIIS: error= 3.24D-04 at cycle   4 NSaved=   4.
 NSaved= 4 IEnMin= 3 EnMin= -649.168805452977     IErMin= 4 ErrMin= 3.24D-04
 ErrMax= 3.24D-04  0.00D+00 EMaxC= 1.00D-01 BMatC= 1.02D-05 BMatP= 2.22D-05
 IDIUse=3 WtCom= 9.97D-01 WtEn= 3.24D-03
 Coeff-Com:  0.565D-01-0.752D-01 0.611D+00 0.407D+00
 Coeff-En:   0.000D+00 0.000D+00 0.673D+00 0.327D+00
 Coeff:      0.563D-01-0.749D-01 0.612D+00 0.407D+00
 Gap=     0.040 Goal=   None    Shift=    0.000
 RMSDP=1.80D-04 MaxDP=9.90D-03 DE= 3.40D-05 OVMax= 1.42D-02

 Cycle   5  Pass 1  IDiag  1:
 E= -649.168827685542     Delta-E=       -0.000056205095 Rises=F Damp=F
 DIIS: error= 1.45D-04 at cycle   5 NSaved=   5.
 NSaved= 5 IEnMin= 5 EnMin= -649.168827685542     IErMin= 5 ErrMin= 1.45D-04
 ErrMax= 1.45D-04  0.00D+00 EMaxC= 1.00D-01 BMatC= 1.65D-06 BMatP= 1.02D-05
 IDIUse=3 WtCom= 9.99D-01 WtEn= 1.45D-03
 Coeff-Com:  0.116D-01-0.161D-01 0.148D+00 0.279D+00 0.577D+00
 Coeff-En:   0.000D+00 0.000D+00 0.000D+00 0.186D+00 0.814D+00
 Coeff:      0.116D-01-0.160D-01 0.148D+00 0.279D+00 0.577D+00
 Gap=     0.040 Goal=   None    Shift=    0.000
 RMSDP=6.41D-05 MaxDP=3.76D-03 DE=-5.62D-05 OVMax= 5.76D-03

 Cycle   6  Pass 1  IDiag  1:
 E= -649.168836241759     Delta-E=       -0.000008556217 Rises=F Damp=F
 DIIS: error= 5.97D-05 at cycle   6 NSaved=   6.
 NSaved= 6 IEnMin= 6 EnMin= -649.168836241759     IErMin= 6 ErrMin= 5.97D-05
 ErrMax= 5.97D-05  0.00D+00 EMaxC= 1.00D-01 BMatC= 3.27D-07 BMatP= 1.65D-06
 IDIUse=1 WtCom= 1.00D+00 WtEn= 0.00D+00
 Coeff-Com:  0.415D-02-0.600D-02 0.653D-01 0.167D+00 0.402D+00 0.367D+00
 Coeff:      0.415D-02-0.600D-02 0.653D-01 0.167D+00 0.402D+00 0.367D+00
 Gap=     0.040 Goal=   None    Shift=    0.000
 RMSDP=3.15D-05 MaxDP=1.82D-03 DE=-8.56D-06 OVMax= 2.98D-03

 Cycle   7  Pass 1  IDiag  1:
 E= -649.168838421095     Delta-E=       -0.000002179336 Rises=F Damp=F
 DIIS: error= 1.75D-05 at cycle   7 NSaved=   7.
 NSaved= 7 IEnMin= 7 EnMin= -649.168838421095     IErMin= 7 ErrMin= 1.75D-05
 ErrMax= 1.75D-05  0.00D+00 EMaxC= 1.00D-01 BMatC= 2.89D-08 BMatP= 3.27D-07
 IDIUse=1 WtCom= 1.00D+00 WtEn= 0.00D+00
 Coeff-Com: -0.131D-02 0.167D-02-0.667D-02 0.162D-02 0.305D-01 0.237D+00
 Coeff-Com:  0.737D+00
 Coeff:     -0.131D-02 0.167D-02-0.667D-02 0.162D-02 0.305D-01 0.237D+00
 Coeff:      0.737D+00
 Gap=     0.040 Goal=   None    Shift=    0.000
 RMSDP=7.24D-06 MaxDP=4.09D-04 DE=-2.18D-06 OVMax= 6.48D-04

 Cycle   8  Pass 1  IDiag  1:
 E= -649.168838623780     Delta-E=       -0.000000202685 Rises=F Damp=F
 DIIS: error= 7.33D-07 at cycle   8 NSaved=   8.
 NSaved= 8 IEnMin= 8 EnMin= -649.168838623780     IErMin= 8 ErrMin= 7.33D-07
 ErrMax= 7.33D-07  0.00D+00 EMaxC= 1.00D-01 BMatC= 1.04D-10 BMatP= 2.89D-08
 IDIUse=1 WtCom= 1.00D+00 WtEn= 0.00D+00
 Coeff-Com:  0.609D-04-0.775D-04-0.124D-02-0.584D-02-0.125D-01 0.517D-02
 Coeff-Com:  0.465D-01 0.968D+00
 Coeff:      0.609D-04-0.775D-04-0.124D-02-0.584D-02-0.125D-01 0.517D-02
 Coeff:      0.465D-01 0.968D+00
 Gap=     0.040 Goal=   None    Shift=    0.000
 RMSDP=5.01D-07 MaxDP=1.61D-05 DE=-2.03D-07 OVMax= 3.13D-05

 Cycle   9  Pass 1  IDiag  1:
 E= -649.168838624089     Delta-E=       -0.000000000310 Rises=F Damp=F
 DIIS: error= 2.54D-07 at cycle   9 NSaved=   9.
 NSaved= 9 IEnMin= 9 EnMin= -649.168838624089     IErMin= 9 ErrMin= 2.54D-07
 ErrMax= 2.54D-07  0.00D+00 EMaxC= 1.00D-01 BMatC= 6.89D-12 BMatP= 1.04D-10
 IDIUse=1 WtCom= 1.00D+00 WtEn= 0.00D+00
 Coeff-Com:  0.485D-04-0.620D-04-0.166D-03-0.172D-02-0.388D-02-0.602D-02
 Coeff-Com: -0.309D-02 0.229D+00 0.786D+00
 Coeff:      0.485D-04-0.620D-04-0.166D-03-0.172D-02-0.388D-02-0.602D-02
 Coeff:     -0.309D-02 0.229D+00 0.786D+00
 Gap=     0.040 Goal=   None    Shift=    0.000
 RMSDP=1.63D-07 MaxDP=9.06D-06 DE=-3.10D-10 OVMax= 1.53D-05

 Cycle  10  Pass 1  IDiag  1:
 E= -649.168838624146     Delta-E=       -0.000000000057 Rises=F Damp=F
 DIIS: error= 7.62D-08 at cycle  10 NSaved=  10.
 NSaved=10 IEnMin=10 EnMin= -649.168838624146     IErMin=10 ErrMin= 7.62D-08
 ErrMax= 7.62D-08  0.00D+00 EMaxC= 1.00D-01 BMatC= 4.88D-13 BMatP= 6.89D-12
 IDIUse=1 WtCom= 1.00D+00 WtEn= 0.00D+00
 Coeff-Com:  0.836D-05-0.106D-04 0.367D-04-0.100D-03-0.341D-03-0.169D-02
 Coeff-Com: -0.496D-02 0.140D-02 0.209D+00 0.797D+00
 Coeff:      0.836D-05-0.106D-04 0.367D-04-0.100D-03-0.341D-03-0.169D-02
 Coeff:     -0.496D-02 0.140D-02 0.209D+00 0.797D+00
 Gap=     0.040 Goal=   None    Shift=    0.000
 RMSDP=4.31D-08 MaxDP=2.39D-06 DE=-5.71D-11 OVMax= 3.62D-06

 Cycle  11  Pass 1  IDiag  1:
 E= -649.168838624148     Delta-E=       -0.000000000001 Rises=F Damp=F
 DIIS: error= 2.25D-08 at cycle  11 NSaved=  11.
 NSaved=11 IEnMin=11 EnMin= -649.168838624148     IErMin=11 ErrMin= 2.25D-08
 ErrMax= 2.25D-08  0.00D+00 EMaxC= 1.00D-01 BMatC= 3.60D-14 BMatP= 4.88D-13
 IDIUse=1 WtCom= 1.00D+00 WtEn= 0.00D+00
 Coeff-Com: -0.340D-05 0.444D-05 0.207D-04 0.111D-03 0.273D-03 0.100D-03
 Coeff-Com: -0.381D-03-0.178D-01-0.254D-01 0.167D+00 0.876D+00
 Coeff:     -0.340D-05 0.444D-05 0.207D-04 0.111D-03 0.273D-03 0.100D-03
 Coeff:     -0.381D-03-0.178D-01-0.254D-01 0.167D+00 0.876D+00
 Gap=     0.040 Goal=   None    Shift=    0.000
 RMSDP=1.20D-08 MaxDP=5.81D-07 DE=-1.36D-12 OVMax= 1.05D-06

 Cycle  12  Pass 1  IDiag  1:
 E= -649.168838624149     Delta-E=       -0.000000000001 Rises=F Damp=F
 DIIS: error= 1.97D-09 at cycle  12 NSaved=  12.
 NSaved=12 IEnMin=12 EnMin= -649.168838624149     IErMin=12 ErrMin= 1.97D-09
 ErrMax= 1.97D-09  0.00D+00 EMaxC= 1.00D-01 BMatC= 3.02D-16 BMatP= 3.60D-14
 IDIUse=1 WtCom= 1.00D+00 WtEn= 0.00D+00
 Coeff-Com: -0.429D-06 0.548D-06 0.649D-06 0.936D-05 0.233D-04 0.605D-04
 Coeff-Com:  0.116D-03-0.114D-02-0.894D-02-0.894D-02 0.785D-01 0.940D+00
 Coeff:     -0.429D-06 0.548D-06 0.649D-06 0.936D-05 0.233D-04 0.605D-04
 Coeff:      0.116D-03-0.114D-02-0.894D-02-0.894D-02 0.785D-01 0.940D+00
 Gap=     0.040 Goal=   None    Shift=    0.000
 RMSDP=1.44D-09 MaxDP=4.17D-08 DE=-1.48D-12 OVMax= 1.25D-07

 SCF Done:  E(RB3LYP) =  -649.168838624     A.U. after   12 cycles
            NFock= 12  Conv=0.14D-08     -V/T= 2.0031
 KE= 6.471903900398D+02 PE=-1.687885000981D+03 EE= 3.269869272833D+02
 Leave Link  502 at Fri Oct  6 22:01:24 2023, MaxMem=  1610612736 cpu:             131.5 elap:              82.3
 (Enter /home/sekinelabo/g16/l601.exe)
 Copying SCF densities to generalized density rwf, IOpCl= 0 IROHF=0.

 **********************************************************************

            Population analysis using the SCF Density.

 **********************************************************************

 Orbital symmetries:
       Occupied  (A) (A) (A) (A) (A) (A) (A) (A) (A) (A) (A) (A)
                 (A) (A) (A) (A) (A) (A) (A) (A) (A) (A)
       Virtual   (A) (A) (A) (A) (A) (A) (A) (A) (A) (A) (A) (A)
                 (A) (A) (A) (A) (A) (A) (A) (A) (A) (A) (A) (A)
                 (A) (A) (A) (A) (A) (A) (A) (A) (A) (A) (A) (A)
                 (A) (A) (A) (A) (A) (A) (A) (A) (A) (A) (A) (A)
                 (A) (A) (A) (A) (A) (A) (A) (A) (A) (A) (A) (A)
                 (A) (A) (A) (A) (A) (A) (A) (A) (A) (A) (A) (A)
                 (A) (A) (A) (A) (A) (A) (A) (A) (A) (A) (A) (A)
                 (A) (A) (A) (A) (A) (A) (A) (A) (A) (A) (A) (A)
                 (A) (A)
 The electronic state is 1-A.
 Alpha  occ. eigenvalues --  -38.45847 -38.45621 -38.45619 -38.45493  -2.21520
 Alpha  occ. eigenvalues --   -2.21305  -2.21298  -2.21180  -1.15203  -1.15195
 Alpha  occ. eigenvalues --   -1.15147  -1.14987  -1.14980  -1.14979  -1.14979
 Alpha  occ. eigenvalues --   -1.14925  -1.14924  -1.14862  -1.14861  -1.14799
 Alpha  occ. eigenvalues --   -0.12494  -0.11537
 Alpha virt. eigenvalues --   -0.07544  -0.06955  -0.02530  -0.02379  -0.02187
 Alpha virt. eigenvalues --   -0.01584  -0.01542  -0.01106  -0.00512   0.00010
 Alpha virt. eigenvalues --    0.00162   0.00314   0.00558   0.00637   0.00799
 Alpha virt. eigenvalues --    0.01414   0.01482   0.01576   0.01640   0.01668
 Alpha virt. eigenvalues --    0.01844   0.02090   0.02114   0.02324   0.02512
 Alpha virt. eigenvalues --    0.02797   0.02909   0.02948   0.03234   0.03576
 Alpha virt. eigenvalues --    0.06947   0.07099   0.07595   0.07822   0.08068
 Alpha virt. eigenvalues --    0.08260   0.08321   0.08767   0.09025   0.09295
 Alpha virt. eigenvalues --    0.09411   0.09547   0.10591   0.11716   0.11988
 Alpha virt. eigenvalues --    0.12833   0.31913   0.32099   0.32185   0.32504
 Alpha virt. eigenvalues --    0.33426   0.33581   0.34375   0.34802   0.34882
 Alpha virt. eigenvalues --    0.34971   0.35130   0.35296   0.35358   0.36127
 Alpha virt. eigenvalues --    0.36482   0.36549   0.38152   0.38233   0.38574
 Alpha virt. eigenvalues --    0.40641   0.42752   0.42941   0.43306   0.43401
 Alpha virt. eigenvalues --    0.43539   0.43827   0.44083   0.46596   0.46909
 Alpha virt. eigenvalues --    0.47195   0.47495   0.49061   2.00054   2.01423
 Alpha virt. eigenvalues --    2.03435   2.05612   4.42514   4.42617   4.42779
 Alpha virt. eigenvalues --    4.43085   4.43291   4.43467   4.43638   4.43828
 Alpha virt. eigenvalues --    4.43988   4.45469   4.46268   4.46885  96.18905
 Alpha virt. eigenvalues --   96.20651  96.22782  96.25399
          Condensed to atoms (all electrons):
               1          2          3          4
     1  Na  10.866568   0.215764   0.018882  -0.045348
     2  Na   0.215764  10.794219  -0.027155  -0.025483
     3  Na   0.018882  -0.027155  10.806810   0.249664
     4  Na  -0.045348  -0.025483   0.249664  10.759758
 Mulliken charges:
               1
     1  Na  -0.055866
     2  Na   0.042656
     3  Na  -0.048200
     4  Na   0.061409
 Sum of Mulliken charges =  -0.00000
 Mulliken charges with hydrogens summed into heavy atoms:
               1
     1  Na  -0.055866
     2  Na   0.042656
     3  Na  -0.048200
     4  Na   0.061409
 Electronic spatial extent (au):  <R**2>=           2728.1598
 Charge=             -0.0000 electrons
 Dipole moment (field-independent basis, Debye):
    X=             -0.3961    Y=             -0.0439    Z=              0.1155  Tot=              0.4150
 Quadrupole moment (field-independent basis, Debye-Ang):
   XX=            -41.5791   YY=            -36.4080   ZZ=            -37.3036
   XY=             -7.2564   XZ=             -0.3810   YZ=              1.2733
 Traceless Quadrupole moment (field-independent basis, Debye-Ang):
   XX=             -3.1488   YY=              2.0222   ZZ=              1.1266
   XY=             -7.2564   XZ=             -0.3810   YZ=              1.2733
 Octapole moment (field-independent basis, Debye-Ang**2):
  XXX=              7.4010  YYY=              0.9953  ZZZ=              1.3013  XYY=             -0.8908
  XXY=            -10.0832  XXZ=             57.7522  XZZ=            -14.2742  YZZ=             -1.4679
  YYZ=            -10.0696  XYZ=            -28.7289
 Hexadecapole moment (field-independent basis, Debye-Ang**3):
 XXXX=          -3391.5253 YYYY=           -605.3147 ZZZZ=           -572.7874 XXXY=           -308.6378
 XXXZ=            -14.7266 YYYX=            -13.9127 YYYZ=              5.9258 ZZZX=            -10.5230
 ZZZY=             14.4929 XXYY=           -681.4825 XXZZ=           -618.7444 YYZZ=           -183.2696
 XXYZ=             13.4004 YYXZ=              5.6071 ZZXY=            -14.4343
 N-N= 6.453884503383D+01 E-N=-1.687885000956D+03  KE= 6.471903900398D+02
 No NMR shielding tensors so no spin-rotation constants.
 Leave Link  601 at Fri Oct  6 22:01:29 2023, MaxMem=  1610612736 cpu:               8.4 elap:               5.2
 (Enter /home/sekinelabo/g16/l701.exe)
 ... and contract with generalized density number  0.
 Compute integral first derivatives.
 Leave Link  701 at Fri Oct  6 22:01:33 2023, MaxMem=  1610612736 cpu:               6.7 elap:               4.2
 (Enter /home/sekinelabo/g16/l702.exe)
 L702 exits ... SP integral derivatives will be done elsewhere.
 Leave Link  702 at Fri Oct  6 22:01:34 2023, MaxMem=  1610612736 cpu:               0.6 elap:               0.4
 (Enter /home/sekinelabo/g16/l703.exe)
 Integral derivatives from FoFJK, PRISM(SPDF).
 Compute integral first derivatives, UseDBF=F ICtDFT=           0.
 Calling FoFJK, ICntrl=      2127 FMM=F ISym2X=0 I1Cent= 0 IOpClX= 0 NMat=1 NMatS=1 NMatT=0.
 FoFJK:  IHMeth= 1 ICntrl=    2127 DoSepK=F KAlg= 0 I1Cent=           0 FoldK=F
 IRaf=         0 NMat=       1 IRICut=       1 DoRegI=T DoRafI=F ISym2E= 0 IDoP0=0 IntGTp=1.
 FoFCou: FMM=F IPFlag=           0 FMFlag=      100000 FMFlg1=         800
         NFxFlg=           0 DoJE=F BraDBF=F KetDBF=F FulRan=T
         wScrn=  0.000000 ICntrl=      2127 IOpCl=  0 I1Cent=           0 NGrid=           0
         NMat0=    1 NMatS0=      1 NMatT0=    0 NMatD0=    1 NMtDS0=    0 NMtDT0=    0
 Symmetry not used in FoFCou.
 Leave Link  703 at Fri Oct  6 22:01:41 2023, MaxMem=  1610612736 cpu:              12.4 elap:               7.7
 (Enter /home/sekinelabo/g16/l716.exe)
 Dipole        =-1.55856929D-01-1.72890202D-02 4.54219023D-02
 ***** Axes restored to original set *****
 -------------------------------------------------------------------
 Center     Atomic                   Forces (Hartrees/Bohr)
 Number     Number              X              Y              Z
 -------------------------------------------------------------------
      1       11          -0.007568854   -0.000070430   -0.000050004
      2       11           0.007502258    0.000075096    0.000795989
      3       11           0.002336751   -0.007861571   -0.000808634
      4       11          -0.002270154    0.007856905    0.000062648
 -------------------------------------------------------------------
 Cartesian Forces:  Max     0.007861571 RMS     0.004555447
 Z-matrix is all fixed cartesians, so copy forces.
 Force constants in Cartesian coordinates: 
                1             2             3             4             5 
      1  0.100000D+01
      2  0.000000D+00  0.100000D+01
      3  0.000000D+00  0.000000D+00  0.100000D+01
      4  0.000000D+00  0.000000D+00  0.000000D+00  0.100000D+01
      5  0.000000D+00  0.000000D+00  0.000000D+00  0.000000D+00  0.100000D+01
      6  0.000000D+00  0.000000D+00  0.000000D+00  0.000000D+00  0.000000D+00
      7  0.000000D+00  0.000000D+00  0.000000D+00  0.000000D+00  0.000000D+00
      8  0.000000D+00  0.000000D+00  0.000000D+00  0.000000D+00  0.000000D+00
      9  0.000000D+00  0.000000D+00  0.000000D+00  0.000000D+00  0.000000D+00
     10  0.000000D+00  0.000000D+00  0.000000D+00  0.000000D+00  0.000000D+00
     11  0.000000D+00  0.000000D+00  0.000000D+00  0.000000D+00  0.000000D+00
     12  0.000000D+00  0.000000D+00  0.000000D+00  0.000000D+00  0.000000D+00
                6             7             8             9            10 
      6  0.100000D+01
      7  0.000000D+00  0.100000D+01
      8  0.000000D+00  0.000000D+00  0.100000D+01
      9  0.000000D+00  0.000000D+00  0.000000D+00  0.100000D+01
     10  0.000000D+00  0.000000D+00  0.000000D+00  0.000000D+00  0.100000D+01
     11  0.000000D+00  0.000000D+00  0.000000D+00  0.000000D+00  0.000000D+00
     12  0.000000D+00  0.000000D+00  0.000000D+00  0.000000D+00  0.000000D+00
               11            12 
     11  0.100000D+01
     12  0.000000D+00  0.100000D+01
 Leave Link  716 at Fri Oct  6 22:01:42 2023, MaxMem=  1610612736 cpu:               0.7 elap:               0.5
 (Enter /home/sekinelabo/g16/l103.exe)

 GradGradGradGradGradGradGradGradGradGradGradGradGradGradGradGradGradGrad
 Berny optimization.
 Search for a local minimum.
 Step number   1 out of a maximum of    2
 All quantities printed in internal units (Hartrees-Bohrs-Radians)
 Second derivative matrix not updated -- first step.
 The second derivative matrix:
                          X1        Y1        Z1        X2        Y2
           X1           1.00000
           Y1           0.00000   1.00000
           Z1          -0.00000   0.00000   1.00000
           X2           0.00000   0.00000   0.00000   1.00000
           Y2           0.00000   0.00000   0.00000   0.00000   1.00000
           Z2           0.00000   0.00000   0.00000  -0.00000   0.00000
           X3           0.00000   0.00000   0.00000   0.00000   0.00000
           Y3           0.00000   0.00000   0.00000   0.00000   0.00000
           Z3           0.00000   0.00000   0.00000   0.00000   0.00000
           X4           0.00000   0.00000   0.00000   0.00000   0.00000
           Y4           0.00000   0.00000   0.00000   0.00000   0.00000
           Z4           0.00000   0.00000   0.00000   0.00000   0.00000
                          Z2        X3        Y3        Z3        X4
           Z2           1.00000
           X3           0.00000   1.00000
           Y3           0.00000   0.00000   1.00000
           Z3           0.00000  -0.00000   0.00000   1.00000
           X4           0.00000   0.00000   0.00000   0.00000   1.00000
           Y4           0.00000   0.00000   0.00000   0.00000   0.00000
           Z4           0.00000   0.00000   0.00000   0.00000  -0.00000
                          Y4        Z4
           Y4           1.00000
           Z4           0.00000   1.00000
 ITU=  0
     Eigenvalues ---    1.00000   1.00000   1.00000   1.00000   1.00000
     Eigenvalues ---    1.00000   1.00000   1.00000   1.00000   1.00000
     Eigenvalues ---    1.00000   1.00000
 Angle between quadratic step and forces=   0.00 degrees.
 Linear search not attempted -- first point.
 B after Tr=    -0.000000    0.000000    0.000000
         Rot=    1.000000   -0.000000    0.000000   -0.000000 Ang=   0.00 deg.
 Variable       Old X    -DE/DX   Delta X   Delta X   Delta X     New X
                                 (Linear)    (Quad)   (Total)
    X1        0.00000  -0.00757   0.00000  -0.00757  -0.00757  -0.00757
    Y1        0.00000  -0.00007   0.00000  -0.00007  -0.00007  -0.00007
    Z1        0.00000  -0.00005   0.00000  -0.00005  -0.00005  -0.00005
    X2       -8.70428   0.00750   0.00000   0.00750   0.00750  -8.69678
    Y2       -0.00000   0.00008   0.00000   0.00008   0.00008   0.00008
    Z2       -1.01334   0.00080   0.00000   0.00080   0.00080  -1.01254
    X3       -0.00000   0.00234   0.00000   0.00234   0.00234   0.00234
    Y3        0.00000  -0.00786   0.00000  -0.00786  -0.00786  -0.00786
    Z3       10.73837  -0.00081   0.00000  -0.00081  -0.00081  10.73756
    X4        2.27476  -0.00227   0.00000  -0.00227  -0.00227   2.27249
    Y4       -7.58510   0.00786   0.00000   0.00786   0.00786  -7.57725
    Z4       10.69405   0.00006   0.00000   0.00006   0.00006  10.69412
         Item               Value     Threshold  Converged?
 Maximum Force            0.007862     0.000450     NO 
 RMS     Force            0.004555     0.000300     NO 
 Maximum Displacement     0.007862     0.001800     NO 
 RMS     Displacement     0.004555     0.001200     NO 
 Predicted change in Energy=-1.245126D-04
 GradGradGradGradGradGradGradGradGradGradGradGradGradGradGradGradGradGrad

 Leave Link  103 at Fri Oct  6 22:01:43 2023, MaxMem=  1610612736 cpu:               0.7 elap:               0.5
 (Enter /home/sekinelabo/g16/l9999.exe)
 1\1\GINC-SEKINELABO-XA7R-R37\Force\RB3LYP\6-311+G(d)\Na4\SEKINELABO\06
 -Oct-2023\0\\#p B3LYP/6-311+g(d) force\\\0,1\Na,0.,0.,0.\Na,-4.6061067
 105,0.,-0.5362362143\Na,0.,0.,5.6825016671\Na,1.2037492607,-4.01386455
 85,5.659049434\\Version=ES64L-G16RevB.01\State=1-A\HF=-649.1688386\RMS
 D=1.443e-09\RMSF=4.555e-03\Dipole=0.0469507,-0.0852478,0.1310797\Quadr
 upole=3.4098882,2.6613403,-6.0712286,-2.3815479,-0.247559,0.8859951\PG
 =C01 [X(Na4)]\\@


 OPTIMIST - A PESSIMIST WHO LACKS EXPERIENCE
 Job cpu time:       0 days  0 hours  3 minutes 24.1 seconds.
 Elapsed time:       0 days  0 hours  2 minutes  7.9 seconds.
 File lengths (MBytes):  RWF=     10 Int=      0 D2E=      0 Chk=      2 Scr=      1
 Normal termination of Gaussian 16 at Fri Oct  6 22:01:43 2023.
 Initial command:
 /home/sekinelabo/g16/l1.exe "/home/sekinelabo/g16temp/Gau-709057.inp" -scrdir="/home/sekinelabo/g16temp/"
 Entering Link 1 = /home/sekinelabo/g16/l1.exe PID=    710700.
  
 Copyright (c) 1988-2017, Gaussian, Inc.  All Rights Reserved.
  
 This is part of the Gaussian(R) 16 program.  It is based on
 the Gaussian(R) 09 system (copyright 2009, Gaussian, Inc.),
 the Gaussian(R) 03 system (copyright 2003, Gaussian, Inc.),
 the Gaussian(R) 98 system (copyright 1998, Gaussian, Inc.),
 the Gaussian(R) 94 system (copyright 1995, Gaussian, Inc.),
 the Gaussian 92(TM) system (copyright 1992, Gaussian, Inc.),
 the Gaussian 90(TM) system (copyright 1990, Gaussian, Inc.),
 the Gaussian 88(TM) system (copyright 1988, Gaussian, Inc.),
 the Gaussian 86(TM) system (copyright 1986, Carnegie Mellon
 University), and the Gaussian 82(TM) system (copyright 1983,
 Carnegie Mellon University). Gaussian is a federally registered
 trademark of Gaussian, Inc.
  
 This software contains proprietary and confidential information,
 including trade secrets, belonging to Gaussian, Inc.
  
 This software is provided under written license and may be
 used, copied, transmitted, or stored only in accord with that
 written license.
  
 The following legend is applicable only to US Government
 contracts under FAR:
  
                    RESTRICTED RIGHTS LEGEND
  
 Use, reproduction and disclosure by the US Government is
 subject to restrictions as set forth in subparagraphs (a)
 and (c) of the Commercial Computer Software - Restricted
 Rights clause in FAR 52.227-19.
  
 Gaussian, Inc.
 340 Quinnipiac St., Bldg. 40, Wallingford CT 06492
  
  
 ---------------------------------------------------------------
 Warning -- This program may not be used in any manner that
 competes with the business of Gaussian, Inc. or will provide
 assistance to any competitor of Gaussian, Inc.  The licensee
 of this program is prohibited from giving any competitor of
 Gaussian, Inc. access to this program.  By using this program,
 the user acknowledges that Gaussian, Inc. is engaged in the
 business of creating and licensing software in the field of
 computational chemistry and represents and warrants to the
 licensee that it is not a competitor of Gaussian, Inc. and that
 it will not use this program in any manner prohibited above.
 ---------------------------------------------------------------
  

 Cite this work as:
 Gaussian 16, Revision B.01,
 M. J. Frisch, G. W. Trucks, H. B. Schlegel, G. E. Scuseria, 
 M. A. Robb, J. R. Cheeseman, G. Scalmani, V. Barone, 
 G. A. Petersson, H. Nakatsuji, X. Li, M. Caricato, A. V. Marenich, 
 J. Bloino, B. G. Janesko, R. Gomperts, B. Mennucci, H. P. Hratchian, 
 J. V. Ortiz, A. F. Izmaylov, J. L. Sonnenberg, D. Williams-Young, 
 F. Ding, F. Lipparini, F. Egidi, J. Goings, B. Peng, A. Petrone, 
 T. Henderson, D. Ranasinghe, V. G. Zakrzewski, J. Gao, N. Rega, 
 G. Zheng, W. Liang, M. Hada, M. Ehara, K. Toyota, R. Fukuda, 
 J. Hasegawa, M. Ishida, T. Nakajima, Y. Honda, O. Kitao, H. Nakai, 
 T. Vreven, K. Throssell, J. A. Montgomery, Jr., J. E. Peralta, 
 F. Ogliaro, M. J. Bearpark, J. J. Heyd, E. N. Brothers, K. N. Kudin, 
 V. N. Staroverov, T. A. Keith, R. Kobayashi, J. Normand, 
 K. Raghavachari, A. P. Rendell, J. C. Burant, S. S. Iyengar, 
 J. Tomasi, M. Cossi, J. M. Millam, M. Klene, C. Adamo, R. Cammi, 
 J. W. Ochterski, R. L. Martin, K. Morokuma, O. Farkas, 
 J. B. Foresman, and D. J. Fox, Gaussian, Inc., Wallingford CT, 2016.
 
 ******************************************
 Gaussian 16:  ES64L-G16RevB.01 20-Dec-2017
                 6-Oct-2023 
 ******************************************
 %NProcShared=16
 Will use up to   16 processors via shared memory.
 %mem=12GB
 %Chk=checkpoint.chk
 -------------------------
 #p B3LYP/6-311+g(d) force
 -------------------------
 1/10=7,30=1,38=1/1,3;
 2/12=2,17=6,18=5,40=1/2;
 3/5=4,6=6,7=11,11=2,25=1,30=1,71=1,74=-5/1,2,3;
 4//1;
 5/5=2,38=5/2;
 6/7=2,8=2,9=2,10=2,28=1/1;
 7/29=1/1,2,3,16;
 1/10=7,30=1/3;
 99//99;
 Leave Link    1 at Fri Oct  6 22:01:44 2023, MaxMem=  1610612736 cpu:               0.5 elap:               0.4
 (Enter /home/sekinelabo/g16/l101.exe)


 Symbolic Z-matrix:
 Charge =  0 Multiplicity = 1
 Na                    0.        0.        0. 
 Na                   -5.06221   0.        1.51365 
 Na                    0.        0.        5.71585 
 Na                   -0.10202  -2.42869   10.26623 
 
 ITRead=  0  0  0  0
 MicOpt= -1 -1 -1 -1
 NAtoms=      4 NQM=        4 NQMF=       0 NMMI=      0 NMMIF=      0
                NMic=       0 NMicF=      0.
                    Isotopes and Nuclear Properties:
 (Nuclear quadrupole moments (NQMom) in fm**2, nuclear magnetic moments (NMagM)
  in nuclear magnetons)

  Atom         1           2           3           4
 IAtWgt=          23          23          23          23
 AtmWgt=  22.9897697  22.9897697  22.9897697  22.9897697
 NucSpn=           3           3           3           3
 AtZEff=  -0.0000000  -0.0000000  -0.0000000  -0.0000000
 NQMom=   10.4000000  10.4000000  10.4000000  10.4000000
 NMagM=    2.2175200   2.2175200   2.2175200   2.2175200
 AtZNuc=  11.0000000  11.0000000  11.0000000  11.0000000
 Leave Link  101 at Fri Oct  6 22:01:45 2023, MaxMem=  1610612736 cpu:               2.1 elap:               1.4
 (Enter /home/sekinelabo/g16/l103.exe)

 GradGradGradGradGradGradGradGradGradGradGradGradGradGradGradGradGradGrad
 Berny optimization.
 Initialization pass.
 Trust Radius=3.00D-01 FncErr=1.00D-07 GrdErr=1.00D-07 EigMax=2.50D+02 EigMin=1.00D-04
 Number of steps in this run=      2 maximum allowed number of steps=      2.
 GradGradGradGradGradGradGradGradGradGradGradGradGradGradGradGradGradGrad

 Leave Link  103 at Fri Oct  6 22:01:46 2023, MaxMem=  1610612736 cpu:               0.6 elap:               0.4
 (Enter /home/sekinelabo/g16/l202.exe)
                          Input orientation:                          
 ---------------------------------------------------------------------
 Center     Atomic      Atomic             Coordinates (Angstroms)
 Number     Number       Type             X           Y           Z
 ---------------------------------------------------------------------
      1         11           0        0.000000    0.000000    0.000000
      2         11           0       -5.062212    0.000000    1.513650
      3         11           0        0.000000    0.000000    5.715850
      4         11           0       -0.102017   -2.428686   10.266231
 ---------------------------------------------------------------------
                    Distance matrix (angstroms):
                    1          2          3          4
     1  Na   0.000000
     2  Na   5.283666   0.000000
     3  Na   5.715850   6.579094   0.000000
     4  Na  10.550091  10.349383   5.158962   0.000000
 Stoichiometry    Na4
 Framework group  C1[X(Na4)]
 Deg. of freedom     6
 Full point group                 C1      NOp   1
 Largest Abelian subgroup         C1      NOp   1
 Largest concise Abelian subgroup C1      NOp   1
                         Standard orientation:                         
 ---------------------------------------------------------------------
 Center     Atomic      Atomic             Coordinates (Angstroms)
 Number     Number       Type             X           Y           Z
 ---------------------------------------------------------------------
      1         11           0        3.905328   -2.395034   -0.423081
      2         11           0        3.812593    2.869746    0.013520
      3         11           0       -1.472258   -0.953757    0.871224
      4         11           0       -6.245662    0.479045   -0.461663
 ---------------------------------------------------------------------
 Rotational constants (GHZ):           1.3517789           0.3048310           0.2553938
 Leave Link  202 at Fri Oct  6 22:01:46 2023, MaxMem=  1610612736 cpu:               1.1 elap:               0.7
 (Enter /home/sekinelabo/g16/l301.exe)
 Standard basis: 6-311+G(d) (5D, 7F)
 Ernie: Thresh=  0.10000D-02 Tol=  0.10000D-05 Strict=F.
 There are   124 symmetry adapted cartesian basis functions of A   symmetry.
 There are   120 symmetry adapted basis functions of A   symmetry.
   120 basis functions,   200 primitive gaussians,   124 cartesian basis functions
    22 alpha electrons       22 beta electrons
       nuclear repulsion energy        57.7207990819 Hartrees.
 IExCor=  402 DFT=T Ex+Corr=B3LYP ExCW=0 ScaHFX=  0.200000
 ScaDFX=  0.800000  0.720000  1.000000  0.810000 ScalE2=  1.000000  1.000000
 IRadAn=      5 IRanWt=     -1 IRanGd=            0 ICorTp=0 IEmpDi=  4
 NAtoms=    4 NActive=    4 NUniq=    4 SFac= 1.00D+00 NAtFMM=   60 NAOKFM=F Big=F
 Integral buffers will be    131072 words long.
 Raffenetti 2 integral format.
 Two-electron integral symmetry is turned on.
 Leave Link  301 at Fri Oct  6 22:01:47 2023, MaxMem=  1610612736 cpu:               0.7 elap:               0.4
 (Enter /home/sekinelabo/g16/l302.exe)
 NPDir=0 NMtPBC=     1 NCelOv=     1 NCel=       1 NClECP=     1 NCelD=      1
         NCelK=      1 NCelE2=     1 NClLst=     1 CellRange=     0.0.
 One-electron integrals computed using PRISM.
 One-electron integral symmetry used in STVInt
 NBasis=   120 RedAO= T EigKep=  9.23D-04  NBF=   120
 NBsUse=   120 1.00D-06 EigRej= -1.00D+00 NBFU=   120
 Precomputing XC quadrature grid using
 IXCGrd= 4 IRadAn=           5 IRanWt=          -1 IRanGd=           0 AccXCQ= 0.00D+00.
 Generated NRdTot=       0 NPtTot=           0 NUsed=           0 NTot=          32
 NSgBfM=   113   113   113   113   113 MxSgAt=     4 MxSgA2=     4.
 Leave Link  302 at Fri Oct  6 22:01:59 2023, MaxMem=  1610612736 cpu:              20.9 elap:              12.5
 (Enter /home/sekinelabo/g16/l303.exe)
 DipDrv:  MaxL=1.
 Leave Link  303 at Fri Oct  6 22:02:01 2023, MaxMem=  1610612736 cpu:               3.0 elap:               1.9
 (Enter /home/sekinelabo/g16/l401.exe)
 ExpMin= 7.60D-03 ExpMax= 3.62D+04 ExpMxC= 1.21D+03 IAcc=3 IRadAn=         5 AccDes= 0.00D+00
 Harris functional with IExCor=  402 and IRadAn=       5 diagonalized for initial guess.
 HarFok:  IExCor=  402 AccDes= 0.00D+00 IRadAn=         5 IDoV= 1 UseB2=F ITyADJ=14
 ICtDFT=  3500011 ScaDFX=  1.000000  1.000000  1.000000  1.000000
 FoFCou: FMM=F IPFlag=           0 FMFlag=      100000 FMFlg1=           0
         NFxFlg=           0 DoJE=T BraDBF=F KetDBF=T FulRan=T
         wScrn=  0.000000 ICntrl=       500 IOpCl=  0 I1Cent=   200000004 NGrid=           0
         NMat0=    1 NMatS0=      1 NMatT0=    0 NMatD0=    1 NMtDS0=    0 NMtDT0=    0
 Petite list used in FoFCou.
 Harris En= -649.024399844725    
 JPrj=0 DoOrth=F DoCkMO=F.
 Leave Link  401 at Fri Oct  6 22:02:10 2023, MaxMem=  1610612736 cpu:              13.9 elap:               8.6
 (Enter /home/sekinelabo/g16/l502.exe)
 Keep R1 ints in memory in canonical form, NReq=41581754.
 FoFCou: FMM=F IPFlag=           0 FMFlag=           0 FMFlg1=           0
         NFxFlg=           0 DoJE=F BraDBF=F KetDBF=F FulRan=T
         wScrn=  0.000000 ICntrl=       600 IOpCl=  0 I1Cent=           0 NGrid=           0
         NMat0=    1 NMatS0=   7260 NMatT0=    0 NMatD0=    1 NMtDS0=    0 NMtDT0=    0
 Symmetry not used in FoFCou.
 Two-electron integral symmetry not used.
 Closed shell SCF:
 Using DIIS extrapolation, IDIIS=  1040.
 NGot=  1610612736 LenX=  1584221388 LenY=  1584205571
 Requested convergence on RMS density matrix=1.00D-08 within 128 cycles.
 Requested convergence on MAX density matrix=1.00D-06.
 Requested convergence on             energy=1.00D-06.
 No special actions if energy rises.

 Cycle   1  Pass 1  IDiag  1:
 E= -649.133821917285    
 DIIS: error= 1.64D-02 at cycle   1 NSaved=   1.
 NSaved= 1 IEnMin= 1 EnMin= -649.133821917285     IErMin= 1 ErrMin= 1.64D-02
 ErrMax= 1.64D-02  0.00D+00 EMaxC= 1.00D-01 BMatC= 2.73D-02 BMatP= 2.73D-02
 IDIUse=3 WtCom= 8.36D-01 WtEn= 1.64D-01
 Coeff-Com:  0.100D+01
 Coeff-En:   0.100D+01
 Coeff:      0.100D+01
 Gap=     0.018 Goal=   None    Shift=    0.000
 GapD=    0.018 DampG=0.250 DampE=0.500 DampFc=0.2500 IDamp=-1.
 Damping current iteration by 2.50D-01
 RMSDP=3.56D-03 MaxDP=1.74D-01              OVMax= 3.66D-01

 Cycle   2  Pass 1  IDiag  1:
 E= -649.137654964054     Delta-E=       -0.003833046769 Rises=F Damp=T
 DIIS: error= 1.14D-02 at cycle   2 NSaved=   2.
 NSaved= 2 IEnMin= 2 EnMin= -649.137654964054     IErMin= 2 ErrMin= 1.14D-02
 ErrMax= 1.14D-02  0.00D+00 EMaxC= 1.00D-01 BMatC= 1.03D-02 BMatP= 2.73D-02
 IDIUse=3 WtCom= 8.86D-01 WtEn= 1.14D-01
 Coeff-Com: -0.121D+01 0.221D+01
 Coeff-En:   0.000D+00 0.100D+01
 Coeff:     -0.107D+01 0.207D+01
 Gap=     0.028 Goal=   None    Shift=    0.000
 RMSDP=3.34D-03 MaxDP=1.73D-01 DE=-3.83D-03 OVMax= 4.42D-01

 Cycle   3  Pass 1  IDiag  1:
 E= -649.109464462237     Delta-E=        0.028190501817 Rises=F Damp=F
 DIIS: error= 7.54D-03 at cycle   3 NSaved=   3.
 NSaved= 3 IEnMin= 2 EnMin= -649.137654964054     IErMin= 3 ErrMin= 7.54D-03
 ErrMax= 7.54D-03  0.00D+00 EMaxC= 1.00D-01 BMatC= 4.04D-03 BMatP= 1.03D-02
 IDIUse=3 WtCom= 9.25D-01 WtEn= 7.54D-02
 Coeff-Com: -0.691D+00 0.124D+01 0.448D+00
 Coeff-En:   0.000D+00 0.903D+00 0.969D-01
 Coeff:     -0.639D+00 0.122D+01 0.421D+00
 Gap=     0.031 Goal=   None    Shift=    0.000
 RMSDP=5.88D-03 MaxDP=3.28D-01 DE= 2.82D-02 OVMax= 5.80D-01

 Cycle   4  Pass 1  IDiag  1:
 E= -649.112281406555     Delta-E=       -0.002816944317 Rises=F Damp=F
 DIIS: error= 8.06D-03 at cycle   4 NSaved=   4.
 NSaved= 4 IEnMin= 2 EnMin= -649.137654964054     IErMin= 3 ErrMin= 7.54D-03
 ErrMax= 8.06D-03  0.00D+00 EMaxC= 1.00D-01 BMatC= 3.82D-03 BMatP= 4.04D-03
 IDIUse=3 WtCom= 9.19D-01 WtEn= 8.06D-02
 Coeff-Com:  0.136D-01 0.204D-01 0.477D+00 0.489D+00
 Coeff-En:   0.000D+00 0.000D+00 0.488D+00 0.512D+00
 Coeff:      0.125D-01 0.188D-01 0.478D+00 0.491D+00
 Gap=     0.018 Goal=   None    Shift=    0.000
 RMSDP=3.05D-03 MaxDP=1.67D-01 DE=-2.82D-03 OVMax= 2.88D-01

 Cycle   5  Pass 1  IDiag  1:
 E= -649.145985079865     Delta-E=       -0.033703673310 Rises=F Damp=F
 DIIS: error= 1.70D-03 at cycle   5 NSaved=   5.
 NSaved= 5 IEnMin= 5 EnMin= -649.145985079865     IErMin= 5 ErrMin= 1.70D-03
 ErrMax= 1.70D-03  0.00D+00 EMaxC= 1.00D-01 BMatC= 1.90D-04 BMatP= 3.82D-03
 IDIUse=3 WtCom= 9.83D-01 WtEn= 1.70D-02
 Coeff-Com:  0.193D-01-0.191D-01 0.232D+00 0.237D+00 0.531D+00
 Coeff-En:   0.000D+00 0.000D+00 0.000D+00 0.000D+00 0.100D+01
 Coeff:      0.190D-01-0.188D-01 0.228D+00 0.233D+00 0.539D+00
 Gap=     0.023 Goal=   None    Shift=    0.000
 RMSDP=1.47D-03 MaxDP=7.71D-02 DE=-3.37D-02 OVMax= 1.34D-01

 Cycle   6  Pass 1  IDiag  1:
 E= -649.143317913297     Delta-E=        0.002667166567 Rises=F Damp=F
 DIIS: error= 2.83D-03 at cycle   6 NSaved=   6.
 NSaved= 6 IEnMin= 5 EnMin= -649.145985079865     IErMin= 5 ErrMin= 1.70D-03
 ErrMax= 2.83D-03  0.00D+00 EMaxC= 1.00D-01 BMatC= 5.19D-04 BMatP= 1.90D-04
 IDIUse=3 WtCom= 9.83D-01 WtEn= 1.70D-02
 Coeff-Com: -0.105D-01 0.117D-01 0.373D-01 0.270D-01 0.592D+00 0.343D+00
 Coeff-En:   0.000D+00 0.000D+00 0.000D+00 0.000D+00 0.658D+00 0.342D+00
 Coeff:     -0.103D-01 0.115D-01 0.366D-01 0.265D-01 0.593D+00 0.343D+00
 Gap=     0.024 Goal=   None    Shift=    0.000
 RMSDP=9.64D-04 MaxDP=5.39D-02 DE= 2.67D-03 OVMax= 8.21D-02

 Cycle   7  Pass 1  IDiag  1:
 E= -649.147511406851     Delta-E=       -0.004193493553 Rises=F Damp=F
 DIIS: error= 1.21D-04 at cycle   7 NSaved=   7.
 NSaved= 7 IEnMin= 7 EnMin= -649.147511406851     IErMin= 7 ErrMin= 1.21D-04
 ErrMax= 1.21D-04  0.00D+00 EMaxC= 1.00D-01 BMatC= 2.24D-06 BMatP= 1.90D-04
 IDIUse=3 WtCom= 9.99D-01 WtEn= 1.21D-03
 Coeff-Com: -0.778D-02 0.100D-01-0.310D-02-0.175D-02 0.180D+00 0.119D+00
 Coeff-Com:  0.704D+00
 Coeff-En:   0.000D+00 0.000D+00 0.000D+00 0.000D+00 0.000D+00 0.000D+00
 Coeff-En:   0.100D+01
 Coeff:     -0.777D-02 0.100D-01-0.309D-02-0.175D-02 0.179D+00 0.119D+00
 Coeff:      0.704D+00
 Gap=     0.024 Goal=   None    Shift=    0.000
 RMSDP=5.42D-05 MaxDP=1.68D-03 DE=-4.19D-03 OVMax= 4.98D-03

 Cycle   8  Pass 1  IDiag  1:
 E= -649.147521010978     Delta-E=       -0.000009604127 Rises=F Damp=F
 DIIS: error= 3.12D-05 at cycle   8 NSaved=   8.
 NSaved= 8 IEnMin= 8 EnMin= -649.147521010978     IErMin= 8 ErrMin= 3.12D-05
 ErrMax= 3.12D-05  0.00D+00 EMaxC= 1.00D-01 BMatC= 1.12D-07 BMatP= 2.24D-06
 IDIUse=1 WtCom= 1.00D+00 WtEn= 0.00D+00
 Coeff-Com: -0.206D-02 0.282D-02-0.291D-02-0.127D-02 0.318D-01 0.251D-01
 Coeff-Com:  0.212D+00 0.735D+00
 Coeff:     -0.206D-02 0.282D-02-0.291D-02-0.127D-02 0.318D-01 0.251D-01
 Coeff:      0.212D+00 0.735D+00
 Gap=     0.024 Goal=   None    Shift=    0.000
 RMSDP=2.71D-05 MaxDP=9.62D-04 DE=-9.60D-06 OVMax= 2.69D-03

 Cycle   9  Pass 1  IDiag  1:
 E= -649.147522284284     Delta-E=       -0.000001273306 Rises=F Damp=F
 DIIS: error= 2.40D-05 at cycle   9 NSaved=   9.
 NSaved= 9 IEnMin= 9 EnMin= -649.147522284284     IErMin= 9 ErrMin= 2.40D-05
 ErrMax= 2.40D-05  0.00D+00 EMaxC= 1.00D-01 BMatC= 2.60D-08 BMatP= 1.12D-07
 IDIUse=1 WtCom= 1.00D+00 WtEn= 0.00D+00
 Coeff-Com:  0.582D-03-0.674D-03-0.983D-03 0.105D-02-0.206D-01-0.114D-01
 Coeff-Com: -0.993D-01-0.203D+00 0.133D+01
 Coeff:      0.582D-03-0.674D-03-0.983D-03 0.105D-02-0.206D-01-0.114D-01
 Coeff:     -0.993D-01-0.203D+00 0.133D+01
 Gap=     0.024 Goal=   None    Shift=    0.000
 RMSDP=2.66D-05 MaxDP=9.23D-04 DE=-1.27D-06 OVMax= 2.66D-03

 Cycle  10  Pass 1  IDiag  1:
 E= -649.147522959276     Delta-E=       -0.000000674993 Rises=F Damp=F
 DIIS: error= 8.57D-06 at cycle  10 NSaved=  10.
 NSaved=10 IEnMin=10 EnMin= -649.147522959276     IErMin=10 ErrMin= 8.57D-06
 ErrMax= 8.57D-06  0.00D+00 EMaxC= 1.00D-01 BMatC= 3.76D-09 BMatP= 2.60D-08
 IDIUse=1 WtCom= 1.00D+00 WtEn= 0.00D+00
 Coeff-Com: -0.216D-03 0.284D-03-0.334D-03 0.340D-03-0.838D-03-0.250D-04
 Coeff-Com:  0.903D-03-0.387D-02-0.177D+00 0.118D+01
 Coeff:     -0.216D-03 0.284D-03-0.334D-03 0.340D-03-0.838D-03-0.250D-04
 Coeff:      0.903D-03-0.387D-02-0.177D+00 0.118D+01
 Gap=     0.024 Goal=   None    Shift=    0.000
 RMSDP=6.18D-06 MaxDP=2.13D-04 DE=-6.75D-07 OVMax= 6.00D-04

 Cycle  11  Pass 1  IDiag  1:
 E= -649.147523010008     Delta-E=       -0.000000050731 Rises=F Damp=F
 DIIS: error= 2.38D-06 at cycle  11 NSaved=  11.
 NSaved=11 IEnMin=11 EnMin= -649.147523010008     IErMin=11 ErrMin= 2.38D-06
 ErrMax= 2.38D-06  0.00D+00 EMaxC= 1.00D-01 BMatC= 2.40D-10 BMatP= 3.76D-09
 IDIUse=1 WtCom= 1.00D+00 WtEn= 0.00D+00
 Coeff-Com: -0.490D-04 0.624D-04-0.772D-04 0.879D-04 0.460D-03 0.485D-03
 Coeff-Com:  0.413D-02 0.697D-02-0.548D-01 0.243D-01 0.102D+01
 Coeff:     -0.490D-04 0.624D-04-0.772D-04 0.879D-04 0.460D-03 0.485D-03
 Coeff:      0.413D-02 0.697D-02-0.548D-01 0.243D-01 0.102D+01
 Gap=     0.024 Goal=   None    Shift=    0.000
 RMSDP=9.87D-07 MaxDP=3.36D-05 DE=-5.07D-08 OVMax= 8.49D-05

 Cycle  12  Pass 1  IDiag  1:
 E= -649.147523012352     Delta-E=       -0.000000002345 Rises=F Damp=F
 DIIS: error= 2.70D-07 at cycle  12 NSaved=  12.
 NSaved=12 IEnMin=12 EnMin= -649.147523012352     IErMin=12 ErrMin= 2.70D-07
 ErrMax= 2.70D-07  0.00D+00 EMaxC= 1.00D-01 BMatC= 8.61D-12 BMatP= 2.40D-10
 IDIUse=1 WtCom= 1.00D+00 WtEn= 0.00D+00
 Coeff-Com: -0.793D-05 0.997D-05-0.144D-04 0.154D-04 0.268D-03 0.232D-03
 Coeff-Com:  0.150D-02 0.403D-02-0.143D-01-0.502D-01 0.330D+00 0.728D+00
 Coeff:     -0.793D-05 0.997D-05-0.144D-04 0.154D-04 0.268D-03 0.232D-03
 Coeff:      0.150D-02 0.403D-02-0.143D-01-0.502D-01 0.330D+00 0.728D+00
 Gap=     0.024 Goal=   None    Shift=    0.000
 RMSDP=1.63D-07 MaxDP=7.45D-06 DE=-2.34D-09 OVMax= 1.22D-05

 Cycle  13  Pass 1  IDiag  1:
 E= -649.147523012389     Delta-E=       -0.000000000037 Rises=F Damp=F
 DIIS: error= 1.97D-07 at cycle  13 NSaved=  13.
 NSaved=13 IEnMin=13 EnMin= -649.147523012389     IErMin=13 ErrMin= 1.97D-07
 ErrMax= 1.97D-07  0.00D+00 EMaxC= 1.00D-01 BMatC= 2.28D-12 BMatP= 8.61D-12
 IDIUse=1 WtCom= 1.00D+00 WtEn= 0.00D+00
 Coeff-Com:  0.429D-05-0.540D-05-0.143D-05 0.460D-05 0.854D-05-0.170D-04
 Coeff-Com: -0.280D-03-0.735D-03 0.455D-02-0.112D-01-0.681D-01 0.148D+00
 Coeff-Com:  0.927D+00
 Coeff:      0.429D-05-0.540D-05-0.143D-05 0.460D-05 0.854D-05-0.170D-04
 Coeff:     -0.280D-03-0.735D-03 0.455D-02-0.112D-01-0.681D-01 0.148D+00
 Coeff:      0.927D+00
 Gap=     0.024 Goal=   None    Shift=    0.000
 RMSDP=7.92D-08 MaxDP=3.75D-06 DE=-3.68D-11 OVMax= 7.37D-06

 Cycle  14  Pass 1  IDiag  1:
 E= -649.147523012414     Delta-E=       -0.000000000025 Rises=F Damp=F
 DIIS: error= 1.11D-08 at cycle  14 NSaved=  14.
 NSaved=14 IEnMin=14 EnMin= -649.147523012414     IErMin=14 ErrMin= 1.11D-08
 ErrMax= 1.11D-08  0.00D+00 EMaxC= 1.00D-01 BMatC= 1.21D-14 BMatP= 2.28D-12
 IDIUse=1 WtCom= 1.00D+00 WtEn= 0.00D+00
 Coeff-Com: -0.902D-06 0.120D-05-0.817D-06 0.819D-06 0.468D-05-0.103D-05
 Coeff-Com: -0.250D-04-0.114D-03 0.970D-04 0.348D-02-0.103D-01-0.979D-02
 Coeff-Com:  0.280D-01 0.989D+00
 Coeff:     -0.902D-06 0.120D-05-0.817D-06 0.819D-06 0.468D-05-0.103D-05
 Coeff:     -0.250D-04-0.114D-03 0.970D-04 0.348D-02-0.103D-01-0.979D-02
 Coeff:      0.280D-01 0.989D+00
 Gap=     0.024 Goal=   None    Shift=    0.000
 RMSDP=8.88D-09 MaxDP=2.29D-07 DE=-2.48D-11 OVMax= 6.73D-07

 SCF Done:  E(RB3LYP) =  -649.147523012     A.U. after   14 cycles
            NFock= 14  Conv=0.89D-08     -V/T= 2.0030
 KE= 6.471751449749D+02 PE=-1.673928002595D+03 EE= 3.198845355255D+02
 Leave Link  502 at Fri Oct  6 22:03:44 2023, MaxMem=  1610612736 cpu:             150.4 elap:              94.7
 (Enter /home/sekinelabo/g16/l601.exe)
 Copying SCF densities to generalized density rwf, IOpCl= 0 IROHF=0.

 **********************************************************************

            Population analysis using the SCF Density.

 **********************************************************************

 Orbital symmetries:
       Occupied  (A) (A) (A) (A) (A) (A) (A) (A) (A) (A) (A) (A)
                 (A) (A) (A) (A) (A) (A) (A) (A) (A) (A)
       Virtual   (A) (A) (A) (A) (A) (A) (A) (A) (A) (A) (A) (A)
                 (A) (A) (A) (A) (A) (A) (A) (A) (A) (A) (A) (A)
                 (A) (A) (A) (A) (A) (A) (A) (A) (A) (A) (A) (A)
                 (A) (A) (A) (A) (A) (A) (A) (A) (A) (A) (A) (A)
                 (A) (A) (A) (A) (A) (A) (A) (A) (A) (A) (A) (A)
                 (A) (A) (A) (A) (A) (A) (A) (A) (A) (A) (A) (A)
                 (A) (A) (A) (A) (A) (A) (A) (A) (A) (A) (A) (A)
                 (A) (A) (A) (A) (A) (A) (A) (A) (A) (A) (A) (A)
                 (A) (A)
 The electronic state is 1-A.
 Alpha  occ. eigenvalues --  -38.47014 -38.46956 -38.45945 -38.45527  -2.22679
 Alpha  occ. eigenvalues --   -2.22622  -2.21610  -2.21201  -1.16356  -1.16355
 Alpha  occ. eigenvalues --   -1.16317  -1.16300  -1.16293  -1.16262  -1.15294
 Alpha  occ. eigenvalues --   -1.15291  -1.15239  -1.14880  -1.14880  -1.14839
 Alpha  occ. eigenvalues --   -0.12426  -0.11114
 Alpha virt. eigenvalues --   -0.08712  -0.07563  -0.02709  -0.02608  -0.02474
 Alpha virt. eigenvalues --   -0.01990  -0.01559  -0.01137  -0.00899  -0.00714
 Alpha virt. eigenvalues --   -0.00207   0.00052   0.00294   0.00361   0.00668
 Alpha virt. eigenvalues --    0.01215   0.01373   0.01563   0.01628   0.01692
 Alpha virt. eigenvalues --    0.01785   0.01853   0.01954   0.02316   0.02373
 Alpha virt. eigenvalues --    0.02441   0.02603   0.02905   0.03108   0.03383
 Alpha virt. eigenvalues --    0.06666   0.07391   0.07628   0.07786   0.08016
 Alpha virt. eigenvalues --    0.08112   0.08347   0.08399   0.08510   0.08710
 Alpha virt. eigenvalues --    0.09088   0.09243   0.10363   0.10932   0.11419
 Alpha virt. eigenvalues --    0.11878   0.32287   0.33115   0.33509   0.33562
 Alpha virt. eigenvalues --    0.33795   0.33801   0.34007   0.34063   0.34361
 Alpha virt. eigenvalues --    0.34376   0.34632   0.34791   0.34953   0.34956
 Alpha virt. eigenvalues --    0.35230   0.35363   0.35560   0.35760   0.35900
 Alpha virt. eigenvalues --    0.37241   0.41473   0.41638   0.42190   0.42534
 Alpha virt. eigenvalues --    0.42849   0.43243   0.43298   0.43962   0.44408
 Alpha virt. eigenvalues --    0.45437   0.45733   0.47823   1.99880   2.00869
 Alpha virt. eigenvalues --    2.01427   2.02354   4.41523   4.41597   4.42028
 Alpha virt. eigenvalues --    4.42177   4.42332   4.42953   4.43208   4.43401
 Alpha virt. eigenvalues --    4.43778   4.44069   4.44294   4.45578  96.18797
 Alpha virt. eigenvalues --   96.19948  96.20647  96.21599
          Condensed to atoms (all electrons):
               1          2          3          4
     1  Na  10.856362   0.164363  -0.013564  -0.012586
     2  Na   0.164363  10.853573  -0.041959  -0.012123
     3  Na  -0.013564  -0.041959  10.893544   0.169817
     4  Na  -0.012586  -0.012123   0.169817  10.888628
 Mulliken charges:
               1
     1  Na   0.005426
     2  Na   0.036147
     3  Na  -0.007837
     4  Na  -0.033736
 Sum of Mulliken charges =  -0.00000
 Mulliken charges with hydrogens summed into heavy atoms:
               1
     1  Na   0.005426
     2  Na   0.036147
     3  Na  -0.007837
     4  Na  -0.033736
 Electronic spatial extent (au):  <R**2>=           3513.2628
 Charge=             -0.0000 electrons
 Dipole moment (field-independent basis, Debye):
    X=              2.0079    Y=              0.2932    Z=             -0.1221  Tot=              2.0328
 Quadrupole moment (field-independent basis, Debye-Ang):
   XX=            -38.5074   YY=            -31.6082   ZZ=            -46.7674
   XY=             -3.3155   XZ=              1.8157   YZ=              0.6241
 Traceless Quadrupole moment (field-independent basis, Debye-Ang):
   XX=              0.4536   YY=              7.3528   ZZ=             -7.8064
   XY=             -3.3155   XZ=              1.8157   YZ=              0.6241
 Octapole moment (field-independent basis, Debye-Ang**2):
  XXX=            -50.7397  YYY=             11.6922  ZZZ=             -0.1290  XYY=             64.5012
  XXY=             14.1165  XXZ=            -23.2414  XZZ=              4.4109  YZZ=             -0.7330
  YYZ=             -3.0980  XYZ=              7.9334
 Hexadecapole moment (field-independent basis, Debye-Ang**3):
 XXXX=          -4327.0483 YYYY=           -971.4576 ZZZZ=           -300.4450 XXXY=           -177.1682
 XXXZ=            119.4781 YYYX=             12.8283 YYYZ=             13.7512 ZZZX=              9.8014
 ZZZY=              3.1375 XXYY=           -815.3368 XXZZ=           -912.8402 YYZZ=           -233.9953
 XXYZ=             14.9506 YYXZ=            -10.1706 ZZXY=             -8.8649
 N-N= 5.772079908187D+01 E-N=-1.673928003220D+03  KE= 6.471751449749D+02
 No NMR shielding tensors so no spin-rotation constants.
 Leave Link  601 at Fri Oct  6 22:03:50 2023, MaxMem=  1610612736 cpu:               8.3 elap:               5.4
 (Enter /home/sekinelabo/g16/l701.exe)
 ... and contract with generalized density number  0.
 Compute integral first derivatives.
 Leave Link  701 at Fri Oct  6 22:03:54 2023, MaxMem=  1610612736 cpu:               6.6 elap:               4.1
 (Enter /home/sekinelabo/g16/l702.exe)
 L702 exits ... SP integral derivatives will be done elsewhere.
 Leave Link  702 at Fri Oct  6 22:03:55 2023, MaxMem=  1610612736 cpu:               0.7 elap:               0.5
 (Enter /home/sekinelabo/g16/l703.exe)
 Integral derivatives from FoFJK, PRISM(SPDF).
 Compute integral first derivatives, UseDBF=F ICtDFT=           0.
 Calling FoFJK, ICntrl=      2127 FMM=F ISym2X=0 I1Cent= 0 IOpClX= 0 NMat=1 NMatS=1 NMatT=0.
 FoFJK:  IHMeth= 1 ICntrl=    2127 DoSepK=F KAlg= 0 I1Cent=           0 FoldK=F
 IRaf=         0 NMat=       1 IRICut=       1 DoRegI=T DoRafI=F ISym2E= 0 IDoP0=0 IntGTp=1.
 FoFCou: FMM=F IPFlag=           0 FMFlag=      100000 FMFlg1=         800
         NFxFlg=           0 DoJE=F BraDBF=F KetDBF=F FulRan=T
         wScrn=  0.000000 ICntrl=      2127 IOpCl=  0 I1Cent=           0 NGrid=           0
         NMat0=    1 NMatS0=      1 NMatT0=    0 NMatD0=    1 NMtDS0=    0 NMtDT0=    0
 Symmetry not used in FoFCou.
 Leave Link  703 at Fri Oct  6 22:04:02 2023, MaxMem=  1610612736 cpu:              12.3 elap:               7.8
 (Enter /home/sekinelabo/g16/l716.exe)
 Dipole        = 7.89963834D-01 1.15334186D-01-4.80527514D-02
 ***** Axes restored to original set *****
 -------------------------------------------------------------------
 Center     Atomic                   Forces (Hartrees/Bohr)
 Number     Number              X              Y              Z
 -------------------------------------------------------------------
      1       11          -0.005619385    0.000018221    0.002882448
      2       11           0.005772517    0.000018433   -0.001589130
      3       11          -0.000315519   -0.002992352    0.004169689
      4       11           0.000162387    0.002955698   -0.005463007
 -------------------------------------------------------------------
 Cartesian Forces:  Max     0.005772517 RMS     0.003425164
 Z-matrix is all fixed cartesians, so copy forces.
 Force constants in Cartesian coordinates: 
                1             2             3             4             5 
      1  0.100000D+01
      2  0.000000D+00  0.100000D+01
      3  0.000000D+00  0.000000D+00  0.100000D+01
      4  0.000000D+00  0.000000D+00  0.000000D+00  0.100000D+01
      5  0.000000D+00  0.000000D+00  0.000000D+00  0.000000D+00  0.100000D+01
      6  0.000000D+00  0.000000D+00  0.000000D+00  0.000000D+00  0.000000D+00
      7  0.000000D+00  0.000000D+00  0.000000D+00  0.000000D+00  0.000000D+00
      8  0.000000D+00  0.000000D+00  0.000000D+00  0.000000D+00  0.000000D+00
      9  0.000000D+00  0.000000D+00  0.000000D+00  0.000000D+00  0.000000D+00
     10  0.000000D+00  0.000000D+00  0.000000D+00  0.000000D+00  0.000000D+00
     11  0.000000D+00  0.000000D+00  0.000000D+00  0.000000D+00  0.000000D+00
     12  0.000000D+00  0.000000D+00  0.000000D+00  0.000000D+00  0.000000D+00
                6             7             8             9            10 
      6  0.100000D+01
      7  0.000000D+00  0.100000D+01
      8  0.000000D+00  0.000000D+00  0.100000D+01
      9  0.000000D+00  0.000000D+00  0.000000D+00  0.100000D+01
     10  0.000000D+00  0.000000D+00  0.000000D+00  0.000000D+00  0.100000D+01
     11  0.000000D+00  0.000000D+00  0.000000D+00  0.000000D+00  0.000000D+00
     12  0.000000D+00  0.000000D+00  0.000000D+00  0.000000D+00  0.000000D+00
               11            12 
     11  0.100000D+01
     12  0.000000D+00  0.100000D+01
 Leave Link  716 at Fri Oct  6 22:04:03 2023, MaxMem=  1610612736 cpu:               0.7 elap:               0.6
 (Enter /home/sekinelabo/g16/l103.exe)

 GradGradGradGradGradGradGradGradGradGradGradGradGradGradGradGradGradGrad
 Berny optimization.
 Search for a local minimum.
 Step number   1 out of a maximum of    2
 All quantities printed in internal units (Hartrees-Bohrs-Radians)
 Second derivative matrix not updated -- first step.
 The second derivative matrix:
                          X1        Y1        Z1        X2        Y2
           X1           1.00000
           Y1          -0.00000   1.00000
           Z1           0.00000   0.00000   1.00000
           X2           0.00000   0.00000   0.00000   1.00000
           Y2           0.00000   0.00000   0.00000  -0.00000   1.00000
           Z2           0.00000   0.00000   0.00000   0.00000   0.00000
           X3           0.00000   0.00000   0.00000   0.00000   0.00000
           Y3           0.00000   0.00000   0.00000   0.00000   0.00000
           Z3           0.00000   0.00000   0.00000   0.00000   0.00000
           X4           0.00000   0.00000   0.00000   0.00000   0.00000
           Y4           0.00000   0.00000   0.00000   0.00000   0.00000
           Z4           0.00000   0.00000   0.00000   0.00000   0.00000
                          Z2        X3        Y3        Z3        X4
           Z2           1.00000
           X3           0.00000   1.00000
           Y3           0.00000  -0.00000   1.00000
           Z3           0.00000   0.00000   0.00000   1.00000
           X4           0.00000   0.00000   0.00000   0.00000   1.00000
           Y4           0.00000   0.00000   0.00000   0.00000  -0.00000
           Z4           0.00000   0.00000   0.00000   0.00000   0.00000
                          Y4        Z4
           Y4           1.00000
           Z4           0.00000   1.00000
 ITU=  0
     Eigenvalues ---    1.00000   1.00000   1.00000   1.00000   1.00000
     Eigenvalues ---    1.00000   1.00000   1.00000   1.00000   1.00000
     Eigenvalues ---    1.00000   1.00000
 Angle between quadratic step and forces=   0.00 degrees.
 Linear search not attempted -- first point.
 B after Tr=    -0.000000    0.000000   -0.000000
         Rot=    1.000000   -0.000000   -0.000000   -0.000000 Ang=   0.00 deg.
 Variable       Old X    -DE/DX   Delta X   Delta X   Delta X     New X
                                 (Linear)    (Quad)   (Total)
    X1       -0.00000  -0.00562   0.00000  -0.00562  -0.00562  -0.00562
    Y1       -0.00000   0.00002   0.00000   0.00002   0.00002   0.00002
    Z1        0.00000   0.00288   0.00000   0.00288   0.00288   0.00288
    X2       -9.56620   0.00577   0.00000   0.00577   0.00577  -9.56042
    Y2        0.00000   0.00002   0.00000   0.00002   0.00002   0.00002
    Z2        2.86038  -0.00159   0.00000  -0.00159  -0.00159   2.85879
    X3       -0.00000  -0.00032   0.00000  -0.00032  -0.00032  -0.00032
    Y3        0.00000  -0.00299   0.00000  -0.00299  -0.00299  -0.00299
    Z3       10.80139   0.00417   0.00000   0.00417   0.00417  10.80556
    X4       -0.19278   0.00016   0.00000   0.00016   0.00016  -0.19262
    Y4       -4.58955   0.00296   0.00000   0.00296   0.00296  -4.58660
    Z4       19.40036  -0.00546   0.00000  -0.00546  -0.00546  19.39490
         Item               Value     Threshold  Converged?
 Maximum Force            0.005773     0.000450     NO 
 RMS     Force            0.003425     0.000300     NO 
 Maximum Displacement     0.005772     0.001800     NO 
 RMS     Displacement     0.003425     0.001200     NO 
 Predicted change in Energy=-7.039048D-05
 GradGradGradGradGradGradGradGradGradGradGradGradGradGradGradGradGradGrad

 Leave Link  103 at Fri Oct  6 22:04:04 2023, MaxMem=  1610612736 cpu:               0.7 elap:               0.5
 (Enter /home/sekinelabo/g16/l9999.exe)
 1\1\GINC-SEKINELABO-XA7R-R37\Force\RB3LYP\6-311+G(d)\Na4\SEKINELABO\06
 -Oct-2023\0\\#p B3LYP/6-311+g(d) force\\\0,1\Na,0.,0.,0.\Na,-5.0622123
 912,0.,1.5136496031\Na,0.,0.,5.7158498375\Na,-0.1020167621,-2.42868646
 76,10.2662308384\\Version=ES64L-G16RevB.01\State=1-A\HF=-649.147523\RM
 SD=8.881e-09\RMSF=3.425e-03\Dipole=-0.3181193,0.1131825,-0.7250129\Qua
 drupole=3.8870578,-4.8828977,0.99584,0.1638942,-3.4558014,-2.8308424\P
 G=C01 [X(Na4)]\\@


 THE WORLD IS MADE UP OF THE WILLS, THE WON'TS, AND THE CANT'S:
 THE WILLS DO EVERYTHING,
 THE WON'TS DO NOTHING,
 THE CAN'TS CAN'T DO ANYTHING.

                               -- FROM WALT DISNEY'S "BLACK HOLE"
 Job cpu time:       0 days  0 hours  3 minutes 43.5 seconds.
 Elapsed time:       0 days  0 hours  2 minutes 20.4 seconds.
 File lengths (MBytes):  RWF=     10 Int=      0 D2E=      0 Chk=      2 Scr=      1
 Normal termination of Gaussian 16 at Fri Oct  6 22:04:04 2023.
 Initial command:
 /home/sekinelabo/g16/l1.exe "/home/sekinelabo/g16temp/Gau-709057.inp" -scrdir="/home/sekinelabo/g16temp/"
 Entering Link 1 = /home/sekinelabo/g16/l1.exe PID=    712773.
  
 Copyright (c) 1988-2017, Gaussian, Inc.  All Rights Reserved.
  
 This is part of the Gaussian(R) 16 program.  It is based on
 the Gaussian(R) 09 system (copyright 2009, Gaussian, Inc.),
 the Gaussian(R) 03 system (copyright 2003, Gaussian, Inc.),
 the Gaussian(R) 98 system (copyright 1998, Gaussian, Inc.),
 the Gaussian(R) 94 system (copyright 1995, Gaussian, Inc.),
 the Gaussian 92(TM) system (copyright 1992, Gaussian, Inc.),
 the Gaussian 90(TM) system (copyright 1990, Gaussian, Inc.),
 the Gaussian 88(TM) system (copyright 1988, Gaussian, Inc.),
 the Gaussian 86(TM) system (copyright 1986, Carnegie Mellon
 University), and the Gaussian 82(TM) system (copyright 1983,
 Carnegie Mellon University). Gaussian is a federally registered
 trademark of Gaussian, Inc.
  
 This software contains proprietary and confidential information,
 including trade secrets, belonging to Gaussian, Inc.
  
 This software is provided under written license and may be
 used, copied, transmitted, or stored only in accord with that
 written license.
  
 The following legend is applicable only to US Government
 contracts under FAR:
  
                    RESTRICTED RIGHTS LEGEND
  
 Use, reproduction and disclosure by the US Government is
 subject to restrictions as set forth in subparagraphs (a)
 and (c) of the Commercial Computer Software - Restricted
 Rights clause in FAR 52.227-19.
  
 Gaussian, Inc.
 340 Quinnipiac St., Bldg. 40, Wallingford CT 06492
  
  
 ---------------------------------------------------------------
 Warning -- This program may not be used in any manner that
 competes with the business of Gaussian, Inc. or will provide
 assistance to any competitor of Gaussian, Inc.  The licensee
 of this program is prohibited from giving any competitor of
 Gaussian, Inc. access to this program.  By using this program,
 the user acknowledges that Gaussian, Inc. is engaged in the
 business of creating and licensing software in the field of
 computational chemistry and represents and warrants to the
 licensee that it is not a competitor of Gaussian, Inc. and that
 it will not use this program in any manner prohibited above.
 ---------------------------------------------------------------
  

 Cite this work as:
 Gaussian 16, Revision B.01,
 M. J. Frisch, G. W. Trucks, H. B. Schlegel, G. E. Scuseria, 
 M. A. Robb, J. R. Cheeseman, G. Scalmani, V. Barone, 
 G. A. Petersson, H. Nakatsuji, X. Li, M. Caricato, A. V. Marenich, 
 J. Bloino, B. G. Janesko, R. Gomperts, B. Mennucci, H. P. Hratchian, 
 J. V. Ortiz, A. F. Izmaylov, J. L. Sonnenberg, D. Williams-Young, 
 F. Ding, F. Lipparini, F. Egidi, J. Goings, B. Peng, A. Petrone, 
 T. Henderson, D. Ranasinghe, V. G. Zakrzewski, J. Gao, N. Rega, 
 G. Zheng, W. Liang, M. Hada, M. Ehara, K. Toyota, R. Fukuda, 
 J. Hasegawa, M. Ishida, T. Nakajima, Y. Honda, O. Kitao, H. Nakai, 
 T. Vreven, K. Throssell, J. A. Montgomery, Jr., J. E. Peralta, 
 F. Ogliaro, M. J. Bearpark, J. J. Heyd, E. N. Brothers, K. N. Kudin, 
 V. N. Staroverov, T. A. Keith, R. Kobayashi, J. Normand, 
 K. Raghavachari, A. P. Rendell, J. C. Burant, S. S. Iyengar, 
 J. Tomasi, M. Cossi, J. M. Millam, M. Klene, C. Adamo, R. Cammi, 
 J. W. Ochterski, R. L. Martin, K. Morokuma, O. Farkas, 
 J. B. Foresman, and D. J. Fox, Gaussian, Inc., Wallingford CT, 2016.
 
 ******************************************
 Gaussian 16:  ES64L-G16RevB.01 20-Dec-2017
                 6-Oct-2023 
 ******************************************
 %NProcShared=16
 Will use up to   16 processors via shared memory.
 %mem=12GB
 %Chk=checkpoint.chk
 -------------------------
 #p B3LYP/6-311+g(d) force
 -------------------------
 1/10=7,30=1,38=1/1,3;
 2/12=2,17=6,18=5,40=1/2;
 3/5=4,6=6,7=11,11=2,25=1,30=1,71=1,74=-5/1,2,3;
 4//1;
 5/5=2,38=5/2;
 6/7=2,8=2,9=2,10=2,28=1/1;
 7/29=1/1,2,3,16;
 1/10=7,30=1/3;
 99//99;
 Leave Link    1 at Fri Oct  6 22:04:05 2023, MaxMem=  1610612736 cpu:               0.5 elap:               0.4
 (Enter /home/sekinelabo/g16/l101.exe)


 Symbolic Z-matrix:
 Charge =  0 Multiplicity = 1
 Na                    0.        0.        0. 
 Na                   -3.98015   0.        3.33837 
 Na                    0.        0.        4.21453 
 Na                   -2.40907  -2.88697   5.83108 
 
 ITRead=  0  0  0  0
 MicOpt= -1 -1 -1 -1
 NAtoms=      4 NQM=        4 NQMF=       0 NMMI=      0 NMMIF=      0
                NMic=       0 NMicF=      0.
                    Isotopes and Nuclear Properties:
 (Nuclear quadrupole moments (NQMom) in fm**2, nuclear magnetic moments (NMagM)
  in nuclear magnetons)

  Atom         1           2           3           4
 IAtWgt=          23          23          23          23
 AtmWgt=  22.9897697  22.9897697  22.9897697  22.9897697
 NucSpn=           3           3           3           3
 AtZEff=  -0.0000000  -0.0000000  -0.0000000  -0.0000000
 NQMom=   10.4000000  10.4000000  10.4000000  10.4000000
 NMagM=    2.2175200   2.2175200   2.2175200   2.2175200
 AtZNuc=  11.0000000  11.0000000  11.0000000  11.0000000
 Leave Link  101 at Fri Oct  6 22:04:06 2023, MaxMem=  1610612736 cpu:               2.0 elap:               1.3
 (Enter /home/sekinelabo/g16/l103.exe)

 GradGradGradGradGradGradGradGradGradGradGradGradGradGradGradGradGradGrad
 Berny optimization.
 Initialization pass.
 Trust Radius=3.00D-01 FncErr=1.00D-07 GrdErr=1.00D-07 EigMax=2.50D+02 EigMin=1.00D-04
 Number of steps in this run=      2 maximum allowed number of steps=      2.
 GradGradGradGradGradGradGradGradGradGradGradGradGradGradGradGradGradGrad

 Leave Link  103 at Fri Oct  6 22:04:06 2023, MaxMem=  1610612736 cpu:               0.6 elap:               0.4
 (Enter /home/sekinelabo/g16/l202.exe)
                          Input orientation:                          
 ---------------------------------------------------------------------
 Center     Atomic      Atomic             Coordinates (Angstroms)
 Number     Number       Type             X           Y           Z
 ---------------------------------------------------------------------
      1         11           0        0.000000    0.000000    0.000000
      2         11           0       -3.980149    0.000000    3.338373
      3         11           0        0.000000    0.000000    4.214532
      4         11           0       -2.409067   -2.886969    5.831078
 ---------------------------------------------------------------------
                    Distance matrix (angstroms):
                    1          2          3          4
     1  Na   0.000000
     2  Na   5.194836   0.000000
     3  Na   4.214532   4.075444   0.000000
     4  Na   6.938275   4.125102   4.092850   0.000000
 Stoichiometry    Na4
 Framework group  C1[X(Na4)]
 Deg. of freedom     6
 Full point group                 C1      NOp   1
 Largest Abelian subgroup         C1      NOp   1
 Largest concise Abelian subgroup C1      NOp   1
                         Standard orientation:                         
 ---------------------------------------------------------------------
 Center     Atomic      Atomic             Coordinates (Angstroms)
 Number     Number       Type             X           Y           Z
 ---------------------------------------------------------------------
      1         11           0        3.703967   -0.030493   -0.740052
      2         11           0       -0.763607    2.319133    0.487285
      3         11           0        0.258550   -1.572628    1.134301
      4         11           0       -3.198910   -0.716011   -0.881534
 ---------------------------------------------------------------------
 Rotational constants (GHZ):           1.9602967           0.8007946           0.6668019
 Leave Link  202 at Fri Oct  6 22:04:07 2023, MaxMem=  1610612736 cpu:               1.1 elap:               0.8
 (Enter /home/sekinelabo/g16/l301.exe)
 Standard basis: 6-311+G(d) (5D, 7F)
 Ernie: Thresh=  0.10000D-02 Tol=  0.10000D-05 Strict=F.
 There are   124 symmetry adapted cartesian basis functions of A   symmetry.
 There are   120 symmetry adapted basis functions of A   symmetry.
   120 basis functions,   200 primitive gaussians,   124 cartesian basis functions
    22 alpha electrons       22 beta electrons
       nuclear repulsion energy        83.6250408690 Hartrees.
 IExCor=  402 DFT=T Ex+Corr=B3LYP ExCW=0 ScaHFX=  0.200000
 ScaDFX=  0.800000  0.720000  1.000000  0.810000 ScalE2=  1.000000  1.000000
 IRadAn=      5 IRanWt=     -1 IRanGd=            0 ICorTp=0 IEmpDi=  4
 NAtoms=    4 NActive=    4 NUniq=    4 SFac= 1.00D+00 NAtFMM=   60 NAOKFM=F Big=F
 Integral buffers will be    131072 words long.
 Raffenetti 2 integral format.
 Two-electron integral symmetry is turned on.
 Leave Link  301 at Fri Oct  6 22:04:08 2023, MaxMem=  1610612736 cpu:               0.7 elap:               0.5
 (Enter /home/sekinelabo/g16/l302.exe)
 NPDir=0 NMtPBC=     1 NCelOv=     1 NCel=       1 NClECP=     1 NCelD=      1
         NCelK=      1 NCelE2=     1 NClLst=     1 CellRange=     0.0.
 One-electron integrals computed using PRISM.
 One-electron integral symmetry used in STVInt
 NBasis=   120 RedAO= T EigKep=  2.61D-04  NBF=   120
 NBsUse=   120 1.00D-06 EigRej= -1.00D+00 NBFU=   120
 Precomputing XC quadrature grid using
 IXCGrd= 4 IRadAn=           5 IRanWt=          -1 IRanGd=           0 AccXCQ= 0.00D+00.
 Generated NRdTot=       0 NPtTot=           0 NUsed=           0 NTot=          32
 NSgBfM=   118   118   118   118   118 MxSgAt=     4 MxSgA2=     4.
 Leave Link  302 at Fri Oct  6 22:04:21 2023, MaxMem=  1610612736 cpu:              21.9 elap:              13.6
 (Enter /home/sekinelabo/g16/l303.exe)
 DipDrv:  MaxL=1.
 Leave Link  303 at Fri Oct  6 22:04:23 2023, MaxMem=  1610612736 cpu:               2.9 elap:               1.7
 (Enter /home/sekinelabo/g16/l401.exe)
 ExpMin= 7.60D-03 ExpMax= 3.62D+04 ExpMxC= 1.21D+03 IAcc=3 IRadAn=         5 AccDes= 0.00D+00
 Harris functional with IExCor=  402 and IRadAn=       5 diagonalized for initial guess.
 HarFok:  IExCor=  402 AccDes= 0.00D+00 IRadAn=         5 IDoV= 1 UseB2=F ITyADJ=14
 ICtDFT=  3500011 ScaDFX=  1.000000  1.000000  1.000000  1.000000
 FoFCou: FMM=F IPFlag=           0 FMFlag=      100000 FMFlg1=           0
         NFxFlg=           0 DoJE=T BraDBF=F KetDBF=T FulRan=T
         wScrn=  0.000000 ICntrl=       500 IOpCl=  0 I1Cent=   200000004 NGrid=           0
         NMat0=    1 NMatS0=      1 NMatT0=    0 NMatD0=    1 NMtDS0=    0 NMtDT0=    0
 Petite list used in FoFCou.
 Harris En= -649.056916034981    
 JPrj=0 DoOrth=F DoCkMO=F.
 Leave Link  401 at Fri Oct  6 22:04:32 2023, MaxMem=  1610612736 cpu:              14.4 elap:               9.0
 (Enter /home/sekinelabo/g16/l502.exe)
 Keep R1 ints in memory in canonical form, NReq=41581754.
 FoFCou: FMM=F IPFlag=           0 FMFlag=           0 FMFlg1=           0
         NFxFlg=           0 DoJE=F BraDBF=F KetDBF=F FulRan=T
         wScrn=  0.000000 ICntrl=       600 IOpCl=  0 I1Cent=           0 NGrid=           0
         NMat0=    1 NMatS0=   7260 NMatT0=    0 NMatD0=    1 NMtDS0=    0 NMtDT0=    0
 Symmetry not used in FoFCou.
 Two-electron integral symmetry not used.
 Closed shell SCF:
 Using DIIS extrapolation, IDIIS=  1040.
[...]
 ErrMax= 8.14D-04  0.00D+00 EMaxC= 1.00D-01 BMatC= 5.61D-05 BMatP= 1.31D-04
 IDIUse=3 WtCom= 9.92D-01 WtEn= 8.14D-03
 Coeff-Com: -0.518D-02 0.636D-02 0.284D+00-0.102D+00 0.817D+00
 Coeff-En:   0.000D+00 0.000D+00 0.365D+00 0.000D+00 0.635D+00
 Coeff:     -0.514D-02 0.630D-02 0.284D+00-0.101D+00 0.816D+00
 Gap=     0.037 Goal=   None    Shift=    0.000
 RMSDP=3.20D-04 MaxDP=1.76D-02 DE=-5.49D-03 OVMax= 2.95D-02

 Cycle   6  Pass 1  IDiag  1:
 E= -649.183726290392     Delta-E=       -0.000387490833 Rises=F Damp=F
 DIIS: error= 1.82D-05 at cycle   6 NSaved=   6.
 NSaved= 6 IEnMin= 6 EnMin= -649.183726290392     IErMin= 6 ErrMin= 1.82D-05
 ErrMax= 1.82D-05  0.00D+00 EMaxC= 1.00D-01 BMatC= 9.62D-08 BMatP= 5.61D-05
 IDIUse=1 WtCom= 1.00D+00 WtEn= 0.00D+00
 Coeff-Com: -0.317D-02 0.388D-02 0.618D-01-0.340D-01 0.232D+00 0.740D+00
 Coeff:     -0.317D-02 0.388D-02 0.618D-01-0.340D-01 0.232D+00 0.740D+00
 Gap=     0.037 Goal=   None    Shift=    0.000
 RMSDP=8.13D-06 MaxDP=3.92D-04 DE=-3.87D-04 OVMax= 4.26D-04

 Cycle   7  Pass 1  IDiag  1:
 E= -649.183726458125     Delta-E=       -0.000000167733 Rises=F Damp=F
 DIIS: error= 5.62D-06 at cycle   7 NSaved=   7.
 NSaved= 7 IEnMin= 7 EnMin= -649.183726458125     IErMin= 7 ErrMin= 5.62D-06
 ErrMax= 5.62D-06  0.00D+00 EMaxC= 1.00D-01 BMatC= 8.38D-09 BMatP= 9.62D-08
 IDIUse=1 WtCom= 1.00D+00 WtEn= 0.00D+00
 Coeff-Com: -0.710D-03 0.869D-03-0.785D-02-0.102D-02-0.578D-02 0.208D+00
 Coeff-Com:  0.807D+00
 Coeff:     -0.710D-03 0.869D-03-0.785D-02-0.102D-02-0.578D-02 0.208D+00
 Coeff:      0.807D+00
 Gap=     0.037 Goal=   None    Shift=    0.000
 RMSDP=3.28D-06 MaxDP=8.58D-05 DE=-1.68D-07 OVMax= 2.19D-04

 Cycle   8  Pass 1  IDiag  1:
 E= -649.183726476684     Delta-E=       -0.000000018559 Rises=F Damp=F
 DIIS: error= 1.09D-06 at cycle   8 NSaved=   8.
 NSaved= 8 IEnMin= 8 EnMin= -649.183726476684     IErMin= 8 ErrMin= 1.09D-06
 ErrMax= 1.09D-06  0.00D+00 EMaxC= 1.00D-01 BMatC= 2.25D-10 BMatP= 8.38D-09
 IDIUse=1 WtCom= 1.00D+00 WtEn= 0.00D+00
 Coeff-Com:  0.343D-03-0.454D-03-0.332D-02 0.234D-02-0.141D-01-0.462D-01
 Coeff-Com: -0.958D-02 0.107D+01
 Coeff:      0.343D-03-0.454D-03-0.332D-02 0.234D-02-0.141D-01-0.462D-01
 Coeff:     -0.958D-02 0.107D+01
 Gap=     0.037 Goal=   None    Shift=    0.000
 RMSDP=1.44D-06 MaxDP=3.15D-05 DE=-1.86D-08 OVMax= 1.03D-04

 Cycle   9  Pass 1  IDiag  1:
 E= -649.183726478428     Delta-E=       -0.000000001744 Rises=F Damp=F
 DIIS: error= 8.29D-07 at cycle   9 NSaved=   9.
 NSaved= 9 IEnMin= 9 EnMin= -649.183726478428     IErMin= 9 ErrMin= 8.29D-07
 ErrMax= 8.29D-07  0.00D+00 EMaxC= 1.00D-01 BMatC= 5.14D-11 BMatP= 2.25D-10
 IDIUse=1 WtCom= 1.00D+00 WtEn= 0.00D+00
 Coeff-Com:  0.124D-03-0.162D-03-0.757D-03 0.895D-03-0.417D-02-0.177D-01
 Coeff-Com: -0.353D-01 0.304D+00 0.753D+00
 Coeff:      0.124D-03-0.162D-03-0.757D-03 0.895D-03-0.417D-02-0.177D-01
 Coeff:     -0.353D-01 0.304D+00 0.753D+00
 Gap=     0.037 Goal=   None    Shift=    0.000
 RMSDP=4.69D-07 MaxDP=1.94D-05 DE=-1.74D-09 OVMax= 2.48D-05

 Cycle  10  Pass 1  IDiag  1:
 E= -649.183726478757     Delta-E=       -0.000000000329 Rises=F Damp=F
 DIIS: error= 2.05D-07 at cycle  10 NSaved=  10.
 NSaved=10 IEnMin=10 EnMin= -649.183726478757     IErMin=10 ErrMin= 2.05D-07
 ErrMax= 2.05D-07  0.00D+00 EMaxC= 1.00D-01 BMatC= 5.76D-12 BMatP= 5.14D-11
 IDIUse=1 WtCom= 1.00D+00 WtEn= 0.00D+00
 Coeff-Com: -0.127D-05 0.224D-05 0.563D-04 0.321D-04 0.186D-03-0.172D-02
 Coeff-Com: -0.534D-02-0.222D-01 0.287D+00 0.742D+00
 Coeff:     -0.127D-05 0.224D-05 0.563D-04 0.321D-04 0.186D-03-0.172D-02
 Coeff:     -0.534D-02-0.222D-01 0.287D+00 0.742D+00
 Gap=     0.037 Goal=   None    Shift=    0.000
 RMSDP=1.36D-07 MaxDP=5.68D-06 DE=-3.29D-10 OVMax= 9.95D-06

 Cycle  11  Pass 1  IDiag  1:
 E= -649.183726478791     Delta-E=       -0.000000000034 Rises=F Damp=F
 DIIS: error= 5.10D-08 at cycle  11 NSaved=  11.
 NSaved=11 IEnMin=11 EnMin= -649.183726478791     IErMin=11 ErrMin= 5.10D-08
 ErrMax= 5.10D-08  0.00D+00 EMaxC= 1.00D-01 BMatC= 3.46D-13 BMatP= 5.76D-12
 IDIUse=1 WtCom= 1.00D+00 WtEn= 0.00D+00
 Coeff-Com: -0.785D-05 0.106D-04 0.449D-04-0.281D-04 0.237D-03 0.452D-03
 Coeff-Com:  0.132D-04-0.233D-01 0.370D-01 0.254D+00 0.731D+00
 Coeff:     -0.785D-05 0.106D-04 0.449D-04-0.281D-04 0.237D-03 0.452D-03
 Coeff:      0.132D-04-0.233D-01 0.370D-01 0.254D+00 0.731D+00
 Gap=     0.037 Goal=   None    Shift=    0.000
 RMSDP=2.48D-08 MaxDP=9.75D-07 DE=-3.38D-11 OVMax= 1.62D-06

 Cycle  12  Pass 1  IDiag  1:
 E= -649.183726478793     Delta-E=       -0.000000000002 Rises=F Damp=F
 DIIS: error= 1.73D-08 at cycle  12 NSaved=  12.
 NSaved=12 IEnMin=12 EnMin= -649.183726478793     IErMin=12 ErrMin= 1.73D-08
 ErrMax= 1.73D-08  0.00D+00 EMaxC= 1.00D-01 BMatC= 2.22D-14 BMatP= 3.46D-13
 IDIUse=1 WtCom= 1.00D+00 WtEn= 0.00D+00
 Coeff-Com: -0.199D-05 0.267D-05 0.127D-04-0.159D-04 0.791D-04 0.205D-03
 Coeff-Com: -0.236D-03-0.351D-02-0.191D-01 0.736D-02 0.114D+00 0.901D+00
 Coeff:     -0.199D-05 0.267D-05 0.127D-04-0.159D-04 0.791D-04 0.205D-03
 Coeff:     -0.236D-03-0.351D-02-0.191D-01 0.736D-02 0.114D+00 0.901D+00
 Gap=     0.037 Goal=   None    Shift=    0.000
 RMSDP=1.06D-08 MaxDP=3.32D-07 DE=-2.39D-12 OVMax= 8.52D-07

 Cycle  13  Pass 1  IDiag  1:
 E= -649.183726478793     Delta-E=        0.000000000000 Rises=F Damp=F
 DIIS: error= 3.09D-09 at cycle  13 NSaved=  13.
 NSaved=13 IEnMin=12 EnMin= -649.183726478793     IErMin=13 ErrMin= 3.09D-09
 ErrMax= 3.09D-09  0.00D+00 EMaxC= 1.00D-01 BMatC= 1.49D-15 BMatP= 2.22D-14
 IDIUse=1 WtCom= 1.00D+00 WtEn= 0.00D+00
 Coeff-Com: -0.842D-08 0.593D-08 0.112D-06-0.279D-05 0.594D-05 0.172D-05
 Coeff-Com: -0.179D-04 0.750D-03-0.691D-02-0.141D-01-0.210D-01 0.250D+00
 Coeff-Com:  0.791D+00
 Coeff:     -0.842D-08 0.593D-08 0.112D-06-0.279D-05 0.594D-05 0.172D-05
 Coeff:     -0.179D-04 0.750D-03-0.691D-02-0.141D-01-0.210D-01 0.250D+00
 Coeff:      0.791D+00
 Gap=     0.037 Goal=   None    Shift=    0.000
 RMSDP=2.79D-09 MaxDP=9.22D-08 DE= 3.41D-13 OVMax= 2.53D-07

 SCF Done:  E(RB3LYP) =  -649.183726479     A.U. after   13 cycles
            NFock= 13  Conv=0.28D-08     -V/T= 2.0030
 KE= 6.472490314231D+02 PE=-1.717950823757D+03 EE= 3.421029399387D+02
 Leave Link  502 at Sat Oct  7 02:07:09 2023, MaxMem=  1610612736 cpu:             140.8 elap:              81.6
 (Enter /home/sekinelabo/g16/l601.exe)
 Copying SCF densities to generalized density rwf, IOpCl= 0 IROHF=0.

 **********************************************************************

            Population analysis using the SCF Density.

 **********************************************************************

 Orbital symmetries:
       Occupied  (A) (A) (A) (A) (A) (A) (A) (A) (A) (A) (A) (A)
                 (A) (A) (A) (A) (A) (A) (A) (A) (A) (A)
       Virtual   (A) (A) (A) (A) (A) (A) (A) (A) (A) (A) (A) (A)
                 (A) (A) (A) (A) (A) (A) (A) (A) (A) (A) (A) (A)
                 (A) (A) (A) (A) (A) (A) (A) (A) (A) (A) (A) (A)
                 (A) (A) (A) (A) (A) (A) (A) (A) (A) (A) (A) (A)
                 (A) (A) (A) (A) (A) (A) (A) (A) (A) (A) (A) (A)
                 (A) (A) (A) (A) (A) (A) (A) (A) (A) (A) (A) (A)
                 (A) (A) (A) (A) (A) (A) (A) (A) (A) (A) (A) (A)
                 (A) (A) (A) (A) (A) (A) (A) (A) (A) (A) (A) (A)
                 (A) (A)
 The electronic state is 1-A.
 Alpha  occ. eigenvalues --  -38.46211 -38.45084 -38.44749 -38.43846  -2.21882
 Alpha  occ. eigenvalues --   -2.20774  -2.20505  -2.19618  -1.15569  -1.15547
 Alpha  occ. eigenvalues --   -1.15509  -1.14457  -1.14454  -1.14398  -1.14177
 Alpha  occ. eigenvalues --   -1.14159  -1.14149  -1.13282  -1.13280  -1.13259
 Alpha  occ. eigenvalues --   -0.13565  -0.11285
 Alpha virt. eigenvalues --   -0.07559  -0.05554  -0.02800  -0.02711  -0.02018
 Alpha virt. eigenvalues --   -0.01450  -0.01059  -0.00395  -0.00009   0.00200
 Alpha virt. eigenvalues --    0.00469   0.00701   0.00803   0.00967   0.01302
 Alpha virt. eigenvalues --    0.01405   0.01630   0.01731   0.01827   0.02117
 Alpha virt. eigenvalues --    0.02293   0.02402   0.02522   0.02621   0.02690
 Alpha virt. eigenvalues --    0.02899   0.02994   0.03324   0.03556   0.04742
 Alpha virt. eigenvalues --    0.06571   0.06959   0.07356   0.07725   0.08143
 Alpha virt. eigenvalues --    0.08315   0.08764   0.08801   0.09576   0.09681
 Alpha virt. eigenvalues --    0.09983   0.10334   0.11245   0.11539   0.12357
 Alpha virt. eigenvalues --    0.14985   0.30083   0.30170   0.31304   0.32228
 Alpha virt. eigenvalues --    0.32990   0.33032   0.33683   0.34108   0.35032
 Alpha virt. eigenvalues --    0.35297   0.35542   0.36182   0.36899   0.36984
 Alpha virt. eigenvalues --    0.37681   0.37915   0.39376   0.42708   0.43100
 Alpha virt. eigenvalues --    0.43546   0.43909   0.44226   0.44523   0.44956
 Alpha virt. eigenvalues --    0.46451   0.46627   0.46861   0.47655   0.49076
 Alpha virt. eigenvalues --    0.49127   0.49767   0.64956   2.00818   2.03012
 Alpha virt. eigenvalues --    2.04439   2.12921   4.41685   4.42643   4.43114
 Alpha virt. eigenvalues --    4.43842   4.44174   4.44243   4.44665   4.45404
 Alpha virt. eigenvalues --    4.45683   4.46111   4.47617   4.57015  96.19945
 Alpha virt. eigenvalues --   96.22286  96.24052  96.34684
          Condensed to atoms (all electrons):
               1          2          3          4
     1  Na  10.712965   0.357604  -0.067977  -0.058987
     2  Na   0.357604  10.734378   0.009031  -0.060546
     3  Na  -0.067977   0.009031  10.812804   0.247215
     4  Na  -0.058987  -0.060546   0.247215  10.887174
 Mulliken charges:
               1
     1  Na   0.056396
     2  Na  -0.040468
     3  Na  -0.001073
     4  Na  -0.014855
 Sum of Mulliken charges =  -0.00000
 Mulliken charges with hydrogens summed into heavy atoms:
               1
     1  Na   0.056396
     2  Na  -0.040468
     3  Na  -0.001073
     4  Na  -0.014855
 Electronic spatial extent (au):  <R**2>=           1743.1851
 Charge=             -0.0000 electrons
 Dipole moment (field-independent basis, Debye):
    X=             -0.2746    Y=              0.2646    Z=              0.0659  Tot=              0.3870
 Quadrupole moment (field-independent basis, Debye-Ang):
   XX=            -44.3348   YY=            -28.9471   ZZ=            -44.8169
   XY=             -9.2771   XZ=              0.6476   YZ=             -0.7659
 Traceless Quadrupole moment (field-independent basis, Debye-Ang):
   XX=             -4.9686   YY=             10.4192   ZZ=             -5.4506
   XY=             -9.2771   XZ=              0.6476   YZ=             -0.7659
 Octapole moment (field-independent basis, Debye-Ang**2):
  XXX=            -12.3033  YYY=              7.6531  ZZZ=              0.8183  XYY=             -0.1297
  XXY=             -1.3793  XXZ=            -12.9547  XZZ=             -4.3525  YZZ=             -0.3803
  YYZ=              5.5467  XYZ=              5.9730
 Hexadecapole moment (field-independent basis, Debye-Ang**3):
 XXXX=          -2052.3139 YYYY=           -709.0254 ZZZZ=           -222.4013 XXXY=           -219.0782
 XXXZ=             16.7203 YYYX=            -16.5785 YYYZ=             -4.0482 ZZZX=              3.7495
 ZZZY=             -4.7220 XXYY=           -496.7581 XXZZ=           -418.6375 YYZZ=           -169.5024
 XXYZ=             -2.1263 YYXZ=             -2.2463 ZZXY=            -15.3308
 N-N= 7.941512591642D+01 E-N=-1.717950823734D+03  KE= 6.472490314231D+02
 No NMR shielding tensors so no spin-rotation constants.
 Leave Link  601 at Sat Oct  7 02:07:14 2023, MaxMem=  1610612736 cpu:               8.4 elap:               4.8
 (Enter /home/sekinelabo/g16/l701.exe)
 ... and contract with generalized density number  0.
 Compute integral first derivatives.
 Leave Link  701 at Sat Oct  7 02:07:18 2023, MaxMem=  1610612736 cpu:               6.9 elap:               4.0
 (Enter /home/sekinelabo/g16/l702.exe)
 L702 exits ... SP integral derivatives will be done elsewhere.
 Leave Link  702 at Sat Oct  7 02:07:19 2023, MaxMem=  1610612736 cpu:               0.6 elap:               0.4
 (Enter /home/sekinelabo/g16/l703.exe)
 Integral derivatives from FoFJK, PRISM(SPDF).
 Compute integral first derivatives, UseDBF=F ICtDFT=           0.
 Calling FoFJK, ICntrl=      2127 FMM=F ISym2X=0 I1Cent= 0 IOpClX= 0 NMat=1 NMatS=1 NMatT=0.
 FoFJK:  IHMeth= 1 ICntrl=    2127 DoSepK=F KAlg= 0 I1Cent=           0 FoldK=F
 IRaf=         0 NMat=       1 IRICut=       1 DoRegI=T DoRafI=F ISym2E= 0 IDoP0=0 IntGTp=1.
 FoFCou: FMM=F IPFlag=           0 FMFlag=      100000 FMFlg1=         800
         NFxFlg=           0 DoJE=F BraDBF=F KetDBF=F FulRan=T
         wScrn=  0.000000 ICntrl=      2127 IOpCl=  0 I1Cent=           0 NGrid=           0
         NMat0=    1 NMatS0=      1 NMatT0=    0 NMatD0=    1 NMtDS0=    0 NMtDT0=    0
 Symmetry not used in FoFCou.
 Leave Link  703 at Sat Oct  7 02:07:26 2023, MaxMem=  1610612736 cpu:              13.4 elap:               7.7
 (Enter /home/sekinelabo/g16/l716.exe)
 Dipole        =-1.08038938D-01 1.04083696D-01 2.59408125D-02
 ***** Axes restored to original set *****
 -------------------------------------------------------------------
 Center     Atomic                   Forces (Hartrees/Bohr)
 Number     Number              X              Y              Z
 -------------------------------------------------------------------
      1       11          -0.002670854    0.000136238    0.000454348
      2       11           0.004017341    0.000017883    0.000227574
      3       11          -0.008300204   -0.002692381    0.000328355
      4       11           0.006953717    0.002538260   -0.001010277
 -------------------------------------------------------------------
 Cartesian Forces:  Max     0.008300204 RMS     0.003601126
 Z-matrix is all fixed cartesians, so copy forces.
 Force constants in Cartesian coordinates: 
                1             2             3             4             5 
      1  0.237090D-01
      2  0.000000D+00  0.000000D+00
      3 -0.787693D-02  0.000000D+00  0.261698D-02
      4 -0.237090D-01  0.000000D+00  0.787693D-02  0.237090D-01
      5  0.000000D+00  0.000000D+00  0.000000D+00  0.000000D+00  0.000000D+00
      6  0.787693D-02  0.000000D+00 -0.261698D-02 -0.787693D-02  0.000000D+00
      7  0.000000D+00  0.000000D+00  0.000000D+00  0.000000D+00  0.000000D+00
      8  0.000000D+00  0.000000D+00  0.000000D+00  0.000000D+00  0.000000D+00
      9  0.000000D+00  0.000000D+00  0.000000D+00  0.000000D+00  0.000000D+00
     10  0.000000D+00  0.000000D+00  0.000000D+00  0.000000D+00  0.000000D+00
     11  0.000000D+00  0.000000D+00  0.000000D+00  0.000000D+00  0.000000D+00
     12  0.000000D+00  0.000000D+00  0.000000D+00  0.000000D+00  0.000000D+00
                6             7             8             9            10 
      6  0.261698D-02
      7  0.000000D+00  0.100000D+01
      8  0.000000D+00  0.000000D+00  0.100000D+01
      9  0.000000D+00  0.000000D+00  0.000000D+00  0.100000D+01
     10  0.000000D+00  0.000000D+00  0.000000D+00  0.000000D+00  0.100000D+01
     11  0.000000D+00  0.000000D+00  0.000000D+00  0.000000D+00  0.000000D+00
     12  0.000000D+00  0.000000D+00  0.000000D+00  0.000000D+00  0.000000D+00
               11            12 
     11  0.100000D+01
     12  0.000000D+00  0.100000D+01
 Leave Link  716 at Sat Oct  7 02:07:27 2023, MaxMem=  1610612736 cpu:               0.8 elap:               0.5
 (Enter /home/sekinelabo/g16/l103.exe)

 GradGradGradGradGradGradGradGradGradGradGradGradGradGradGradGradGradGrad
 Berny optimization.
 Search for a local minimum.
 Step number   1 out of a maximum of    2
 All quantities printed in internal units (Hartrees-Bohrs-Radians)
 Second derivative matrix not updated -- first step.
 The second derivative matrix:
                          X1        Y1        Z1        X2        Y2
           X1           0.02371
           Y1          -0.00000  -0.00000
           Z1          -0.00788  -0.00000   0.00262
           X2          -0.02371   0.00000   0.00788   0.02371
           Y2           0.00000   0.00000  -0.00000  -0.00000  -0.00000
           Z2           0.00788  -0.00000  -0.00262  -0.00788  -0.00000
           X3           0.00000   0.00000   0.00000   0.00000   0.00000
           Y3           0.00000   0.00000   0.00000   0.00000   0.00000
           Z3           0.00000   0.00000   0.00000   0.00000   0.00000
           X4           0.00000   0.00000   0.00000   0.00000   0.00000
           Y4           0.00000   0.00000   0.00000   0.00000   0.00000
           Z4           0.00000   0.00000   0.00000   0.00000   0.00000
                          Z2        X3        Y3        Z3        X4
           Z2           0.00262
           X3           0.00000   1.00000
           Y3           0.00000  -0.00000   1.00000
           Z3           0.00000   0.00000   0.00000   1.00000
           X4           0.00000   0.00000   0.00000   0.00000   1.00000
           Y4           0.00000   0.00000   0.00000   0.00000  -0.00000
           Z4           0.00000   0.00000   0.00000   0.00000   0.00000
                          Y4        Z4
           Y4           1.00000
           Z4           0.00000   1.00000
 ITU=  0
     Eigenvalues ---    0.05265   0.07240   0.32919   0.50000   0.87037
     Eigenvalues ---    1.00000
 Angle between quadratic step and forces=  59.99 degrees.
 Linear search not attempted -- first point.
 B after Tr=     0.000000   -0.000000    0.000000
         Rot=    1.000000    0.000000    0.000000    0.000000 Ang=   0.00 deg.
 Variable       Old X    -DE/DX   Delta X   Delta X   Delta X     New X
                                 (Linear)    (Quad)   (Total)
    X1       -0.00000  -0.00267   0.00000  -0.05799  -0.05799  -0.05799
    Y1       -0.00000   0.00014   0.00000   0.00185   0.00185   0.00185
    Z1        0.00000   0.00045   0.00000   0.00665   0.00665   0.00665
    X2       -5.79506   0.00402   0.00000   0.06666   0.06666  -5.72840
    Y2       -0.00000   0.00002   0.00000  -0.00262  -0.00262  -0.00262
    Z2        1.92531   0.00023   0.00000  -0.00482  -0.00482   1.92049
    X3       -0.00000  -0.00830   0.00000  -0.01169  -0.01169  -0.01169
    Y3       -0.00000  -0.00269   0.00000  -0.00228  -0.00228  -0.00228
    Z3        9.73773   0.00033   0.00000   0.00089   0.00089   9.73862
    X4       -7.79991   0.00695   0.00000   0.00302   0.00302  -7.79688
    Y4       -2.86191   0.00254   0.00000   0.00306   0.00306  -2.85885
    Z4       11.45453  -0.00101   0.00000  -0.00271  -0.00271  11.45182
         Item               Value     Threshold  Converged?
 Maximum Force            0.008300     0.000450     NO 
 RMS     Force            0.003601     0.000300     NO 
 Maximum Displacement     0.066660     0.001800     NO 
 RMS     Displacement     0.025904     0.001200     NO 
 Predicted change in Energy=-2.799093D-04
 GradGradGradGradGradGradGradGradGradGradGradGradGradGradGradGradGradGrad

 Leave Link  103 at Sat Oct  7 02:07:29 2023, MaxMem=  1610612736 cpu:               3.6 elap:               2.1
 (Enter /home/sekinelabo/g16/l9999.exe)
 1\1\GINC-SEKINELABO-XA7R-R37\Force\RB3LYP\6-311+G(d)\Na4\SEKINELABO\07
 -Oct-2023\0\\#p B3LYP/6-311+g(d) force\\\0,1\Na,0.,0.,0.\Na,-3.0666112
 909,0.,1.0188316859\Na,0.,0.,5.1529850019\Na,-4.1275320332,-1.51445635
 41,6.0614746572\\Version=ES64L-G16RevB.01\State=1-A\HF=-649.1837265\RM
 SD=2.795e-09\RMSF=3.601e-03\Dipole=0.1289639,0.0606185,-0.0535954\Quad
 rupole=10.5906076,-3.7585245,-6.8320831,2.468941,-0.6404847,0.4212651\
 PG=C01 [X(Na4)]\\@


 SCIENCE AT ITS BEST PROVIDES US WITH BETTER QUESTIONS, 
 NOT ABSOLUTE ANSWERS

                                    -- NORMAN COUSINS, 1976
 Job cpu time:       0 days  0 hours  3 minutes 38.4 seconds.
 Elapsed time:       0 days  0 hours  2 minutes  8.9 seconds.
 File lengths (MBytes):  RWF=     10 Int=      0 D2E=      0 Chk=      2 Scr=      1
 Normal termination of Gaussian 16 at Sat Oct  7 02:07:30 2023.
