 Entering Gaussian System, Link 0=g16
 Initial command:
 /home/sekinelabo/g16/l1.exe "/home/sekinelabo/g16temp/Gau-1046292.inp" -scrdir="/home/sekinelabo/g16temp/"
 Entering Link 1 = /home/sekinelabo/g16/l1.exe PID=   1046315.
  
 Copyright (c) 1988-2017, Gaussian, Inc.  All Rights Reserved.
  
 This is part of the Gaussian(R) 16 program.  It is based on
 the Gaussian(R) 09 system (copyright 2009, Gaussian, Inc.),
 the Gaussian(R) 03 system (copyright 2003, Gaussian, Inc.),
 the Gaussian(R) 98 system (copyright 1998, Gaussian, Inc.),
 the Gaussian(R) 94 system (copyright 1995, Gaussian, Inc.),
 the Gaussian 92(TM) system (copyright 1992, Gaussian, Inc.),
 the Gaussian 90(TM) system (copyright 1990, Gaussian, Inc.),
 the Gaussian 88(TM) system (copyright 1988, Gaussian, Inc.),
 the Gaussian 86(TM) system (copyright 1986, Carnegie Mellon
 University), and the Gaussian 82(TM) system (copyright 1983,
 Carnegie Mellon University). Gaussian is a federally registered
 trademark of Gaussian, Inc.
  
 This software contains proprietary and confidential information,
 including trade secrets, belonging to Gaussian, Inc.
  
 This software is provided under written license and may be
 used, copied, transmitted, or stored only in accord with that
 written license.
  
 The following legend is applicable only to US Government
 contracts under FAR:
  
                    RESTRICTED RIGHTS LEGEND
  
 Use, reproduction and disclosure by the US Government is
 subject to restrictions as set forth in subparagraphs (a)
 and (c) of the Commercial Computer Software - Restricted
 Rights clause in FAR 52.227-19.
  
 Gaussian, Inc.
 340 Quinnipiac St., Bldg. 40, Wallingford CT 06492
  
  
 ---------------------------------------------------------------
 Warning -- This program may not be used in any manner that
 competes with the business of Gaussian, Inc. or will provide
 assistance to any competitor of Gaussian, Inc.  The licensee
 of this program is prohibited from giving any competitor of
 Gaussian, Inc. access to this program.  By using this program,
 the user acknowledges that Gaussian, Inc. is engaged in the
 business of creating and licensing software in the field of
 computational chemistry and represents and warrants to the
 licensee that it is not a competitor of Gaussian, Inc. and that
 it will not use this program in any manner prohibited above.
 ---------------------------------------------------------------
  

 Cite this work as:
 Gaussian 16, Revision B.01,
 M. J. Frisch, G. W. Trucks, H. B. Schlegel, G. E. Scuseria, 
 M. A. Robb, J. R. Cheeseman, G. Scalmani, V. Barone, 
 G. A. Petersson, H. Nakatsuji, X. Li, M. Caricato, A. V. Marenich, 
 J. Bloino, B. G. Janesko, R. Gomperts, B. Mennucci, H. P. Hratchian, 
 J. V. Ortiz, A. F. Izmaylov, J. L. Sonnenberg, D. Williams-Young, 
 F. Ding, F. Lipparini, F. Egidi, J. Goings, B. Peng, A. Petrone, 
 T. Henderson, D. Ranasinghe, V. G. Zakrzewski, J. Gao, N. Rega, 
 G. Zheng, W. Liang, M. Hada, M. Ehara, K. Toyota, R. Fukuda, 
 J. Hasegawa, M. Ishida, T. Nakajima, Y. Honda, O. Kitao, H. Nakai, 
 T. Vreven, K. Throssell, J. A. Montgomery, Jr., J. E. Peralta, 
 F. Ogliaro, M. J. Bearpark, J. J. Heyd, E. N. Brothers, K. N. Kudin, 
 V. N. Staroverov, T. A. Keith, R. Kobayashi, J. Normand, 
 K. Raghavachari, A. P. Rendell, J. C. Burant, S. S. Iyengar, 
 J. Tomasi, M. Cossi, J. M. Millam, M. Klene, C. Adamo, R. Cammi, 
 J. W. Ochterski, R. L. Martin, K. Morokuma, O. Farkas, 
 J. B. Foresman, and D. J. Fox, Gaussian, Inc., Wallingford CT, 2016.
 
 ******************************************
 Gaussian 16:  ES64L-G16RevB.01 20-Dec-2017
                23-Nov-2023 
 ******************************************
 %nprocshared=14
 Will use up to   14 processors via shared memory.
 -------------------------
 #P B3LYP/6-311+g(d) force
 -------------------------
 1/10=7,30=1,38=1/1,3;
 2/12=2,17=6,18=5,40=1/2;
 3/5=4,6=6,7=11,11=2,25=1,30=1,71=1,74=-5/1,2,3;
 4//1;
 5/5=2,38=5/2;
 6/7=2,8=2,9=2,10=2,28=1/1;
 7/29=1/1,2,3,16;
 1/10=7,30=1/3;
 99//99;
 Leave Link    1 at Thu Nov 23 12:30:20 2023, MaxMem=           0 cpu:               0.5 elap:               0.4
 (Enter /home/sekinelabo/g16/l101.exe)
 -----
 DPGEN
 -----
 Symbolic Z-matrix:
 Charge =  0 Multiplicity = 2
 Na                    12.5962   0.94073   1.08633 
 Na                    10.8602   3.19619   99.6555 
 Na                    8.88661   1.95481   1.95644 
 Na                    5.94209   0.085     3.86597 
 Na                    3.47586   1.83134   3.12694 
 Na                    0.7267    4.27423   0.93439 
 Na                    1.82135   5.86935   98.3421 
 
 ITRead=  0  0  0  0  0  0  0
 MicOpt= -1 -1 -1 -1 -1 -1 -1
 NAtoms=      7 NQM=        7 NQMF=       0 NMMI=      0 NMMIF=      0
                NMic=       0 NMicF=      0.
                    Isotopes and Nuclear Properties:
 (Nuclear quadrupole moments (NQMom) in fm**2, nuclear magnetic moments (NMagM)
  in nuclear magnetons)

  Atom         1           2           3           4           5           6           7
 IAtWgt=          23          23          23          23          23          23          23
 AtmWgt=  22.9897697  22.9897697  22.9897697  22.9897697  22.9897697  22.9897697  22.9897697
 NucSpn=           3           3           3           3           3           3           3
 AtZEff=  -0.0000000  -0.0000000  -0.0000000  -0.0000000  -0.0000000  -0.0000000  -0.0000000
 NQMom=   10.4000000  10.4000000  10.4000000  10.4000000  10.4000000  10.4000000  10.4000000
 NMagM=    2.2175200   2.2175200   2.2175200   2.2175200   2.2175200   2.2175200   2.2175200
 AtZNuc=  11.0000000  11.0000000  11.0000000  11.0000000  11.0000000  11.0000000  11.0000000
 Leave Link  101 at Thu Nov 23 12:30:23 2023, MaxMem=   104857600 cpu:               2.5 elap:               2.9
 (Enter /home/sekinelabo/g16/l103.exe)

 GradGradGradGradGradGradGradGradGradGradGradGradGradGradGradGradGradGrad
 Berny optimization.
 Initialization pass.
 Trust Radius=3.00D-01 FncErr=1.00D-07 GrdErr=1.00D-07 EigMax=2.50D+02 EigMin=1.00D-04
 Number of steps in this run=      2 maximum allowed number of steps=      2.
 GradGradGradGradGradGradGradGradGradGradGradGradGradGradGradGradGradGrad

 Leave Link  103 at Thu Nov 23 12:30:24 2023, MaxMem=   104857600 cpu:               0.5 elap:               0.5
 (Enter /home/sekinelabo/g16/l202.exe)
                          Input orientation:                          
 ---------------------------------------------------------------------
 Center     Atomic      Atomic             Coordinates (Angstroms)
 Number     Number       Type             X           Y           Z
 ---------------------------------------------------------------------
      1         11           0       12.596200    0.940730    1.086330
      2         11           0       10.860200    3.196190   99.655500
      3         11           0        8.886610    1.954810    1.956440
      4         11           0        5.942090    0.085000    3.865970
      5         11           0        3.475860    1.831340    3.126940
      6         11           0        0.726697    4.274230    0.934389
      7         11           0        1.821350    5.869350   98.342100
 ---------------------------------------------------------------------
                    Distance matrix (angstroms):
                    1          2          3          4          5
     1  Na   0.000000
     2  Na  98.610253   0.000000
     3  Na   3.942906  97.726877   0.000000
     4  Na   7.261945  95.966147   3.976518   0.000000
     5  Na   9.388178  96.820216   5.537285   3.110974   0.000000
     6  Na  12.329656  99.245694   8.544500   7.303707   4.281692
     7  Na  97.974861   9.516912  96.723508  94.742695  95.315107
                    6          7
     6  Na   0.000000
     7  Na  97.426920   0.000000
 Stoichiometry    Na7(2)
 Framework group  C1[X(Na7)]
 Deg. of freedom    15
 Full point group                 C1      NOp   1
 Largest Abelian subgroup         C1      NOp   1
 Largest concise Abelian subgroup C1      NOp   1
                         Standard orientation:                         
 ---------------------------------------------------------------------
 Center     Atomic      Atomic             Coordinates (Angstroms)
 Number     Number       Type             X           Y           Z
 ---------------------------------------------------------------------
      1         11           0       28.799184    6.292999   -0.704589
      2         11           0      -69.794262    4.698290    0.173679
      3         11           0       27.902423    2.453754   -0.754839
      4         11           0       26.045880    0.069602    1.830071
      5         11           0       26.737158   -2.754089    0.722341
      6         11           0       28.862291   -6.032200   -1.029996
      7         11           0      -68.552674   -4.728357   -0.236666
 ---------------------------------------------------------------------
 Rotational constants (GHZ):           0.1568903           0.0016392           0.0016237
 Leave Link  202 at Thu Nov 23 12:30:25 2023, MaxMem=   104857600 cpu:               0.8 elap:               1.0
 (Enter /home/sekinelabo/g16/l301.exe)
 Standard basis: 6-311+G(d) (5D, 7F)
 Ernie: Thresh=  0.10000D-02 Tol=  0.10000D-05 Strict=F.
 There are   217 symmetry adapted cartesian basis functions of A   symmetry.
 There are   210 symmetry adapted basis functions of A   symmetry.
   210 basis functions,   350 primitive gaussians,   217 cartesian basis functions
    39 alpha electrons       38 beta electrons
       nuclear repulsion energy       129.8597160537 Hartrees.
 IExCor=  402 DFT=T Ex+Corr=B3LYP ExCW=0 ScaHFX=  0.200000
 ScaDFX=  0.800000  0.720000  1.000000  0.810000 ScalE2=  1.000000  1.000000
 IRadAn=      5 IRanWt=     -1 IRanGd=            0 ICorTp=0 IEmpDi=  4
 NAtoms=    7 NActive=    7 NUniq=    7 SFac= 1.00D+00 NAtFMM=   60 NAOKFM=F Big=F
 Integral buffers will be    131072 words long.
 Raffenetti 2 integral format.
 Two-electron integral symmetry is turned on.
 Leave Link  301 at Thu Nov 23 12:30:26 2023, MaxMem=   104857600 cpu:               0.7 elap:               0.8
 (Enter /home/sekinelabo/g16/l302.exe)
 NPDir=0 NMtPBC=     1 NCelOv=     1 NCel=       1 NClECP=     1 NCelD=      1
         NCelK=      1 NCelE2=     1 NClLst=     1 CellRange=     0.0.
 One-electron integrals computed using PRISM.
 One-electron integral symmetry used in STVInt
 NBasis=   210 RedAO= T EigKep=  1.30D-05  NBF=   210
 NBsUse=   210 1.00D-06 EigRej= -1.00D+00 NBFU=   210
 Precomputing XC quadrature grid using
 IXCGrd= 4 IRadAn=           5 IRanWt=          -1 IRanGd=           0 AccXCQ= 0.00D+00.
 Generated NRdTot=       0 NPtTot=           0 NUsed=           0 NTot=          32
 NSgBfM=   141   141   141   141   141 MxSgAt=     7 MxSgA2=     5.
 Leave Link  302 at Thu Nov 23 12:31:04 2023, MaxMem=   104857600 cpu:              30.2 elap:              38.0
 (Enter /home/sekinelabo/g16/l303.exe)
 DipDrv:  MaxL=1.
 Leave Link  303 at Thu Nov 23 12:31:07 2023, MaxMem=   104857600 cpu:               2.4 elap:               3.1
 (Enter /home/sekinelabo/g16/l401.exe)
 ExpMin= 7.60D-03 ExpMax= 3.62D+04 ExpMxC= 1.21D+03 IAcc=3 IRadAn=         5 AccDes= 0.00D+00
 Harris functional with IExCor=  402 and IRadAn=       5 diagonalized for initial guess.
 HarFok:  IExCor=  402 AccDes= 0.00D+00 IRadAn=         5 IDoV= 1 UseB2=F ITyADJ=14
 ICtDFT=  3500011 ScaDFX=  1.000000  1.000000  1.000000  1.000000
 FoFCou: FMM=F IPFlag=           0 FMFlag=      100000 FMFlg1=           0
         NFxFlg=           0 DoJE=T BraDBF=F KetDBF=T FulRan=T
         wScrn=  0.000000 ICntrl=       500 IOpCl=  0 I1Cent=   200000004 NGrid=           0
         NMat0=    1 NMatS0=      1 NMatT0=    0 NMatD0=    1 NMtDS0=    0 NMtDT0=    0
 Petite list used in FoFCou.
 Harris En= -1135.82586035327    
 JPrj=0 DoOrth=F DoCkMO=F.
 Initial guess <Sx>= 0.0000 <Sy>= 0.0000 <Sz>= 0.5000 <S**2>= 0.7500 S= 0.5000
 Leave Link  401 at Thu Nov 23 12:31:27 2023, MaxMem=   104857600 cpu:              16.4 elap:              20.5
 (Enter /home/sekinelabo/g16/l502.exe)
 Integral symmetry usage will be decided dynamically.
 UHF open shell SCF:
 Using DIIS extrapolation, IDIIS=  1040.
 NGot=   104857600 LenX=   104758440 LenY=   104710910
 Requested convergence on RMS density matrix=1.00D-08 within 128 cycles.
 Requested convergence on MAX density matrix=1.00D-06.
 Requested convergence on             energy=1.00D-06.
 No special actions if energy rises.
 Fock matrices will be formed incrementally for  20 cycles.

 Cycle   1  Pass 1  IDiag  1:
 FoFJK:  IHMeth= 1 ICntrl=       0 DoSepK=F KAlg= 0 I1Cent=           0 FoldK=F
 IRaf= 500000000 NMat=       1 IRICut=       1 DoRegI=T DoRafI=F ISym2E= 0 IDoP0=0 IntGTp=1.
 FoFCou: FMM=F IPFlag=           0 FMFlag=      100000 FMFlg1=           0
         NFxFlg=           0 DoJE=F BraDBF=F KetDBF=F FulRan=T
         wScrn=  0.000000 ICntrl=         0 IOpCl=  1 I1Cent=           0 NGrid=           0
         NMat0=    1 NMatS0=      1 NMatT0=    0 NMatD0=    1 NMtDS0=    0 NMtDT0=    0
 Symmetry not used in FoFCou.
 E= -1135.90479775963    
 DIIS: error= 2.13D-02 at cycle   1 NSaved=   1.
 NSaved= 1 IEnMin= 1 EnMin= -1135.90479775963     IErMin= 1 ErrMin= 2.13D-02
 ErrMax= 2.13D-02  0.00D+00 EMaxC= 1.00D-01 BMatC= 1.92D-01 BMatP= 1.92D-01
 IDIUse=3 WtCom= 7.87D-01 WtEn= 2.13D-01
 Coeff-Com:  0.100D+01
 Coeff-En:   0.100D+01
 Coeff:      0.100D+01
 Gap=     0.011 Goal=   None    Shift=    0.000
 Gap=    -0.201 Goal=   None    Shift=    0.000
 GapD=   -0.201 DampG=0.250 DampE=0.500 DampFc=0.2500 IDamp=-1.
 Damping current iteration by 2.50D-01
 RMSDP=9.35D-03 MaxDP=9.54D-01              OVMax= 1.00D+00

 Cycle   2  Pass 1  IDiag  1:
 RMSU=  2.30D-03    CP:  9.78D-01
 E= -1135.89346655595     Delta-E=        0.011331203680 Rises=F Damp=T
 DIIS: error= 1.24D-02 at cycle   2 NSaved=   2.
 NSaved= 2 IEnMin= 1 EnMin= -1135.90479775963     IErMin= 2 ErrMin= 1.24D-02
 ErrMax= 1.24D-02  0.00D+00 EMaxC= 1.00D-01 BMatC= 7.38D-02 BMatP= 1.92D-01
 IDIUse=3 WtCom= 8.76D-01 WtEn= 1.24D-01
 Coeff-Com: -0.787D+00 0.179D+01
 Coeff-En:   0.524D+00 0.476D+00
 Coeff:     -0.624D+00 0.162D+01
 Gap=     0.013 Goal=   None    Shift=    0.000
 Gap=     0.018 Goal=   None    Shift=    0.000
 RMSDP=7.62D-03 MaxDP=5.07D-01 DE= 1.13D-02 OVMax= 1.00D+00

 Cycle   3  Pass 1  IDiag  1:
 RMSU=  7.09D-03    CP:  1.00D+00 -1.98D-01
 E= -1135.37626627350     Delta-E=        0.517200282453 Rises=F Damp=F
 DIIS: error= 1.68D-02 at cycle   3 NSaved=   3.
 NSaved= 3 IEnMin= 1 EnMin= -1135.90479775963     IErMin= 2 ErrMin= 1.24D-02
 ErrMax= 1.68D-02  0.00D+00 EMaxC= 1.00D-01 BMatC= 1.61D-01 BMatP= 7.38D-02
 IDIUse=2 WtCom= 0.00D+00 WtEn= 1.00D+00
 Rare condition: small coef for last iteration:  0.000D+00
 Coeff-En:   0.414D+00 0.475D+00 0.111D+00
 Coeff:      0.414D+00 0.475D+00 0.111D+00
 Gap=     0.027 Goal=   None    Shift=    0.000
 Gap=     0.019 Goal=   None    Shift=    0.000
 RMSDP=9.93D-03 MaxDP=6.91D-01 DE= 5.17D-01 OVMax= 1.00D+00

 Cycle   4  Pass 1  IDiag  1:
 RMSU=  3.61D-03    CP:  9.43D-01  2.46D+00  3.25D-02
 E= -1135.49702110167     Delta-E=       -0.120754828172 Rises=F Damp=F
 DIIS: error= 1.66D-02 at cycle   4 NSaved=   4.
 NSaved= 4 IEnMin= 1 EnMin= -1135.90479775963     IErMin= 2 ErrMin= 1.24D-02
 ErrMax= 1.66D-02  0.00D+00 EMaxC= 1.00D-01 BMatC= 1.07D-01 BMatP= 7.38D-02
 IDIUse=2 WtCom= 0.00D+00 WtEn= 1.00D+00
 EnCoef did   100 forward-backward iterations
 Coeff-En:   0.685D+00 0.724D-02 0.325D-02 0.305D+00
 Coeff:      0.685D+00 0.724D-02 0.325D-02 0.305D+00
 Gap=     0.095 Goal=   None    Shift=    0.000
 Gap=     0.014 Goal=   None    Shift=    0.000
 RMSDP=5.47D-03 MaxDP=6.77D-01 DE=-1.21D-01 OVMax= 9.58D-01

 Cycle   5  Pass 1  IDiag  1:
 RMSU=  3.14D-03    CP:  9.77D-01  8.48D-01  3.64D-02  3.31D-01
 E= -1136.05569257102     Delta-E=       -0.558671469354 Rises=F Damp=F
 DIIS: error= 5.25D-03 at cycle   5 NSaved=   5.
 NSaved= 5 IEnMin= 5 EnMin= -1136.05569257102     IErMin= 5 ErrMin= 5.25D-03
 ErrMax= 5.25D-03  0.00D+00 EMaxC= 1.00D-01 BMatC= 3.22D-02 BMatP= 7.38D-02
 IDIUse=3 WtCom= 9.47D-01 WtEn= 5.25D-02
 Coeff-Com:  0.223D+00 0.620D-01-0.396D-02 0.535D-01 0.666D+00
 Coeff-En:   0.000D+00 0.000D+00 0.000D+00 0.000D+00 0.100D+01
 Coeff:      0.211D+00 0.587D-01-0.375D-02 0.507D-01 0.683D+00
 Gap=     0.031 Goal=   None    Shift=    0.000
 Gap=     0.027 Goal=   None    Shift=    0.000
 RMSDP=1.72D-03 MaxDP=1.14D-01 DE=-5.59D-01 OVMax= 2.43D-01

 Cycle   6  Pass 1  IDiag  1:
 RMSU=  1.52D-03    CP:  9.70D-01  1.01D+00  2.50D-02  4.45D-01  8.26D-01
 E= -1136.05507736391     Delta-E=        0.000615207118 Rises=F Damp=F
 DIIS: error= 4.60D-03 at cycle   6 NSaved=   6.
 NSaved= 6 IEnMin= 5 EnMin= -1136.05569257102     IErMin= 6 ErrMin= 4.60D-03
 ErrMax= 4.60D-03  0.00D+00 EMaxC= 1.00D-01 BMatC= 3.94D-03 BMatP= 3.22D-02
 IDIUse=3 WtCom= 9.54D-01 WtEn= 4.60D-02
 Coeff-Com:  0.117D+00-0.906D-01-0.189D-01-0.308D-01 0.330D+00 0.694D+00
 Coeff-En:   0.000D+00 0.000D+00 0.000D+00 0.000D+00 0.524D+00 0.476D+00
 Coeff:      0.111D+00-0.865D-01-0.180D-01-0.293D-01 0.339D+00 0.684D+00
 Gap=     0.027 Goal=   None    Shift=    0.000
 Gap=     0.029 Goal=   None    Shift=    0.000
 RMSDP=1.52D-03 MaxDP=1.51D-01 DE= 6.15D-04 OVMax= 3.10D-01

 Cycle   7  Pass 1  IDiag  1:
 RMSU=  1.32D-03    CP:  9.71D-01  1.05D+00  3.56D-02  3.65D-01  9.15D-01
                    CP:  5.94D-01
 E= -1136.05905017757     Delta-E=       -0.003972813661 Rises=F Damp=F
 DIIS: error= 4.17D-03 at cycle   7 NSaved=   7.
 NSaved= 7 IEnMin= 7 EnMin= -1136.05905017757     IErMin= 7 ErrMin= 4.17D-03
 ErrMax= 4.17D-03  0.00D+00 EMaxC= 1.00D-01 BMatC= 1.93D-03 BMatP= 3.94D-03
 IDIUse=3 WtCom= 9.58D-01 WtEn= 4.17D-02
 Coeff-Com:  0.568D-01-0.709D-01 0.218D-02-0.301D-02 0.119D+00 0.430D+00
 Coeff-Com:  0.466D+00
 Coeff-En:   0.000D+00 0.000D+00 0.000D+00 0.000D+00 0.000D+00 0.345D+00
 Coeff-En:   0.655D+00
 Coeff:      0.544D-01-0.679D-01 0.209D-02-0.288D-02 0.114D+00 0.426D+00
 Coeff:      0.474D+00
 Gap=     0.029 Goal=   None    Shift=    0.000
 Gap=     0.036 Goal=   None    Shift=    0.000
 RMSDP=6.67D-04 MaxDP=6.20D-02 DE=-3.97D-03 OVMax= 1.40D-01

 Cycle   8  Pass 1  IDiag  1:
 RMSU=  2.70D-04    CP:  9.70D-01  1.04D+00  2.78D-02  4.04D-01  8.79D-01
                    CP:  8.31D-01  6.56D-01
 E= -1136.06253729105     Delta-E=       -0.003487113482 Rises=F Damp=F
 DIIS: error= 7.12D-04 at cycle   8 NSaved=   8.
 NSaved= 8 IEnMin= 8 EnMin= -1136.06253729105     IErMin= 8 ErrMin= 7.12D-04
 ErrMax= 7.12D-04  0.00D+00 EMaxC= 1.00D-01 BMatC= 1.02D-04 BMatP= 1.93D-03
 IDIUse=3 WtCom= 9.93D-01 WtEn= 7.12D-03
 Coeff-Com:  0.376D-01-0.490D-01 0.162D-02-0.817D-03 0.374D-01 0.844D-01
 Coeff-Com:  0.124D+00 0.765D+00
 Coeff-En:   0.000D+00 0.000D+00 0.000D+00 0.000D+00 0.000D+00 0.000D+00
 Coeff-En:   0.000D+00 0.100D+01
 Coeff:      0.373D-01-0.487D-01 0.161D-02-0.812D-03 0.371D-01 0.838D-01
 Coeff:      0.123D+00 0.767D+00
 Gap=     0.032 Goal=   None    Shift=    0.000
 Gap=     0.043 Goal=   None    Shift=    0.000
 RMSDP=2.02D-04 MaxDP=1.70D-02 DE=-3.49D-03 OVMax= 3.64D-02

 Cycle   9  Pass 1  IDiag  1:
 RMSU=  1.64D-04    CP:  9.70D-01  1.04D+00  3.23D-02  4.03D-01  8.71D-01
                    CP:  8.68D-01  6.50D-01  1.34D+00
 E= -1136.06277987468     Delta-E=       -0.000242583633 Rises=F Damp=F
 DIIS: error= 2.90D-04 at cycle   9 NSaved=   9.
 NSaved= 9 IEnMin= 9 EnMin= -1136.06277987468     IErMin= 9 ErrMin= 2.90D-04
 ErrMax= 2.90D-04  0.00D+00 EMaxC= 1.00D-01 BMatC= 4.41D-05 BMatP= 1.02D-04
 IDIUse=3 WtCom= 9.97D-01 WtEn= 2.90D-03
 Coeff-Com:  0.232D-01-0.301D-01-0.348D-02-0.347D-02 0.794D-02-0.681D-01
 Coeff-Com: -0.616D-01 0.296D+00 0.839D+00
 Coeff-En:   0.000D+00 0.000D+00 0.000D+00 0.000D+00 0.000D+00 0.000D+00
 Coeff-En:   0.000D+00 0.000D+00 0.100D+01
 Coeff:      0.232D-01-0.301D-01-0.347D-02-0.346D-02 0.792D-02-0.679D-01
 Coeff:     -0.614D-01 0.295D+00 0.840D+00
 Gap=     0.032 Goal=   None    Shift=    0.000
 Gap=     0.048 Goal=   None    Shift=    0.000
 RMSDP=1.69D-04 MaxDP=1.71D-02 DE=-2.43D-04 OVMax= 1.92D-02

 Cycle  10  Pass 1  IDiag  1:
 RMSU=  1.20D-04    CP:  9.70D-01  1.03D+00  3.19D-02  4.02D-01  8.69D-01
                    CP:  8.91D-01  6.77D-01  1.74D+00  1.05D+00
 E= -1136.06290956154     Delta-E=       -0.000129686852 Rises=F Damp=F
 DIIS: error= 3.18D-04 at cycle  10 NSaved=  10.
 NSaved=10 IEnMin=10 EnMin= -1136.06290956154     IErMin= 9 ErrMin= 2.90D-04
 ErrMax= 3.18D-04  0.00D+00 EMaxC= 1.00D-01 BMatC= 1.57D-05 BMatP= 4.41D-05
 IDIUse=3 WtCom= 9.97D-01 WtEn= 2.90D-03
 Coeff-Com:  0.116D-01-0.151D-01-0.171D-02-0.272D-02 0.476D-02-0.382D-01
 Coeff-Com: -0.396D-01-0.134D+00 0.225D+00 0.989D+00
 Coeff-En:   0.000D+00 0.000D+00 0.000D+00 0.000D+00 0.000D+00 0.000D+00
 Coeff-En:   0.000D+00 0.000D+00 0.000D+00 0.100D+01
 Coeff:      0.116D-01-0.151D-01-0.171D-02-0.271D-02 0.474D-02-0.381D-01
 Coeff:     -0.395D-01-0.133D+00 0.225D+00 0.989D+00
 Gap=     0.033 Goal=   None    Shift=    0.000
 Gap=     0.051 Goal=   None    Shift=    0.000
 RMSDP=1.25D-04 MaxDP=1.10D-02 DE=-1.30D-04 OVMax= 2.25D-02

 Cycle  11  Pass 1  IDiag  1:
 RMSU=  6.28D-05    CP:  9.70D-01  1.02D+00  3.15D-02  3.97D-01  8.69D-01
                    CP:  8.92D-01  6.74D-01  1.99D+00  1.45D+00  1.39D+00
 E= -1136.06298341285     Delta-E=       -0.000073851317 Rises=F Damp=F
 DIIS: error= 1.68D-04 at cycle  11 NSaved=  11.
 NSaved=11 IEnMin=11 EnMin= -1136.06298341285     IErMin=11 ErrMin= 1.68D-04
 ErrMax= 1.68D-04  0.00D+00 EMaxC= 1.00D-01 BMatC= 4.98D-06 BMatP= 1.57D-05
 IDIUse=3 WtCom= 9.98D-01 WtEn= 1.68D-03
 Coeff-Com:  0.483D-02-0.619D-02-0.207D-03-0.141D-02 0.517D-02 0.230D-02
 Coeff-Com: -0.127D-01-0.104D+00-0.103D+00 0.216D+00 0.998D+00
 Coeff-En:   0.000D+00 0.000D+00 0.000D+00 0.000D+00 0.000D+00 0.000D+00
 Coeff-En:   0.000D+00 0.000D+00 0.000D+00 0.000D+00 0.100D+01
 Coeff:      0.482D-02-0.618D-02-0.207D-03-0.141D-02 0.516D-02 0.230D-02
 Coeff:     -0.126D-01-0.104D+00-0.103D+00 0.216D+00 0.998D+00
 Gap=     0.033 Goal=   None    Shift=    0.000
 Gap=     0.050 Goal=   None    Shift=    0.000
 RMSDP=9.20D-05 MaxDP=9.97D-03 DE=-7.39D-05 OVMax= 1.59D-02

 Cycle  12  Pass 1  IDiag  1:
 RMSU=  3.42D-05    CP:  9.70D-01  1.02D+00  3.26D-02  3.93D-01  8.69D-01
                    CP:  8.93D-01  6.63D-01  2.13D+00  1.65D+00  1.81D+00
                    CP:  1.63D+00
 E= -1136.06302160060     Delta-E=       -0.000038187743 Rises=F Damp=F
 DIIS: error= 9.52D-05 at cycle  12 NSaved=  12.
 NSaved=12 IEnMin=12 EnMin= -1136.06302160060     IErMin=12 ErrMin= 9.52D-05
 ErrMax= 9.52D-05  0.00D+00 EMaxC= 1.00D-01 BMatC= 1.96D-06 BMatP= 4.98D-06
 IDIUse=1 WtCom= 1.00D+00 WtEn= 0.00D+00
 Coeff-Com:  0.784D-03-0.996D-03-0.289D-05-0.717D-03 0.261D-02 0.945D-02
 Coeff-Com: -0.608D-02 0.361D-01-0.575D-01-0.291D+00-0.716D-02 0.131D+01
 Coeff:      0.784D-03-0.996D-03-0.289D-05-0.717D-03 0.261D-02 0.945D-02
 Coeff:     -0.608D-02 0.361D-01-0.575D-01-0.291D+00-0.716D-02 0.131D+01
 Gap=     0.034 Goal=   None    Shift=    0.000
 Gap=     0.051 Goal=   None    Shift=    0.000
 RMSDP=9.42D-05 MaxDP=1.18D-02 DE=-3.82D-05 OVMax= 1.59D-02

 Cycle  13  Pass 1  IDiag  1:
 RMSU=  1.16D-05    CP:  9.70D-01  1.01D+00  3.38D-02  3.91D-01  8.70D-01
                    CP:  8.94D-01  6.53D-01  2.23D+00  1.79D+00  2.25D+00
                    CP:  2.32D+00  2.43D+00
 E= -1136.06304975051     Delta-E=       -0.000028149918 Rises=F Damp=F
 DIIS: error= 6.12D-05 at cycle  13 NSaved=  13.
 NSaved=13 IEnMin=13 EnMin= -1136.06304975051     IErMin=13 ErrMin= 6.12D-05
 ErrMax= 6.12D-05  0.00D+00 EMaxC= 1.00D-01 BMatC= 7.02D-07 BMatP= 1.96D-06
 IDIUse=1 WtCom= 1.00D+00 WtEn= 0.00D+00
 Coeff-Com: -0.157D-02 0.203D-02-0.166D-03 0.491D-04-0.233D-02-0.794D-02
 Coeff-Com: -0.385D-02 0.649D-01 0.131D+00-0.151D+00-0.559D+00-0.259D+00
 Coeff-Com:  0.179D+01
 Coeff:     -0.157D-02 0.203D-02-0.166D-03 0.491D-04-0.233D-02-0.794D-02
 Coeff:     -0.385D-02 0.649D-01 0.131D+00-0.151D+00-0.559D+00-0.259D+00
 Coeff:      0.179D+01
 Gap=     0.034 Goal=   None    Shift=    0.000
 Gap=     0.051 Goal=   None    Shift=    0.000
 RMSDP=1.12D-04 MaxDP=1.35D-02 DE=-2.81D-05 OVMax= 2.02D-02

 Cycle  14  Pass 1  IDiag  1:
 RMSU=  4.87D-05    CP:  9.70D-01  1.01D+00  3.56D-02  3.87D-01  8.70D-01
                    CP:  8.93D-01  6.43D-01  2.30D+00  1.96D+00  2.70D+00
                    CP:  3.00D+00  3.00D+00  2.76D+00
 E= -1136.06306876163     Delta-E=       -0.000019011117 Rises=F Damp=F
 DIIS: error= 2.67D-05 at cycle  14 NSaved=  14.
 NSaved=14 IEnMin=14 EnMin= -1136.06306876163     IErMin=14 ErrMin= 2.67D-05
 ErrMax= 2.67D-05  0.00D+00 EMaxC= 1.00D-01 BMatC= 1.81D-07 BMatP= 7.02D-07
 IDIUse=1 WtCom= 1.00D+00 WtEn= 0.00D+00
 Coeff-Com: -0.174D-02 0.229D-02-0.213D-03 0.315D-03-0.204D-02-0.431D-02
 Coeff-Com:  0.481D-03 0.124D-01 0.279D-01 0.641D-01-0.590D-01-0.368D+00
 Coeff-Com:  0.224D-01 0.131D+01
 Coeff:     -0.174D-02 0.229D-02-0.213D-03 0.315D-03-0.204D-02-0.431D-02
 Coeff:      0.481D-03 0.124D-01 0.279D-01 0.641D-01-0.590D-01-0.368D+00
 Coeff:      0.224D-01 0.131D+01
 Gap=     0.034 Goal=   None    Shift=    0.000
 Gap=     0.051 Goal=   None    Shift=    0.000
 RMSDP=5.22D-05 MaxDP=6.46D-03 DE=-1.90D-05 OVMax= 9.22D-03

 Cycle  15  Pass 1  IDiag  1:
 RMSU=  1.68D-05    CP:  9.70D-01  1.01D+00  3.65D-02  3.85D-01  8.71D-01
                    CP:  8.93D-01  6.41D-01  2.32D+00  2.01D+00  2.90D+00
                    CP:  3.00D+00  3.00D+00  3.00D+00  1.81D+00
 E= -1136.06307167970     Delta-E=       -0.000002918067 Rises=F Damp=F
 DIIS: error= 2.13D-05 at cycle  15 NSaved=  15.
 NSaved=15 IEnMin=15 EnMin= -1136.06307167970     IErMin=15 ErrMin= 2.13D-05
 ErrMax= 2.13D-05  0.00D+00 EMaxC= 1.00D-01 BMatC= 1.05D-07 BMatP= 1.81D-07
 IDIUse=1 WtCom= 1.00D+00 WtEn= 0.00D+00
 Coeff-Com: -0.134D-02 0.177D-02-0.475D-04 0.126D-03-0.131D-02-0.112D-02
 Coeff-Com: -0.550D-03 0.553D-02-0.675D-02 0.186D-01 0.484D-01-0.229D-01
 Coeff-Com: -0.139D+00 0.181D+00 0.917D+00
 Coeff:     -0.134D-02 0.177D-02-0.475D-04 0.126D-03-0.131D-02-0.112D-02
 Coeff:     -0.550D-03 0.553D-02-0.675D-02 0.186D-01 0.484D-01-0.229D-01
 Coeff:     -0.139D+00 0.181D+00 0.917D+00
 Gap=     0.034 Goal=   None    Shift=    0.000
 Gap=     0.051 Goal=   None    Shift=    0.000
 RMSDP=4.82D-06 MaxDP=4.93D-04 DE=-2.92D-06 OVMax= 2.92D-04

 Cycle  16  Pass 1  IDiag  1:
 RMSU=  2.86D-06    CP:  9.70D-01  1.01D+00  3.62D-02  3.85D-01  8.71D-01
                    CP:  8.94D-01  6.42D-01  2.31D+00  2.01D+00  2.90D+00
                    CP:  3.00D+00  3.00D+00  3.00D+00  1.81D+00  1.07D+00
 E= -1136.06307183579     Delta-E=       -0.000000156097 Rises=F Damp=F
 DIIS: error= 1.34D-05 at cycle  16 NSaved=  16.
 NSaved=16 IEnMin=16 EnMin= -1136.06307183579     IErMin=16 ErrMin= 1.34D-05
 ErrMax= 1.34D-05  0.00D+00 EMaxC= 1.00D-01 BMatC= 4.02D-08 BMatP= 1.05D-07
 IDIUse=1 WtCom= 1.00D+00 WtEn= 0.00D+00
 Coeff-Com: -0.534D-03 0.713D-03 0.963D-05 0.523D-05-0.470D-03-0.728D-03
 Coeff-Com: -0.365D-03 0.166D-03 0.264D-02-0.538D-02 0.339D-02 0.173D-01
 Coeff-Com:  0.463D-01-0.349D+00-0.460D+00 0.175D+01
 Coeff:     -0.534D-03 0.713D-03 0.963D-05 0.523D-05-0.470D-03-0.728D-03
 Coeff:     -0.365D-03 0.166D-03 0.264D-02-0.538D-02 0.339D-02 0.173D-01
 Coeff:      0.463D-01-0.349D+00-0.460D+00 0.175D+01
 Gap=     0.034 Goal=   None    Shift=    0.000
 Gap=     0.051 Goal=   None    Shift=    0.000
 RMSDP=9.22D-06 MaxDP=7.42D-04 DE=-1.56D-07 OVMax= 1.36D-03

 Cycle  17  Pass 1  IDiag  1:
 RMSU=  2.09D-06    CP:  9.70D-01  1.01D+00  3.61D-02  3.85D-01  8.71D-01
                    CP:  8.94D-01  6.42D-01  2.32D+00  2.02D+00  2.92D+00
                    CP:  3.00D+00  3.00D+00  3.00D+00  1.93D+00  1.33D+00
                    CP:  2.22D+00
 E= -1136.06307201903     Delta-E=       -0.000000183238 Rises=F Damp=F
 DIIS: error= 6.60D-06 at cycle  17 NSaved=  17.
 NSaved=17 IEnMin=17 EnMin= -1136.06307201903     IErMin=17 ErrMin= 6.60D-06
 ErrMax= 6.60D-06  0.00D+00 EMaxC= 1.00D-01 BMatC= 8.71D-09 BMatP= 4.02D-08
 IDIUse=1 WtCom= 1.00D+00 WtEn= 0.00D+00
 Coeff-Com: -0.173D-03 0.232D-03 0.925D-05-0.252D-04-0.956D-04-0.218D-03
 Coeff-Com:  0.229D-03 0.890D-03 0.104D-03-0.111D-02-0.195D-01-0.123D-01
 Coeff-Com:  0.758D-01-0.127D+00-0.429D+00 0.443D+00 0.107D+01
 Coeff:     -0.173D-03 0.232D-03 0.925D-05-0.252D-04-0.956D-04-0.218D-03
 Coeff:      0.229D-03 0.890D-03 0.104D-03-0.111D-02-0.195D-01-0.123D-01
 Coeff:      0.758D-01-0.127D+00-0.429D+00 0.443D+00 0.107D+01
 Gap=     0.034 Goal=   None    Shift=    0.000
 Gap=     0.052 Goal=   None    Shift=    0.000
 RMSDP=5.07D-06 MaxDP=5.00D-04 DE=-1.83D-07 OVMax= 7.72D-04

 Cycle  18  Pass 1  IDiag  1:
 RMSU=  9.69D-07    CP:  9.70D-01  1.01D+00  3.60D-02  3.85D-01  8.71D-01
                    CP:  8.95D-01  6.42D-01  2.32D+00  2.02D+00  2.93D+00
                    CP:  3.00D+00  3.00D+00  3.00D+00  1.99D+00  1.47D+00
                    CP:  2.64D+00  1.78D+00
 E= -1136.06307206119     Delta-E=       -0.000000042161 Rises=F Damp=F
 DIIS: error= 1.27D-06 at cycle  18 NSaved=  18.
 NSaved=18 IEnMin=18 EnMin= -1136.06307206119     IErMin=18 ErrMin= 1.27D-06
 ErrMax= 1.27D-06  0.00D+00 EMaxC= 1.00D-01 BMatC= 7.12D-10 BMatP= 8.71D-09
 IDIUse=1 WtCom= 1.00D+00 WtEn= 0.00D+00
 Coeff-Com: -0.641D-04 0.889D-04 0.690D-05-0.738D-05-0.516D-04-0.916D-04
 Coeff-Com:  0.793D-04 0.140D-02-0.129D-03-0.173D-02-0.570D-02-0.411D-02
 Coeff-Com:  0.874D-02 0.415D-01 0.713D-02-0.238D+00 0.258D+00 0.933D+00
 Coeff:     -0.641D-04 0.889D-04 0.690D-05-0.738D-05-0.516D-04-0.916D-04
 Coeff:      0.793D-04 0.140D-02-0.129D-03-0.173D-02-0.570D-02-0.411D-02
 Coeff:      0.874D-02 0.415D-01 0.713D-02-0.238D+00 0.258D+00 0.933D+00
 Gap=     0.034 Goal=   None    Shift=    0.000
 Gap=     0.052 Goal=   None    Shift=    0.000
 RMSDP=1.23D-06 MaxDP=7.04D-05 DE=-4.22D-08 OVMax= 1.41D-04

 Cycle  19  Pass 1  IDiag  1:
 RMSU=  3.65D-07    CP:  9.70D-01  1.01D+00  3.60D-02  3.85D-01  8.71D-01
                    CP:  8.94D-01  6.42D-01  2.32D+00  2.02D+00  2.93D+00
                    CP:  3.00D+00  3.00D+00  3.00D+00  2.00D+00  1.49D+00
                    CP:  2.71D+00  2.12D+00  1.29D+00
 E= -1136.06307206352     Delta-E=       -0.000000002327 Rises=F Damp=F
 DIIS: error= 4.28D-07 at cycle  19 NSaved=  19.
 NSaved=19 IEnMin=19 EnMin= -1136.06307206352     IErMin=19 ErrMin= 4.28D-07
 ErrMax= 4.28D-07  0.00D+00 EMaxC= 1.00D-01 BMatC= 1.36D-10 BMatP= 7.12D-10
 IDIUse=1 WtCom= 1.00D+00 WtEn= 0.00D+00
 Coeff-Com: -0.976D-05 0.139D-04 0.189D-05-0.666D-05-0.125D-04-0.564D-04
 Coeff-Com: -0.106D-04 0.491D-03 0.107D-02-0.121D-02-0.194D-02 0.859D-03
 Coeff-Com: -0.285D-02 0.329D-01 0.714D-01-0.162D+00-0.906D-01 0.327D+00
 Coeff-Com:  0.826D+00
 Coeff:     -0.976D-05 0.139D-04 0.189D-05-0.666D-05-0.125D-04-0.564D-04
 Coeff:     -0.106D-04 0.491D-03 0.107D-02-0.121D-02-0.194D-02 0.859D-03
 Coeff:     -0.285D-02 0.329D-01 0.714D-01-0.162D+00-0.906D-01 0.327D+00
 Coeff:      0.826D+00
 Gap=     0.034 Goal=   None    Shift=    0.000
 Gap=     0.052 Goal=   None    Shift=    0.000
 RMSDP=4.44D-07 MaxDP=3.01D-05 DE=-2.33D-09 OVMax= 3.19D-05

 Cycle  20  Pass 1  IDiag  1:
 RMSU=  1.05D-07    CP:  9.70D-01  1.01D+00  3.60D-02  3.85D-01  8.71D-01
                    CP:  8.94D-01  6.42D-01  2.32D+00  2.02D+00  2.93D+00
                    CP:  3.00D+00  3.00D+00  3.00D+00  2.00D+00  1.50D+00
                    CP:  2.71D+00  2.27D+00  1.47D+00  1.27D+00
 E= -1136.06307206387     Delta-E=       -0.000000000351 Rises=F Damp=F
 DIIS: error= 1.73D-07 at cycle  20 NSaved=  20.
 NSaved=20 IEnMin=20 EnMin= -1136.06307206387     IErMin=20 ErrMin= 1.73D-07
 ErrMax= 1.73D-07  0.00D+00 EMaxC= 1.00D-01 BMatC= 8.67D-12 BMatP= 1.36D-10
 IDIUse=1 WtCom= 1.00D+00 WtEn= 0.00D+00
 Coeff-Com: -0.406D-05 0.500D-05 0.129D-05-0.105D-05-0.240D-06-0.392D-05
 Coeff-Com: -0.692D-05-0.173D-04-0.102D-04 0.839D-05 0.515D-03 0.683D-03
 Coeff-Com: -0.223D-02-0.174D-02 0.641D-02 0.194D-01-0.365D-01-0.827D-01
 Coeff-Com: -0.536D-01 0.115D+01
 Coeff:     -0.406D-05 0.500D-05 0.129D-05-0.105D-05-0.240D-06-0.392D-05
 Coeff:     -0.692D-05-0.173D-04-0.102D-04 0.839D-05 0.515D-03 0.683D-03
 Coeff:     -0.223D-02-0.174D-02 0.641D-02 0.194D-01-0.365D-01-0.827D-01
 Coeff:     -0.536D-01 0.115D+01
 Gap=     0.034 Goal=   None    Shift=    0.000
 Gap=     0.052 Goal=   None    Shift=    0.000
 RMSDP=2.10D-07 MaxDP=1.62D-05 DE=-3.51D-10 OVMax= 2.24D-05

 Cycle  21  Pass 1  IDiag  1:
 Restarting incremental Fock formation.
 E= -1136.06307206394     Delta-E=       -0.000000000072 Rises=F Damp=F
 DIIS: error= 6.67D-08 at cycle  21 NSaved=  20.
 NSaved=20 IEnMin=20 EnMin= -1136.06307206394     IErMin=20 ErrMin= 6.67D-08
 ErrMax= 6.67D-08  0.00D+00 EMaxC= 1.00D-01 BMatC= 1.75D-12 BMatP= 8.67D-12
 IDIUse=1 WtCom= 1.00D+00 WtEn= 0.00D+00
 Coeff-Com: -0.391D-06 0.246D-06-0.278D-06 0.143D-05 0.280D-05-0.255D-06
 Coeff-Com: -0.480D-04-0.170D-03 0.132D-03 0.331D-03-0.556D-03 0.116D-02
 Coeff-Com: -0.474D-02-0.890D-02 0.179D-01 0.212D-01-0.574D-01-0.116D+00
 Coeff-Com:  0.831D-01 0.106D+01
 Coeff:     -0.391D-06 0.246D-06-0.278D-06 0.143D-05 0.280D-05-0.255D-06
 Coeff:     -0.480D-04-0.170D-03 0.132D-03 0.331D-03-0.556D-03 0.116D-02
 Coeff:     -0.474D-02-0.890D-02 0.179D-01 0.212D-01-0.574D-01-0.116D+00
 Coeff:      0.831D-01 0.106D+01
 Gap=     0.034 Goal=   None    Shift=    0.000
 Gap=     0.052 Goal=   None    Shift=    0.000
 RMSDP=6.26D-08 MaxDP=6.28D-06 DE=-7.16D-11 OVMax= 6.65D-06

 Cycle  22  Pass 1  IDiag  1:
 RMSU=  6.26D-08    CP:  1.00D+00
 E= -1136.06307206395     Delta-E=       -0.000000000008 Rises=F Damp=F
 DIIS: error= 2.46D-08 at cycle  22 NSaved=  20.
 NSaved=20 IEnMin=20 EnMin= -1136.06307206395     IErMin=20 ErrMin= 2.46D-08
 ErrMax= 2.46D-08  0.00D+00 EMaxC= 1.00D-01 BMatC= 2.42D-13 BMatP= 1.75D-12
 IDIUse=1 WtCom= 1.00D+00 WtEn= 0.00D+00
 Coeff-Com:  0.110D-06-0.641D-07-0.915D-06-0.123D-05 0.192D-05 0.121D-04
 Coeff-Com:  0.254D-04-0.685D-04-0.165D-03 0.307D-03 0.872D-04 0.129D-03
 Coeff-Com:  0.370D-03-0.383D-02 0.369D-02 0.143D-01 0.250D-01-0.206D+00
 Coeff-Com: -0.189D-01 0.119D+01
 Coeff:      0.110D-06-0.641D-07-0.915D-06-0.123D-05 0.192D-05 0.121D-04
 Coeff:      0.254D-04-0.685D-04-0.165D-03 0.307D-03 0.872D-04 0.129D-03
 Coeff:      0.370D-03-0.383D-02 0.369D-02 0.143D-01 0.250D-01-0.206D+00
 Coeff:     -0.189D-01 0.119D+01
 Gap=     0.034 Goal=   None    Shift=    0.000
 Gap=     0.052 Goal=   None    Shift=    0.000
 RMSDP=2.84D-08 MaxDP=2.03D-06 DE=-7.96D-12 OVMax= 3.21D-06

 Cycle  23  Pass 1  IDiag  1:
 RMSU=  2.33D-08    CP:  1.00D+00  1.26D+00
 E= -1136.06307206396     Delta-E=       -0.000000000004 Rises=F Damp=F
 DIIS: error= 7.03D-09 at cycle  23 NSaved=  20.
 NSaved=20 IEnMin=20 EnMin= -1136.06307206396     IErMin=20 ErrMin= 7.03D-09
 ErrMax= 7.03D-09  0.00D+00 EMaxC= 1.00D-01 BMatC= 1.75D-14 BMatP= 2.42D-13
 IDIUse=1 WtCom= 1.00D+00 WtEn= 0.00D+00
 Coeff-Com:  0.129D-07-0.148D-06-0.332D-06-0.460D-06 0.985D-05 0.192D-04
 Coeff-Com: -0.329D-04-0.450D-04 0.109D-03-0.811D-04 0.139D-03 0.560D-03
 Coeff-Com: -0.754D-03-0.179D-02 0.495D-02 0.992D-02-0.153D-01-0.111D+00
 Coeff-Com:  0.916D-01 0.102D+01
 Coeff:      0.129D-07-0.148D-06-0.332D-06-0.460D-06 0.985D-05 0.192D-04
 Coeff:     -0.329D-04-0.450D-04 0.109D-03-0.811D-04 0.139D-03 0.560D-03
 Coeff:     -0.754D-03-0.179D-02 0.495D-02 0.992D-02-0.153D-01-0.111D+00
 Coeff:      0.916D-01 0.102D+01
 Gap=     0.034 Goal=   None    Shift=    0.000
 Gap=     0.052 Goal=   None    Shift=    0.000
 RMSDP=6.42D-09 MaxDP=5.52D-07 DE=-4.09D-12 OVMax= 6.53D-07

 SCF Done:  E(UB3LYP) =  -1136.06307206     A.U. after   23 cycles
            NFock= 23  Conv=0.64D-08     -V/T= 2.0029
 <Sx>= 0.0000 <Sy>= 0.0000 <Sz>= 0.5000 <S**2>= 1.8590 S= 0.9522
 <L.S>= 0.000000000000E+00
 KE= 1.132757042743D+03 PE=-2.988028448969D+03 EE= 5.893486181081D+02
 Annihilation of the first spin contaminant:
 S**2 before annihilation     1.8590,   after     1.1173
 Leave Link  502 at Thu Nov 23 12:42:15 2023, MaxMem=   104857600 cpu:             607.9 elap:             647.8
 (Enter /home/sekinelabo/g16/l601.exe)
 Copying SCF densities to generalized density rwf, IOpCl= 1 IROHF=0.

 **********************************************************************

            Population analysis using the SCF Density.

 **********************************************************************

 Orbital symmetries:
 Alpha Orbitals:
       Occupied  (A) (A) (A) (A) (A) (A) (A) (A) (A) (A) (A) (A)
                 (A) (A) (A) (A) (A) (A) (A) (A) (A) (A) (A) (A)
                 (A) (A) (A) (A) (A) (A) (A) (A) (A) (A) (A) (A)
                 (A) (A) (A)
       Virtual   (A) (A) (A) (A) (A) (A) (A) (A) (A) (A) (A) (A)
                 (A) (A) (A) (A) (A) (A) (A) (A) (A) (A) (A) (A)
                 (A) (A) (A) (A) (A) (A) (A) (A) (A) (A) (A) (A)
                 (A) (A) (A) (A) (A) (A) (A) (A) (A) (A) (A) (A)
                 (A) (A) (A) (A) (A) (A) (A) (A) (A) (A) (A) (A)
                 (A) (A) (A) (A) (A) (A) (A) (A) (A) (A) (A) (A)
                 (A) (A) (A) (A) (A) (A) (A) (A) (A) (A) (A) (A)
                 (A) (A) (A) (A) (A) (A) (A) (A) (A) (A) (A) (A)
                 (A) (A) (A) (A) (A) (A) (A) (A) (A) (A) (A) (A)
                 (A) (A) (A) (A) (A) (A) (A) (A) (A) (A) (A) (A)
                 (A) (A) (A) (A) (A) (A) (A) (A) (A) (A) (A) (A)
                 (A) (A) (A) (A) (A) (A) (A) (A) (A) (A) (A) (A)
                 (A) (A) (A) (A) (A) (A) (A) (A) (A) (A) (A) (A)
                 (A) (A) (A) (A) (A) (A) (A) (A) (A) (A) (A) (A)
                 (A) (A) (A)
 Beta  Orbitals:
       Occupied  (A) (A) (A) (A) (A) (A) (A) (A) (A) (A) (A) (A)
                 (A) (A) (A) (A) (A) (A) (A) (A) (A) (A) (A) (A)
                 (A) (A) (A) (A) (A) (A) (A) (A) (A) (A) (A) (A)
                 (A) (A)
       Virtual   (A) (A) (A) (A) (A) (A) (A) (A) (A) (A) (A) (A)
                 (A) (A) (A) (A) (A) (A) (A) (A) (A) (A) (A) (A)
                 (A) (A) (A) (A) (A) (A) (A) (A) (A) (A) (A) (A)
                 (A) (A) (A) (A) (A) (A) (A) (A) (A) (A) (A) (A)
                 (A) (A) (A) (A) (A) (A) (A) (A) (A) (A) (A) (A)
                 (A) (A) (A) (A) (A) (A) (A) (A) (A) (A) (A) (A)
                 (A) (A) (A) (A) (A) (A) (A) (A) (A) (A) (A) (A)
                 (A) (A) (A) (A) (A) (A) (A) (A) (A) (A) (A) (A)
                 (A) (A) (A) (A) (A) (A) (A) (A) (A) (A) (A) (A)
                 (A) (A) (A) (A) (A) (A) (A) (A) (A) (A) (A) (A)
                 (A) (A) (A) (A) (A) (A) (A) (A) (A) (A) (A) (A)
                 (A) (A) (A) (A) (A) (A) (A) (A) (A) (A) (A) (A)
                 (A) (A) (A) (A) (A) (A) (A) (A) (A) (A) (A) (A)
                 (A) (A) (A) (A) (A) (A) (A) (A) (A) (A) (A) (A)
                 (A) (A) (A) (A)
 The electronic state is 2-A.
 Alpha  occ. eigenvalues --  -38.45890 -38.45769 -38.45769 -38.44899 -38.44837
 Alpha  occ. eigenvalues --  -38.44657 -38.44605  -2.21555  -2.21554  -2.21532
 Alpha  occ. eigenvalues --   -2.20627  -2.20515  -2.20430  -2.20390  -1.15248
 Alpha  occ. eigenvalues --   -1.15248  -1.15223  -1.15167  -1.15167  -1.15167
 Alpha  occ. eigenvalues --   -1.15167  -1.15167  -1.15167  -1.14310  -1.14305
 Alpha  occ. eigenvalues --   -1.14214  -1.14212  -1.14212  -1.14173  -1.14159
 Alpha  occ. eigenvalues --   -1.14107  -1.14090  -1.14058  -1.14052  -1.13954
 Alpha  occ. eigenvalues --   -0.14259  -0.12826  -0.12773  -0.11815
 Alpha virt. eigenvalues --   -0.08405  -0.06399  -0.04698  -0.03057  -0.02618
 Alpha virt. eigenvalues --   -0.02372  -0.02185  -0.02185  -0.02100  -0.01995
 Alpha virt. eigenvalues --   -0.01995  -0.01745  -0.01679  -0.01120  -0.00796
 Alpha virt. eigenvalues --   -0.00747  -0.00284   0.00047   0.00486   0.00585
 Alpha virt. eigenvalues --    0.00633   0.00654   0.00740   0.00999   0.01095
 Alpha virt. eigenvalues --    0.01252   0.01277   0.01277   0.01457   0.01555
 Alpha virt. eigenvalues --    0.01581   0.01581   0.01660   0.01745   0.01807
 Alpha virt. eigenvalues --    0.01943   0.01962   0.02007   0.02109   0.02418
 Alpha virt. eigenvalues --    0.02702   0.02743   0.02856   0.03000   0.03312
 Alpha virt. eigenvalues --    0.03385   0.03536   0.03647   0.03999   0.04200
 Alpha virt. eigenvalues --    0.04603   0.05559   0.07095   0.07202   0.07306
 Alpha virt. eigenvalues --    0.07306   0.07420   0.07519   0.07542   0.07780
 Alpha virt. eigenvalues --    0.07780   0.08089   0.08205   0.08256   0.08323
 Alpha virt. eigenvalues --    0.08481   0.08533   0.08883   0.09180   0.09434
 Alpha virt. eigenvalues --    0.09600   0.09673   0.09918   0.10509   0.10965
 Alpha virt. eigenvalues --    0.12601   0.12883   0.13375   0.14083   0.16512
 Alpha virt. eigenvalues --    0.28736   0.29147   0.30009   0.30859   0.32260
 Alpha virt. eigenvalues --    0.32872   0.33159   0.33226   0.33226   0.33226
 Alpha virt. eigenvalues --    0.33227   0.33229   0.33229   0.33233   0.33233
 Alpha virt. eigenvalues --    0.33236   0.33308   0.34487   0.34700   0.34850
 Alpha virt. eigenvalues --    0.34990   0.35118   0.35616   0.35798   0.36321
 Alpha virt. eigenvalues --    0.36927   0.38314   0.38560   0.40321   0.40792
 Alpha virt. eigenvalues --    0.41791   0.41814   0.41814   0.42170   0.42171
 Alpha virt. eigenvalues --    0.42224   0.42249   0.42678   0.42698   0.43170
 Alpha virt. eigenvalues --    0.43460   0.43865   0.44193   0.44312   0.44981
 Alpha virt. eigenvalues --    0.45166   0.45513   0.46089   0.46768   0.48105
 Alpha virt. eigenvalues --    0.48808   0.49634   0.51038   0.51701   0.52495
 Alpha virt. eigenvalues --    0.68339   1.98611   1.99519   1.99867   2.04195
 Alpha virt. eigenvalues --    2.06339   2.08527   2.14974   4.41412   4.42712
 Alpha virt. eigenvalues --    4.42712   4.42930   4.42988   4.42988   4.43020
 Alpha virt. eigenvalues --    4.43114   4.43146   4.43582   4.43813   4.44098
 Alpha virt. eigenvalues --    4.44137   4.44628   4.44640   4.45310   4.45631
 Alpha virt. eigenvalues --    4.46212   4.46774   4.49636   4.61663  96.17631
 Alpha virt. eigenvalues --   96.18553  96.18694  96.23770  96.26282  96.28793
 Alpha virt. eigenvalues --   96.37479
  Beta  occ. eigenvalues --  -38.46038 -38.45584 -38.45584 -38.44902 -38.44861
  Beta  occ. eigenvalues --  -38.44700 -38.44581  -2.21808  -2.21209  -2.21208
  Beta  occ. eigenvalues --   -2.20638  -2.20554  -2.20511  -2.20340  -1.15435
  Beta  occ. eigenvalues --   -1.15435  -1.15409  -1.14933  -1.14932  -1.14932
  Beta  occ. eigenvalues --   -1.14932  -1.14932  -1.14932  -1.14296  -1.14296
  Beta  occ. eigenvalues --   -1.14259  -1.14254  -1.14242  -1.14212  -1.14176
  Beta  occ. eigenvalues --   -1.14162  -1.14137  -1.14022  -1.14017  -1.13965
  Beta  occ. eigenvalues --   -0.14630  -0.13049  -0.11908
  Beta virt. eigenvalues --   -0.06758  -0.06338  -0.06248  -0.05167  -0.03194
  Beta virt. eigenvalues --   -0.02901  -0.02425  -0.02156  -0.01856  -0.01363
  Beta virt. eigenvalues --   -0.01263  -0.00412  -0.00402  -0.00308  -0.00308
  Beta virt. eigenvalues --    0.00077   0.00077   0.00281   0.00320   0.00566
  Beta virt. eigenvalues --    0.00673   0.00762   0.00767   0.00965   0.01049
  Beta virt. eigenvalues --    0.01144   0.01351   0.01429   0.01576   0.01623
  Beta virt. eigenvalues --    0.01808   0.01828   0.01891   0.01963   0.02132
  Beta virt. eigenvalues --    0.02132   0.02339   0.02347   0.02347   0.02477
  Beta virt. eigenvalues --    0.02625   0.02688   0.02758   0.02858   0.03011
  Beta virt. eigenvalues --    0.03221   0.03342   0.03464   0.03546   0.03888
  Beta virt. eigenvalues --    0.04185   0.04576   0.05366   0.07053   0.07217
  Beta virt. eigenvalues --    0.07399   0.07631   0.07843   0.08085   0.08147
  Beta virt. eigenvalues --    0.08234   0.08426   0.08733   0.08812   0.08812
  Beta virt. eigenvalues --    0.08853   0.09077   0.09288   0.09288   0.09349
  Beta virt. eigenvalues --    0.09556   0.09677   0.09938   0.10423   0.10762
  Beta virt. eigenvalues --    0.10863   0.12382   0.12887   0.13209   0.14003
  Beta virt. eigenvalues --    0.16349   0.28597   0.28910   0.29818   0.30720
  Beta virt. eigenvalues --    0.31916   0.32718   0.33057   0.33397   0.33474
  Beta virt. eigenvalues --    0.33972   0.34070   0.34720   0.34892   0.35325
  Beta virt. eigenvalues --    0.35326   0.35326   0.35326   0.35328   0.35328
  Beta virt. eigenvalues --    0.35331   0.35331   0.35332   0.35357   0.35397
  Beta virt. eigenvalues --    0.36240   0.36911   0.38114   0.38546   0.39717
  Beta virt. eigenvalues --    0.40666   0.41743   0.42128   0.42198   0.42991
  Beta virt. eigenvalues --    0.43213   0.43235   0.43235   0.43600   0.43600
  Beta virt. eigenvalues --    0.43634   0.43635   0.43672   0.44076   0.44305
  Beta virt. eigenvalues --    0.45049   0.45226   0.45536   0.45923   0.46768
  Beta virt. eigenvalues --    0.48093   0.48749   0.49547   0.51055   0.51658
  Beta virt. eigenvalues --    0.52518   0.68299   1.99482   1.99672   2.00387
  Beta virt. eigenvalues --    2.03767   2.06199   2.08533   2.14923   4.41356
  Beta virt. eigenvalues --    4.42817   4.42938   4.43029   4.43029   4.43247
  Beta virt. eigenvalues --    4.43305   4.43305   4.43430   4.43553   4.43801
  Beta virt. eigenvalues --    4.44021   4.44048   4.44585   4.44691   4.45323
  Beta virt. eigenvalues --    4.45619   4.46117   4.46729   4.49650   4.61642
  Beta virt. eigenvalues --   96.17901  96.18492  96.18963  96.23630  96.26233
  Beta virt. eigenvalues --   96.28789  96.37458
          Condensed to atoms (all electrons):
               1          2          3          4          5          6
     1  Na  10.712585   0.000000   0.282708  -0.040046  -0.030996  -0.003016
     2  Na   0.000000  11.004882   0.000000   0.000000   0.000000   0.000000
     3  Na   0.282708   0.000000  10.917030  -0.018908  -0.020208  -0.020117
     4  Na  -0.040046   0.000000  -0.018908  10.597737   0.188532  -0.053241
     5  Na  -0.030996   0.000000  -0.020208   0.188532  11.044249   0.148319
     6  Na  -0.003016   0.000000  -0.020117  -0.053241   0.148319  10.862346
     7  Na   0.000000  -0.004882   0.000000   0.000000   0.000000   0.000000
               7
     1  Na   0.000000
     2  Na  -0.004882
     3  Na   0.000000
     4  Na   0.000000
     5  Na   0.000000
     6  Na   0.000000
     7  Na  11.004882
          Atomic-Atomic Spin Densities.
               1          2          3          4          5          6
     1  Na  -0.292430   0.000000  -0.033822   0.012560  -0.005981   0.000227
     2  Na   0.000000   1.004431   0.000000   0.000000   0.000000   0.000000
     3  Na  -0.033822   0.000000   0.232367   0.006528  -0.043079   0.000815
     4  Na   0.012560   0.000000   0.006528  -0.178823  -0.054995   0.010718
     5  Na  -0.005981   0.000000  -0.043079  -0.054995   0.239058  -0.035549
     6  Na   0.000227   0.000000   0.000815   0.010718  -0.035549  -0.715017
     7  Na   0.000000  -0.004431   0.000000   0.000000   0.000000   0.000000
               7
     1  Na   0.000000
     2  Na  -0.004431
     3  Na   0.000000
     4  Na   0.000000
     5  Na   0.000000
     6  Na   0.000000
     7  Na   1.004431
 Mulliken charges and spin densities:
               1          2
     1  Na   0.078765  -0.319445
     2  Na  -0.000000   1.000000
     3  Na  -0.140505   0.162809
     4  Na   0.325926  -0.204012
     5  Na  -0.329895   0.099454
     6  Na   0.065709  -0.738806
     7  Na   0.000000   1.000000
 Sum of Mulliken charges =  -0.00000   1.00000
 Mulliken charges and spin densities with hydrogens summed into heavy atoms:
               1          2
     1  Na   0.078765  -0.319445
     2  Na  -0.000000   1.000000
     3  Na  -0.140505   0.162809
     4  Na   0.325926  -0.204012
     5  Na  -0.329895   0.099454
     6  Na   0.065709  -0.738806
     7  Na   0.000000   1.000000
 Electronic spatial extent (au):  <R**2>=         532222.4280
 Charge=             -0.0000 electrons
 Dipole moment (field-independent basis, Debye):
    X=              0.1313    Y=             -0.8473    Z=              0.0257  Tot=              0.8578
 Quadrupole moment (field-independent basis, Debye-Ang):
   XX=            -67.5770   YY=            -59.4788   ZZ=            -73.8554
   XY=            -25.6536   XZ=             -2.7594   YZ=              4.5155
 Traceless Quadrupole moment (field-independent basis, Debye-Ang):
   XX=             -0.6066   YY=              7.4916   ZZ=             -6.8850
   XY=            -25.6536   XZ=             -2.7594   YZ=              4.5155
 Octapole moment (field-independent basis, Debye-Ang**2):
  XXX=            722.7475  YYY=             23.3685  ZZZ=             11.6728  XYY=            617.0380
  XXY=           -775.7164  XXZ=           -167.3327  XZZ=            162.1209  YZZ=             -4.0994
  YYZ=            -23.1141  XYZ=            125.9554
 Hexadecapole moment (field-independent basis, Debye-Ang**3):
 XXXX=        -885076.3716 YYYY=          -7586.7356 ZZZZ=           -672.2719 XXXY=         -23380.3791
 XXXZ=          -7033.4358 YYYX=            697.3273 YYYZ=             78.5186 ZZZX=            283.3479
 ZZZY=             41.0229 XXYY=        -136433.3609 XXZZ=        -149006.3582 YYZZ=          -1637.2248
 XXYZ=           3524.0659 YYXZ=           -701.0504 ZZXY=           -133.6451
 N-N= 1.298597160537D+02 E-N=-2.988028448485D+03  KE= 1.132757042743D+03
                          Isotropic Fermi Contact Couplings
        Atom                 a.u.       MegaHertz       Gauss      10(-4) cm-1
     1  Na(23)            -0.28456    -336.64648    -120.12384    -112.29318
     2  Na(23)             0.79356     938.80330     334.98836     313.15107
     3  Na(23)             0.18092     214.03453      76.37284      71.39423
     4  Na(23)            -0.20289    -240.01929     -85.64485     -80.06182
     5  Na(23)             0.15411     182.31771      65.05549      60.81464
     6  Na(23)            -0.63288    -748.71414    -267.15982    -249.74415
     7  Na(23)             0.79356     938.80330     334.98836     313.15107
 --------------------------------------------------------
       Center         ----  Spin Dipole Couplings  ----
                      3XX-RR        3YY-RR        3ZZ-RR
 --------------------------------------------------------
     1   Atom       -0.001816      0.004140     -0.002324
     2   Atom       -0.000165      0.000338     -0.000173
     3   Atom        0.005192     -0.011176      0.005984
     4   Atom       -0.005851      0.011447     -0.005596
     5   Atom        0.012320     -0.024472      0.012151
     6   Atom       -0.000340      0.000831     -0.000491
     7   Atom       -0.000165      0.000338     -0.000173
 --------------------------------------------------------
                        XY            XZ            YZ
 --------------------------------------------------------
     1   Atom        0.001773     -0.000040     -0.000272
     2   Atom       -0.000067     -0.000003      0.000022
     3   Atom       -0.007973      0.002668      0.006180
     4   Atom        0.002049     -0.001269     -0.003072
     5   Atom        0.018757      0.008161     -0.019834
     6   Atom       -0.001265     -0.000716      0.001106
     7   Atom       -0.000067     -0.000003      0.000022
 --------------------------------------------------------


 ---------------------------------------------------------------------------------
              Anisotropic Spin Dipole Couplings in Principal Axis System
 ---------------------------------------------------------------------------------

       Atom             a.u.   MegaHertz   Gauss  10(-4) cm-1        Axes

              Baa    -0.0024    -0.333    -0.119    -0.111 -0.5119  0.1749  0.8411
     1 Na(23) Bbb    -0.0023    -0.322    -0.115    -0.108  0.8172 -0.2028  0.5395
              Bcc     0.0046     0.655     0.234     0.218  0.2649  0.9635 -0.0391
 
              Baa    -0.0002    -0.025    -0.009    -0.008  0.9910  0.1314 -0.0239
     2 Na(23) Bbb    -0.0002    -0.025    -0.009    -0.008  0.0294 -0.0396  0.9988
              Bcc     0.0003     0.049     0.018     0.016 -0.1303  0.9905  0.0432
 
              Baa    -0.0164    -2.321    -0.828    -0.774  0.3623  0.8866 -0.2875
     3 Na(23) Bbb     0.0080     1.125     0.401     0.375 -0.1562  0.3618  0.9191
              Bcc     0.0085     1.197     0.427     0.399  0.9189 -0.2880  0.2696
 
              Baa    -0.0070    -0.991    -0.354    -0.331  0.7010  0.0407  0.7120
     4 Na(23) Bbb    -0.0052    -0.740    -0.264    -0.247  0.7025 -0.2114 -0.6796
              Bcc     0.0123     1.731     0.618     0.578  0.1229  0.9766 -0.1768
 
              Baa    -0.0410    -5.790    -2.066    -1.931 -0.3582  0.8554  0.3742
     5 Na(23) Bbb     0.0202     2.848     1.016     0.950  0.9318  0.3020  0.2015
              Bcc     0.0208     2.942     1.050     0.981 -0.0594 -0.4208  0.9052
 
              Baa    -0.0011    -0.162    -0.058    -0.054  0.8733  0.4341  0.2210
     6 Na(23) Bbb    -0.0011    -0.158    -0.056    -0.053  0.0191 -0.4839  0.8749
              Bcc     0.0023     0.320     0.114     0.107 -0.4868  0.7599  0.4309
 
              Baa    -0.0002    -0.025    -0.009    -0.008  0.9911  0.1314 -0.0223
     7 Na(23) Bbb    -0.0002    -0.025    -0.009    -0.008  0.0277 -0.0399  0.9988
              Bcc     0.0003     0.049     0.018     0.016 -0.1304  0.9905  0.0432
 

 ---------------------------------------------------------------------------------

 No NMR shielding tensors so no spin-rotation constants.
 Leave Link  601 at Thu Nov 23 12:42:23 2023, MaxMem=   104857600 cpu:              15.6 elap:               7.9
 (Enter /home/sekinelabo/g16/l701.exe)
 ... and contract with generalized density number  0.
 Compute integral first derivatives.
 Leave Link  701 at Thu Nov 23 12:42:27 2023, MaxMem=   104857600 cpu:               7.2 elap:               3.6
 (Enter /home/sekinelabo/g16/l702.exe)
 L702 exits ... SP integral derivatives will be done elsewhere.
 Leave Link  702 at Thu Nov 23 12:42:28 2023, MaxMem=   104857600 cpu:               0.6 elap:               0.4
 (Enter /home/sekinelabo/g16/l703.exe)
 Integral derivatives from FoFJK, PRISM(SPDF).
 Compute integral first derivatives, UseDBF=F ICtDFT=           0.
 Calling FoFJK, ICntrl=      2127 FMM=F ISym2X=0 I1Cent= 0 IOpClX= 1 NMat=1 NMatS=1 NMatT=0.
 FoFJK:  IHMeth= 1 ICntrl=    2127 DoSepK=F KAlg= 0 I1Cent=           0 FoldK=F
 IRaf=         0 NMat=       1 IRICut=       1 DoRegI=T DoRafI=F ISym2E= 0 IDoP0=0 IntGTp=1.
 FoFCou: FMM=F IPFlag=           0 FMFlag=      100000 FMFlg1=         800
         NFxFlg=           0 DoJE=F BraDBF=F KetDBF=F FulRan=T
         wScrn=  0.000000 ICntrl=      2127 IOpCl=  1 I1Cent=           0 NGrid=           0
         NMat0=    1 NMatS0=      1 NMatT0=    0 NMatD0=    1 NMtDS0=    0 NMtDT0=    0
 Symmetry not used in FoFCou.
 Leave Link  703 at Thu Nov 23 12:42:39 2023, MaxMem=   104857600 cpu:              22.9 elap:              11.7
 (Enter /home/sekinelabo/g16/l716.exe)
 Dipole        = 5.16484762D-02-3.33359110D-01 1.01130040D-02
 ***** Axes restored to original set *****
 -------------------------------------------------------------------
 Center     Atomic                   Forces (Hartrees/Bohr)
 Number     Number              X              Y              Z
 -------------------------------------------------------------------
      1       11          -0.006273836    0.001722933    0.001511271
      2       11           0.000002908   -0.000000870    0.000000430
      3       11           0.004080952   -0.002770958   -0.000336589
      4       11           0.002647660    0.000198042   -0.000655323
      5       11          -0.002403682    0.002675571   -0.002205954
      6       11           0.001948907   -0.001825587    0.001686595
      7       11          -0.000002908    0.000000870   -0.000000430
 -------------------------------------------------------------------
 Cartesian Forces:  Max     0.006273836 RMS     0.002228774
 Z-matrix is all fixed cartesians, so copy forces.
 Force constants in Cartesian coordinates: 
                1             2             3             4             5 
      1  0.993005D-02
      2 -0.214216D-02  0.425297D-02
      3 -0.256220D-02 -0.113348D-02  0.151408D-02
      4  0.000000D+00  0.000000D+00  0.000000D+00  0.100000D+01
      5  0.000000D+00  0.000000D+00  0.000000D+00  0.000000D+00  0.100000D+01
      6  0.000000D+00  0.000000D+00  0.000000D+00  0.000000D+00  0.000000D+00
      7 -0.957397D-02  0.448447D-02  0.135040D-02  0.000000D+00  0.000000D+00
      8  0.166022D-02 -0.736928D-02  0.271071D-02  0.000000D+00  0.000000D+00
      9  0.263935D-02  0.169386D-02 -0.183828D-02  0.000000D+00  0.000000D+00
     10 -0.359752D-03 -0.234697D-02  0.120156D-02  0.000000D+00  0.000000D+00
     11  0.468972D-03  0.309985D-02 -0.161336D-02  0.000000D+00  0.000000D+00
     12 -0.955251D-04 -0.583697D-03  0.273019D-03  0.000000D+00  0.000000D+00
     13  0.367985D-05  0.466933D-05  0.102466D-04  0.000000D+00  0.000000D+00
     14  0.129746D-04  0.164634D-04  0.361279D-04  0.000000D+00  0.000000D+00
     15  0.183791D-04  0.233211D-04  0.511767D-04  0.000000D+00  0.000000D+00
     16  0.000000D+00  0.000000D+00  0.000000D+00  0.000000D+00  0.000000D+00
     17  0.000000D+00  0.000000D+00  0.000000D+00  0.000000D+00  0.000000D+00
     18  0.000000D+00  0.000000D+00  0.000000D+00  0.000000D+00  0.000000D+00
     19  0.000000D+00  0.000000D+00  0.000000D+00  0.000000D+00  0.000000D+00
     20  0.000000D+00  0.000000D+00  0.000000D+00  0.000000D+00  0.000000D+00
     21  0.000000D+00  0.000000D+00  0.000000D+00  0.000000D+00  0.000000D+00
                6             7             8             9            10 
      6  0.100000D+01
      7  0.000000D+00  0.185621D-01
      8  0.000000D+00 -0.429502D-02  0.176358D-01
      9  0.000000D+00 -0.385434D-02 -0.722964D-02  0.527633D-02
     10  0.000000D+00 -0.681214D-02  0.397967D-03  0.238005D-02  0.271905D-01
     11  0.000000D+00  0.204938D-02 -0.125359D-01  0.676592D-02 -0.116585D-01
     12  0.000000D+00  0.532889D-03  0.662094D-02 -0.441916D-02  0.201353D-02
     13  0.000000D+00 -0.217596D-02  0.223683D-02 -0.116506D-02 -0.200186D-01
     14  0.000000D+00 -0.223883D-02  0.226937D-02 -0.123014D-02  0.136075D-01
     15  0.000000D+00  0.197105D-02 -0.210200D-02  0.981104D-03 -0.559514D-02
     16  0.000000D+00  0.000000D+00  0.000000D+00  0.000000D+00  0.000000D+00
     17  0.000000D+00  0.000000D+00  0.000000D+00  0.000000D+00  0.000000D+00
     18  0.000000D+00  0.000000D+00  0.000000D+00  0.000000D+00  0.000000D+00
     19  0.000000D+00  0.000000D+00  0.000000D+00  0.000000D+00  0.000000D+00
     20  0.000000D+00  0.000000D+00  0.000000D+00  0.000000D+00  0.000000D+00
     21  0.000000D+00  0.000000D+00  0.000000D+00  0.000000D+00  0.000000D+00
               11            12            13            14            15 
     11  0.242280D-01
     12 -0.137320D-01  0.911520D-02
     13  0.914017D-02 -0.245089D-02  0.221909D-01
     14 -0.147920D-01  0.769471D-02 -0.113817D-01  0.125062D-01
     15  0.857938D-02 -0.496906D-02  0.360571D-02 -0.650070D-02  0.393678D-02
     16  0.000000D+00  0.000000D+00  0.000000D+00  0.000000D+00  0.000000D+00
     17  0.000000D+00  0.000000D+00  0.000000D+00  0.000000D+00  0.000000D+00
     18  0.000000D+00  0.000000D+00  0.000000D+00  0.000000D+00  0.000000D+00
     19  0.000000D+00  0.000000D+00  0.000000D+00  0.000000D+00  0.000000D+00
     20  0.000000D+00  0.000000D+00  0.000000D+00  0.000000D+00  0.000000D+00
     21  0.000000D+00  0.000000D+00  0.000000D+00  0.000000D+00  0.000000D+00
               16            17            18            19            20 
     16  0.100000D+01
     17  0.000000D+00  0.100000D+01
     18  0.000000D+00  0.000000D+00  0.100000D+01
     19  0.000000D+00  0.000000D+00  0.000000D+00  0.100000D+01
     20  0.000000D+00  0.000000D+00  0.000000D+00  0.000000D+00  0.100000D+01
     21  0.000000D+00  0.000000D+00  0.000000D+00  0.000000D+00  0.000000D+00
               21 
     21  0.100000D+01
 Leave Link  716 at Thu Nov 23 12:42:40 2023, MaxMem=   104857600 cpu:               0.7 elap:               0.4
 (Enter /home/sekinelabo/g16/l103.exe)

 GradGradGradGradGradGradGradGradGradGradGradGradGradGradGradGradGradGrad
 Berny optimization.
 Search for a local minimum.
 Step number   1 out of a maximum of    2
 All quantities printed in internal units (Hartrees-Bohrs-Radians)
 Second derivative matrix not updated -- first step.
 ITU=  0
     Eigenvalues ---    0.00019   0.00034   0.00270   0.00735   0.01221
     Eigenvalues ---    0.02873   0.03701   0.07071   0.30203   0.57143
     Eigenvalues ---    0.79444   0.90827   1.00000   1.00000   1.00000
 Quadratic step=1.721D+00 exceeds max=3.000D-01 adjusted using Lamda=-1.162D-02.
 Angle between NR and scaled steps=  60.77 degrees.
 Angle between quadratic step and forces=  31.11 degrees.
 Linear search not attempted -- first point.
 B after Tr=     0.000000    0.000000    0.000000
         Rot=    1.000000    0.000000    0.000000    0.000000 Ang=   0.00 deg.
 Variable       Old X    -DE/DX   Delta X   Delta X   Delta X     New X
                                 (Linear)    (Quad)   (Total)
    X1       23.80337  -0.00627   0.00000  -0.20786  -0.20786  23.59551
    Y1        1.77772   0.00172   0.00000   0.05030   0.05030   1.82802
    Z1        2.05287   0.00151   0.00000   0.10099   0.10099   2.15386
    X2       20.52280   0.00000   0.00000   0.00323   0.00323  20.52604
    Y2        6.03992  -0.00000   0.00000   0.00041   0.00041   6.04033
    Z2      188.32160   0.00000   0.00000   0.00030   0.00030 188.32190
    X3       16.79326   0.00408   0.00000   0.09000   0.09000  16.88326
    Y3        3.69406  -0.00277   0.00000  -0.07754  -0.07754   3.61652
    Z3        3.69714  -0.00034   0.00000   0.01766   0.01766   3.71480
    X4       11.22892   0.00265   0.00000   0.08830   0.08830  11.31722
    Y4        0.16063   0.00020   0.00000   0.00408   0.00408   0.16471
    Z4        7.30562  -0.00066   0.00000  -0.02088  -0.02088   7.28475
    X5        6.56842  -0.00240   0.00000   0.02160   0.02160   6.59002
    Y5        3.46073   0.00268   0.00000   0.02681   0.02681   3.48755
    Z5        5.90906  -0.00221   0.00000  -0.10093  -0.10093   5.80813
    X6        1.37326   0.00195   0.00000   0.00191   0.00191   1.37517
    Y6        8.07712  -0.00183   0.00000  -0.00322  -0.00322   8.07391
    Z6        1.76574   0.00169   0.00000   0.00228   0.00228   1.76802
    X7        3.44185  -0.00000   0.00000   0.00282   0.00282   3.44467
    Y7       11.09146   0.00000   0.00000  -0.00084  -0.00084  11.09062
    Z7      185.83964  -0.00000   0.00000   0.00057   0.00057 185.84021
         Item               Value     Threshold  Converged?
 Maximum Force            0.006274     0.000450     NO 
 RMS     Force            0.002229     0.000300     NO 
 Maximum Displacement     0.207860     0.001800     NO 
 RMS     Displacement     0.065473     0.001200     NO 
 Predicted change in Energy=-1.834762D-03
 GradGradGradGradGradGradGradGradGradGradGradGradGradGradGradGradGradGrad

 Leave Link  103 at Thu Nov 23 12:42:42 2023, MaxMem=   104857600 cpu:               3.9 elap:               2.0
 (Enter /home/sekinelabo/g16/l9999.exe)
 1\1\GINC-SEKINELABO-XA7R-R37\Force\UB3LYP\6-311+G(d)\Na7(2)\SEKINELABO
 \23-Nov-2023\0\\#P B3LYP/6-311+g(d) force\\DPGEN\\0,2\Na,12.5962,0.940
 73,1.08633\Na,10.8602,3.19619,99.6555\Na,8.88661,1.95481,1.95644\Na,5.
 94209,0.085,3.86597\Na,3.47586,1.83134,3.12694\Na,0.726697,4.27423,0.9
 34389\Na,1.82135,5.86935,98.3421\\Version=ES64L-G16RevB.01\State=2-A\H
 F=-1136.0630721\S2=1.858967\S2-1=0.\S2A=1.117346\RMSD=6.419e-09\RMSF=2
 .229e-03\Dipole=-0.3256827,0.070455,-0.0535259\Quadrupole=3.3414628,-3
 .2462944,-0.0951685,-4.9978622,18.1317546,-6.5855555\PG=C01 [X(Na7)]\\
 @


 FROM AN ANONYMOUS WRITER, ON PERSPECTIVE:

 MAN, DESPITE HIS ARTISTIC PRETENSIONS, HIS SOPHISTICATION AND MANY 
 ACCOMPLISHMENTS, OWES THE FACT OF HIS EXISTENCE TO A SIX-INCH LAYER OF 
 TOPSOIL AND THE FACT THAT IT RAINS.
 Job cpu time:       0 days  0 hours 11 minutes 53.9 seconds.
 Elapsed time:       0 days  0 hours 12 minutes 21.4 seconds.
 File lengths (MBytes):  RWF=     46 Int=      0 D2E=      0 Chk=      4 Scr=      1
 Normal termination of Gaussian 16 at Thu Nov 23 12:42:42 2023.
