 Entering Gaussian System, Link 0=/home/masato/g16/g16
 Initial command:
 /home/masato/g16/l1.exe "/home/masato/g16temp/Gau-38813.inp" -scrdir="/home/masato/g16temp/"
 Entering Link 1 = /home/masato/g16/l1.exe PID=     38816.
  
 Copyright (c) 1988-2017, Gaussian, Inc.  All Rights Reserved.
  
 This is part of the Gaussian(R) 16 program.  It is based on
 the Gaussian(R) 09 system (copyright 2009, Gaussian, Inc.),
 the Gaussian(R) 03 system (copyright 2003, Gaussian, Inc.),
 the Gaussian(R) 98 system (copyright 1998, Gaussian, Inc.),
 the Gaussian(R) 94 system (copyright 1995, Gaussian, Inc.),
 the Gaussian 92(TM) system (copyright 1992, Gaussian, Inc.),
 the Gaussian 90(TM) system (copyright 1990, Gaussian, Inc.),
 the Gaussian 88(TM) system (copyright 1988, Gaussian, Inc.),
 the Gaussian 86(TM) system (copyright 1986, Carnegie Mellon
 University), and the Gaussian 82(TM) system (copyright 1983,
 Carnegie Mellon University). Gaussian is a federally registered
 trademark of Gaussian, Inc.
  
 This software contains proprietary and confidential information,
 including trade secrets, belonging to Gaussian, Inc.
  
 This software is provided under written license and may be
 used, copied, transmitted, or stored only in accord with that
 written license.
  
 The following legend is applicable only to US Government
 contracts under FAR:
  
                    RESTRICTED RIGHTS LEGEND
  
 Use, reproduction and disclosure by the US Government is
 subject to restrictions as set forth in subparagraphs (a)
 and (c) of the Commercial Computer Software - Restricted
 Rights clause in FAR 52.227-19.
  
 Gaussian, Inc.
 340 Quinnipiac St., Bldg. 40, Wallingford CT 06492
  
  
 ---------------------------------------------------------------
 Warning -- This program may not be used in any manner that
 competes with the business of Gaussian, Inc. or will provide
 assistance to any competitor of Gaussian, Inc.  The licensee
 of this program is prohibited from giving any competitor of
 Gaussian, Inc. access to this program.  By using this program,
 the user acknowledges that Gaussian, Inc. is engaged in the
 business of creating and licensing software in the field of
 computational chemistry and represents and warrants to the
 licensee that it is not a competitor of Gaussian, Inc. and that
 it will not use this program in any manner prohibited above.
 ---------------------------------------------------------------
  

 Cite this work as:
 Gaussian 16, Revision B.01,
 M. J. Frisch, G. W. Trucks, H. B. Schlegel, G. E. Scuseria, 
 M. A. Robb, J. R. Cheeseman, G. Scalmani, V. Barone, 
 G. A. Petersson, H. Nakatsuji, X. Li, M. Caricato, A. V. Marenich, 
 J. Bloino, B. G. Janesko, R. Gomperts, B. Mennucci, H. P. Hratchian, 
 J. V. Ortiz, A. F. Izmaylov, J. L. Sonnenberg, D. Williams-Young, 
 F. Ding, F. Lipparini, F. Egidi, J. Goings, B. Peng, A. Petrone, 
 T. Henderson, D. Ranasinghe, V. G. Zakrzewski, J. Gao, N. Rega, 
 G. Zheng, W. Liang, M. Hada, M. Ehara, K. Toyota, R. Fukuda, 
 J. Hasegawa, M. Ishida, T. Nakajima, Y. Honda, O. Kitao, H. Nakai, 
 T. Vreven, K. Throssell, J. A. Montgomery, Jr., J. E. Peralta, 
 F. Ogliaro, M. J. Bearpark, J. J. Heyd, E. N. Brothers, K. N. Kudin, 
 V. N. Staroverov, T. A. Keith, R. Kobayashi, J. Normand, 
 K. Raghavachari, A. P. Rendell, J. C. Burant, S. S. Iyengar, 
 J. Tomasi, M. Cossi, J. M. Millam, M. Klene, C. Adamo, R. Cammi, 
 J. W. Ochterski, R. L. Martin, K. Morokuma, O. Farkas, 
 J. B. Foresman, and D. J. Fox, Gaussian, Inc., Wallingford CT, 2016.
 
 ******************************************
 Gaussian 16:  ES64L-G16RevB.01 20-Dec-2017
                 3-Jul-2023 
 ******************************************
 %NProcShared=8
 Will use up to    8 processors via shared memory.
 %mem=12GB
 %Chk=checkpoint.chk
 -------------------------
 #p B3LYP/6-311+g(d) force
 -------------------------
 1/10=7,30=1,38=1/1,3;
 2/12=2,17=6,18=5,40=1/2;
 3/5=4,6=6,7=11,11=2,25=1,30=1,71=1,74=-5/1,2,3;
 4//1;
 5/5=2,38=5/2;
 6/7=2,8=2,9=2,10=2,28=1/1;
 7/29=1/1,2,3,16;
 1/10=7,30=1/3;
 99//99;
 Leave Link    1 at Mon Jul  3 12:15:02 2023, MaxMem=  1610612736 cpu:               0.2 elap:               0.0
 (Enter /home/masato/g16/l101.exe)
 ----
 Test
 ----
 Symbolic Z-matrix:
 Charge =  0 Multiplicity = 1
 Na                    0.        0.        0. 
 Na                    0.        0.        2.27714 
 Na                    0.        0.        4.51136 
 Na                    0.        0.        9.03905 
 
 ITRead=  0  0  0  0
 MicOpt= -1 -1 -1 -1
 NAtoms=      4 NQM=        4 NQMF=       0 NMMI=      0 NMMIF=      0
                NMic=       0 NMicF=      0.
                    Isotopes and Nuclear Properties:
 (Nuclear quadrupole moments (NQMom) in fm**2, nuclear magnetic moments (NMagM)
  in nuclear magnetons)

  Atom         1           2           3           4
 IAtWgt=          23          23          23          23
 AtmWgt=  22.9897697  22.9897697  22.9897697  22.9897697
 NucSpn=           3           3           3           3
 AtZEff=  -0.0000000  -0.0000000  -0.0000000  -0.0000000
 NQMom=   10.4000000  10.4000000  10.4000000  10.4000000
 NMagM=    2.2175200   2.2175200   2.2175200   2.2175200
 AtZNuc=  11.0000000  11.0000000  11.0000000  11.0000000
 Leave Link  101 at Mon Jul  3 12:15:02 2023, MaxMem=  1610612736 cpu:               1.3 elap:               0.2
 (Enter /home/masato/g16/l103.exe)

 GradGradGradGradGradGradGradGradGradGradGradGradGradGradGradGradGradGrad
 Berny optimization.
 Initialization pass.
 Trust Radius=3.00D-01 FncErr=1.00D-07 GrdErr=1.00D-07 EigMax=2.50D+02 EigMin=1.00D-04
 Number of steps in this run=      2 maximum allowed number of steps=      2.
 GradGradGradGradGradGradGradGradGradGradGradGradGradGradGradGradGradGrad

 Leave Link  103 at Mon Jul  3 12:15:02 2023, MaxMem=  1610612736 cpu:               0.1 elap:               0.0
 (Enter /home/masato/g16/l202.exe)
                          Input orientation:                          
 ---------------------------------------------------------------------
 Center     Atomic      Atomic             Coordinates (Angstroms)
 Number     Number       Type             X           Y           Z
 ---------------------------------------------------------------------
      1         11           0        0.000000    0.000000    0.000000
      2         11           0        0.000000    0.000000    2.277141
      3         11           0        0.000000    0.000000    4.511360
      4         11           0        0.000000    0.000000    9.039050
 ---------------------------------------------------------------------
                    Distance matrix (angstroms):
                    1          2          3          4
     1  Na   0.000000
     2  Na   2.277141   0.000000
     3  Na   4.511360   2.234219   0.000000
     4  Na   9.039050   6.761909   4.527690   0.000000
 Stoichiometry    Na4
 Framework group  C*V[C*(NaNaNaNa)]
 Deg. of freedom     3
 Full point group                 C*V     NOp   4
 Largest Abelian subgroup         C2V     NOp   4
 Largest concise Abelian subgroup C1      NOp   1
                         Standard orientation:                         
 ---------------------------------------------------------------------
 Center     Atomic      Atomic             Coordinates (Angstroms)
 Number     Number       Type             X           Y           Z
 ---------------------------------------------------------------------
      1         11           0        0.000000    0.000000   -3.956888
      2         11           0        0.000000    0.000000   -1.679747
      3         11           0        0.000000    0.000000    0.554472
      4         11           0        0.000000    0.000000    5.082162
 ---------------------------------------------------------------------
 Rotational constants (GHZ):           0.0000000           0.4927292           0.4927292
 Leave Link  202 at Mon Jul  3 12:15:02 2023, MaxMem=  1610612736 cpu:               0.0 elap:               0.0
 (Enter /home/masato/g16/l301.exe)
 Standard basis: 6-311+G(d) (5D, 7F)
 Ernie: Thresh=  0.10000D-02 Tol=  0.10000D-05 Strict=F.
 There are    64 symmetry adapted cartesian basis functions of A1  symmetry.
 There are     4 symmetry adapted cartesian basis functions of A2  symmetry.
 There are    28 symmetry adapted cartesian basis functions of B1  symmetry.
 There are    28 symmetry adapted cartesian basis functions of B2  symmetry.
 There are    60 symmetry adapted basis functions of A1  symmetry.
 There are     4 symmetry adapted basis functions of A2  symmetry.
 There are    28 symmetry adapted basis functions of B1  symmetry.
 There are    28 symmetry adapted basis functions of B2  symmetry.
   120 basis functions,   200 primitive gaussians,   124 cartesian basis functions
    22 alpha electrons       22 beta electrons
       nuclear repulsion energy       101.6659420836 Hartrees.
 IExCor=  402 DFT=T Ex+Corr=B3LYP ExCW=0 ScaHFX=  0.200000
 ScaDFX=  0.800000  0.720000  1.000000  0.810000 ScalE2=  1.000000  1.000000
 IRadAn=      5 IRanWt=     -1 IRanGd=            0 ICorTp=0 IEmpDi=  4
 NAtoms=    4 NActive=    4 NUniq=    4 SFac= 1.00D+00 NAtFMM=   60 NAOKFM=F Big=F
 Integral buffers will be    131072 words long.
 Raffenetti 2 integral format.
 Two-electron integral symmetry is turned on.
 Leave Link  301 at Mon Jul  3 12:15:02 2023, MaxMem=  1610612736 cpu:               0.3 elap:               0.0
 (Enter /home/masato/g16/l302.exe)
 NPDir=0 NMtPBC=     1 NCelOv=     1 NCel=       1 NClECP=     1 NCelD=      1
         NCelK=      1 NCelE2=     1 NClLst=     1 CellRange=     0.0.
 One-electron integrals computed using PRISM.
 One-electron integral symmetry used in STVInt
 NBasis=   120 RedAO= T EigKep=  5.77D-05  NBF=    60     4    28    28
 NBsUse=   118 1.00D-06 EigRej=  1.87D-07 NBFU=    58     4    28    28
 Precomputing XC quadrature grid using
 IXCGrd= 4 IRadAn=           5 IRanWt=          -1 IRanGd=           0 AccXCQ= 0.00D+00.
 Generated NRdTot=       0 NPtTot=           0 NUsed=           0 NTot=          32
 NSgBfM=   115   115   115   115   115 MxSgAt=     4 MxSgA2=     4.
 Leave Link  302 at Mon Jul  3 12:15:02 2023, MaxMem=  1610612736 cpu:               1.0 elap:               0.1
 (Enter /home/masato/g16/l303.exe)
 DipDrv:  MaxL=1.
 Leave Link  303 at Mon Jul  3 12:15:02 2023, MaxMem=  1610612736 cpu:               0.2 elap:               0.0
 (Enter /home/masato/g16/l401.exe)
 ExpMin= 7.60D-03 ExpMax= 3.62D+04 ExpMxC= 1.21D+03 IAcc=3 IRadAn=         5 AccDes= 0.00D+00
 Harris functional with IExCor=  402 and IRadAn=       5 diagonalized for initial guess.
 HarFok:  IExCor=  402 AccDes= 0.00D+00 IRadAn=         5 IDoV= 1 UseB2=F ITyADJ=14
 ICtDFT=  3500011 ScaDFX=  1.000000  1.000000  1.000000  1.000000
 FoFCou: FMM=F IPFlag=           0 FMFlag=      100000 FMFlg1=           0
         NFxFlg=           0 DoJE=T BraDBF=F KetDBF=T FulRan=T
         wScrn=  0.000000 ICntrl=       500 IOpCl=  0 I1Cent=   200000004 NGrid=           0
         NMat0=    1 NMatS0=      1 NMatT0=    0 NMatD0=    1 NMtDS0=    0 NMtDT0=    0
 Petite list used in FoFCou.
 Harris En= -649.009923922319    
 JPrj=0 DoOrth=F DoCkMO=F.
 Initial guess orbital symmetries:
       Occupied  (SG) (SG) (SG) (SG) (SG) (SG) (SG) (SG) (SG) (PI)
                 (PI) (SG) (PI) (PI) (PI) (PI) (SG) (SG) (PI) (PI)
                 (SG) (SG)
       Virtual   (SG) (PI) (PI) (SG) (PI) (PI) (SG) (PI) (PI) (SG)
                 (SG) (PI) (PI) (SG) (PI) (PI) (SG) (PI) (PI) (SG)
                 (PI) (PI) (SG) (PI) (PI) (SG) (SG) (SG) (PI) (PI)
                 (SG) (PI) (PI) (PI) (PI) (SG) (SG) (PI) (PI) (SG)
                 (SG) (SG) (SG) (DLTA) (DLTA) (SG) (PI) (PI) (DLTA)
                 (DLTA) (DLTA) (DLTA) (PI) (PI) (PI) (PI) (SG)
                 (SG) (PI) (PI) (DLTA) (DLTA) (PI) (PI) (SG) (PI)
                 (PI) (SG) (SG) (SG) (PI) (PI) (SG) (PI) (PI) (SG)
                 (SG) (SG) (SG) (SG) (PI) (PI) (PI) (PI) (SG) (PI)
                 (PI) (PI) (PI) (SG) (SG) (SG) (SG) (SG) (SG) (SG)
 The electronic state of the initial guess is 1-SG.
 Leave Link  401 at Mon Jul  3 12:15:02 2023, MaxMem=  1610612736 cpu:               1.1 elap:               0.1
 (Enter /home/masato/g16/l502.exe)
 Keep R1 ints in memory in symmetry-blocked form, NReq=33989586.
 FoFCou: FMM=F IPFlag=           0 FMFlag=           0 FMFlg1=           0
         NFxFlg=           0 DoJE=F BraDBF=F KetDBF=F FulRan=T
         wScrn=  0.000000 ICntrl=       600 IOpCl=  0 I1Cent=           0 NGrid=           0
         NMat0=    1 NMatS0=   7260 NMatT0=    0 NMatD0=    1 NMtDS0=    0 NMtDT0=    0
 Petite list used in FoFCou.
 Closed shell SCF:
 Using DIIS extrapolation, IDIIS=  1040.
 NGot=  1610612736 LenX=  1603304448 LenY=  1603288631
 Requested convergence on RMS density matrix=1.00D-08 within 128 cycles.
 Requested convergence on MAX density matrix=1.00D-06.
 Requested convergence on             energy=1.00D-06.
 No special actions if energy rises.

 Cycle   1  Pass 1  IDiag  1:
 E= -649.125715645357    
 DIIS: error= 1.36D-02 at cycle   1 NSaved=   1.
 NSaved= 1 IEnMin= 1 EnMin= -649.125715645357     IErMin= 1 ErrMin= 1.36D-02
 ErrMax= 1.36D-02  0.00D+00 EMaxC= 1.00D-01 BMatC= 2.79D-02 BMatP= 2.79D-02
 IDIUse=3 WtCom= 8.64D-01 WtEn= 1.36D-01
 Coeff-Com:  0.100D+01
 Coeff-En:   0.100D+01
 Coeff:      0.100D+01
 Gap=     0.035 Goal=   None    Shift=    0.000
 GapD=    0.035 DampG=0.250 DampE=0.500 DampFc=0.2500 IDamp=-1.
 Damping current iteration by 2.50D-01
 RMSDP=4.06D-03 MaxDP=1.47D-01              OVMax= 8.70D-02

 Cycle   2  Pass 1  IDiag  1:
 E= -649.129783504993     Delta-E=       -0.004067859636 Rises=F Damp=T
 DIIS: error= 9.61D-03 at cycle   2 NSaved=   2.
 NSaved= 2 IEnMin= 2 EnMin= -649.129783504993     IErMin= 2 ErrMin= 9.61D-03
 ErrMax= 9.61D-03  0.00D+00 EMaxC= 1.00D-01 BMatC= 1.06D-02 BMatP= 2.79D-02
 IDIUse=3 WtCom= 9.04D-01 WtEn= 9.61D-02
 Coeff-Com: -0.127D+01 0.227D+01
 Coeff-En:   0.000D+00 0.100D+01
 Coeff:     -0.115D+01 0.215D+01
 Gap=     0.035 Goal=   None    Shift=    0.000
 RMSDP=3.13D-03 MaxDP=9.63D-02 DE=-4.07D-03 OVMax= 1.17D-01

 Cycle   3  Pass 1  IDiag  1:
 E= -649.136566602614     Delta-E=       -0.006783097621 Rises=F Damp=F
 DIIS: error= 2.33D-03 at cycle   3 NSaved=   3.
 NSaved= 3 IEnMin= 3 EnMin= -649.136566602614     IErMin= 3 ErrMin= 2.33D-03
 ErrMax= 2.33D-03  0.00D+00 EMaxC= 1.00D-01 BMatC= 2.33D-04 BMatP= 1.06D-02
 IDIUse=3 WtCom= 9.77D-01 WtEn= 2.33D-02
 Coeff-Com: -0.502D-01 0.124D+00 0.926D+00
 Coeff-En:   0.000D+00 0.000D+00 0.100D+01
 Coeff:     -0.491D-01 0.121D+00 0.928D+00
 Gap=     0.036 Goal=   None    Shift=    0.000
 RMSDP=3.29D-03 MaxDP=1.60D-01 DE=-6.78D-03 OVMax= 2.54D-01

 Cycle   4  Pass 1  IDiag  1:
 E= -649.125392389896     Delta-E=        0.011174212717 Rises=F Damp=F
 DIIS: error= 6.72D-03 at cycle   4 NSaved=   4.
 NSaved= 4 IEnMin= 3 EnMin= -649.136566602614     IErMin= 3 ErrMin= 2.33D-03
 ErrMax= 6.72D-03  0.00D+00 EMaxC= 1.00D-01 BMatC= 1.58D-03 BMatP= 2.33D-04
 IDIUse=3 WtCom= 1.09D-01 WtEn= 8.91D-01
 Coeff-Com:  0.432D-01-0.550D-01 0.741D+00 0.271D+00
 Coeff-En:   0.000D+00 0.000D+00 0.814D+00 0.186D+00
 Coeff:      0.469D-02-0.598D-02 0.806D+00 0.195D+00
 Gap=     0.036 Goal=   None    Shift=    0.000
 RMSDP=1.79D-03 MaxDP=9.31D-02 DE= 1.12D-02 OVMax= 1.39D-01

 Cycle   5  Pass 1  IDiag  1:
 E= -649.137067000656     Delta-E=       -0.011674610760 Rises=F Damp=F
 DIIS: error= 1.87D-03 at cycle   5 NSaved=   5.
 NSaved= 5 IEnMin= 5 EnMin= -649.137067000656     IErMin= 5 ErrMin= 1.87D-03
 ErrMax= 1.87D-03  0.00D+00 EMaxC= 1.00D-01 BMatC= 1.52D-04 BMatP= 2.33D-04
 IDIUse=3 WtCom= 9.81D-01 WtEn= 1.87D-02
 Coeff-Com: -0.529D-02 0.625D-02 0.378D+00-0.714D-01 0.693D+00
 Coeff-En:   0.000D+00 0.000D+00 0.436D+00 0.000D+00 0.564D+00
 Coeff:     -0.519D-02 0.614D-02 0.379D+00-0.701D-01 0.690D+00
 Gap=     0.036 Goal=   None    Shift=    0.000
 RMSDP=6.30D-04 MaxDP=3.14D-02 DE=-1.17D-02 OVMax= 5.15D-02

 Cycle   6  Pass 1  IDiag  1:
 E= -649.138105323246     Delta-E=       -0.001038322590 Rises=F Damp=F
 DIIS: error= 7.92D-05 at cycle   6 NSaved=   6.
 NSaved= 6 IEnMin= 6 EnMin= -649.138105323246     IErMin= 6 ErrMin= 7.92D-05
 ErrMax= 7.92D-05  0.00D+00 EMaxC= 1.00D-01 BMatC= 2.99D-07 BMatP= 1.52D-04
 IDIUse=1 WtCom= 1.00D+00 WtEn= 0.00D+00
 Coeff-Com: -0.256D-02 0.320D-02 0.568D-01-0.281D-01 0.129D+00 0.842D+00
 Coeff:     -0.256D-02 0.320D-02 0.568D-01-0.281D-01 0.129D+00 0.842D+00
 Gap=     0.037 Goal=   None    Shift=    0.000
 RMSDP=4.07D-05 MaxDP=1.18D-03 DE=-1.04D-03 OVMax= 1.12D-03

 Cycle   7  Pass 1  IDiag  1:
 E= -649.138106493458     Delta-E=       -0.000001170212 Rises=F Damp=F
 DIIS: error= 4.83D-05 at cycle   7 NSaved=   7.
 NSaved= 7 IEnMin= 7 EnMin= -649.138106493458     IErMin= 7 ErrMin= 4.83D-05
 ErrMax= 4.83D-05  0.00D+00 EMaxC= 1.00D-01 BMatC= 6.03D-08 BMatP= 2.99D-07
 IDIUse=1 WtCom= 1.00D+00 WtEn= 0.00D+00
 Coeff-Com: -0.556D-03 0.701D-03 0.872D-02-0.921D-02 0.176D-01 0.274D+00
 Coeff-Com:  0.708D+00
 Coeff:     -0.556D-03 0.701D-03 0.872D-02-0.921D-02 0.176D-01 0.274D+00
 Coeff:      0.708D+00
 Gap=     0.037 Goal=   None    Shift=    0.000
 RMSDP=1.49D-05 MaxDP=6.46D-04 DE=-1.17D-06 OVMax= 1.19D-03

 Cycle   8  Pass 1  IDiag  1:
 E= -649.138106959457     Delta-E=       -0.000000465999 Rises=F Damp=F
 DIIS: error= 6.59D-06 at cycle   8 NSaved=   8.
 NSaved= 8 IEnMin= 8 EnMin= -649.138106959457     IErMin= 8 ErrMin= 6.59D-06
 ErrMax= 6.59D-06  0.00D+00 EMaxC= 1.00D-01 BMatC= 3.92D-09 BMatP= 6.03D-08
 IDIUse=1 WtCom= 1.00D+00 WtEn= 0.00D+00
 Coeff-Com:  0.289D-03-0.398D-03-0.462D-03-0.172D-03-0.887D-02 0.690D-01
 Coeff-Com:  0.309D+00 0.632D+00
 Coeff:      0.289D-03-0.398D-03-0.462D-03-0.172D-03-0.887D-02 0.690D-01
 Coeff:      0.309D+00 0.632D+00
 Gap=     0.037 Goal=   None    Shift=    0.000
 RMSDP=4.43D-06 MaxDP=1.88D-04 DE=-4.66D-07 OVMax= 1.75D-04

 Cycle   9  Pass 1  IDiag  1:
 E= -649.138106969906     Delta-E=       -0.000000010449 Rises=F Damp=F
 DIIS: error= 2.76D-06 at cycle   9 NSaved=   9.
 NSaved= 9 IEnMin= 9 EnMin= -649.138106969906     IErMin= 9 ErrMin= 2.76D-06
 ErrMax= 2.76D-06  0.00D+00 EMaxC= 1.00D-01 BMatC= 2.48D-10 BMatP= 3.92D-09
 IDIUse=1 WtCom= 1.00D+00 WtEn= 0.00D+00
 Coeff-Com:  0.148D-03-0.199D-03-0.198D-02 0.527D-03-0.617D-02 0.108D-02
 Coeff-Com:  0.670D-01 0.222D+00 0.718D+00
 Coeff:      0.148D-03-0.199D-03-0.198D-02 0.527D-03-0.617D-02 0.108D-02
 Coeff:      0.670D-01 0.222D+00 0.718D+00
 Gap=     0.037 Goal=   None    Shift=    0.000
 RMSDP=1.59D-06 MaxDP=3.24D-05 DE=-1.04D-08 OVMax= 6.52D-05

 Cycle  10  Pass 1  IDiag  1:
 E= -649.138106971313     Delta-E=       -0.000000001407 Rises=F Damp=F
 DIIS: error= 6.16D-07 at cycle  10 NSaved=  10.
 NSaved=10 IEnMin=10 EnMin= -649.138106971313     IErMin=10 ErrMin= 6.16D-07
 ErrMax= 6.16D-07  0.00D+00 EMaxC= 1.00D-01 BMatC= 1.10D-11 BMatP= 2.48D-10
 IDIUse=1 WtCom= 1.00D+00 WtEn= 0.00D+00
 Coeff-Com:  0.406D-04-0.545D-04-0.598D-03 0.261D-03-0.141D-02-0.474D-02
 Coeff-Com: -0.579D-03 0.222D-02 0.168D+00 0.837D+00
 Coeff:      0.406D-04-0.545D-04-0.598D-03 0.261D-03-0.141D-02-0.474D-02
 Coeff:     -0.579D-03 0.222D-02 0.168D+00 0.837D+00
 Gap=     0.037 Goal=   None    Shift=    0.000
 RMSDP=4.19D-07 MaxDP=1.24D-05 DE=-1.41D-09 OVMax= 8.64D-06

 Cycle  11  Pass 1  IDiag  1:
 E= -649.138106971358     Delta-E=       -0.000000000045 Rises=F Damp=F
 DIIS: error= 2.21D-07 at cycle  11 NSaved=  11.
 NSaved=11 IEnMin=11 EnMin= -649.138106971358     IErMin=11 ErrMin= 2.21D-07
 ErrMax= 2.21D-07  0.00D+00 EMaxC= 1.00D-01 BMatC= 2.28D-12 BMatP= 1.10D-11
 IDIUse=1 WtCom= 1.00D+00 WtEn= 0.00D+00
 Coeff-Com: -0.362D-05 0.481D-05-0.391D-04 0.144D-04 0.746D-04-0.353D-03
 Coeff-Com: -0.689D-03-0.116D-01-0.142D-01 0.167D+00 0.859D+00
 Coeff:     -0.362D-05 0.481D-05-0.391D-04 0.144D-04 0.746D-04-0.353D-03
 Coeff:     -0.689D-03-0.116D-01-0.142D-01 0.167D+00 0.859D+00
 Gap=     0.037 Goal=   None    Shift=    0.000
 RMSDP=1.20D-07 MaxDP=3.67D-06 DE=-4.51D-11 OVMax= 5.56D-06

 Cycle  12  Pass 1  IDiag  1:
 E= -649.138106971375     Delta-E=       -0.000000000017 Rises=F Damp=F
 DIIS: error= 4.79D-08 at cycle  12 NSaved=  12.
 NSaved=12 IEnMin=12 EnMin= -649.138106971375     IErMin=12 ErrMin= 4.79D-08
 ErrMax= 4.79D-08  0.00D+00 EMaxC= 1.00D-01 BMatC= 5.61D-14 BMatP= 2.28D-12
 IDIUse=1 WtCom= 1.00D+00 WtEn= 0.00D+00
 Coeff-Com: -0.317D-05 0.422D-05 0.527D-05-0.540D-05 0.607D-04 0.141D-03
 Coeff-Com:  0.525D-04-0.235D-02-0.623D-02-0.140D-01 0.245D+00 0.777D+00
 Coeff:     -0.317D-05 0.422D-05 0.527D-05-0.540D-05 0.607D-04 0.141D-03
 Coeff:      0.525D-04-0.235D-02-0.623D-02-0.140D-01 0.245D+00 0.777D+00
 Gap=     0.037 Goal=   None    Shift=    0.000
 RMSDP=2.24D-08 MaxDP=8.31D-07 DE=-1.73D-11 OVMax= 1.24D-06

 Cycle  13  Pass 1  IDiag  1:
 E= -649.138106971375     Delta-E=       -0.000000000000 Rises=F Damp=F
 DIIS: error= 9.41D-09 at cycle  13 NSaved=  13.
 NSaved=13 IEnMin=13 EnMin= -649.138106971375     IErMin=13 ErrMin= 9.41D-09
 ErrMax= 9.41D-09  0.00D+00 EMaxC= 1.00D-01 BMatC= 2.68D-15 BMatP= 5.61D-14
 IDIUse=1 WtCom= 1.00D+00 WtEn= 0.00D+00
 Coeff-Com:  0.517D-06-0.671D-06 0.375D-07 0.654D-06-0.702D-05-0.284D-04
 Coeff-Com: -0.385D-04 0.247D-03 0.612D-03-0.127D-02-0.161D-01 0.795D-02
 Coeff-Com:  0.101D+01
 Coeff:      0.517D-06-0.671D-06 0.375D-07 0.654D-06-0.702D-05-0.284D-04
 Coeff:     -0.385D-04 0.247D-03 0.612D-03-0.127D-02-0.161D-01 0.795D-02
 Coeff:      0.101D+01
 Gap=     0.037 Goal=   None    Shift=    0.000
 RMSDP=6.83D-09 MaxDP=1.84D-07 DE=-2.27D-13 OVMax= 3.44D-07

 SCF Done:  E(RB3LYP) =  -649.138106971     A.U. after   13 cycles
            NFock= 13  Conv=0.68D-08     -V/T= 2.0025
 KE= 6.475391885348D+02 PE=-1.761733421235D+03 EE= 3.633901836454D+02
 Leave Link  502 at Mon Jul  3 12:15:04 2023, MaxMem=  1610612736 cpu:              12.7 elap:               1.7
 (Enter /home/masato/g16/l601.exe)
 Copying SCF densities to generalized density rwf, IOpCl= 0 IROHF=0.

 **********************************************************************

            Population analysis using the SCF Density.

 **********************************************************************

 Orbital symmetries:
       Occupied  (SG) (SG) (SG) (SG) (SG) (SG) (SG) (SG) (SG) (PI)
                 (PI) (SG) (PI) (PI) (PI) (PI) (SG) (PI) (PI) (SG)
                 (SG) (SG)
       Virtual   (SG) (PI) (PI) (SG) (PI) (PI) (SG) (PI) (PI) (SG)
                 (SG) (PI) (PI) (SG) (PI) (PI) (SG) (PI) (PI) (SG)
                 (PI) (PI) (SG) (SG) (PI) (PI) (SG) (SG) (PI) (PI)
                 (SG) (PI) (PI) (PI) (PI) (SG) (SG) (PI) (PI) (SG)
                 (SG) (SG) (SG) (SG) (DLTA) (DLTA) (PI) (PI) (DLTA)
                 (DLTA) (DLTA) (DLTA) (PI) (PI) (PI) (PI) (SG)
                 (SG) (PI) (PI) (PI) (PI) (DLTA) (DLTA) (SG) (PI)
                 (PI) (SG) (SG) (SG) (PI) (PI) (SG) (PI) (PI) (SG)
                 (SG) (SG) (SG) (SG) (PI) (PI) (PI) (PI) (SG) (PI)
                 (PI) (PI) (PI) (SG) (SG) (SG) (SG) (SG) (SG) (SG)
 The electronic state is 1-SG.
 Alpha  occ. eigenvalues --  -38.47801 -38.46976 -38.46944 -38.45602  -2.24081
 Alpha  occ. eigenvalues --   -2.22916  -2.22842  -2.21287  -1.19301  -1.17424
 Alpha  occ. eigenvalues --   -1.17424  -1.16847  -1.16422  -1.16422  -1.16360
 Alpha  occ. eigenvalues --   -1.16360  -1.15759  -1.14965  -1.14965  -1.14914
 Alpha  occ. eigenvalues --   -0.16459  -0.11567
 Alpha virt. eigenvalues --   -0.07915  -0.04336  -0.04336  -0.03161  -0.01642
 Alpha virt. eigenvalues --   -0.01642  -0.00553  -0.00013  -0.00013   0.00304
 Alpha virt. eigenvalues --    0.00451   0.01148   0.01148   0.01403   0.01534
 Alpha virt. eigenvalues --    0.01534   0.01708   0.02379   0.02379   0.02890
 Alpha virt. eigenvalues --    0.03070   0.03070   0.03713   0.04360   0.04442
 Alpha virt. eigenvalues --    0.04442   0.05698   0.06142   0.07088   0.07088
 Alpha virt. eigenvalues --    0.07318   0.08243   0.08243   0.08553   0.08553
 Alpha virt. eigenvalues --    0.08717   0.09998   0.11748   0.11748   0.13007
 Alpha virt. eigenvalues --    0.14615   0.15809   0.17841   0.25670   0.26384
 Alpha virt. eigenvalues --    0.26384   0.28398   0.28398   0.33353   0.33353
 Alpha virt. eigenvalues --    0.34837   0.34837   0.35187   0.35187   0.36062
 Alpha virt. eigenvalues --    0.36062   0.37001   0.39185   0.41705   0.41705
 Alpha virt. eigenvalues --    0.43142   0.43142   0.43173   0.43173   0.43889
 Alpha virt. eigenvalues --    0.45133   0.45133   0.46505   0.48888   0.51561
 Alpha virt. eigenvalues --    0.52575   0.52575   0.70679   0.72135   0.72135
 Alpha virt. eigenvalues --    1.02365   2.03163   2.07913   2.18254   2.30610
 Alpha virt. eigenvalues --    4.40418   4.40418   4.43300   4.43300   4.45846
 Alpha virt. eigenvalues --    4.47085   4.47085   4.48062   4.48062   4.62753
 Alpha virt. eigenvalues --    4.63831   4.88578  96.22601  96.27806  96.43904
 Alpha virt. eigenvalues --   96.54587
          Condensed to atoms (all electrons):
               1          2          3          4
     1  Na  11.370810  -0.173658   0.389803  -0.068290
     2  Na  -0.173658  10.470576  -0.248062   0.135735
     3  Na   0.389803  -0.248062  11.214359  -0.041368
     4  Na  -0.068290   0.135735  -0.041368  10.955936
 Mulliken charges:
               1
     1  Na  -0.518665
     2  Na   0.815409
     3  Na  -0.314733
     4  Na   0.017988
 Sum of Mulliken charges =  -0.00000
 Mulliken charges with hydrogens summed into heavy atoms:
               1
     1  Na  -0.518665
     2  Na   0.815409
     3  Na  -0.314733
     4  Na   0.017988
 Electronic spatial extent (au):  <R**2>=           1836.4419
 Charge=              0.0000 electrons
 Dipole moment (field-independent basis, Debye):
    X=              0.0000    Y=              0.0000    Z=             -1.0751  Tot=              1.0751
 Quadrupole moment (field-independent basis, Debye-Ang):
   XX=            -44.0588   YY=            -44.0588   ZZ=            -24.7509
   XY=              0.0000   XZ=              0.0000   YZ=              0.0000
 Traceless Quadrupole moment (field-independent basis, Debye-Ang):
   XX=             -6.4360   YY=             -6.4360   ZZ=             12.8719
   XY=              0.0000   XZ=              0.0000   YZ=              0.0000
 Octapole moment (field-independent basis, Debye-Ang**2):
  XXX=              0.0000  YYY=              0.0000  ZZZ=             15.2272  XYY=              0.0000
  XXY=              0.0000  XXZ=             -7.5193  XZZ=              0.0000  YZZ=              0.0000
  YYZ=             -7.5193  XYZ=              0.0000
 Hexadecapole moment (field-independent basis, Debye-Ang**3):
 XXXX=           -177.7110 YYYY=           -177.7110 ZZZZ=          -2136.2371 XXXY=              0.0000
 XXXZ=              0.0000 YYYX=              0.0000 YYYZ=              0.0000 ZZZX=              0.0000
 ZZZY=              0.0000 XXYY=            -59.2370 XXZZ=           -540.7392 YYZZ=           -540.7392
 XXYZ=              0.0000 YYXZ=              0.0000 ZZXY=              0.0000
 N-N= 1.016659420836D+02 E-N=-1.761733422371D+03  KE= 6.475391885348D+02
 Symmetry A1   KE= 5.526262887909D+02
 Symmetry A2   KE=-9.391619981494D-53
 Symmetry B1   KE= 4.745644987196D+01
 Symmetry B2   KE= 4.745644987196D+01
 No NMR shielding tensors so no spin-rotation constants.
 Leave Link  601 at Mon Jul  3 12:15:04 2023, MaxMem=  1610612736 cpu:               0.7 elap:               0.1
 (Enter /home/masato/g16/l701.exe)
 ... and contract with generalized density number  0.
 Compute integral first derivatives.
 Leave Link  701 at Mon Jul  3 12:15:04 2023, MaxMem=  1610612736 cpu:               0.7 elap:               0.1
 (Enter /home/masato/g16/l702.exe)
 L702 exits ... SP integral derivatives will be done elsewhere.
 Leave Link  702 at Mon Jul  3 12:15:04 2023, MaxMem=  1610612736 cpu:               0.2 elap:               0.0
 (Enter /home/masato/g16/l703.exe)
 Integral derivatives from FoFJK, PRISM(SPDF).
 Compute integral first derivatives, UseDBF=F ICtDFT=           0.
 Calling FoFJK, ICntrl=      2127 FMM=F ISym2X=1 I1Cent= 0 IOpClX= 0 NMat=1 NMatS=1 NMatT=0.
 FoFJK:  IHMeth= 1 ICntrl=    2127 DoSepK=F KAlg= 0 I1Cent=           0 FoldK=F
 IRaf=         0 NMat=       1 IRICut=       1 DoRegI=T DoRafI=F ISym2E= 1 IDoP0=0 IntGTp=1.
 FoFCou: FMM=F IPFlag=           0 FMFlag=      100000 FMFlg1=         800
         NFxFlg=           0 DoJE=F BraDBF=F KetDBF=F FulRan=T
         wScrn=  0.000000 ICntrl=      2127 IOpCl=  0 I1Cent=           0 NGrid=           0
         NMat0=    1 NMatS0=      1 NMatT0=    0 NMatD0=    1 NMtDS0=    0 NMtDT0=    0
 Petite list used in FoFCou.
 Leave Link  703 at Mon Jul  3 12:15:05 2023, MaxMem=  1610612736 cpu:               4.8 elap:               0.7
 (Enter /home/masato/g16/l716.exe)
 Dipole        = 0.00000000D+00 0.00000000D+00-4.22962083D-01
 ***** Axes restored to original set *****
 -------------------------------------------------------------------
 Center     Atomic                   Forces (Hartrees/Bohr)
 Number     Number              X              Y              Z
 -------------------------------------------------------------------
      1       11          -0.000000000   -0.000000000   -0.034359005
      2       11          -0.000000000   -0.000000000   -0.003414333
      3       11          -0.000000000   -0.000000000    0.044678799
      4       11          -0.000000000   -0.000000000   -0.006905460
 -------------------------------------------------------------------
 Cartesian Forces:  Max     0.044678799 RMS     0.016421732
 Z-matrix is all fixed cartesians, so copy forces.
 Force constants in Cartesian coordinates: 
                1             2             3             4             5 
      1  0.135009D-01
      2  0.000000D+00  0.135009D-01
      3  0.000000D+00  0.000000D+00  0.155280D+00
      4 -0.272612D-01  0.000000D+00  0.000000D+00  0.550460D-01
      5  0.000000D+00 -0.272612D-01  0.000000D+00  0.000000D+00  0.550460D-01
      6  0.000000D+00  0.000000D+00 -0.155280D+00  0.000000D+00  0.000000D+00
      7  0.137603D-01  0.000000D+00  0.000000D+00 -0.277849D-01  0.000000D+00
      8  0.000000D+00  0.137603D-01  0.000000D+00  0.000000D+00 -0.277849D-01
      9  0.000000D+00  0.000000D+00  0.000000D+00  0.000000D+00  0.000000D+00
     10  0.000000D+00  0.000000D+00  0.000000D+00  0.000000D+00  0.000000D+00
     11  0.000000D+00  0.000000D+00  0.000000D+00  0.000000D+00  0.000000D+00
     12  0.000000D+00  0.000000D+00  0.000000D+00  0.000000D+00  0.000000D+00
                6             7             8             9            10 
      6  0.328770D+00
      7  0.000000D+00  0.140246D-01
      8  0.000000D+00  0.000000D+00  0.140246D-01
      9 -0.173490D+00  0.000000D+00  0.000000D+00  0.173490D+00
     10  0.000000D+00  0.000000D+00  0.000000D+00  0.000000D+00  0.100000D+01
     11  0.000000D+00  0.000000D+00  0.000000D+00  0.000000D+00  0.000000D+00
     12  0.000000D+00  0.000000D+00  0.000000D+00  0.000000D+00  0.000000D+00
               11            12 
     11  0.100000D+01
     12  0.000000D+00  0.100000D+01
 Leave Link  716 at Mon Jul  3 12:15:05 2023, MaxMem=  1610612736 cpu:               0.2 elap:               0.0
 (Enter /home/masato/g16/l103.exe)

 GradGradGradGradGradGradGradGradGradGradGradGradGradGradGradGradGradGrad
 Berny optimization.
 Search for a local minimum.
 Step number   1 out of a maximum of    2
 All quantities printed in internal units (Hartrees-Bohrs-Radians)
 Second derivative matrix not updated -- first step.
 The second derivative matrix:
                          X1        Y1        Z1        X2        Y2
           X1           0.01350
           Y1           0.00000   0.01350
           Z1           0.00000   0.00000   0.15528
           X2          -0.02726   0.00000   0.00000   0.05505
           Y2           0.00000  -0.02726   0.00000   0.00000   0.05505
           Z2           0.00000   0.00000  -0.15528   0.00000   0.00000
           X3           0.01376   0.00000   0.00000  -0.02778   0.00000
           Y3           0.00000   0.01376   0.00000   0.00000  -0.02778
           Z3           0.00000   0.00000   0.00000   0.00000   0.00000
           X4           0.00000   0.00000   0.00000   0.00000   0.00000
           Y4           0.00000   0.00000   0.00000   0.00000   0.00000
           Z4           0.00000   0.00000   0.00000   0.00000   0.00000
                          Z2        X3        Y3        Z3        X4
           Z2           0.32877
           X3           0.00000   0.01402
           Y3           0.00000   0.00000   0.01402
           Z3          -0.17349   0.00000   0.00000   0.17349
           X4           0.00000   0.00000   0.00000   0.00000   1.00000
           Y4           0.00000   0.00000   0.00000   0.00000   0.00000
           Z4           0.00000   0.00000   0.00000   0.00000   0.00000
                          Y4        Z4
           Y4           1.00000
           Z4           0.00000   1.00000
 ITU=  0
     Eigenvalues ---    0.08257   0.08257   0.16363   0.17107   0.17107
     Eigenvalues ---    0.49391   0.75000
 Quadratic step=3.398D-01 exceeds max=3.000D-01 adjusted using Lamda=-2.122D-02.
 Angle between NR and scaled steps=   0.33 degrees.
 Angle between quadratic step and forces=   8.74 degrees.
 ClnCor:  largest displacement from symmetrization is 8.72D-17 for atom     3.
 Linear search not attempted -- first point.
 ClnCor:  largest displacement from symmetrization is 3.33D-16 for atom     1.
 B after Tr=     0.000000    0.000000    0.000000
         Rot=    1.000000    0.000000    0.000000    0.000000 Ang=   0.00 deg.
 Variable       Old X    -DE/DX   Delta X   Delta X   Delta X     New X
                                 (Linear)    (Quad)   (Total)
    X1        0.00000  -0.00000   0.00000   0.00000   0.00000   0.00000
    Y1        0.00000  -0.00000   0.00000   0.00000   0.00000   0.00000
    Z1        0.00000  -0.03436   0.00000  -0.20788  -0.20788  -0.20788
    X2        0.00000  -0.00000   0.00000  -0.00000   0.00000   0.00000
    Y2        0.00000  -0.00000   0.00000   0.00000   0.00000   0.00000
    Z2        4.30317  -0.00341   0.00000  -0.00060  -0.00060   4.30257
    X3        0.00000  -0.00000   0.00000   0.00000   0.00000   0.00000
    Y3        0.00000  -0.00000   0.00000   0.00000   0.00000   0.00000
    Z3        8.52523   0.04468   0.00000   0.21743   0.21743   8.74267
    X4        0.00000  -0.00000   0.00000  -0.00000   0.00000   0.00000
    Y4        0.00000  -0.00000   0.00000   0.00000   0.00000   0.00000
    Z4       17.08133  -0.00691   0.00000  -0.00895  -0.00895  17.07237
         Item               Value     Threshold  Converged?
 Maximum Force            0.044679     0.000450     NO 
 RMS     Force            0.016422     0.000300     NO 
 Maximum Displacement     0.217433     0.001800     NO 
 RMS     Displacement     0.086877     0.001200     NO 
 Predicted change in Energy=-9.421465D-03
 GradGradGradGradGradGradGradGradGradGradGradGradGradGradGradGradGradGrad

 Leave Link  103 at Mon Jul  3 12:15:05 2023, MaxMem=  1610612736 cpu:               0.1 elap:               0.0
 (Enter /home/masato/g16/l9999.exe)
 1\1\GINC-MASATO-THINKPAD-T480S\Force\RB3LYP\6-311+G(d)\Na4\MASATO\03-J
 ul-2023\0\\#p B3LYP/6-311+g(d) force\\Test\\0,1\Na,0.,0.,0.\Na,0.,0.,2
 .2771408514\Na,0.,0.,4.5113596354\Na,0.,0.,9.0390497408\\Version=ES64L
 -G16RevB.01\State=1-SG\HF=-649.138107\RMSD=6.831e-09\RMSF=1.642e-02\Di
 pole=0.,0.,-0.4229621\Quadrupole=-4.7849761,-4.7849761,9.5699523,0.,0.
 ,0.\PG=C*V [C*(Na1Na1Na1Na1)]\\@


 KINETICS       FACT
 ---------  =  -------
 MECHANISM     FICTION
 Job cpu time:       0 days  0 hours  0 minutes 24.1 seconds.
 Elapsed time:       0 days  0 hours  0 minutes  3.2 seconds.
 File lengths (MBytes):  RWF=     11 Int=      0 D2E=      0 Chk=      2 Scr=      1
 Normal termination of Gaussian 16 at Mon Jul  3 12:15:05 2023.
 Initial command:
 /home/masato/g16/l1.exe "/home/masato/g16temp/Gau-38813.inp" -scrdir="/home/masato/g16temp/"
 Entering Link 1 = /home/masato/g16/l1.exe PID=     38930.
  
 Copyright (c) 1988-2017, Gaussian, Inc.  All Rights Reserved.
  
 This is part of the Gaussian(R) 16 program.  It is based on
 the Gaussian(R) 09 system (copyright 2009, Gaussian, Inc.),
 the Gaussian(R) 03 system (copyright 2003, Gaussian, Inc.),
 the Gaussian(R) 98 system (copyright 1998, Gaussian, Inc.),
 the Gaussian(R) 94 system (copyright 1995, Gaussian, Inc.),
 the Gaussian 92(TM) system (copyright 1992, Gaussian, Inc.),
 the Gaussian 90(TM) system (copyright 1990, Gaussian, Inc.),
 the Gaussian 88(TM) system (copyright 1988, Gaussian, Inc.),
 the Gaussian 86(TM) system (copyright 1986, Carnegie Mellon
 University), and the Gaussian 82(TM) system (copyright 1983,
 Carnegie Mellon University). Gaussian is a federally registered
 trademark of Gaussian, Inc.
  
 This software contains proprietary and confidential information,
 including trade secrets, belonging to Gaussian, Inc.
  
 This software is provided under written license and may be
 used, copied, transmitted, or stored only in accord with that
 written license.
  
 The following legend is applicable only to US Government
 contracts under FAR:
  
                    RESTRICTED RIGHTS LEGEND
  
 Use, reproduction and disclosure by the US Government is
 subject to restrictions as set forth in subparagraphs (a)
 and (c) of the Commercial Computer Software - Restricted
 Rights clause in FAR 52.227-19.
  
 Gaussian, Inc.
 340 Quinnipiac St., Bldg. 40, Wallingford CT 06492
  
  
 ---------------------------------------------------------------
 Warning -- This program may not be used in any manner that
 competes with the business of Gaussian, Inc. or will provide
 assistance to any competitor of Gaussian, Inc.  The licensee
 of this program is prohibited from giving any competitor of
 Gaussian, Inc. access to this program.  By using this program,
 the user acknowledges that Gaussian, Inc. is engaged in the
 business of creating and licensing software in the field of
 computational chemistry and represents and warrants to the
 licensee that it is not a competitor of Gaussian, Inc. and that
 it will not use this program in any manner prohibited above.
 ---------------------------------------------------------------
  

 Cite this work as:
 Gaussian 16, Revision B.01,
 M. J. Frisch, G. W. Trucks, H. B. Schlegel, G. E. Scuseria, 
 M. A. Robb, J. R. Cheeseman, G. Scalmani, V. Barone, 
 G. A. Petersson, H. Nakatsuji, X. Li, M. Caricato, A. V. Marenich, 
 J. Bloino, B. G. Janesko, R. Gomperts, B. Mennucci, H. P. Hratchian, 
 J. V. Ortiz, A. F. Izmaylov, J. L. Sonnenberg, D. Williams-Young, 
 F. Ding, F. Lipparini, F. Egidi, J. Goings, B. Peng, A. Petrone, 
 T. Henderson, D. Ranasinghe, V. G. Zakrzewski, J. Gao, N. Rega, 
 G. Zheng, W. Liang, M. Hada, M. Ehara, K. Toyota, R. Fukuda, 
 J. Hasegawa, M. Ishida, T. Nakajima, Y. Honda, O. Kitao, H. Nakai, 
 T. Vreven, K. Throssell, J. A. Montgomery, Jr., J. E. Peralta, 
 F. Ogliaro, M. J. Bearpark, J. J. Heyd, E. N. Brothers, K. N. Kudin, 
 V. N. Staroverov, T. A. Keith, R. Kobayashi, J. Normand, 
 K. Raghavachari, A. P. Rendell, J. C. Burant, S. S. Iyengar, 
 J. Tomasi, M. Cossi, J. M. Millam, M. Klene, C. Adamo, R. Cammi, 
 J. W. Ochterski, R. L. Martin, K. Morokuma, O. Farkas, 
 J. B. Foresman, and D. J. Fox, Gaussian, Inc., Wallingford CT, 2016.
 
 ******************************************
 Gaussian 16:  ES64L-G16RevB.01 20-Dec-2017
                 3-Jul-2023 
 ******************************************
 %NProcShared=8
 Will use up to    8 processors via shared memory.
 %mem=12GB
 %Chk=checkpoint.chk
 -------------------------
 #p B3LYP/6-311+g(d) force
 -------------------------
 1/10=7,30=1,38=1/1,3;
 2/12=2,17=6,18=5,40=1/2;
 3/5=4,6=6,7=11,11=2,25=1,30=1,71=1,74=-5/1,2,3;
 4//1;
 5/5=2,38=5/2;
 6/7=2,8=2,9=2,10=2,28=1/1;
 7/29=1/1,2,3,16;
 1/10=7,30=1/3;
 99//99;
 Leave Link    1 at Mon Jul  3 12:15:05 2023, MaxMem=  1610612736 cpu:               0.2 elap:               0.0
 (Enter /home/masato/g16/l101.exe)
 ----
 Test
 ----
 Symbolic Z-matrix:
 Charge =  0 Multiplicity = 1
 Na                    0.        0.        0. 
 Na                    0.        0.        4.73672 
 Na                    0.        0.        8.39834 
 Na                    0.        0.        13.41935 
 
 ITRead=  0  0  0  0
 MicOpt= -1 -1 -1 -1
 NAtoms=      4 NQM=        4 NQMF=       0 NMMI=      0 NMMIF=      0
                NMic=       0 NMicF=      0.
                    Isotopes and Nuclear Properties:
 (Nuclear quadrupole moments (NQMom) in fm**2, nuclear magnetic moments (NMagM)
  in nuclear magnetons)

  Atom         1           2           3           4
 IAtWgt=          23          23          23          23
 AtmWgt=  22.9897697  22.9897697  22.9897697  22.9897697
 NucSpn=           3           3           3           3
 AtZEff=  -0.0000000  -0.0000000  -0.0000000  -0.0000000
 NQMom=   10.4000000  10.4000000  10.4000000  10.4000000
 NMagM=    2.2175200   2.2175200   2.2175200   2.2175200
 AtZNuc=  11.0000000  11.0000000  11.0000000  11.0000000
 Leave Link  101 at Mon Jul  3 12:15:05 2023, MaxMem=  1610612736 cpu:               1.3 elap:               0.2
 (Enter /home/masato/g16/l103.exe)

 GradGradGradGradGradGradGradGradGradGradGradGradGradGradGradGradGradGrad
 Berny optimization.
 Initialization pass.
 Trust Radius=3.00D-01 FncErr=1.00D-07 GrdErr=1.00D-07 EigMax=2.50D+02 EigMin=1.00D-04
 Number of steps in this run=      2 maximum allowed number of steps=      2.
 GradGradGradGradGradGradGradGradGradGradGradGradGradGradGradGradGradGrad

 Leave Link  103 at Mon Jul  3 12:15:05 2023, MaxMem=  1610612736 cpu:               0.1 elap:               0.0
 (Enter /home/masato/g16/l202.exe)
                          Input orientation:                          
 ---------------------------------------------------------------------
 Center     Atomic      Atomic             Coordinates (Angstroms)
 Number     Number       Type             X           Y           Z
 ---------------------------------------------------------------------
      1         11           0        0.000000    0.000000    0.000000
      2         11           0        0.000000    0.000000    4.736715
      3         11           0        0.000000    0.000000    8.398342
      4         11           0        0.000000    0.000000   13.419348
 ---------------------------------------------------------------------
                    Distance matrix (angstroms):
                    1          2          3          4
     1  Na   0.000000
     2  Na   4.736715   0.000000
     3  Na   8.398342   3.661627   0.000000
     4  Na  13.419348   8.682632   5.021006   0.000000
 Stoichiometry    Na4
 Framework group  C*V[C*(NaNaNaNa)]
 Deg. of freedom     3
 Full point group                 C*V     NOp   4
 Largest Abelian subgroup         C2V     NOp   4
 Largest concise Abelian subgroup C1      NOp   1
                         Standard orientation:                         
 ---------------------------------------------------------------------
 Center     Atomic      Atomic             Coordinates (Angstroms)
 Number     Number       Type             X           Y           Z
 ---------------------------------------------------------------------
      1         11           0        0.000000    0.000000   -6.638601
      2         11           0        0.000000    0.000000   -1.901886
      3         11           0        0.000000    0.000000    1.759741
      4         11           0        0.000000    0.000000    6.780746
 ---------------------------------------------------------------------
 Rotational constants (GHZ):           0.0000000           0.2271807           0.2271807
 Leave Link  202 at Mon Jul  3 12:15:05 2023, MaxMem=  1610612736 cpu:               0.0 elap:               0.0
 (Enter /home/masato/g16/l301.exe)
 Standard basis: 6-311+G(d) (5D, 7F)
 Ernie: Thresh=  0.10000D-02 Tol=  0.10000D-05 Strict=F.
 There are    64 symmetry adapted cartesian basis functions of A1  symmetry.
 There are     4 symmetry adapted cartesian basis functions of A2  symmetry.
 There are    28 symmetry adapted cartesian basis functions of B1  symmetry.
 There are    28 symmetry adapted cartesian basis functions of B2  symmetry.
 There are    60 symmetry adapted basis functions of A1  symmetry.
 There are     4 symmetry adapted basis functions of A2  symmetry.
 There are    28 symmetry adapted basis functions of B1  symmetry.
 There are    28 symmetry adapted basis functions of B2  symmetry.
   120 basis functions,   200 primitive gaussians,   124 cartesian basis functions
    22 alpha electrons       22 beta electrons
       nuclear repulsion energy        63.5275185720 Hartrees.
 IExCor=  402 DFT=T Ex+Corr=B3LYP ExCW=0 ScaHFX=  0.200000
 ScaDFX=  0.800000  0.720000  1.000000  0.810000 ScalE2=  1.000000  1.000000
 IRadAn=      5 IRanWt=     -1 IRanGd=            0 ICorTp=0 IEmpDi=  4
 NAtoms=    4 NActive=    4 NUniq=    4 SFac= 1.00D+00 NAtFMM=   60 NAOKFM=F Big=F
 Integral buffers will be    131072 words long.
 Raffenetti 2 integral format.
 Two-electron integral symmetry is turned on.
 Leave Link  301 at Mon Jul  3 12:15:05 2023, MaxMem=  1610612736 cpu:               0.2 elap:               0.0
 (Enter /home/masato/g16/l302.exe)
 NPDir=0 NMtPBC=     1 NCelOv=     1 NCel=       1 NClECP=     1 NCelD=      1
         NCelK=      1 NCelE2=     1 NClLst=     1 CellRange=     0.0.
 One-electron integrals computed using PRISM.
 One-electron integral symmetry used in STVInt
 NBasis=   120 RedAO= T EigKep=  1.01D-06  NBF=    60     4    28    28
 NBsUse=   120 1.00D-06 EigRej= -1.00D+00 NBFU=    60     4    28    28
 Precomputing XC quadrature grid using
 IXCGrd= 4 IRadAn=           5 IRanWt=          -1 IRanGd=           0 AccXCQ= 0.00D+00.
 Generated NRdTot=       0 NPtTot=           0 NUsed=           0 NTot=          32
 NSgBfM=   111   111   111   111   111 MxSgAt=     4 MxSgA2=     4.
 Leave Link  302 at Mon Jul  3 12:15:06 2023, MaxMem=  1610612736 cpu:               5.2 elap:               0.8
 (Enter /home/masato/g16/l303.exe)
 DipDrv:  MaxL=1.
 Leave Link  303 at Mon Jul  3 12:15:06 2023, MaxMem=  1610612736 cpu:               1.7 elap:               0.3
 (Enter /home/masato/g16/l401.exe)
 ExpMin= 7.60D-03 ExpMax= 3.62D+04 ExpMxC= 1.21D+03 IAcc=3 IRadAn=         5 AccDes= 0.00D+00
 Harris functional with IExCor=  402 and IRadAn=       5 diagonalized for initial guess.
 HarFok:  IExCor=  402 AccDes= 0.00D+00 IRadAn=         5 IDoV= 1 UseB2=F ITyADJ=14
 ICtDFT=  3500011 ScaDFX=  1.000000  1.000000  1.000000  1.000000
 FoFCou: FMM=F IPFlag=           0 FMFlag=      100000 FMFlg1=           0
         NFxFlg=           0 DoJE=T BraDBF=F KetDBF=T FulRan=T
         wScrn=  0.000000 ICntrl=       500 IOpCl=  0 I1Cent=   200000004 NGrid=           0
         NMat0=    1 NMatS0=      1 NMatT0=    0 NMatD0=    1 NMtDS0=    0 NMtDT0=    0
 Petite list used in FoFCou.
 Harris En= -649.043234956749    
 JPrj=0 DoOrth=F DoCkMO=F.
 Initial guess orbital symmetries:
       Occupied  (SG) (SG) (SG) (SG) (SG) (SG) (SG) (SG) (SG) (PI)
                 (PI) (SG) (PI) (PI) (SG) (SG) (PI) (PI) (PI) (PI)
                 (SG) (SG)
       Virtual   (SG) (SG) (PI) (PI) (SG) (PI) (PI) (PI) (PI) (SG)
                 (SG) (SG) (SG) (PI) (PI) (PI) (PI) (SG) (PI) (PI)
                 (SG) (PI) (PI) (SG) (PI) (PI) (SG) (SG) (SG) (SG)
                 (SG) (PI) (PI) (SG) (PI) (PI) (PI) (PI) (SG) (PI)
                 (PI) (SG) (SG) (SG) (SG) (SG) (SG) (PI) (PI) (DLTA)
                 (DLTA) (DLTA) (DLTA) (DLTA) (DLTA) (PI) (PI) (PI)
                 (PI) (SG) (DLTA) (DLTA) (SG) (PI) (PI) (PI) (PI)
                 (PI) (PI) (PI) (PI) (SG) (PI) (PI) (SG) (SG) (SG)
                 (SG) (SG) (SG) (SG) (SG) (PI) (PI) (PI) (PI) (SG)
                 (PI) (PI) (PI) (PI) (SG) (SG) (SG) (SG) (SG) (SG)
                 (SG)
 The electronic state of the initial guess is 1-SG.
 Leave Link  401 at Mon Jul  3 12:15:07 2023, MaxMem=  1610612736 cpu:               3.4 elap:               0.5
 (Enter /home/masato/g16/l502.exe)
 Keep R1 ints in memory in symmetry-blocked form, NReq=33989578.
 FoFCou: FMM=F IPFlag=           0 FMFlag=           0 FMFlg1=           0
         NFxFlg=           0 DoJE=F BraDBF=F KetDBF=F FulRan=T
         wScrn=  0.000000 ICntrl=       600 IOpCl=  0 I1Cent=           0 NGrid=           0
         NMat0=    1 NMatS0=   7260 NMatT0=    0 NMatD0=    1 NMtDS0=    0 NMtDT0=    0
 Petite list used in FoFCou.
 Closed shell SCF:
 Using DIIS extrapolation, IDIIS=  1040.
 NGot=  1610612736 LenX=  1603304456 LenY=  1603288639
 Requested convergence on RMS density matrix=1.00D-08 within 128 cycles.
 Requested convergence on MAX density matrix=1.00D-06.
 Requested convergence on             energy=1.00D-06.
 No special actions if energy rises.

 Cycle   1  Pass 1  IDiag  1:
 E= -649.148798203812    
 DIIS: error= 1.82D-02 at cycle   1 NSaved=   1.
 NSaved= 1 IEnMin= 1 EnMin= -649.148798203812     IErMin= 1 ErrMin= 1.82D-02
 ErrMax= 1.82D-02  0.00D+00 EMaxC= 1.00D-01 BMatC= 2.72D-02 BMatP= 2.72D-02
 IDIUse=3 WtCom= 8.18D-01 WtEn= 1.82D-01
 Coeff-Com:  0.100D+01
 Coeff-En:   0.100D+01
 Coeff:      0.100D+01
 Gap=     0.016 Goal=   None    Shift=    0.000
 GapD=    0.016 DampG=0.250 DampE=0.500 DampFc=0.2500 IDamp=-1.
 Damping current iteration by 2.50D-01
 RMSDP=7.51D-02 MaxDP=3.59D+00              OVMax= 5.39D-01

 Cycle   2  Pass 1  IDiag  1:
 E= -649.154206775089     Delta-E=       -0.005408571277 Rises=F Damp=T
 DIIS: error= 1.28D-02 at cycle   2 NSaved=   2.
 NSaved= 2 IEnMin= 2 EnMin= -649.154206775089     IErMin= 2 ErrMin= 1.28D-02
 ErrMax= 1.28D-02  0.00D+00 EMaxC= 1.00D-01 BMatC= 1.01D-02 BMatP= 2.72D-02
 IDIUse=3 WtCom= 8.72D-01 WtEn= 1.28D-01
 Coeff-Com: -0.108D+01 0.208D+01
 Coeff-En:   0.648D-01 0.935D+00
 Coeff:     -0.938D+00 0.194D+01
 Gap=     0.030 Goal=   None    Shift=    0.000
 RMSDP=1.72D-01 MaxDP=8.50D+00 DE=-5.41D-03 OVMax= 6.72D-01

 Cycle   3  Pass 1  IDiag  1:
 E= -649.091200146595     Delta-E=        0.063006628494 Rises=F Damp=F
 DIIS: error= 1.67D-02 at cycle   3 NSaved=   3.
 NSaved= 3 IEnMin= 2 EnMin= -649.154206775089     IErMin= 2 ErrMin= 1.28D-02
 ErrMax= 1.67D-02  0.00D+00 EMaxC= 1.00D-01 BMatC= 6.16D-03 BMatP= 1.01D-02
 IDIUse=3 WtCom= 8.33D-01 WtEn= 1.67D-01
 Rare condition: small coef for last iteration:  0.000D+00
 Coeff-Com: -0.691D+00 0.127D+01 0.417D+00
 Coeff-En:   0.348D-01 0.953D+00 0.127D-01
 Coeff:     -0.691D+00 0.127D+01 0.417D+00
 Gap=    -0.000 Goal=   None    Shift=    0.000
 RMSDP=1.34D-01 MaxDP=6.24D+00 DE= 6.30D-02 OVMax= 6.32D-01

 Cycle   4  Pass 1  IDiag  1:
 E= -649.043497689285     Delta-E=        0.047702457310 Rises=F Damp=F
 DIIS: error= 1.54D-02 at cycle   4 NSaved=   4.
 NSaved= 4 IEnMin= 2 EnMin= -649.154206775089     IErMin= 2 ErrMin= 1.28D-02
 ErrMax= 1.54D-02  0.00D+00 EMaxC= 1.00D-01 BMatC= 9.08D-03 BMatP= 6.16D-03
 IDIUse=2 WtCom= 0.00D+00 WtEn= 1.00D+00
 EnCoef did   100 forward-backward iterations
 Rare condition: small coef for last iteration:  0.288D-16
 Coeff-En:   0.833D+00 0.000D+00 0.964D-01 0.703D-01
 Coeff:      0.833D+00 0.000D+00 0.964D-01 0.703D-01
 Gap=     0.012 Goal=   None    Shift=    0.000
 RMSDP=1.12D-01 MaxDP=5.71D+00 DE= 4.77D-02 OVMax= 6.06D-01

 Cycle   5  Pass 1  IDiag  1:
 E= -649.092564738574     Delta-E=       -0.049067049289 Rises=F Damp=F
 DIIS: error= 1.83D-02 at cycle   5 NSaved=   5.
 NSaved= 5 IEnMin= 2 EnMin= -649.154206775089     IErMin= 2 ErrMin= 1.28D-02
 ErrMax= 1.83D-02  0.00D+00 EMaxC= 1.00D-01 BMatC= 1.86D-02 BMatP= 6.16D-03
 IDIUse=2 WtCom= 0.00D+00 WtEn= 1.00D+00
 EnCoef did   100 forward-backward iterations
 Coeff-En:   0.772D+00 0.000D+00 0.117D-02 0.600D-02 0.221D+00
 Coeff:      0.772D+00 0.000D+00 0.117D-02 0.600D-02 0.221D+00
 Gap=     0.023 Goal=   None    Shift=    0.000
 RMSDP=1.58D-01 MaxDP=7.96D+00 DE=-4.91D-02 OVMax= 3.81D-01

 Cycle   6  Pass 1  IDiag  1:
 E= -649.164334227007     Delta-E=       -0.071769488433 Rises=F Damp=F
 DIIS: error= 6.41D-03 at cycle   6 NSaved=   6.
 NSaved= 6 IEnMin= 6 EnMin= -649.164334227007     IErMin= 6 ErrMin= 6.41D-03
 ErrMax= 6.41D-03  0.00D+00 EMaxC= 1.00D-01 BMatC= 6.38D-03 BMatP= 6.16D-03
 IDIUse=3 WtCom= 9.36D-01 WtEn= 6.41D-02
 Coeff-Com:  0.758D+00-0.792D+00 0.227D+00 0.213D+00 0.254D+00 0.339D+00
 Coeff-En:   0.000D+00 0.000D+00 0.000D+00 0.000D+00 0.000D+00 0.100D+01
 Coeff:      0.710D+00-0.741D+00 0.213D+00 0.199D+00 0.238D+00 0.381D+00
 Gap=     0.019 Goal=   None    Shift=    0.000
 RMSDP=5.57D-02 MaxDP=2.78D+00 DE=-7.18D-02 OVMax= 2.79D-01

 Cycle   7  Pass 1  IDiag  1:
 E= -649.137299717896     Delta-E=        0.027034509111 Rises=F Damp=F
 DIIS: error= 1.21D-02 at cycle   7 NSaved=   7.
 NSaved= 7 IEnMin= 6 EnMin= -649.164334227007     IErMin= 6 ErrMin= 6.41D-03
 ErrMax= 1.21D-02  0.00D+00 EMaxC= 1.00D-01 BMatC= 2.93D-03 BMatP= 6.16D-03
 IDIUse=3 WtCom= 9.36D-01 WtEn= 6.41D-02
 Coeff-Com:  0.125D+01-0.157D+01-0.178D+00 0.194D+00 0.185D+00 0.670D+00
 Coeff-Com:  0.448D+00
 Coeff-En:   0.000D+00 0.000D+00 0.000D+00 0.000D+00 0.000D+00 0.898D+00
 Coeff-En:   0.102D+00
 Coeff:      0.117D+01-0.147D+01-0.166D+00 0.181D+00 0.173D+00 0.684D+00
 Coeff:      0.426D+00
 Gap=     0.021 Goal=   None    Shift=    0.000
 RMSDP=4.71D-02 MaxDP=2.26D+00 DE= 2.70D-02 OVMax= 9.55D-02

 Cycle   8  Pass 1  IDiag  1:
 E= -649.152813086701     Delta-E=       -0.015513368805 Rises=F Damp=F
 DIIS: error= 1.05D-02 at cycle   8 NSaved=   8.
 NSaved= 8 IEnMin= 6 EnMin= -649.164334227007     IErMin= 6 ErrMin= 6.41D-03
 ErrMax= 1.05D-02  0.00D+00 EMaxC= 1.00D-01 BMatC= 1.58D-03 BMatP= 2.93D-03
 IDIUse=3 WtCom= 9.36D-01 WtEn= 6.41D-02
 Coeff-Com:  0.825D+00-0.105D+01-0.323D+00 0.144D+00 0.145D+00 0.452D+00
 Coeff-Com: -0.320D+00 0.112D+01
 Coeff-En:   0.000D+00 0.000D+00 0.000D+00 0.000D+00 0.000D+00 0.803D+00
 Coeff-En:   0.000D+00 0.197D+00
 Coeff:      0.772D+00-0.980D+00-0.302D+00 0.135D+00 0.135D+00 0.474D+00
 Coeff:     -0.299D+00 0.106D+01
 Gap=     0.024 Goal=   None    Shift=    0.000
 RMSDP=2.03D-02 MaxDP=9.94D-01 DE=-1.55D-02 OVMax= 1.79D-01

 Cycle   9  Pass 1  IDiag  1:
 E= -649.121486034613     Delta-E=        0.031327052088 Rises=F Damp=F
 DIIS: error= 1.59D-02 at cycle   9 NSaved=   9.
 NSaved= 9 IEnMin= 6 EnMin= -649.164334227007     IErMin= 6 ErrMin= 6.41D-03
 ErrMax= 1.59D-02  0.00D+00 EMaxC= 1.00D-01 BMatC= 4.26D-03 BMatP= 1.58D-03
 IDIUse=2 WtCom= 0.00D+00 WtEn= 1.00D+00
 Rare condition: small coef for last iteration:  0.000D+00
 Coeff-En:   0.000D+00 0.000D+00 0.000D+00 0.000D+00 0.000D+00 0.925D+00
 Coeff-En:   0.000D+00 0.000D+00 0.747D-01
 Coeff:      0.000D+00 0.000D+00 0.000D+00 0.000D+00 0.000D+00 0.925D+00
 Coeff:      0.000D+00 0.000D+00 0.747D-01
 Gap=     0.019 Goal=   None    Shift=    0.000
 RMSDP=1.84D-02 MaxDP=7.20D-01 DE= 3.13D-02 OVMax= 2.75D-01

 Cycle  10  Pass 1  IDiag  1:
 E= -649.162975316714     Delta-E=       -0.041489282101 Rises=F Damp=F
 DIIS: error= 4.98D-03 at cycle  10 NSaved=  10.
 NSaved=10 IEnMin= 6 EnMin= -649.164334227007     IErMin=10 ErrMin= 4.98D-03
 ErrMax= 4.98D-03  0.00D+00 EMaxC= 1.00D-01 BMatC= 3.88D-03 BMatP= 1.58D-03
 IDIUse=3 WtCom= 9.36D-01 WtEn= 6.41D-02
 Coeff-Com: -0.196D+00 0.259D+00-0.467D-02-0.107D-01-0.182D-01 0.439D+00
 Coeff-Com: -0.153D+00-0.115D+00 0.796D-01 0.719D+00
 Coeff-En:   0.000D+00 0.000D+00 0.000D+00 0.000D+00 0.000D+00 0.583D+00
 Coeff-En:   0.000D+00 0.000D+00 0.000D+00 0.417D+00
 Coeff:     -0.183D+00 0.243D+00-0.437D-02-0.100D-01-0.171D-01 0.448D+00
 Coeff:     -0.143D+00-0.108D+00 0.745D-01 0.700D+00
 Gap=     0.021 Goal=   None    Shift=    0.000
 RMSDP=4.16D-03 MaxDP=1.33D-01 DE=-4.15D-02 OVMax= 1.20D-01

 Cycle  11  Pass 1  IDiag  1:
 E= -649.166639712778     Delta-E=       -0.003664396064 Rises=F Damp=F
 DIIS: error= 1.72D-03 at cycle  11 NSaved=  11.
 NSaved=11 IEnMin=11 EnMin= -649.166639712778     IErMin=11 ErrMin= 1.72D-03
 ErrMax= 1.72D-03  0.00D+00 EMaxC= 1.00D-01 BMatC= 4.16D-05 BMatP= 1.58D-03
 IDIUse=3 WtCom= 9.83D-01 WtEn= 1.72D-02
 EnCoef did    24 forward-backward iterations
 Coeff-Com:  0.300D-01-0.419D-01-0.259D-01-0.111D-01 0.134D-01 0.219D+00
 Coeff-Com: -0.562D-01-0.980D-02 0.615D-01 0.283D+00 0.538D+00
 Coeff-En:   0.000D+00 0.000D+00 0.000D+00 0.000D+00 0.000D+00 0.000D+00
 Coeff-En:   0.000D+00 0.625D-02 0.000D+00 0.133D+00 0.860D+00
 Coeff:      0.295D-01-0.412D-01-0.254D-01-0.109D-01 0.132D-01 0.216D+00
 Coeff:     -0.552D-01-0.952D-02 0.605D-01 0.280D+00 0.543D+00
 Gap=     0.021 Goal=   None    Shift=    0.000
 RMSDP=1.30D-03 MaxDP=4.61D-02 DE=-3.66D-03 OVMax= 3.46D-02

 Cycle  12  Pass 1  IDiag  1:
 E= -649.167003279941     Delta-E=       -0.000363567162 Rises=F Damp=F
 DIIS: error= 1.40D-04 at cycle  12 NSaved=  12.
 NSaved=12 IEnMin=12 EnMin= -649.167003279941     IErMin=12 ErrMin= 1.40D-04
 ErrMax= 1.40D-04  0.00D+00 EMaxC= 1.00D-01 BMatC= 4.83D-07 BMatP= 4.16D-05
 IDIUse=3 WtCom= 9.99D-01 WtEn= 1.40D-03
 Coeff-Com:  0.117D-01-0.159D-01 0.103D-02-0.144D-02 0.315D-02 0.101D-01
 Coeff-Com:  0.143D-01 0.684D-02-0.107D-01 0.721D-02 0.164D+00 0.810D+00
 Coeff-En:   0.000D+00 0.000D+00 0.000D+00 0.000D+00 0.000D+00 0.000D+00
 Coeff-En:   0.000D+00 0.000D+00 0.000D+00 0.000D+00 0.209D-01 0.979D+00
 Coeff:      0.117D-01-0.159D-01 0.103D-02-0.144D-02 0.315D-02 0.101D-01
 Coeff:      0.143D-01 0.683D-02-0.107D-01 0.720D-02 0.164D+00 0.810D+00
 Gap=     0.021 Goal=   None    Shift=    0.000
 RMSDP=8.98D-04 MaxDP=4.38D-02 DE=-3.64D-04 OVMax= 4.07D-03

 Cycle  13  Pass 1  IDiag  1:
 E= -649.167005818108     Delta-E=       -0.000002538167 Rises=F Damp=F
 DIIS: error= 7.31D-05 at cycle  13 NSaved=  13.
 NSaved=13 IEnMin=13 EnMin= -649.167005818108     IErMin=13 ErrMin= 7.31D-05
 ErrMax= 7.31D-05  0.00D+00 EMaxC= 1.00D-01 BMatC= 7.54D-08 BMatP= 4.83D-07
 IDIUse=1 WtCom= 1.00D+00 WtEn= 0.00D+00
 Coeff-Com: -0.105D-03 0.143D-03 0.705D-03-0.632D-04 0.430D-03-0.371D-02
 Coeff-Com:  0.309D-02 0.269D-02-0.366D-02-0.374D-02-0.844D-02 0.231D+00
 Coeff-Com:  0.782D+00
 Coeff:     -0.105D-03 0.143D-03 0.705D-03-0.632D-04 0.430D-03-0.371D-02
 Coeff:      0.309D-02 0.269D-02-0.366D-02-0.374D-02-0.844D-02 0.231D+00
 Coeff:      0.782D+00
 Gap=     0.021 Goal=   None    Shift=    0.000
 RMSDP=5.33D-05 MaxDP=1.68D-03 DE=-2.54D-06 OVMax= 1.43D-03

 Cycle  14  Pass 1  IDiag  1:
 E= -649.167006470122     Delta-E=       -0.000000652014 Rises=F Damp=F
 DIIS: error= 5.76D-06 at cycle  14 NSaved=  14.
 NSaved=14 IEnMin=14 EnMin= -649.167006470122     IErMin=14 ErrMin= 5.76D-06
 ErrMax= 5.76D-06  0.00D+00 EMaxC= 1.00D-01 BMatC= 5.87D-10 BMatP= 7.54D-08
 IDIUse=1 WtCom= 1.00D+00 WtEn= 0.00D+00
 Coeff-Com: -0.217D-03 0.291D-03-0.317D-04 0.822D-05 0.754D-04-0.100D-02
 Coeff-Com: -0.282D-03 0.689D-04 0.152D-03-0.991D-03-0.984D-03 0.721D-02
 Coeff-Com:  0.506D-01 0.945D+00
 Coeff:     -0.217D-03 0.291D-03-0.317D-04 0.822D-05 0.754D-04-0.100D-02
 Coeff:     -0.282D-03 0.689D-04 0.152D-03-0.991D-03-0.984D-03 0.721D-02
 Coeff:      0.506D-01 0.945D+00
 Gap=     0.021 Goal=   None    Shift=    0.000
 RMSDP=5.45D-06 MaxDP=2.78D-04 DE=-6.52D-07 OVMax= 4.80D-05

 Cycle  15  Pass 1  IDiag  1:
 E= -649.167006471334     Delta-E=       -0.000000001211 Rises=F Damp=F
 DIIS: error= 5.51D-06 at cycle  15 NSaved=  15.
 NSaved=15 IEnMin=15 EnMin= -649.167006471334     IErMin=15 ErrMin= 5.51D-06
 ErrMax= 5.51D-06  0.00D+00 EMaxC= 1.00D-01 BMatC= 4.35D-10 BMatP= 5.87D-10
 IDIUse=1 WtCom= 1.00D+00 WtEn= 0.00D+00
 Coeff-Com: -0.317D-03 0.424D-03 0.204D-04-0.207D-05-0.433D-06-0.471D-03
 Coeff-Com: -0.154D-03-0.132D-03 0.109D-03-0.390D-03 0.103D-02-0.351D-02
 Coeff-Com:  0.503D-03 0.284D+00 0.719D+00
 Coeff:     -0.317D-03 0.424D-03 0.204D-04-0.207D-05-0.433D-06-0.471D-03
 Coeff:     -0.154D-03-0.132D-03 0.109D-03-0.390D-03 0.103D-02-0.351D-02
 Coeff:      0.503D-03 0.284D+00 0.719D+00
 Gap=     0.021 Goal=   None    Shift=    0.000
 RMSDP=1.20D-05 MaxDP=5.52D-04 DE=-1.21D-09 OVMax= 1.29D-04

 Cycle  16  Pass 1  IDiag  1:
 E= -649.167006475158     Delta-E=       -0.000000003825 Rises=F Damp=F
 DIIS: error= 1.46D-06 at cycle  16 NSaved=  16.
 NSaved=16 IEnMin=16 EnMin= -649.167006475158     IErMin=16 ErrMin= 1.46D-06
 ErrMax= 1.46D-06  0.00D+00 EMaxC= 1.00D-01 BMatC= 2.98D-11 BMatP= 4.35D-10
 IDIUse=1 WtCom= 1.00D+00 WtEn= 0.00D+00
 Coeff-Com:  0.262D-04-0.346D-04-0.996D-05-0.221D-05 0.429D-05-0.851D-05
 Coeff-Com: -0.553D-04 0.471D-04 0.420D-04-0.104D-04-0.650D-03-0.138D-02
 Coeff-Com:  0.289D-02-0.752D-01 0.126D+00 0.948D+00
 Coeff:      0.262D-04-0.346D-04-0.996D-05-0.221D-05 0.429D-05-0.851D-05
 Coeff:     -0.553D-04 0.471D-04 0.420D-04-0.104D-04-0.650D-03-0.138D-02
 Coeff:      0.289D-02-0.752D-01 0.126D+00 0.948D+00
 Gap=     0.021 Goal=   None    Shift=    0.000
 RMSDP=1.85D-06 MaxDP=9.08D-05 DE=-3.82D-09 OVMax= 3.02D-05

 Cycle  17  Pass 1  IDiag  1:
 E= -649.167006475422     Delta-E=       -0.000000000263 Rises=F Damp=F
 DIIS: error= 2.03D-07 at cycle  17 NSaved=  17.
 NSaved=17 IEnMin=17 EnMin= -649.167006475422     IErMin=17 ErrMin= 2.03D-07
 ErrMax= 2.03D-07  0.00D+00 EMaxC= 1.00D-01 BMatC= 6.03D-13 BMatP= 2.98D-11
 IDIUse=1 WtCom= 1.00D+00 WtEn= 0.00D+00
 Coeff-Com:  0.583D-05-0.774D-05-0.114D-05-0.752D-06-0.732D-06 0.111D-04
 Coeff-Com: -0.450D-05-0.149D-04 0.864D-05 0.857D-05 0.101D-03 0.813D-04
 Coeff-Com: -0.607D-04-0.316D-02 0.462D-02 0.654D-02 0.992D+00
 Coeff:      0.583D-05-0.774D-05-0.114D-05-0.752D-06-0.732D-06 0.111D-04
 Coeff:     -0.450D-05-0.149D-04 0.864D-05 0.857D-05 0.101D-03 0.813D-04
 Coeff:     -0.607D-04-0.316D-02 0.462D-02 0.654D-02 0.992D+00
 Gap=     0.021 Goal=   None    Shift=    0.000
 RMSDP=2.33D-07 MaxDP=6.68D-06 DE=-2.63D-10 OVMax= 6.45D-06

 Cycle  18  Pass 1  IDiag  1:
 E= -649.167006475424     Delta-E=       -0.000000000002 Rises=F Damp=F
 DIIS: error= 1.47D-07 at cycle  18 NSaved=  18.
 NSaved=18 IEnMin=18 EnMin= -649.167006475424     IErMin=18 ErrMin= 1.47D-07
 ErrMax= 1.47D-07  0.00D+00 EMaxC= 1.00D-01 BMatC= 2.98D-13 BMatP= 6.03D-13
 IDIUse=1 WtCom= 1.00D+00 WtEn= 0.00D+00
 Coeff-Com:  0.484D-05-0.645D-05-0.218D-06 0.352D-06-0.945D-07 0.623D-05
 Coeff-Com:  0.140D-05-0.575D-05 0.266D-06 0.524D-05-0.149D-04 0.115D-03
 Coeff-Com:  0.919D-04 0.244D-02-0.798D-02-0.527D-01 0.260D+00 0.798D+00
 Coeff:      0.484D-05-0.645D-05-0.218D-06 0.352D-06-0.945D-07 0.623D-05
 Coeff:      0.140D-05-0.575D-05 0.266D-06 0.524D-05-0.149D-04 0.115D-03
 Coeff:      0.919D-04 0.244D-02-0.798D-02-0.527D-01 0.260D+00 0.798D+00
 Gap=     0.021 Goal=   None    Shift=    0.000
 RMSDP=1.90D-07 MaxDP=7.41D-06 DE=-1.71D-12 OVMax= 3.53D-06

 Cycle  19  Pass 1  IDiag  1:
 E= -649.167006475429     Delta-E=       -0.000000000006 Rises=F Damp=F
 DIIS: error= 4.09D-08 at cycle  19 NSaved=  19.
 NSaved=19 IEnMin=19 EnMin= -649.167006475429     IErMin=19 ErrMin= 4.09D-08
 ErrMax= 4.09D-08  0.00D+00 EMaxC= 1.00D-01 BMatC= 2.30D-14 BMatP= 2.98D-13
 IDIUse=1 WtCom= 1.00D+00 WtEn= 0.00D+00
 Large coefficients: NSaved= 19 BigCof=    0.00 CofMax=   10.00 Det=-1.39D-15
 Inversion failed.  Reducing to 18 matrices.
 Large coefficients: NSaved= 18 BigCof=    0.00 CofMax=   10.00 Det=-1.89D-15
 Inversion failed.  Reducing to 17 matrices.
 Large coefficients: NSaved= 17 BigCof=    0.00 CofMax=   10.00 Det=-1.95D-15
 Inversion failed.  Reducing to 16 matrices.
 Large coefficients: NSaved= 16 BigCof=    0.00 CofMax=   10.00 Det=-1.95D-15
 Inversion failed.  Reducing to 15 matrices.
 Coeff-Com:  0.692D-06-0.931D-06 0.268D-06-0.207D-06-0.336D-07-0.640D-06
 Coeff-Com:  0.240D-04-0.224D-05-0.327D-04-0.980D-04 0.278D-03-0.128D-02
 Coeff-Com: -0.234D-01-0.177D-01 0.104D+01
 Coeff:      0.692D-06-0.931D-06 0.268D-06-0.207D-06-0.336D-07-0.640D-06
 Coeff:      0.240D-04-0.224D-05-0.327D-04-0.980D-04 0.278D-03-0.128D-02
 Coeff:     -0.234D-01-0.177D-01 0.104D+01
 Gap=     0.021 Goal=   None    Shift=    0.000
 RMSDP=5.46D-08 MaxDP=2.61D-06 DE=-5.91D-12 OVMax= 6.56D-07

 Cycle  20  Pass 1  IDiag  1:
 E= -649.167006475430     Delta-E=       -0.000000000001 Rises=F Damp=F
 DIIS: error= 5.37D-09 at cycle  20 NSaved=  16.
 NSaved=16 IEnMin=16 EnMin= -649.167006475430     IErMin=16 ErrMin= 5.37D-09
 ErrMax= 5.37D-09  0.00D+00 EMaxC= 1.00D-01 BMatC= 3.97D-16 BMatP= 2.30D-14
 IDIUse=1 WtCom= 1.00D+00 WtEn= 0.00D+00
 Large coefficients: NSaved= 16 BigCof=    0.00 CofMax=   10.00 Det=-1.46D-17
 Inversion failed.  Reducing to 15 matrices.
 Coeff-Com:  0.881D-07-0.118D-06-0.581D-07 0.391D-07-0.139D-06 0.234D-06
 Coeff-Com: -0.556D-06 0.125D-04-0.828D-04 0.156D-03 0.255D-03-0.812D-02
 Coeff-Com:  0.372D-02-0.559D-01 0.106D+01
 Coeff:      0.881D-07-0.118D-06-0.581D-07 0.391D-07-0.139D-06 0.234D-06
 Coeff:     -0.556D-06 0.125D-04-0.828D-04 0.156D-03 0.255D-03-0.812D-02
 Coeff:      0.372D-02-0.559D-01 0.106D+01
 Gap=     0.021 Goal=   None    Shift=    0.000
 RMSDP=8.46D-09 MaxDP=3.78D-07 DE=-6.82D-13 OVMax= 9.92D-08

 SCF Done:  E(RB3LYP) =  -649.167006475     A.U. after   20 cycles
            NFock= 20  Conv=0.85D-08     -V/T= 2.0030
 KE= 6.472083175102D+02 PE=-1.685744261204D+03 EE= 3.258414186461D+02
 Leave Link  502 at Mon Jul  3 12:15:09 2023, MaxMem=  1610612736 cpu:              15.7 elap:               2.1
 (Enter /home/masato/g16/l601.exe)
 Copying SCF densities to generalized density rwf, IOpCl= 0 IROHF=0.

 **********************************************************************

            Population analysis using the SCF Density.

 **********************************************************************

 Orbital symmetries:
       Occupied  (SG) (SG) (SG) (SG) (SG) (SG) (SG) (SG) (PI) (PI)
                 (SG) (PI) (PI) (SG) (PI) (PI) (SG) (PI) (PI) (SG)
                 (SG) (SG)
       Virtual   (SG) (SG) (PI) (PI) (SG) (PI) (PI) (PI) (PI) (SG)
                 (SG) (SG) (SG) (PI) (PI) (PI) (PI) (SG) (PI) (PI)
                 (SG) (PI) (PI) (SG) (SG) (PI) (PI) (SG) (SG) (SG)
                 (SG) (SG) (PI) (PI) (PI) (PI) (PI) (PI) (SG) (SG)
                 (PI) (PI) (SG) (SG) (SG) (SG) (SG) (PI) (PI) (DLTA)
                 (DLTA) (DLTA) (DLTA) (DLTA) (DLTA) (PI) (PI) (PI)
                 (PI) (SG) (DLTA) (DLTA) (SG) (PI) (PI) (PI) (PI)
                 (PI) (PI) (PI) (PI) (SG) (SG) (PI) (PI) (SG) (SG)
                 (SG) (SG) (SG) (SG) (SG) (PI) (PI) (PI) (PI) (SG)
                 (PI) (PI) (SG) (PI) (PI) (SG) (SG) (SG) (SG) (SG)
                 (SG)
 The electronic state is 1-SG.
 Alpha  occ. eigenvalues --  -38.46565 -38.46440 -38.45412 -38.45266  -2.22242
 Alpha  occ. eigenvalues --   -2.22121  -2.21117  -2.20971  -1.15917  -1.15917
 Alpha  occ. eigenvalues --   -1.15883  -1.15796  -1.15796  -1.15757  -1.14806
 Alpha  occ. eigenvalues --   -1.14806  -1.14733  -1.14664  -1.14664  -1.14579
 Alpha  occ. eigenvalues --   -0.13371  -0.11448
 Alpha virt. eigenvalues --   -0.09347  -0.05781  -0.02718  -0.02718  -0.02452
 Alpha virt. eigenvalues --   -0.01936  -0.01936  -0.00943  -0.00943  -0.00463
 Alpha virt. eigenvalues --    0.00002   0.00718   0.00744   0.01204   0.01204
 Alpha virt. eigenvalues --    0.01278   0.01278   0.01563   0.01909   0.01909
 Alpha virt. eigenvalues --    0.01993   0.02160   0.02160   0.03091   0.03413
 Alpha virt. eigenvalues --    0.03419   0.03419   0.04895   0.05198   0.06035
 Alpha virt. eigenvalues --    0.06822   0.07354   0.07491   0.07491   0.08019
 Alpha virt. eigenvalues --    0.08019   0.08527   0.08527   0.09006   0.09911
 Alpha virt. eigenvalues --    0.10102   0.10102   0.12979   0.13092   0.13517
 Alpha virt. eigenvalues --    0.16519   0.29562   0.30373   0.30373   0.33992
 Alpha virt. eigenvalues --    0.33992   0.34047   0.34047   0.34172   0.34172
 Alpha virt. eigenvalues --    0.34265   0.34265   0.34486   0.34486   0.35098
 Alpha virt. eigenvalues --    0.36073   0.36073   0.37960   0.40367   0.40367
 Alpha virt. eigenvalues --    0.42004   0.42004   0.43016   0.43016   0.44045
 Alpha virt. eigenvalues --    0.44045   0.44145   0.44599   0.45286   0.45286
 Alpha virt. eigenvalues --    0.49760   0.51162   0.54644   1.98560   2.02460
 Alpha virt. eigenvalues --    2.03877   2.12137   4.42176   4.42176   4.42366
 Alpha virt. eigenvalues --    4.42366   4.43107   4.43956   4.43956   4.44348
 Alpha virt. eigenvalues --    4.44493   4.44493   4.47480   4.48878  96.17140
 Alpha virt. eigenvalues --   96.21855  96.23608  96.33367
          Condensed to atoms (all electrons):
               1          2          3          4
     1  Na  10.935747   1.889852  -2.189542  -0.087781
     2  Na   1.889852  29.817988 -18.573857  -1.459720
     3  Na  -2.189542 -18.573857  30.537282   1.399670
     4  Na  -0.087781  -1.459720   1.399670  10.751736
 Mulliken charges:
               1
     1  Na   0.451723
     2  Na  -0.674264
     3  Na  -0.173554
     4  Na   0.396095
 Sum of Mulliken charges =   0.00000
 Mulliken charges with hydrogens summed into heavy atoms:
               1
     1  Na   0.451723
     2  Na  -0.674264
     3  Na  -0.173554
     4  Na   0.396095
 Electronic spatial extent (au):  <R**2>=           3879.4200
 Charge=             -0.0000 electrons
 Dipole moment (field-independent basis, Debye):
    X=              0.0000    Y=              0.0000    Z=             -0.0366  Tot=              0.0366
 Quadrupole moment (field-independent basis, Debye-Ang):
   XX=            -45.9952   YY=            -45.9952   ZZ=            -13.4438
   XY=              0.0000   XZ=              0.0000   YZ=              0.0000
 Traceless Quadrupole moment (field-independent basis, Debye-Ang):
   XX=            -10.8504   YY=            -10.8504   ZZ=             21.7009
   XY=              0.0000   XZ=              0.0000   YZ=              0.0000
 Octapole moment (field-independent basis, Debye-Ang**2):
  XXX=              0.0000  YYY=              0.0000  ZZZ=             -5.9419  XYY=              0.0000
  XXY=              0.0000  XXZ=             -0.8322  XZZ=              0.0000  YZZ=              0.0000
  YYZ=             -0.8322  XYZ=              0.0000
 Hexadecapole moment (field-independent basis, Debye-Ang**3):
 XXXX=           -206.5505 YYYY=           -206.5505 ZZZZ=          -3949.7485 XXXY=              0.0000
 XXXZ=              0.0000 YYYX=              0.0000 YYYZ=              0.0000 ZZZX=              0.0000
 ZZZY=              0.0000 XXYY=            -68.8502 XXZZ=          -1150.4357 YYZZ=          -1150.4357
 XXYZ=              0.0000 YYXZ=              0.0000 ZZXY=              0.0000
 N-N= 6.352751857198D+01 E-N=-1.685744261253D+03  KE= 6.472083175102D+02
 Symmetry A1   KE= 5.522456967293D+02
 Symmetry A2   KE= 1.836110006688D-53
 Symmetry B1   KE= 4.748131039046D+01
 Symmetry B2   KE= 4.748131039046D+01
 No NMR shielding tensors so no spin-rotation constants.
 Leave Link  601 at Mon Jul  3 12:15:09 2023, MaxMem=  1610612736 cpu:               0.7 elap:               0.1
 (Enter /home/masato/g16/l701.exe)
 ... and contract with generalized density number  0.
 Compute integral first derivatives.
 Leave Link  701 at Mon Jul  3 12:15:09 2023, MaxMem=  1610612736 cpu:               0.7 elap:               0.1
 (Enter /home/masato/g16/l702.exe)
 L702 exits ... SP integral derivatives will be done elsewhere.
 Leave Link  702 at Mon Jul  3 12:15:09 2023, MaxMem=  1610612736 cpu:               0.3 elap:               0.0
 (Enter /home/masato/g16/l703.exe)
 Integral derivatives from FoFJK, PRISM(SPDF).
 Compute integral first derivatives, UseDBF=F ICtDFT=           0.
 Calling FoFJK, ICntrl=      2127 FMM=F ISym2X=1 I1Cent= 0 IOpClX= 0 NMat=1 NMatS=1 NMatT=0.
 FoFJK:  IHMeth= 1 ICntrl=    2127 DoSepK=F KAlg= 0 I1Cent=           0 FoldK=F
 IRaf=         0 NMat=       1 IRICut=       1 DoRegI=T DoRafI=F ISym2E= 1 IDoP0=0 IntGTp=1.
 FoFCou: FMM=F IPFlag=           0 FMFlag=      100000 FMFlg1=         800
         NFxFlg=           0 DoJE=F BraDBF=F KetDBF=F FulRan=T
         wScrn=  0.000000 ICntrl=      2127 IOpCl=  0 I1Cent=           0 NGrid=           0
         NMat0=    1 NMatS0=      1 NMatT0=    0 NMatD0=    1 NMtDS0=    0 NMtDT0=    0
 Petite list used in FoFCou.
 Leave Link  703 at Mon Jul  3 12:15:10 2023, MaxMem=  1610612736 cpu:               4.0 elap:               0.5
 (Enter /home/masato/g16/l716.exe)
 Dipole        = 0.00000000D+00 0.00000000D+00-1.44109363D-02
 ***** Axes restored to original set *****
 -------------------------------------------------------------------
 Center     Atomic                   Forces (Hartrees/Bohr)
 Number     Number              X              Y              Z
 -------------------------------------------------------------------
      1       11          -0.000000000   -0.000000000    0.005525351
      2       11          -0.000000000   -0.000000000   -0.002244401
      3       11          -0.000000000   -0.000000000    0.001777494
      4       11          -0.000000000   -0.000000000   -0.005058444
 -------------------------------------------------------------------
 Cartesian Forces:  Max     0.005525351 RMS     0.002315063
 Z-matrix is all fixed cartesians, so copy forces.
 Force constants in Cartesian coordinates: 
                1             2             3             4             5 
      1  0.100000D+01
      2  0.000000D+00  0.100000D+01
      3  0.000000D+00  0.000000D+00  0.100000D+01
      4  0.000000D+00  0.000000D+00  0.000000D+00  0.100000D+01
      5  0.000000D+00  0.000000D+00  0.000000D+00  0.000000D+00  0.100000D+01
      6  0.000000D+00  0.000000D+00  0.000000D+00  0.000000D+00  0.000000D+00
      7  0.000000D+00  0.000000D+00  0.000000D+00  0.000000D+00  0.000000D+00
      8  0.000000D+00  0.000000D+00  0.000000D+00  0.000000D+00  0.000000D+00
      9  0.000000D+00  0.000000D+00  0.000000D+00  0.000000D+00  0.000000D+00
     10  0.000000D+00  0.000000D+00  0.000000D+00  0.000000D+00  0.000000D+00
     11  0.000000D+00  0.000000D+00  0.000000D+00  0.000000D+00  0.000000D+00
     12  0.000000D+00  0.000000D+00  0.000000D+00  0.000000D+00  0.000000D+00
                6             7             8             9            10 
      6  0.151855D-01
      7  0.000000D+00  0.100000D+01
      8  0.000000D+00  0.000000D+00  0.100000D+01
      9 -0.151855D-01  0.000000D+00  0.000000D+00  0.151855D-01
     10  0.000000D+00  0.000000D+00  0.000000D+00  0.000000D+00  0.100000D+01
     11  0.000000D+00  0.000000D+00  0.000000D+00  0.000000D+00  0.000000D+00
     12  0.000000D+00  0.000000D+00  0.000000D+00  0.000000D+00  0.000000D+00
               11            12 
     11  0.100000D+01
     12  0.000000D+00  0.100000D+01
 Leave Link  716 at Mon Jul  3 12:15:10 2023, MaxMem=  1610612736 cpu:               0.2 elap:               0.0
 (Enter /home/masato/g16/l103.exe)

 GradGradGradGradGradGradGradGradGradGradGradGradGradGradGradGradGradGrad
 Berny optimization.
 Search for a local minimum.
 Step number   1 out of a maximum of    2
 All quantities printed in internal units (Hartrees-Bohrs-Radians)
 Second derivative matrix not updated -- first step.
 The second derivative matrix:
                          X1        Y1        Z1        X2        Y2
           X1           1.00000
           Y1           0.00000   1.00000
           Z1           0.00000   0.00000   1.00000
           X2           0.00000   0.00000   0.00000   1.00000
           Y2           0.00000   0.00000   0.00000   0.00000   1.00000
           Z2           0.00000   0.00000   0.00000   0.00000   0.00000
           X3           0.00000   0.00000   0.00000   0.00000   0.00000
           Y3           0.00000   0.00000   0.00000   0.00000   0.00000
           Z3           0.00000   0.00000   0.00000   0.00000   0.00000
           X4           0.00000   0.00000   0.00000   0.00000   0.00000
           Y4           0.00000   0.00000   0.00000   0.00000   0.00000
           Z4           0.00000   0.00000   0.00000   0.00000   0.00000
                          Z2        X3        Y3        Z3        X4
           Z2           0.01519
           X3           0.00000   1.00000
           Y3           0.00000   0.00000   1.00000
           Z3          -0.01519   0.00000   0.00000   0.01519
           X4           0.00000   0.00000   0.00000   0.00000   1.00000
           Y4           0.00000   0.00000   0.00000   0.00000   0.00000
           Z4           0.00000   0.00000   0.00000   0.00000   0.00000
                          Y4        Z4
           Y4           1.00000
           Z4           0.00000   1.00000
 ITU=  0
     Eigenvalues ---    0.03037   0.50000   1.00000   1.00000   1.00000
     Eigenvalues ---    1.00000   1.00000
 Angle between quadratic step and forces=  64.63 degrees.
 ClnCor:  largest displacement from symmetrization is 2.49D-17 for atom     3.
 Linear search not attempted -- first point.
 ClnCor:  largest displacement from symmetrization is 4.80D-16 for atom     1.
 B after Tr=     0.000000    0.000000    0.000000
         Rot=    1.000000    0.000000    0.000000    0.000000 Ang=   0.00 deg.
 Variable       Old X    -DE/DX   Delta X   Delta X   Delta X     New X
                                 (Linear)    (Quad)   (Total)
    X1        0.00000  -0.00000   0.00000  -0.00000   0.00000   0.00000
    Y1        0.00000  -0.00000   0.00000   0.00000   0.00000   0.00000
    Z1        0.00000   0.00553   0.00000   0.00576   0.00576   0.00576
    X2        0.00000  -0.00000   0.00000   0.00000   0.00000   0.00000
    Y2        0.00000  -0.00000   0.00000   0.00000   0.00000   0.00000
    Z2        8.95109  -0.00224   0.00000  -0.06668  -0.06668   8.88441
    X3        0.00000  -0.00000   0.00000  -0.00000   0.00000   0.00000
    Y3        0.00000  -0.00000   0.00000   0.00000   0.00000   0.00000
    Z3       15.87057   0.00178   0.00000   0.06575   0.06575  15.93631
    X4        0.00000  -0.00000   0.00000   0.00000   0.00000   0.00000
    Y4        0.00000  -0.00000   0.00000   0.00000   0.00000   0.00000
    Z4       25.35889  -0.00506   0.00000  -0.00482  -0.00482  25.35407
         Item               Value     Threshold  Converged?
 Maximum Force            0.005525     0.000450     NO 
 RMS     Force            0.002315     0.000300     NO 
 Maximum Displacement     0.066680     0.001800     NO 
 RMS     Displacement     0.027119     0.001200     NO 
 Predicted change in Energy=-1.613727D-04
 GradGradGradGradGradGradGradGradGradGradGradGradGradGradGradGradGradGrad

 Leave Link  103 at Mon Jul  3 12:15:10 2023, MaxMem=  1610612736 cpu:               0.1 elap:               0.0
 (Enter /home/masato/g16/l9999.exe)
 1\1\GINC-MASATO-THINKPAD-T480S\Force\RB3LYP\6-311+G(d)\Na4\MASATO\03-J
 ul-2023\0\\#p B3LYP/6-311+g(d) force\\Test\\0,1\Na,0.,0.,0.\Na,0.,0.,4
 .7367151018\Na,0.,0.,8.3983419507\Na,0.,0.,13.4193475825\\Version=ES64
 L-G16RevB.01\State=1-SG\HF=-649.1670065\RMSD=8.464e-09\RMSF=2.315e-03\
 Dipole=0.,0.,-0.0144109\Quadrupole=-8.0670422,-8.0670422,16.1340844,0.
 ,0.,0.\PG=C*V [C*(Na1Na1Na1Na1)]\\@


 YE HAVE SOWN MUCH, AND BRING IN LITTLE.
 YE EAT, BUT YE HAVE NOT ENOUGH.
 YE DRINK, BUT YE ARE NOT FILLED WITH DRINK.
 YE CLOTHE YOU, BUT THERE IS NONE WARM.
 AND HE THAT EARNETH WAGES EARNETH WAGES TO PUT
 IT INTO A BAG WITH HOLES.
                                     HAGGAI I,6
 Job cpu time:       0 days  0 hours  0 minutes 34.2 seconds.
 Elapsed time:       0 days  0 hours  0 minutes  4.8 seconds.
 File lengths (MBytes):  RWF=     11 Int=      0 D2E=      0 Chk=      2 Scr=      1
 Normal termination of Gaussian 16 at Mon Jul  3 12:15:10 2023.
 Initial command:
 /home/masato/g16/l1.exe "/home/masato/g16temp/Gau-38813.inp" -scrdir="/home/masato/g16temp/"
 Entering Link 1 = /home/masato/g16/l1.exe PID=     39101.
  
 Copyright (c) 1988-2017, Gaussian, Inc.  All Rights Reserved.
  
 This is part of the Gaussian(R) 16 program.  It is based on
 the Gaussian(R) 09 system (copyright 2009, Gaussian, Inc.),
 the Gaussian(R) 03 system (copyright 2003, Gaussian, Inc.),
 the Gaussian(R) 98 system (copyright 1998, Gaussian, Inc.),
 the Gaussian(R) 94 system (copyright 1995, Gaussian, Inc.),
 the Gaussian 92(TM) system (copyright 1992, Gaussian, Inc.),
[...]
 Coeff:      0.562D+00
 Gap=     0.038 Goal=   None    Shift=    0.000
 RMSDP=1.67D-04 MaxDP=6.22D-03 DE=-4.02D-05 OVMax= 2.77D-03

 Cycle   8  Pass 1  IDiag  1:
 E= -649.189679046446     Delta-E=       -0.000006950577 Rises=F Damp=F
 DIIS: error= 4.35D-05 at cycle   8 NSaved=   8.
 NSaved= 8 IEnMin= 8 EnMin= -649.189679046446     IErMin= 8 ErrMin= 4.35D-05
 ErrMax= 4.35D-05  0.00D+00 EMaxC= 1.00D-01 BMatC= 5.80D-08 BMatP= 1.52D-06
 IDIUse=1 WtCom= 1.00D+00 WtEn= 0.00D+00
 Coeff-Com: -0.431D-03 0.591D-03 0.186D-02-0.596D-02 0.155D-01 0.744D-01
 Coeff-Com:  0.125D+00 0.789D+00
 Coeff:     -0.431D-03 0.591D-03 0.186D-02-0.596D-02 0.155D-01 0.744D-01
 Coeff:      0.125D+00 0.789D+00
 Gap=     0.038 Goal=   None    Shift=    0.000
 RMSDP=7.22D-05 MaxDP=3.50D-03 DE=-6.95D-06 OVMax= 9.23D-04

 Cycle   9  Pass 1  IDiag  1:
 E= -649.189679473833     Delta-E=       -0.000000427387 Rises=F Damp=F
 DIIS: error= 9.63D-06 at cycle   9 NSaved=   9.
 NSaved= 9 IEnMin= 9 EnMin= -649.189679473833     IErMin= 9 ErrMin= 9.63D-06
 ErrMax= 9.63D-06  0.00D+00 EMaxC= 1.00D-01 BMatC= 7.91D-09 BMatP= 5.80D-08
 IDIUse=1 WtCom= 1.00D+00 WtEn= 0.00D+00
 Coeff-Com:  0.147D-03-0.178D-03 0.851D-03-0.239D-02-0.223D-02 0.108D-01
 Coeff-Com:  0.146D-01 0.374D+00 0.605D+00
 Coeff:      0.147D-03-0.178D-03 0.851D-03-0.239D-02-0.223D-02 0.108D-01
 Coeff:      0.146D-01 0.374D+00 0.605D+00
 Gap=     0.038 Goal=   None    Shift=    0.000
 RMSDP=1.66D-05 MaxDP=6.54D-04 DE=-4.27D-07 OVMax= 1.19D-04

 Cycle  10  Pass 1  IDiag  1:
 E= -649.189679491677     Delta-E=       -0.000000017844 Rises=F Damp=F
 DIIS: error= 4.74D-06 at cycle  10 NSaved=  10.
 NSaved=10 IEnMin=10 EnMin= -649.189679491677     IErMin=10 ErrMin= 4.74D-06
 ErrMax= 4.74D-06  0.00D+00 EMaxC= 1.00D-01 BMatC= 9.08D-10 BMatP= 7.91D-09
 IDIUse=1 WtCom= 1.00D+00 WtEn= 0.00D+00
 Coeff-Com:  0.126D-03-0.168D-03 0.189D-03-0.265D-03-0.268D-02-0.652D-02
 Coeff-Com: -0.103D-01 0.221D-01 0.242D-01 0.973D+00
 Coeff:      0.126D-03-0.168D-03 0.189D-03-0.265D-03-0.268D-02-0.652D-02
 Coeff:     -0.103D-01 0.221D-01 0.242D-01 0.973D+00
 Gap=     0.038 Goal=   None    Shift=    0.000
 RMSDP=9.99D-06 MaxDP=5.02D-04 DE=-1.78D-08 OVMax= 1.34D-04

 Cycle  11  Pass 1  IDiag  1:
 E= -649.189679498293     Delta-E=       -0.000000006616 Rises=F Damp=F
 DIIS: error= 2.22D-07 at cycle  11 NSaved=  11.
 NSaved=11 IEnMin=11 EnMin= -649.189679498293     IErMin=11 ErrMin= 2.22D-07
 ErrMax= 2.22D-07  0.00D+00 EMaxC= 1.00D-01 BMatC= 4.50D-12 BMatP= 9.08D-10
 IDIUse=1 WtCom= 1.00D+00 WtEn= 0.00D+00
 Coeff-Com: -0.110D-04 0.140D-04 0.194D-04-0.126D-04-0.489D-04-0.144D-04
 Coeff-Com: -0.172D-03-0.916D-02-0.194D-01 0.113D+00 0.915D+00
 Coeff:     -0.110D-04 0.140D-04 0.194D-04-0.126D-04-0.489D-04-0.144D-04
 Coeff:     -0.172D-03-0.916D-02-0.194D-01 0.113D+00 0.915D+00
 Gap=     0.038 Goal=   None    Shift=    0.000
 RMSDP=5.93D-07 MaxDP=3.01D-05 DE=-6.62D-09 OVMax= 4.92D-06

 Cycle  12  Pass 1  IDiag  1:
 E= -649.189679498308     Delta-E=       -0.000000000016 Rises=F Damp=F
 DIIS: error= 8.10D-08 at cycle  12 NSaved=  12.
 NSaved=12 IEnMin=12 EnMin= -649.189679498308     IErMin=12 ErrMin= 8.10D-08
 ErrMax= 8.10D-08  0.00D+00 EMaxC= 1.00D-01 BMatC= 2.06D-13 BMatP= 4.50D-12
 IDIUse=1 WtCom= 1.00D+00 WtEn= 0.00D+00
 Coeff-Com: -0.277D-05 0.357D-05 0.872D-06 0.458D-05 0.189D-04 0.154D-03
 Coeff-Com:  0.699D-04-0.234D-02-0.271D-02-0.513D-02 0.169D+00 0.841D+00
 Coeff:     -0.277D-05 0.357D-05 0.872D-06 0.458D-05 0.189D-04 0.154D-03
 Coeff:      0.699D-04-0.234D-02-0.271D-02-0.513D-02 0.169D+00 0.841D+00
 Gap=     0.038 Goal=   None    Shift=    0.000
 RMSDP=1.95D-07 MaxDP=8.20D-06 DE=-1.57D-11 OVMax= 1.78D-06

 Cycle  13  Pass 1  IDiag  1:
 E= -649.189679498310     Delta-E=       -0.000000000002 Rises=F Damp=F
 DIIS: error= 2.53D-08 at cycle  13 NSaved=  13.
 NSaved=13 IEnMin=13 EnMin= -649.189679498310     IErMin=13 ErrMin= 2.53D-08
 ErrMax= 2.53D-08  0.00D+00 EMaxC= 1.00D-01 BMatC= 1.73D-14 BMatP= 2.06D-13
 IDIUse=1 WtCom= 1.00D+00 WtEn= 0.00D+00
 Coeff-Com:  0.617D-06-0.803D-06-0.470D-06 0.212D-05 0.304D-05 0.309D-04
 Coeff-Com:  0.401D-04-0.334D-04 0.107D-02-0.867D-02-0.142D-01 0.289D+00
 Coeff-Com:  0.733D+00
 Coeff:      0.617D-06-0.803D-06-0.470D-06 0.212D-05 0.304D-05 0.309D-04
 Coeff:      0.401D-04-0.334D-04 0.107D-02-0.867D-02-0.142D-01 0.289D+00
 Coeff:      0.733D+00
 Gap=     0.038 Goal=   None    Shift=    0.000
 RMSDP=2.70D-08 MaxDP=9.37D-07 DE=-1.82D-12 OVMax= 5.84D-07

 Cycle  14  Pass 1  IDiag  1:
 E= -649.189679498313     Delta-E=       -0.000000000003 Rises=F Damp=F
 DIIS: error= 6.56D-09 at cycle  14 NSaved=  14.
 NSaved=14 IEnMin=14 EnMin= -649.189679498313     IErMin=14 ErrMin= 6.56D-09
 ErrMax= 6.56D-09  0.00D+00 EMaxC= 1.00D-01 BMatC= 1.02D-15 BMatP= 1.73D-14
 IDIUse=1 WtCom= 1.00D+00 WtEn= 0.00D+00
 Coeff-Com: -0.923D-07 0.123D-06-0.914D-07 0.175D-06-0.254D-06-0.434D-05
 Coeff-Com: -0.409D-05 0.350D-04-0.175D-03 0.132D-02-0.562D-03-0.412D-01
 Coeff-Com: -0.390D-01 0.108D+01
 Coeff:     -0.923D-07 0.123D-06-0.914D-07 0.175D-06-0.254D-06-0.434D-05
 Coeff:     -0.409D-05 0.350D-04-0.175D-03 0.132D-02-0.562D-03-0.412D-01
 Coeff:     -0.390D-01 0.108D+01
 Gap=     0.038 Goal=   None    Shift=    0.000
 RMSDP=5.15D-09 MaxDP=1.78D-07 DE=-2.50D-12 OVMax= 1.52D-07

 SCF Done:  E(RB3LYP) =  -649.189679498     A.U. after   14 cycles
            NFock= 14  Conv=0.51D-08     -V/T= 2.0029
 KE= 6.473252942979D+02 PE=-1.719358854490D+03 EE= 3.427220679473D+02
 Leave Link  502 at Mon Jul  3 12:15:13 2023, MaxMem=  1610612736 cpu:              14.6 elap:               2.0
 (Enter /home/masato/g16/l601.exe)
 Copying SCF densities to generalized density rwf, IOpCl= 0 IROHF=0.

 **********************************************************************

            Population analysis using the SCF Density.

 **********************************************************************

 Orbital symmetries:
       Occupied  (SG) (SG) (SG) (SG) (SG) (SG) (SG) (SG) (PI) (PI)
                 (SG) (SG) (PI) (PI) (PI) (PI) (SG) (SG) (PI) (PI)
                 (SG) (SG)
       Virtual   (SG) (SG) (PI) (PI) (PI) (PI) (SG) (PI) (PI) (SG)
                 (SG) (SG) (PI) (PI) (SG) (PI) (PI) (SG) (PI) (PI)
                 (PI) (PI) (SG) (PI) (PI) (SG) (SG) (SG) (SG) (SG)
                 (PI) (PI) (SG) (PI) (PI) (PI) (PI) (SG) (PI) (PI)
                 (SG) (SG) (SG) (SG) (SG) (PI) (PI) (DLTA) (DLTA)
                 (SG) (PI) (PI) (DLTA) (DLTA) (DLTA) (DLTA) (PI)
                 (PI) (DLTA) (DLTA) (SG) (SG) (PI) (PI) (PI) (PI)
                 (PI) (PI) (PI) (PI) (SG) (SG) (SG) (PI) (PI) (SG)
                 (SG) (SG) (SG) (SG) (SG) (SG) (PI) (PI) (PI) (PI)
                 (PI) (PI) (SG) (PI) (PI) (SG) (SG) (SG) (SG) (SG)
                 (SG)
 The electronic state is 1-SG.
 Alpha  occ. eigenvalues --  -38.45941 -38.45100 -38.45085 -38.44066  -2.21627
 Alpha  occ. eigenvalues --   -2.20921  -2.20802  -2.19916  -1.15305  -1.15305
 Alpha  occ. eigenvalues --   -1.15251  -1.14687  -1.14551  -1.14551  -1.14488
 Alpha  occ. eigenvalues --   -1.14488  -1.14423  -1.13583  -1.13556  -1.13556
 Alpha  occ. eigenvalues --   -0.14506  -0.12017
 Alpha virt. eigenvalues --   -0.08211  -0.04162  -0.03092  -0.03092  -0.01877
 Alpha virt. eigenvalues --   -0.01877  -0.01383  -0.00066  -0.00066   0.00152
 Alpha virt. eigenvalues --    0.00258   0.01095   0.01187   0.01187   0.01282
 Alpha virt. eigenvalues --    0.01415   0.01415   0.02323   0.02439   0.02439
 Alpha virt. eigenvalues --    0.02765   0.02765   0.03019   0.04030   0.04030
 Alpha virt. eigenvalues --    0.04054   0.04522   0.05467   0.05669   0.07212
 Alpha virt. eigenvalues --    0.07314   0.07314   0.07899   0.08106   0.08106
 Alpha virt. eigenvalues --    0.09040   0.09040   0.09485   0.10906   0.10906
 Alpha virt. eigenvalues --    0.12952   0.13163   0.15333   0.15887   0.19869
 Alpha virt. eigenvalues --    0.27782   0.27782   0.31650   0.31650   0.32137
 Alpha virt. eigenvalues --    0.34147   0.34147   0.34446   0.34446   0.35210
 Alpha virt. eigenvalues --    0.35210   0.38583   0.38583   0.38787   0.38787
 Alpha virt. eigenvalues --    0.39215   0.40498   0.42761   0.42761   0.43267
 Alpha virt. eigenvalues --    0.43267   0.44317   0.44317   0.44851   0.44851
 Alpha virt. eigenvalues --    0.45954   0.47319   0.51813   0.53262   0.53262
 Alpha virt. eigenvalues --    0.57440   0.81598   2.00321   2.05404   2.11616
 Alpha virt. eigenvalues --    2.16558   4.42001   4.42905   4.42905   4.43020
 Alpha virt. eigenvalues --    4.43020   4.44477   4.44477   4.46148   4.47006
 Alpha virt. eigenvalues --    4.47006   4.52198   4.73754  96.19239  96.25286
 Alpha virt. eigenvalues --   96.33563  96.39467
          Condensed to atoms (all electrons):
               1          2          3          4
     1  Na  10.609122   0.187293  -0.057031   0.030698
     2  Na   0.187293  10.710250  -0.105966   0.250633
     3  Na  -0.057031  -0.105966  11.972696  -0.374230
     4  Na   0.030698   0.250633  -0.374230  10.845138
 Mulliken charges:
               1
     1  Na   0.229918
     2  Na  -0.042210
     3  Na  -0.435469
     4  Na   0.247761
 Sum of Mulliken charges =   0.00000
 Mulliken charges with hydrogens summed into heavy atoms:
               1
     1  Na   0.229918
     2  Na  -0.042210
     3  Na  -0.435469
     4  Na   0.247761
 Electronic spatial extent (au):  <R**2>=           2565.6185
 Charge=              0.0000 electrons
 Dipole moment (field-independent basis, Debye):
    X=              0.0000    Y=              0.0000    Z=             -0.2127  Tot=              0.2127
 Quadrupole moment (field-independent basis, Debye-Ang):
   XX=            -44.3997   YY=            -44.3997   ZZ=            -15.1985
   XY=              0.0000   XZ=              0.0000   YZ=              0.0000
 Traceless Quadrupole moment (field-independent basis, Debye-Ang):
   XX=             -9.7337   YY=             -9.7337   ZZ=             19.4675
   XY=              0.0000   XZ=              0.0000   YZ=              0.0000
 Octapole moment (field-independent basis, Debye-Ang**2):
  XXX=              0.0000  YYY=              0.0000  ZZZ=             16.3685  XYY=              0.0000
  XXY=              0.0000  XXZ=             -4.6985  XZZ=              0.0000  YZZ=              0.0000
  YYZ=             -4.6985  XYZ=              0.0000
 Hexadecapole moment (field-independent basis, Debye-Ang**3):
 XXXX=           -185.8248 YYYY=           -185.8248 ZZZZ=          -2368.7353 XXXY=              0.0000
 XXXZ=              0.0000 YYYX=              0.0000 YYYZ=              0.0000 ZZZX=              0.0000
 ZZZY=              0.0000 XXYY=            -61.9416 XXZZ=           -733.5812 YYZZ=           -733.5812
 XXYZ=              0.0000 YYXZ=              0.0000 ZZXY=              0.0000
 N-N= 8.012181274685D+01 E-N=-1.719358854197D+03  KE= 6.473252942979D+02
 Symmetry A1   KE= 5.524027040196D+02
 Symmetry A2   KE= 3.762029816459D-53
 Symmetry B1   KE= 4.746129513917D+01
 Symmetry B2   KE= 4.746129513917D+01
 No NMR shielding tensors so no spin-rotation constants.
 Leave Link  601 at Mon Jul  3 12:15:13 2023, MaxMem=  1610612736 cpu:               0.8 elap:               0.1
 (Enter /home/masato/g16/l701.exe)
 ... and contract with generalized density number  0.
 Compute integral first derivatives.
 Leave Link  701 at Mon Jul  3 12:15:13 2023, MaxMem=  1610612736 cpu:               0.8 elap:               0.1
 (Enter /home/masato/g16/l702.exe)
 L702 exits ... SP integral derivatives will be done elsewhere.
 Leave Link  702 at Mon Jul  3 12:15:13 2023, MaxMem=  1610612736 cpu:               0.2 elap:               0.0
 (Enter /home/masato/g16/l703.exe)
 Integral derivatives from FoFJK, PRISM(SPDF).
 Compute integral first derivatives, UseDBF=F ICtDFT=           0.
 Calling FoFJK, ICntrl=      2127 FMM=F ISym2X=1 I1Cent= 0 IOpClX= 0 NMat=1 NMatS=1 NMatT=0.
 FoFJK:  IHMeth= 1 ICntrl=    2127 DoSepK=F KAlg= 0 I1Cent=           0 FoldK=F
 IRaf=         0 NMat=       1 IRICut=       1 DoRegI=T DoRafI=F ISym2E= 1 IDoP0=0 IntGTp=1.
 FoFCou: FMM=F IPFlag=           0 FMFlag=      100000 FMFlg1=         800
         NFxFlg=           0 DoJE=F BraDBF=F KetDBF=F FulRan=T
         wScrn=  0.000000 ICntrl=      2127 IOpCl=  0 I1Cent=           0 NGrid=           0
         NMat0=    1 NMatS0=      1 NMatT0=    0 NMatD0=    1 NMtDS0=    0 NMtDT0=    0
 Petite list used in FoFCou.
 Leave Link  703 at Mon Jul  3 12:15:13 2023, MaxMem=  1610612736 cpu:               4.5 elap:               0.6
 (Enter /home/masato/g16/l716.exe)
 Dipole        = 0.00000000D+00 0.00000000D+00-8.36817671D-02
 ***** Axes restored to original set *****
 -------------------------------------------------------------------
 Center     Atomic                   Forces (Hartrees/Bohr)
 Number     Number              X              Y              Z
 -------------------------------------------------------------------
      1       11          -0.000000000   -0.000000000    0.007245525
      2       11          -0.000000000   -0.000000000   -0.007197533
      3       11          -0.000000000   -0.000000000   -0.007428207
      4       11          -0.000000000   -0.000000000    0.007380215
 -------------------------------------------------------------------
 Cartesian Forces:  Max     0.007428207 RMS     0.004222439
 Z-matrix is all fixed cartesians, so copy forces.
 Force constants in Cartesian coordinates: 
                1             2             3             4             5 
      1  0.100000D+01
      2  0.000000D+00  0.100000D+01
      3  0.000000D+00  0.000000D+00  0.100000D+01
      4  0.000000D+00  0.000000D+00  0.000000D+00  0.563559D-02
      5  0.000000D+00  0.000000D+00  0.000000D+00  0.000000D+00  0.563559D-02
      6  0.000000D+00  0.000000D+00  0.000000D+00  0.000000D+00  0.000000D+00
      7  0.000000D+00  0.000000D+00  0.000000D+00 -0.126953D-01  0.000000D+00
      8  0.000000D+00  0.000000D+00  0.000000D+00  0.000000D+00 -0.126953D-01
      9  0.000000D+00  0.000000D+00  0.000000D+00  0.000000D+00  0.000000D+00
     10  0.000000D+00  0.000000D+00  0.000000D+00  0.705968D-02  0.000000D+00
     11  0.000000D+00  0.000000D+00  0.000000D+00  0.000000D+00  0.705968D-02
     12  0.000000D+00  0.000000D+00  0.000000D+00  0.000000D+00  0.000000D+00
                6             7             8             9            10 
      6  0.179032D-01
      7  0.000000D+00  0.285986D-01
      8  0.000000D+00  0.000000D+00  0.285986D-01
      9 -0.179032D-01  0.000000D+00  0.000000D+00  0.684691D-01
     10  0.000000D+00 -0.159033D-01  0.000000D+00  0.000000D+00  0.884363D-02
     11  0.000000D+00  0.000000D+00 -0.159033D-01  0.000000D+00  0.000000D+00
     12  0.000000D+00  0.000000D+00  0.000000D+00 -0.505660D-01  0.000000D+00
               11            12 
     11  0.884363D-02
     12  0.000000D+00  0.505660D-01
 Leave Link  716 at Mon Jul  3 12:15:14 2023, MaxMem=  1610612736 cpu:               0.2 elap:               0.0
 (Enter /home/masato/g16/l103.exe)

 GradGradGradGradGradGradGradGradGradGradGradGradGradGradGradGradGradGrad
 Berny optimization.
 Search for a local minimum.
 Step number   1 out of a maximum of    2
 All quantities printed in internal units (Hartrees-Bohrs-Radians)
 Second derivative matrix not updated -- first step.
 The second derivative matrix:
                          X1        Y1        Z1        X2        Y2
           X1           1.00000
           Y1           0.00000   1.00000
           Z1           0.00000   0.00000   1.00000
           X2           0.00000   0.00000   0.00000   0.00564
           Y2           0.00000   0.00000   0.00000   0.00000   0.00564
           Z2           0.00000   0.00000   0.00000   0.00000   0.00000
           X3           0.00000   0.00000   0.00000  -0.01270   0.00000
           Y3           0.00000   0.00000   0.00000   0.00000  -0.01270
           Z3           0.00000   0.00000   0.00000   0.00000   0.00000
           X4           0.00000   0.00000   0.00000   0.00706   0.00000
           Y4           0.00000   0.00000   0.00000   0.00000   0.00706
           Z4           0.00000   0.00000   0.00000   0.00000   0.00000
                          Z2        X3        Y3        Z3        X4
           Z2           0.01790
           X3           0.00000   0.02860
           Y3           0.00000   0.00000   0.02860
           Z3          -0.01790   0.00000   0.00000   0.06847
           X4           0.00000  -0.01590   0.00000   0.00000   0.00884
           Y4           0.00000   0.00000  -0.01590   0.00000   0.00000
           Z4           0.00000   0.00000   0.00000  -0.05057   0.00000
                          Y4        Z4
           Y4           0.00884
           Z4           0.00000   0.05057
 ITU=  0
     Eigenvalues ---    0.02406   0.04308   0.04308   0.11288   0.23881
     Eigenvalues ---    0.23881   0.75000
 Quadratic step=3.274D-01 exceeds max=3.000D-01 adjusted using Lamda=-2.299D-03.
 Angle between NR and scaled steps=   1.03 degrees.
 Angle between quadratic step and forces=  46.17 degrees.
 ClnCor:  largest displacement from symmetrization is 0.00D+00 for atom     0.
 Linear search not attempted -- first point.
 ClnCor:  largest displacement from symmetrization is 6.54D-16 for atom     1.
 B after Tr=     0.000000    0.000000    0.000000
         Rot=    1.000000    0.000000    0.000000    0.000000 Ang=   0.00 deg.
 Variable       Old X    -DE/DX   Delta X   Delta X   Delta X     New X
                                 (Linear)    (Quad)   (Total)
    X1        0.00000  -0.00000   0.00000   0.00000   0.00000   0.00000
    Y1        0.00000  -0.00000   0.00000   0.00000   0.00000   0.00000
    Z1        0.00000   0.00725   0.00000   0.00963   0.00963   0.00963
    X2        0.00000  -0.00000   0.00000   0.00000   0.00000   0.00000
    Y2        0.00000  -0.00000   0.00000   0.00000   0.00000   0.00000
    Z2        8.12531  -0.00720   0.00000  -0.22390  -0.22390   7.90142
    X3        0.00000  -0.00000   0.00000   0.00000   0.00000   0.00000
    Y3        0.00000  -0.00000   0.00000   0.00000   0.00000   0.00000
    Z3       14.78571  -0.00743   0.00000   0.01488   0.01488  14.80060
    X4        0.00000  -0.00000   0.00000   0.00000   0.00000   0.00000
    Y4        0.00000  -0.00000   0.00000   0.00000   0.00000   0.00000
    Z4       20.10257   0.00738   0.00000   0.19938   0.19938  20.30195
         Item               Value     Threshold  Converged?
 Maximum Force            0.007428     0.000450     NO 
 RMS     Force            0.004222     0.000300     NO 
 Maximum Displacement     0.223897     0.001800     NO 
 RMS     Displacement     0.086698     0.001200     NO 
 Predicted change in Energy=-1.624824D-03
 GradGradGradGradGradGradGradGradGradGradGradGradGradGradGradGradGradGrad

 Leave Link  103 at Mon Jul  3 12:15:14 2023, MaxMem=  1610612736 cpu:               0.1 elap:               0.0
 (Enter /home/masato/g16/l9999.exe)
 1\1\GINC-MASATO-THINKPAD-T480S\Force\RB3LYP\6-311+G(d)\Na4\MASATO\03-J
 ul-2023\0\\#p B3LYP/6-311+g(d) force\\Test\\0,1\Na,0.,0.,0.\Na,0.,0.,4
 .2997309753\Na,0.,0.,7.8242631806\Na,0.,0.,10.637821342\\Version=ES64L
 -G16RevB.01\State=1-SG\HF=-649.1896795\RMSD=5.149e-09\RMSF=4.222e-03\D
 ipole=0.,0.,0.0836818\Quadrupole=-7.2368004,-7.2368004,14.4736007,0.,0
 .,0.\PG=C*V [C*(Na1Na1Na1Na1)]\\@


 WE HAVE LEARNED THAT NOTHING IS SIMPLE AND
 RATIONAL EXCEPT WHAT WE OURSELVES HAVE INVENTED;
 THAT GOD THINKS IN TERMS NEITHER OF EUCLID OR RIEMANN; THAT SCIENCE HAS "EXPLAINED" NOTHING;
 THAT THE MORE WE KNOW THE MORE FANTASTIC THE WORLD BECOMES
 AND THE PROFOUNDER THE SURROUNDING DARKNESS.
   --  ALDOUS HUXLEY
 Job cpu time:       0 days  0 hours  0 minutes 26.5 seconds.
 Elapsed time:       0 days  0 hours  0 minutes  3.6 seconds.
 File lengths (MBytes):  RWF=     11 Int=      0 D2E=      0 Chk=      2 Scr=      1
 Normal termination of Gaussian 16 at Mon Jul  3 12:15:14 2023.
