 Entering Gaussian System, Link 0=g16
 Initial command:
 /home/sekinelabo/g16/l1.exe "/home/sekinelabo/g16temp/Gau-8177.inp" -scrdir="/home/sekinelabo/g16temp/"
 Entering Link 1 = /home/sekinelabo/g16/l1.exe PID=      8199.
  
 Copyright (c) 1988-2017, Gaussian, Inc.  All Rights Reserved.
  
 This is part of the Gaussian(R) 16 program.  It is based on
 the Gaussian(R) 09 system (copyright 2009, Gaussian, Inc.),
 the Gaussian(R) 03 system (copyright 2003, Gaussian, Inc.),
 the Gaussian(R) 98 system (copyright 1998, Gaussian, Inc.),
 the Gaussian(R) 94 system (copyright 1995, Gaussian, Inc.),
 the Gaussian 92(TM) system (copyright 1992, Gaussian, Inc.),
 the Gaussian 90(TM) system (copyright 1990, Gaussian, Inc.),
 the Gaussian 88(TM) system (copyright 1988, Gaussian, Inc.),
 the Gaussian 86(TM) system (copyright 1986, Carnegie Mellon
 University), and the Gaussian 82(TM) system (copyright 1983,
 Carnegie Mellon University). Gaussian is a federally registered
 trademark of Gaussian, Inc.
  
 This software contains proprietary and confidential information,
 including trade secrets, belonging to Gaussian, Inc.
  
 This software is provided under written license and may be
 used, copied, transmitted, or stored only in accord with that
 written license.
  
 The following legend is applicable only to US Government
 contracts under FAR:
  
                    RESTRICTED RIGHTS LEGEND
  
 Use, reproduction and disclosure by the US Government is
 subject to restrictions as set forth in subparagraphs (a)
 and (c) of the Commercial Computer Software - Restricted
 Rights clause in FAR 52.227-19.
  
 Gaussian, Inc.
 340 Quinnipiac St., Bldg. 40, Wallingford CT 06492
  
  
 ---------------------------------------------------------------
 Warning -- This program may not be used in any manner that
 competes with the business of Gaussian, Inc. or will provide
 assistance to any competitor of Gaussian, Inc.  The licensee
 of this program is prohibited from giving any competitor of
 Gaussian, Inc. access to this program.  By using this program,
 the user acknowledges that Gaussian, Inc. is engaged in the
 business of creating and licensing software in the field of
 computational chemistry and represents and warrants to the
 licensee that it is not a competitor of Gaussian, Inc. and that
 it will not use this program in any manner prohibited above.
 ---------------------------------------------------------------
  

 Cite this work as:
 Gaussian 16, Revision B.01,
 M. J. Frisch, G. W. Trucks, H. B. Schlegel, G. E. Scuseria, 
 M. A. Robb, J. R. Cheeseman, G. Scalmani, V. Barone, 
 G. A. Petersson, H. Nakatsuji, X. Li, M. Caricato, A. V. Marenich, 
 J. Bloino, B. G. Janesko, R. Gomperts, B. Mennucci, H. P. Hratchian, 
 J. V. Ortiz, A. F. Izmaylov, J. L. Sonnenberg, D. Williams-Young, 
 F. Ding, F. Lipparini, F. Egidi, J. Goings, B. Peng, A. Petrone, 
 T. Henderson, D. Ranasinghe, V. G. Zakrzewski, J. Gao, N. Rega, 
 G. Zheng, W. Liang, M. Hada, M. Ehara, K. Toyota, R. Fukuda, 
 J. Hasegawa, M. Ishida, T. Nakajima, Y. Honda, O. Kitao, H. Nakai, 
 T. Vreven, K. Throssell, J. A. Montgomery, Jr., J. E. Peralta, 
 F. Ogliaro, M. J. Bearpark, J. J. Heyd, E. N. Brothers, K. N. Kudin, 
 V. N. Staroverov, T. A. Keith, R. Kobayashi, J. Normand, 
 K. Raghavachari, A. P. Rendell, J. C. Burant, S. S. Iyengar, 
 J. Tomasi, M. Cossi, J. M. Millam, M. Klene, C. Adamo, R. Cammi, 
 J. W. Ochterski, R. L. Martin, K. Morokuma, O. Farkas, 
 J. B. Foresman, and D. J. Fox, Gaussian, Inc., Wallingford CT, 2016.
 
 ******************************************
 Gaussian 16:  ES64L-G16RevB.01 20-Dec-2017
                 4-Oct-2023 
 ******************************************
 %NProcShared=16
 Will use up to   16 processors via shared memory.
 %mem=12GB
 %Chk=checkpoint.chk
 -------------------------
 #p B3LYP/6-311+g(d) force
 -------------------------
 1/10=7,30=1,38=1/1,3;
 2/12=2,17=6,18=5,40=1/2;
 3/5=4,6=6,7=11,11=2,25=1,30=1,71=1,74=-5/1,2,3;
 4//1;
 5/5=2,38=5/2;
 6/7=2,8=2,9=2,10=2,28=1/1;
 7/29=1/1,2,3,16;
 1/10=7,30=1/3;
 99//99;
 Leave Link    1 at Wed Oct  4 14:11:22 2023, MaxMem=  1610612736 cpu:               0.5 elap:               0.3
 (Enter /home/sekinelabo/g16/l101.exe)


 Symbolic Z-matrix:
 Charge =  0 Multiplicity = 1
 Na                    0.        0.        0. 
 Na                   -0.75056   0.       -2.63496 
 Na                    0.        0.        4.87925 
 Na                   -0.39746  -2.67611   8.34467 
 
 ITRead=  0  0  0  0
 MicOpt= -1 -1 -1 -1
 NAtoms=      4 NQM=        4 NQMF=       0 NMMI=      0 NMMIF=      0
                NMic=       0 NMicF=      0.
                    Isotopes and Nuclear Properties:
 (Nuclear quadrupole moments (NQMom) in fm**2, nuclear magnetic moments (NMagM)
  in nuclear magnetons)

  Atom         1           2           3           4
 IAtWgt=          23          23          23          23
 AtmWgt=  22.9897697  22.9897697  22.9897697  22.9897697
 NucSpn=           3           3           3           3
 AtZEff=  -0.0000000  -0.0000000  -0.0000000  -0.0000000
 NQMom=   10.4000000  10.4000000  10.4000000  10.4000000
 NMagM=    2.2175200   2.2175200   2.2175200   2.2175200
 AtZNuc=  11.0000000  11.0000000  11.0000000  11.0000000
 Leave Link  101 at Wed Oct  4 14:11:23 2023, MaxMem=  1610612736 cpu:               2.1 elap:               1.1
 (Enter /home/sekinelabo/g16/l103.exe)

 GradGradGradGradGradGradGradGradGradGradGradGradGradGradGradGradGradGrad
 Berny optimization.
 Initialization pass.
 Trust Radius=3.00D-01 FncErr=1.00D-07 GrdErr=1.00D-07 EigMax=2.50D+02 EigMin=1.00D-04
 Number of steps in this run=      2 maximum allowed number of steps=      2.
 GradGradGradGradGradGradGradGradGradGradGradGradGradGradGradGradGradGrad

 Leave Link  103 at Wed Oct  4 14:11:23 2023, MaxMem=  1610612736 cpu:               0.5 elap:               0.3
 (Enter /home/sekinelabo/g16/l202.exe)
                          Input orientation:                          
 ---------------------------------------------------------------------
 Center     Atomic      Atomic             Coordinates (Angstroms)
 Number     Number       Type             X           Y           Z
 ---------------------------------------------------------------------
      1         11           0        0.000000    0.000000    0.000000
      2         11           0       -0.750561    0.000000   -2.634961
      3         11           0        0.000000    0.000000    4.879248
      4         11           0       -0.397458   -2.676106    8.344672
 ---------------------------------------------------------------------
                    Distance matrix (angstroms):
                    1          2          3          4
     1  Na   0.000000
     2  Na   2.739774   0.000000
     3  Na   4.879248   7.551601   0.000000
     4  Na   8.772289  11.306572   4.396439   0.000000
 Stoichiometry    Na4
 Framework group  C1[X(Na4)]
 Deg. of freedom     6
 Full point group                 C1      NOp   1
 Largest Abelian subgroup         C1      NOp   1
 Largest concise Abelian subgroup C1      NOp   1
                         Standard orientation:                         
 ---------------------------------------------------------------------
 Center     Atomic      Atomic             Coordinates (Angstroms)
 Number     Number       Type             X           Y           Z
 ---------------------------------------------------------------------
      1         11           0        2.722174    0.198466    0.297025
      2         11           0        5.312706   -0.552695   -0.183876
      3         11           0       -2.045297    1.145388   -0.129145
      4         11           0       -5.989584   -0.791158    0.015996
 ---------------------------------------------------------------------
 Rotational constants (GHZ):           9.0775132           0.2898864           0.2819168
 Leave Link  202 at Wed Oct  4 14:11:24 2023, MaxMem=  1610612736 cpu:               1.0 elap:               0.6
 (Enter /home/sekinelabo/g16/l301.exe)
 Standard basis: 6-311+G(d) (5D, 7F)
 Ernie: Thresh=  0.10000D-02 Tol=  0.10000D-05 Strict=F.
 There are   124 symmetry adapted cartesian basis functions of A   symmetry.
 There are   120 symmetry adapted basis functions of A   symmetry.
   120 basis functions,   200 primitive gaussians,   124 cartesian basis functions
    22 alpha electrons       22 beta electrons
       nuclear repulsion energy        72.4992206263 Hartrees.
 IExCor=  402 DFT=T Ex+Corr=B3LYP ExCW=0 ScaHFX=  0.200000
 ScaDFX=  0.800000  0.720000  1.000000  0.810000 ScalE2=  1.000000  1.000000
 IRadAn=      5 IRanWt=     -1 IRanGd=            0 ICorTp=0 IEmpDi=  4
 NAtoms=    4 NActive=    4 NUniq=    4 SFac= 1.00D+00 NAtFMM=   60 NAOKFM=F Big=F
 Integral buffers will be    131072 words long.
 Raffenetti 2 integral format.
 Two-electron integral symmetry is turned on.
 Leave Link  301 at Wed Oct  4 14:11:24 2023, MaxMem=  1610612736 cpu:               0.7 elap:               0.4
 (Enter /home/sekinelabo/g16/l302.exe)
 NPDir=0 NMtPBC=     1 NCelOv=     1 NCel=       1 NClECP=     1 NCelD=      1
         NCelK=      1 NCelE2=     1 NClLst=     1 CellRange=     0.0.
 One-electron integrals computed using PRISM.
 One-electron integral symmetry used in STVInt
 NBasis=   120 RedAO= T EigKep=  7.87D-06  NBF=   120
 NBsUse=   120 1.00D-06 EigRej= -1.00D+00 NBFU=   120
 Precomputing XC quadrature grid using
 IXCGrd= 4 IRadAn=           5 IRanWt=          -1 IRanGd=           0 AccXCQ= 0.00D+00.
 Generated NRdTot=       0 NPtTot=           0 NUsed=           0 NTot=          32
 NSgBfM=   111   111   111   111   111 MxSgAt=     4 MxSgA2=     4.
 Leave Link  302 at Wed Oct  4 14:11:36 2023, MaxMem=  1610612736 cpu:              20.3 elap:              11.5
 (Enter /home/sekinelabo/g16/l303.exe)
 DipDrv:  MaxL=1.
 Leave Link  303 at Wed Oct  4 14:11:38 2023, MaxMem=  1610612736 cpu:               3.2 elap:               1.8
 (Enter /home/sekinelabo/g16/l401.exe)
 ExpMin= 7.60D-03 ExpMax= 3.62D+04 ExpMxC= 1.21D+03 IAcc=3 IRadAn=         5 AccDes= 0.00D+00
 Harris functional with IExCor=  402 and IRadAn=       5 diagonalized for initial guess.
 HarFok:  IExCor=  402 AccDes= 0.00D+00 IRadAn=         5 IDoV= 1 UseB2=F ITyADJ=14
 ICtDFT=  3500011 ScaDFX=  1.000000  1.000000  1.000000  1.000000
 FoFCou: FMM=F IPFlag=           0 FMFlag=      100000 FMFlg1=           0
         NFxFlg=           0 DoJE=T BraDBF=F KetDBF=T FulRan=T
         wScrn=  0.000000 ICntrl=       500 IOpCl=  0 I1Cent=   200000004 NGrid=           0
         NMat0=    1 NMatS0=      1 NMatT0=    0 NMatD0=    1 NMtDS0=    0 NMtDT0=    0
 Petite list used in FoFCou.
 Harris En= -649.057386489787    
 JPrj=0 DoOrth=F DoCkMO=F.
 Leave Link  401 at Wed Oct  4 14:11:46 2023, MaxMem=  1610612736 cpu:              14.2 elap:               8.0
 (Enter /home/sekinelabo/g16/l502.exe)
 Keep R1 ints in memory in canonical form, NReq=41581754.
 FoFCou: FMM=F IPFlag=           0 FMFlag=           0 FMFlg1=           0
         NFxFlg=           0 DoJE=F BraDBF=F KetDBF=F FulRan=T
         wScrn=  0.000000 ICntrl=       600 IOpCl=  0 I1Cent=           0 NGrid=           0
         NMat0=    1 NMatS0=   7260 NMatT0=    0 NMatD0=    1 NMtDS0=    0 NMtDT0=    0
 Symmetry not used in FoFCou.
 Two-electron integral symmetry not used.
 Closed shell SCF:
 Using DIIS extrapolation, IDIIS=  1040.
 NGot=  1610612736 LenX=  1584221388 LenY=  1584205571
 Requested convergence on RMS density matrix=1.00D-08 within 128 cycles.
 Requested convergence on MAX density matrix=1.00D-06.
 Requested convergence on             energy=1.00D-06.
 No special actions if energy rises.

 Cycle   1  Pass 1  IDiag  1:
 E= -649.170934829436    
 DIIS: error= 1.24D-02 at cycle   1 NSaved=   1.
 NSaved= 1 IEnMin= 1 EnMin= -649.170934829436     IErMin= 1 ErrMin= 1.24D-02
 ErrMax= 1.24D-02  0.00D+00 EMaxC= 1.00D-01 BMatC= 2.65D-02 BMatP= 2.65D-02
 IDIUse=3 WtCom= 8.76D-01 WtEn= 1.24D-01
 Coeff-Com:  0.100D+01
 Coeff-En:   0.100D+01
 Coeff:      0.100D+01
 Gap=     0.043 Goal=   None    Shift=    0.000
 GapD=    0.043 DampG=0.250 DampE=0.500 DampFc=0.2500 IDamp=-1.
 Damping current iteration by 2.50D-01
 RMSDP=7.91D-03 MaxDP=3.58D-01              OVMax= 1.14D-01

 Cycle   2  Pass 1  IDiag  1:
 E= -649.175070982432     Delta-E=       -0.004136152997 Rises=F Damp=T
 DIIS: error= 8.68D-03 at cycle   2 NSaved=   2.
 NSaved= 2 IEnMin= 2 EnMin= -649.175070982432     IErMin= 2 ErrMin= 8.68D-03
 ErrMax= 8.68D-03  0.00D+00 EMaxC= 1.00D-01 BMatC= 1.02D-02 BMatP= 2.65D-02
 IDIUse=3 WtCom= 9.13D-01 WtEn= 8.68D-02
 Coeff-Com: -0.131D+01 0.231D+01
 Coeff-En:   0.000D+00 0.100D+01
 Coeff:     -0.119D+01 0.219D+01
 Gap=     0.043 Goal=   None    Shift=    0.000
 RMSDP=5.69D-03 MaxDP=2.75D-01 DE=-4.14D-03 OVMax= 1.26D-01

 Cycle   3  Pass 1  IDiag  1:
 E= -649.182366778807     Delta-E=       -0.007295796375 Rises=F Damp=F
 DIIS: error= 1.98D-03 at cycle   3 NSaved=   3.
 NSaved= 3 IEnMin= 3 EnMin= -649.182366778807     IErMin= 3 ErrMin= 1.98D-03
 ErrMax= 1.98D-03  0.00D+00 EMaxC= 1.00D-01 BMatC= 2.08D-04 BMatP= 1.02D-02
 IDIUse=3 WtCom= 9.80D-01 WtEn= 1.98D-02
 Coeff-Com: -0.108D+00 0.199D+00 0.909D+00
 Coeff-En:   0.000D+00 0.000D+00 0.100D+01
 Coeff:     -0.106D+00 0.195D+00 0.911D+00
 Gap=     0.042 Goal=   None    Shift=    0.000
 RMSDP=2.40D-03 MaxDP=1.28D-01 DE=-7.30D-03 OVMax= 1.92D-01

 Cycle   4  Pass 1  IDiag  1:
 E= -649.176413884306     Delta-E=        0.005952894501 Rises=F Damp=F
 DIIS: error= 4.13D-03 at cycle   4 NSaved=   4.
 NSaved= 4 IEnMin= 3 EnMin= -649.182366778807     IErMin= 3 ErrMin= 1.98D-03
 ErrMax= 4.13D-03  0.00D+00 EMaxC= 1.00D-01 BMatC= 1.02D-03 BMatP= 2.08D-04
 IDIUse=3 WtCom= 1.35D-01 WtEn= 8.65D-01
 Coeff-Com:  0.151D-01-0.169D-01 0.693D+00 0.308D+00
 Coeff-En:   0.000D+00 0.000D+00 0.769D+00 0.231D+00
 Coeff:      0.203D-02-0.227D-02 0.759D+00 0.241D+00
 Gap=     0.043 Goal=   None    Shift=    0.000
 RMSDP=1.29D-03 MaxDP=7.37D-02 DE= 5.95D-03 OVMax= 1.04D-01

 Cycle   5  Pass 1  IDiag  1:
 E= -649.183351053172     Delta-E=       -0.006937168865 Rises=F Damp=F
 DIIS: error= 1.08D-03 at cycle   5 NSaved=   5.
 NSaved= 5 IEnMin= 5 EnMin= -649.183351053172     IErMin= 5 ErrMin= 1.08D-03
 ErrMax= 1.08D-03  0.00D+00 EMaxC= 1.00D-01 BMatC= 6.19D-05 BMatP= 2.08D-04
 IDIUse=3 WtCom= 9.89D-01 WtEn= 1.08D-02
 Coeff-Com: -0.161D-02 0.176D-02 0.281D+00-0.681D-01 0.787D+00
 Coeff-En:   0.000D+00 0.000D+00 0.302D+00 0.000D+00 0.698D+00
 Coeff:     -0.160D-02 0.174D-02 0.281D+00-0.674D-01 0.786D+00
 Gap=     0.043 Goal=   None    Shift=    0.000
 RMSDP=4.34D-04 MaxDP=2.19D-02 DE=-6.94D-03 OVMax= 3.42D-02

 Cycle   6  Pass 1  IDiag  1:
 E= -649.183789365792     Delta-E=       -0.000438312621 Rises=F Damp=F
 DIIS: error= 2.24D-05 at cycle   6 NSaved=   6.
 NSaved= 6 IEnMin= 6 EnMin= -649.183789365792     IErMin= 6 ErrMin= 2.24D-05
 ErrMax= 2.24D-05  0.00D+00 EMaxC= 1.00D-01 BMatC= 6.99D-08 BMatP= 6.19D-05
 IDIUse=1 WtCom= 1.00D+00 WtEn= 0.00D+00
 Coeff-Com: -0.161D-02 0.192D-02 0.586D-01-0.250D-01 0.211D+00 0.755D+00
 Coeff:     -0.161D-02 0.192D-02 0.586D-01-0.250D-01 0.211D+00 0.755D+00
 Gap=     0.043 Goal=   None    Shift=    0.000
 RMSDP=3.09D-05 MaxDP=1.15D-03 DE=-4.38D-04 OVMax= 1.21D-03

 Cycle   7  Pass 1  IDiag  1:
 E= -649.183789562525     Delta-E=       -0.000000196732 Rises=F Damp=F
 DIIS: error= 1.05D-05 at cycle   7 NSaved=   7.
 NSaved= 7 IEnMin= 7 EnMin= -649.183789562525     IErMin= 7 ErrMin= 1.05D-05
 ErrMax= 1.05D-05  0.00D+00 EMaxC= 1.00D-01 BMatC= 1.20D-08 BMatP= 6.99D-08
 IDIUse=1 WtCom= 1.00D+00 WtEn= 0.00D+00
 Coeff-Com: -0.687D-03 0.864D-03 0.766D-02-0.613D-02 0.329D-01 0.253D+00
 Coeff-Com:  0.712D+00
 Coeff:     -0.687D-03 0.864D-03 0.766D-02-0.613D-02 0.329D-01 0.253D+00
 Coeff:      0.712D+00
 Gap=     0.043 Goal=   None    Shift=    0.000
 RMSDP=7.14D-06 MaxDP=3.00D-04 DE=-1.97D-07 OVMax= 4.52D-04

 Cycle   8  Pass 1  IDiag  1:
 E= -649.183789632612     Delta-E=       -0.000000070087 Rises=F Damp=F
 DIIS: error= 1.67D-06 at cycle   8 NSaved=   8.
 NSaved= 8 IEnMin= 8 EnMin= -649.183789632612     IErMin= 8 ErrMin= 1.67D-06
 ErrMax= 1.67D-06  0.00D+00 EMaxC= 1.00D-01 BMatC= 4.14D-10 BMatP= 1.20D-08
 IDIUse=1 WtCom= 1.00D+00 WtEn= 0.00D+00
 Coeff-Com: -0.979D-04 0.124D-03-0.127D-02-0.866D-03-0.102D-02 0.345D-01
 Coeff-Com:  0.223D+00 0.746D+00
 Coeff:     -0.979D-04 0.124D-03-0.127D-02-0.866D-03-0.102D-02 0.345D-01
 Coeff:      0.223D+00 0.746D+00
 Gap=     0.043 Goal=   None    Shift=    0.000
 RMSDP=1.97D-06 MaxDP=4.98D-05 DE=-7.01D-08 OVMax= 4.44D-05

 Cycle   9  Pass 1  IDiag  1:
 E= -649.183789633295     Delta-E=       -0.000000000683 Rises=F Damp=F
 DIIS: error= 5.46D-07 at cycle   9 NSaved=   9.
 NSaved= 9 IEnMin= 9 EnMin= -649.183789633295     IErMin= 9 ErrMin= 5.46D-07
 ErrMax= 5.46D-07  0.00D+00 EMaxC= 1.00D-01 BMatC= 3.20D-11 BMatP= 4.14D-10
 IDIUse=1 WtCom= 1.00D+00 WtEn= 0.00D+00
 Coeff-Com:  0.614D-04-0.822D-04-0.523D-03 0.234D-03-0.166D-02-0.103D-01
 Coeff-Com: -0.475D-02 0.159D+00 0.858D+00
 Coeff:      0.614D-04-0.822D-04-0.523D-03 0.234D-03-0.166D-02-0.103D-01
 Coeff:     -0.475D-02 0.159D+00 0.858D+00
 Gap=     0.043 Goal=   None    Shift=    0.000
 RMSDP=8.32D-07 MaxDP=2.25D-05 DE=-6.83D-10 OVMax= 2.33D-05

 Cycle  10  Pass 1  IDiag  1:
 E= -649.183789633435     Delta-E=       -0.000000000141 Rises=F Damp=F
 DIIS: error= 2.55D-07 at cycle  10 NSaved=  10.
 NSaved=10 IEnMin=10 EnMin= -649.183789633435     IErMin=10 ErrMin= 2.55D-07
 ErrMax= 2.55D-07  0.00D+00 EMaxC= 1.00D-01 BMatC= 4.21D-12 BMatP= 3.20D-11
 IDIUse=1 WtCom= 1.00D+00 WtEn= 0.00D+00
 Coeff-Com:  0.302D-04-0.397D-04-0.223D-03 0.167D-03-0.952D-03-0.751D-02
 Coeff-Com: -0.146D-01 0.258D-01 0.312D+00 0.685D+00
 Coeff:      0.302D-04-0.397D-04-0.223D-03 0.167D-03-0.952D-03-0.751D-02
 Coeff:     -0.146D-01 0.258D-01 0.312D+00 0.685D+00
 Gap=     0.043 Goal=   None    Shift=    0.000
 RMSDP=1.82D-07 MaxDP=6.46D-06 DE=-1.41D-10 OVMax= 9.35D-06

 Cycle  11  Pass 1  IDiag  1:
 E= -649.183789633450     Delta-E=       -0.000000000014 Rises=F Damp=F
 DIIS: error= 8.46D-08 at cycle  11 NSaved=  11.
 NSaved=11 IEnMin=11 EnMin= -649.183789633450     IErMin=11 ErrMin= 8.46D-08
 ErrMax= 8.46D-08  0.00D+00 EMaxC= 1.00D-01 BMatC= 4.48D-13 BMatP= 4.21D-12
 IDIUse=1 WtCom= 1.00D+00 WtEn= 0.00D+00
 Coeff-Com: -0.461D-05 0.609D-05-0.465D-05 0.323D-05 0.342D-04 0.286D-03
 Coeff-Com: -0.642D-03-0.101D-01-0.275D-01 0.111D+00 0.927D+00
 Coeff:     -0.461D-05 0.609D-05-0.465D-05 0.323D-05 0.342D-04 0.286D-03
 Coeff:     -0.642D-03-0.101D-01-0.275D-01 0.111D+00 0.927D+00
 Gap=     0.043 Goal=   None    Shift=    0.000
 RMSDP=8.56D-08 MaxDP=2.66D-06 DE=-1.43D-11 OVMax= 2.99D-06

 Cycle  12  Pass 1  IDiag  1:
 E= -649.183789633453     Delta-E=       -0.000000000003 Rises=F Damp=F
 DIIS: error= 3.30D-09 at cycle  12 NSaved=  12.
 NSaved=12 IEnMin=12 EnMin= -649.183789633453     IErMin=12 ErrMin= 3.30D-09
 ErrMax= 3.30D-09  0.00D+00 EMaxC= 1.00D-01 BMatC= 3.29D-15 BMatP= 4.48D-13
 IDIUse=1 WtCom= 1.00D+00 WtEn= 0.00D+00
 Coeff-Com: -0.605D-06 0.817D-06 0.108D-05-0.108D-05 0.172D-04 0.101D-03
 Coeff-Com: -0.271D-05-0.140D-02-0.583D-02-0.355D-02 0.139D+00 0.872D+00
 Coeff:     -0.605D-06 0.817D-06 0.108D-05-0.108D-05 0.172D-04 0.101D-03
 Coeff:     -0.271D-05-0.140D-02-0.583D-02-0.355D-02 0.139D+00 0.872D+00
 Gap=     0.043 Goal=   None    Shift=    0.000
 RMSDP=9.93D-09 MaxDP=3.61D-07 DE=-2.96D-12 OVMax= 2.13D-07

 SCF Done:  E(RB3LYP) =  -649.183789633     A.U. after   12 cycles
            NFock= 12  Conv=0.99D-08     -V/T= 2.0029
 KE= 6.473114639763D+02 PE=-1.704067009041D+03 EE= 3.350725348053D+02
 Leave Link  502 at Wed Oct  4 14:13:00 2023, MaxMem=  1610612736 cpu:             131.0 elap:              74.5
 (Enter /home/sekinelabo/g16/l601.exe)
 Copying SCF densities to generalized density rwf, IOpCl= 0 IROHF=0.

 **********************************************************************

            Population analysis using the SCF Density.

 **********************************************************************

 Orbital symmetries:
       Occupied  (A) (A) (A) (A) (A) (A) (A) (A) (A) (A) (A) (A)
                 (A) (A) (A) (A) (A) (A) (A) (A) (A) (A)
       Virtual   (A) (A) (A) (A) (A) (A) (A) (A) (A) (A) (A) (A)
                 (A) (A) (A) (A) (A) (A) (A) (A) (A) (A) (A) (A)
                 (A) (A) (A) (A) (A) (A) (A) (A) (A) (A) (A) (A)
                 (A) (A) (A) (A) (A) (A) (A) (A) (A) (A) (A) (A)
                 (A) (A) (A) (A) (A) (A) (A) (A) (A) (A) (A) (A)
                 (A) (A) (A) (A) (A) (A) (A) (A) (A) (A) (A) (A)
                 (A) (A) (A) (A) (A) (A) (A) (A) (A) (A) (A) (A)
                 (A) (A) (A) (A) (A) (A) (A) (A) (A) (A) (A) (A)
                 (A) (A)
 The electronic state is 1-A.
 Alpha  occ. eigenvalues --  -38.46032 -38.45743 -38.44544 -38.44277  -2.21712
 Alpha  occ. eigenvalues --   -2.21424  -2.20385  -2.20111  -1.15392  -1.15392
 Alpha  occ. eigenvalues --   -1.15334  -1.15108  -1.15105  -1.15044  -1.14291
 Alpha  occ. eigenvalues --   -1.14010  -1.14010  -1.13737  -1.13736  -1.13674
 Alpha  occ. eigenvalues --   -0.13769  -0.12173
 Alpha virt. eigenvalues --   -0.07876  -0.04886  -0.02821  -0.02810  -0.02068
 Alpha virt. eigenvalues --   -0.01953  -0.01706  -0.00411  -0.00171   0.00068
 Alpha virt. eigenvalues --    0.00216   0.00942   0.01083   0.01112   0.01142
 Alpha virt. eigenvalues --    0.01356   0.01432   0.01871   0.01996   0.02048
 Alpha virt. eigenvalues --    0.02202   0.02440   0.02621   0.02755   0.03207
 Alpha virt. eigenvalues --    0.03498   0.03591   0.03727   0.04338   0.05485
 Alpha virt. eigenvalues --    0.06960   0.07266   0.07505   0.07983   0.08010
 Alpha virt. eigenvalues --    0.08276   0.08514   0.08897   0.09066   0.09229
 Alpha virt. eigenvalues --    0.10248   0.10401   0.12079   0.12388   0.13417
 Alpha virt. eigenvalues --    0.16872   0.29671   0.29755   0.31631   0.31800
 Alpha virt. eigenvalues --    0.31823   0.32407   0.32759   0.34158   0.34472
 Alpha virt. eigenvalues --    0.34607   0.35053   0.35815   0.36962   0.37742
 Alpha virt. eigenvalues --    0.38953   0.38983   0.40067   0.42671   0.42880
 Alpha virt. eigenvalues --    0.42920   0.43080   0.43634   0.44102   0.44463
 Alpha virt. eigenvalues --    0.44705   0.45456   0.47417   0.48397   0.49801
 Alpha virt. eigenvalues --    0.52585   0.53288   0.81824   2.00400   2.04488
 Alpha virt. eigenvalues --    2.06435   2.11680   4.42455   4.42675   4.42865
 Alpha virt. eigenvalues --    4.43006   4.43098   4.43700   4.43966   4.44591
 Alpha virt. eigenvalues --    4.47013   4.47182   4.47976   4.75726  96.19392
 Alpha virt. eigenvalues --   96.24111  96.26486  96.34917
          Condensed to atoms (all electrons):
               1          2          3          4
     1  Na  11.886517  -0.205757   0.027106  -0.091129
     2  Na  -0.205757  10.760235  -0.236905  -0.014121
     3  Na   0.027106  -0.236905  11.055787   0.264866
     4  Na  -0.091129  -0.014121   0.264866  10.809341
 Mulliken charges:
               1
     1  Na  -0.616737
     2  Na   0.696548
     3  Na  -0.110854
     4  Na   0.031043
 Sum of Mulliken charges =  -0.00000
 Mulliken charges with hydrogens summed into heavy atoms:
               1
     1  Na  -0.616737
     2  Na   0.696548
     3  Na  -0.110854
     4  Na   0.031043
 Electronic spatial extent (au):  <R**2>=           3148.2088
 Charge=             -0.0000 electrons
 Dipole moment (field-independent basis, Debye):
    X=             -0.2280    Y=             -0.2793    Z=             -0.0711  Tot=              0.3675
 Quadrupole moment (field-independent basis, Debye-Ang):
   XX=            -20.3472   YY=            -41.8662   ZZ=            -45.0044
   XY=              2.4333   XZ=             -1.7936   YZ=              0.1413
 Traceless Quadrupole moment (field-independent basis, Debye-Ang):
   XX=             15.3921   YY=             -6.1269   ZZ=             -9.2651
   XY=              2.4333   XZ=             -1.7936   YZ=              0.1413
 Octapole moment (field-independent basis, Debye-Ang**2):
  XXX=            -20.8974  YYY=             -0.3787  ZZZ=             -0.0691  XYY=             -1.4406
  XXY=            -66.5355  XXZ=            -10.2094  XZZ=              5.5272  YZZ=             -0.4838
  YYZ=             -0.5124  XYZ=              2.6170
 Hexadecapole moment (field-independent basis, Debye-Ang**3):
 XXXX=          -3024.1291 YYYY=           -312.5356 ZZZZ=           -202.2985 XXXY=            135.4056
 XXXZ=            -97.1361 YYYX=              8.8030 YYYZ=              0.1144 ZZZX=             -8.4751
 ZZZY=              0.4602 XXYY=           -843.1510 XXZZ=           -884.1317 YYZZ=            -86.4312
 XXYZ=              7.9809 YYXZ=             -3.1946 ZZXY=              3.2546
 N-N= 7.249922062629D+01 E-N=-1.704067008943D+03  KE= 6.473114639763D+02
 No NMR shielding tensors so no spin-rotation constants.
 Leave Link  601 at Wed Oct  4 14:13:05 2023, MaxMem=  1610612736 cpu:               8.2 elap:               4.6
 (Enter /home/sekinelabo/g16/l701.exe)
 ... and contract with generalized density number  0.
 Compute integral first derivatives.
 Leave Link  701 at Wed Oct  4 14:13:09 2023, MaxMem=  1610612736 cpu:               6.7 elap:               3.9
 (Enter /home/sekinelabo/g16/l702.exe)
 L702 exits ... SP integral derivatives will be done elsewhere.
 Leave Link  702 at Wed Oct  4 14:13:09 2023, MaxMem=  1610612736 cpu:               0.6 elap:               0.4
 (Enter /home/sekinelabo/g16/l703.exe)
 Integral derivatives from FoFJK, PRISM(SPDF).
 Compute integral first derivatives, UseDBF=F ICtDFT=           0.
 Calling FoFJK, ICntrl=      2127 FMM=F ISym2X=0 I1Cent= 0 IOpClX= 0 NMat=1 NMatS=1 NMatT=0.
 FoFJK:  IHMeth= 1 ICntrl=    2127 DoSepK=F KAlg= 0 I1Cent=           0 FoldK=F
 IRaf=         0 NMat=       1 IRICut=       1 DoRegI=T DoRafI=F ISym2E= 0 IDoP0=0 IntGTp=1.
 FoFCou: FMM=F IPFlag=           0 FMFlag=      100000 FMFlg1=         800
         NFxFlg=           0 DoJE=F BraDBF=F KetDBF=F FulRan=T
         wScrn=  0.000000 ICntrl=      2127 IOpCl=  0 I1Cent=           0 NGrid=           0
         NMat0=    1 NMatS0=      1 NMatT0=    0 NMatD0=    1 NMtDS0=    0 NMtDT0=    0
 Symmetry not used in FoFCou.
 Leave Link  703 at Wed Oct  4 14:13:16 2023, MaxMem=  1610612736 cpu:              12.4 elap:               7.0
 (Enter /home/sekinelabo/g16/l716.exe)
 Dipole        =-8.96966533D-02-1.09890895D-01-2.79685875D-02
 ***** Axes restored to original set *****
 -------------------------------------------------------------------
 Center     Atomic                   Forces (Hartrees/Bohr)
 Number     Number              X              Y              Z
 -------------------------------------------------------------------
      1       11           0.002505100   -0.000081382    0.009884385
      2       11          -0.002499166    0.000053464   -0.008805140
      3       11          -0.000732785   -0.004764708    0.005125368
      4       11           0.000726851    0.004792625   -0.006204614
 -------------------------------------------------------------------
 Cartesian Forces:  Max     0.009884385 RMS     0.004993880
 Z-matrix is all fixed cartesians, so copy forces.
 Force constants in Cartesian coordinates: 
                1             2             3             4             5 
      1  0.432865D-02
      2  0.000000D+00  0.000000D+00
      3  0.151964D-01  0.000000D+00  0.533493D-01
      4 -0.432865D-02  0.000000D+00 -0.151964D-01  0.432865D-02
      5  0.000000D+00  0.000000D+00  0.000000D+00  0.000000D+00  0.000000D+00
      6 -0.151964D-01  0.000000D+00 -0.533493D-01  0.151964D-01  0.000000D+00
      7  0.000000D+00  0.000000D+00  0.000000D+00  0.000000D+00  0.000000D+00
      8  0.000000D+00  0.000000D+00  0.000000D+00  0.000000D+00  0.000000D+00
      9  0.000000D+00  0.000000D+00  0.000000D+00  0.000000D+00  0.000000D+00
     10  0.000000D+00  0.000000D+00  0.000000D+00  0.000000D+00  0.000000D+00
     11  0.000000D+00  0.000000D+00  0.000000D+00  0.000000D+00  0.000000D+00
     12  0.000000D+00  0.000000D+00  0.000000D+00  0.000000D+00  0.000000D+00
                6             7             8             9            10 
      6  0.533493D-01
      7  0.000000D+00  0.100000D+01
      8  0.000000D+00  0.000000D+00  0.100000D+01
      9  0.000000D+00  0.000000D+00  0.000000D+00  0.100000D+01
     10  0.000000D+00  0.000000D+00  0.000000D+00  0.000000D+00  0.100000D+01
     11  0.000000D+00  0.000000D+00  0.000000D+00  0.000000D+00  0.000000D+00
     12  0.000000D+00  0.000000D+00  0.000000D+00  0.000000D+00  0.000000D+00
               11            12 
     11  0.100000D+01
     12  0.000000D+00  0.100000D+01
 Leave Link  716 at Wed Oct  4 14:13:17 2023, MaxMem=  1610612736 cpu:               0.8 elap:               0.4
 (Enter /home/sekinelabo/g16/l103.exe)

 GradGradGradGradGradGradGradGradGradGradGradGradGradGradGradGradGradGrad
 Berny optimization.
 Search for a local minimum.
 Step number   1 out of a maximum of    2
 All quantities printed in internal units (Hartrees-Bohrs-Radians)
 Second derivative matrix not updated -- first step.
 The second derivative matrix:
                          X1        Y1        Z1        X2        Y2
           X1           0.00433
           Y1           0.00000   0.00000
           Z1           0.01520   0.00000   0.05335
           X2          -0.00433  -0.00000  -0.01520   0.00433
           Y2          -0.00000  -0.00000  -0.00000   0.00000   0.00000
           Z2          -0.01520  -0.00000  -0.05335   0.01520   0.00000
           X3           0.00000   0.00000   0.00000   0.00000   0.00000
           Y3           0.00000   0.00000   0.00000   0.00000   0.00000
           Z3           0.00000   0.00000   0.00000   0.00000   0.00000
           X4           0.00000   0.00000   0.00000   0.00000   0.00000
           Y4           0.00000   0.00000   0.00000   0.00000   0.00000
           Z4           0.00000   0.00000   0.00000   0.00000   0.00000
                          Z2        X3        Y3        Z3        X4
           Z2           0.05335
           X3           0.00000   1.00000
           Y3           0.00000  -0.00000   1.00000
           Z3           0.00000   0.00000   0.00000   1.00000
           X4           0.00000   0.00000   0.00000   0.00000   1.00000
           Y4           0.00000   0.00000   0.00000   0.00000  -0.00000
           Z4           0.00000   0.00000   0.00000   0.00000   0.00000
                          Y4        Z4
           Y4           1.00000
           Z4           0.00000   1.00000
 ITU=  0
     Eigenvalues ---    0.02581   0.11536   0.16349   0.50000   0.93645
     Eigenvalues ---    1.00000
 Angle between quadratic step and forces=  32.73 degrees.
 Linear search not attempted -- first point.
 B after Tr=    -0.000000    0.000000    0.000000
         Rot=    1.000000    0.000000   -0.000000    0.000000 Ang=   0.00 deg.
 Variable       Old X    -DE/DX   Delta X   Delta X   Delta X     New X
                                 (Linear)    (Quad)   (Total)
    X1       -0.00000   0.00251   0.00000   0.01749   0.01749   0.01749
    Y1       -0.00000  -0.00008   0.00000  -0.00398  -0.00398  -0.00398
    Z1        0.00000   0.00988   0.00000   0.08298   0.08298   0.08298
    X2       -1.41835  -0.00250   0.00000  -0.01905  -0.01905  -1.43741
    Y2       -0.00000   0.00005   0.00000   0.00280   0.00280   0.00280
    Z2       -4.97935  -0.00881   0.00000  -0.08098  -0.08098  -5.06033
    X3       -0.00000  -0.00073   0.00000  -0.00004  -0.00004  -0.00004
    Y3        0.00000  -0.00476   0.00000  -0.00433  -0.00433  -0.00433
    Z3        9.22044   0.00513   0.00000   0.00454   0.00454   9.22499
    X4       -0.75109   0.00073   0.00000   0.00160   0.00160  -0.74948
    Y4       -5.05711   0.00479   0.00000   0.00551   0.00551  -5.05160
    Z4       15.76914  -0.00620   0.00000  -0.00655  -0.00655  15.76260
         Item               Value     Threshold  Converged?
 Maximum Force            0.009884     0.000450     NO 
 RMS     Force            0.004994     0.000300     NO 
 Maximum Displacement     0.082983     0.001800     NO 
 RMS     Displacement     0.034462     0.001200     NO 
 Predicted change in Energy=-8.686658D-04
 GradGradGradGradGradGradGradGradGradGradGradGradGradGradGradGradGradGrad

 Leave Link  103 at Wed Oct  4 14:13:19 2023, MaxMem=  1610612736 cpu:               4.6 elap:               2.5
 (Enter /home/sekinelabo/g16/l9999.exe)
 1\1\GINC-SEKINELABO-XA7R-R37\Force\RB3LYP\6-311+G(d)\Na4\SEKINELABO\04
 -Oct-2023\0\\#p B3LYP/6-311+g(d) force\\\0,1\Na,0.,0.,0.\Na,-0.7505605
 534,0.,-2.6349610878\Na,0.,0.,4.8792480757\Na,-0.3974580189,-2.6761063
 262,8.3446716033\\Version=ES64L-G16RevB.01\State=1-A\HF=-649.1837896\R
 MSD=9.935e-09\RMSF=4.994e-03\Dipole=-0.0597002,-0.112303,0.068758\Quad
 rupole=-6.5493193,-3.2346164,9.7839357,0.5014514,1.2009877,-5.3296901\
 PG=C01 [X(Na4)]\\@


 SLITHERY-DITHERY
 FRIEDRICH A. KEKULE
 DREAMT ON A BUS OF THINGS
 FREUD WOULD THINK KEEN.
 MOST OF THE TIME THEY WERE
 HERPETOLOGICAL
 BITING THEIR TAILS IN THE
 SHAPE OF BENZENE.
 Job cpu time:       0 days  0 hours  3 minutes 27.8 seconds.
 Elapsed time:       0 days  0 hours  1 minutes 57.7 seconds.
 File lengths (MBytes):  RWF=     10 Int=      0 D2E=      0 Chk=      2 Scr=      1
 Normal termination of Gaussian 16 at Wed Oct  4 14:13:20 2023.
 Initial command:
 /home/sekinelabo/g16/l1.exe "/home/sekinelabo/g16temp/Gau-8165.inp" -scrdir="/home/sekinelabo/g16temp/"
 Entering Link 1 = /home/sekinelabo/g16/l1.exe PID=     10134.
  
 Copyright (c) 1988-2017, Gaussian, Inc.  All Rights Reserved.
  
 This is part of the Gaussian(R) 16 program.  It is based on
 the Gaussian(R) 09 system (copyright 2009, Gaussian, Inc.),
 the Gaussian(R) 03 system (copyright 2003, Gaussian, Inc.),
 the Gaussian(R) 98 system (copyright 1998, Gaussian, Inc.),
 the Gaussian(R) 94 system (copyright 1995, Gaussian, Inc.),
 the Gaussian 92(TM) system (copyright 1992, Gaussian, Inc.),
 the Gaussian 90(TM) system (copyright 1990, Gaussian, Inc.),
 the Gaussian 88(TM) system (copyright 1988, Gaussian, Inc.),
 the Gaussian 86(TM) system (copyright 1986, Carnegie Mellon
 University), and the Gaussian 82(TM) system (copyright 1983,
 Carnegie Mellon University). Gaussian is a federally registered
 trademark of Gaussian, Inc.
  
 This software contains proprietary and confidential information,
 including trade secrets, belonging to Gaussian, Inc.
  
 This software is provided under written license and may be
 used, copied, transmitted, or stored only in accord with that
 written license.
  
 The following legend is applicable only to US Government
 contracts under FAR:
  
                    RESTRICTED RIGHTS LEGEND
  
 Use, reproduction and disclosure by the US Government is
 subject to restrictions as set forth in subparagraphs (a)
 and (c) of the Commercial Computer Software - Restricted
 Rights clause in FAR 52.227-19.
  
 Gaussian, Inc.
 340 Quinnipiac St., Bldg. 40, Wallingford CT 06492
  
  
 ---------------------------------------------------------------
 Warning -- This program may not be used in any manner that
 competes with the business of Gaussian, Inc. or will provide
 assistance to any competitor of Gaussian, Inc.  The licensee
 of this program is prohibited from giving any competitor of
 Gaussian, Inc. access to this program.  By using this program,
 the user acknowledges that Gaussian, Inc. is engaged in the
 business of creating and licensing software in the field of
 computational chemistry and represents and warrants to the
 licensee that it is not a competitor of Gaussian, Inc. and that
 it will not use this program in any manner prohibited above.
 ---------------------------------------------------------------
  

 Cite this work as:
 Gaussian 16, Revision B.01,
 M. J. Frisch, G. W. Trucks, H. B. Schlegel, G. E. Scuseria, 
 M. A. Robb, J. R. Cheeseman, G. Scalmani, V. Barone, 
 G. A. Petersson, H. Nakatsuji, X. Li, M. Caricato, A. V. Marenich, 
 J. Bloino, B. G. Janesko, R. Gomperts, B. Mennucci, H. P. Hratchian, 
 J. V. Ortiz, A. F. Izmaylov, J. L. Sonnenberg, D. Williams-Young, 
 F. Ding, F. Lipparini, F. Egidi, J. Goings, B. Peng, A. Petrone, 
 T. Henderson, D. Ranasinghe, V. G. Zakrzewski, J. Gao, N. Rega, 
 G. Zheng, W. Liang, M. Hada, M. Ehara, K. Toyota, R. Fukuda, 
 J. Hasegawa, M. Ishida, T. Nakajima, Y. Honda, O. Kitao, H. Nakai, 
 T. Vreven, K. Throssell, J. A. Montgomery, Jr., J. E. Peralta, 
 F. Ogliaro, M. J. Bearpark, J. J. Heyd, E. N. Brothers, K. N. Kudin, 
 V. N. Staroverov, T. A. Keith, R. Kobayashi, J. Normand, 
 K. Raghavachari, A. P. Rendell, J. C. Burant, S. S. Iyengar, 
 J. Tomasi, M. Cossi, J. M. Millam, M. Klene, C. Adamo, R. Cammi, 
 J. W. Ochterski, R. L. Martin, K. Morokuma, O. Farkas, 
 J. B. Foresman, and D. J. Fox, Gaussian, Inc., Wallingford CT, 2016.
 
 ******************************************
 Gaussian 16:  ES64L-G16RevB.01 20-Dec-2017
                 4-Oct-2023 
 ******************************************
 %NProcShared=16
 Will use up to   16 processors via shared memory.
 %mem=12GB
 %Chk=checkpoint.chk
 -------------------------
 #p B3LYP/6-311+g(d) force
 -------------------------
 1/10=7,30=1,38=1/1,3;
 2/12=2,17=6,18=5,40=1/2;
 3/5=4,6=6,7=11,11=2,25=1,30=1,71=1,74=-5/1,2,3;
 4//1;
 5/5=2,38=5/2;
 6/7=2,8=2,9=2,10=2,28=1/1;
 7/29=1/1,2,3,16;
 1/10=7,30=1/3;
 99//99;
 Leave Link    1 at Wed Oct  4 14:13:20 2023, MaxMem=  1610612736 cpu:

 Symbolic Z-matrix:
 Charge =  0 Multiplicity = 1
 Na                    0.     

 Symbolic Z-matrix:
 Charge =  0 Multiplicity = 1
 Na                    0.        0.        0. 
 Na                   -1.86203   0.       -4.15167 
 Na                    0.        0.        5.35191 
 Na                   -2.26279  -1.96858   3.72633 
 
 ITRead=  0  0  0  0
 MicOpt= -1 -1 -1 -1
 NAtoms=      4 NQM=        4 NQMF=       0 NMMI=      0 NMMIF=      0
                NMic=       0 NMicF=      0.
                    Isotopes and Nuclear Properties:
 (Nuclear quadrupole moments (NQMom) in fm**2, nuclear magnetic moments (NMagM)
  in nuclear magnetons)

  Atom         1           2           3           4
 IAtWgt=          23          23          23          23
 AtmWgt=  22.9897697  22.9897697  22.9897697  22.9897697
 NucSpn=           3           3           3           3
 AtZEff=  -0.0000000  -0.0000000  -0.0000000  -0.0000000
 NQMom=   10.4000000  10.4000000  10.4000000  10.4000000
 NMagM=    2.2175200   2.2175200   2.2175200   2.2175200
 AtZNuc=  11.0000000  11.0000000  11.0000000  11.0000000
 Leave Link  101 at Wed Oct  4 14:13:21 2023, MaxMem=  1610612736 cpu:               2.1 elap:               1.2
 (Enter /home/sekinelabo/g16/l103.exe)

 GradGradGradGradGradGradGradGradGradGradGradGradGradGradGradGradGradGrad
 Berny optimization.
 Initialization pass.
 Trust Radius=3.00D-01 FncErr=1.00D-07 GrdErr=1.00D-07 EigMax=2.50D+02 EigMin=1.00D-04
 Number of steps in this run=      2 maximum allowed number of steps=      2.
 GradGradGradGradGradGradGradGradGradGradGradGradGradGradGradGradGradGrad

 Leave Link  103 at Wed Oct  4 14:13:22 2023, MaxMem=  1610612736 cpu:               0.6 elap:               0.4
 (Enter /home/sekinelabo/g16/l202.exe)
                          Input orientation:                          
 ---------------------------------------------------------------------
 Center     Atomic      Atomic             Coordinates (Angstroms)
 Number     Number       Type             X           Y           Z
 ---------------------------------------------------------------------
      1         11           0        0.000000    0.000000    0.000000
      2         11           0       -1.862025    0.000000   -4.151673
      3         11           0        0.000000    0.000000    5.351912
      4         11           0       -2.262794   -1.968581    3.726329
 ---------------------------------------------------------------------
                    Distance matrix (angstroms):
                    1          2          3          4
     1  Na   0.000000
     2  Na   4.550112   0.000000
     3  Na   5.351912   9.684278   0.000000
     4  Na   4.783416   8.130119   3.411461   0.000000
 Stoichiometry    Na4
 Framework group  C1[X(Na4)]
 Deg. of freedom     6
 Full point group                 C1      NOp   1
 Largest Abelian subgroup         C1      NOp   1
 Largest concise Abelian subgroup C1      NOp   1
                         Standard orientation:                         
 ---------------------------------------------------------------------
 Center     Atomic      Atomic             Coordinates (Angstroms)
 Number     Number       Type             X           Y           Z
 ---------------------------------------------------------------------
      1         11           0       -1.182166   -1.129856    0.385282
      2         11           0       -5.455779    0.304557   -0.232952
      3         11           0        4.129535   -1.075962   -0.267322
      4         11           0        2.508410    1.901261    0.114993
 ---------------------------------------------------------------------
 Rotational constants (GHZ):           3.4192036           0.4011777           0.3624529
 Leave Link  202 at Wed Oct  4 14:13:22 2023, MaxMem=  1610612736 cpu:               1.0 elap:               0.6
 (Enter /home/sekinelabo/g16/l301.exe)
 Standard basis: 6-311+G(d) (5D, 7F)
 Ernie: Thresh=  0.10000D-02 Tol=  0.10000D-05 Strict=F.
 There are   124 symmetry adapted cartesian basis functions of A   symmetry.
 There are   120 symmetry adapted basis functions of A   symmetry.
   120 basis functions,   200 primitive gaussians,   124 cartesian basis functions
    22 alpha electrons       22 beta electrons
       nuclear repulsion energy        72.6789467407 Hartrees.
 IExCor=  402 DFT=T Ex+Corr=B3LYP ExCW=0 ScaHFX=  0.200000
 ScaDFX=  0.800000  0.720000  1.000000  0.810000 ScalE2=  1.000000  1.000000
 IRadAn=      5 IRanWt=     -1 IRanGd=            0 ICorTp=0 IEmpDi=  4
 NAtoms=    4 NActive=    4 NUniq=    4 SFac= 1.00D+00 NAtFMM=   60 NAOKFM=F Big=F
 Integral buffers will be    131072 words long.
 Raffenetti 2 integral format.
 Two-electron integral symmetry is turned on.
 Leave Link  301 at Wed Oct  4 14:13:23 2023, MaxMem=  1610612736 cpu:               0.7 elap:               0.5
 (Enter /home/sekinelabo/g16/l302.exe)
 NPDir=0 NMtPBC=     1 NCelOv=     1 NCel=       1 NClECP=     1 NCelD=      1
         NCelK=      1 NCelE2=     1 NClLst=     1 CellRange=     0.0.
 One-electr NBasis=   120 RedAO= T EigKep=  1.44D-04  NBF=   120
 NBsUse=   120 1.00D-06 EigR NBasis=   120 RedAO= T EigKep=  1.44D-04  NBF=   120
 NBsUse=   120 1.00D-06 EigRej= -1.00D+00 NBFU=   120
 Precomputing XC quadrature grid using
 IXCGrd= 4 IRadAn=           5 IRanWt=          -1 IRanGd=           0 AccXCQ= 0.00D+00.
 Generated NRdTot=       0 NPtTot=           0 NUsed=           0 NTot=          32
 NSgBfM=   116   116   116   116   116 MxSgAt=     4 MxSgA2=     4.
 Leave Link  302 at Wed Oct  4 14:13:34 2023, MaxMem=  1610612736 cpu:              20.1 Leave Link  303 at Wed Oct  4 14:13:35 2023, MaxMem=  1610612736 cpu:             Leave Link  303 at Wed Oct  4 14:13:36 2023, MaxMem=  1610612736 cpu:               2.9 elap:               1.7
 (Enter /home/sekinelabo/g16/l401.exe)
 ExpMin= 7.60D-03 ExpMax= 3.62D+04 ExpMxC= 1.21D+03 IAcc=3 IRadAn=         5 AccDes= 0.00D+00
 Harris functional with IExCor=  402 and IRadAn=       5 diagonalized for initial guess.
 HarFok:  IExCor=  402 AccDes= 0.00D+00 IRadAn=         5 IDoV= 1 Us FoFCou: FMM=F IPFlag=           0 FMFlag=      100000 FMFlg1=           0
        FoFCou: FMM=F IPFlag=           0 FMFlag=      100000 FMFlg1=           0
         NFxFlg=           0 DoJE=T BraDBF=F KetDBF=T FulRan=T
         wScrn=  0.000000 ICntrl=       500 IOpCl=  0 I1Cent=   200000004 NGrid=           0
         NMat0=    1 NMatS0=      1 Harris En= -649.057408801678    
 JPrj=0 DoOrth=F DoCkMO=F.
 Leave Link  401 at W Harris En= -649.057408801678    
 JPrj=0 DoOrth=F DoCkMO=F.
 Leave Link  401 at Wed Oct  4 14:13:44 2023, MaxMem=  1610612736 cpu:              14.6 elap:               8.3
 (Enter /home/sekinelabo/g16/l502.exe)
 Keep R1 ints in memory in canonical form, NReq=41581754.
 FoFCou: FMM=F IPFlag=           0 FMFlag=           0 FMFlg1=           0
         NFxFlg=           0 DoJE=F BraDBF=F KetDBF=F FulRan=T
         wScrn=  0.000000 ICntrl=       600 IOpCl=  0 I1Cent=           0 NGrid=           0
         NMat0=    1 NMatS0=   7260  Two-electron integral symmetry not used.
 Closed shell SCF:
 Using DIIS extrapola Two-electron integral symmetry not used.
 Closed shell SCF:
 Using DIIS extrapolation, IDIIS=  1040.
 NGot=  1610612736 LenX=  1584221388 LenY=  1584205571
 Requested convergence on RMS density matrix=1.00D-08 within 128 cycles.
 Requested convergence on MAX density matrix=1.00D-06.
 Requested convergence on             ene E= -649.171528656101    
 DIIS: error= 1.73D-02 at cycle   1 NSaved=   1.
 NSaved E= -649.171528656103    
 DIIS: error= 1.73D-02 at cycle   1 NSaved=   1.
 NSaved= 1 IEnMin= 1 EnMin= -649.171528656103     IErMin= 1 ErrMin= 1.73D-02
 ErrMax= 1.73D-02  0.00D+00 EMaxC= 1.00D-01 BMatC= 2.66D-02 BMatP= 2.66D-02
 IDIUse=3 WtCom= 8.27D-01 WtEn= 1.73D-01
 Coeff-Com:  0.100D+01
 Coeff-En:   GapD=    0.041 DampG=0.250 DampE=0.500 DampFc=0.2500 IDamp=-1.
 Damping current i GapD=    0.041 DampG=0.250 DampE=0.500 DampFc=0.2500 IDamp=-1.
 Damping current iteration by 2.50D-01
 RMSDP=1. E= -649.175571574690     Delta-E=       -0.004042918588 Rises=F Damp=T
 DIIS: err E= -649.175571574688     Delta-E=       -0.004042918585 Rises=F Damp=T
 DIIS: error= 1.21D-02 at cycle   2 NSaved=   2.
 NSaved= 2 IEnMin= 2 EnMin= -649.175571574688     IErMin= 2 ErrMin= 1.21D-02
 ErrMax= 1.21D-02  0.00D+00 EMaxC= 1.00D-01 BMatC= 1.03D-02 BMatP= 2.66D-02
 IDIUse=3 WtCom= 8.79D-01 WtEn= 1.21D-01
 Coeff-Com: -0.130D+01 0.230D+01
 Coeff-En:   0.000D+00 0.100D+01 RMSDP=1.51D-03 MaxDP=5.39D-02 DE=-4.04D-03 OVMax= 6.62D-02

 Cycle   3  Pass 1  I RMSDP=1. E= -649.183751642036     Delta-E=       -0.008180067347 Rises=F Damp=F
 DIIS: err E= -649.183751642038     Delta-E=       -0.008180067350 Rises=F Damp=F
 DIIS: error= 8.26D-04 at cycle   3 NSaved=   3.
 NSaved= 3 IEnMin= 3 EnMin= -649.183751642038     IErMin= 3 ErrMin= 8.26D-04
 ErrMax= 8.26D-04  0.00D+00 EMaxC= 1.00D-01 BMatC= 7.48D-05 BMatP= 1.03D-02
 IDIUse=3 WtCom= 9.92D-01 WtEn= 8.26D-03
 Coeff-Com:  0.538D-01-0.530D-01 0.999D+00
 Coeff-En:   0.000D+00 0.000D+00 0.100D+01
 Coeff:   RMSDP=1.14D-03 MaxDP=6.49D-02 DE=-8.18D-03 OVMax= 1.16D-01

 Cycle   4  Pass 1  I RMSDP=1. E= -649.181447069151     Delta-E=        0.002304572886 Rises=F Damp=F
 DIIS: err E= -649.181447069152     Delta-E=        0.002304572886 Rises=F Damp=F
 DIIS: error= 2.29D-03 at cycle   4 NSaved=   4.
 NSaved= 4 IEnMin= 3 EnMin= -649.183751642038     IErMin= 3 ErrMin= 8.26D-04
 ErrMax= 2.29D-03  0.00D+00 EMaxC= 1.00D-01 BMatC= 3.67D-04 BMatP= 7.48D-05
 IDIUse=3 WtCom= 1.73D-01 WtEn= 8.27D-01
 Coeff-Com:  0.708D-01-0.933D-01 0.733D+00 0.290D+00
 Coeff-En:   0.000D+00 0.000D+00 0.816D+00 0.184D+00
 Coeff:      0.122D RMSDP=6.38D-04 MaxDP=3.61D-02 DE= 2.30D-03 OVMax= 6.54D-02

 Cycle   5  Pass 1  I RMSDP=6. E= -649.183972442107     Delta-E=       -0.002525372956 Rises=F Damp=F
 DIIS: err E= -649.183972442109     Delta-E=       -0.002525372957 Rises=F Damp=F
 DIIS: error= 5.63D-04 at cycle   5 NSaved=   5.
 NSaved= 5 IEnMin= 5 EnMin= -649.183972442109     IErMin= 5 ErrMin= 5.63D-04
 ErrMax= 5.63D-04  0.00D+00 EMaxC= 1.00D-01 BMatC= 2.84D-05 BMatP= 7.48D-05
 IDIUse=3 WtCom= 9.94D-01 WtEn= 5.63D-03
 Coeff-Com: -0.197D-01 0.260D-01 0.262D+00-0.111D+00 0.843D+00
 Coeff-En:   0.000D+00 0.000D+00 0.350D+00 0.000D+00 0.650D+00
 Coeff:     -0.196D-01 0.258D RMSDP=2.18D-04 MaxDP=1.12D-02 DE=-2.53D-03 OVMax= 2.12D-02

 Cycle   6  Pass 1  I RMSDP=2. E= -649.184135305197     Delta-E=       -0.000162863091 Rises=F Damp=F
 DIIS: err E= -649.184135305197     Delta-E=       -0.000162863088 Rises=F Damp=F
 DIIS: error= 2.98D-05 at cycle   6 NSaved=   6.
 NSaved= 6 IEnMin= 6 EnMin= -649.184135305197     IErMin= 6 ErrMin= 2.98D-05
 ErrMax= 2.98D-05  0.00D+00 EMaxC= 1.00D-01 BMatC= 1.85D-07 BMatP= 2.84D-05
 IDIUse=1 WtCom= 1.00D+00 WtEn= 0.00D+00
 Coeff-Com: -0.150D-01 0.196D-01 0.539D-01-0.696D-01 0.367D+00 0.644D+00
 Coeff:     -0.150D-01 0.196D-01 0.539D RMSDP=1.54D-05 MaxDP=9.53D-04 DE=-1.63D-04 OVMax= 1.09D-03

 Cycle   7  Pass 1  I RMSDP=1. E= -649.184135751817     Delta-E=       -0.000000446620 Rises=F Damp=F
 DIIS: err E= -649.184135751817     Delta-E=       -0.000000446620 Rises=F Damp=F
 DIIS: error= 6.04D-06 at cycle   7 NSaved=   7.
 NSaved= 7 IEnMin= 7 EnMin= -649.184135751817     IErMin= 7 ErrMin= 6.04D-06
 ErrMax= 6.04D-06  0.00D+00 EMaxC= 1.00D-01 BMatC= 6.07D-09 BMatP= 1.85D-07
 IDIUse=1 WtCom= 1.00D+00 WtEn= 0.00D+00
 Coeff-Com: -0.136D-02 0.173D-02-0.258D-02-0.346D-02 0.137D-01 0.146D+00
 Coeff-Com:  0.846D+00
 Coeff:     -0.136D-02 0.173D-02-0.258D-02-0.346D-02 0.137D-01 RMSDP=3.60D-06 MaxDP=1.67D-04 DE=-4.47D-07 OVMax= 3.16D-04

 Cycle   8  Pass 1  I RMSDP=3.60D-06 MaxDP=1.67D-04 DE=-4.47D-07 OVMax= 3.16D-04

 Cycle   8  Pass 1   DIIS: err E= -649.184135772549     Delta-E=       -0.000000020732 Rises=F Damp=F
 DIIS: error= 3.45D-06 at cycle   8 NSaved=   8.
 NSaved= 8 IEnMin= 8 EnMin= -649.184135772549     IErMin= 8 ErrMin= 3.45D-06
 ErrMax= 3.45D-06  0.00D+00 EMaxC= 1.00D-01 BMatC= 7.49D-10 BMatP= 6.07D-09
 IDIUse=1 WtCom= 1.00D+00 WtEn= 0.00D+00
 Coeff-Com:  0.441D-03-0.602D-03-0.335D-02 0.178D-02-0.144D-01-0.332D-02
 Coeff-Com:  0.231D+00 0.788D+00
 Coeff:      0.441D-03-0.602D-03-0.335D-02 0.178D-02-0.144D-01-0.332D-02 RMSDP=2.06D-06 MaxDP=8.82D-05 DE=-2.07D-08 OVMax= 1.29D-04

 Cycle   9  Pass 1  I RMSDP=2.06D-06 MaxDP=8.82D-05 DE=-2.07D-08 OVMax= 1.29D-04

 Cycle   9  Pass 1   DIIS: err E= -649.184135777562     Delta-E=       -0.000000005012 Rises=F Damp=F
 DIIS: error= 7.70D-07 at cycle   9 NSaved=   9.
 NSaved= 9 IEnMin= 9 EnMin= -649.184135777562     IErMin= 9 ErrMin= 7.70D-07
 ErrMax= 7.70D-07  0.00D+00 EMaxC= 1.00D-01 BMatC= 4.21D-11 BMatP= 7.49D-10
 IDIUse=1 WtCom= 1.00D+00 WtEn= 0.00D+00
 Coeff-Com:  0.361D-03-0.481D-03-0.484D-03 0.140D-02-0.646D-02-0.104D-01
 Coeff-Com: -0.941D-02 0.171D+00 0.855D+00
 Coeff:      0.361D-03-0.481D-03-0.484D-03 0.140D-02-0.646D-02-0.104D-01
 Coeff:   RMSDP=4.03D-07 MaxDP=2.09D-05 DE=-5.01D-09 OVMax= 2.08D-05

 Cycle  10  Pass 1  I RMSDP=4.03D-07 MaxDP=2.09D-05 DE=-5.01D-09 OVMax= 2.08D-05

 Cycle  10  Pass 1   DIIS: err E= -649.184135777812     Delta-E=       -0.000000000250 Rises=F Damp=F
 DIIS: error= 1.28D-07 at cycle  10 NSaved=  10.
 NSaved=10 IEnMin=10 EnMin= -649.184135777812     IErMin=10 ErrMin= 1.28D-07
 ErrMax= 1.28D-07  0.00D+00 EMaxC= 1.00D-01 BMatC= 1.81D-12 BMatP= 4.21D-11
 IDIUse=1 WtCom= 1.00D+00 WtEn= 0.00D+00
 Coeff-Com:  0.709D-04-0.938D-04-0.509D-04 0.315D-03-0.118D-02-0.298D-02
 Coeff-Com: -0.766D-02 0.112D-01 0.208D+00 0.792D+00
 Coeff:      0.709D-04-0.938D-04-0.509D-04 0.315D-03-0.118D-02-0.298D-02
 Coeff:     -0.766D RMSDP=8.15D-08 MaxDP=4.06D-06 DE=-2.55D-10 OVMax= 6.09D-06

 Cycle  11  Pass 1  I RMSDP=8.15D-08 MaxDP=4.06D-06 DE=-2.50D-10 OVMax= 6.09D-06

 Cycle  11  Pass 1  IDiag  1:
 E= -649.184135777826     Delta-E=       -0.000000000015 Rises=F Damp=F
 DIIS: error= 3.66D-08 at cycle  11 NSaved=  11.
 NSaved=11 IEnMin=11 EnMin= -649.184135777826     IErMin=11 ErrMin= 3.66D-08
 ErrMax= 3.66D-08  0.00D+00 EMaxC= 1.00D-01 BMatC= 1.79D-13 BMatP= 1.81D-12
 IDIUse=1 WtCom= 1.00D+00 WtEn= 0.00D+00
 Coeff-Com:  0.111D-05-0.128D-05 0.266D-04 0.260D-04 0.672D-05-0.641D-04
 Coeff-Com: -0.210D-02-0.703D-02 0.150D-01 0.258D+00 0.736D+00
 Coeff:      0.111D-05-0.128D-05 0.266D-04 0.260D-04 0.672D-05-0.641D-04
 Coeff:     -0.210D-02-0.703D-02 0.150D-01 0.258D+00 0.736D+00
 Gap=     0.042 Goal=   None    Shift=    0.000
 RMSDP=2.17D-08 MaxDP=1.13D-06 DE=-1.46D-11 OVMax= 1.39D-06

 Cycle  12  Pass 1  IDiag  1:
 E= -649.184135777825     Delta-E=        0.000000000001 Rises=F Damp=F
 DIIS: error= 6.13D-09 at cycle  12 NSaved=  12.
 NSaved=12 IEnMin=11 EnMin= -649.184135777826     IErMin=12 ErrMin= 6.13D-09
 ErrMax= 6.13D-09  0.00D+00 EMaxC= 1.00D-01 BMatC= 8.61D-15 BMatP= 1.79D-13
 IDIUse=1 WtCom= 1.00D+00 WtEn= 0.00D+00
 Coeff-Com: -0.579D-05 0.772D-05 0.584D-05-0.189D-04 0.872D-04 0.188D-03
 Coeff-Com:  0.339D-03-0.171D-02-0.127D-01 0.141D-01 0.199D+00 0.801D+00
 Coeff:     -0.579D-05 0.772D-05 0.584D-05-0.189D-04 0.872D-04 0.188D-03
 Coeff:      0.339D-03-0.171D-02-0.127D-01 0.141D-01 0.199D+00 0.801D+00
 Gap=     0.042 Goal=   None    Shift=    0.000
 RMSDP=3.90D-09 MaxDP=1.47D-07 DE= 1.36D-12 OVMax= 2.45D-07

 SCF Done:  E(RB3LYP) =  -649.184135778     A.U. after   12 cycles
            NFock= 12  Conv=0.39D-08     -V/T= 2.0030
 KE= 6.472260795633D+02 PE=-1.704353979903D+03 EE= 3.352648178211D+02
 Leave Link  502 at Wed Oct  4 14:14:59 2023, MaxMem=  1610612736 cpu:             130.5 elap:              74.5
 (Enter /home/sekinelabo/g16/l601.exe)
 Copying SCF densities to generalized density rwf, IOpCl= 0 IROHF=0.

 **********************************************************************

            Population analysis using the SCF Density.

 **********************************************************************

 Orbital symmetries:
       Occupied  (A) (A) (A) (A) (A) (A) (A) (A) (A) (A) (A) (A)
                 (A) (A) (A) (A) (A) (A) (A) (A) (A) (A)
       Virtual   (A) (A) (A) (A) (A) (A) (A) (A) (A) (A) (A) (A)
                 (A) (A) (A) (A) (A) (A) (A) (A) (A) (A) (A) (A)
                 (A) (A) (A) (A) (A) (A) (A) (A) (A) (A) (A) (A)
                 (A) (A) (A) (A) (A) (A) (A) (A) (A) (A) (A) (A)
                 (A) (A) (A) (A) (A) (A) (A) (A) (A) (A) (A) (A)
                 (A) (A) (A) (A) (A) (A) (A) (A) (A) (A) (A) (A)
                 (A) (A) (A) (A) (A) (A) (A) (A) (A) (A) (A) (A)
                 (A) (A) (A) (A) (A) (A) (A) (A) (A) (A) (A) (A)
                 (A) (A)
 The electronic state is 1-A.
 Alpha  occ. eigenvalues --  -38.45543 -38.45357 -38.45302 -38.44755  -2.21280
 Alpha  occ. eigenvalues --   -2.21097  -2.20978  -2.20440  -1.14955  -1.14940
 Alpha  occ. eigenvalues --   -1.14918  -1.14768  -1.14764  -1.14717  -1.14670
 Alpha  occ. eigenvalues --   -1.14663  -1.14590  -1.14121  -1.14121  -1.14066
 Alpha  occ. eigenvalues --   -0.13865  -0.11163
 Alpha virt. eigenvalues --   -0.06969  -0.06503  -0.02952  -0.02658  -0.01870
 Alpha virt. eigenvalues --   -0.01456  -0.01376  -0.00528  -0.00084   0.00237
 Alpha virt. eigenvalues --    0.00394   0.00470   0.00571   0.00851   0.01181
 Alpha virt. eigenvalues --    0.01401   0.01520   0.01670   0.01772   0.02044
 Alpha virt. eigenvalues --    0.02131   0.02343   0.02508   0.02636   0.02649
 Alpha virt. eigenvalues --    0.02972   0.03117   0.03474   0.03990   0.04183
 Alpha virt. eigenvalues --    0.06631   0.07358   0.07422   0.07841   0.08466
 Alpha virt. eigenvalues --    0.08500   0.08650   0.09013   0.09130   0.09286
 Alpha virt. eigenvalues --    0.09727   0.10068   0.11051   0.11615   0.12839
 Alpha virt. eigenvalues --    0.13840   0.29469   0.29527   0.30465   0.32886
 Alpha virt. eigenvalues --    0.33130   0.33228   0.34040   0.34513   0.35243
 Alpha virt. eigenvalues --    0.35482   0.35589   0.35604   0.36486   0.36954
 Alpha virt. eigenvalues --    0.37311   0.37823   0.39796   0.42253   0.42671
 Alpha virt. eigenvalues --    0.42843   0.43076   0.43830   0.43946   0.44403
 Alpha virt. eigenvalues --    0.44634   0.44957   0.45547   0.47528   0.48068
 Alpha virt. eigenvalues --    0.48429   0.50583   0.59395   1.99964   2.02550
 Alpha virt. eigenvalues --    2.04806   2.10621   4.41669   4.42964   4.43220
 Alpha virt. eigenvalues --    4.43652   4.43875   4.43917   4.44496   4.44619
 Alpha virt. eigenvalues --    4.44967   4.45895   4.48452   4.51006  96.18837
 Alpha virt. eigenvalues --   96.21806  96.24368  96.31695
          Condensed to atoms (all electrons):
               1          2          3          4
     1  Na  10.872066   0.245265  -0.042175  -0.024985
     2  Na   0.245265  10.851135  -0.019839  -0.031158
     3  Na  -0.042175  -0.019839  10.676140   0.333492
     4  Na  -0.024985  -0.031158   0.333492  10.679459
 Mulliken charges:
               1
     1  Na  -0.050171
     2  Na  -0.045403
     3  Na   0.052382
     4  Na   0.043193
 Sum of Mulliken charges =   0.00000
 Mulliken charges with hydrogens summed into heavy atoms:
               1
     1  Na  -0.050171
     2  Na  -0.045403
     3  Na   0.052382
     4  Na   0.043193
 Electronic spatial extent (au):  <R**2>=           2478.9310
 Charge=              0.0000 electrons
 Dipole moment (field-independent basis, Debye):
    X=              2.4228    Y=              0.2845    Z=             -0.0653  Tot=              2.4404
 Quadrupole moment (field-independent basis, Debye-Ang):
   XX=            -35.8143   YY=            -33.2026   ZZ=            -45.5862
   XY=             -6.8733   XZ=              0.5266   YZ=              0.6304
 Traceless Quadrupole moment (field-independent basis, Debye-Ang):
   XX=              2.3867   YY=              4.9984   ZZ=             -7.3851
   XY=             -6.8733   XZ=              0.5266   YZ=              0.6304
 Octapole moment (field-independent basis, Debye-Ang**2):
  XXX=             -7.4722  YYY=             15.6207  ZZZ=             -0.3287  XYY=             40.1250
  XXY=            -11.1890  XXZ=            -14.5327  XZZ=             10.7324  YZZ=              0.6460
  YYZ=              0.9681  XYZ=              5.2353
 Hexadecapole moment (field-independent basis, Debye-Ang**3):
 XXXX=          -3070.4843 YYYY=           -449.6255 ZZZZ=           -223.5668 XXXY=           -283.8325
 XXXZ=             24.1571 YYYX=             -3.7655 YYYZ=              5.8059 ZZZX=              1.9241
 ZZZY=              3.4903 XXYY=           -642.1506 XXZZ=           -686.9578 YYZZ=           -118.6884
 XXYZ=             14.7804 YYXZ=             -0.2067 ZZXY=            -12.1837
 N-N= 7.267894674071D+01 E-N=-1.704353980022D+03  KE= 6.472260795633D+02
 No NMR shielding tensors so no spin-rotation constants.
 Leave Link  601 at Wed Oct  4 14:15:03 2023, MaxMem=  1610612736 cpu:               7.9 elap:               4.5
 (Enter /home/sekinelabo/g16/l701.exe)
 ... and contract with generalized density number  0.
 Compute integral first derivatives.
 Leave Link  701 at Wed Oct  4 14:15:07 2023, MaxMem=  1610612736 cpu:               7.3 elap:               4.1
 (Enter /home/sekinelabo/g16/l702.exe)
 L702 exits ... SP integral derivatives will be done elsewhere.
 Leave Link  702 at Wed Oct  4 14:15:08 2023, MaxMem=  1610612736 cpu:               0.7 elap:               0.4
 (Enter /home/sekinelabo/g16/l703.exe)
 Integral derivatives from FoFJK, PRISM(SPDF).
 Compute integral first derivatives, UseDBF=F ICtDFT=           0.
 Calling FoFJK, ICntrl=      2127 FMM=F ISym2X=0 I1Cent= 0 IOpClX= 0 NMat=1 NMatS=1 NMatT=0.
 FoFJK:  IHMeth= 1 ICntrl=    2127 DoSepK=F KAlg= 0 I1Cent=           0 FoldK=F
 IRaf=         0 NMat=       1 IRICut=       1 DoRegI=T DoRafI=F ISym2E= 0 IDoP0=0 IntGTp=1.
 FoFCou: FMM=F IPFlag=           0 FMFlag=      100000 FMFlg1=         800
         NFxFlg=           0 DoJE=F BraDBF=F KetDBF=F FulRan=T
         wScrn=  0.000000 ICntrl=      2127 IOpCl=  0 I1Cent=           0 NGrid=           0
         NMat0=    1 NMatS0=      1  Leave Link  703 at Wed Oct  4 14:15:11 2023, MaxMem=  1610612736 cpu:             Leave Link  703 at Wed Oct  4 14:15:14 2023, MaxMem=  1610612736 cpu:              11.8 elap:               6.5
 (Enter /home/sekinelabo/g16/l716.exe)
 Dipole        = 9.53217248D-01 1.11918182D-01-2.56862557D-02
 ***** Axes restored to original set *****
 -------------------------------------------------------------------
 Center     Atomic                   Forces (Hartrees/Bohr)
 Number     Number              X              Y              Z
 -------------------------------------------------------------------
      1       11          -0.003947870   -0.000636074   -0.005116951
      2       11           0.003153109   -0.000008490    0.006889824
      3       11          -0.003238299   -0.002871267   -0.002906035
      4       11           0.004033059    0.003515830    0.001133163
 -------------------------------------------------------------------
 Cartesian Forces:  Max     0.006889824 RMS     0.003613306
 Z-matrix is all fixed cartesians, so copy forces.
 Force constants in Cartesian coordinates: 
                1             2             3             4             5 
      1  0.100000D+01
      2  0.000000D+00  0.100000D+01
      3  0.000000D+00  0.000000D+00  0.100000D+01
      4  0.000000D+00  0.000000D+00  0.000000D+00  0.100000D+01
      5  0.000000D+00  0.000000D+00  0.000000D+00  0.000000D+00  0.100000D+01
      6  0.000000D+00  0.000000D+00  0.000000D+00  0.000000D+00  0.000000D+00
      7  0.000000D+00  0.000000D+00  0.000000D+00  0.000000D+00  0.000000D+00
      8  0.000000D+00  0.000000D+00  0.000000D+00  0.000000D+00  0.000000D+00
      9  0.000000D+00  0.000000D+00  0.000000D+00  0.000000D+00  0.000000D+00
     10  0.000000D+00  0.000000D+00  0.000000D+00  0.000000D+00  0.000000D+00
     11  0.000000D+00  0.000000D+00  0.000000D+00  0.000000D+00  0.000000D+00
     12  0.000000D+00  0.000000D+00  0.000000D+00  0.000000D+00  0.000000D+00
                6             7             8             9            10 
      6  0.100000D+01
      7  0.000000D+00  0.908688D-02
      8  0.000000D+00  0.790538D-02  0.687751D-02
      9  0.000000D+00  0.652798D-02  0.567920D-02  0.468968D-02
     10  0.000000D+00 -0.908688D-02 -0.790538D-02 -0.652798D-02  0.908688D-02
     11  0.000000D+00 -0.790538D-02 -0.687751D-02 -0.567920D-02  0.790538D-02
     12  0.000000D+00 -0.652798D-02 -0.567920D-02 -0.468968D-02  0.652798D-02
               11            12 
     11  0.687751D-02
     12  0.567920D-02  0.468968D-02
 Leave Link  716 at Wed Oct  4 14:15:15 2023, MaxMem=  1610612736 cpu:               0.7 elap:               0.4
 (Enter /home/sekinelabo/g16/l103.exe)

 GradGradGradGradGradGradGradGradGradGradGradGradGradGradGradGradGradGrad
 Berny optimization.
 Search for a local minimum.
 Step number   1 out of a maximum of    2
 All quantities printed in internal units (Hartrees-Bohrs-Radians)
 Second derivative matrix not updated -- first step.
 The second derivative matrix:
                          X1        Y1        Z1        X2        Y2
           X1           1.00000
           Y1          -0.00000   1.00000
           Z1          -0.00000   0.00000   1.00000
           X2           0.00000   0.00000   0.00000   1.00000
           Y2           0.00000   0.00000   0.00000  -0.00000   1.00000
           Z2           0.00000   0.00000   0.00000  -0.00000   0.00000
           X3           0.00000   0.00000   0.00000   0.00000   0.00000
           Y3           0.00000   0.00000   0.00000   0.00000   0.00000
           Z3           0.00000   0.00000   0.00000   0.00000   0.00000
           X4           0.00000   0.00000   0.00000   0.00000   0.00000
           Y4           0.00000   0.00000   0.00000   0.00000   0.00000
           Z4           0.00000   0.00000   0.00000   0.00000   0.00000
                          Z2        X3        Y3        Z3        X4
           Z2           1.00000
           X3           0.00000   0.00909
           Y3           0.00000   0.00791   0.00688
           Z3           0.00000   0.00653   0.00568   0.00469
           X4           0.00000  -0.00909  -0.00791  -0.00653   0.00909
           Y4           0.00000  -0.00791  -0.00688  -0.00568   0.00791
           Z4           0.00000  -0.00653  -0.00568  -0.00469   0.00653
                          Y4        Z4
           Y4           0.00688
           Z4           0.00568   0.00469
 ITU=  0
     Eigenvalues ---    0.04131   0.05263   0.50000   0.68446   0.90958
     Eigenvalues ---    1.00000
 Angle between quadratic step and forces=  50.27 degrees.
 Linear search not attempted -- first point.
 B after Tr=     0.000000    0.000000    0.000000
         Rot=    1.000000   -0.000000    0.000000   -0.000000 Ang=   0.00 deg.
 Variable       Old X    -DE/DX   Delta X   Delta X   Delta X     New X
                                 (Linear)    (Quad)   (Total)
    X1       -0.00000  -0.00395   0.00000  -0.00531  -0.00531  -0.00531
    Y1       -0.00000  -0.00064   0.00000  -0.00200  -0.00200  -0.00200
    Z1        0.00000  -0.00512   0.00000  -0.00470  -0.00470  -0.00470
    X2       -3.51872   0.00315   0.00000   0.00091   0.00091  -3.51781
    Y2       -0.00000  -0.00001   0.00000  -0.00232  -0.00232  -0.00232
    Z2       -7.84552   0.00689   0.00000   0.00771   0.00771  -7.83782
    X3       -0.00000  -0.00324   0.00000  -0.08472  -0.08472  -0.08472
    Y3        0.00000  -0.00287   0.00000  -0.07512  -0.07512  -0.07512
    Z3       10.11365  -0.00291   0.00000  -0.05196  -0.05196  10.06169
    X4       -4.27606   0.00403   0.00000   0.08912   0.08912  -4.18694
    Y4       -3.72008   0.00352   0.00000   0.07944   0.07944  -3.64064
    Z4        7.04174   0.00113   0.00000   0.04895   0.04895   7.09069
         Item               Value     Threshold  Converged?
 Maximum Force            0.006890     0.000450     NO 
 RMS     Force            0.003613     0.000300     NO 
 Maximum Displacement     0.089117     0.001800     NO 
 RMS     Displacement     0.051872     0.001200     NO 
 Predicted change in Energy=-7.187231D-04
 GradGradGradGradGradGradGradGradGradGradGradGradGradGradGradGradGradGrad

 Leave Link  103 at Wed Oct  4 14:15:17 2023, MaxMem=  1610612736 cpu:               3.9 elap:               2.2
 (Enter /home/sekinelabo/g16/l9999.exe)
 1\1\GINC-SEKINELABO-XA7R-R37\Force\RB3LYP\6-311+G(d)\Na4\SEKINELABO\04
 -Oct-2023\0\\#p B3LYP/6-311+g(d) force\\\0,1\Na,0.,0.,0.\Na,-1.8620252
 68,0.,-4.1516725655\Na,0.,0.,5.351911524\Na,-2.2627941768,-1.968580681
 6,3.7263285476\\Version=ES64L-G16RevB.01\State=1-A\HF=-649.1841358\RMS
 D=3.904e-09\RMSF=3.613e-03\Dipole=-0.0258481,-0.1343237,0.9503145\Quad
 rupole=0.6018316,-2.0703925,1.4685609,4.3564915,4.8150387,2.1149961\PG
 =C01 [X(Na4)]\\@


 A MAN IS EXACTLY AS GREAT AS THE TIDE SURGING
 BENEATH HIM.      - BISMARCK
 Job cpu time:       0 days  0 hours  3 minutes 26.4 seconds.
 Elapsed time:       0 days  0 hours  1 minutes 57.5 seconds.
 File lengths (MBytes):  RWF=     10 Int=      0 D2E=      0 Chk=      2 Scr=      1
 Normal termination of Gaussian 16 at Wed Oct  4 14:15:18 2023.
 Initial command:
 /home/sekinelabo/g16/l1.exe "/home/sekinelabo/g16temp/Gau-8165.inp" -scrdir="/home/sekinelabo/g16temp/"
 Entering Link 1 = /home/sekinelabo/g16/l1.exe PID=     11910.
  
 Copyright (c) 1988-2017, Gaussian, Inc.  All Rights Reserved.
  
 This is part of the Gaussian(R) 16 program.  It is based on
 the Gaussian(R) 09 system (copyright 2009, Gaussian, Inc.),
 the Gaussian(R) 03 system (copyright 2003, Gaussian, Inc.),
 the Gaussian(R) 98 system (copyright 1998, Gaussian, Inc.),
 the Gaussian(R) 94 system (copyright 1995, Gaussian, Inc.),
 the Gaussian 92(TM) system (copyright 1992, Gaussian, Inc.),
 the Gaussian 90(TM) system (copyright 1990, Gaussian, Inc.),
 the Gaussian 88(TM) system (copyright 1988, Gaussian, Inc.),
 the Gaussian 86(TM) system (copyright 1986, Carnegie Mellon
 University), and the Gaussian 82(TM) system (copyright 1983,
 Carnegie Mellon University). Gaussian is a federally registered
 trademark of Gaussian, Inc.
  
 This software contains proprietary and confidential information,
 including trade secrets, belonging to Gaussian, Inc.
  
 This software is provided under written license and may be
 used, copied, transmitted, or stored only in accord with that
 written license.
  
 The following legend is applicable only to US Government
 contracts under FAR:
  
                    RESTRICTED RIGHTS LEGEND
  
 Use, reproduction and disclosure by the US Government is
 subject to restrictions as set forth in subparagraphs (a)
 and (c) of the Commercial Computer Software - Restricted
 Rights clause in FAR 52.227-19.
  
 Gaussian, Inc.
 340 Quinnipiac St., Bldg. 40, Wallingford CT 06492
  
  
 ---------------------------------------------------------------
 Warning -- This program may not be used in any manner that
 competes with the business of Gaussian, Inc. or will provide
 assistance to any competitor of Gaussian, Inc.  The licensee
 of this program is prohibited from giving any competitor of
 Gaussian, Inc. access to this program.  By using this program,
 the user acknowledges that Gaussian, Inc. is engaged in the
 business of creating and licensing software in the field of
 computational chemistry and represents and warrants to the
 licensee that it is not a competitor of Gaussian, Inc. and that
 it will not use this program in any manner prohibited above.
 ---------------------------------------------------------------
  

 Cite this work as:
 Gaussian 16, Revision B.01,
 M. J. Frisch, G. W. Trucks, H. B. Schlegel, G. E. Scuseria, 
 M. A. Robb, J. R. Cheeseman, G. Scalmani, V. Barone, 
 G. A. Petersson, H. Nakatsuji, X. Li, M. Caricato, A. V. Marenich, 
 J. Bloino, B. G. Janesko, R. Gomperts, B. Mennucci, H. P. Hratchian, 
 J. V. Ortiz, A. F. Izmaylov, J. L. Sonnenberg, D. Williams-Young, 
 F. Ding, F. Lipparini, F. Egidi, J. Goings, B. Peng, A. Petrone, 
 T. Henderson, D. Ranasinghe, V. G. Zakrzewski, J. Gao, N. Rega, 
 G. Zheng, W. Liang, M. Hada, M. Ehara, K. Toyota, R. Fukuda, 
 J. Hasegawa, M. Ishida, T. Nakajima, Y. Honda, O. Kitao, H. Nakai, 
 T. Vreven, K. Throssell, J. A. Montgomery, Jr., J. E. Peralta, 
 F. Ogliaro, M. J. Bearpark, J. J. Heyd, E. N. Brothers, K. N. Kudin, 
 V. N. Staroverov, T. A. Keith, R. Kobayashi, J. Normand, 
 K. Raghavachari, A. P. Rendell, J. C. Burant, S. S. Iyengar, 
 J. Tomasi, M. Cossi, J. M. Millam, M. Klene, C. Adamo, R. Cammi, 
 J. W. Ochterski, R. L. Martin, K. Morokuma, O. Farkas, 
 J. B. Foresman, and D. J. Fox, Gaussian, Inc., Wallingford CT, 2016.
 
 ******************************************
 Gaussian 16:  ES64L-G16RevB.01 20-Dec-2017
                 4-Oct-2023 
 ******************************************
 %NProcShared=16
 Will use up to   16 processors via shared memory.
 %mem=12GB
 %Chk=checkpoint.chk
 -------------------------
 #p B3LYP/6-311+g(d) force
 -------------------------
 1/10=7,30=1,38=1/1,3;
 2/12=2,17=6,18=5,40=1/2;
 3/5=4,6=6,7=11,11=2,25=1,30=1,71=1,74=-5/1,2,3;
 4//1;
 5/5=2,38=5/2;
 6/7=2,8=2,9=2,10=2,28=1/1;
 7/29=1/1,2,3,16;
 1/10=7,30=1/3;
 99//99;
 Leave Link    1 at Wed Oct  4 14:15:18 2023, MaxMem=  1610612736 cpu:               0.5 elap:               0.3
 (Enter /home/sekinelabo/g16/l101.exe)


 Symbolic Z-matrix:
 Charge =  0 Multiplicity = 1
 Na                    0.        0.        0. 
 Na                   -3.5502    0.       -3.42114 
 Na                    0.        0.        2.79831 
 Na                   -3.31524  -0.02412   7.54823 
 
 ITRead=  0  0  0  0
 MicOpt= -1 -1 -1 -1
 NAtoms=      4 NQM=        4 NQMF=       0 NMMI=      0 NMMIF=      0
                NMic=       0 NMicF=      0.
                    Isotopes and Nuclear Properties:
 (Nuclear quadrupole moments (NQMom) in fm**2, nuclear magnetic moments (NMagM)
  in nuclear magnetons)

  Atom         1           2           3           4
 IAtWgt=          23          23          23          23
 AtmWgt=  22.9897697  22.9897697  22.9897697  22.9897697
 NucSpn=           3           3           3           3
 AtZEff=  -0.0000000  -0.0000000  -0.0000000  -0.0000000
 NQMom=   10.4000000  10.4000000  10.4000000  10.4000000
 NMagM=    2.2175200   2.2175200   2.2175200   2.2175200
 AtZNuc=  11.0000000  11.0000000  11.0000000  11.0000000
 Leave Link  101 at Wed Oct  4 14:15:19 2023, MaxMem=  1610612736 cpu:               1.9 elap:               1.1
 (Enter /home/sekinelabo/g16/l103.exe)

 GradGradGradGradGradGradGradGradGradGradGradGradGradGradGradGradGradGrad
 Berny optimization.
 Initialization pass.
 Trust Radius=3.00D-01 FncErr=1.00D-07 GrdErr=1.00D-07 EigMax=2.50D+02 EigMin=1.00D-04
 Number of steps in this run=      2 maximum allowed number of steps=      2.
 GradGradGradGradGradGradGradGradGradGradGradGradGradGradGradGradGradGrad

 Leave Link  103 at Wed Oct  4 14:15:19 2023, MaxMem=  1610612736 cpu:               0.5 elap:               0.3
 (Enter /home/sekinelabo/g16/l202.exe)
                          Input orientation:                          
 ---------------------------------------------------------------------
 Center     Atomic      Atomic             Coordinates (Angstroms)
 Number     Number       Type             X           Y           Z
 ---------------------------------------------------------------------
      1         11           0        0.000000    0.000000    0.000000
      2         11           0       -3.550197    0.000000   -3.421136
      3         11           0        0.000000    0.000000    2.798307
      4         11           0       -3.315240   -0.024118    7.548226
 ---------------------------------------------------------------------
                    Distance matrix (angstroms):
                    1          2          3          4
     1  Na   0.000000
     2  Na   4.930322   0.000000
     3  Na   2.798307   7.161381   0.000000
     4  Na   8.244216  10.971904   5.792506   0.000000
 Stoichiometry    Na4
 Framework group  C1[X(Na4)]
 Deg. of freedom     6
 Full point group                 C1      NOp   1
 Largest Abelian subgroup         C1      NOp   1
 Largest concise Abelian subgroup C1      NOp   1
                         Standard orientation:                         
 ---------------------------------------------------------------------
 Center     Atomic      Atomic             Coordinates (Angstroms)
 Number     Number       Type             X           Y           Z
 ---------------------------------------------------------------------
      1         11           0       -1.763339   -1.683485    0.002950
      2         11           0       -5.117077    1.930448   -0.000730
      3         11           0        1.034465   -1.736144   -0.003002
      4         11           0        5.845951    1.489181    0.000782
 ---------------------------------------------------------------------
 Rotational constants (GHZ):           1.8641126           0.3406117           0.2879902
 Leave Link  202 at Wed Oct  4 14:15:20 2023, MaxMem=  1610612736 cpu:               1.2 elap:               0.7
 (Enter /home/sekinelabo/g16/l301.exe)
 Standard basis: 6-311+G(d) (5D, 7F)
 Ernie: Thresh=  0.10000D-02 Tol=  0.10000D-05 Strict=F.
 There are   124 symmetry adapted cartesian basis functions of A   symmetry.
 There are   120 symmetry adapted basis functions of A   symmetry.
   120 basis functions,   200 primitive gaussians,   124 cartesian basis functions
    22 alpha electrons       22 beta electrons
       nuclear repulsion energy        69.4665791176 Hartrees.
 IExCor=  402 DFT=T Ex+Corr=B3LYP ExCW=0 ScaHFX=  0.200000
 ScaDFX=  0.800000  0.720000  1.000000  0.810000 ScalE2=  1.000000  1.000000
 IRadAn=      5 IRanWt=     -1 IRanGd=            0 ICorTp=0 IEmpDi=  4
 NAtoms=    4 NActive=    4 NUniq=    4 SFac= 1.00D+00 NAtFMM=   60 NAOKFM=F Big=F
 Integral buffers will be    131072 words long.
 Raffenetti 2 integral format.
 Two-electron integral symmetry is turned on.
 Leave Link  301 at Wed Oct  4 14:15:20 2023, MaxMem=  1610612736 cpu:               0.7 elap:               0.4
 (Enter /home/sekinelabo/g16/l302.exe)
 NPDir=0 NMtPBC=     1 NCelOv=     1 NCel=       1 NClECP=     1 NCelD=      1
         NCelK=      1 NCelE2=     1 NClLst=     1 CellRange=     0.0.
 One-electron integrals computed using PRISM.
 One-electron integral symmetry used in STVInt
 NBasis=   120 RedAO= T EigKep=  1.74D-05  NBF=   120
 NBsUse=   120 1.00D-06 EigRej= -1.00D+00 NBFU=   120
 Precomputing XC quadrature grid using
 IXCGrd= 4 IRadAn=           5 IRanWt=          -1 IRanGd=           0 AccXCQ= 0.00D+00.
 Generated NRdTot=       0 NPtTot=           0 NUsed=           0 NTot=          32
 NSgBfM=   110   110   110   110   110 MxSgAt=     4 MxSgA2=     4.
 Leave Link  302 at Wed Oct  4 14:15:32 2023, MaxMem=  1610612736 cpu:              20.7 elap:              11.1
 (Enter /home/sekinelabo/g16/l303.exe)
 DipDrv:  MaxL=1.
 Leave Link  303 at Wed Oct  4 14:15:33 2023, MaxMem=  1610612736 cpu:               2.7 elap:               1.5
 (Enter /home/sekinelabo/g16/l401.exe)
 ExpMin= 7.60D-03 ExpMax= 3.62D+04 ExpMxC= 1.21D+03 IAcc=3 IRadAn=         5 AccDes= 0.00D+00
 Harris functional with IExCor=  402 and IRadAn=       5 diagonalized for initial guess.
 HarFok:  IExCor=  402 AccDes= 0.00D+00 IRadAn=         5 IDoV= 1 UseB2=F ITyADJ=14
 ICtDFT=  3500011 ScaDFX=  1.000000  1.000000  1.000000  1.000000
 FoFCou: FMM=F IPFlag=           0 FMFlag=      100000 FMFlg1=           0
         NFxFlg=           0 DoJE=T BraDBF=F KetDBF=T FulRan=T
         wScrn=  0.000000 ICntrl=       500 IOpCl=  0 I1Cent=   200000004 NGrid=           0
         NMat0=    1 NMatS0=      1 NMatT0=    0 NMatD0=    1 NMtDS0=    0 NMtDT0=    0
 Petite list used in FoFCou.
 Harris En= -649.037754963685    
 JPrj=0 DoOrth=F DoCkMO=F.
 Leave Link  401 at Wed Oct  4 14:15:41 2023, MaxMem=  1610612736 cpu:              14.3 elap:               7.8
 (Enter /home/sekinelabo/g16/l502.exe)
 Keep R1 ints in memory in canonical form, NReq=41581754.
 FoFCou: FMM=F IPFlag=           0 FMFlag=           0 FMFlg1=           0
         NFxFlg=           0 DoJE=F BraDBF=F KetDBF=F FulRan=T
         wScrn=  0.000000 ICntrl=       600 IOpCl=  0 I1Cent=           0 NGrid=           0
         NMat0=    1 NMatS0=   7260 NMatT0=    0 NMatD0=    1 NMtDS0=    0 NMtDT0=    0
 Symmetry not used in FoFCou.
 Two-electron integral symmetry not used.
 Closed shell SCF:
 Using DIIS extrapolation, IDIIS=  1040.
 NGot=  1610612736 LenX=  1584221388 LenY=  1584205571
 Requested convergence on RMS density matrix=1.00D-08 within 128 cycles.
 Requested convergence on MAX density matrix=1.00D-06.
 Requested convergence on             energy=1.00D-06.
 No special actions if energy rises.

 Cycle   1  Pass 1  IDiag  1:
 E= -649.130058148319    
 DIIS: error= 1.49D-02 at cycle   1 NSaved=   1.
 NSaved= 1 IEnMin= 1 EnMin= -649.130058148319     IErMin= 1 ErrMin= 1.49D-02
 ErrMax= 1.49D-02  0.00D+00 EMaxC= 1.00D-01 BMatC= 2.82D-02 BMatP= 2.82D-02
 IDIUse=3 WtCom= 8.51D-01 WtEn= 1.49D-01
 Coeff-Com:  0.100D+01
 Coeff-En:   0.100D+01
 Coeff:      0.100D+01
 Gap=    -0.014 Goal=   None    Shift=    0.000
 GapD=   -0.014 DampG=0.250 DampE=0.500 DampFc=0.2500 IDamp=-1.
 Damping current iteration by 2.50D-01
 RMSDP=1.09D-02 MaxDP=6.07D-01              OVMax= 7.59D-01

 Cycle   2  Pass 1  IDiag  1:
 E= -649.143094718402     Delta-E=       -0.013036570083 Rises=F Damp=T
 DIIS: error= 9.88D-03 at cycle   2 NSaved=   2.
 NSaved= 2 IEnMin= 2 EnMin= -649.143094718402     IErMin= 2 ErrMin= 9.88D-03
 ErrMax= 9.88D-03  0.00D+00 EMaxC= 1.00D-01 BMatC= 1.02D-02 BMatP= 2.82D-02
 IDIUse=3 WtCom= 9.01D-01 WtEn= 9.88D-02
 Coeff-Com: -0.817D+00 0.182D+01
 Coeff-En:   0.107D+00 0.893D+00
 Coeff:     -0.726D+00 0.173D+01
 Gap=     0.007 Goal=   None    Shift=    0.000
 RMSDP=8.35D-03 MaxDP=4.15D-01 DE=-1.30D-02 OVMax= 7.59D-01

 Cycle   3  Pass 1  IDiag  1:
 E= -648.994641270327     Delta-E=        0.148453448075 Rises=F Damp=F
 DIIS: error= 9.74D-03 at cycle   3 NSaved=   3.
 NSaved= 3 IEnMin= 2 EnMin= -649.143094718402     IErMin= 3 ErrMin= 9.74D-03
 ErrMax= 9.74D-03  0.00D+00 EMaxC= 1.00D-01 BMatC= 1.06D-02 BMatP= 1.02D-02
 IDIUse=3 WtCom= 9.03D-01 WtEn= 9.74D-02
 Rare condition: small coef for last iteration:  0.000D+00
 Coeff-Com: -0.556D+00 0.117D+01 0.389D+00
 Coeff-En:   0.640D-01 0.920D+00 0.161D-01
 Coeff:     -0.556D+00 0.117D+01 0.389D+00
[...]
                 (A) (A) (A) (A) (A) (A) (A) (A) (A) (A) (A) (A)
                 (A) (A) (A) (A) (A) (A) (A) (A) (A) (A) (A) (A)
                 (A) (A) (A) (A) (A) (A) (A) (A) (A) (A) (A) (A)
          RMSDP=7.07D-08 MaxDP=3.40D-06 DE=-6.05D-10 OVMax= 6.48D-06

 Cycle  17  Pass 1  IDiag  1:
 E= -649.150509781888     Delta-E=       -0.000000000009 Rises=F Damp=F
 DIIS: error= 2.09D-08 at cycle  17 NSaved=  17.
 NSaved=17 IEnMin=17 EnMin= -649.150509781888     IErMin=17 ErrMin= 2.09D-08
 ErrMax= 2.09D-08  0.00D+00 EMaxC= 1.00D-01 BMatC= 2.98D-14 BMatP= 2.00D-12
 IDIUse=1 WtCom= 1.00D+00 WtEn= 0.00D+00
 Coeff-Com:  0.359D-07-0.376D-07 0.173D-06 0.587D-06-0.204D-06 0.872D-06
 Coeff-Com: -0.481D-05-0.481D-05-0.189D-04-0.306D-04 0.136D-03 0.927D-03
 Coeff-Com: -0.118D-02-0.880D-02-0.171D-02 0.187D+00 0.824D+00
 Coeff:      0.359D-07-0.376D-07 0.173D-06 0.587D-06-0.204D-06 0.872D-06
 Coeff:     -0.481D-05-0.481D-05-0.189D-04-0.306D-04 0.136D-03 0.927D-03
 Coeff:     -0.118D-02-0.880D-02-0.171D-02 0.187D+00 0.824D+00
 Gap=     0.019 Goal=   None    Shift=    0.000
 RMSDP=7.87D-09 MaxDP=1.97D-07 DE=-9.21D-12 OVMax= 3.36D-07

 SCF Done:  E(RB3LYP) =  -649.150509782     A.U. after   17 cycles
            NFock= 17  Conv=0.79D-08     -V/T= 2.0027
 KE= 6.474063989080D+02 PE=-1.749440581144D+03 EE= 3.575311441787D+02
 Leave Link  502 at Wed Oct  4 15:17:21 2023, MaxMem=  1610612736 cpu:             182.5 elap:             102.1
 (Enter /home/sekinelabo/g16/l601.exe)
 Copying SCF densities to generalized density rwf, IOpCl= 0 IROHF=0.

 **********************************************************************

            Population analysis using the SCF Density.

 **********************************************************************

 Orbital symmetries:
       Occupied  (A) (A) (A) (A) (A) (A) (A) (A) (A) (A) (A) (A)
                 (A) (A) (A) (A) (A) (A) (A) (A) (A) (A)
       Virtual   (A) (A) (A) (A) (A) (A) (A) (A) (A) (A) (A) (A)
                 (A) (A) (A) (A) (A) (A) (A) (A) (A) (A) (A) (A)
                 (A) (A) (A) (A) (A) (A) (A) (A) (A) (A) (A) (A)
                 (A) (A) (A) (A) (A) (A) (A) (A) (A) (A) (A) (A)
                 (A) (A) (A) (A) (A) (A) (A) (A) (A) (A) (A) (A)
                 (A) (A) (A) (A) (A) (A) (A) (A) (A) (A) (A) (A)
                 (A) (A) (A) (A) (A) (A) (A) (A) (A) (A) (A) (A)
                 (A) (A) (A) (A) (A) (A) (A) (A) (A) (A) (A) (A)
                 (A) (A)
 The electronic state is 1-A.
 Alpha  occ. eigenvalues --  -38.47027 -38.46400 -38.45286 -38.45098  -2.23006
 Alpha  occ. eigenvalues --   -2.22318  -2.21026  -2.20794  -1.17730  -1.16511
 Alpha  occ. eigenvalues --   -1.16489  -1.15857  -1.15820  -1.15491  -1.14708
 Alpha  occ. eigenvalues --   -1.14696  -1.14652  -1.14482  -1.14467  -1.14431
 Alpha  occ. eigenvalues --   -0.15638  -0.10558
 Alpha virt. eigenvalues --   -0.08685  -0.04808  -0.03675  -0.03277  -0.01929
 Alpha virt. eigenvalues --   -0.01158  -0.00994  -0.00395  -0.00116   0.00087
 Alpha virt. eigenvalues --    0.00543   0.00757   0.01013   0.01194   0.01272
 Alpha virt. eigenvalues --    0.01599   0.01712   0.01787   0.01917   0.02114
 Alpha virt. eigenvalues --    0.02194   0.02339   0.02425   0.02545   0.02665
 Alpha virt. eigenvalues --    0.02843   0.03079   0.03712   0.04229   0.05353
 Alpha virt. eigenvalues --    0.05879   0.06527   0.07384   0.07562   0.08051
 Alpha virt. eigenvalues --    0.08325   0.08574   0.08683   0.08811   0.10155
 Alpha virt. eigenvalues --    0.10367   0.10612   0.11392   0.12075   0.13682
 Alpha virt. eigenvalues --    0.16764   0.27450   0.28262   0.29490   0.29677
 Alpha virt. eigenvalues --    0.33735   0.34226   0.34579   0.34994   0.35096
 Alpha virt. eigenvalues --    0.35199   0.35353   0.35730   0.36035   0.37219
 Alpha virt. eigenvalues --    0.38164   0.41929   0.42155   0.42538   0.42850
 Alpha virt. eigenvalues --    0.43155   0.43598   0.44231   0.44792   0.45145
 Alpha virt. eigenvalues --    0.46946   0.47858   0.48990   0.49951   0.57324
 Alpha virt. eigenvalues --    0.59190   0.60706   0.86998   2.02779   2.02876
 Alpha virt. eigenvalues --    2.07425   2.15336   4.41611   4.42233   4.42994
 Alpha virt. eigenvalues --    4.43722   4.44088   4.44440   4.45207   4.45897
 Alpha virt. eigenvalues --    4.47775   4.50280   4.55092   4.74840  96.22180
 Alpha virt. eigenvalues --   96.22718  96.28179  96.38229
          Condensed to atoms (all electrons):
               1          2          3          4
     1  Na  11.176778  -0.255826  -0.152680   0.272303
     2  Na  -0.255826  10.990947   0.356633  -0.191641
     3  Na  -0.152680   0.356633  10.675886   0.138247
     4  Na   0.272303  -0.191641   0.138247  10.822318
 Mulliken charges:
               1
     1  Na  -0.040574
     2  Na   0.099887
     3  Na  -0.018086
     4  Na  -0.041228
 Sum of Mulliken charges =  -0.00000
 Mulliken charges with hydrogens summed into heavy atoms:
               1
     1  Na  -0.040574
     2  Na   0.099887
     3  Na  -0.018086
     4  Na  -0.041228
 Electronic spatial extent (au):  <R**2>=           1367.2665
 Charge=             -0.0000 electrons
 Dipole moment (field-independent basis, Debye):
    X=             -0.9363    Y=              0.4829    Z=             -0.1498  Tot=              1.0641
 Quadrupole moment (field-independent basis, Debye-Ang):
   XX=            -48.8745   YY=            -36.0829   ZZ=            -42.2176
   XY=              7.6260   XZ=             -0.8503   YZ=             -0.0650
 Traceless Quadrupole moment (field-independent basis, Debye-Ang):
   XX=             -6.4828   YY=              6.3088   ZZ=              0.1741
   XY=              7.6260   XZ=             -0.8503   YZ=             -0.0650
 Octapole moment (field-independent basis, Debye-Ang**2):
  XXX=            -18.4159  YYY=   Leave Link  703 at Wed Oct  4 15:17:26 2023, MaxMem=  1610612736 cpu:              13.3 elap:               7.5
 (Enter /home/sekinelabo/g16/l716.exe)
 Dipole        =-3.68371775D-01 1.89977719D-01-5.89322711D-02
 ***** Axes restored to original set *****
 -------------------------------------------------------------------
 Center     Atomic                   Forces (Hartrees/Bohr)
 Number     Number              X              Y              Z
 -------------------------------------------------------------------
      1       11           0.003388300   -0.001607299    0.002683238
      2       11           0.002315737   -0.000385288    0.003959420
      3       11          -0.021533064    0.022646567    0.018542293
      4       11           0.015829027   -0.020653981   -0.025184952
 -------------------------------------------------------------------
 Cartesian Forces:  Max     0.025184952 RMS     0.014928259
 Z-matrix is all fixed cartesians, so copy forces.
 Force constants in Cartesian coordinates: 
                1             2         Leave Link  701 at Wed Oct  4 15:17:30 2023, MaxMem=  1610612736 cpu:               7.3 elap:               4.1
 (Enter /home/sekinelabo/g16/l702.exe)
 L702 exits ... SP integral derivatives will be done elsewhere.
 Leave Link  702 at Wed Oct  4 15:17:30 2023, MaxMem=  1610612736 cpu:               0.8 elap:               0.5
 (Enter /home/sekinelabo/g16/l703.exe)
 Integral derivatives from FoFJK, PRISM(SPDF).
 Compute integral first derivatives, UseDBF=F ICtDFT=           0.
 Calling FoFJK, ICntrl=      2127 FMM=F ISym2X=0 I1Cent= 0 IOpClX= 0 NMat=1 NMatS=1 NMatT=0.
 FoFJK:  IHMeth= 1 ICntrl=    2127 DoSepK=F KAlg= 0 I1Cent=           0 FoldK=F
 IRaf=         0 NMat=       1 IRICut=       1 DoRegI=T DoRafI=F ISym2E= 0 IDoP0=0 IntGTp=1.
 FoFCou: FMM=F IPFlag=           0 FMFlag=      100000 FMFlg1=         800
         NFxFlg=           0 DoJE=F BraDBF=F KetDBF=F FulRan=T
         wScrn=  0.000000 ICntrl=      2127 IOpCl=  0 I1Cent=           0 NGrid=           0
         NMat0=    1 NMatS0=      1 NMatT0=    0 NMatD0=    1 NMtDS0=    0 NMtDT0=    0
 Symmetry not used in FoFCou.
 Leave Link  703 at Wed Oct  4 15:17:37 2023, MaxMem=  1610612736 cpu:              13.5 elap:               7.1
 (Enter /home/sekinelabo/g16/l716.exe)
 Dipole        =-3.68371775D-01 1.89977719D-01-5.89322711D-02
 ***** Axes restored to original set *****
 -------------------------------------------------------------------
 Center     Atomic                   Forces (Hartrees/Bohr)
 Number     Number              X              Y              Z
 -------------------------------------------------------------------
      1       11           0.003388300   -0.001607299    0.002683238
      2       11           0.002315737   -0.000385288    0.003959420
      3       11          -0.021533064    0.022646567    0.018542293
      4       11           0.015829027   -0.020653981   -0.025184952
 -------------------------------------------------------------------
 Cartesian Forces:  Max     0.025184952 RMS     0.014928259
 Z-matrix is all fixed cartesians, so copy forces.
 Force constants in Cartesian coordinates: 
                1             2             3             4             5 
      1  0.100000D+01
      2  0.000000D+00  0.100000D+01
      3  0.000000D+00  0.000000D+00  0.100000D+01
      4  0.000000D+00  0.000000D+00  0.000000D+00  0.166160D-01
      5  0.000000D+00  0.000000D+00  0.000000D+00 -0.904644D-03  0.254834D-02
      6  0.000000D+00  0.000000D+00  0.000000D+00  0.456640D-02  0.267279D-02
      7  0.000000D+00  0.000000D+00  0.000000D+00 -0.148889D-01 -0.396038D-02
      8  0.000000D+00  0.000000D+00  0.000000D+00  0.133174D-02 -0.375147D-02
      9  0.000000D+00  0.000000D+00  0.000000D+00 -0.348258D-02 -0.572587D-02
     10  0.000000D+00  0.000000D+00  0.000000D+00 -0.172705D-02  0.486502D-02
     11  0.000000D+00  0.000000D+00  0.000000D+00 -0.427101D-03  0.120313D-02
     12  0.000000D+00  0.000000D+00  0.000000D+00 -0.108382D-02  0.305307D-02
                6             7             8             9            10 
      6  0.467002D-02
      7 -0.966900D-02  0.639496D-01
      8 -0.393467D-02 -0.454640D-01  0.689224D-01
      9 -0.787219D-02 -0.315022D-01  0.651815D-01  0.655340D-01
     10  0.510261D-02 -0.490606D-01  0.441322D-01  0.349847D-01  0.507877D-01
     11  0.126188D-02  0.494243D-01 -0.651709D-01 -0.594556D-01 -0.489972D-01
     12  0.320217D-02  0.411712D-01 -0.612468D-01 -0.576618D-01 -0.400873D-01
               11            12 
     11  0.639678D-01
     12  0.581938D-01  0.544596D-01
 Leave Link  716 at Wed Oct  4 15:17:38 2023, MaxMem=  1610612736 cpu:               0.7 elap:               0.4
 (Enter /home/sekinelabo/g16/l103.exe)

 GradGradGradGradGradGradGradGradGradGradGradGradGradGradGradGradGradGrad
 Berny optimization.
 Search for a local minimum.
 Step number   1 out of a maximum of    2
 All quantities printed in internal units (Hartrees-Bohrs-Radians)
 Second derivative matrix not updated -- first step.
 The second derivative matrix:
                          X1        Y1        Z1        X2        Y2
           X1           1.00000
           Y1           0.00000   1.00000
           Z1          -0.00000  -0.00000   1.00000
           X2           0.00000   0.00000   0.00000   0.01662
           Y2           0.00000   0.00000   0.00000  -0.00090   0.00255
           Z2           0.00000   0.00000   0.00000   0.00457   0.00267
           X3           0.00000   0.00000   0.00000  -0.01489  -0.00396
           Y3           0.00000   0.00000   0.00000   0.00133  -0.00375
           Z3           0.00000   0.00000   0.00000  -0.00348  -0.00573
           X4           0.00000   0.00000   0.00000  -0.00173   0.00487
           Y4           0.00000   0.00000   0.00000  -0.00043   0.00120
           Z4           0.00000   0.00000   0.00000  -0.00108   0.00305
                          Z2        X3        Y3        Z3        X4
           Z2           0.00467
           X3          -0.00967   0.06395
           Y3          -0.00393  -0.04546   0.06892
           Z3          -0.00787  -0.03150   0.06518   0.06553
           X4           0.00510  -0.04906   0.04413   0.03498   0.05079
           Y4           0.00126   0.04942  -0.06517  -0.05946  -0.04900
           Z4           0.00320   0.04117  -0.06125  -0.05766  -0.04009
                          Y4        Z4
           Y4           0.06397
           Z4           0.05819   0.05446
 ITU=  0
     Eigenvalues ---    0.02145   0.05487   0.06029   0.29497   0.31513
     Eigenvalues ---    0.75000
 Angle between quadratic step and forces=  37.91 degrees.
 Linear search not attempted -- first point.
 B after Tr=     0.000000    0.000000    0.000000
         Rot=    1.000000    0.000000   -0.000000   -0.000000 Ang=   0.00 deg.
 Variable       Old X    -DE/DX   Delta X   Delta X   Delta X     New X
                                 (Linear)    (Quad)   (Total)
    X1        0.00000   0.00339   0.00000   0.01103   0.01103   0.01103
    Y1        0.00000  -0.00161   0.00000  -0.00935  -0.00935  -0.00935
    Z1        0.00000   0.00268   0.00000   0.00382   0.00382   0.00382
    X2       -6.28811   0.00232   0.00000   0.11610   0.11610  -6.17200
    Y2       -0.00000  -0.00039   0.00000  -0.01440  -0.01440  -0.01440
    Z2        8.79220   0.00396   0.00000   0.02848   0.02848   8.82068
    X3       -0.00000  -0.02153   0.00000  -0.13064  -0.13064  -0.13064
    Y3        0.00000   0.02265   0.00000   0.06884   0.06884   0.06884
    Z3       10.92049   0.01854   0.00000   0.05643   0.05643  10.97692
    X4        2.22056   0.01583   0.00000   0.00351   0.00351   2.22407
    Y4       -2.74462  -0.02065   0.00000  -0.04510  -0.04510  -2.78972
    Z4        8.46365  -0.02518   0.00000  -0.08872  -0.08872   8.37492
         Item               Value     Threshold  Converged?
 Maximum Force            0.025185     0.000450     NO 
 RMS     Force            0.014928     0.000300     NO 
 Maximum Displacement     0.130637     0.001800     NO 
 RMS     Displacement     0.064310     0.001200     NO 
 Predicted change in Energy=-4.544846D-03
 GradGradGradGradGradGradGradGradGradGradGradGradGradGradGradGradGradGrad

 Leave Link  103 at Wed Oct  4 15:17:39 2023, MaxMem=  1610612736 cpu:               3.6 elap:               1.7
 (Enter /home/sekinelabo/g16/l9999.exe)
 1\1\GINC-SEKINELABO-XA7R-R37\Force\RB3LYP\6-311+G(d)\Na4\SEKINELABO\04
 -Oct-2023\0\\#p B3LYP/6-311+g(d) force\\\0,1\Na,0.,0.,0.\Na,-3.3275220
 917,0.,4.6526309693\Na,0.,0.,5.7788770313\Na,1.1750687264,-1.452391095
 8,4.4787690347\\Version=ES64L-G16RevB.01\State=1-A\HF=-649.1505098\RMS
 D=7.870e-09\RMSF=1.493e-02\Dipole=-0.2798691,-0.016754,0.3108937\Quadr
 upole=1.3228972,0.4567679,-1.7796651,-1.0432951,7.1066252,-1.0080376\P
 G=C01 [X(Na4)]\\@


 There was a great rattling of the words for the fewness of ideas.
                   -- Charles Baxter in Gryphon
 Job cpu time:       0 days  0 hours  4 minutes 20.3 seconds.
 Elapsed time:       0 days  0 hours  2 minutes 25.7 seconds.
 File lengths (MBytes):  RWF=     10 Int=      0 D2E=      0 Chk=      2 Scr=      1
 Normal termination of Gaussian 16 at Wed Oct  4 15:17:40 2023.
 Initial command:
 /home/sekinelabo/g16/l1.exe "/home/sekinelabo/g16temp/Gau-8165.inp" -scrdir="/home/sekinelabo/g16temp/"
 Entering Link 1 = /home/sekinelabo/g16/l1.exe PID=     73072.
  
 Copyright (c) 1988-2017, Gaussian, Inc.  All Rights Reserved.
  
 This is part of the Gaussian(R) 16 program.  It is based on
 the Gaussian(R) 09 system (copyright 2009, Gaussian, Inc.),
 the Gaussian(R) 03 system (copyright 2003, Gaussian, Inc.),
 the Gaussian(R) 98 system (copyright 1998, Gaussian, Inc.),
 the Gaussian(R) 94 system (copyright 1995, Gaussian, Inc.),
 the Gaussian 92(TM) system (copyright 1992, Gaussian, Inc.),
 the Gaussian 90(TM) system (copyright 1990, Gaussian, Inc.),
 the Gaussian 88(TM) system (copyright 1988, Gaussian, Inc.),
 the Gaussian 86(TM) system (copyright 1986, Carnegie Mellon
 University), and the Gaussian 82(TM) system (copyright 1983,
 Carnegie Mellon University). Gaussian is a federally registered
 trademark of Gaussian, Inc.
  
 This software contains proprietary and confidential information,
 including trade secrets, belonging to Gaussian, Inc.
  
 This software is provided under written license and may be
 used, copied, transmitted, or stored only in accord with that
 written license.
  
 The following legend is applicable only to US Government
 contracts under FAR:
  
                    RESTRICTED RIGHTS LEGEND
  
 Use, reproduction and disclosure by the US Government is
 subject to restrictions as set forth in subparagraphs (a)
 and (c) of the Commercial Computer Software - Restricted
 Rights clause in FAR 52.227-19.
  
 Gaussian, Inc.
 340 Quinnipiac St., Bldg. 40, Wallingford CT 06492
  
  
 ---------------------------------------------------------------
 Warning -- This program may not be used in any manner that
 competes with the business of Gaussian, Inc. or will provide
 assistance to any competitor of Gaussian, Inc.  The licensee
 of this program is prohibited from giving any competitor of
 Gaussian, Inc. access to this program.  By using this program,
 the user acknowledges that Gaussian, Inc. is engaged in the
 business of creating and licensing software in the field of
 computational chemistry and represents and warrants to the
 licensee that it is not a competitor of Gaussian, Inc. and that
 it will not use this program in any manner prohibited above.
 ---------------------------------------------------------------
  

 Cite this work as:
 Gaussian 16, Revision B.01,
 M. J. Frisch, G. W. Trucks, H. B. Schlegel, G. E. Scuseria, 
 M. A. Robb, J. R. Cheeseman, G. Scalmani, V. Barone, 
 G. A. Petersson, H. Nakatsuji, X. Li, M. Caricato, A. V. Marenich, 
 J. Bloino, B. G. Janesko, R. Gomperts, B. Mennucci, H. P. Hratchian, 
 J. V. Ortiz, A. F. Izmaylov, J. L. Sonnenberg, D. Williams-Young, 
 F. Ding, F. Lipparini, F. Egidi, J. Goings, B. Peng, A. Petrone, 
 T. Henderson, D. Ranasinghe, V. G. Zakrzewski, J. Gao, N. Rega, 
 G. Zheng, W. Liang, M. Hada, M. Ehara, K. Toyota, R. Fukuda, 
 J. Hasegawa, M. Ishida, T. Nakajima, Y. Honda, O. Kitao, H. Nakai, 
 T. Vreven, K. Throssell, J. A. Montgomery, Jr., J. E. Peralta, 
 F. Ogliaro, M. J. Bearpark, J. J. Heyd, E. N. Brothers, K. N. Kudin, 
 V. N. Staroverov, T. A. Keith, R. Kobayashi, J. Normand, 
 K. Raghavachari, A. P. Rendell, J. C. Burant, S. S. Iyengar, 
 J. Tomasi, M. Cossi, J. M. Millam, M. Klene, C. Adamo, R. Cammi, 
 J. W. Ochterski, R. L. Martin, K. Morokuma, O. Farkas, 
 J. B. Foresman, and D. J. Fox, Gaussian, Inc., Wallingford CT, 2016.
 
 ******************************************
 Gaussian 16:  ES64L-G16RevB.01 20-Dec-2017
                 4-Oct-2023 
 ******************************************
 %NProcShared=16
 Will use up to   16 processors via shared memory.
 %mem=12GB
 %Chk=checkpoint.chk
 -------------------------
 #p B3LYP/6-311+g(d) force
 -------------------------
 1/10=7,30=1,38=1/1,3;
 2/12=2,17=6,18=5,40=1/2;
 3/5=4,6=6,7=11,11=2,25=1,30=1,71=1,74=-5/1,2,3;
 4//1;
 5/5=2,38=5/2;
 6/7=2,8=2,9=2,10=2,28=1/1;
 7/29=1/1,2,3,16;
 1/10=7,30=1/3;
 99//99;
 Leave Link    1 at Wed Oct  4 15:17:40 2023, MaxMem=  1610612736 cpu:               0.5 elap:               0.3
 (Enter /home/sekinelabo/g16/l101.exe)
 ----------------------------------------------------------------------
 Na -4.637168020678657 0.0 -1.4610214083971444 Na 0.0 0.0 2.76872685816
 90727 Na 1.893601769418712 -3.0467866903232834 -0.48664039278859894
 ----------------------------------------------------------------------
 Charge and Multiplicity card seems defective:
 Wanted an integer as input.
                                                                                 
 ?
 Error termination via Lnk1e in /home/sekinelabo/g16/l101.exe at Wed Oct  4 15:17:41 2023.
 Job cpu time:       0 days  0 hours  0 minutes  2.6 seconds.
 Elapsed time:       0 days  0 hours  0 minutes  1.4 seconds.
 File lengths (MBytes):  RWF=      6 Int=      0 D2E=      0 Chk=      2 Scr=      1
