 Entering Gaussian System, Link 0=g16
 Initial command:
 /home/sekinelabo/g16/l1.exe "/home/sekinelabo/g16temp/Gau-8235.inp" -scrdir="/home/sekinelabo/g16temp/"
 Entering Link 1 = /home/sekinelabo/g16/l1.exe PID=      8267.
  
 Copyright (c) 1988-2017, Gaussian, Inc.  All Rights Reserved.
  
 This is part of the Gaussian(R) 16 program.  It is based on
 the Gaussian(R) 09 system (copyright 2009, Gaussian, Inc.),
 the Gaussian(R) 03 system (copyright 2003, Gaussian, Inc.),
 the Gaussian(R) 98 system (copyright 1998, Gaussian, Inc.),
 the Gaussian(R) 94 system (copyright 1995, Gaussian, Inc.),
 the Gaussian 92(TM) system (copyright 1992, Gaussian, Inc.),
 the Gaussian 90(TM) system (copyright 1990, Gaussian, Inc.),
 the Gaussian 88(TM) system (copyright 1988, Gaussian, Inc.),
 the Gaussian 86(TM) system (copyright 1986, Carnegie Mellon
 University), and the Gaussian 82(TM) system (copyright 1983,
 Carnegie Mellon University). Gaussian is a federally registered
 trademark of Gaussian, Inc.
  
 This software contains proprietary and confidential information,
 including trade secrets, belonging to Gaussian, Inc.
  
 This software is provided under written license and may be
 used, copied, transmitted, or stored only in accord with that
 written license.
  
 The following legend is applicable only to US Government
 contracts under FAR:
  
                    RESTRICTED RIGHTS LEGEND
  
 Use, reproduction and disclosure by the US Government is
 subject to restrictions as set forth in subparagraphs (a)
 and (c) of the Commercial Computer Software - Restricted
 Rights clause in FAR 52.227-19.
  
 Gaussian, Inc.
 340 Quinnipiac St., Bldg. 40, Wallingford CT 06492
  
  
 ---------------------------------------------------------------
 Warning -- This program may not be used in any manner that
 competes with the business of Gaussian, Inc. or will provide
 assistance to any competitor of Gaussian, Inc.  The licensee
 of this program is prohibited from giving any competitor of
 Gaussian, Inc. access to this program.  By using this program,
 the user acknowledges that Gaussian, Inc. is engaged in the
 business of creating and licensing software in the field of
 computational chemistry and represents and warrants to the
 licensee that it is not a competitor of Gaussian, Inc. and that
 it will not use this program in any manner prohibited above.
 ---------------------------------------------------------------
  

 Cite this work as:
 Gaussian 16, Revision B.01,
 M. J. Frisch, G. W. Trucks, H. B. Schlegel, G. E. Scuseria, 
 M. A. Robb, J. R. Cheeseman, G. Scalmani, V. Barone, 
 G. A. Petersson, H. Nakatsuji, X. Li, M. Caricato, A. V. Marenich, 
 J. Bloino, B. G. Janesko, R. Gomperts, B. Mennucci, H. P. Hratchian, 
 J. V. Ortiz, A. F. Izmaylov, J. L. Sonnenberg, D. Williams-Young, 
 F. Ding, F. Lipparini, F. Egidi, J. Goings, B. Peng, A. Petrone, 
 T. Henderson, D. Ranasinghe, V. G. Zakrzewski, J. Gao, N. Rega, 
 G. Zheng, W. Liang, M. Hada, M. Ehara, K. Toyota, R. Fukuda, 
 J. Hasegawa, M. Ishida, T. Nakajima, Y. Honda, O. Kitao, H. Nakai, 
 T. Vreven, K. Throssell, J. A. Montgomery, Jr., J. E. Peralta, 
 F. Ogliaro, M. J. Bearpark, J. J. Heyd, E. N. Brothers, K. N. Kudin, 
 V. N. Staroverov, T. A. Keith, R. Kobayashi, J. Normand, 
 K. Raghavachari, A. P. Rendell, J. C. Burant, S. S. Iyengar, 
 J. Tomasi, M. Cossi, J. M. Millam, M. Klene, C. Adamo, R. Cammi, 
 J. W. Ochterski, R. L. Martin, K. Morokuma, O. Farkas, 
 J. B. Foresman, and D. J. Fox, Gaussian, Inc., Wallingford CT, 2016.
 
 ******************************************
 Gaussian 16:  ES64L-G16RevB.01 20-Dec-2017
                 4-Oct-2023 
 ******************************************
 %NProcShared=16
 Will use up to   16 processors via shared memory.
 %mem=12GB
 %Chk=checkpoint.chk
 -------------------------
 #p B3LYP/6-311+g(d) force
 -------------------------
 1/10=7,30=1,38=1/1,3;
 2/12=2,17=6,18=5,40=1/2;
 3/5=4,6=6,7=11,11=2,25=1,30=1,71=1,74=-5/1,2,3;
 4//1;
 5/5=2,38=5/2;
 6/7=2,8=2,9=2,10=2,28=1/1;
 7/29=1/1,2,3,16;
 1/10=7,30=1/3;
 99//99;
 Leave Link    1 at Wed Oct  4 14:11:22 2023, MaxMem=  1610612736 cpu:               0.6 elap:               0.3
 (Enter /home/sekinelabo/g16/l101.exe)


 Symbolic Z-matrix:
 Charge =  0 Multiplicity = 1
 Na                    0.        0.        0. 
 Na                   -2.88183   0.       -0.72348 
 Na                    0.        0.        4.32541 
 Na                   -1.06683  -2.10374   7.33861 
 
 ITRead=  0  0  0  0
 MicOpt= -1 -1 -1 -1
 NAtoms=      4 NQM=        4 NQMF=       0 NMMI=      0 NMMIF=      0
                NMic=       0 NMicF=      0.
                    Isotopes and Nuclear Properties:
 (Nuclear quadrupole moments (NQMom) in fm**2, nuclear magnetic moments (NMagM)
  in nuclear magnetons)

  Atom         1           2           3           4
 IAtWgt=          23          23          23          23
 AtmWgt=  22.9897697  22.9897697  22.9897697  22.9897697
 NucSpn=           3           3           3           3
 AtZEff=  -0.0000000  -0.0000000  -0.0000000  -0.0000000
 NQMom=   10.4000000  10.4000000  10.4000000  10.4000000
 NMagM=    2.2175200   2.2175200   2.2175200   2.2175200
 AtZNuc=  11.0000000  11.0000000  11.0000000  11.0000000
 Leave Link  101 at Wed Oct  4 14:11:23 2023, MaxMem=  1610612736 cpu:               2.2 elap:               1.2
 (Enter /home/sekinelabo/g16/l103.exe)

 GradGradGradGradGradGradGradGradGradGradGradGradGradGradGradGradGradGrad
 Berny optimization.
 Initialization pass.
 Trust Radius=3.00D-01 FncErr=1.00D-07 GrdErr=1.00D-07 EigMax=2.50D+02 EigMin=1.00D-04
 Number of steps in this run=      2 maximum allowed number of steps=      2.
 GradGradGradGradGradGradGradGradGradGradGradGradGradGradGradGradGradGrad

 Leave Link  103 at Wed Oct  4 14:11:24 2023, MaxMem=  1610612736 cpu:               0.4 elap:               0.2
 (Enter /home/sekinelabo/g16/l202.exe)
                          Input orientation:                          
 ---------------------------------------------------------------------
 Center     Atomic      Atomic             Coordinates (Angstroms)
 Number     Number       Type             X           Y           Z
 ---------------------------------------------------------------------
      1         11           0        0.000000    0.000000    0.000000
      2         11           0       -2.881829    0.000000   -0.723475
      3         11           0        0.000000    0.000000    4.325412
      4         11           0       -1.066834   -2.103737    7.338610
 ---------------------------------------------------------------------
                    Distance matrix (angstroms):
                    1          2          3          4
     1  Na   0.000000
     2  Na   2.971255   0.000000
     3  Na   4.325412   5.813450   0.000000
     4  Na   7.708375   8.527434   3.826645   0.000000
 Stoichiometry    Na4
 Framework group  C1[X(Na4)]
 Deg. of freedom     6
 Full point group                 C1      NOp   1
 Largest Abelian subgroup         C1      NOp   1
 Largest concise Abelian subgroup C1      NOp   1
                         Standard orientation:                         
 ---------------------------------------------------------------------
 Center     Atomic      Atomic             Coordinates (Angstroms)
 Number     Number       Type             X           Y           Z
 ---------------------------------------------------------------------
      1         11           0        2.644981   -1.231427   -0.468764
      2         11           0        3.691708    1.471677    0.183884
      3         11           0       -1.543017   -1.023665    0.592695
      4         11           0       -4.793672    0.783415   -0.307815
 ---------------------------------------------------------------------
 Rotational constants (GHZ):           3.6374467           0.4708805           0.4282746
 Leave Link  202 at Wed Oct  4 14:11:24 2023, MaxMem=  1610612736 cpu:               1.0 elap:               0.6
 (Enter /home/sekinelabo/g16/l301.exe)
 Standard basis: 6-311+G(d) (5D, 7F)
 Ernie: Thresh=  0.10000D-02 Tol=  0.10000D-05 Strict=F.
 There are   124 symmetry adapted cartesian basis functions of A   symmetry.
 There are   120 symmetry adapted basis functions of A   symmetry.
   120 basis functions,   200 primitive gaussians,   124 cartesian basis functions
    22 alpha electrons       22 beta electrons
       nuclear repulsion energy        79.9156263814 Hartrees.
 IExCor=  402 DFT=T Ex+Corr=B3LYP ExCW=0 ScaHFX=  0.200000
 ScaDFX=  0.800000  0.720000  1.000000  0.810000 ScalE2=  1.000000  1.000000
 IRadAn=      5 IRanWt=     -1 IRanGd=            0 ICorTp=0 IEmpDi=  4
 NAtoms=    4 NActive=    4 NUniq=    4 SFac= 1.00D+00 NAtFMM=   60 NAOKFM=F Big=F
 Integral buffers will be    131072 words long.
 Raffenetti 2 integral format.
 Two-electron integral symmetry is turned on.
 Leave Link  301 at Wed Oct  4 14:11:25 2023, MaxMem=  1610612736 cpu:               0.8 elap:               0.4
 (Enter /home/sekinelabo/g16/l302.exe)
 NPDir=0 NMtPBC=     1 NCelOv=     1 NCel=       1 NClECP=     1 NCelD=      1
         NCelK=      1 NCelE2=     1 NClLst=     1 CellRange=     0.0.
 One-electron integrals computed using PRISM.
 One-electron integral symmetry used in STVInt
 NBasis=   120 RedAO= T EigKep=  1.04D-04  NBF=   120
 NBsUse=   120 1.00D-06 EigRej= -1.00D+00 NBFU=   120
 Precomputing XC quadrature grid using
 IXCGrd= 4 IRadAn=           5 IRanWt=          -1 IRanGd=           0 AccXCQ= 0.00D+00.
 Generated NRdTot=       0 NPtTot=           0 NUsed=           0 NTot=          32
 NSgBfM=   116   116   116   116   116 MxSgAt=     4 MxSgA2=     4.
 Leave Link  302 at Wed Oct  4 14:11:36 2023, MaxMem=  1610612736 cpu:              20.0 elap:              10.9
 (Enter /home/sekinelabo/g16/l303.exe)
 DipDrv:  MaxL=1.
 Leave Link  303 at Wed Oct  4 14:11:37 2023, MaxMem=  1610612736 cpu:               2.8 elap:               1.5
 (Enter /home/sekinelabo/g16/l401.exe)
 ExpMin= 7.60D-03 ExpMax= 3.62D+04 ExpMxC= 1.21D+03 IAcc=3 IRadAn=         5 AccDes= 0.00D+00
 Harris functional with IExCor=  402 and IRadAn=       5 diagonalized for initial guess.
 HarFok:  IExCor=  402 AccDes= 0.00D+00 IRadAn=         5 IDoV= 1 UseB2=F ITyADJ=14
 ICtDFT=  3500011 ScaDFX=  1.000000  1.000000  1.000000  1.000000
 FoFCou: FMM=F IPFlag=           0 FMFlag=      100000 FMFlg1=           0
         NFxFlg=           0 DoJE=T BraDBF=F KetDBF=T FulRan=T
         wScrn=  0.000000 ICntrl=       500 IOpCl=  0 I1Cent=   200000004 NGrid=           0
         NMat0=    1 NMatS0=      1 NMatT0=    0 NMatD0=    1 NMtDS0=    0 NMtDT0=    0
 Petite list used in FoFCou.
 Harris En= -649.069201558311    
 JPrj=0 DoOrth=F DoCkMO=F.
 Leave Link  401 at Wed Oct  4 14:11:45 2023, MaxMem=  1610612736 cpu:              13.7 elap:               7.7
 (Enter /home/sekinelabo/g16/l502.exe)
 Keep R1 ints in memory in canonical form, NReq=41581754.
 FoFCou: FMM=F IPFlag=           0 FMFlag=           0 FMFlg1=           0
         NFxFlg=           0 DoJE=F BraDBF=F KetDBF=F FulRan=T
         wScrn=  0.000000 ICntrl=       600 IOpCl=  0 I1Cent=           0 NGrid=           0
         NMat0=    1 NMatS0=   7260 NMatT0=    0 NMatD0=    1 NMtDS0=    0 NMtDT0=    0
 Symmetry not used in FoFCou.
 Two-electron integral symmetry not used.
 Closed shell SCF:
 Using DIIS extrapolation, IDIIS=  1040.
 NGot=  1610612736 LenX=  1584221388 LenY=  1584205571
 Requested convergence on RMS density matrix=1.00D-08 within 128 cycles.
 Requested convergence on MAX density matrix=1.00D-06.
 Requested convergence on             energy=1.00D-06.
 No special actions if energy rises.

 Cycle   1  Pass 1  IDiag  1:
 E= -649.183268862071    
 DIIS: error= 1.13D-02 at cycle   1 NSaved=   1.
 NSaved= 1 IEnMin= 1 EnMin= -649.183268862071     IErMin= 1 ErrMin= 1.13D-02
 ErrMax= 1.13D-02  0.00D+00 EMaxC= 1.00D-01 BMatC= 2.62D-02 BMatP= 2.62D-02
 IDIUse=3 WtCom= 8.87D-01 WtEn= 1.13D-01
 Coeff-Com:  0.100D+01
 Coeff-En:   0.100D+01
 Coeff:      0.100D+01
 Gap=     0.046 Goal=   None    Shift=    0.000
 GapD=    0.046 DampG=0.250 DampE=0.500 DampFc=0.2500 IDamp=-1.
 Damping current iteration by 2.50D-01
 RMSDP=2.60D-03 MaxDP=6.52D-02              OVMax= 8.62D-02

 Cycle   2  Pass 1  IDiag  1:
 E= -649.187440874626     Delta-E=       -0.004172012554 Rises=F Damp=T
 DIIS: error= 7.97D-03 at cycle   2 NSaved=   2.
 NSaved= 2 IEnMin= 2 EnMin= -649.187440874626     IErMin= 2 ErrMin= 7.97D-03
 ErrMax= 7.97D-03  0.00D+00 EMaxC= 1.00D-01 BMatC= 1.02D-02 BMatP= 2.62D-02
 IDIUse=3 WtCom= 9.20D-01 WtEn= 7.97D-02
 Coeff-Com: -0.132D+01 0.232D+01
 Coeff-En:   0.000D+00 0.100D+01
 Coeff:     -0.121D+01 0.221D+01
 Gap=     0.047 Goal=   None    Shift=    0.000
 RMSDP=2.14D-03 MaxDP=4.99D-02 DE=-4.17D-03 OVMax= 4.45D-02

 Cycle   3  Pass 1  IDiag  1:
 E= -649.196114060963     Delta-E=       -0.008673186338 Rises=F Damp=F
 DIIS: error= 5.87D-04 at cycle   3 NSaved=   3.
 NSaved= 3 IEnMin= 3 EnMin= -649.196114060963     IErMin= 3 ErrMin= 5.87D-04
 ErrMax= 5.87D-04  0.00D+00 EMaxC= 1.00D-01 BMatC= 2.65D-05 BMatP= 1.02D-02
 IDIUse=3 WtCom= 9.94D-01 WtEn= 5.87D-03
 Coeff-Com: -0.996D-02 0.235D-01 0.986D+00
 Coeff-En:   0.000D+00 0.000D+00 0.100D+01
 Coeff:     -0.990D-02 0.234D-01 0.987D+00
 Gap=     0.049 Goal=   None    Shift=    0.000
 RMSDP=5.91D-04 MaxDP=3.01D-02 DE=-8.67D-03 OVMax= 4.62D-02

 Cycle   4  Pass 1  IDiag  1:
 E= -649.195870762349     Delta-E=        0.000243298615 Rises=F Damp=F
 DIIS: error= 1.00D-03 at cycle   4 NSaved=   4.
 NSaved= 4 IEnMin= 3 EnMin= -649.196114060963     IErMin= 3 ErrMin= 5.87D-04
 ErrMax= 1.00D-03  0.00D+00 EMaxC= 1.00D-01 BMatC= 6.55D-05 BMatP= 2.65D-05
 IDIUse=3 WtCom= 2.40D-01 WtEn= 7.60D-01
 Coeff-Com:  0.592D-02-0.621D-02 0.619D+00 0.381D+00
 Coeff-En:   0.000D+00 0.000D+00 0.706D+00 0.294D+00
 Coeff:      0.142D-02-0.149D-02 0.685D+00 0.315D+00
 Gap=     0.048 Goal=   None    Shift=    0.000
 RMSDP=3.26D-04 MaxDP=1.86D-02 DE= 2.43D-04 OVMax= 2.68D-02

 Cycle   5  Pass 1  IDiag  1:
 E= -649.196242954913     Delta-E=       -0.000372192564 Rises=F Damp=F
 DIIS: error= 1.16D-04 at cycle   5 NSaved=   5.
 NSaved= 5 IEnMin= 5 EnMin= -649.196242954913     IErMin= 5 ErrMin= 1.16D-04
 ErrMax= 1.16D-04  0.00D+00 EMaxC= 1.00D-01 BMatC= 1.07D-06 BMatP= 2.65D-05
 IDIUse=3 WtCom= 9.99D-01 WtEn= 1.16D-03
 Coeff-Com: -0.181D-02 0.199D-02 0.151D+00-0.789D-02 0.857D+00
 Coeff-En:   0.000D+00 0.000D+00 0.000D+00 0.000D+00 0.100D+01
 Coeff:     -0.181D-02 0.199D-02 0.151D+00-0.788D-02 0.857D+00
 Gap=     0.048 Goal=   None    Shift=    0.000
 RMSDP=4.48D-05 MaxDP=2.63D-03 DE=-3.72D-04 OVMax= 3.33D-03

 Cycle   6  Pass 1  IDiag  1:
 E= -649.196248205239     Delta-E=       -0.000005250326 Rises=F Damp=F
 DIIS: error= 7.38D-06 at cycle   6 NSaved=   6.
 NSaved= 6 IEnMin= 6 EnMin= -649.196248205239     IErMin= 6 ErrMin= 7.38D-06
 ErrMax= 7.38D-06  0.00D+00 EMaxC= 1.00D-01 BMatC= 9.60D-09 BMatP= 1.07D-06
 IDIUse=1 WtCom= 1.00D+00 WtEn= 0.00D+00
 Coeff-Com: -0.151D-02 0.189D-02 0.555D-02-0.805D-02 0.102D+00 0.900D+00
 Coeff:     -0.151D-02 0.189D-02 0.555D-02-0.805D-02 0.102D+00 0.900D+00
 Gap=     0.048 Goal=   None    Shift=    0.000
 RMSDP=5.54D-06 MaxDP=1.74D-04 DE=-5.25D-06 OVMax= 2.05D-04

 Cycle   7  Pass 1  IDiag  1:
 E= -649.196248225503     Delta-E=       -0.000000020264 Rises=F Damp=F
 DIIS: error= 2.27D-06 at cycle   7 NSaved=   7.
 NSaved= 7 IEnMin= 7 EnMin= -649.196248225503     IErMin= 7 ErrMin= 2.27D-06
 ErrMax= 2.27D-06  0.00D+00 EMaxC= 1.00D-01 BMatC= 1.12D-09 BMatP= 9.60D-09
 IDIUse=1 WtCom= 1.00D+00 WtEn= 0.00D+00
 Coeff-Com: -0.326D-03 0.405D-03-0.497D-02-0.210D-02-0.103D-01 0.274D+00
 Coeff-Com:  0.743D+00
 Coeff:     -0.326D-03 0.405D-03-0.497D-02-0.210D-02-0.103D-01 0.274D+00
 Coeff:      0.743D+00
 Gap=     0.048 Goal=   None    Shift=    0.000
 RMSDP=1.27D-06 MaxDP=4.81D-05 DE=-2.03D-08 OVMax= 7.14D-05

 Cycle   8  Pass 1  IDiag  1:
 E= -649.196248227874     Delta-E=       -0.000000002371 Rises=F Damp=F
 DIIS: error= 5.11D-07 at cycle   8 NSaved=   8.
 NSaved= 8 IEnMin= 8 EnMin= -649.196248227874     IErMin= 8 ErrMin= 5.11D-07
 ErrMax= 5.11D-07  0.00D+00 EMaxC= 1.00D-01 BMatC= 7.16D-11 BMatP= 1.12D-09
 IDIUse=1 WtCom= 1.00D+00 WtEn= 0.00D+00
 Coeff-Com:  0.109D-03-0.146D-03-0.140D-02 0.600D-03-0.111D-01 0.432D-02
 Coeff-Com:  0.153D+00 0.854D+00
 Coeff:      0.109D-03-0.146D-03-0.140D-02 0.600D-03-0.111D-01 0.432D-02
 Coeff:      0.153D+00 0.854D+00
 Gap=     0.048 Goal=   None    Shift=    0.000
 RMSDP=6.04D-07 MaxDP=2.10D-05 DE=-2.37D-09 OVMax= 2.26D-05

 Cycle   9  Pass 1  IDiag  1:
 E= -649.196248228078     Delta-E=       -0.000000000204 Rises=F Damp=F
 DIIS: error= 2.70D-07 at cycle   9 NSaved=   9.
 NSaved= 9 IEnMin= 9 EnMin= -649.196248228078     IErMin= 9 ErrMin= 2.70D-07
 ErrMax= 2.70D-07  0.00D+00 EMaxC= 1.00D-01 BMatC= 1.47D-11 BMatP= 7.16D-11
 IDIUse=1 WtCom= 1.00D+00 WtEn= 0.00D+00
 Coeff-Com:  0.871D-04-0.114D-03-0.208D-03 0.465D-03-0.456D-02-0.213D-01
 Coeff-Com:  0.149D-01 0.397D+00 0.613D+00
 Coeff:      0.871D-04-0.114D-03-0.208D-03 0.465D-03-0.456D-02-0.213D-01
 Coeff:      0.149D-01 0.397D+00 0.613D+00
 Gap=     0.048 Goal=   None    Shift=    0.000
 RMSDP=1.08D-07 MaxDP=6.20D-06 DE=-2.04D-10 OVMax= 7.26D-06

 Cycle  10  Pass 1  IDiag  1:
 E= -649.196248228103     Delta-E=       -0.000000000024 Rises=F Damp=F
 DIIS: error= 2.50D-08 at cycle  10 NSaved=  10.
 NSaved=10 IEnMin=10 EnMin= -649.196248228103     IErMin=10 ErrMin= 2.50D-08
 ErrMax= 2.50D-08  0.00D+00 EMaxC= 1.00D-01 BMatC= 1.87D-13 BMatP= 1.47D-11
 IDIUse=1 WtCom= 1.00D+00 WtEn= 0.00D+00
 Coeff-Com:  0.103D-04-0.132D-04 0.743D-05 0.391D-04-0.329D-03-0.461D-02
 Coeff-Com: -0.482D-02 0.470D-01 0.127D+00 0.835D+00
 Coeff:      0.103D-04-0.132D-04 0.743D-05 0.391D-04-0.329D-03-0.461D-02
 Coeff:     -0.482D-02 0.470D-01 0.127D+00 0.835D+00
 Gap=     0.048 Goal=   None    Shift=    0.000
 RMSDP=3.30D-08 MaxDP=1.29D-06 DE=-2.44D-11 OVMax= 2.21D-06

 Cycle  11  Pass 1  IDiag  1:
 E= -649.196248228105     Delta-E=       -0.000000000002 Rises=F Damp=F
 DIIS: error= 1.62D-08 at cycle  11 NSaved=  11.
 NSaved=11 IEnMin=11 EnMin= -649.196248228105     IErMin=11 ErrMin= 1.62D-08
 ErrMax= 1.62D-08  0.00D+00 EMaxC= 1.00D-01 BMatC= 2.71D-14 BMatP= 1.87D-13
 IDIUse=1 WtCom= 1.00D+00 WtEn= 0.00D+00
 Coeff-Com: -0.389D-05 0.517D-05 0.164D-04-0.146D-04 0.248D-03 0.113D-03
 Coeff-Com: -0.231D-02-0.134D-01-0.140D-01 0.246D+00 0.784D+00
 Coeff:     -0.389D-05 0.517D-05 0.164D-04-0.146D-04 0.248D-03 0.113D-03
 Coeff:     -0.231D-02-0.134D-01-0.140D-01 0.246D+00 0.784D+00
 Gap=     0.048 Goal=   None    Shift=    0.000
 RMSDP=1.28D-08 MaxDP=5.06D-07 DE=-2.05D-12 OVMax= 8.18D-07

 Cycle  12  Pass 1  IDiag  1:
 E= -649.196248228105     Delta-E=       -0.000000000000 Rises=F Damp=F
 DIIS: error= 2.62D-09 at cycle  12 NSaved=  12.
 NSaved=12 IEnMin=12 EnMin= -649.196248228105     IErMin=12 ErrMin= 2.62D-09
 ErrMax= 2.62D-09  0.00D+00 EMaxC= 1.00D-01 BMatC= 7.56D-16 BMatP= 2.71D-14
 IDIUse=1 WtCom= 1.00D+00 WtEn= 0.00D+00
 Coeff-Com: -0.145D-05 0.191D-05 0.342D-05-0.772D-05 0.867D-04 0.208D-03
 Coeff-Com: -0.376D-03-0.528D-02-0.722D-02 0.184D-01 0.185D+00 0.809D+00
 Coeff:     -0.145D-05 0.191D-05 0.342D-05-0.772D-05 0.867D-04 0.208D-03
 Coeff:     -0.376D-03-0.528D-02-0.722D-02 0.184D-01 0.185D+00 0.809D+00
 Gap=     0.048 Goal=   None    Shift=    0.000
 RMSDP=2.03D-09 MaxDP=8.42D-08 DE=-4.55D-13 OVMax= 1.57D-07

 SCF Done:  E(RB3LYP) =  -649.196248228     A.U. after   12 cycles
            NFock= 12  Conv=0.20D-08     -V/T= 2.0029
 KE= 6.472995787542D+02 PE=-1.719107672819D+03 EE= 3.426962194550D+02
 Leave Link  502 at Wed Oct  4 14:12:55 2023, MaxMem=  1610612736 cpu:             125.3 elap:              70.4
 (Enter /home/sekinelabo/g16/l601.exe)
 Copying SCF densities to generalized density rwf, IOpCl= 0 IROHF=0.

 **********************************************************************

            Population analysis using the SCF Density.

 **********************************************************************

 Orbital symmetries:
       Occupied  (A) (A) (A) (A) (A) (A) (A) (A) (A) (A) (A) (A)
                 (A) (A) (A) (A) (A) (A) (A) (A) (A) (A)
       Virtual   (A) (A) (A) (A) (A) (A) (A) (A) (A) (A) (A) (A)
                 (A) (A) (A) (A) (A) (A) (A) (A) (A) (A) (A) (A)
                 (A) (A) (A) (A) (A) (A) (A) (A) (A) (A) (A) (A)
                 (A) (A) (A) (A) (A) (A) (A) (A) (A) (A) (A) (A)
                 (A) (A) (A) (A) (A) (A) (A) (A) (A) (A) (A) (A)
                 (A) (A) (A) (A) (A) (A) (A) (A) (A) (A) (A) (A)
                 (A) (A) (A) (A) (A) (A) (A) (A) (A) (A) (A) (A)
                 (A) (A) (A) (A) (A) (A) (A) (A) (A) (A) (A) (A)
                 (A) (A)
 The electronic state is 1-A.
 Alpha  occ. eigenvalues --  -38.44955 -38.44594 -38.44564 -38.44533  -2.20749
 Alpha  occ. eigenvalues --   -2.20338  -2.20303  -2.20275  -1.14472  -1.14398
 Alpha  occ. eigenvalues --   -1.14394  -1.13992  -1.13990  -1.13983  -1.13981
 Alpha  occ. eigenvalues --   -1.13974  -1.13954  -1.13953  -1.13920  -1.13889
 Alpha  occ. eigenvalues --   -0.14103  -0.11827
 Alpha virt. eigenvalues --   -0.07033  -0.05081  -0.02943  -0.02714  -0.01837
 Alpha virt. eigenvalues --   -0.01369  -0.01183  -0.00223   0.00121   0.00407
 Alpha virt. eigenvalues --    0.00501   0.00809   0.00924   0.01139   0.01299
 Alpha virt. eigenvalues --    0.01455   0.01621   0.01768   0.01986   0.02115
 Alpha virt. eigenvalues --    0.02238   0.02484   0.02556   0.02783   0.02850
 Alpha virt. eigenvalues --    0.03098   0.03330   0.03774   0.04470   0.04919
 Alpha virt. eigenvalues --    0.07134   0.07219   0.07396   0.07625   0.08159
 Alpha virt. eigenvalues --    0.08315   0.08779   0.09072   0.09415   0.09560
 Alpha virt. eigenvalues --    0.10135   0.10695   0.11110   0.12662   0.14046
 Alpha virt. eigenvalues --    0.15153   0.28928   0.29308   0.30507   0.31813
 Alpha virt. eigenvalues --    0.31954   0.32356   0.32941   0.34480   0.35167
 Alpha virt. eigenvalues --    0.35557   0.36335   0.36581   0.38135   0.38492
 Alpha virt. eigenvalues --    0.40572   0.41059   0.42180   0.42800   0.43000
 Alpha virt. eigenvalues --    0.43718   0.44057   0.44344   0.44872   0.45222
 Alpha virt. eigenvalues --    0.46230   0.47444   0.49098   0.49338   0.49682
 Alpha virt. eigenvalues --    0.50742   0.52840   0.72722   2.00911   2.05222
 Alpha virt. eigenvalues --    2.09050   2.12725   4.40695   4.43048   4.43329
 Alpha virt. eigenvalues --    4.44232   4.44425   4.44800   4.44991   4.45494
 Alpha virt. eigenvalues --    4.45831   4.46291   4.49446   4.65836  96.19781
 Alpha virt. eigenvalues --   96.25066  96.29421  96.35276
          Condensed to atoms (all electrons):
               1          2          3          4
     1  Na  10.720770   0.340794   0.069519  -0.059052
     2  Na   0.340794  10.708367  -0.134910  -0.045952
     3  Na   0.069519  -0.134910  10.988105   0.271061
     4  Na  -0.059052  -0.045952   0.271061  10.699835
 Mulliken charges:
               1
     1  Na  -0.072032
     2  Na   0.131700
     3  Na  -0.193775
     4  Na   0.134107
 Sum of Mulliken charges =   0.00000
 Mulliken charges with hydrogens summed into heavy atoms:
               1
     1  Na  -0.072032
     2  Na   0.131700
     3  Na  -0.193775
     4  Na   0.134107
 Electronic spatial extent (au):  <R**2>=           2126.6903
 Charge=              0.0000 electrons
 Dipole moment (field-independent basis, Debye):
    X=              1.1581    Y=              0.5615    Z=             -0.0562  Tot=              1.2883
 Quadrupole moment (field-independent basis, Debye-Ang):
   XX=            -34.7152   YY=            -33.4676   ZZ=            -43.3610
   XY=             -0.9456   XZ=              2.4807   YZ=              0.8966
 Traceless Quadrupole moment (field-independent basis, Debye-Ang):
   XX=              2.4661   YY=              3.7136   ZZ=             -6.1797
   XY=             -0.9456   XZ=              2.4807   YZ=              0.8966
 Octapole moment (field-independent basis, Debye-Ang**2):
  XXX=            -36.5252  YYY=              5.4060  ZZZ=             -0.3026  XYY=             28.7539
  XXY=             51.6616  XXZ=            -10.6952  XZZ=              5.9100  YZZ=             -0.6049
  YYZ=             -0.2916  XYZ=             10.7112
 Hexadecapole moment (field-independent basis, Debye-Ang**3):
 XXXX=          -2635.2468 YYYY=           -416.5449 ZZZZ=           -223.8354 XXXY=            -49.7728
 XXXZ=            102.7309 YYYX=             13.1035 YYYZ=              7.1200 ZZZX=             10.3496
 ZZZY=              4.1951 XXYY=           -483.0077 XXZZ=           -566.6740 YYZZ=           -108.2633
 XXYZ=             10.6260 YYXZ=              2.7011 ZZXY=             -2.4320
 N-N= 7.991562638145D+01 E-N=-1.719107673211D+03  KE= 6.472995787542D+02
 No NMR shielding tensors so no spin-rotation constants.
 Leave Link  601 at Wed Oct  4 14:13:00 2023, MaxMem=  1610612736 cpu:               8.1 elap:               4.6
 (Enter /home/sekinelabo/g16/l701.exe)
 ... and contract with generalized density number  0.
 Compute integral first derivatives.
 Leave Link  701 at Wed Oct  4 14:13:04 2023, MaxMem=  1610612736 cpu:               7.2 elap:               3.9
 (Enter /home/sekinelabo/g16/l702.exe)
 L702 exits ... SP integral derivatives will be done elsewhere.
 Leave Link  702 at Wed Oct  4 14:13:04 2023, MaxMem=  1610612736 cpu:               0.5 elap:               0.3
 (Enter /home/sekinelabo/g16/l703.exe)
 Integral derivatives from FoFJK, PRISM(SPDF).
 Compute integral first derivatives, UseDBF=F ICtDFT=           0.
 Calling FoFJK, ICntrl=      2127 FMM=F ISym2X=0 I1Cent= 0 IOpClX= 0 NMat=1 NMatS=1 NMatT=0.
 FoFJK:  IHMeth= 1 ICntrl=    2127 DoSepK=F KAlg= 0 I1Cent=           0 FoldK=F
 IRaf=         0 NMat=       1 IRICut=       1 DoRegI=T DoRafI=F ISym2E= 0 IDoP0=0 IntGTp=1.
 FoFCou: FMM=F IPFlag=           0 FMFlag=      100000 FMFlg1=         800
         NFxFlg=           0 DoJE=F BraDBF=F KetDBF=F FulRan=T
         wScrn=  0.000000 ICntrl=      2127 IOpCl=  0 I1Cent=           0 NGrid=           0
         NMat0=    1 NMatS0=      1 NMatT0=    0 NMatD0=    1 NMtDS0=    0 NMtDT0=    0
 Symmetry not used in FoFCou.
 Leave Link  703 at Wed Oct  4 14:13:12 2023, MaxMem=  1610612736 cpu:              12.5 elap:               7.1
 (Enter /home/sekinelabo/g16/l716.exe)
 Dipole        = 4.55645058D-01 2.20910143D-01-2.21213811D-02
 ***** Axes restored to original set *****
 -------------------------------------------------------------------
 Center     Atomic                   Forces (Hartrees/Bohr)
 Number     Number              X              Y              Z
 -------------------------------------------------------------------
      1       11           0.002436752   -0.000041951    0.001664460
      2       11          -0.002107769    0.000114305   -0.000266159
      3       11          -0.002559193   -0.004164028    0.004274705
      4       11           0.002230210    0.004091675   -0.005673006
 -------------------------------------------------------------------
 Cartesian Forces:  Max     0.005673006 RMS     0.003017959
 Z-matrix is all fixed cartesians, so copy forces.
 Force constants in Cartesian coordinates: 
                1             2             3             4             5 
      1  0.365573D-01
      2  0.000000D+00  0.000000D+00
      3  0.917761D-02  0.000000D+00  0.230401D-02
      4 -0.365573D-01  0.000000D+00 -0.917761D-02  0.365573D-01
      5  0.000000D+00  0.000000D+00  0.000000D+00  0.000000D+00  0.000000D+00
      6 -0.917761D-02  0.000000D+00 -0.230401D-02  0.917761D-02  0.000000D+00
      7  0.000000D+00  0.000000D+00  0.000000D+00  0.000000D+00  0.000000D+00
      8  0.000000D+00  0.000000D+00  0.000000D+00  0.000000D+00  0.000000D+00
      9  0.000000D+00  0.000000D+00  0.000000D+00  0.000000D+00  0.000000D+00
     10  0.000000D+00  0.000000D+00  0.000000D+00  0.000000D+00  0.000000D+00
     11  0.000000D+00  0.000000D+00  0.000000D+00  0.000000D+00  0.000000D+00
     12  0.000000D+00  0.000000D+00  0.000000D+00  0.000000D+00  0.000000D+00
                6             7             8             9            10 
      6  0.230401D-02
      7  0.000000D+00  0.979089D-03
      8  0.000000D+00  0.193071D-02  0.380725D-02
      9  0.000000D+00 -0.276537D-02 -0.545315D-02  0.781058D-02
     10  0.000000D+00 -0.979089D-03 -0.193071D-02  0.276537D-02  0.979089D-03
     11  0.000000D+00 -0.193071D-02 -0.380725D-02  0.545315D-02  0.193071D-02
     12  0.000000D+00  0.276537D-02  0.545315D-02 -0.781058D-02 -0.276537D-02
               11            12 
     11  0.380725D-02
     12 -0.545315D-02  0.781058D-02
 Leave Link  716 at Wed Oct  4 14:13:12 2023, MaxMem=  1610612736 cpu:               0.8 elap:               0.5
 (Enter /home/sekinelabo/g16/l103.exe)

 GradGradGradGradGradGradGradGradGradGradGradGradGradGradGradGradGradGrad
 Berny optimization.
 Search for a local minimum.
 Step number   1 out of a maximum of    2
 All quantities printed in internal units (Hartrees-Bohrs-Radians)
 Second derivative matrix not updated -- first step.
 The second derivative matrix:
                          X1        Y1        Z1        X2        Y2
           X1           0.03656
           Y1          -0.00000  -0.00000
           Z1           0.00918  -0.00000   0.00230
           X2          -0.03656   0.00000  -0.00918   0.03656
           Y2           0.00000   0.00000   0.00000  -0.00000  -0.00000
           Z2          -0.00918   0.00000  -0.00230   0.00918  -0.00000
           X3           0.00000   0.00000   0.00000   0.00000   0.00000
           Y3           0.00000   0.00000   0.00000   0.00000   0.00000
           Z3           0.00000   0.00000   0.00000   0.00000   0.00000
           X4           0.00000   0.00000   0.00000   0.00000   0.00000
           Y4           0.00000   0.00000   0.00000   0.00000   0.00000
           Z4           0.00000   0.00000   0.00000   0.00000   0.00000
                          Z2        X3        Y3        Z3        X4
           Z2           0.00230
           X3           0.00000   0.00098
           Y3           0.00000   0.00193   0.00381
           Z3           0.00000  -0.00277  -0.00545   0.00781
           X4           0.00000  -0.00098  -0.00193   0.00277   0.00098
           Y4           0.00000  -0.00193  -0.00381   0.00545   0.00193
           Z4           0.00000   0.00277   0.00545  -0.00781  -0.00277
                          Y4        Z4
           Y4           0.00381
           Z4          -0.00545   0.00781
 ITU=  0
     Eigenvalues ---   -0.00000  -0.00000  -0.00000   0.00000   0.02519
     Eigenvalues ---    0.07772
 Eigenvalue     1 is  -8.88D-16 should be greater than     0.000000 Eigenvector:
                          X3        Z1        Y1        X4        Y2
   1                    0.55906   0.36227   0.36075  -0.33637  -0.30915
                          Z4        Y3        Z3        Y4        X1
   1                   -0.24632  -0.22342  -0.20523   0.17182  -0.14562
 Eigenvalue     2 is  -2.22D-16 should be greater than     0.000000 Eigenvector:
                          Z2        Z4        X1        Y3        Z3
   1                    0.76415  -0.38811   0.26957   0.23027  -0.20758
                          Z1        X3        X4        Y1        Y2
   1                   -0.16846  -0.15793  -0.14708  -0.10161  -0.09485
 Eigenvalue     3 is  -1.11D-16 should be greater than     0.000000 Eigenvector:
                          Y3        Z3        Y1        X3        Z4
   1                    0.57958   0.38163  -0.35437   0.35237  -0.35107
                          Y4        X1        Z2        Z1        X4
   1                   -0.23955  -0.16205  -0.16180   0.13124  -0.10184
 Eigenvalue     4 is   2.22D-16 Eigenvector:
                          Z1        Z3        X3        Y1        X4
   1                    0.71249  -0.41625  -0.29469  -0.25647   0.24887
                          Z4        Y2        X2        Z2        X1
   1                   -0.21525   0.16190   0.12251  -0.08100  -0.07669
 Quadratic step=1.860D+01 exceeds max=3.000D-01 adjusted using Lamda=-1.238D-02.
 Angle between NR and scaled steps=  59.06 degrees.
 Angle between quadratic step and forces=  22.10 degrees.
 Linear search not attempted -- first point.
 B after Tr=    -0.000000    0.000000    0.000000
         Rot=    1.000000    0.000000   -0.000000    0.000000 Ang=   0.00 deg.
 Variable       Old X    -DE/DX   Delta X   Delta X   Delta X     New X
                                 (Linear)    (Quad)   (Total)
    X1       -0.00000   0.00244   0.00000   0.03197   0.03197   0.03197
    Y1       -0.00000  -0.00004   0.00000  -0.00331  -0.00331  -0.00331
    Z1       -0.00000   0.00166   0.00000   0.09238   0.09238   0.09238
    X2       -5.44587  -0.00211   0.00000  -0.00558  -0.00558  -5.45145
    Y2       -0.00000   0.00011   0.00000   0.00909   0.00909   0.00909
    Z2       -1.36717  -0.00027   0.00000   0.01964   0.01964  -1.34753
    X3        0.00000  -0.00256   0.00000  -0.10285  -0.10285  -0.10285
    Y3        0.00000  -0.00416   0.00000  -0.13198  -0.13198  -0.13198
    Z3        8.17384   0.00427   0.00000   0.05375   0.05375   8.22759
    X4       -2.01602   0.00223   0.00000   0.07645   0.07645  -1.93957
    Y4       -3.97549   0.00409   0.00000   0.12621   0.12621  -3.84928
    Z4       13.86796  -0.00567   0.00000  -0.16577  -0.16577  13.70219
         Item               Value     Threshold  Converged?
 Maximum Force            0.005673     0.000450     NO 
 RMS     Force            0.003018     0.000300     NO 
 Maximum Displacement     0.165769     0.001800     NO 
 RMS     Displacement     0.086701     0.001200     NO 
 Predicted change in Energy=-2.014184D-03
 GradGradGradGradGradGradGradGradGradGradGradGradGradGradGradGradGradGrad

 Leave Link  103 at Wed Oct  4 14:13:14 2023, MaxMem=  1610612736 cpu:               3.7 elap:               2.0
 (Enter /home/sekinelabo/g16/l9999.exe)
 1\1\GINC-SEKINELABO-XA7R-R37\Force\RB3LYP\6-311+G(d)\Na4\SEKINELABO\04
 -Oct-2023\0\\#p B3LYP/6-311+g(d) force\\\0,1\Na,0.,0.,0.\Na,-2.8818294
 472,0.,-0.7234754115\Na,0.,0.,4.3254117193\Na,-1.0668344017,-2.1037371
 282,7.3386100273\\Version=ES64L-G16RevB.01\State=1-A\HF=-649.1962482\R
 MSD=2.031e-09\RMSF=3.018e-03\Dipole=-0.2582441,0.0113176,-0.4359873\Qu
 adrupole=2.4692334,-3.122411,0.6531777,1.2576445,0.0648503,-3.2656583\
 PG=C01 [X(Na4)]\\@


 A COMPLEXITY IS MERELY A DISARRANGEMENT OF SIMPLICITIES.

                                    -- G. O. ABELL IN "EXPLORATION OF THE UNIVERSE"
 Job cpu time:       0 days  0 hours  3 minutes 20.7 seconds.
 Elapsed time:       0 days  0 hours  1 minutes 52.5 seconds.
 File lengths (MBytes):  RWF=     10 Int=      0 D2E=      0 Chk=      2 Scr=      1
 Normal termination of Gaussian 16 at Wed Oct  4 14:13:15 2023.
 Initial command:
 /home/sekinelabo/g16/l1.exe "/home/sekinelabo/g16temp/Gau-8235.inp" -scrdir="/home/sekinelabo/g16temp/"
 Entering Link 1 = /home/sekinelabo/g16/l1.exe PID=      9813.
  
 Copyright (c) 1988-2017, Gaussian, Inc.  All Rights Reserved.
  
 This is part of the Gaussian(R) 16 program.  It is based on
 the Gaussian(R) 09 system (copyright 2009, Gaussian, Inc.),
 the Gaussian(R) 03 system (copyright 2003, Gaussian, Inc.),
 the Gaussian(R) 98 system (copyright 1998, Gaussian, Inc.),
 the Gaussian(R) 94 system (copyright 1995, Gaussian, Inc.),
 the Gaussian 92(TM) system (copyright 1992, Gaussian, Inc.),
 the Gaussian 90(TM) system (copyright 1990, Gaussian, Inc.),
 the Gaussian 88(TM) system (copyright 1988, Gaussian, Inc.),
 the Gaussian 86(TM) system (copyright 1986, Carnegie Mellon
 University), and the Gaussian 82(TM) system (copyright 1983,
 Carnegie Mellon University). Gaussian is a federally registered
 trademark of Gaussian, Inc.
  
 This software contains proprietary and confidential information,
 including trade secrets, belonging to Gaussian, Inc.
  
 This software is provided under written license and may be
 used, copied, transmitted, or stored only in accord with that
 written license.
  
 The following legend is applicable only to US Government
 contracts under FAR:
  
                    RESTRICTED RIGHTS LEGEND
  
 Use, reproduction and disclosure by the US Government is
 subject to restrictions as set forth in subparagraphs (a)
 and (c) of the Commercial Computer Software - Restricted
 Rights clause in FAR 52.227-19.
  
 Gaussian, Inc.
 340 Quinnipiac St., Bldg. 40, Wallingford CT 06492
  
  
 ---------------------------------------------------------------
 Warning -- This program may not be used in any manner that
 competes with the business of Gaussian, Inc. or will provide
 assistance to any competitor of Gaussian, Inc.  The licensee
 of this program is prohibited from giving any competitor of
 Gaussian, Inc. access to this program.  By using this program,
 the user acknowledges that Gaussian, Inc. is engaged in the
 business of creating and licensing software in the field of
 computational chemistry and represents and warrants to the
 licensee that it is not a competitor of Gaussian, Inc. and that
 it will not use this program in any manner prohibited above.
 ---------------------------------------------------------------
  

 Cite this work as:
 Gaussian 16, Revision B.01,
 M. J. Frisch, G. W. Trucks, H. B. Schlegel, G. E. Scuseria, 
 M. A. Robb, J. R. Cheeseman, G. Scalmani, V. Barone, 
 G. A. Petersson, H. Nakatsuji, X. Li, M. Caricato, A. V. Marenich, 
 J. Bloino, B. G. Janesko, R. Gomperts, B. Mennucci, H. P. Hratchian, 
 J. V. Ortiz, A. F. Izmaylov, J. L. Sonnenberg, D. Williams-Young, 
 F. Ding, F. Lipparini, F. Egidi, J. Goings, B. Peng, A. Petrone, 
 T. Henderson, D. Ranasinghe, V. G. Zakrzewski, J. Gao, N. Rega, 
 G. Zheng, W. Liang, M. Hada, M. Ehara, K. Toyota, R. Fukuda, 
 J. Hasegawa, M. Ishida, T. Nakajima, Y. Honda, O. Kitao, H. Nakai, 
 T. Vreven, K. Throssell, J. A. Montgomery, Jr., J. E. Peralta, 
 F. Ogliaro, M. J. Bearpark, J. J. Heyd, E. N. Brothers, K. N. Kudin, 
 V. N. Staroverov, T. A. Keith, R. Kobayashi, J. Normand, 
 K. Raghavachari, A. P. Rendell, J. C. Burant, S. S. Iyengar, 
 J. Tomasi, M. Cossi, J. M. Millam, M. Klene, C. Adamo, R. Cammi, 
 J. W. Ochterski, R. L. Martin, K. Morokuma, O. Farkas, 
 J. B. Foresman, and D. J. Fox, Gaussian, Inc., Wallingford CT, 2016.
 
 ******************************************
 Gaussian 16:  ES64L-G16RevB.01 20-Dec-2017
                 4-Oct-2023 
 ******************************************
 %NProcShared=16
 Will use up to   16 processors via shared memory.
 %mem=12GB
 %Chk=checkpoint.chk
 -------------------------
 #p B3LYP/6-311+g(d) force
 -------------------------
 1/10=7,30=1,38=1/1,3;
 2/12=2,17=6,18=5,40=1/2;
 3/5=4,6=6,7=11,11=2,25=1,30=1,71=1,74=-5/1,2,3;
 4//1;
 5/5=2,38=5/2;
 6/7=2,8=2,9=2,10=2,28=1/1;
 7/29=1/1,2,3,16;
 1/10=7,30=1/3;
 99//99;
 Leave Link    1 at Wed Oct  4 14:13:15 2023, MaxMem=  1610612736 cpu:               0.5 elap:               0.3
 (Enter /home/sekinelabo/g16/l101.exe)


 Symbolic Z-matrix:
 Charge =  0 Multiplicity = 1
 Na                    0.        0.        0. 
 Na                   -3.35006   0.       -2.56502 
 Na                    0.        0.        4.0714 
 Na                   -5.08546  -1.52376   5.07264 
 
 ITRead=  0  0  0  0
 MicOpt= -1 -1 -1 -1
 NAtoms=      4 NQM=        4 NQMF=       0 NMMI=      0 NMMIF=      0
                NMic=       0 NMicF=      0.
                    Isotopes and Nuclear Properties:
 (Nuclear quadrupole moments (NQMom) in fm**2, nuclear magnetic moments (NMagM)
  in nuclear magnetons)

  Atom         1           2           3           4
 IAtWgt=          23          23          23          23
 AtmWgt=  22.9897697  22.9897697  22.9897697  22.9897697
 NucSpn=           3           3           3           3
 AtZEff=  -0.0000000  -0.0000000  -0.0000000  -0.0000000
 NQMom=   10.4000000  10.4000000  10.4000000  10.4000000
 NMagM=    2.2175200   2.2175200   2.2175200   2.2175200
 AtZNuc=  11.0000000  11.0000000  11.0000000  11.0000000
 Leave Link  101 at Wed Oct  4 14:13:16 2023, MaxMem=  1610612736 cpu:               2.0 elap:               1.2
 (Enter /home/sekinelabo/g16/l103.exe)

 GradGradGradGradGradGradGradGradGradGradGradGradGradGradGradGradGradGrad
 Berny optimization.
 Initialization pass.
 Trust Radius=3.00D-01 FncErr=1.00D-07 GrdErr=1.00D-07 EigMax=2.50D+02 EigMin=1.00D-04
 Number of steps in this run=      2 maximum allowed number of steps=      2.
 GradGradGradGradGradGradGradGradGradGradGradGradGradGradGradGradGradGrad

 Leave Link  103 at Wed Oct  4 14:13:17 2023, MaxMem=  1610612736 cpu:               0.6 elap:               0.4
 (Enter /home/sekinelabo/g16/l202.exe)
                          Input orientation:                          
 ---------------------------------------------------------------------
 Center     Atomic      Atomic             Coordinates (Angstroms)
 Number     Number       Type             X           Y           Z
 ---------------------------------------------------------------------
      1         11           0        0.000000    0.000000    0.000000
      2         11           0       -3.350057    0.000000   -2.565021
      3         11           0        0.000000    0.000000    4.071404
      4         11           0       -5.085457   -1.523765    5.072636
 ---------------------------------------------------------------------
                    Distance matrix (angstroms):
                    1          2          3          4
     1  Na   0.000000
     2  Na   4.219267   0.000000
     3  Na   4.071404   7.434045   0.000000
     4  Na   7.342709   7.979178   5.402425   0.000000
 Stoichiometry    Na4
 Framework group  C1[X(Na4)]
 Deg. of freedom     6
 Full point group                 C1      NOp   1
 Largest Abelian subgroup         C1      NOp   1
 Largest concise Abelian subgroup C1      NOp   1
                         Standard orientation:                         
 ---------------------------------------------------------------------
 Center     Atomic      Atomic             Coordinates (Angstroms)
 Number     Number       Type             X           Y           Z
 ---------------------------------------------------------------------
      1         11           0        2.061681    1.725789    0.262346
      2         11           0        3.895547   -2.052206   -0.144970
      3         11           0       -1.880913    2.626862   -0.207066
      4         11           0       -4.076316   -2.300444    0.089691
 ---------------------------------------------------------------------
 Rotational constants (GHZ):           1.1259878           0.5534329           0.3728274
 Leave Link  202 at Wed Oct  4 14:13:18 2023, MaxMem=  1610612736 cpu:               1.1 elap:               0.6
 (Enter /home/sekinelabo/g16/l301.exe)
 Standard basis: 6-311+G(d) (5D, 7F)
 Ernie: Thresh=  0.10000D-02 Tol=  0.10000D-05 Strict=F.
 There are   124 symmetry adapted cartesian basis functions of A   symmetry.
 There are   120 symmetry adapted basis functions of A   symmetry.
   120 basis functions,   200 primitive gaussians,   124 cartesian basis functions
    22 alpha electrons       22 beta electrons
       nuclear repulsion energy        68.1128669157 Hartrees.
 IExCor=  402 DFT=T Ex+Corr=B3LYP ExCW=0 ScaHFX=  0.200000
 ScaDFX=  0.800000  0.720000  1.000000  0.810000 ScalE2=  1.000000  1.000000
 IRadAn=      5 IRanWt=     -1 IRanGd=            0 ICorTp=0 IEmpDi=  4
 NAtoms=    4 NActive=    4 NUniq=    4 SFac= 1.00D+00 NAtFMM=   60 NAOKFM=F Big=F
 Integral buffers will be    131072 words long.
 Raffenetti 2 integral format.
 Two-electron integral symmetry is turned on.
 Leave Link  301 at Wed Oct  4 14:13:18 2023, MaxMem=  1610612736 cpu:               0.7 elap:               0.4
 (Enter /home/sekinelabo/g16/l302.exe)
 NPDir=0 NMtPBC=     1 NCelOv=     1 NCel=       1 NClECP=     1 NCelD=      1
         NCelK=      1 NCelE2=     1 NClLst=     1 CellRange=     0.0.
 One-electron integrals computed using PRISM.
 One-electron integral symmetry used in STVInt
 NBasis=   120 RedAO= T EigKep=  2.50D-04  NBF=   120
 NBsUse=   120 1.00D-06 EigRej= -1.00D+00 NBFU=   120
 Precomputing XC quadrature grid using
 IXCGrd= 4 IRadAn=           5 IRanWt=          -1 IRanGd=           0 AccXCQ= 0.00D+00.
 Generated NRdTot=       0 NPtTot=           0 NUsed=           0 NTot=          32
 NSgBfM=   112   112   112   112   112 MxSgAt=     4 MxSgA2=     4.
 Leave Link  302 at Wed Oct  4 14:13:30 2023, MaxMem=  1610612736 cpu:              20.7 elap:              11.5
 (Enter /home/sekinelabo/g16/l303.exe)
 DipDrv:  MaxL=1.
 Leave Link  303 at Wed Oct  4 14:13:31 2023, MaxMem=  1610612736 cpu:               2.7 elap:               1.6
 (Enter /home/sekinelabo/g16/l401.exe)
 ExpMin= 7.60D-03 ExpMax= 3.62D+04 ExpMxC= 1.21D+03 IAcc=3 IRadAn=         5 AccDes= 0.00D+00
 Harris functional with IExCor=  402 and IRadAn=       5 diagonalized for initial guess.
 HarFok:  IExCor=  402 AccDes= 0.00D+00 IRadAn=         5 IDoV= 1 UseB2=F ITyADJ=14
 ICtDFT=  3500011 ScaDFX=  1.000000  1.000000  1.000000  1.000000
 FoFCou: FMM=F IPFlag=           0 FMFlag=      100000 FMFlg1=           0
         NFxFlg=           0 DoJE=T BraDBF=F KetDBF=T FulRan=T
         wScrn=  0.000000 ICntrl=       500 IOpCl=  0 I1Cent=   200000004 NGrid=           0
         NMat0=    1 NMatS0=      1 NMatT0=    0 NMatD0=    1 NMtDS0=    0 NMtDT0=    0
 Petite list used in FoFCou.
 Harris En= -649.040906613569    
 JPrj=0 DoOrth=F DoCkMO=F.
 Leave Link  401 at Wed Oct  4 14:13:39 2023, MaxMem=  1610612736 cpu:              13.9 elap:               7.9
 (Enter /home/sekinelabo/g16/l502.exe)
 Keep R1 ints in memory in canonical form, NReq=41581754.
 FoFCou: FMM=F IPFlag=           0 FMFlag=           0 FMFlg1=           0
         NFxFlg=           0 DoJE=F BraDBF=F KetDBF=F FulRan=T
         wScrn=  0.000000 ICntrl=       600 IOpCl=  0 I1Cent=           0 NGrid=           0
         NMat0=    1 NMatS0=   7260 NMatT0=    0 NMatD0=    1 NMtDS0=    0 NMtDT0=    0
 Symmetry not used in FoFCou.
 Two-electron integral symmetry not used.
 Closed shell SCF:
 Using DIIS extrapolation, IDIIS=  1040.
 NGot=  1610612736 LenX=  1584221388 LenY=  1584205571
 Requested convergence on RMS density matrix=1.00D-08 within 128 cycles.
 Requested convergence on MAX density matrix=1.00D-06.
 Requested convergence on             energy=1.00D-06.
 No special actions if energy rises.

 Cycle   1  Pass 1  IDiag  1:
 E= -649.142926192786    
 DIIS: error= 1.33D-02 at cycle   1 NSaved=   1.
 NSaved= 1 IEnMin= 1 EnMin= -649.142926192786     IErMin= 1 ErrMin= 1.33D-02
 ErrMax= 1.33D-02  0.00D+00 EMaxC= 1.00D-01 BMatC= 2.77D-02 BMatP= 2.77D-02
 IDIUse=3 WtCom= 8.67D-01 WtEn= 1.33D-01
 Coeff-Com:  0.100D+01
 Coeff-En:   0.100D+01
 Coeff:      0.100D+01
 Gap=     0.006 Goal=   None    Shift=    0.000
 GapD=    0.006 DampG=0.250 DampE=0.500 DampFc=0.2500 IDamp=-1.
 Damping current iteration by 2.50D-01
 RMSDP=7.53D-03 MaxDP=5.23D-01              OVMax= 6.10D-01

 Cycle   2  Pass 1  IDiag  1:
 E= -649.150238678119     Delta-E=       -0.007312485334 Rises=F Damp=T
 DIIS: error= 9.16D-03 at cycle   2 NSaved=   2.
 NSaved= 2 IEnMin= 2 EnMin= -649.150238678119     IErMin= 2 ErrMin= 9.16D-03
 ErrMax= 9.16D-03  0.00D+00 EMaxC= 1.00D-01 BMatC= 1.02D-02 BMatP= 2.77D-02
 IDIUse=3 WtCom= 9.08D-01 WtEn= 9.16D-02
 Coeff-Com: -0.101D+01 0.201D+01
 Coeff-En:   0.138D+00 0.862D+00
 Coeff:     -0.906D+00 0.191D+01
 Gap=     0.024 Goal=   None    Shift=    0.000
 RMSDP=5.35D-03 MaxDP=2.92D-01 DE=-7.31D-03 OVMax= 8.39D-01

 Cycle   3  Pass 1  IDiag  1:
 E= -649.056247515380     Delta-E=        0.093991162739 Rises=F Damp=F
 DIIS: error= 8.98D-03 at cycle   3 NSaved=   3.
 NSaved= 3 IEnMin= 2 EnMin= -649.150238678119     IErMin= 3 ErrMin= 8.98D-03
 ErrMax= 8.98D-03  0.00D+00 EMaxC= 1.00D-01 BMatC= 7.92D-03 BMatP= 1.02D-02
 IDIUse=3 WtCom= 9.10D-01 WtEn= 8.98D-02
 Rare condition: small coef for last iteration:  0.000D+00
 Coeff-Com: -0.679D+00 0.129D+01 0.393D+00
 Coeff-En:   0.000D+00 0.000D+00 0.100D+01
 Coeff:     -0.679D+00 0.129D+01 0.393D+00
 Gap=     0.027 Goal=   None    Shift=    0.000
 RMSDP=8.27D-03 MaxDP=5.05D-01 DE= 9.40D-02 OVMax= 8.07D-01

 Cycle   4  Pass 1  IDiag  1:
 E= -649.089316739079     Delta-E=       -0.033069223699 Rises=F Damp=F
 DIIS: error= 1.04D-02 at cycle   4 NSaved=   4.
 NSaved= 4 IEnMin= 2 EnMin= -649.150238678119     IErMin= 3 ErrMin= 8.98D-03
 ErrMax= 1.04D-02  0.00D+00 EMaxC= 1.00D-01 BMatC= 6.53D-03 BMatP= 7.92D-03
 IDIUse=3 WtCom= 8.96D-01 WtEn= 1.04D-01
 EnCoef did   100 forward-backward iterations
 Coeff-Com: -0.292D+00 0.614D+00 0.384D+00 0.294D+00
 Coeff-En:   0.727D+00 0.000D+00 0.221D-02 0.271D+00
 Coeff:     -0.186D+00 0.550D+00 0.344D+00 0.291D+00
 Gap=     0.012 Goal=   None    Shift=    0.000
 RMSDP=4.04D-03 MaxDP=2.58D-01 DE=-3.31D-02 OVMax= 4.52D-01

 Cycle   5  Pass 1  IDiag  1:
 E= -649.164184756151     Delta-E=       -0.074868017072 Rises=F Damp=F
 DIIS: error= 8.18D-04 at cycle   5 NSaved=   5.
 NSaved= 5 IEnMin= 5 EnMin= -649.164184756151     IErMin= 5 ErrMin= 8.18D-04
 ErrMax= 8.18D-04  0.00D+00 EMaxC= 1.00D-01 BMatC= 2.20D-04 BMatP= 6.53D-03
 IDIUse=3 WtCom= 9.92D-01 WtEn= 8.18D-03
 Coeff-Com:  0.181D+00-0.225D+00 0.260D-01 0.677D-02 0.101D+01
 Coeff-En:   0.000D+00 0.000D+00 0.000D+00 0.000D+00 0.100D+01
 Coeff:      0.180D+00-0.223D+00 0.257D-01 0.672D-02 0.101D+01
 Gap=     0.023 Goal=   None    Shift=    0.000
 RMSDP=7.99D-04 MaxDP=3.57D-02 DE=-7.49D-02 OVMax= 5.88D-02

 Cycle   6  Pass 1  IDiag  1:
 E= -649.163046050076     Delta-E=        0.001138706074 Rises=F Damp=F
 DIIS: error= 2.13D-03 at cycle   6 NSaved=   6.
 NSaved= 6 IEnMin= 5 EnMin= -649.164184756151     IErMin= 5 ErrMin= 8.18D-04
 ErrMax= 2.13D-03  0.00D+00 EMaxC= 1.00D-01 BMatC= 2.01D-04 BMatP= 2.20D-04
 IDIUse=3 WtCom= 9.92D-01 WtEn= 8.18D-03
 Rare condition: small coef for last iteration:  0.000D+00
 Coeff-Com:  0.123D+00-0.166D+00 0.137D-01-0.736D-01 0.510D+00 0.593D+00
 Coeff-En:   0.000D+00 0.000D+00 0.000D+00 0.000D+00 0.000D+00 0.100D+01
 Coeff:      0.123D+00-0.166D+00 0.137D-01-0.736D-01 0.510D+00 0.593D+00
 Gap=     0.024 Goal=   None    Shift=    0.000
 RMSDP=4.65D-04 MaxDP=2.80D-02 DE= 1.14D-03 OVMax= 4.18D-02

 Cycle   7  Pass 1  IDiag  1:
 E= -649.164283524159     Delta-E=       -0.001237474082 Rises=F Damp=F
 DIIS: error= 9.62D-04 at cycle   7 NSaved=   7.
 NSaved= 7 IEnMin= 7 EnMin= -649.164283524159     IErMin= 5 ErrMin= 8.18D-04
 ErrMax= 9.62D-04  0.00D+00 EMaxC= 1.00D-01 BMatC= 7.90D-05 BMatP= 2.01D-04
 IDIUse=3 WtCom= 9.92D-01 WtEn= 8.18D-03
 Coeff-Com:  0.103D+00-0.142D+00 0.158D-01-0.671D-01 0.342D+00 0.394D+00
 Coeff-Com:  0.353D+00
 Coeff-En:   0.000D+00 0.000D+00 0.000D+00 0.000D+00 0.000D+00 0.000D+00
 Coeff-En:   0.100D+01
 Coeff:      0.102D+00-0.140D+00 0.157D-01-0.666D-01 0.340D+00 0.391D+00
 Coeff:      0.358D+00
 Gap=     0.023 Goal=   None    Shift=    0.000
 RMSDP=2.58D-04 MaxDP=1.33D-02 DE=-1.24D-03 OVMax= 2.06D-02

 Cycle   8  Pass 1  IDiag  1:
 E= -649.164690468021     Delta-E=       -0.000406943863 Rises=F Damp=F
 DIIS: error= 7.91D-04 at cycle   8 NSaved=   8.
 NSaved= 8 IEnMin= 8 EnMin= -649.164690468021     IErMin= 8 ErrMin= 7.91D-04
 ErrMax= 7.91D-04  0.00D+00 EMaxC= 1.00D-01 BMatC= 3.20D-05 BMatP= 7.90D-05
 IDIUse=3 WtCom= 9.92D-01 WtEn= 7.91D-03
 Coeff-Com:  0.409D-01-0.552D-01 0.156D-01-0.308D-01 0.714D-01-0.141D+00
 Coeff-Com:  0.727D-01 0.103D+01
 Coeff-En:   0.000D+00 0.000D+00 0.000D+00 0.000D+00 0.000D+00 0.000D+00
 Coeff-En:   0.000D+00 0.100D+01
 Coeff:      0.406D-01-0.548D-01 0.155D-01-0.306D-01 0.708D-01-0.140D+00
 Coeff:      0.721D-01 0.103D+01
 Gap=     0.023 Goal=   None    Shift=    0.000
 RMSDP=1.77D-04 MaxDP=1.07D-02 DE=-4.07D-04 OVMax= 1.73D-02

 Cycle   9  Pass 1  IDiag  1:
 E= -649.164628608147     Delta-E=        0.000061859874 Rises=F Damp=F
 DIIS: error= 8.21D-04 at cycle   9 NSaved=   9.
 NSaved= 9 IEnMin= 8 EnMin= -649.164690468021     IErMin= 8 ErrMin= 7.91D-04
 ErrMax= 8.21D-04  0.00D+00 EMaxC= 1.00D-01 BMatC= 4.05D-05 BMatP= 3.20D-05
 IDIUse=3 WtCom= 9.92D-01 WtEn= 7.91D-03
 Coeff-Com:  0.420D-02-0.622D-02 0.141D-01-0.264D-02-0.976D-01-0.463D+00
 Coeff-Com: -0.333D+00 0.116D+01 0.720D+00
 Coeff-En:   0.000D+00 0.000D+00 0.000D+00 0.000D+00 0.000D+00 0.000D+00
 Coeff-En:   0.000D+00 0.899D+00 0.101D+00
 Coeff:      0.417D-02-0.617D-02 0.140D-01-0.262D-02-0.969D-01-0.459D+00
 Coeff:     -0.331D+00 0.116D+01 0.715D+00
 Gap=     0.023 Goal=   None    Shift=    0.000
 RMSDP=1.75D-04 MaxDP=1.17D-02 DE= 6.19D-05 OVMax= 1.95D-02

 Cycle  10  Pass 1  IDiag  1:
 E= -649.164923978904     Delta-E=       -0.000295370757 Rises=F Damp=F
 DIIS: error= 3.90D-04 at cycle  10 NSaved=  10.
 NSaved=10 IEnMin=10 EnMin= -649.164923978904     IErMin=10 ErrMin= 3.90D-04
 ErrMax= 3.90D-04  0.00D+00 EMaxC= 1.00D-01 BMatC= 7.31D-06 BMatP= 3.20D-05
 IDIUse=3 WtCom= 9.96D-01 WtEn= 3.90D-03
 Coeff-Com: -0.514D-02 0.654D-02 0.479D-02 0.762D-02-0.556D-01-0.234D+00
 Coeff-Com: -0.169D+00 0.255D+00-0.568D-01 0.125D+01
 Coeff-En:   0.000D+00 0.000D+00 0.000D+00 0.000D+00 0.000D+00 0.000D+00
 Coeff-En:   0.000D+00 0.000D+00 0.000D+00 0.100D+01
 Coeff:     -0.512D-02 0.651D-02 0.478D-02 0.759D-02-0.554D-01-0.233D+00
 Coeff:     -0.169D+00 0.254D+00-0.566D-01 0.125D+01
 Gap=     0.023 Goal=   None    Shift=    0.000
 RMSDP=1.56D-04 MaxDP=9.35D-03 DE=-2.95D-04 OVMax= 1.85D-02

 Cycle  11  Pass 1  IDiag  1:
 E= -649.164996121626     Delta-E=       -0.000072142722 Rises=F Damp=F
 DIIS: error= 6.16D-05 at cycle  11 NSaved=  11.
 NSaved=11 IEnMin=11 EnMin= -649.164996121626     IErMin=11 ErrMin= 6.16D-05
 ErrMax= 6.16D-05  0.00D+00 EMaxC= 1.00D-01 BMatC= 2.02D-07 BMatP= 7.31D-06
 IDIUse=1 WtCom= 1.00D+00 WtEn= 0.00D+00
 Coeff-Com:  0.267D-02-0.365D-02 0.598D-03 0.774D-03 0.106D-01-0.591D-02
 Coeff-Com: -0.653D-02-0.245D-01-0.374D-01 0.295D+00 0.768D+00
 Coeff:      0.267D-02-0.365D-02 0.598D-03 0.774D-03 0.106D-01-0.591D-02
 Coeff:     -0.653D-02-0.245D-01-0.374D-01 0.295D+00 0.768D+00
 Gap=     0.023 Goal=   None    Shift=    0.000
 RMSDP=3.23D-05 MaxDP=1.82D-03 DE=-7.21D-05 OVMax= 3.44D-03

 Cycle  12  Pass 1  IDiag  1:
 E= -649.164998158373     Delta-E=       -0.000002036746 Rises=F Damp=F
 DIIS: error= 1.69D-05 at cycle  12 NSaved=  12.
 NSaved=12 IEnMin=12 EnMin= -649.164998158373     IErMin=12 ErrMin= 1.69D-05
 ErrMax= 1.69D-05  0.00D+00 EMaxC= 1.00D-01 BMatC= 1.82D-08 BMatP= 2.02D-07
 IDIUse=1 WtCom= 1.00D+00 WtEn= 0.00D+00
 Coeff-Com:  0.133D-02-0.183D-02 0.910D-04 0.217D-03 0.621D-02 0.424D-02
 Coeff-Com:  0.107D-02-0.168D-01-0.190D-01 0.381D-01 0.170D+00 0.816D+00
 Coeff:      0.133D-02-0.183D-02 0.910D-04 0.217D-03 0.621D-02 0.424D-02
 Coeff:      0.107D-02-0.168D-01-0.190D-01 0.381D-01 0.170D+00 0.816D+00
 Gap=     0.023 Goal=   None    Shift=    0.000
 RMSDP=5.83D-06 MaxDP=2.99D-04 DE=-2.04D-06 OVMax= 5.07D-04

 Cycle  13  Pass 1  IDiag  1:
 E= -649.164998317983     Delta-E=       -0.000000159611 Rises=F Damp=F
 DIIS: error= 6.11D-06 at cycle  13 NSaved=  13.
 NSaved=13 IEnMin=13 EnMin= -649.164998317983     IErMin=13 ErrMin= 6.11D-06
 ErrMax= 6.11D-06  0.00D+00 EMaxC= 1.00D-01 BMatC= 1.98D-09 BMatP= 1.82D-08
 IDIUse=1 WtCom= 1.00D+00 WtEn= 0.00D+00
 Coeff-Com:  0.223D-03-0.307D-03 0.191D-05 0.640D-06 0.113D-02 0.692D-03
 Coeff-Com: -0.317D-03-0.315D-02 0.454D-02-0.330D-01-0.556D-01 0.991D-01
 Coeff-Com:  0.987D+00
 Coeff:      0.223D-03-0.307D-03 0.191D-05 0.640D-06 0.113D-02 0.692D-03
 Coeff:     -0.317D-03-0.315D-02 0.454D-02-0.330D-01-0.556D-01 0.991D-01
 Coeff:      0.987D+00
 Gap=     0.023 Goal=   None    Shift=    0.000
 RMSDP=2.66D-06 MaxDP=8.78D-05 DE=-1.60D-07 OVMax= 2.66D-04

 Cycle  14  Pass 1  IDiag  1:
 E= -649.164998338500     Delta-E=       -0.000000020517 Rises=F Damp=F
 DIIS: error= 8.27D-07 at cycle  14 NSaved=  14.
 NSaved=14 IEnMin=14 EnMin= -649.164998338500     IErMin=14 ErrMin= 8.27D-07
 ErrMax= 8.27D-07  0.00D+00 EMaxC= 1.00D-01 BMatC= 6.12D-11 BMatP= 1.98D-09
 IDIUse=1 WtCom= 1.00D+00 WtEn= 0.00D+00
 Coeff-Com: -0.123D-04 0.153D-04 0.123D-04 0.208D-04-0.841D-04-0.690D-03
 Coeff-Com: -0.754D-03 0.372D-03 0.728D-04 0.112D-02-0.975D-02-0.471D-01
 Coeff-Com:  0.126D+00 0.931D+00
 Coeff:     -0.123D-04 0.153D-04 0.123D-04 0.208D-04-0.841D-04-0.690D-03
 Coeff:     -0.754D-03 0.372D-03 0.728D-04 0.112D-02-0.975D-02-0.471D-01
 Coeff:      0.126D+00 0.931D+00
 Gap=     0.023 Goal=   None    Shift=    0.000
 RMSDP=4.23D-07 MaxDP=2.41D-05 DE=-2.05D-08 OVMax= 3.26D-05

 Cycle  15  Pass 1  IDiag  1:
 E= -649.164998338977     Delta-E=       -0.000000000477 Rises=F Damp=F
 DIIS: error= 8.92D-08 at cycle  15 NSaved=  15.
 NSaved=15 IEnMin=15 EnMin= -649.164998338977     IErMin=15 ErrMin= 8.92D-08
 ErrMax= 8.92D-08  0.00D+00 EMaxC= 1.00D-01 BMatC= 9.84D-13 BMatP= 6.12D-11
 IDIUse=1 WtCom= 1.00D+00 WtEn= 0.00D+00
 Coeff-Com: -0.601D-05 0.792D-05 0.146D-05 0.790D-06-0.424D-04-0.878D-04
 Coeff-Com: -0.860D-04 0.196D-03-0.238D-03 0.143D-02 0.625D-03-0.134D-01
 Coeff-Com: -0.311D-01 0.160D+00 0.883D+00
 Coeff:     -0.601D-05 0.792D-05 0.146D-05 0.790D-06-0.424D-04-0.878D-04
 Coeff:     -0.860D-04 0.196D-03-0.238D-03 0.143D-02 0.625D-03-0.134D-01
 Coeff:     -0.311D-01 0.160D+00 0.883D+00
 Gap=     0.023 Goal=   None    Shift=    0.000
 RMSDP=8.36D-08 MaxDP=2.10D-06 DE=-4.77D-10 OVMax= 4.88D-06

 Cycle  16  Pass 1  IDiag  1:
 E= -649.164998338982     Delta-E=       -0.000000000005 Rises=F Damp=F
 DIIS: error= 3.25D-08 at cycle  16 NSaved=  16.
 NSaved=16 IEnMin=16 EnMin= -649.164998338982     IErMin=16 ErrMin= 3.25D-08
 ErrMax= 3.25D-08  0.00D+00 EMaxC= 1.00D-01 BMatC= 8.03D-14 BMatP= 9.84D-13
 IDIUse=1 WtCom= 1.00D+00 WtEn= 0.00D+00
 Coeff-Com: -0.158D-05 0.214D-05 0.174D-06 0.207D-06-0.947D-05-0.813D-05
 Coeff-Com: -0.974D-05 0.389D-04-0.405D-04 0.148D-03 0.360D-03-0.509D-03
 Coeff-Com: -0.505D-02-0.664D-02 0.728D-01 0.939D+00
 Coeff:     -0.158D-05 0.214D-05 0.174D-06 0.207D-06-0.947D-05-0.813D-05
 Coeff:     -0.974D-05 0.389D-04-0.405D-04 0.148D-03 0.360D-03-0.509D-03
 Coeff:     -0.505D-02-0.664D-02 0.728D-01 0.939D+00
 Gap=     0.023 Goal=   None    Shift=    0.000
 RMSDP=1.66D-08 MaxDP=1.06D-06 DE=-5.34D-12 OVMax= 1.44D-06

 Cycle  17  Pass 1  IDiag  1:
 E= -649.164998338984     Delta-E=       -0.000000000002 Rises=F Damp=F
 DIIS: error= 4.97D-09 at cycle  17 NSaved=  17.
 NSaved=17 IEnMin=17 EnMin= -649.164998338984     IErMin=17 ErrMin= 4.97D-09
 ErrMax= 4.97D-09  0.00D+00 EMaxC= 1.00D-01 BMatC= 1.63D-15 BMatP= 8.03D-14
 IDIUse=1 WtCom= 1.00D+00 WtEn= 0.00D+00
 Large coefficients: NSaved= 17 BigCof=    0.00 CofMax=   10.00 Det=-7.13D-15
 Inversion failed.  Reducing to 16 matrices.
 Large coefficients: NSaved= 16 BigCof=    0.00 CofMax=   10.00 Det=-7.14D-15
 Inversion failed.  Reducing to 15 matrices.
 Coeff-Com:  0.108D-06-0.154D-06 0.353D-06 0.335D-05 0.714D-05-0.435D-05
 Coeff-Com: -0.405D-05 0.465D-05 0.137D-03 0.252D-03-0.607D-03-0.633D-02
 Coeff-Com: -0.947D-02 0.174D+00 0.842D+00
 Coeff:      0.108D-06-0.154D-06 0.353D-06 0.335D-05 0.714D-05-0.435D-05
 Coeff:     -0.405D-05 0.465D-05 0.137D-03 0.252D-03-0.607D-03-0.633D-02
 Coeff:     -0.947D-02 0.174D+00 0.842D+00
 Gap=     0.023 Goal=   None    Shift=    0.000
 RMSDP=3.85D-09 MaxDP=1.33D-07 DE=-1.59D-12 OVMax= 3.02D-07

 SCF Done:  E(RB3LYP) =  -649.164998339     A.U. after   17 cycles
            NFock= 17  Conv=0.39D-08     -V/T= 2.0030
 KE= 6.472047016629D+02 PE=-1.694998057016D+03 EE= 3.305154900983D+02
 Leave Link  502 at Wed Oct  4 14:15:21 2023, MaxMem=  1610612736 cpu:             183.8 elap:             102.4
 (Enter /home/sekinelabo/g16/l601.exe)
 Copying SCF densities to generalized density rwf, IOpCl= 0 IROHF=0.

 **********************************************************************

            Population analysis using the SCF Density.

 **********************************************************************

 Orbital symmetries:
       Occupied  (A) (A) (A) (A) (A) (A) (A) (A) (A) (A) (A) (A)
                 (A) (A) (A) (A) (A) (A) (A) (A) (A) (A)
       Virtual   (A) (A) (A) (A) (A) (A) (A) (A) (A) (A) (A) (A)
                 (A) (A) (A) (A) (A) (A) (A) (A) (A) (A) (A) (A)
                 (A) (A) (A) (A) (A) (A) (A) (A) (A) (A) (A) (A)
                 (A) (A) (A) (A) (A) (A) (A) (A) (A) (A) (A) (A)
                 (A) (A) (A) (A) (A) (A) (A) (A) (A) (A) (A) (A)
                 (A) (A) (A) (A) (A) (A) (A) (A) (A) (A) (A) (A)
                 (A) (A) (A) (A) (A) (A) (A) (A) (A) (A) (A) (A)
                 (A) (A) (A) (A) (A) (A) (A) (A) (A) (A) (A) (A)
                 (A) (A)
 The electronic state is 1-A.
 Alpha  occ. eigenvalues --  -38.46387 -38.45906 -38.45476 -38.45148  -2.22060
 Alpha  occ. eigenvalues --   -2.21591  -2.21169  -2.20841  -1.15737  -1.15735
 Alpha  occ. eigenvalues --   -1.15706  -1.15275  -1.15250  -1.15236  -1.14849
 Alpha  occ. eigenvalues --   -1.14847  -1.14797  -1.14538  -1.14521  -1.14457
 Alpha  occ. eigenvalues --   -0.13092  -0.11164
 Alpha virt. eigenvalues --   -0.08836  -0.06097  -0.02671  -0.02641  -0.02423
 Alpha virt. eigenvalues --   -0.01532  -0.01258  -0.00954  -0.00826  -0.00493
 Alpha virt. eigenvalues --    0.00013   0.00692   0.00722   0.00852   0.01135
 Alpha virt. eigenvalues --    0.01327   0.01500   0.01625   0.01678   0.01836
 Alpha virt. eigenvalues --    0.01923   0.02151   0.02184   0.02229   0.02629
 Alpha virt. eigenvalues --    0.02709   0.02914   0.03066   0.03636   0.04534
 Alpha virt. eigenvalues --    0.06800   0.07192   0.07489   0.07767   0.08043
 Alpha virt. eigenvalues --    0.08133   0.08299   0.08445   0.08831   0.09101
 Alpha virt. eigenvalues --    0.09393   0.09789   0.10504   0.11518   0.12678
 Alpha virt. eigenvalues --    0.13293   0.30918   0.31281   0.31440   0.33198
 Alpha virt. eigenvalues --    0.33343   0.33521   0.34180   0.34220   0.34284
 Alpha virt. eigenvalues --    0.34696   0.34867   0.34932   0.34991   0.35643
 Alpha virt. eigenvalues --    0.36145   0.37446   0.37996   0.38925   0.40621
 Alpha virt. eigenvalues --    0.42029   0.42230   0.42844   0.43272   0.43359
 Alpha virt. eigenvalues --    0.43706   0.44273   0.44761   0.45915   0.47076
 Alpha virt. eigenvalues --    0.48077   0.49115   0.51250   1.98624   2.01150
 Alpha virt. eigenvalues --    2.04671   2.07064   4.42195   4.42305   4.42692
 Alpha virt. eigenvalues --    4.43087   4.43376   4.43433   4.43543   4.44000
 Alpha virt. eigenvalues --    4.44307   4.44831   4.46044   4.48604  96.17177
 Alpha virt. eigenvalues --   96.20292  96.24397  96.27081
          Condensed to atoms (all electrons):
               1          2          3          4
     1  Na  10.742899   0.209382   0.121593  -0.020410
     2  Na   0.209382  10.872457  -0.052499  -0.060810
     3  Na   0.121593  -0.052499  10.785172   0.129711
     4  Na  -0.020410  -0.060810   0.129711  10.945540
 Mulliken charges:
               1
     1  Na  -0.053463
     2  Na   0.031471
     3  Na   0.016023
     4  Na   0.005969
 Sum of Mulliken charges =  -0.00000
 Mulliken charges with hydrogens summed into heavy atoms:
               1
     1  Na  -0.053463
     2  Na   0.031471
     3  Na   0.016023
     4  Na   0.005969
 Electronic spatial extent (au):  <R**2>=           2408.5846
 Charge=              0.0000 electrons
 Dipole moment (field-independent basis, Debye):
    X=             -0.2490    Y=             -0.5054    Z=             -0.0419  Tot=              0.5650
 Quadrupole moment (field-independent basis, Debye-Ang):
   XX=            -41.5857   YY=            -29.2139   ZZ=            -46.1019
   XY=             -1.5097   XZ=              0.0331   YZ=              0.1931
 Traceless Quadrupole moment (field-independent basis, Debye-Ang):
   XX=             -2.6185   YY=              9.7532   ZZ=             -7.1348
   XY=             -1.5097   XZ=              0.0331   YZ=              0.1931
 Octapole moment (field-independent basis, Debye-Ang**2):
  XXX=              6.3698  YYY=             -1.1197  ZZZ=             -0.0002  XYY=             -1.2760
  XXY=            -28.2789  XXZ=             -1.4039  XZZ=              1.8925  YZZ=              1.1367
  YYZ=             -1.5793  XYZ=              6.0543
 Hexadecapole moment (field-independent basis, Debye-Ang**3):
 XXXX=          -2861.0949 YYYY=          -1264.3920 ZZZZ=           -219.7684 XXXY=            -32.1113
 XXXZ=            -14.7258 YYYX=            -45.3957 YYYZ=             -2.3079 ZZZX=              0.8547
 ZZZY=              1.4754 XXYY=           -527.0257 XXZZ=           -532.2206 YYZZ=           -264.6317
 XXYZ=              4.9393 YYXZ=              2.5536 ZZXY=             -3.0721
 N-N= 6.811286691571D+01 E-N=-1.694998056427D+03  KE= 6.472047016629D+02
 No NMR shielding tensors so no spin-rotation constants.
 Leave Link  601 at Wed Oct  4 14:15:26 2023, MaxMem=  1610612736 cpu:               8.1 elap:               4.6
 (Enter /home/sekinelabo/g16/l701.exe)
 ... and contract with generalized density number  0.
 Compute integral first derivatives.
 Leave Link  701 at Wed Oct  4 14:15:30 2023, MaxMem=  1610612736 cpu:               7.1 elap:               4.1
 (Enter /home/sekinelabo/g16/l702.exe)
 L702 exits ... SP integral derivatives will be done elsewhere.
 Leave Link  702 at Wed Oct  4 14:15:31 2023, MaxMem=  1610612736 cpu:               0.7 elap:               0.4
 (Enter /home/sekinelabo/g16/l703.exe)
 Integral derivatives from FoFJK, PRISM(SPDF).
 Compute integral first derivatives, UseDBF=F ICtDFT=           0.
 Calling FoFJK, ICntrl=      2127 FMM=F ISym2X=0 I1Cent= 0 IOpClX= 0 NMat=1 NMatS=1 NMatT=0.
 FoFJK:  IHMeth= 1 ICntrl=    2127 DoSepK=F KAlg= 0 I1Cent=           0 FoldK=F
 IRaf=         0 NMat=       1 IRICut=       1 DoRegI=T DoRafI=F ISym2E= 0 IDoP0=0 IntGTp=1.
 FoFCou: FMM=F IPFlag=           0 FMFlag=      100000 FMFlg1=         800
         NFxFlg=           0 DoJE=F BraDBF=F KetDBF=F FulRan=T
         wScrn=  0.000000 ICntrl=      2127 IOpCl=  0 I1Cent=           0 NGrid=           0
         NMat0=    1 NMatS0=      1 NMatT0=    0 NMatD0=    1 NMtDS0=    0 NMtDT0=    0
 Symmetry not used in FoFCou.
 Leave Link  703 at Wed Oct  4 14:15:38 2023, MaxMem=  1610612736 cpu:              12.2 elap:               6.9
 (Enter /home/sekinelabo/g16/l716.exe)
 Dipole        =-9.79606107D-02-1.98852080D-01-1.64955174D-02
 ***** Axes restored to original set *****
 -------------------------------------------------------------------
 Center     Atomic                   Forces (Hartrees/Bohr)
 Number     Number              X              Y              Z
 -------------------------------------------------------------------
      1       11          -0.005448126   -0.000025117   -0.000282369
      2       11           0.005415677    0.000098753    0.003491329
      3       11          -0.004276869   -0.001299978   -0.002766297
      4       11           0.004309318    0.001226342   -0.000442664
 -------------------------------------------------------------------
 Cartesian Forces:  Max     0.005448126 RMS     0.003151655
 Z-matrix is all fixed cartesians, so copy forces.
 Force constants in Cartesian coordinates: 
                1             2             3             4             5 
      1  0.000000D+00
      2  0.000000D+00  0.000000D+00
      3  0.000000D+00  0.000000D+00  0.973840D-02
      4  0.000000D+00  0.000000D+00  0.000000D+00  0.100000D+01
      5  0.000000D+00  0.000000D+00  0.000000D+00  0.000000D+00  0.100000D+01
      6  0.000000D+00  0.000000D+00  0.000000D+00  0.000000D+00  0.000000D+00
      7  0.000000D+00  0.000000D+00  0.000000D+00  0.000000D+00  0.000000D+00
      8  0.000000D+00  0.000000D+00  0.000000D+00  0.000000D+00  0.000000D+00
      9  0.000000D+00  0.000000D+00 -0.973840D-02  0.000000D+00  0.000000D+00
     10  0.000000D+00  0.000000D+00  0.000000D+00  0.000000D+00  0.000000D+00
     11  0.000000D+00  0.000000D+00  0.000000D+00  0.000000D+00  0.000000D+00
     12  0.000000D+00  0.000000D+00  0.000000D+00  0.000000D+00  0.000000D+00
                6             7             8             9            10 
      6  0.100000D+01
      7  0.000000D+00  0.000000D+00
      8  0.000000D+00  0.000000D+00  0.000000D+00
      9  0.000000D+00  0.000000D+00  0.000000D+00  0.973840D-02
     10  0.000000D+00  0.000000D+00  0.000000D+00  0.000000D+00  0.100000D+01
     11  0.000000D+00  0.000000D+00  0.000000D+00  0.000000D+00  0.000000D+00
     12  0.000000D+00  0.000000D+00  0.000000D+00  0.000000D+00  0.000000D+00
               11            12 
     11  0.100000D+01
     12  0.000000D+00  0.100000D+01
 Leave Link  716 at Wed Oct  4 14:15:38 2023, MaxMem=  1610612736 cpu:               0.7 elap:               0.5
 (Enter /home/sekinelabo/g16/l103.exe)

 GradGradGradGradGradGradGradGradGradGradGradGradGradGradGradGradGradGrad
 Berny optimization.
 Search for a local minimum.
 Step number   1 out of a maximum of    2
 All quantities printed in internal units (Hartrees-Bohrs-Radians)
 Second derivative matrix not updated -- first step.
 The second derivative matrix:
                          X1        Y1        Z1        X2        Y2
           X1          -0.00000
           Y1          -0.00000  -0.00000
           Z1           0.00000  -0.00000   0.00974
           X2           0.00000   0.00000   0.00000   1.00000
           Y2           0.00000   0.00000   0.00000   0.00000   1.00000
           Z2           0.00000   0.00000   0.00000   0.00000  -0.00000
           X3          -0.00000   0.00000  -0.00000   0.00000   0.00000
           Y3          -0.00000   0.00000  -0.00000   0.00000   0.00000
           Z3           0.00000   0.00000  -0.00974   0.00000   0.00000
           X4           0.00000   0.00000   0.00000   0.00000   0.00000
           Y4           0.00000   0.00000   0.00000   0.00000   0.00000
           Z4           0.00000   0.00000   0.00000   0.00000   0.00000
                          Z2        X3        Y3        Z3        X4
           Z2           1.00000
           X3           0.00000  -0.00000
           Y3           0.00000  -0.00000  -0.00000
           Z3           0.00000   0.00000  -0.00000   0.00974
           X4           0.00000   0.00000   0.00000   0.00000   1.00000
           Y4           0.00000   0.00000   0.00000   0.00000   0.00000
           Z4           0.00000   0.00000   0.00000   0.00000   0.00000
                          Y4        Z4
           Y4           1.00000
           Z4          -0.00000   1.00000
 ITU=  0
     Eigenvalues ---    0.01948   0.10137   0.20847   0.50000   0.70041
     Eigenvalues ---    1.00000
 Angle between quadratic step and forces=  67.55 degrees.
 Linear search not attempted -- first point.
 B after Tr=    -0.000000   -0.000000    0.000000
         Rot=    1.000000    0.000000    0.000000    0.000000 Ang=   0.00 deg.
 Variable       Old X    -DE/DX   Delta X   Delta X   Delta X     New X
                                 (Linear)    (Quad)   (Total)
    X1        0.00000  -0.00545   0.00000  -0.01342  -0.01342  -0.01342
    Y1        0.00000  -0.00003   0.00000   0.00179   0.00179   0.00179
    Z1       -0.00000  -0.00028   0.00000   0.06169   0.06169   0.06169
    X2       -6.33069   0.00542   0.00000   0.01160   0.01160  -6.31909
    Y2        0.00000   0.00010   0.00000  -0.00064  -0.00064  -0.00064
    Z2       -4.84719   0.00349   0.00000   0.00405   0.00405  -4.84314
    X3        0.00000  -0.00428   0.00000  -0.00646  -0.00646  -0.00646
    Y3        0.00000  -0.00130   0.00000  -0.00405  -0.00405  -0.00405
    Z3        7.69384  -0.00277   0.00000  -0.06584  -0.06584   7.62800
    X4       -9.61012   0.00431   0.00000   0.00828   0.00828  -9.60184
    Y4       -2.87950   0.00123   0.00000   0.00290   0.00290  -2.87660
    Z4        9.58589  -0.00044   0.00000   0.00010   0.00010   9.58599
         Item               Value     Threshold  Converged?
 Maximum Force            0.005448     0.000450     NO 
 RMS     Force            0.003152     0.000300     NO 
 Maximum Displacement     0.065840     0.001800     NO 
 RMS     Displacement     0.026787     0.001200     NO 
 Predicted change in Energy=-1.933988D-04
 GradGradGradGradGradGradGradGradGradGradGradGradGradGradGradGradGradGrad

 Leave Link  103 at Wed Oct  4 14:15:40 2023, MaxMem=  1610612736 cpu:               3.5 elap:               1.9
 (Enter /home/sekinelabo/g16/l9999.exe)
 1\1\GINC-SEKINELABO-XA7R-R37\Force\RB3LYP\6-311+G(d)\Na4\SEKINELABO\04
 -Oct-2023\0\\#p B3LYP/6-311+g(d) force\\\0,1\Na,0.,0.,0.\Na,-3.3500568
 372,0.,-2.5650214298\Na,0.,0.,4.071403639\Na,-5.0854573098,-1.52376471
 22,5.0726360133\\Version=ES64L-G16RevB.01\State=1-A\HF=-649.1649983\RM
 SD=3.853e-09\RMSF=3.152e-03\Dipole=-0.2130259,-0.0353202,0.0527538\Qua
 drupole=5.9943982,-4.9327876,-1.0616106,1.9381067,3.0106426,0.1387214\
 PG=C01 [X(Na4)]\\@


 WE HAVE LEARNED THAT NOTHING IS SIMPLE AND
 RATIONAL EXCEPT WHAT WE OURSELVES HAVE INVENTED;
 THAT GOD THINKS IN TERMS NEITHER OF EUCLID OR RIEMANN; THAT SCIENCE HAS "EXPLAINED" NOTHING;
 THAT THE MORE WE KNOW THE MORE FANTASTIC THE WORLD BECOMES
 AND THE PROFOUNDER THE SURROUNDING DARKNESS.
   --  ALDOUS HUXLEY
 Job cpu time:       0 days  0 hours  4 minutes 19.3 seconds.
 Elapsed time:       0 days  0 hours  2 minutes 25.5 seconds.
 File lengths (MBytes):  RWF=     10 Int=      0 D2E=      0 Chk=      2 Scr=      1
 Normal termination of Gaussian 16 at Wed Oct  4 14:15:41 2023.
 Initial command:
 /home/sekinelabo/g16/l1.exe "/home/sekinelabo/g16temp/Gau-8235.inp" -scrdir="/home/sekinelabo/g16temp/"
 Entering Link 1 = /home/sekinelabo/g16/l1.exe PID=     12380.
  
 Copyright (c) 1988-2017, Gaussian, Inc.  All Rights Reserved.
  
 This is part of the Gaussian(R) 16 program.  It is based on
 the Gaussian(R) 09 system (copyright 2009, Gaussian, Inc.),
 the Gaussian(R) 03 system (copyright 2003, Gaussian, Inc.),
 the Gaussian(R) 98 system (copyright 1998, Gaussian, Inc.),
 the Gaussian(R) 94 system (copyright 1995, Gaussian, Inc.),
 the Gaussian 92(TM) system (copyright 1992, Gaussian, Inc.),
 the Gaussian 90(TM) system (copyright 1990, Gaussian, Inc.),
 the Gaussian 88(TM) system (copyright 1988, Gaussian, Inc.),
 the Gaussian 86(TM) system (copyright 1986, Carnegie Mellon
 University), and the Gaussian 82(TM) system (copyright 1983,
 Carnegie Mellon University). Gaussian is a federally registered
 trademark of Gaussian, Inc.
  
 This software contains proprietary and confidential information,
 including trade secrets, belonging to Gaussian, Inc.
  
 This software is provided under written license and may be
 used, copied, transmitted, or stored only in accord with that
 written license.
  
 The following legend is applicable only to US Government
 contracts under FAR:
  
                    RESTRICTED RIGHTS LEGEND
  
 Use, reproduction and disclosure by the US Government is
 subject to restrictions as set forth in subparagraphs (a)
 and (c) of the Commercial Computer Software - Restricted
 Rights clause in FAR 52.227-19.
  
 Gaussian, Inc.
 340 Quinnipiac St., Bldg. 40, Wallingford CT 06492
  
  
 ---------------------------------------------------------------
 Warning -- This program may not be used in any manner that
 competes with the business of Gaussian, Inc. or will provide
 assistance to any competitor of Gaussian, Inc.  The licensee
 of this program is prohibited from giving any competitor of
 Gaussian, Inc. access to this program.  By using this program,
 the user acknowledges that Gaussian, Inc. is engaged in the
 business of creating and licensing software in the field of
 computational chemistry and represents and warrants to the
 licensee that it is not a competitor of Gaussian, Inc. and that
 it will not use this program in any manner prohibited above.
 ---------------------------------------------------------------
  

 Cite this work as:
 Gaussian 16, Revision B.01,
 M. J. Frisch, G. W. Trucks, H. B. Schlegel, G. E. Scuseria, 
 M. A. Robb, J. R. Cheeseman, G. Scalmani, V. Barone, 
 G. A. Petersson, H. Nakatsuji, X. Li, M. Caricato, A. V. Marenich, 
 J. Bloino, B. G. Janesko, R. Gomperts, B. Mennucci, H. P. Hratchian, 
 J. V. Ortiz, A. F. Izmaylov, J. L. Sonnenberg, D. Williams-Young, 
 F. Ding, F. Lipparini, F. Egidi, J. Goings, B. Peng, A. Petrone, 
 T. Henderson, D. Ranasinghe, V. G. Zakrzewski, J. Gao, N. Rega, 
 G. Zheng, W. Liang, M. Hada, M. Ehara, K. Toyota, R. Fukuda, 
 J. Hasegawa, M. Ishida, T. Nakajima, Y. Honda, O. Kitao, H. Nakai, 
 T. Vreven, K. Throssell, J. A. Montgomery, Jr., J. E. Peralta, 
 F. Ogliaro, M. J. Bearpark, J. J. Heyd, E. N. Brothers, K. N. Kudin, 
 V. N. Staroverov, T. A. Keith, R. Kobayashi, J. Normand, 
 K. Raghavachari, A. P. Rendell, J. C. Burant, S. S. Iyengar, 
 J. Tomasi, M. Cossi, J. M. Millam, M. Klene, C. Adamo, R. Cammi, 
 J. W. Ochterski, R. L. Martin, K. Morokuma, O. Farkas, 
 J. B. Foresman, and D. J. Fox, Gaussian, Inc., Wallingford CT, 2016.
 
 ******************************************
 Gaussian 16:  ES64L-G16RevB.01 20-Dec-2017
                 4-Oct-2023 
 ******************************************
 %NProcShared=16
 Will use up to   16 processors via shared memory.
 %mem=12GB
 %Chk=checkpoint.chk
 -------------------------
 #p B3LYP/6-311+g(d) force
 -------------------------
 1/10=7,30=1,38=1/1,3;
 2/12=2,17=6,18=5,40=1/2;
 3/5=4,6=6,7=11,11=2,25=1,30=1,71=1,74=-5/1,2,3;
 4//1;
 5/5=2,38=5/2;
 6/7=2,8=2,9=2,10=2,28=1/1;
 7/29=1/1,2,3,16;
 1/10=7,30=1/3;
 99//99;
 Leave Link    1 at Wed Oct  4 14:15:41 2023, MaxMem=  1610612736 cpu:               0.4 elap:               0.3
 (Enter /home/sekinelabo/g16/l101.exe)


 Symbolic Z-matrix:
 Charge =  0 Multiplicity = 1
 Na                    0.        0.        0. 
 Na                   -1.31359   0.       -2.15807 
 Na                    0.        0.        5.39607 
 Na                   -3.42935  -3.99382   3.59497 
 
 ITRead=  0  0  0  0
 MicOpt= -1 -1 -1 -1
 NAtoms=      4 NQM=        4 NQMF=       0 NMMI=      0 NMMIF=      0
                NMic=       0 NMicF=      0.
                    Isotopes and Nuclear Properties:
 (Nuclear quadrupole moments (NQMom) in fm**2, nuclear magnetic moments (NMagM)
  in nuclear magnetons)

  Atom         1           2           3           4
 IAtWgt=          23          23          23          23
 AtmWgt=  22.9897697  22.9897697  22.9897697  22.9897697
 NucSpn=           3           3           3           3
 AtZEff=  -0.0000000  -0.0000000  -0.0000000  -0.0000000
 NQMom=   10.4000000  10.4000000  10.4000000  10.4000000
 NMagM=    2.2175200   2.2175200   2.2175200   2.2175200
 AtZNuc=  11.0000000  11.0000000  11.0000000  11.0000000
 Leave Link  101 at Wed Oct  4 14:15:42 2023, MaxMem=  1610612736 cpu:               1.9 elap:               1.0
 (Enter /home/sekinelabo/g16/l103.exe)

 GradGradGradGradGradGradGradGradGradGradGradGradGradGradGradGradGradGrad
 Berny optimization.
 Initialization pass.
 Trust Radius=3.00D-01 FncErr=1.00D-07 GrdErr=1.00D-07 EigMax=2.50D+02 EigMin=1.00D-04
 Number of steps in this run=      2 maximum allowed number of steps=      2.
 GradGradGradGradGradGradGradGradGradGradGradGradGradGradGradGradGradGrad

 Leave Link  103 at Wed Oct  4 14:15:43 2023, MaxMem=  1610612736 cpu:               0.5 elap:               0.3
 (Enter /home/sekinelabo/g16/l202.exe)
                          Input orientation:                          
 ---------------------------------------------------------------------
 Center     Atomic      Atomic             Coordinates (Angstroms)
 Number     Number       Type             X           Y           Z
 ---------------------------------------------------------------------
      1         11           0        0.000000    0.000000    0.000000
      2         11           0       -1.313593    0.000000   -2.158067
      3         11           0        0.000000    0.000000    5.396069
      4         11           0       -3.429350   -3.993818    3.594973
[...]
 NSaved= 9 IEnMin= 9 EnMin= -649.186441234716     IErMin= 9 ErrMin= 1.21D-05
 ErrMax= 1.21D-05  0.00D+00 EMaxC= 1.00D-01 BMatC= 1.55D-08 BMatP= 5.05D-08
 IDIUse=1 WtCom= 1.00D+00 WtEn= 0.00D+00
 Coeff-Com:  0.307D-03-0.363D-03 0.110D-03 0.878D-04-0.192D-01-0.191D-01
 Coeff-Com: -0.393D-01 0.346D+00 0.731D+00
 Coeff:      0.307D-03-0.363D-03 0.110D-03 0.878D-04-0.192D-01-0.191D-01
 Coeff:     -0.393D-01 0.346D+00 0.731D+00
 Gap=     0.027 Goal=   None    Shift=    0.000
 RMSDP=1.32D-05 MaxDP=2.77D-04 DE=-4.21D-07 OVMax= 9.77D-04

 Cycle  10  Pass 1  IDiag  1:
 E= -649.186441407743     Delta-E=       -0.000000173027 Rises=F Damp=F
 DIIS: error= 4.65D-06 at cycle  10 NSaved=  10.
 NSaved=10 IEnMin=10 EnMin= -649.186441407743     IErMin=10 ErrMin= 4.65D-06
 ErrMax= 4.65D-06  0.00D+00 EMaxC= 1.00D-01 BMatC= 1.83D-09 BMatP= 1.55D-08
 IDIUse=1 WtCom= 1.00D+00 WtEn= 0.00D+00
 Coeff-Com:  0.142D-03-0.160D-03 0.388D-03-0.361D-05 0.242D-02-0.938D-03
 Coeff-Com: -0.946D-01-0.390D-01 0.167D+00 0.965D+00
 Coeff:      0.142D-03-0.160D-03 0.388D-03-0.361D-05 0.242D-02-0.938D-03
 Coeff:     -0.946D-01-0.390D-01 0.167D+00 0.965D+00
 Gap=     0.027 Goal=   None    Shift=    0.000
 RMSDP=1.08D-05 MaxDP=2.16D-04 DE=-1.73D-07 OVMax= 9.48D-04

 Cycle  11  Pass 1  IDiag  1:
 E= -649.186441467703     Delta-E=       -0.000000059961 Rises=F Damp=F
 DIIS: error= 2.69D-06 at cycle  11 NSaved=  11.
 NSaved=11 IEnMin=11 EnMin= -649.186441467703     IErMin=11 ErrMin= 2.69D-06
 ErrMax= 2.69D-06  0.00D+00 EMaxC= 1.00D-01 BMatC= 8.28D-10 BMatP= 1.83D-09
 IDIUse=1 WtCom= 1.00D+00 WtEn= 0.00D+00
 Coeff-Com: -0.814D-04 0.110D-03 0.877D-05-0.476D-03 0.641D-02 0.523D-02
 Coeff-Com:  0.258D-01-0.702D-01-0.294D+00 0.149D-01 0.131D+01
 Coeff:     -0.814D-04 0.110D-03 0.877D-05-0.476D-03 0.641D-02 0.523D-02
 Coeff:      0.258D-01-0.702D-01-0.294D+00 0.149D-01 0.131D+01
 Gap=     0.027 Goal=   None    Shift=    0.000
 RMSDP=7.93D-06 MaxDP=1.99D-04 DE=-6.00D-08 OVMax= 6.63D-04

 Cycle  12  Pass 1  IDiag  1:
 E= -649.186441489171     Delta-E=       -0.000000021468 Rises=F Damp=F
 DIIS: error= 5.72D-07 at cycle  12 NSaved=  12.
 NSaved=12 IEnMin=12 EnMin= -649.186441489171     IErMin=12 ErrMin= 5.72D-07
 ErrMax= 5.72D-07  0.00D+00 EMaxC= 1.00D-01 BMatC= 3.21D-11 BMatP= 8.28D-10
 IDIUse=1 WtCom= 1.00D+00 WtEn= 0.00D+00
 Coeff-Com:  0.197D-04-0.257D-04-0.215D-04 0.148D-04 0.152D-03 0.393D-03
 Coeff-Com:  0.252D-02-0.495D-02-0.286D-01-0.537D-01 0.364D-01 0.105D+01
 Coeff:      0.197D-04-0.257D-04-0.215D-04 0.148D-04 0.152D-03 0.393D-03
 Coeff:      0.252D-02-0.495D-02-0.286D-01-0.537D-01 0.364D-01 0.105D+01
 Gap=     0.027 Goal=   None    Shift=    0.000
 RMSDP=2.06D-06 MaxDP=4.46D-05 DE=-2.15D-08 OVMax= 1.71D-04

 Cycle  13  Pass 1  IDiag  1:
 E= -649.186441490279     Delta-E=       -0.000000001108 Rises=F Damp=F
 DIIS: error= 3.06D-07 at cycle  13 NSaved=  13.
 NSaved=13 IEnMin=13 EnMin= -649.186441490279     IErMin=13 ErrMin= 3.06D-07
 ErrMax= 3.06D-07  0.00D+00 EMaxC= 1.00D-01 BMatC= 1.31D-11 BMatP= 3.21D-11
 IDIUse=1 WtCom= 1.00D+00 WtEn= 0.00D+00
 Coeff-Com:  0.135D-04-0.177D-04-0.101D-04 0.515D-04-0.566D-03-0.280D-03
 Coeff-Com: -0.408D-02 0.792D-02 0.308D-01-0.475D-04-0.220D+00 0.333D+00
 Coeff-Com:  0.853D+00
 Coeff:      0.135D-04-0.177D-04-0.101D-04 0.515D-04-0.566D-03-0.280D-03
 Coeff:     -0.408D-02 0.792D-02 0.308D-01-0.475D-04-0.220D+00 0.333D+00
 Coeff:      0.853D+00
 Gap=     0.027 Goal=   None    Shift=    0.000
 RMSDP=5.92D-07 MaxDP=1.49D-05 DE=-1.11D-09 OVMax= 4.51D-05

 Cycle  14  Pass 1  IDiag  1:
 E= -649.186441490425     Delta-E=       -0.000000000146 Rises=F Damp=F
 DIIS: error= 5.02D-08 at cycle  14 NSaved=  14.
 NSaved=14 IEnMin=14 EnMin= -649.186441490425     IErMin=14 ErrMin= 5.02D-08
 ErrMax= 5.02D-08  0.00D+00 EMaxC= 1.00D-01 BMatC= 3.32D-13 BMatP= 1.31D-11
 IDIUse=1 WtCom= 1.00D+00 WtEn= 0.00D+00
 Coeff-Com: -0.150D-05 0.238D-05-0.537D-06 0.672D-06-0.651D-04-0.160D-04
 Coeff-Com: -0.644D-03 0.163D-02 0.635D-02 0.434D-02-0.344D-01-0.723D-02
 Coeff-Com:  0.112D+00 0.918D+00
 Coeff:     -0.150D-05 0.238D-05-0.537D-06 0.672D-06-0.651D-04-0.160D-04
 Coeff:     -0.644D-03 0.163D-02 0.635D-02 0.434D-02-0.344D-01-0.723D-02
 Coeff:      0.112D+00 0.918D+00
 Gap=     0.027 Goal=   None    Shift=    0.000
 RMSDP=9.86D-08 MaxDP=3.16D-06 DE=-1.46D-10 OVMax= 3.46D-06

 Cycle  15  Pass 1  IDiag  1:
 E= -649.186441490431     Delta-E=       -0.000000000006 Rises=F Damp=F
 DIIS: error= 2.07D-08 at cycle  15 NSaved=  15.
 NSaved=15 IEnMin=15 EnMin= -649.186441490431     IErMin=15 ErrMin= 2.07D-08
 ErrMax= 2.07D-08  0.00D+00 EMaxC= 1.00D-01 BMatC= 2.11D-14 BMatP= 3.32D-13
 IDIUse=1 WtCom= 1.00D+00 WtEn= 0.00D+00
 Coeff-Com: -0.418D-06 0.621D-06 0.548D-06-0.341D-05 0.249D-04-0.177D-05
 Coeff-Com:  0.261D-04-0.174D-03-0.214D-03 0.138D-02 0.385D-02-0.183D-01
 Coeff-Com: -0.245D-01 0.156D+00 0.882D+00
 Coeff:     -0.418D-06 0.621D-06 0.548D-06-0.341D-05 0.249D-04-0.177D-05
 Coeff:      0.261D-04-0.174D-03-0.214D-03 0.138D-02 0.385D-02-0.183D-01
 Coeff:     -0.245D-01 0.156D+00 0.882D+00
 Gap=     0.027 Goal=   None    Shift=    0.000
 RMSDP=2.65D-08 MaxDP=8.54D-07 DE=-6.25D-12 OVMax= 6.86D-07

 Cycle  16  Pass 1  IDiag  1:
 E= -649.186441490433     Delta-E=       -0.000000000002 Rises=F Damp=F
 DIIS: error= 4.42D-09 at cycle  16 NSaved=  16.
 NSaved=16 IEnMin=16 EnMin= -649.186441490433     IErMin=16 ErrMin= 4.42D-09
 ErrMax= 4.42D-09  0.00D+00 EMaxC= 1.00D-01 BMatC= 1.92D-15 BMatP= 2.11D-14
 IDIUse=1 WtCom= 1.00D+00 WtEn= 0.00D+00
 Coeff-Com:  0.954D-07-0.137D-06 0.320D-06-0.392D-06 0.461D-05-0.378D-05
 Coeff-Com:  0.282D-04-0.792D-04-0.173D-03 0.895D-04 0.199D-02-0.393D-02
 Coeff-Com: -0.127D-01-0.230D-01 0.251D+00 0.786D+00
 Coeff:      0.954D-07-0.137D-06 0.320D-06-0.392D-06 0.461D-05-0.378D-05
 Coeff:      0.282D-04-0.792D-04-0.173D-03 0.895D-04 0.199D-02-0.393D-02
 Coeff:     -0.127D-01-0.230D-01 0.251D+00 0.786D+00
 Gap=     0.027 Goal=   None    Shift=    0.000
 RMSDP=5.64D-09 MaxDP=1.50D-07 DE=-1.59D-12 OVMax= 2.39D-07

 SCF Done:  E(RB3LYP) =  -649.186441490     A.U. after   16 cycles
            NFock= 16  Conv=0.56D-08     -V/T= 2.0029
 KE= 6.472903366877D+02 PE=-1.746302838054D+03 EE= 3.562472097079D+02
 Leave Link  502 at Wed Oct  4 16:59:23 2023, MaxMem=  1610612736 cpu:             132.2 elap:              24.4
 (Enter /home/sekinelabo/g16/l601.exe)
 Copying SCF densities to generalized density rwf, IOpCl= 0 IROHF=0.

 **********************************************************************

            Population analysis using the SCF Density.

 **********************************************************************

 Orbital symmetries:
       Occupied  (A) (A) (A) (A) (A) (A) (A) (A) (A) (A) (A) (A)
                 (A) (A) (A) (A) (A) (A) (A) (A) (A) (A)
       Virtual   (A) (A) (A) (A) (A) (A) (A) (A) (A) (A) (A) (A)
                 (A) (A) (A) (A) (A) (A) (A) (A) (A) (A) (A) (A)
                 (A) (A) (A) (A) (A) (A) (A) (A) (A) (A) (A) (A)
                 (A) (A) (A) (A) (A) (A) (A) (A) (A) (A) (A) (A)
                 (A) (A) (A) (A) (A) (A) (A) (A) (A) (A) (A) (A)
                 (A) (A) (A) (A) (A) (A) (A) (A) (A) (A) (A) (A)
                 (A) (A) (A) (A) (A) (A) (A) (A) (A) (A) (A) (A)
                 (A) (A) (A) (A) (A) (A) (A) (A) (A) (A) (A) (A)
                 (A) (A)
 The electronic state is 1-A.
 Alpha  occ. eigenvalues --  -38.46834 -38.45140 -38.44985 -38.42705  -2.22604
 Alpha  occ. eigenvalues --   -2.20924  -2.20790  -2.18417  -1.16292  -1.16249
 Alpha  occ. eigenvalues --   -1.16224  -1.14643  -1.14593  -1.14530  -1.14464
 Alpha  occ. eigenvalues --   -1.14448  -1.14409  -1.12101  -1.12098  -1.12046
 Alpha  occ. eigenvalues --   -0.15823  -0.09972
 Alpha virt. eigenvalues --   -0.07278  -0.06297  -0.03267  -0.02238  -0.01709
 Alpha virt. eigenvalues --   -0.01502  -0.00710  -0.00405  -0.00173   0.00106
 Alpha virt. eigenvalues --    0.00409   0.00718   0.01127   0.01310   0.01440
 Alpha virt. eigenvalues --    0.01618   0.01661   0.01794   0.01926   0.01948
 Alpha virt. eigenvalues --    0.02133   0.02368   0.02528   0.02824   0.03065
 Alpha virt. eigenvalues --    0.03322   0.03789   0.04017   0.04061   0.04342
 Alpha virt. eigenvalues --    0.05989   0.06465   0.07161   0.07224   0.07992
 Alpha virt. eigenvalues --    0.08500   0.09114   0.09430   0.09880   0.10761
 Alpha virt. eigenvalues --    0.11245   0.11294   0.12339   0.13204   0.13569
 Alpha virt. eigenvalues --    0.13764   0.26159   0.27632   0.30165   0.30448
 Alpha virt. eigenvalues --    0.30748   0.31039   0.31173   0.36740   0.36889
 Alpha virt. eigenvalues --    0.37004   0.37171   0.38108   0.39714   0.40249
 Alpha virt. eigenvalues --    0.41320   0.42338   0.42594   0.42877   0.42995
 Alpha virt. eigenvalues --    0.43842   0.44582   0.45435   0.45481   0.46294
 Alpha virt. eigenvalues --    0.46963   0.47760   0.49334   0.50753   0.51296
 Alpha virt. eigenvalues --    0.57863   0.59923   0.60443   2.01967   2.05739
 Alpha virt. eigenvalues --    2.12845   2.14448   4.40965   4.41877   4.42214
 Alpha virt. eigenvalues --    4.42872   4.44043   4.44956   4.46497   4.46765
 Alpha virt. eigenvalues --    4.47267   4.49515   4.52176   4.54007  96.21218
 Alpha virt. eigenvalues --   96.25425  96.34405  96.36214
          Condensed to atoms (all electrons):
               1          2          3          4
     1  Na  11.099101   0.397062  -0.125216  -0.268413
     2  Na   0.397062  11.114080   0.027240  -0.253124
     3  Na  -0.125216   0.027240  10.500797   0.370373
     4  Na  -0.268413  -0.253124   0.370373  10.990177
 Mulliken charges:
               1
     1  Na  -0.102535
     2  Na  -0.285258
     3  Na   0.226806
     4  Na   0.160986
 Sum of Mulliken charges =  -0.00000
 Mulliken charges with hydrogens summed into heavy atoms:
               1
     1  Na  -0.102535
     2  Na  -0.285258
     3  Na   0.226806
     4  Na   0.160986
 Electronic spatial extent (au):  <R**2>=           1267.2595
 Charge=             -0.0000 electrons
 Dipole moment (field-independent basis, Debye):
    X=              3.3078    Y=              0.7961    Z=              0.1448  Tot=              3.4054
 Quadrupole moment (field-independent basis, Debye-Ang):
   XX=            -54.9194   YY=            -30.2407   ZZ=            -39.3815
   XY=             -2.4127   XZ=              2.6689   YZ=              1.5035
 Traceless Quadrupole moment (field-independent basis, Debye-Ang):
   XX=            -13.4055   YY=             11.2731   ZZ=              2.1324
   XY=             -2.4127   XZ=              2.6689   YZ=              1.5035
 Octapole moment (field-independent basis, Debye-Ang**2):
  XXX=             22.9364  YYY=             24.2440  ZZZ=              5.2659  XYY=             30.2229
  XXY=             -3.4265  XXZ=             -8.4673  XZZ=             18.6861  YZZ=             -6.1903
  YYZ=              6.1999  XYZ=              6.1256
 Hexadecapole moment (field-independent basis, Debye-Ang**3):
 XXXX=          -1777.0167 YYYY=           -387.5077 ZZZZ=           -383.9644 XXXY=            -38.7308
 XXXZ=             32.8854 YYYX=              5.6925 YYYZ=             15.3348 ZZZX=             15.9058
 ZZZY=              4.6470 XXYY=           -361.5484 XXZZ=           -359.8445 YYZZ=           -129.7392
 XXYZ=             21.2235 YYXZ=              8.1253 ZZXY=            -12.5025
 N-N= 9.357885016790D+01 E-N=-1.746302838917D+03  KE= 6.472903366877D+02
 No NMR shielding tensors so no spin-rotation constants.
 Leave Link  601 at Wed Oct  4 16:59:24 2023, MaxMem=  1610612736 cpu:               5.9 elap:               0.8
 (Enter /home/sekinelabo/g16/l701.exe)
 ... and contract with generalized density number  0.
 Compute integral first derivatives.
 Leave Link  701 at Wed Oct  4 16:59:25 2023, MaxMem=  1610612736 cpu:               5.7 elap:               0.8
 (Enter /home/sekinelabo/g16/l702.exe)
 L702 exits ... SP integral derivatives will be done elsewhere.
 Leave Link  702 at Wed Oct  4 16:59:25 2023, MaxMem=  1610612736 cpu:               0.6 elap:               0.1
 (Enter /home/sekinelabo/g16/l703.exe)
 Integral derivatives from FoFJK, PRISM(SPDF).
 Compute integral first derivatives, UseDBF=F ICtDFT=           0.
 Calling FoFJK, ICntrl=      2127 FMM=F ISym2X=0 I1Cent= 0 IOpClX= 0 NMat=1 NMatS=1 NMatT=0.
 FoFJK:  IHMeth= 1 ICntrl=    2127 DoSepK=F KAlg= 0 I1Cent=           0 FoldK=F
 IRaf=         0 NMat=       1 IRICut=       1 DoRegI=T DoRafI=F ISym2E= 0 IDoP0=0 IntGTp=1.
 FoFCou: FMM=F IPFlag=           0 FMFlag=      100000 FMFlg1=         800
         NFxFlg=           0 DoJE=F BraDBF=F KetDBF=F FulRan=T
         wScrn=  0.000000 ICntrl=      2127 IOpCl=  0 I1Cent=           0 NGrid=           0
         NMat0=    1 NMatS0=      1 NMatT0=    0 NMatD0=    1 NMtDS0=    0 NMtDT0=    0
 Symmetry not used in FoFCou.
 Leave Link  703 at Wed Oct  4 16:59:26 2023, MaxMem=  1610612736 cpu:               9.8 elap:               1.2
 (Enter /home/sekinelabo/g16/l716.exe)
 Dipole        = 1.30140616D+00 3.13193690D-01 5.69785100D-02
 ***** Axes restored to original set *****
 -------------------------------------------------------------------
 Center     Atomic                   Forces (Hartrees/Bohr)
 Number     Number              X              Y              Z
 -------------------------------------------------------------------
      1       11          -0.004223379    0.001124707    0.004357693
      2       11           0.004801750    0.002271073   -0.006943642
      3       11          -0.002897252   -0.003384695   -0.001235634
      4       11           0.002318881   -0.000011085    0.003821583
 -------------------------------------------------------------------
 Cartesian Forces:  Max     0.006943642 RMS     0.003604152
 Z-matrix is all fixed cartesians, so copy forces.
 Force constants in Cartesian coordinates: 
                1             2             3             4             5 
      1  0.100000D+01
      2  0.000000D+00  0.100000D+01
      3  0.000000D+00  0.000000D+00  0.100000D+01
      4  0.000000D+00  0.000000D+00  0.000000D+00  0.209762D-01
      5  0.000000D+00  0.000000D+00  0.000000D+00 -0.321898D-02  0.224911D-01
      6  0.000000D+00  0.000000D+00  0.000000D+00  0.160086D-01 -0.108037D-01
      7  0.000000D+00  0.000000D+00  0.000000D+00 -0.161279D-01 -0.681495D-02
      8  0.000000D+00  0.000000D+00  0.000000D+00  0.547699D-02 -0.355776D-02
      9  0.000000D+00  0.000000D+00  0.000000D+00 -0.134477D-01 -0.345418D-02
     10  0.000000D+00  0.000000D+00  0.000000D+00 -0.484823D-02  0.100339D-01
     11  0.000000D+00  0.000000D+00  0.000000D+00 -0.225801D-02 -0.189333D-01
     12  0.000000D+00  0.000000D+00  0.000000D+00 -0.256094D-02  0.142579D-01
                6             7             8             9            10 
      6  0.153849D-01
      7 -0.878342D-02  0.262843D-01
      8  0.521104D-02  0.114383D-01  0.228791D-01
      9 -0.816926D-02  0.141888D-01 -0.618247D-03  0.102370D-01
     10 -0.722523D-02 -0.101563D-01 -0.169153D-01 -0.741068D-03  0.150046D-01
     11  0.559264D-02 -0.462335D-02 -0.193214D-01  0.407243D-02  0.688136D-02
     12 -0.721561D-02 -0.540535D-02 -0.459279D-02 -0.206774D-02  0.796630D-02
               11            12 
     11  0.382547D-01
     12 -0.966507D-02  0.928335D-02
 Leave Link  716 at Wed Oct  4 16:59:26 2023, MaxMem=  1610612736 cpu:               0.5 elap:               0.1
 (Enter /home/sekinelabo/g16/l103.exe)

 GradGradGradGradGradGradGradGradGradGradGradGradGradGradGradGradGradGrad
 Berny optimization.
 Search for a local minimum.
 Step number   1 out of a maximum of    2
 All quantities printed in internal units (Hartrees-Bohrs-Radians)
 Second derivative matrix not updated -- first step.
 The second derivative matrix:
                          X1        Y1        Z1        X2        Y2
           X1           1.00000
           Y1          -0.00000   1.00000
           Z1           0.00000   0.00000   1.00000
           X2           0.00000   0.00000   0.00000   0.02098
           Y2           0.00000   0.00000   0.00000  -0.00322   0.02249
           Z2           0.00000   0.00000   0.00000   0.01601  -0.01080
           X3           0.00000   0.00000   0.00000  -0.01613  -0.00681
           Y3           0.00000   0.00000   0.00000   0.00548  -0.00356
           Z3           0.00000   0.00000   0.00000  -0.01345  -0.00345
           X4           0.00000   0.00000   0.00000  -0.00485   0.01003
           Y4           0.00000   0.00000   0.00000  -0.00226  -0.01893
           Z4           0.00000   0.00000   0.00000  -0.00256   0.01426
                          Z2        X3        Y3        Z3        X4
           Z2           0.01538
           X3          -0.00878   0.02628
           Y3           0.00521   0.01144   0.02288
           Z3          -0.00817   0.01419  -0.00062   0.01024
           X4          -0.00723  -0.01016  -0.01692  -0.00074   0.01500
           Y4           0.00559  -0.00462  -0.01932   0.00407   0.00688
           Z4          -0.00722  -0.00541  -0.00459  -0.00207   0.00797
                          Y4        Z4
           Y4           0.03825
           Z4          -0.00967   0.00928
 ITU=  0
     Eigenvalues ---    0.05710   0.05965   0.06405   0.17704   0.20369
     Eigenvalues ---    0.75000
 Angle between quadratic step and forces=  36.18 degrees.
 Linear search not attempted -- first point.
 B after Tr=     0.000000   -0.000000    0.000000
         Rot=    1.000000    0.000000    0.000000   -0.000000 Ang=   0.00 deg.
 Variable       Old X    -DE/DX   Delta X   Delta X   Delta X     New X
                                 (Linear)    (Quad)   (Total)
    X1       -0.00000  -0.00422   0.00000  -0.01566  -0.01566  -0.01566
    Y1       -0.00000   0.00112   0.00000   0.01094   0.01094   0.01094
    Z1        0.00000   0.00436   0.00000   0.00426   0.00426   0.00426
    X2       -5.34380   0.00480   0.00000   0.02599   0.02599  -5.31782
    Y2        0.00000   0.00227   0.00000   0.05382   0.05382   0.05382
    Z2        6.35908  -0.00694   0.00000  -0.04602  -0.04602   6.31306
    X3        0.00000  -0.00290   0.00000  -0.05817  -0.05817  -0.05817
    Y3        0.00000  -0.00338   0.00000  -0.05415  -0.05415  -0.05415
    Z3       10.12620  -0.00124   0.00000  -0.01724  -0.01724  10.10897
    X4       -3.58322   0.00232   0.00000   0.04784   0.04784  -3.53538
    Y4       -5.21687  -0.00001   0.00000  -0.01061  -0.01061  -5.22748
    Z4        9.57979   0.00382   0.00000   0.05899   0.05899   9.63878
         Item               Value     Threshold  Converged?
 Maximum Force            0.006944     0.000450     NO 
 RMS     Force            0.003604     0.000300     NO 
 Maximum Displacement     0.058992     0.001800     NO 
 RMS     Displacement     0.039336     0.001200     NO 
 Predicted change in Energy=-6.866115D-04
 GradGradGradGradGradGradGradGradGradGradGradGradGradGradGradGradGradGrad

 Leave Link  103 at Wed Oct  4 16:59:26 2023, MaxMem=  1610612736 cpu:               2.4 elap:               0.3
 (Enter /home/sekinelabo/g16/l9999.exe)
 1\1\GINC-SEKINELABO-XA7R-R37\Force\RB3LYP\6-311+G(d)\Na4\SEKINELABO\04
 -Oct-2023\0\\#p B3LYP/6-311+g(d) force\\\0,1\Na,0.,0.,0.\Na,-2.8278192
 377,0.,3.3650814024\Na,0.,0.,5.3585564889\Na,-1.8961600423,-2.76064609
 79,5.0694075625\\Version=ES64L-G16RevB.01\State=1-A\HF=-649.1864415\RM
 SD=5.644e-09\RMSF=3.604e-03\Dipole=-0.0635757,-0.2202523,1.3200159\Qua
 drupole=5.8203084,2.0551569,-7.8754653,2.7684798,2.0734374,5.6944395\P
 G=C01 [X(Na4)]\\@


 The theorems and results in mathematical physics are
 not theorems and results about Nature, but about our
 description of it.
                   --Gerard 't Hooft
 Job cpu time:       0 days  0 hours  3 minutes 10.9 seconds.
 Elapsed time:       0 days  0 hours  0 minutes 34.1 seconds.
 File lengths (MBytes):  RWF=     10 Int=      0 D2E=      0 Chk=      2 Scr=      1
 Normal termination of Gaussian 16 at Wed Oct  4 16:59:27 2023.
