 Entering Gaussian System, Link 0=g16
 Initial command:
 /home/sekinelabo/g16/l1.exe "/home/sekinelabo/g16temp/Gau-8046.inp" -scrdir="/home/sekinelabo/g16temp/"
 Entering Link 1 = /home/sekinelabo/g16/l1.exe PID=      8048.
  
 Copyright (c) 1988-2017, Gaussian, Inc.  All Rights Reserved.
  
 This is part of the Gaussian(R) 16 program.  It is based on
 the Gaussian(R) 09 system (copyright 2009, Gaussian, Inc.),
 the Gaussian(R) 03 system (copyright 2003, Gaussian, Inc.),
 the Gaussian(R) 98 system (copyright 1998, Gaussian, Inc.),
 the Gaussian(R) 94 system (copyright 1995, Gaussian, Inc.),
 the Gaussian 92(TM) system (copyright 1992, Gaussian, Inc.),
 the Gaussian 90(TM) system (copyright 1990, Gaussian, Inc.),
 the Gaussian 88(TM) system (copyright 1988, Gaussian, Inc.),
 the Gaussian 86(TM) system (copyright 1986, Carnegie Mellon
 University), and the Gaussian 82(TM) system (copyright 1983,
 Carnegie Mellon University). Gaussian is a federally registered
 trademark of Gaussian, Inc.
  
 This software contains proprietary and confidential information,
 including trade secrets, belonging to Gaussian, Inc.
  
 This software is provided under written license and may be
 used, copied, transmitted, or stored only in accord with that
 written license.
  
 The following legend is applicable only to US Government
 contracts under FAR:
  
                    RESTRICTED RIGHTS LEGEND
  
 Use, reproduction and disclosure by the US Government is
 subject to restrictions as set forth in subparagraphs (a)
 and (c) of the Commercial Computer Software - Restricted
 Rights clause in FAR 52.227-19.
  
 Gaussian, Inc.
 340 Quinnipiac St., Bldg. 40, Wallingford CT 06492
  
  
 ---------------------------------------------------------------
 Warning -- This program may not be used in any manner that
 competes with the business of Gaussian, Inc. or will provide
 assistance to any competitor of Gaussian, Inc.  The licensee
 of this program is prohibited from giving any competitor of
 Gaussian, Inc. access to this program.  By using this program,
 the user acknowledges that Gaussian, Inc. is engaged in the
 business of creating and licensing software in the field of
 computational chemistry and represents and warrants to the
 licensee that it is not a competitor of Gaussian, Inc. and that
 it will not use this program in any manner prohibited above.
 ---------------------------------------------------------------
  

 Cite this work as:
 Gaussian 16, Revision B.01,
 M. J. Frisch, G. W. Trucks, H. B. Schlegel, G. E. Scuseria, 
 M. A. Robb, J. R. Cheeseman, G. Scalmani, V. Barone, 
 G. A. Petersson, H. Nakatsuji, X. Li, M. Caricato, A. V. Marenich, 
 J. Bloino, B. G. Janesko, R. Gomperts, B. Mennucci, H. P. Hratchian, 
 J. V. Ortiz, A. F. Izmaylov, J. L. Sonnenberg, D. Williams-Young, 
 F. Ding, F. Lipparini, F. Egidi, J. Goings, B. Peng, A. Petrone, 
 T. Henderson, D. Ranasinghe, V. G. Zakrzewski, J. Gao, N. Rega, 
 G. Zheng, W. Liang, M. Hada, M. Ehara, K. Toyota, R. Fukuda, 
 J. Hasegawa, M. Ishida, T. Nakajima, Y. Honda, O. Kitao, H. Nakai, 
 T. Vreven, K. Throssell, J. A. Montgomery, Jr., J. E. Peralta, 
 F. Ogliaro, M. J. Bearpark, J. J. Heyd, E. N. Brothers, K. N. Kudin, 
 V. N. Staroverov, T. A. Keith, R. Kobayashi, J. Normand, 
 K. Raghavachari, A. P. Rendell, J. C. Burant, S. S. Iyengar, 
 J. Tomasi, M. Cossi, J. M. Millam, M. Klene, C. Adamo, R. Cammi, 
 J. W. Ochterski, R. L. Martin, K. Morokuma, O. Farkas, 
 J. B. Foresman, and D. J. Fox, Gaussian, Inc., Wallingford CT, 2016.
 
 ******************************************
 Gaussian 16:  ES64L-G16RevB.01 20-Dec-2017
                 4-Oct-2023 
 ******************************************
 %NProcShared=16
 Will use up to   16 processors via shared memory.
 %mem=12GB
 %Chk=checkpoint.chk
 -------------------------
 #p B3LYP/6-311+g(d) force
 -------------------------
 1/10=7,30=1,38=1/1,3;
 2/12=2,17=6,18=5,40=1/2;
 3/5=4,6=6,7=11,11=2,25=1,30=1,71=1,74=-5/1,2,3;
 4//1;
 5/5=2,38=5/2;
 6/7=2,8=2,9=2,10=2,28=1/1;
 7/29=1/1,2,3,16;
 1/10=7,30=1/3;
 99//99;
 Leave Link    1 at Wed Oct  4 14:11:22 2023, MaxMem=  1610612736 cpu:               0.7 elap:               0.1
 (Enter /home/sekinelabo/g16/l101.exe)


 Symbolic Z-matrix:
 Charge =  0 Multiplicity = 1
 Na                    0.        0.        0. 
 Na                   -3.54268   0.        2.20434 
 Na                    0.        0.        3.87223 
 Na                   -1.42688  -3.99619   2.76404 
 
 ITRead=  0  0  0  0
 MicOpt= -1 -1 -1 -1
 NAtoms=      4 NQM=        4 NQMF=       0 NMMI=      0 NMMIF=      0
                NMic=       0 NMicF=      0.
                    Isotopes and Nuclear Properties:
 (Nuclear quadrupole moments (NQMom) in fm**2, nuclear magnetic moments (NMagM)
  in nuclear magnetons)

  Atom         1           2           3           4
 IAtWgt=          23          23          23          23
 AtmWgt=  22.9897697  22.9897697  22.9897697  22.9897697
 NucSpn=           3           3           3           3
 AtZEff=  -0.0000000  -0.0000000  -0.0000000  -0.0000000
 NQMom=   10.4000000  10.4000000  10.4000000  10.4000000
 NMagM=    2.2175200   2.2175200   2.2175200   2.2175200
 AtZNuc=  11.0000000  11.0000000  11.0000000  11.0000000
 Leave Link  101 at Wed Oct  4 14:11:23 2023, MaxMem=  1610612736 cpu:               2.0 elap:               1.1
 (Enter /home/sekinelabo/g16/l103.exe)

 GradGradGradGradGradGradGradGradGradGradGradGradGradGradGradGradGradGrad
 Berny optimization.
 Initialization pass.
 Trust Radius=3.00D-01 FncErr=1.00D-07 GrdErr=1.00D-07 EigMax=2.50D+02 EigMin=1.00D-04
 Number of steps in this run=      2 maximum allowed number of steps=      2.
 GradGradGradGradGradGradGradGradGradGradGradGradGradGradGradGradGradGrad

 Leave Link  103 at Wed Oct  4 14:11:23 2023, MaxMem=  1610612736 cpu:               0.6 elap:               0.3
 (Enter /home/sekinelabo/g16/l202.exe)
                          Input orientation:                          
 ---------------------------------------------------------------------
 Center     Atomic      Atomic             Coordinates (Angstroms)
 Number     Number       Type             X           Y           Z
 ---------------------------------------------------------------------
      1         11           0        0.000000    0.000000    0.000000
      2         11           0       -3.542676    0.000000    2.204339
      3         11           0        0.000000    0.000000    3.872229
      4         11           0       -1.426883   -3.996190    2.764037
 ---------------------------------------------------------------------
                    Distance matrix (angstroms):
                    1          2          3          4
     1  Na   0.000000
     2  Na   4.172489   0.000000
     3  Na   3.872229   3.915662   0.000000
     4  Na   5.064132   4.556246   4.385615   0.000000
 Stoichiometry    Na4
 Framework group  C1[X(Na4)]
 Deg. of freedom     6
 Full point group                 C1      NOp   1
 Largest Abelian subgroup         C1      NOp   1
 Largest concise Abelian subgroup C1      NOp   1
                         Standard orientation:                         
 ---------------------------------------------------------------------
 Center     Atomic      Atomic             Coordinates (Angstroms)
 Number     Number       Type             X           Y           Z
 ---------------------------------------------------------------------
      1         11           0        2.045050   -1.260765   -1.286329
      2         11           0        0.421347    2.454011   -0.299570
      3         11           0        0.463993   -0.575168    2.181289
      4         11           0       -2.930389   -0.618078   -0.595391
 ---------------------------------------------------------------------
 Rotational constants (GHZ):           1.4480042           1.0980888           1.0230844
 Leave Link  202 at Wed Oct  4 14:11:24 2023, MaxMem=  1610612736 cpu:               1.2 elap:               0.6
 (Enter /home/sekinelabo/g16/l301.exe)
 Standard basis: 6-311+G(d) (5D, 7F)
 Ernie: Thresh=  0.10000D-02 Tol=  0.10000D-05 Strict=F.
 There are   124 symmetry adapted cartesian basis functions of A   symmetry.
 There are   120 symmetry adapted basis functions of A   symmetry.
   120 basis functions,   200 primitive gaussians,   124 cartesian basis functions
    22 alpha electrons       22 beta electrons
       nuclear repulsion energy        89.5314183160 Hartrees.
 IExCor=  402 DFT=T Ex+Corr=B3LYP ExCW=0 ScaHFX=  0.200000
 ScaDFX=  0.800000  0.720000  1.000000  0.810000 ScalE2=  1.000000  1.000000
 IRadAn=      5 IRanWt=     -1 IRanGd=            0 ICorTp=0 IEmpDi=  4
 NAtoms=    4 NActive=    4 NUniq=    4 SFac= 1.00D+00 NAtFMM=   60 NAOKFM=F Big=F
 Integral buffers will be    131072 words long.
 Raffenetti 2 integral format.
 Two-electron integral symmetry is turned on.
 Leave Link  301 at Wed Oct  4 14:11:24 2023, MaxMem=  1610612736 cpu:               0.8 elap:               0.4
 (Enter /home/sekinelabo/g16/l302.exe)
 NPDir=0 NMtPBC=     1 NCelOv=     1 NCel=       1 NClECP=     1 NCelD=      1
         NCelK=      1 NCelE2=     1 NClLst=     1 CellRange=     0.0.
 One-electron integrals computed using PRISM.
 One-electron integral symmetry used in STVInt
 NBasis=   120 RedAO= T EigKep=  1.10D-04  NBF=   120
 NBsUse=   120 1.00D-06 EigRej= -1.00D+00 NBFU=   120
 Precomputing XC quadrature grid using
 IXCGrd= 4 IRadAn=           5 IRanWt=          -1 IRanGd=           0 AccXCQ= 0.00D+00.
 Generated NRdTot=       0 NPtTot=           0 NUsed=           0 NTot=          32
 NSgBfM=   118   118   118   118   118 MxSgAt=     4 MxSgA2=     4.
 Leave Link  302 at Wed Oct  4 14:11:35 2023, MaxMem=  1610612736 cpu:              19.0 elap:              10.8
 (Enter /home/sekinelabo/g16/l303.exe)
 DipDrv:  MaxL=1.
 Leave Link  303 at Wed Oct  4 14:11:36 2023, MaxMem=  1610612736 cpu:               2.6 elap:               1.4
 (Enter /home/sekinelabo/g16/l401.exe)
 ExpMin= 7.60D-03 ExpMax= 3.62D+04 ExpMxC= 1.21D+03 IAcc=3 IRadAn=         5 AccDes= 0.00D+00
 Harris functional with IExCor=  402 and IRadAn=       5 diagonalized for initial guess.
 HarFok:  IExCor=  402 AccDes= 0.00D+00 IRadAn=         5 IDoV= 1 UseB2=F ITyADJ=14
 ICtDFT=  3500011 ScaDFX=  1.000000  1.000000  1.000000  1.000000
 FoFCou: FMM=F IPFlag=           0 FMFlag=      100000 FMFlg1=           0
         NFxFlg=           0 DoJE=T BraDBF=F KetDBF=T FulRan=T
         wScrn=  0.000000 ICntrl=       500 IOpCl=  0 I1Cent=   200000004 NGrid=           0
         NMat0=    1 NMatS0=      1 NMatT0=    0 NMatD0=    1 NMtDS0=    0 NMtDT0=    0
 Petite list used in FoFCou.
 Harris En= -649.048678552928    
 JPrj=0 DoOrth=F DoCkMO=F.
 Leave Link  401 at Wed Oct  4 14:11:44 2023, MaxMem=  1610612736 cpu:              13.9 elap:               7.8
 (Enter /home/sekinelabo/g16/l502.exe)
 Keep R1 ints in memory in canonical form, NReq=41581754.
 FoFCou: FMM=F IPFlag=           0 FMFlag=           0 FMFlg1=           0
         NFxFlg=           0 DoJE=F BraDBF=F KetDBF=F FulRan=T
         wScrn=  0.000000 ICntrl=       600 IOpCl=  0 I1Cent=           0 NGrid=           0
         NMat0=    1 NMatS0=   7260 NMatT0=    0 NMatD0=    1 NMtDS0=    0 NMtDT0=    0
 Symmetry not used in FoFCou.
 Two-electron integral symmetry not used.
 Closed shell SCF:
 Using DIIS extrapolation, IDIIS=  1040.
 NGot=  1610612736 LenX=  1584221388 LenY=  1584205571
 Requested convergence on RMS density matrix=1.00D-08 within 128 cycles.
 Requested convergence on MAX density matrix=1.00D-06.
 Requested convergence on             energy=1.00D-06.
 No special actions if energy rises.

 Cycle   1  Pass 1  IDiag  1:
 E= -649.144743736410    
 DIIS: error= 1.89D-02 at cycle   1 NSaved=   1.
 NSaved= 1 IEnMin= 1 EnMin= -649.144743736410     IErMin= 1 ErrMin= 1.89D-02
 ErrMax= 1.89D-02  0.00D+00 EMaxC= 1.00D-01 BMatC= 2.82D-02 BMatP= 2.82D-02
 IDIUse=3 WtCom= 8.11D-01 WtEn= 1.89D-01
 Coeff-Com:  0.100D+01
 Coeff-En:   0.100D+01
 Coeff:      0.100D+01
 Gap=    -0.012 Goal=   None    Shift=    0.000
 GapD=   -0.012 DampG=0.250 DampE=0.500 DampFc=0.2500 IDamp=-1.
 Damping current iteration by 2.50D-01
 RMSDP=1.06D-02 MaxDP=4.62D-01              OVMax= 8.99D-01

 Cycle   2  Pass 1  IDiag  1:
 E= -649.153156494319     Delta-E=       -0.008412757908 Rises=F Damp=T
 DIIS: error= 1.29D-02 at cycle   2 NSaved=   2.
 NSaved= 2 IEnMin= 2 EnMin= -649.153156494319     IErMin= 2 ErrMin= 1.29D-02
 ErrMax= 1.29D-02  0.00D+00 EMaxC= 1.00D-01 BMatC= 1.02D-02 BMatP= 2.82D-02
 IDIUse=3 WtCom= 8.71D-01 WtEn= 1.29D-01
 Coeff-Com: -0.100D+01 0.200D+01
 Coeff-En:   0.611D-01 0.939D+00
 Coeff:     -0.864D+00 0.186D+01
 Gap=    -0.001 Goal=   None    Shift=    0.000
 RMSDP=3.64D-03 MaxDP=1.86D-01 DE=-8.41D-03 OVMax= 8.30D-01

 Cycle   3  Pass 1  IDiag  1:
 E= -649.124303556164     Delta-E=        0.028852938154 Rises=F Damp=F
 DIIS: error= 7.46D-03 at cycle   3 NSaved=   3.
 NSaved= 3 IEnMin= 2 EnMin= -649.153156494319     IErMin= 3 ErrMin= 7.46D-03
 ErrMax= 7.46D-03  0.00D+00 EMaxC= 1.00D-01 BMatC= 6.36D-03 BMatP= 1.02D-02
 IDIUse=3 WtCom= 9.25D-01 WtEn= 7.46D-02
 Coeff-Com: -0.671D+00 0.123D+01 0.441D+00
 Coeff-En:   0.000D+00 0.919D+00 0.808D-01
 Coeff:     -0.621D+00 0.121D+01 0.414D+00
 Gap=     0.009 Goal=   None    Shift=    0.000
 RMSDP=5.87D-03 MaxDP=3.39D-01 DE= 2.89D-02 OVMax= 5.72D-01

 Cycle   4  Pass 1  IDiag  1:
 E= -649.160374336350     Delta-E=       -0.036070780186 Rises=F Damp=F
 DIIS: error= 3.23D-03 at cycle   4 NSaved=   4.
 NSaved= 4 IEnMin= 4 EnMin= -649.160374336350     IErMin= 4 ErrMin= 3.23D-03
 ErrMax= 3.23D-03  0.00D+00 EMaxC= 1.00D-01 BMatC= 1.37D-03 BMatP= 6.36D-03
 IDIUse=3 WtCom= 9.68D-01 WtEn= 3.23D-02
 Coeff-Com: -0.146D+00 0.277D+00 0.288D+00 0.581D+00
 Coeff-En:   0.000D+00 0.000D+00 0.238D+00 0.762D+00
 Coeff:     -0.141D+00 0.268D+00 0.286D+00 0.586D+00
 Gap=     0.012 Goal=   None    Shift=    0.000
 RMSDP=3.23D-03 MaxDP=1.56D-01 DE=-3.61D-02 OVMax= 3.30D-01

 Cycle   5  Pass 1  IDiag  1:
 E= -649.167179065189     Delta-E=       -0.006804728839 Rises=F Damp=F
 DIIS: error= 1.54D-03 at cycle   5 NSaved=   5.
 NSaved= 5 IEnMin= 5 EnMin= -649.167179065189     IErMin= 5 ErrMin= 1.54D-03
 ErrMax= 1.54D-03  0.00D+00 EMaxC= 1.00D-01 BMatC= 5.95D-04 BMatP= 1.37D-03
 IDIUse=3 WtCom= 9.85D-01 WtEn= 1.54D-02
 Coeff-Com: -0.397D-01 0.587D-01 0.944D-01 0.403D+00 0.484D+00
 Coeff-En:   0.000D+00 0.000D+00 0.000D+00 0.323D+00 0.677D+00
 Coeff:     -0.391D-01 0.578D-01 0.929D-01 0.402D+00 0.487D+00
 Gap=     0.017 Goal=   None    Shift=    0.000
 RMSDP=1.33D-03 MaxDP=6.22D-02 DE=-6.80D-03 OVMax= 1.20D-01

 Cycle   6  Pass 1  IDiag  1:
 E= -649.171060406461     Delta-E=       -0.003881341272 Rises=F Damp=F
 DIIS: error= 4.78D-04 at cycle   6 NSaved=   6.
 NSaved= 6 IEnMin= 6 EnMin= -649.171060406461     IErMin= 6 ErrMin= 4.78D-04
 ErrMax= 4.78D-04  0.00D+00 EMaxC= 1.00D-01 BMatC= 2.01D-05 BMatP= 5.95D-04
 IDIUse=3 WtCom= 9.95D-01 WtEn= 4.78D-03
 Coeff-Com: -0.320D-01 0.430D-01-0.103D-01 0.431D-01 0.150D+00 0.806D+00
 Coeff-En:   0.000D+00 0.000D+00 0.000D+00 0.000D+00 0.000D+00 0.100D+01
 Coeff:     -0.319D-01 0.428D-01-0.103D-01 0.429D-01 0.149D+00 0.807D+00
 Gap=     0.018 Goal=   None    Shift=    0.000
 RMSDP=2.50D-04 MaxDP=7.77D-03 DE=-3.88D-03 OVMax= 1.22D-02

 Cycle   7  Pass 1  IDiag  1:
 E= -649.171127779878     Delta-E=       -0.000067373416 Rises=F Damp=F
 DIIS: error= 2.33D-04 at cycle   7 NSaved=   7.
 NSaved= 7 IEnMin= 7 EnMin= -649.171127779878     IErMin= 7 ErrMin= 2.33D-04
 ErrMax= 2.33D-04  0.00D+00 EMaxC= 1.00D-01 BMatC= 4.56D-06 BMatP= 2.01D-05
 IDIUse=3 WtCom= 9.98D-01 WtEn= 2.33D-03
 Coeff-Com: -0.175D-01 0.232D-01-0.123D-01 0.112D-01 0.534D-01 0.370D+00
 Coeff-Com:  0.572D+00
 Coeff-En:   0.000D+00 0.000D+00 0.000D+00 0.000D+00 0.000D+00 0.000D+00
 Coeff-En:   0.100D+01
 Coeff:     -0.174D-01 0.231D-01-0.123D-01 0.111D-01 0.533D-01 0.369D+00
 Coeff:      0.573D+00
 Gap=     0.019 Goal=   None    Shift=    0.000
 RMSDP=6.97D-05 MaxDP=3.17D-03 DE=-6.74D-05 OVMax= 5.91D-03

 Cycle   8  Pass 1  IDiag  1:
 E= -649.171144729842     Delta-E=       -0.000016949965 Rises=F Damp=F
 DIIS: error= 8.06D-05 at cycle   8 NSaved=   8.
 NSaved= 8 IEnMin= 8 EnMin= -649.171144729842     IErMin= 8 ErrMin= 8.06D-05
 ErrMax= 8.06D-05  0.00D+00 EMaxC= 1.00D-01 BMatC= 8.50D-07 BMatP= 4.56D-06
 IDIUse=1 WtCom= 1.00D+00 WtEn= 0.00D+00
 Coeff-Com: -0.323D-02 0.438D-02-0.448D-02 0.536D-02-0.127D-01-0.587D-01
 Coeff-Com:  0.131D+00 0.939D+00
 Coeff:     -0.323D-02 0.438D-02-0.448D-02 0.536D-02-0.127D-01-0.587D-01
 Coeff:      0.131D+00 0.939D+00
 Gap=     0.019 Goal=   None    Shift=    0.000
 RMSDP=4.12D-05 MaxDP=1.75D-03 DE=-1.69D-05 OVMax= 3.70D-03

 Cycle   9  Pass 1  IDiag  1:
 E= -649.171150212096     Delta-E=       -0.000005482254 Rises=F Damp=F
 DIIS: error= 3.91D-05 at cycle   9 NSaved=   9.
 NSaved= 9 IEnMin= 9 EnMin= -649.171150212096     IErMin= 9 ErrMin= 3.91D-05
 ErrMax= 3.91D-05  0.00D+00 EMaxC= 1.00D-01 BMatC= 1.77D-07 BMatP= 8.50D-07
 IDIUse=1 WtCom= 1.00D+00 WtEn= 0.00D+00
 Coeff-Com: -0.752D-03 0.106D-02-0.186D-02 0.310D-02-0.945D-02-0.391D-01
 Coeff-Com: -0.266D-01 0.156D+00 0.918D+00
 Coeff:     -0.752D-03 0.106D-02-0.186D-02 0.310D-02-0.945D-02-0.391D-01
 Coeff:     -0.266D-01 0.156D+00 0.918D+00
 Gap=     0.019 Goal=   None    Shift=    0.000
 RMSDP=3.39D-05 MaxDP=7.29D-04 DE=-5.48D-06 OVMax= 3.21D-03

 Cycle  10  Pass 1  IDiag  1:
 E= -649.171151584166     Delta-E=       -0.000001372069 Rises=F Damp=F
 DIIS: error= 3.25D-05 at cycle  10 NSaved=  10.
 NSaved=10 IEnMin=10 EnMin= -649.171151584166     IErMin=10 ErrMin= 3.25D-05
 ErrMax= 3.25D-05  0.00D+00 EMaxC= 1.00D-01 BMatC= 6.66D-08 BMatP= 1.77D-07
 IDIUse=1 WtCom= 1.00D+00 WtEn= 0.00D+00
 Coeff-Com: -0.557D-03 0.806D-03-0.604D-03 0.112D-02 0.132D-02-0.669D-02
 Coeff-Com: -0.475D-01-0.245D+00 0.297D+00 0.999D+00
 Coeff:     -0.557D-03 0.806D-03-0.604D-03 0.112D-02 0.132D-02-0.669D-02
 Coeff:     -0.475D-01-0.245D+00 0.297D+00 0.999D+00
 Gap=     0.019 Goal=   None    Shift=    0.000
 RMSDP=2.60D-05 MaxDP=6.71D-04 DE=-1.37D-06 OVMax= 2.41D-03

 Cycle  11  Pass 1  IDiag  1:
 E= -649.171152353517     Delta-E=       -0.000000769351 Rises=F Damp=F
 DIIS: error= 8.71D-06 at cycle  11 NSaved=  11.
 NSaved=11 IEnMin=11 EnMin= -649.171152353517     IErMin=11 ErrMin= 8.71D-06
 ErrMax= 8.71D-06  0.00D+00 EMaxC= 1.00D-01 BMatC= 5.79D-09 BMatP= 6.66D-08
 IDIUse=1 WtCom= 1.00D+00 WtEn= 0.00D+00
 Coeff-Com: -0.436D-03 0.564D-03 0.159D-03-0.474D-03 0.318D-02 0.123D-01
 Coeff-Com:  0.187D-01-0.410D-01-0.172D+00-0.346D+00 0.153D+01
 Coeff:     -0.436D-03 0.564D-03 0.159D-03-0.474D-03 0.318D-02 0.123D-01
 Coeff:      0.187D-01-0.410D-01-0.172D+00-0.346D+00 0.153D+01
 Gap=     0.018 Goal=   None    Shift=    0.000
 RMSDP=2.37D-05 MaxDP=4.43D-04 DE=-7.69D-07 OVMax= 2.20D-03

 Cycle  12  Pass 1  IDiag  1:
 E= -649.171152522998     Delta-E=       -0.000000169481 Rises=F Damp=F
 DIIS: error= 5.30D-06 at cycle  12 NSaved=  12.
 NSaved=12 IEnMin=12 EnMin= -649.171152522998     IErMin=12 ErrMin= 5.30D-06
 ErrMax= 5.30D-06  0.00D+00 EMaxC= 1.00D-01 BMatC= 1.19D-09 BMatP= 5.79D-09
 IDIUse=1 WtCom= 1.00D+00 WtEn= 0.00D+00
 Coeff-Com: -0.426D-05 0.753D-05 0.895D-04-0.411D-03 0.112D-02 0.190D-02
 Coeff-Com:  0.288D-02-0.530D-03-0.602D-01-0.197D+00 0.173D+00 0.108D+01
 Coeff:     -0.426D-05 0.753D-05 0.895D-04-0.411D-03 0.112D-02 0.190D-02
 Coeff:      0.288D-02-0.530D-03-0.602D-01-0.197D+00 0.173D+00 0.108D+01
 Gap=     0.018 Goal=   None    Shift=    0.000
 RMSDP=1.01D-05 MaxDP=1.96D-04 DE=-1.69D-07 OVMax= 9.01D-04

 Cycle  13  Pass 1  IDiag  1:
 E= -649.171152542181     Delta-E=       -0.000000019183 Rises=F Damp=F
 DIIS: error= 2.10D-06 at cycle  13 NSaved=  13.
 NSaved=13 IEnMin=13 EnMin= -649.171152542181     IErMin=13 ErrMin= 2.10D-06
 ErrMax= 2.10D-06  0.00D+00 EMaxC= 1.00D-01 BMatC= 5.06D-10 BMatP= 1.19D-09
 IDIUse=1 WtCom= 1.00D+00 WtEn= 0.00D+00
 Coeff-Com:  0.377D-04-0.460D-04-0.106D-04-0.107D-03 0.491D-04-0.974D-03
 Coeff-Com: -0.394D-02 0.192D-02 0.440D-01 0.663D-01-0.309D+00 0.236D+00
 Coeff-Com:  0.966D+00
 Coeff:      0.377D-04-0.460D-04-0.106D-04-0.107D-03 0.491D-04-0.974D-03
 Coeff:     -0.394D-02 0.192D-02 0.440D-01 0.663D-01-0.309D+00 0.236D+00
 Coeff:      0.966D+00
 Gap=     0.018 Goal=   None    Shift=    0.000
 RMSDP=1.50D-06 MaxDP=6.09D-05 DE=-1.92D-08 OVMax= 1.06D-04

 Cycle  14  Pass 1  IDiag  1:
 E= -649.171152546233     Delta-E=       -0.000000004052 Rises=F Damp=F
 DIIS: error= 3.87D-07 at cycle  14 NSaved=  14.
 NSaved=14 IEnMin=14 EnMin= -649.171152546233     IErMin=14 ErrMin= 3.87D-07
 ErrMax= 3.87D-07  0.00D+00 EMaxC= 1.00D-01 BMatC= 2.02D-11 BMatP= 5.06D-10
 IDIUse=1 WtCom= 1.00D+00 WtEn= 0.00D+00
 Coeff-Com:  0.218D-05-0.332D-05 0.416D-05-0.728D-05-0.347D-04-0.113D-04
 Coeff-Com: -0.257D-03-0.108D-02 0.971D-02 0.234D-01-0.293D-01-0.887D-01
 Coeff-Com:  0.280D-01 0.106D+01
 Coeff:      0.218D-05-0.332D-05 0.416D-05-0.728D-05-0.347D-04-0.113D-04
 Coeff:     -0.257D-03-0.108D-02 0.971D-02 0.234D-01-0.293D-01-0.887D-01
 Coeff:      0.280D-01 0.106D+01
 Gap=     0.018 Goal=   None    Shift=    0.000
 RMSDP=3.81D-07 MaxDP=1.33D-05 DE=-4.05D-09 OVMax= 2.09D-05

 Cycle  15  Pass 1  IDiag  1:
 E= -649.171152546353     Delta-E=       -0.000000000120 Rises=F Damp=F
 DIIS: error= 1.17D-07 at cycle  15 NSaved=  15.
 NSaved=15 IEnMin=15 EnMin= -649.171152546353     IErMin=15 ErrMin= 1.17D-07
 ErrMax= 1.17D-07  0.00D+00 EMaxC= 1.00D-01 BMatC= 1.71D-12 BMatP= 2.02D-11
 IDIUse=1 WtCom= 1.00D+00 WtEn= 0.00D+00
 Coeff-Com:  0.111D-05-0.149D-05 0.190D-05-0.123D-04-0.116D-04 0.167D-04
 Coeff-Com:  0.742D-04-0.605D-03 0.289D-03 0.465D-02 0.259D-02-0.434D-01
 Coeff-Com: -0.587D-01 0.275D+00 0.821D+00
 Coeff:      0.111D-05-0.149D-05 0.190D-05-0.123D-04-0.116D-04 0.167D-04
 Coeff:      0.742D-04-0.605D-03 0.289D-03 0.465D-02 0.259D-02-0.434D-01
 Coeff:     -0.587D-01 0.275D+00 0.821D+00
 Gap=     0.018 Goal=   None    Shift=    0.000
 RMSDP=2.32D-07 MaxDP=5.33D-06 DE=-1.20D-10 OVMax= 1.87D-05

 Cycle  16  Pass 1  IDiag  1:
 E= -649.171152546373     Delta-E=       -0.000000000020 Rises=F Damp=F
 DIIS: error= 1.63D-08 at cycle  16 NSaved=  16.
 NSaved=16 IEnMin=16 EnMin= -649.171152546373     IErMin=16 ErrMin= 1.63D-08
 ErrMax= 1.63D-08  0.00D+00 EMaxC= 1.00D-01 BMatC= 3.72D-14 BMatP= 1.71D-12
 IDIUse=1 WtCom= 1.00D+00 WtEn= 0.00D+00
 Coeff-Com: -0.116D-06 0.149D-06 0.542D-06-0.435D-05 0.498D-05 0.135D-04
 Coeff-Com:  0.208D-04 0.675D-04-0.120D-02-0.200D-02 0.332D-02 0.451D-02
 Coeff-Com: -0.126D-01-0.649D-01 0.127D+00 0.946D+00
 Coeff:     -0.116D-06 0.149D-06 0.542D-06-0.435D-05 0.498D-05 0.135D-04
 Coeff:      0.208D-04 0.675D-04-0.120D-02-0.200D-02 0.332D-02 0.451D-02
 Coeff:     -0.126D-01-0.649D-01 0.127D+00 0.946D+00
 Gap=     0.018 Goal=   None    Shift=    0.000
 RMSDP=4.92D-08 MaxDP=1.28D-06 DE=-2.00D-11 OVMax= 3.71D-06

 Cycle  17  Pass 1  IDiag  1:
 E= -649.171152546372     Delta-E=        0.000000000001 Rises=F Damp=F
 DIIS: error= 1.14D-08 at cycle  17 NSaved=  17.
 NSaved=17 IEnMin=16 EnMin= -649.171152546373     IErMin=17 ErrMin= 1.14D-08
 ErrMax= 1.14D-08  0.00D+00 EMaxC= 1.00D-01 BMatC= 1.06D-14 BMatP= 3.72D-14
 IDIUse=1 WtCom= 1.00D+00 WtEn= 0.00D+00
 Large coefficients: NSaved= 17 BigCof=    0.00 CofMax=   10.00 Det=-6.86D-15
 Inversion failed.  Reducing to 16 matrices.
 Large coefficients: NSaved= 16 BigCof=    0.00 CofMax=   10.00 Det=-7.15D-15
 Inversion failed.  Reducing to 15 matrices.
 Coeff-Com: -0.528D-08-0.241D-06 0.649D-06-0.640D-06-0.485D-05 0.324D-04
 Coeff-Com:  0.337D-05-0.164D-03-0.150D-03 0.298D-02 0.206D-02-0.185D-01
 Coeff-Com: -0.274D-01 0.128D+00 0.913D+00
 Coeff:     -0.528D-08-0.241D-06 0.649D-06-0.640D-06-0.485D-05 0.324D-04
 Coeff:      0.337D-05-0.164D-03-0.150D-03 0.298D-02 0.206D-02-0.185D-01
 Coeff:     -0.274D-01 0.128D+00 0.913D+00
 Gap=     0.018 Goal=   None    Shift=    0.000
 RMSDP=1.82D-08 MaxDP=3.64D-07 DE= 6.82D-13 OVMax= 1.59D-06

 Cycle  18  Pass 1  IDiag  1:
 E= -649.171152546371     Delta-E=        0.000000000001 Rises=F Damp=F
 DIIS: error= 1.02D-09 at cycle  18 NSaved=  16.
 NSaved=16 IEnMin=14 EnMin= -649.171152546373     IErMin=16 ErrMin= 1.02D-09
 ErrMax= 1.02D-09  0.00D+00 EMaxC= 1.00D-01 BMatC= 1.92D-16 BMatP= 1.06D-14
 IDIUse=1 WtCom= 1.00D+00 WtEn= 0.00D+00
 Large coefficients: NSaved= 16 BigCof=    0.00 CofMax=   10.00 Det=-6.70D-16
 Inversion failed.  Reducing to 15 matrices.
 Coeff-Com:  0.160D-06 0.538D-07-0.466D-06-0.287D-05-0.234D-06 0.605D-04
 Coeff-Com:  0.979D-04-0.205D-03 0.442D-03 0.129D-02-0.670D-03-0.186D-01
 Coeff-Com: -0.305D-01 0.233D+00 0.815D+00
 Coeff:      0.160D-06 0.538D-07-0.466D-06-0.287D-05-0.234D-06 0.605D-04
 Coeff:      0.979D-04-0.205D-03 0.442D-03 0.129D-02-0.670D-03-0.186D-01
 Coeff:     -0.305D-01 0.233D+00 0.815D+00
 Gap=     0.018 Goal=   None    Shift=    0.000
 RMSDP=1.09D-09 MaxDP=4.60D-08 DE= 1.02D-12 OVMax= 7.90D-08

 SCF Done:  E(RB3LYP) =  -649.171152546     A.U. after   18 cycles
            NFock= 18  Conv=0.11D-08     -V/T= 2.0030
 KE= 6.472276204471D+02 PE=-1.737991662061D+03 EE= 3.520614707518D+02
 Leave Link  502 at Wed Oct  4 14:13:33 2023, MaxMem=  1610612736 cpu:             193.7 elap:             108.6
 (Enter /home/sekinelabo/g16/l601.exe)
 Copying SCF densities to generalized density rwf, IOpCl= 0 IROHF=0.

 **********************************************************************

            Population analysis using the SCF Density.

 **********************************************************************

 Orbital symmetries:
       Occupied  (A) (A) (A) (A) (A) (A) (A) (A) (A) (A) (A) (A)
                 (A) (A) (A) (A) (A) (A) (A) (A) (A) (A)
       Virtual   (A) (A) (A) (A) (A) (A) (A) (A) (A) (A) (A) (A)
                 (A) (A) (A) (A) (A) (A) (A) (A) (A) (A) (A) (A)
                 (A) (A) (A) (A) (A) (A) (A) (A) (A) (A) (A) (A)
                 (A) (A) (A) (A) (A) (A) (A) (A) (A) (A) (A) (A)
                 (A) (A) (A) (A) (A) (A) (A) (A) (A) (A) (A) (A)
                 (A) (A) (A) (A) (A) (A) (A) (A) (A) (A) (A) (A)
                 (A) (A) (A) (A) (A) (A) (A) (A) (A) (A) (A) (A)
                 (A) (A) (A) (A) (A) (A) (A) (A) (A) (A) (A) (A)
                 (A) (A)
 The electronic state is 1-A.
 Alpha  occ. eigenvalues --  -38.47263 -38.46783 -38.43868 -38.43529  -2.22954
 Alpha  occ. eigenvalues --   -2.22495  -2.19608  -2.19249  -1.16657  -1.16587
 Alpha  occ. eigenvalues --   -1.16586  -1.16198  -1.16134  -1.16113  -1.13297
 Alpha  occ. eigenvalues --   -1.13285  -1.13227  -1.12940  -1.12928  -1.12875
 Alpha  occ. eigenvalues --   -0.14968  -0.09644
 Alpha virt. eigenvalues --   -0.07798  -0.07070  -0.02805  -0.02276  -0.01986
 Alpha virt. eigenvalues --   -0.01576  -0.01473  -0.00942  -0.00023   0.00011
 Alpha virt. eigenvalues --    0.00140   0.00683   0.01317   0.01396   0.01473
 Alpha virt. eigenvalues --    0.01482   0.01547   0.01600   0.01648   0.01846
 Alpha virt. eigenvalues --    0.02162   0.02556   0.02582   0.02665   0.03210
 Alpha virt. eigenvalues --    0.03314   0.03442   0.03495   0.03753   0.04241
 Alpha virt. eigenvalues --    0.05504   0.06784   0.07000   0.07241   0.07509
 Alpha virt. eigenvalues --    0.08175   0.09468   0.09842   0.10032   0.10142
 Alpha virt. eigenvalues --    0.10953   0.11180   0.11969   0.12368   0.12486
 Alpha virt. eigenvalues --    0.12903   0.29065   0.30259   0.30576   0.30892
 Alpha virt. eigenvalues --    0.30978   0.32578   0.32734   0.35325   0.36124
 Alpha virt. eigenvalues --    0.36279   0.36750   0.37521   0.37567   0.38269
 Alpha virt. eigenvalues --    0.39066   0.39528   0.40348   0.40945   0.41691
 Alpha virt. eigenvalues --    0.42684   0.44481   0.45077   0.45160   0.45718
 Alpha virt. eigenvalues --    0.46155   0.47841   0.49134   0.50192   0.51406
 Alpha virt. eigenvalues --    0.51768   0.53422   0.53543   2.00285   2.05443
 Alpha virt. eigenvalues --    2.06609   2.08966   4.42537   4.42694   4.42867
 Alpha virt. eigenvalues --    4.43285   4.43675   4.44459   4.45642   4.46091
 Alpha virt. eigenvalues --    4.46197   4.46320   4.48724   4.51737  96.19427
 Alpha virt. eigenvalues --   96.25163  96.26443  96.29267
          Condensed to atoms (all electrons):
               1          2          3          4
     1  Na  11.252549  -0.111092   0.320104  -0.443319
     2  Na  -0.111092  10.630233   0.119067   0.276507
     3  Na   0.320104   0.119067  10.592991  -0.077532
     4  Na  -0.443319   0.276507  -0.077532  11.356756
 Mulliken charges:
               1
     1  Na  -0.018242
     2  Na   0.085284
     3  Na   0.045370
     4  Na  -0.112413
 Sum of Mulliken charges =  -0.00000
 Mulliken charges with hydrogens summed into heavy atoms:
               1
     1  Na  -0.018242
     2  Na   0.085284
     3  Na   0.045370
     4  Na  -0.112413
 Electronic spatial extent (au):  <R**2>=           1207.7006
 Charge=             -0.0000 electrons
 Dipole moment (field-independent basis, Debye):
    X=              1.2657    Y=              1.2607    Z=              1.1355  Tot=              2.1168
 Quadrupole moment (field-independent basis, Debye-Ang):
   XX=            -59.6229   YY=            -35.2039   ZZ=            -32.0273
   XY=              9.7137   XZ=             -2.2135   YZ=             -1.7662
 Traceless Quadrupole moment (field-independent basis, Debye-Ang):
   XX=            -17.3382   YY=              7.0808   ZZ=             10.2574
   XY=              9.7137   XZ=             -2.2135   YZ=             -1.7662
 Octapole moment (field-independent basis, Debye-Ang**2):
  XXX=             12.3524  YYY=             38.0865  ZZZ=             36.1059  XYY=             14.6818
  XXY=              5.1186  XXZ=             -2.1887  XZZ=              9.0172  YZZ=             -6.9108
  YYZ=             -3.2657  XYZ=             -0.4519
 Hexadecapole moment (field-independent basis, Debye-Ang**3):
 XXXX=          -1401.2659 YYYY=           -606.4099 ZZZZ=           -460.0627 XXXY=             78.5551
 XXXZ=            -16.2582 YYYX=             98.7851 YYYZ=            -18.4381 ZZZX=            -10.5336
 ZZZY=            -24.0534 XXYY=           -343.4926 XXZZ=           -317.6951 YYZZ=           -194.9694
 XXYZ=              5.6831 YYXZ=            -13.3518 ZZXY=             20.1103
 N-N= 8.953141831599D+01 E-N=-1.737991661906D+03  KE= 6.472276204471D+02
 No NMR shielding tensors so no spin-rotation constants.
 Leave Link  601 at Wed Oct  4 14:13:38 2023, MaxMem=  1610612736 cpu:               8.7 elap:               4.9
 (Enter /home/sekinelabo/g16/l701.exe)
 ... and contract with generalized density number  0.
 Compute integral first derivatives.
 Leave Link  701 at Wed Oct  4 14:13:42 2023, MaxMem=  1610612736 cpu:               7.0 elap:               3.9
 (Enter /home/sekinelabo/g16/l702.exe)
 L702 exits ... SP integral derivatives will be done elsewhere.
 Leave Link  702 at Wed Oct  4 14:13:42 2023, MaxMem=  1610612736 cpu:               0.7 elap:               0.4
 (Enter /home/sekinelabo/g16/l703.exe)
 Integral derivatives from FoFJK, PRISM(SPDF).
 Compute integral first derivatives, UseDBF=F ICtDFT=           0.
 Calling FoFJK, ICntrl=      2127 FMM=F ISym2X=0 I1Cent= 0 IOpClX= 0 NMat=1 NMatS=1 NMatT=0.
 FoFJK:  IHMeth= 1 ICntrl=    2127 DoSepK=F KAlg= 0 I1Cent=           0 FoldK=F
 IRaf=         0 NMat=       1 IRICut=       1 DoRegI=T DoRafI=F ISym2E= 0 IDoP0=0 IntGTp=1.
 FoFCou: FMM=F IPFlag=           0 FMFlag=      100000 FMFlg1=         800
         NFxFlg=           0 DoJE=F BraDBF=F KetDBF=F FulRan=T
         wScrn=  0.000000 ICntrl=      2127 IOpCl=  0 I1Cent=           0 NGrid=           0
         NMat0=    1 NMatS0=      1 NMatT0=    0 NMatD0=    1 NMtDS0=    0 NMtDT0=    0
 Symmetry not used in FoFCou.
 Leave Link  703 at Wed Oct  4 14:13:50 2023, MaxMem=  1610612736 cpu:              13.7 elap:               7.5
 (Enter /home/sekinelabo/g16/l716.exe)
 Dipole        = 4.97983762D-01 4.96008649D-01 4.46747238D-01
 ***** Axes restored to original set *****
 -------------------------------------------------------------------
 Center     Atomic                   Forces (Hartrees/Bohr)
 Number     Number              X              Y              Z
 -------------------------------------------------------------------
      1       11           0.000868169    0.003955616    0.004901386
      2       11           0.007047359   -0.006499203    0.002013428
      3       11          -0.003269191   -0.000580038   -0.008901405
      4       11          -0.004646337    0.003123625    0.001986591
 -------------------------------------------------------------------
 Cartesian Forces:  Max     0.008901405 RMS     0.004672028
 Z-matrix is all fixed cartesians, so copy forces.
 Force constants in Cartesian coordinates: 
                1             2             3             4             5 
      1  0.466896D-02
      2  0.000000D+00  0.000000D+00
      3  0.000000D+00  0.000000D+00  0.119869D-01
      4 -0.196670D-02  0.000000D+00  0.000000D+00  0.101943D-01
      5  0.000000D+00  0.000000D+00  0.000000D+00  0.000000D+00  0.000000D+00
      6  0.417736D-02  0.000000D+00  0.000000D+00  0.264980D-02  0.000000D+00
      7 -0.270226D-02  0.000000D+00  0.000000D+00 -0.822756D-02  0.000000D+00
      8  0.000000D+00  0.000000D+00  0.000000D+00  0.000000D+00  0.000000D+00
      9 -0.417736D-02  0.000000D+00 -0.119869D-01 -0.264980D-02  0.000000D+00
     10  0.000000D+00  0.000000D+00  0.000000D+00  0.000000D+00  0.000000D+00
     11  0.000000D+00  0.000000D+00  0.000000D+00  0.000000D+00  0.000000D+00
     12  0.000000D+00  0.000000D+00  0.000000D+00  0.000000D+00  0.000000D+00
                6             7             8             9            10 
      6  0.581348D-02
      7 -0.682717D-02  0.109298D-01
      8  0.000000D+00  0.000000D+00  0.000000D+00
      9 -0.581348D-02  0.682717D-02  0.000000D+00  0.178004D-01
     10  0.000000D+00  0.000000D+00  0.000000D+00  0.000000D+00  0.100000D+01
     11  0.000000D+00  0.000000D+00  0.000000D+00  0.000000D+00  0.000000D+00
     12  0.000000D+00  0.000000D+00  0.000000D+00  0.000000D+00  0.000000D+00
               11            12 
     11  0.100000D+01
     12  0.000000D+00  0.100000D+01
 Leave Link  716 at Wed Oct  4 14:13:50 2023, MaxMem=  1610612736 cpu:               0.6 elap:               0.4
 (Enter /home/sekinelabo/g16/l103.exe)

 GradGradGradGradGradGradGradGradGradGradGradGradGradGradGradGradGradGrad
 Berny optimization.
 Search for a local minimum.
 Step number   1 out of a maximum of    2
 All quantities printed in internal units (Hartrees-Bohrs-Radians)
 Second derivative matrix not updated -- first step.
 The second derivative matrix:
                          X1        Y1        Z1        X2        Y2
           X1           0.00467
           Y1          -0.00000   0.00000
           Z1           0.00000  -0.00000   0.01199
           X2          -0.00197   0.00000  -0.00000   0.01019
           Y2          -0.00000  -0.00000  -0.00000  -0.00000   0.00000
           Z2           0.00418  -0.00000   0.00000   0.00265  -0.00000
           X3          -0.00270  -0.00000  -0.00000  -0.00823   0.00000
           Y3           0.00000  -0.00000   0.00000   0.00000   0.00000
           Z3          -0.00418   0.00000  -0.01199  -0.00265   0.00000
           X4           0.00000   0.00000   0.00000   0.00000   0.00000
           Y4           0.00000   0.00000   0.00000   0.00000   0.00000
           Z4           0.00000   0.00000   0.00000   0.00000   0.00000
                          Z2        X3        Y3        Z3        X4
           Z2           0.00581
           X3          -0.00683   0.01093
           Y3           0.00000  -0.00000   0.00000
           Z3          -0.00581   0.00683  -0.00000   0.01780
           X4           0.00000   0.00000   0.00000   0.00000   1.00000
           Y4           0.00000   0.00000   0.00000   0.00000  -0.00000
           Z4           0.00000   0.00000   0.00000   0.00000   0.00000
                          Y4        Z4
           Y4           1.00000
           Z4           0.00000   1.00000
 ITU=  0
     Eigenvalues ---    0.00978   0.01843   0.03319   0.27689   0.31051
     Eigenvalues ---    0.75000
 Quadratic step=5.331D-01 exceeds max=3.000D-01 adjusted using Lamda=-1.434D-02.
 Angle between NR and scaled steps=  15.21 degrees.
 Angle between quadratic step and forces=  35.52 degrees.
 Linear search not attempted -- first point.
 B after Tr=     0.000000    0.000000    0.000000
         Rot=    1.000000   -0.000000   -0.000000   -0.000000 Ang=   0.00 deg.
 Variable       Old X    -DE/DX   Delta X   Delta X   Delta X     New X
                                 (Linear)    (Quad)   (Total)
    X1        0.00000   0.00087   0.00000  -0.05055  -0.05055  -0.05055
    Y1       -0.00000   0.00396   0.00000   0.01362   0.01362   0.01362
    Z1        0.00000   0.00490   0.00000   0.14252   0.14252   0.14252
    X2       -6.69469   0.00705   0.00000   0.16758   0.16758  -6.52711
    Y2       -0.00000  -0.00650   0.00000  -0.01858  -0.01858  -0.01858
    Z2        4.16560   0.00201   0.00000   0.01630   0.01630   4.18190
    X3        0.00000  -0.00327   0.00000  -0.10249  -0.10249  -0.10249
    Y3       -0.00000  -0.00058   0.00000  -0.00045  -0.00045  -0.00045
    Z3        7.31745  -0.00890   0.00000  -0.16577  -0.16577   7.15168
    X4       -2.69642  -0.00465   0.00000  -0.01454  -0.01454  -2.71095
    Y4       -7.55171   0.00312   0.00000   0.00541   0.00541  -7.54629
    Z4        5.22327   0.00199   0.00000   0.00695   0.00695   5.23022
         Item               Value     Threshold  Converged?
 Maximum Force            0.008901     0.000450     NO 
 RMS     Force            0.004672     0.000300     NO 
 Maximum Displacement     0.167577     0.001800     NO 
 RMS     Displacement     0.086612     0.001200     NO 
 Predicted change in Energy=-2.621535D-03
 GradGradGradGradGradGradGradGradGradGradGradGradGradGradGradGradGradGrad

 Leave Link  103 at Wed Oct  4 14:13:53 2023, MaxMem=  1610612736 cpu:               3.5 elap:               2.1
 (Enter /home/sekinelabo/g16/l9999.exe)
 1\1\GINC-SEKINELABO-XA7R-R37\Force\RB3LYP\6-311+G(d)\Na4\SEKINELABO\04
 -Oct-2023\0\\#p B3LYP/6-311+g(d) force\\\0,1\Na,0.,0.,0.\Na,-3.5426757
 085,0.,2.2043391363\Na,0.,0.,3.8722287136\Na,-1.4268827418,-3.99619040
 73,2.7640371103\\Version=ES64L-G16RevB.01\State=1-A\HF=-649.1711525\RM
 SD=1.090e-09\RMSF=4.672e-03\Dipole=-0.2392416,0.7452425,0.284557\Quadr
 upole=2.421033,-6.2956068,3.8745738,-8.8685666,6.0568386,6.0840959\PG=
 C01 [X(Na4)]\\@


 THE WHOLE OF SCIENCE IS NOTHING MORE THAN A REFINEMENT OF EVERYDAY THINKING.
                                                              -- A. EINSTEIN
 Job cpu time:       0 days  0 hours  4 minutes 29.7 seconds.
 Elapsed time:       0 days  0 hours  2 minutes 30.9 seconds.
 File lengths (MBytes):  RWF=     10 Int=      0 D2E=      0 Chk=      2 Scr=      1
 Normal termination of Gaussian 16 at Wed Oct  4 14:13:53 2023.
 Initial command:
 /home/sekinelabo/g16/l1.exe "/home/sekinelabo/g16temp/Gau-8046.inp" -scrdir="/home/sekinelabo/g16temp/"
 Entering Link 1 = /home/sekinelabo/g16/l1.exe PID=     11359.
  
 Copyright (c) 1988-2017, Gaussian, Inc.  All Rights Reserved.
  
 This is part of the Gaussian(R) 16 program.  It is based on
 the Gaussian(R) 09 system (copyright 2009, Gaussian, Inc.),
 the Gaussian(R) 03 system (copyright 2003, Gaussian, Inc.),
 the Gaussian(R) 98 system (copyright 1998, Gaussian, Inc.),
 the Gaussian(R) 94 system (copyright 1995, Gaussian, Inc.),
 the Gaussian 92(TM) system (copyright 1992, Gaussian, Inc.),
 the Gaussian 90(TM) system (copyright 1990, Gaussian, Inc.),
 the Gaussian 88(TM) system (copyright 1988, Gaussian, Inc.),
 the Gaussian 86(TM) system (copyright 1986, Carnegie Mellon
 University), and the Gaussian 82(TM) system (copyright 1983,
 Carnegie Mellon University). Gaussian is a federally registered
 trademark of Gaussian, Inc.
  
 This software contains proprietary and confidential information,
 including trade secrets, belonging to Gaussian, Inc.
  
 This software is provided under written license and may be
 used, copied, transmitted, or stored only in accord with that
 written license.
  
 The following legend is applicable only to US Government
 contracts under FAR:
  
                    RESTRICTED RIGHTS LEGEND
  
 Use, reproduction and disclosure by the US Government is
 subject to restrictions as set forth in subparagraphs (a)
 and (c) of the Commercial Computer Software - Restricted
 Rights clause in FAR 52.227-19.
  
 Gaussian, Inc.
 340 Quinnipiac St., Bldg. 40, Wallingford CT 06492
  
  
 ---------------------------------------------------------------
 Warning -- This program may not be used in any manner that
 competes with the business of Gaussian, Inc. or will provide
 assistance to any competitor of Gaussian, Inc.  The licensee
 of this program is prohibited from giving any competitor of
 Gaussian, Inc. access to this program.  By using this program,
 the user acknowledges that Gaussian, Inc. is engaged in the
 business of creating and licensing software in the field of
 computational chemistry and represents and warrants to the
 licensee that it is not a competitor of Gaussian, Inc. and that
 it will not use this program in any manner prohibited above.
 ---------------------------------------------------------------
  

 Cite this work as:
 Gaussian 16, Revision B.01,
 M. J. Frisch, G. W. Trucks, H. B. Schlegel, G. E. Scuseria, 
 M. A. Robb, J. R. Cheeseman, G. Scalmani, V. Barone, 
 G. A. Petersson, H. Nakatsuji, X. Li, M. Caricato, A. V. Marenich, 
 J. Bloino, B. G. Janesko, R. Gomperts, B. Mennucci, H. P. Hratchian, 
 J. V. Ortiz, A. F. Izmaylov, J. L. Sonnenberg, D. Williams-Young, 
 F. Ding, F. Lipparini, F. Egidi, J. Goings, B. Peng, A. Petrone, 
 T. Henderson, D. Ranasinghe, V. G. Zakrzewski, J. Gao, N. Rega, 
 G. Zheng, W. Liang, M. Hada, M. Ehara, K. Toyota, R. Fukuda, 
 J. Hasegawa, M. Ishida, T. Nakajima, Y. Honda, O. Kitao, H. Nakai, 
 T. Vreven, K. Throssell, J. A. Montgomery, Jr., J. E. Peralta, 
 F. Ogliaro, M. J. Bearpark, J. J. Heyd, E. N. Brothers, K. N. Kudin, 
 V. N. Staroverov, T. A. Keith, R. Kobayashi, J. Normand, 
 K. Raghavachari, A. P. Rendell, J. C. Burant, S. S. Iyengar, 
 J. Tomasi, M. Cossi, J. M. Millam, M. Klene, C. Adamo, R. Cammi, 
 J. W. Ochterski, R. L. Martin, K. Morokuma, O. Farkas, 
 J. B. Foresman, and D. J. Fox, Gaussian, Inc., Wallingford CT, 2016.
 
 ******************************************
 Gaussian 16:  ES64L-G16RevB.01 20-Dec-2017
                 4-Oct-2023 
 ******************************************
 %NProcShared=16
 Will use up to   16 processors via shared memory.
 %mem=12GB
 %Chk=checkpoint.chk
 -------------------------
 #p B3LYP/6-311+g(d) force
 -------------------------
 1/10=7,30=1,38=1/1,3;
 2/12=2,17=6,18=5,40=1/2;
 3/5=4,6=6,7=11,11=2,25=1,30=1,71=1,74=-5/1,2,3;
 4//1;
 5/5=2,38=5/2;
 6/7=2,8=2,9=2,10=2,28=1/1;
 7/29=1/1,2,3,16;
 1/10=7,30=1/3;
 99//99;
 Leave Link    1 at Wed Oct  4 14:13:54 2023, MaxMem=  1610612736 cpu:               0.6 elap:               0.4
 (Enter /home/sekinelabo/g16/l101.exe)


 Symbolic Z-matrix:
 Charge =  0 Multiplicity = 1
 Na                    0.        0.        0. 
 Na                   -4.71602   0.        0.06862 
 Na                    0.        0.        3.60669 
 Na                    0.4486   -0.77507   6.81745 
 
 ITRead=  0  0  0  0
 MicOpt= -1 -1 -1 -1
 NAtoms=      4 NQM=        4 NQMF=       0 NMMI=      0 NMMIF=      0
                NMic=       0 NMicF=      0.
                    Isotopes and Nuclear Properties:
 (Nuclear quadrupole moments (NQMom) in fm**2, nuclear magnetic moments (NMagM)
  in nuclear magnetons)

  Atom         1           2           3           4
 IAtWgt=          23          23          23          23
 AtmWgt=  22.9897697  22.9897697  22.9897697  22.9897697
 NucSpn=           3           3           3           3
 AtZEff=  -0.0000000  -0.0000000  -0.0000000  -0.0000000
 NQMom=   10.4000000  10.4000000  10.4000000  10.4000000
 NMagM=    2.2175200   2.2175200   2.2175200   2.2175200
 AtZNuc=  11.0000000  11.0000000  11.0000000  11.0000000
 Leave Link  101 at Wed Oct  4 14:13:55 2023, MaxMem=  1610612736 cpu:               2.1 elap:               1.3
 (Enter /home/sekinelabo/g16/l103.exe)

 GradGradGradGradGradGradGradGradGradGradGradGradGradGradGradGradGradGrad
 Berny optimization.
 Initialization pass.
 Trust Radius=3.00D-01 FncErr=1.00D-07 GrdErr=1.00D-07 EigMax=2.50D+02 EigMin=1.00D-04
 Number of steps in this run=      2 maximum allowed number of steps=      2.
 GradGradGradGradGradGradGradGradGradGradGradGradGradGradGradGradGradGrad

 Leave Link  103 at Wed Oct  4 14:13:55 2023, MaxMem=  1610612736 cpu:               0.6 elap:               0.4
 (Enter /home/sekinelabo/g16/l202.exe)
                          Input orientation:                          
 ---------------------------------------------------------------------
 Center     Atomic      Atomic             Coordinates (Angstroms)
 Number     Number       Type             X           Y           Z
 ---------------------------------------------------------------------
      1         11           0        0.000000    0.000000    0.000000
      2         11           0       -4.716024    0.000000    0.068623
      3         11           0        0.000000    0.000000    3.606692
      4         11           0        0.448602   -0.775069    6.817451
 ---------------------------------------------------------------------
                    Distance matrix (angstroms):
                    1          2          3          4
     1  Na   0.000000
     2  Na   4.716523   0.000000
     3  Na   3.606692   5.895661   0.000000
     4  Na   6.876017   8.533509   3.333309   0.000000
 Stoichiometry    Na4
 Framework group  C1[X(Na4)]
 Deg. of freedom     6
 Full point group                 C1      NOp   1
 Largest Abelian subgroup         C1      NOp   1
 Largest concise Abelian subgroup C1      NOp   1
                         Standard orientation:                         
 ---------------------------------------------------------------------
 Center     Atomic      Atomic             Coordinates (Angstroms)
 Number     Number       Type             X           Y           Z
 ---------------------------------------------------------------------
      1         11           0       -1.689963    2.277386   -0.119985
      2         11           0       -4.086377   -1.783576   -0.013341
      3         11           0        1.374848    0.418340    0.278898
      4         11           0        4.401492   -0.912150   -0.145572
 ---------------------------------------------------------------------
 Rotational constants (GHZ):           2.3168525           0.5370648           0.4379699
 Leave Link  202 at Wed Oct  4 14:13:56 2023, MaxMem=  1610612736 cpu:               1.1 elap:               0.6
 (Enter /home/sekinelabo/g16/l301.exe)
 Standard basis: 6-311+G(d) (5D, 7F)
 Ernie: Thresh=  0.10000D-02 Tol=  0.10000D-05 Strict=F.
 There are   124 symmetry adapted cartesian basis functions of A   symmetry.
 There are   120 symmetry adapted basis functions of A   symmetry.
   120 basis functions,   200 primitive gaussians,   124 cartesian basis functions
    22 alpha electrons       22 beta electrons
       nuclear repulsion energy        78.2144366361 Hartrees.
 IExCor=  402 DFT=T Ex+Corr=B3LYP ExCW=0 ScaHFX=  0.200000
 ScaDFX=  0.800000  0.720000  1.000000  0.810000 ScalE2=  1.000000  1.000000
 IRadAn=      5 IRanWt=     -1 IRanGd=            0 ICorTp=0 IEmpDi=  4
 NAtoms=    4 NActive=    4 NUniq=    4 SFac= 1.00D+00 NAtFMM=   60 NAOKFM=F Big=F
 Integral buffers will be    131072 words long.
 Raffenetti 2 integral format.
 Two-electron integral symmetry is turned on.
 Leave Link  301 at Wed Oct  4 14:13:56 2023, MaxMem=  1610612736 cpu:               0.8 elap:               0.5
 (Enter /home/sekinelabo/g16/l302.exe)
 NPDir=0 NMtPBC=     1 NCelOv=     1 NCel=       1 NClECP=     1 NCelD=      1
         NCelK=      1 NCelE2=     1 NClLst=     1 CellRange=     0.0.
 One-electron integrals computed using PRISM.
 One-electron integral symmetry used in STVInt
 NBasis=   120 RedAO= T EigKep=  1.66D-05  NBF=   120
 NBsUse=   120 1.00D-06 EigRej= -1.00D+00 NBFU=   120
 Precomputing XC quadrature grid using
 IXCGrd= 4 IRadAn=           5 IRanWt=          -1 IRanGd=           0 AccXCQ= 0.00D+00.
 Generated NRdTot=       0 NPtTot=           0 NUsed=           0 NTot=          32
 NSgBfM=   115   115   115   115   115 MxSgAt=     4 MxSgA2=     4.
 Leave Link  302 at Wed Oct  4 14:14:08 2023, MaxMem=  1610612736 cpu:              20.3 elap:              11.3
 (Enter /home/sekinelabo/g16/l303.exe)
 DipDrv:  MaxL=1.
 Leave Link  303 at Wed Oct  4 14:14:09 2023, MaxMem=  1610612736 cpu:               3.0 elap:               1.8
 (Enter /home/sekinelabo/g16/l401.exe)
 ExpMin= 7.60D-03 ExpMax= 3.62D+04 ExpMxC= 1.21D+03 IAcc=3 IRadAn=         5 AccDes= 0.00D+00
 Harris functional with IExCor=  402 and IRadAn=       5 diagonalized for initial guess.
 HarFok:  IExCor=  402 AccDes= 0.00D+00 IRadAn=         5 IDoV= 1 UseB2=F ITyADJ=14
 ICtDFT=  3500011 ScaDFX=  1.000000  1.000000  1.000000  1.000000
 FoFCou: FMM=F IPFlag=           0 FMFlag=      100000 FMFlg1=           0
         NFxFlg=           0 DoJE=T BraDBF=F KetDBF=T FulRan=T
         wScrn=  0.000000 ICntrl=       500 IOpCl=  0 I1Cent=   200000004 NGrid=           0
         NMat0=    1 NMatS0=      1 NMatT0=    0 NMatD0=    1 NMtDS0=    0 NMtDT0=    0
 Petite list used in FoFCou.
 Harris En= -649.060858155843    
 JPrj=0 DoOrth=F DoCkMO=F.
 Leave Link  401 at Wed Oct  4 14:14:18 2023, MaxMem=  1610612736 cpu:              14.4 elap:               8.4
 (Enter /home/sekinelabo/g16/l502.exe)
 Keep R1 ints in memory in canonical form, NReq=41581762.
 FoFCou: FMM=F IPFlag=           0 FMFlag=           0 FMFlg1=           0
         NFxFlg=           0 DoJE=F BraDBF=F KetDBF=F FulRan=T
         wScrn=  0.000000 ICntrl=       600 IOpCl=  0 I1Cent=           0 NGrid=           0
         NMat0=    1 NMatS0=   7260 NMatT0=    0 NMatD0=    1 NMtDS0=    0 NMtDT0=    0
 Symmetry not used in FoFCou.
 Two-electron integral symmetry not used.
 Closed shell SCF:
 Using DIIS extrapolation, IDIIS=  1040.
 NGot=  1610612736 LenX=  1584221380 LenY=  1584205563
 Requested convergence on RMS density matrix=1.00D-08 within 128 cycles.
 Requested convergence on MAX density matrix=1.00D-06.
 Requested convergence on             energy=1.00D-06.
 No special actions if energy rises.

 Cycle   1  Pass 1  IDiag  1:
 E= -649.161794234444    
 DIIS: error= 1.34D-02 at cycle   1 NSaved=   1.
 NSaved= 1 IEnMin= 1 EnMin= -649.161794234444     IErMin= 1 ErrMin= 1.34D-02
 ErrMax= 1.34D-02  0.00D+00 EMaxC= 1.00D-01 BMatC= 2.74D-02 BMatP= 2.74D-02
 IDIUse=3 WtCom= 8.66D-01 WtEn= 1.34D-01
 Coeff-Com:  0.100D+01
 Coeff-En:   0.100D+01
 Coeff:      0.100D+01
 Gap=     0.012 Goal=   None    Shift=    0.000
 GapD=    0.012 DampG=0.250 DampE=0.500 DampFc=0.2500 IDamp=-1.
 Damping current iteration by 2.50D-01
 RMSDP=8.42D-03 MaxDP=5.12D-01              OVMax= 5.99D-01

 Cycle   2  Pass 1  IDiag  1:
 E= -649.167164605723     Delta-E=       -0.005370371279 Rises=F Damp=T
 DIIS: error= 9.08D-03 at cycle   2 NSaved=   2.
 NSaved= 2 IEnMin= 2 EnMin= -649.167164605723     IErMin= 2 ErrMin= 9.08D-03
 ErrMax= 9.08D-03  0.00D+00 EMaxC= 1.00D-01 BMatC= 1.01D-02 BMatP= 2.74D-02
 IDIUse=3 WtCom= 9.09D-01 WtEn= 9.08D-02
 Coeff-Com: -0.975D+00 0.198D+01
 Coeff-En:   0.281D+00 0.719D+00
 Coeff:     -0.861D+00 0.186D+01
 Gap=     0.010 Goal=   None    Shift=    0.000
 RMSDP=5.28D-03 MaxDP=2.76D-01 DE=-5.37D-03 OVMax= 7.18D-01

 Cycle   3  Pass 1  IDiag  1:
 E= -649.097803399802     Delta-E=        0.069361205921 Rises=F Damp=F
 DIIS: error= 9.90D-03 at cycle   3 NSaved=   3.
 NSaved= 3 IEnMin= 2 EnMin= -649.167164605723     IErMin= 2 ErrMin= 9.08D-03
 ErrMax= 9.90D-03  0.00D+00 EMaxC= 1.00D-01 BMatC= 8.55D-03 BMatP= 1.01D-02
 IDIUse=3 WtCom= 9.01D-01 WtEn= 9.90D-02
 Rare condition: small coef for last iteration:  0.000D+00
 Coeff-Com: -0.684D+00 0.128D+01 0.401D+00
 Coeff-En:   0.255D+00 0.728D+00 0.171D-01
 Coeff:     -0.684D+00 0.128D+01 0.401D+00
 Gap=     0.041 Goal=   None    Shift=    0.000
 RMSDP=6.21D-03 MaxDP=3.22D-01 DE= 6.94D-02 OVMax= 5.74D-01

 Cycle   4  Pass 1  IDiag  1:
 E= -649.179247121296     Delta-E=       -0.081443721494 Rises=F Damp=F
 DIIS: error= 2.13D-03 at cycle   4 NSaved=   4.
 NSaved= 4 IEnMin= 4 EnMin= -649.179247121296     IErMin= 4 ErrMin= 2.13D-03
 ErrMax= 2.13D-03  0.00D+00 EMaxC= 1.00D-01 BMatC= 9.46D-04 BMatP= 8.55D-03
 IDIUse=3 WtCom= 9.79D-01 WtEn= 2.13D-02
 EnCoef did   100 forward-backward iterations
 Coeff-Com: -0.566D-01 0.119D+00 0.213D+00 0.725D+00
 Coeff-En:   0.195D+00 0.000D+00 0.272D-02 0.802D+00
 Coeff:     -0.512D-01 0.116D+00 0.208D+00 0.727D+00
 Gap=     0.026 Goal=   None    Shift=    0.000
 RMSDP=2.37D-03 MaxDP=1.34D-01 DE=-8.14D-02 OVMax= 1.69D-01

 Cycle   5  Pass 1  IDiag  1:
 E= -649.182994479875     Delta-E=       -0.003747358579 Rises=F Damp=F
 DIIS: error= 2.34D-03 at cycle   5 NSaved=   5.
 NSaved= 5 IEnMin= 5 EnMin= -649.182994479875     IErMin= 4 ErrMin= 2.13D-03
 ErrMax= 2.34D-03  0.00D+00 EMaxC= 1.00D-01 BMatC= 3.74D-04 BMatP= 9.46D-04
 IDIUse=3 WtCom= 9.77D-01 WtEn= 2.34D-02
 Coeff-Com:  0.708D-02-0.154D-01 0.691D-01 0.415D+00 0.524D+00
 Coeff-En:   0.000D+00 0.000D+00 0.000D+00 0.330D+00 0.670D+00
 Coeff:      0.691D-02-0.151D-01 0.675D-01 0.413D+00 0.528D+00
 Gap=     0.031 Goal=   None    Shift=    0.000
 RMSDP=1.21D-03 MaxDP=7.29D-02 DE=-3.75D-03 OVMax= 9.87D-02

 Cycle   6  Pass 1  IDiag  1:
 E= -649.185301879230     Delta-E=       -0.002307399355 Rises=F Damp=F
 DIIS: error= 1.03D-03 at cycle   6 NSaved=   6.
 NSaved= 6 IEnMin= 6 EnMin= -649.185301879230     IErMin= 6 ErrMin= 1.03D-03
 ErrMax= 1.03D-03  0.00D+00 EMaxC= 1.00D-01 BMatC= 8.59D-05 BMatP= 3.74D-04
 IDIUse=3 WtCom= 9.90D-01 WtEn= 1.03D-02
 Coeff-Com:  0.754D-02-0.112D-01-0.133D-02 0.389D-01 0.332D+00 0.635D+00
 Coeff-En:   0.000D+00 0.000D+00 0.000D+00 0.000D+00 0.186D+00 0.814D+00
 Coeff:      0.746D-02-0.111D-01-0.131D-02 0.385D-01 0.330D+00 0.636D+00
 Gap=     0.032 Goal=   None    Shift=    0.000
 RMSDP=5.15D-04 MaxDP=1.63D-02 DE=-2.31D-03 OVMax= 2.29D-02

 Cycle   7  Pass 1  IDiag  1:
 E= -649.185762281396     Delta-E=       -0.000460402166 Rises=F Damp=F
 DIIS: error= 1.30D-04 at cycle   7 NSaved=   7.
 NSaved= 7 IEnMin= 7 EnMin= -649.185762281396     IErMin= 7 ErrMin= 1.30D-04
 ErrMax= 1.30D-04  0.00D+00 EMaxC= 1.00D-01 BMatC= 3.42D-06 BMatP= 8.59D-05
 IDIUse=3 WtCom= 9.99D-01 WtEn= 1.30D-03
 Coeff-Com:  0.531D-03 0.559D-04-0.671D-02-0.105D-01 0.138D+00 0.247D+00
 Coeff-Com:  0.632D+00
 Coeff-En:   0.000D+00 0.000D+00 0.000D+00 0.000D+00 0.000D+00 0.000D+00
 Coeff-En:   0.100D+01
 Coeff:      0.530D-03 0.558D-04-0.670D-02-0.105D-01 0.138D+00 0.247D+00
 Coeff:      0.632D+00
 Gap=     0.032 Goal=   None    Shift=    0.000
 RMSDP=1.19D-04 MaxDP=3.75D-03 DE=-4.60D-04 OVMax= 3.51D-03

 Cycle   8  Pass 1  IDiag  1:
 E= -649.185774698762     Delta-E=       -0.000012417366 Rises=F Damp=F
 DIIS: error= 3.88D-05 at cycle   8 NSaved=   8.
 NSaved= 8 IEnMin= 8 EnMin= -649.185774698762     IErMin= 8 ErrMin= 3.88D-05
 ErrMax= 3.88D-05  0.00D+00 EMaxC= 1.00D-01 BMatC= 1.77D-07 BMatP= 3.42D-06
 IDIUse=1 WtCom= 1.00D+00 WtEn= 0.00D+00
 Coeff-Com: -0.225D-02 0.329D-02-0.246D-02-0.164D-02 0.224D-01 0.158D-01
 Coeff-Com:  0.146D+00 0.819D+00
 Coeff:     -0.225D-02 0.329D-02-0.246D-02-0.164D-02 0.224D-01 0.158D-01
 Coeff:      0.146D+00 0.819D+00
 Gap=     0.031 Goal=   None    Shift=    0.000
 RMSDP=4.03D-05 MaxDP=1.18D-03 DE=-1.24D-05 OVMax= 1.52D-03

 Cycle   9  Pass 1  IDiag  1:
 E= -649.185775485125     Delta-E=       -0.000000786363 Rises=F Damp=F
 DIIS: error= 1.77D-05 at cycle   9 NSaved=   9.
 NSaved= 9 IEnMin= 9 EnMin= -649.185775485125     IErMin= 9 ErrMin= 1.77D-05
 ErrMax= 1.77D-05  0.00D+00 EMaxC= 1.00D-01 BMatC= 4.13D-08 BMatP= 1.77D-07
 IDIUse=1 WtCom= 1.00D+00 WtEn= 0.00D+00
 Coeff-Com: -0.186D-02 0.253D-02-0.297D-03 0.313D-02-0.979D-02-0.223D-01
 Coeff-Com: -0.268D-01 0.201D+00 0.854D+00
 Coeff:     -0.186D-02 0.253D-02-0.297D-03 0.313D-02-0.979D-02-0.223D-01
 Coeff:     -0.268D-01 0.201D+00 0.854D+00
 Gap=     0.031 Goal=   None    Shift=    0.000
 RMSDP=1.34D-05 MaxDP=3.60D-04 DE=-7.86D-07 OVMax= 5.62D-04

 Cycle  10  Pass 1  IDiag  1:
 E= -649.185775771840     Delta-E=       -0.000000286715 Rises=F Damp=F
 DIIS: error= 6.72D-06 at cycle  10 NSaved=  10.
 NSaved=10 IEnMin=10 EnMin= -649.185775771840     IErMin=10 ErrMin= 6.72D-06
 ErrMax= 6.72D-06  0.00D+00 EMaxC= 1.00D-01 BMatC= 3.31D-09 BMatP= 4.13D-08
 IDIUse=1 WtCom= 1.00D+00 WtEn= 0.00D+00
 Coeff-Com: -0.485D-03 0.682D-03 0.450D-04 0.100D-02-0.377D-02-0.570D-02
 Coeff-Com: -0.206D-01-0.551D-01 0.493D-01 0.103D+01
 Coeff:     -0.485D-03 0.682D-03 0.450D-04 0.100D-02-0.377D-02-0.570D-02
 Coeff:     -0.206D-01-0.551D-01 0.493D-01 0.103D+01
 Gap=     0.031 Goal=   None    Shift=    0.000
 RMSDP=6.61D-06 MaxDP=1.78D-04 DE=-2.87D-07 OVMax= 3.53D-04

 Cycle  11  Pass 1  IDiag  1:
 E= -649.185775799647     Delta-E=       -0.000000027807 Rises=F Damp=F
 DIIS: error= 9.38D-07 at cycle  11 NSaved=  11.
 NSaved=11 IEnMin=11 EnMin= -649.185775799647     IErMin=11 ErrMin= 9.38D-07
 ErrMax= 9.38D-07  0.00D+00 EMaxC= 1.00D-01 BMatC= 1.37D-10 BMatP= 3.31D-09
 IDIUse=1 WtCom= 1.00D+00 WtEn= 0.00D+00
 Coeff-Com: -0.360D-04 0.476D-04 0.732D-05-0.140D-04 0.317D-03 0.886D-03
 Coeff-Com: -0.869D-03-0.811D-02-0.272D-01 0.241D+00 0.794D+00
 Coeff:     -0.360D-04 0.476D-04 0.732D-05-0.140D-04 0.317D-03 0.886D-03
 Coeff:     -0.869D-03-0.811D-02-0.272D-01 0.241D+00 0.794D+00
 Gap=     0.031 Goal=   None    Shift=    0.000
 RMSDP=1.43D-06 MaxDP=4.56D-05 DE=-2.78D-08 OVMax= 6.02D-05

 Cycle  12  Pass 1  IDiag  1:
 E= -649.185775800571     Delta-E=       -0.000000000924 Rises=F Damp=F
 DIIS: error= 3.28D-07 at cycle  12 NSaved=  12.
 NSaved=12 IEnMin=12 EnMin= -649.185775800571     IErMin=12 ErrMin= 3.28D-07
 ErrMax= 3.28D-07  0.00D+00 EMaxC= 1.00D-01 BMatC= 6.85D-12 BMatP= 1.37D-10
 IDIUse=1 WtCom= 1.00D+00 WtEn= 0.00D+00
 Coeff-Com:  0.129D-04-0.170D-04 0.550D-05-0.507D-04 0.207D-03 0.378D-03
 Coeff-Com:  0.984D-03-0.176D-02-0.797D-02 0.680D-02 0.196D+00 0.806D+00
 Coeff:      0.129D-04-0.170D-04 0.550D-05-0.507D-04 0.207D-03 0.378D-03
 Coeff:      0.984D-03-0.176D-02-0.797D-02 0.680D-02 0.196D+00 0.806D+00
 Gap=     0.031 Goal=   None    Shift=    0.000
 RMSDP=2.71D-07 MaxDP=8.80D-06 DE=-9.24D-10 OVMax= 1.69D-05

 Cycle  13  Pass 1  IDiag  1:
 E= -649.185775800588     Delta-E=       -0.000000000018 Rises=F Damp=F
 DIIS: error= 1.70D-07 at cycle  13 NSaved=  13.
 NSaved=13 IEnMin=13 EnMin= -649.185775800588     IErMin=13 ErrMin= 1.70D-07
 ErrMax= 1.70D-07  0.00D+00 EMaxC= 1.00D-01 BMatC= 2.65D-12 BMatP= 6.85D-12
 IDIUse=1 WtCom= 1.00D+00 WtEn= 0.00D+00
 Coeff-Com:  0.875D-05-0.113D-04 0.334D-06-0.318D-04 0.103D-04 0.305D-04
 Coeff-Com:  0.187D-03-0.112D-03 0.122D-03-0.257D-02-0.319D-01 0.165D+00
 Coeff-Com:  0.869D+00
 Coeff:      0.875D-05-0.113D-04 0.334D-06-0.318D-04 0.103D-04 0.305D-04
 Coeff:      0.187D-03-0.112D-03 0.122D-03-0.257D-02-0.319D-01 0.165D+00
 Coeff:      0.869D+00
 Gap=     0.031 Goal=   None    Shift=    0.000
 RMSDP=9.39D-08 MaxDP=4.18D-06 DE=-1.76D-11 OVMax= 8.17D-06

 Cycle  14  Pass 1  IDiag  1:
 E= -649.185775800609     Delta-E=       -0.000000000021 Rises=F Damp=F
 DIIS: error= 2.00D-08 at cycle  14 NSaved=  14.
 NSaved=14 IEnMin=14 EnMin= -649.185775800609     IErMin=14 ErrMin= 2.00D-08
 ErrMax= 2.00D-08  0.00D+00 EMaxC= 1.00D-01 BMatC= 3.95D-14 BMatP= 2.65D-12
 IDIUse=1 WtCom= 1.00D+00 WtEn= 0.00D+00
 Coeff-Com:  0.310D-06-0.384D-06 0.340D-07-0.231D-05-0.457D-05-0.459D-05
 Coeff-Com: -0.431D-05 0.135D-05 0.307D-03 0.208D-02-0.749D-02-0.588D-02
 Coeff-Com:  0.696D-01 0.941D+00
 Coeff:      0.310D-06-0.384D-06 0.340D-07-0.231D-05-0.457D-05-0.459D-05
 Coeff:     -0.431D-05 0.135D-05 0.307D-03 0.208D-02-0.749D-02-0.588D-02
 Coeff:      0.696D-01 0.941D+00
 Gap=     0.031 Goal=   None    Shift=    0.000
 RMSDP=1.80D-08 MaxDP=5.63D-07 DE=-2.09D-11 OVMax= 1.11D-06

 Cycle  15  Pass 1  IDiag  1:
 E= -649.185775800609     Delta-E=        0.000000000001 Rises=F Damp=F
 DIIS: error= 2.27D-09 at cycle  15 NSaved=  15.
 NSaved=15 IEnMin=14 EnMin= -649.185775800609     IErMin=15 ErrMin= 2.27D-09
 ErrMax= 2.27D-09  0.00D+00 EMaxC= 1.00D-01 BMatC= 9.74D-16 BMatP= 3.95D-14
 IDIUse=1 WtCom= 1.00D+00 WtEn= 0.00D+00
 Coeff-Com: -0.194D-06 0.264D-06-0.574D-07 0.427D-06-0.117D-05-0.311D-05
 Coeff-Com: -0.409D-05 0.262D-04 0.289D-04-0.740D-04-0.547D-03-0.677D-02
 Coeff-Com: -0.229D-01 0.192D+00 0.839D+00
 Coeff:     -0.194D-06 0.264D-06-0.574D-07 0.427D-06-0.117D-05-0.311D-05
 Coeff:     -0.409D-05 0.262D-04 0.289D-04-0.740D-04-0.547D-03-0.677D-02
 Coeff:     -0.229D-01 0.192D+00 0.839D+00
 Gap=     0.031 Goal=   None    Shift=    0.000
 RMSDP=2.20D-09 MaxDP=5.39D-08 DE= 6.82D-13 OVMax= 9.78D-08

 SCF Done:  E(RB3LYP) =  -649.185775801     A.U. after   15 cycles
            NFock= 15  Conv=0.22D-08     -V/T= 2.0030
 KE= 6.472600427578D+02 PE=-1.715531291967D+03 EE= 3.408710367730D+02
 Leave Link  502 at Wed Oct  4 14:15:49 2023, MaxMem=  1610612736 cpu:             161.8 elap:              91.3
 (Enter /home/sekinelabo/g16/l601.exe)
 Copying SCF densities to generalized density rwf, IOpCl= 0 IROHF=0.

 **********************************************************************

            Population analysis using the SCF Density.

 **********************************************************************

 Orbital symmetries:
       Occupied  (A) (A) (A) (A) (A) (A) (A) (A) (A) (A) (A) (A)
                 (A) (A) (A) (A) (A) (A) (A) (A) (A) (A)
       Virtual   (A) (A) (A) (A) (A) (A) (A) (A) (A) (A) (A) (A)
                 (A) (A) (A) (A) (A) (A) (A) (A) (A) (A) (A) (A)
                 (A) (A) (A) (A) (A) (A) (A) (A) (A) (A) (A) (A)
                 (A) (A) (A) (A) (A) (A) (A) (A) (A) (A) (A) (A)
                 (A) (A) (A) (A) (A) (A) (A) (A) (A) (A) (A) (A)
                 (A) (A) (A) (A) (A) (A) (A) (A) (A) (A) (A) (A)
                 (A) (A) (A) (A) (A) (A) (A) (A) (A) (A) (A) (A)
                 (A) (A) (A) (A) (A) (A) (A) (A) (A) (A) (A) (A)
                 (A) (A)
 The electronic state is 1-A.
 Alpha  occ. eigenvalues --  -38.46496 -38.45885 -38.44058 -38.43637  -2.22168
 Alpha  occ. eigenvalues --   -2.21596  -2.19815  -2.19411  -1.15848  -1.15848
 Alpha  occ. eigenvalues --   -1.15799  -1.15276  -1.15264  -1.15228  -1.13480
 Alpha  occ. eigenvalues --   -1.13479  -1.13463  -1.13099  -1.13098  -1.13024
 Alpha  occ. eigenvalues --   -0.13821  -0.11505
 Alpha virt. eigenvalues --   -0.08356  -0.04797  -0.02848  -0.02788  -0.01801
 Alpha virt. eigenvalues --   -0.01531  -0.01373  -0.00621  -0.00413   0.00195
 Alpha virt. eigenvalues --    0.00274   0.00854   0.00995   0.01072   0.01305
 Alpha virt. eigenvalues --    0.01482   0.01621   0.01825   0.01913   0.02021
 Alpha virt. eigenvalues --    0.02091   0.02339   0.02582   0.02817   0.03296
 Alpha virt. eigenvalues --    0.03447   0.03499   0.03749   0.04181   0.05392
 Alpha virt. eigenvalues --    0.06702   0.07319   0.07604   0.08003   0.08117
 Alpha virt. eigenvalues --    0.08231   0.08394   0.08603   0.09023   0.09997
 Alpha virt. eigenvalues --    0.10546   0.10886   0.11241   0.13596   0.13944
 Alpha virt. eigenvalues --    0.16624   0.28543   0.29088   0.31127   0.32563
 Alpha virt. eigenvalues --    0.32902   0.34097   0.34260   0.34309   0.34385
 Alpha virt. eigenvalues --    0.34936   0.35756   0.36543   0.36679   0.37419
 Alpha virt. eigenvalues --    0.38647   0.38742   0.40355   0.42315   0.42886
 Alpha virt. eigenvalues --    0.43493   0.43868   0.44028   0.44665   0.45113
 Alpha virt. eigenvalues --    0.45332   0.46244   0.46594   0.47190   0.48640
 Alpha virt. eigenvalues --    0.49645   0.54129   0.64698   1.99863   2.02031
 Alpha virt. eigenvalues --    2.08808   2.14693   4.42138   4.42295   4.42901
 Alpha virt. eigenvalues --    4.43406   4.43533   4.44730   4.44817   4.45407
 Alpha virt. eigenvalues --    4.45836   4.46820   4.47234   4.55623  96.18712
 Alpha virt. eigenvalues --   96.21214  96.29554  96.36195
          Condensed to atoms (all electrons):
               1          2          3          4
     1  Na  10.475090   0.060722   0.072949  -0.035831
     2  Na   0.060722  10.880280  -0.022336   0.031042
     3  Na   0.072949  -0.022336  11.265630   0.309852
     4  Na  -0.035831   0.031042   0.309852  10.546203
 Mulliken charges:
               1
     1  Na   0.427070
     2  Na   0.050291
     3  Na  -0.626095
     4  Na   0.148734
 Sum of Mulliken charges =   0.00000
 Mulliken charges with hydrogens summed into heavy atoms:
               1
     1  Na   0.427070
     2  Na   0.050291
     3  Na  -0.626095
     4  Na   0.148734
 Electronic spatial extent (au):  <R**2>=           2058.4421
 Charge=              0.0000 electrons
 Dipole moment (field-independent basis, Debye):
    X=             -1.2670    Y=             -0.2228    Z=             -0.1318  Tot=              1.2932
 Quadrupole moment (field-independent basis, Debye-Ang):
   XX=            -33.6246   YY=            -32.2459   ZZ=            -44.8750
   XY=              0.1113   XZ=             -0.7880   YZ=             -0.2074
 Traceless Quadrupole moment (field-independent basis, Debye-Ang):
   XX=              3.2905   YY=              4.6693   ZZ=             -7.9598
   XY=              0.1113   XZ=             -0.7880   YZ=             -0.2074
 Octapole moment (field-independent basis, Debye-Ang**2):
  XXX=             27.5052  YYY=             14.1967  ZZZ=             -0.2403  XYY=            -27.2248
  XXY=            -45.6263  XXZ=             -6.3140  XZZ=             -0.4825  YZZ=              0.9387
  YYZ=             -2.0807  XYZ=              2.5567
 Hexadecapole moment (field-independent basis, Debye-Ang**3):
 XXXX=          -2372.5604 YYYY=           -625.4352 ZZZZ=           -201.8552 XXXY=             16.8121
 XXXZ=            -34.1555 YYYX=            -14.8812 YYYZ=             -4.6117 ZZZX=             -3.5850
 ZZZY=             -0.8524 XXYY=           -483.8258 XXZZ=           -519.7997 YYZZ=           -150.1464
 XXYZ=              4.6580 YYXZ=              0.3743 ZZXY=             -0.9529
 N-N= 7.821443663607D+01 E-N=-1.715531291849D+03  KE= 6.472600427578D+02
 No NMR shielding tensors so no spin-rotation constants.
 Leave Link  601 at Wed Oct  4 14:15:54 2023, MaxMem=  1610612736 cpu:               8.1 elap:               4.4
 (Enter /home/sekinelabo/g16/l701.exe)
 ... and contract with generalized density number  0.
 Compute integral first derivatives.
 Leave Link  701 at Wed Oct  4 14:15:58 2023, MaxMem=  1610612736 cpu:               7.2 elap:               4.1
 (Enter /home/sekinelabo/g16/l702.exe)
 L702 exits ... SP integral derivatives will be done elsewhere.
 Leave Link  702 at Wed Oct  4 14:15:58 2023, MaxMem=  1610612736 cpu:               0.6 elap:               0.4
 (Enter /home/sekinelabo/g16/l703.exe)
 Integral derivatives from FoFJK, PRISM(SPDF).
 Compute integral first derivatives, UseDBF=F ICtDFT=           0.
 Calling FoFJK, ICntrl=      2127 FMM=F ISym2X=0 I1Cent= 0 IOpClX= 0 NMat=1 NMatS=1 NMatT=0.
 FoFJK:  IHMeth= 1 ICntrl=    2127 DoSepK=F KAlg= 0 I1Cent=           0 FoldK=F
 IRaf=         0 NMat=       1 IRICut=       1 DoRegI=T DoRafI=F ISym2E= 0 IDoP0=0 IntGTp=1.
 FoFCou: FMM=F IPFlag=           0 FMFlag=      100000 FMFlg1=         800
         NFxFlg=           0 DoJE=F BraDBF=F KetDBF=F FulRan=T
         wScrn=  0.000000 ICntrl=      2127 IOpCl=  0 I1Cent=           0 NGrid=           0
         NMat0=    1 NMatS0=      1 NMatT0=    0 NMatD0=    1 NMtDS0=    0 NMtDT0=    0
 Symmetry not used in FoFCou.
 Leave Link  703 at Wed Oct  4 14:16:05 2023, MaxMem=  1610612736 cpu:              12.2 elap:               6.8
 (Enter /home/sekinelabo/g16/l716.exe)
 Dipole        =-4.98491889D-01-8.76673740D-02-5.18639858D-02
 ***** Axes restored to original set *****
 -------------------------------------------------------------------
 Center     Atomic                   Forces (Hartrees/Bohr)
 Number     Number              X              Y              Z
 -------------------------------------------------------------------
      1       11          -0.006313148   -0.000001448    0.001224510
      2       11           0.006617210    0.000055765   -0.000071757
      3       11          -0.000236794   -0.000758054    0.001518671
      4       11          -0.000067267    0.000703737   -0.002671424
 -------------------------------------------------------------------
 Cartesian Forces:  Max     0.006617210 RMS     0.002824363
 Z-matrix is all fixed cartesians, so copy forces.
 Force constants in Cartesian coordinates: 
                1             2             3             4             5 
      1  0.135047D-02
      2 -0.233327D-02  0.403129D-02
      3  0.000000D+00  0.000000D+00  0.162035D-01
      4  0.000000D+00  0.000000D+00  0.000000D+00  0.100000D+01
      5  0.000000D+00  0.000000D+00  0.000000D+00  0.000000D+00  0.100000D+01
      6  0.000000D+00  0.000000D+00  0.000000D+00  0.000000D+00  0.000000D+00
      7 -0.275798D-02  0.476508D-02  0.000000D+00  0.000000D+00  0.000000D+00
      8  0.476508D-02 -0.823284D-02  0.000000D+00  0.000000D+00  0.000000D+00
      9  0.783688D-03 -0.135401D-02 -0.162035D-01  0.000000D+00  0.000000D+00
     10  0.140751D-02 -0.243181D-02  0.000000D+00  0.000000D+00  0.000000D+00
     11 -0.243181D-02  0.420155D-02  0.000000D+00  0.000000D+00  0.000000D+00
     12 -0.783688D-03  0.135401D-02  0.000000D+00  0.000000D+00  0.000000D+00
                6             7             8             9            10 
      6  0.100000D+01
      7  0.000000D+00  0.604708D-02
      8  0.000000D+00 -0.104478D-01  0.180511D-01
      9  0.000000D+00  0.136726D-02 -0.236227D-02  0.378992D-01
     10  0.000000D+00 -0.328911D-02  0.568273D-02 -0.215095D-02  0.188160D-02
     11  0.000000D+00  0.568273D-02 -0.981831D-02  0.371629D-02 -0.325092D-02
     12  0.000000D+00 -0.136726D-02  0.236227D-02 -0.216956D-01  0.215095D-02
               11            12 
     11  0.561676D-02
     12 -0.371629D-02  0.216956D-01
 Leave Link  716 at Wed Oct  4 14:16:05 2023, MaxMem=  1610612736 cpu:               0.8 elap:               0.4
 (Enter /home/sekinelabo/g16/l103.exe)

 GradGradGradGradGradGradGradGradGradGradGradGradGradGradGradGradGradGrad
 Berny optimization.
 Search for a local minimum.
 Step number   1 out of a maximum of    2
 All quantities printed in internal units (Hartrees-Bohrs-Radians)
 Second derivative matrix not updated -- first step.
 The second derivative matrix:
                          X1        Y1        Z1        X2        Y2
           X1           0.00135
           Y1          -0.00233   0.00403
           Z1           0.00000   0.00000   0.01620
           X2           0.00000   0.00000   0.00000   1.00000
           Y2           0.00000   0.00000   0.00000  -0.00000   1.00000
           Z2           0.00000   0.00000   0.00000   0.00000  -0.00000
           X3          -0.00276   0.00477   0.00000   0.00000   0.00000
           Y3           0.00477  -0.00823  -0.00000   0.00000   0.00000
           Z3           0.00078  -0.00135  -0.01620   0.00000   0.00000
           X4           0.00141  -0.00243  -0.00000   0.00000   0.00000
           Y4          -0.00243   0.00420   0.00000   0.00000   0.00000
           Z4          -0.00078   0.00135   0.00000   0.00000   0.00000
                          Z2        X3        Y3        Z3        X4
           Z2           1.00000
           X3           0.00000   0.00605
           Y3           0.00000  -0.01045   0.01805
           Z3           0.00000   0.00137  -0.00236   0.03790
           X4           0.00000  -0.00329   0.00568  -0.00215   0.00188
           Y4           0.00000   0.00568  -0.00982   0.00372  -0.00325
           Z4           0.00000  -0.00137   0.00236  -0.02170   0.00215
                          Y4        Z4
           Y4           0.00562
           Z4          -0.00372   0.02170
 ITU=  0
     Eigenvalues ---    0.00675   0.01842   0.03551   0.05885   0.35392
     Eigenvalues ---    0.75000
 Angle between quadratic step and forces=  68.84 degrees.
 Linear search not attempted -- first point.
 B after Tr=    -0.000000    0.000000    0.000000
         Rot=    1.000000   -0.000000   -0.000000    0.000000 Ang=   0.00 deg.
 Variable       Old X    -DE/DX   Delta X   Delta X   Delta X     New X
                                 (Linear)    (Quad)   (Total)
    X1       -0.00000  -0.00631   0.00000  -0.09360  -0.09360  -0.09360
    Y1        0.00000  -0.00000   0.00000  -0.02475  -0.02475  -0.02475
    Z1        0.00000   0.00122   0.00000   0.08072   0.08072   0.08072
    X2       -8.91199   0.00662   0.00000   0.01262   0.01262  -8.89937
    Y2        0.00000   0.00006   0.00000  -0.01785  -0.01785  -0.01785
    Z2        0.12968  -0.00007   0.00000  -0.00688  -0.00688   0.12279
    X3        0.00000  -0.00024   0.00000   0.17455   0.17455   0.17455
    Y3       -0.00000  -0.00076   0.00000   0.06853   0.06853   0.06853
    Z3        6.81566   0.00152   0.00000   0.01539   0.01539   6.83105
    X4        0.84773  -0.00007   0.00000  -0.09358  -0.09358   0.75415
    Y4       -1.46467   0.00070   0.00000  -0.02593  -0.02593  -1.49060
    Z4       12.88312  -0.00267   0.00000  -0.08922  -0.08922  12.79390
         Item               Value     Threshold  Converged?
 Maximum Force            0.006617     0.000450     NO 
 RMS     Force            0.002824     0.000300     NO 
 Maximum Displacement     0.174555     0.001800     NO 
 RMS     Displacement     0.075942     0.001200     NO 
 Predicted change in Energy=-4.646344D-04
 GradGradGradGradGradGradGradGradGradGradGradGradGradGradGradGradGradGrad

 Leave Link  103 at Wed Oct  4 14:16:08 2023, MaxMem=  1610612736 cpu:               3.9 elap:               2.2
 (Enter /home/sekinelabo/g16/l9999.exe)
 1\1\GINC-SEKINELABO-XA7R-R37\Force\RB3LYP\6-311+G(d)\Na4\SEKINELABO\04
 -Oct-2023\0\\#p B3LYP/6-311+g(d) force\\\0,1\Na,0.,0.,0.\Na,-4.7160235
 155,0.,0.0686225321\Na,0.,0.,3.6066921493\Na,0.4486018347,-0.775069334
 8,6.8174511419\\Version=ES64L-G16RevB.01\State=1-A\HF=-649.1857758\RMS
 D=2.202e-09\RMSF=2.824e-03\Dipole=-0.3332122,-0.0164828,-0.3841452\Qua
 drupole=3.2815297,-5.7329362,2.4514064,-0.1966575,-0.4332479,-1.361737
 9\PG=C01 [X(Na4)]\\@


 The chemist is a guest at the physicist's table and
 frequently dines well.
                   -- Richard Bersohn
 Job cpu time:       0 days  0 hours  3 minutes 58.6 seconds.
 Elapsed time:       0 days  0 hours  2 minutes 14.8 seconds.
 File lengths (MBytes):  RWF=     10 Int=      0 D2E=      0 Chk=      2 Scr=      1
 Normal termination of Gaussian 16 at Wed Oct  4 14:16:08 2023.
 Initial command:
 /home/sekinelabo/g16/l1.exe "/home/sekinelabo/g16temp/Gau-8046.inp" -scrdir="/home/sekinelabo/g16temp/"
 Entering Link 1 = /home/sekinelabo/g16/l1.exe PID=     13488.
  
 Copyright (c) 1988-2017, Gaussian, Inc.  All Rights Reserved.
  
 This is part of the Gaussian(R) 16 program.  It is based on
 the Gaussian(R) 09 system (copyright 2009, Gaussian, Inc.),
 the Gaussian(R) 03 system (copyright 2003, Gaussian, Inc.),
 the Gaussian(R) 98 system (copyright 1998, Gaussian, Inc.),
 the Gaussian(R) 94 system (copyright 1995, Gaussian, Inc.),
 the Gaussian 92(TM) system (copyright 1992, Gaussian, Inc.),
 the Gaussian 90(TM) system (copyright 1990, Gaussian, Inc.),
 the Gaussian 88(TM) system (copyright 1988, Gaussian, Inc.),
 the Gaussian 86(TM) system (copyright 1986, Carnegie Mellon
 University), and the Gaussian 82(TM) system (copyright 1983,
 Carnegie Mellon University). Gaussian is a federally registered
 trademark of Gaussian, Inc.
  
 This software contains proprietary and confidential information,
 including trade secrets, belonging to Gaussian, Inc.
  
 This software is provided under written license and may be
 used, copied, transmitted, or stored only in accord with that
 written license.
  
 The following legend is applicable only to US Government
 contracts under FAR:
  
                    RESTRICTED RIGHTS LEGEND
  
 Use, reproduction and disclosure by the US Government is
 subject to restrictions as set forth in subparagraphs (a)
 and (c) of the Commercial Computer Software - Restricted
 Rights clause in FAR 52.227-19.
  
 Gaussian, Inc.
 340 Quinnipiac St., Bldg. 40, Wallingford CT 06492
  
  
 ---------------------------------------------------------------
 Warning -- This program may not be used in any manner that
 competes with the business of Gaussian, Inc. or will provide
 assistance to any competitor of Gaussian, Inc.  The licensee
 of this program is prohibited from giving any competitor of
 Gaussian, Inc. access to this program.  By using this program,
 the user acknowledges that Gaussian, Inc. is engaged in the
 business of creating and licensing software in the field of
 computational chemistry and represents and warrants to the
 licensee that it is not a competitor of Gaussian, Inc. and that
 it will not use this program in any manner prohibited above.
 ---------------------------------------------------------------
  

 Cite this work as:
 Gaussian 16, Revision B.01,
 M. J. Frisch, G. W. Trucks, H. B. Schlegel, G. E. Scuseria, 
 M. A. Robb, J. R. Cheeseman, G. Scalmani, V. Barone, 
 G. A. Petersson, H. Nakatsuji, X. Li, M. Caricato, A. V. Marenich, 
 J. Bloino, B. G. Janesko, R. Gomperts, B. Mennucci, H. P. Hratchian, 
 J. V. Ortiz, A. F. Izmaylov, J. L. Sonnenberg, D. Williams-Young, 
 F. Ding, F. Lipparini, F. Egidi, J. Goings, B. Peng, A. Petrone, 
 T. Henderson, D. Ranasinghe, V. G. Zakrzewski, J. Gao, N. Rega, 
 G. Zheng, W. Liang, M. Hada, M. Ehara, K. Toyota, R. Fukuda, 
 J. Hasegawa, M. Ishida, T. Nakajima, Y. Honda, O. Kitao, H. Nakai, 
 T. Vreven, K. Throssell, J. A. Montgomery, Jr., J. E. Peralta, 
 F. Ogliaro, M. J. Bearpark, J. J. Heyd, E. N. Brothers, K. N. Kudin, 
 V. N. Staroverov, T. A. Keith, R. Kobayashi, J. Normand, 
 K. Raghavachari, A. P. Rendell, J. C. Burant, S. S. Iyengar, 
 J. Tomasi, M. Cossi, J. M. Millam, M. Klene, C. Adamo, R. Cammi, 
 J. W. Ochterski, R. L. Martin, K. Morokuma, O. Farkas, 
 J. B. Foresman, and D. J. Fox, Gaussian, Inc., Wallingford CT, 2016.
 
 ******************************************
 Gaussian 16:  ES64L-G16RevB.01 20-Dec-2017
                 4-Oct-2023 
 ******************************************
 %NProcShared=16
 Will use up to   16 processors via shared memory.
 %mem=12GB
 %Chk=checkpoint.chk
 -------------------------
 #p B3LYP/6-311+g(d) force
 -------------------------
 1/10=7,30=1,38=1/1,3;
 2/12=2,17=6,18=5,40=1/2;
 3/5=4,6=6,7=11,11=2,25=1,30=1,71=1,74=-5/1,2,3;
 4//1;
 5/5=2,38=5/2;
 6/7=2,8=2,9=2,10=2,28=1/1;
 7/29=1/1,2,3,16;
 1/10=7,30=1/3;
 99//99;
 Leave Link    1 at Wed Oct  4 14:16:08 2023, MaxMem=  1610612736 cpu:               0.5 elap:               0.3
 (Enter /home/sekinelabo/g16/l101.exe)


 Symbolic Z-matrix:
 Charge =  0 Multiplicity = 1
 Na                    0.        0.        0. 
 Na                   -2.44441   0.       -1.61855 
 Na                    0.        0.        3.00296 
 Na                    3.59911  -0.81289  -0.49189 
 
 ITRead=  0  0  0  0
 MicOpt= -1 -1 -1 -1
 NAtoms=      4 NQM=        4 NQMF=       0 NMMI=      0 NMMIF=      0
                NMic=       0 NMicF=      0.
                    Isotopes and Nuclear Properties:
 (Nuclear quadrupole moments (NQMom) in fm**2, nuclear magnetic moments (NMagM)
  in nuclear magnetons)

  Atom         1           2           3           4
 IAtWgt=          23          23          23          23
 AtmWgt=  22.9897697  22.9897697  22.9897697  22.9897697
 NucSpn=           3           3           3           3
[...]
 DIIS: error= 7.52D-03 at cycle 115 NSaved=   8.
 NSaved= 8 IEnMin= 1 EnMin= -649.115780560760     IErMin= 3 ErrMin= 6.21D-03
 ErrMax= 7.52D-03  0.00D+00 EMaxC= 1.00D-01 BMatC= 5.85D-03 BMatP= 3.47D-03
 IDIUse=3 WtCom= 9.42D-01 WtEn= 5.81D-02
 EnCoef did   100 forward-backward iterations
 Coeff-Com: -0.277D-01-0.149D+00 0.685D+00 0.994D+00 0.149D+01-0.767D+01
 Coeff-Com:  0.430D+01 0.138D+01
 Coeff-En:   0.000D+00 0.000D+00 0.512D+00 0.135D-02 0.477D+00 0.000D+00
 Coeff-En:   0.000D+00 0.101D-01
 Coeff:     -0.261D-01-0.140D+00 0.675D+00 0.937D+00 0.143D+01-0.723D+01
 Coeff:      0.405D+01 0.130D+01
 Gap=     0.021 Goal=   None    Shift=    0.000
 RMSDP=4.96D-04 MaxDP=2.60D-02 DE=-1.42D-02 OVMax= 3.02D-02

 Cycle 116  Pass 1  IDiag  1:
 E= -649.064251842743     Delta-E=       -0.006177738317 Rises=F Damp=F
 DIIS: error= 7.76D-03 at cycle 116 NSaved=   9.
 NSaved= 9 IEnMin= 1 EnMin= -649.115780560760     IErMin= 3 ErrMin= 6.21D-03
 ErrMax= 7.76D-03  0.00D+00 EMaxC= 1.00D-01 BMatC= 5.72D-03 BMatP= 3.47D-03
 IDIUse=3 WtCom= 9.42D-01 WtEn= 5.81D-02
 Large coefficients: NSaved=  9 BigCof=   14.46 CofMax=   10.00 Det=-2.25D-07
 Inversion failed.  Reducing to  8 matrices.
 EnCoef did   100 forward-backward iterations
 Rare condition: small coef for last iteration: -0.828D-15
 Coeff-Com: -0.176D-01-0.189D+00 0.740D+00 0.693D+00 0.146D+01-0.796D+00
 Coeff-Com:  0.126D+01-0.215D+01
 Coeff-En:   0.000D+00 0.000D+00 0.536D+00 0.000D+00 0.000D+00 0.000D+00
 Coeff-En:   0.000D+00 0.464D+00
 Coeff:     -0.176D-01-0.189D+00 0.740D+00 0.693D+00 0.146D+01-0.796D+00
 Coeff:      0.126D+01-0.215D+01
 Gap=     0.023 Goal=   None    Shift=    0.000
 RMSDP=4.25D-04 MaxDP=2.01D-02 DE=-6.18D-03 OVMax= 3.36D-02

 Cycle 117  Pass 1  IDiag  1:
 E= -649.056724930790     Delta-E=        0.007526911953 Rises=F Damp=F
 DIIS: error= 7.48D-03 at cycle 117 NSaved=   9.
 NSaved= 9 IEnMin= 1 EnMin= -649.115780560760     IErMin= 3 ErrMin= 6.21D-03
 ErrMax= 7.48D-03  0.00D+00 EMaxC= 1.00D-01 BMatC= 5.85D-03 BMatP= 3.47D-03
 IDIUse=3 WtCom= 9.42D-01 WtEn= 5.81D-02
 EnCoef did   100 forward-backward iterations
 Rare condition: small coef for last iteration:  0.000D+00
 Coeff-Com: -0.168D-01-0.197D+00 0.753D+00 0.540D+00 0.135D+01 0.257D-01
 Coeff-Com:  0.915D+00-0.923D+00-0.145D+01
 Coeff-En:   0.000D+00 0.000D+00 0.548D+00 0.000D+00 0.000D+00 0.000D+00
 Coeff-En:   0.000D+00 0.000D+00 0.452D+00
 Coeff:     -0.168D-01-0.197D+00 0.753D+00 0.540D+00 0.135D+01 0.257D-01
 Coeff:      0.915D+00-0.923D+00-0.145D+01
 Gap=     0.025 Goal=   None    Shift=    0.000
 RMSDP=1.62D-04 MaxDP=9.62D-03 DE= 7.53D-03 OVMax= 1.34D-02

 Cycle 118  Pass 1  IDiag  1:
 E= -649.053566394683     Delta-E=        0.003158536108 Rises=F Damp=F
 DIIS: error= 7.38D-03 at cycle 118 NSaved=  10.
 NSaved=10 IEnMin= 1 EnMin= -649.115780560760     IErMin= 3 ErrMin= 6.21D-03
 ErrMax= 7.38D-03  0.00D+00 EMaxC= 1.00D-01 BMatC= 5.91D-03 BMatP= 3.47D-03
 IDIUse=3 WtCom= 9.42D-01 WtEn= 5.81D-02
 EnCoef did   100 forward-backward iterations
 Rare condition: small coef for last iteration:  0.000D+00
 Coeff-Com: -0.183D-01-0.188D+00 0.742D+00 0.595D+00 0.146D+01 0.517D+00
 Coeff-Com:  0.894D+00-0.268D+00-0.469D+01 0.196D+01
 Coeff-En:   0.000D+00 0.000D+00 0.553D+00 0.000D+00 0.000D+00 0.000D+00
 Coeff-En:   0.000D+00 0.000D+00 0.000D+00 0.447D+00
 Coeff:     -0.183D-01-0.188D+00 0.742D+00 0.595D+00 0.146D+01 0.517D+00
 Coeff:      0.894D+00-0.268D+00-0.469D+01 0.196D+01
 Gap=     0.024 Goal=   None    Shift=    0.000
 RMSDP=1.15D-04 MaxDP=4.17D-03 DE= 3.16D-03 OVMax= 8.11D-03

 Cycle 119  Pass 1  IDiag  1:
 E= -649.055238034193     Delta-E=       -0.001671639510 Rises=F Damp=F
 DIIS: error= 7.47D-03 at cycle 119 NSaved=  11.
 NSaved=11 IEnMin= 1 EnMin= -649.115780560760     IErMin= 3 ErrMin= 6.21D-03
 ErrMax= 7.47D-03  0.00D+00 EMaxC= 1.00D-01 BMatC= 5.91D-03 BMatP= 3.47D-03
 IDIUse=3 WtCom= 9.42D-01 WtEn= 5.81D-02
 EnCoef did   100 forward-backward iterations
 Coeff-Com: -0.191D-01-0.194D+00 0.751D+00 0.607D+00 0.150D+01 0.736D+00
 Coeff-Com:  0.827D+00-0.489D+00-0.546D+01 0.282D+00 0.246D+01
 Coeff-En:   0.000D+00 0.000D+00 0.511D+00 0.393D-03 0.480D+00 0.000D+00
 Coeff-En:   0.000D+00 0.203D-02 0.107D-02 0.000D+00 0.493D-02
 Coeff:     -0.180D-01-0.183D+00 0.737D+00 0.571D+00 0.144D+01 0.694D+00
 Coeff:      0.779D+00-0.460D+00-0.514D+01 0.265D+00 0.232D+01
 Gap=     0.023 Goal=   None    Shift=    0.000
 RMSDP=7.95D-05 MaxDP=2.43D-03 DE=-1.67D-03 OVMax= 5.52D-03

 Cycle 120  Pass 1  IDiag  1:
 E= -649.056411995575     Delta-E=       -0.001173961382 Rises=F Damp=F
 DIIS: error= 7.54D-03 at cycle 120 NSaved=  12.
 NSaved=12 IEnMin= 1 EnMin= -649.115780560760     IErMin= 3 ErrMin= 6.21D-03
 ErrMax= 7.54D-03  0.00D+00 EMaxC= 1.00D-01 BMatC= 5.88D-03 BMatP= 3.47D-03
 IDIUse=3 WtCom= 9.42D-01 WtEn= 5.81D-02
 Large coefficients: NSaved= 12 BigCof=   53.37 CofMax=   10.00 Det=-4.76D-08
 Inversion failed.  Reducing to 11 matrices.
 Large coefficients: NSaved= 11 BigCof=   36.00 CofMax=   10.00 Det=-7.82D-08
 Inversion failed.  Reducing to 10 matrices.
 Large coefficients: NSaved= 10 BigCof=   15.87 CofMax=   10.00 Det=-1.96D-07
 Inversion failed.  Reducing to  9 matrices.
 Large coefficients: NSaved=  9 BigCof=   14.82 CofMax=   10.00 Det=-1.96D-07
 Inversion failed.  Reducing to  8 matrices.
 EnCoef did   100 forward-backward iterations
 Coeff-Com:  0.246D-01 0.522D+00 0.705D+00 0.147D+01 0.147D+01-0.116D+01
 Coeff-Com:  0.680D+01-0.883D+01
 Coeff-En:   0.000D+00 0.511D+00 0.371D-03 0.481D+00 0.000D+00 0.192D-02
 Coeff-En:   0.465D-02 0.101D-02
 Coeff:      0.231D-01 0.521D+00 0.664D+00 0.142D+01 0.138D+01-0.110D+01
 Coeff:      0.640D+01-0.832D+01
 Gap=     0.023 Goal=   None    Shift=    0.000
 RMSDP=6.31D-04 MaxDP=2.43D-02 DE=-1.17D-03 OVMax= 3.97D-02

 Cycle 121  Pass 1  IDiag  1:
 E= -649.049544582832     Delta-E=        0.006867412743 Rises=F Damp=F
 DIIS: error= 7.07D-03 at cycle 121 NSaved=   9.
 NSaved= 9 IEnMin= 1 EnMin= -649.115780560760     IErMin= 2 ErrMin= 6.21D-03
 ErrMax= 7.07D-03  0.00D+00 EMaxC= 1.00D-01 BMatC= 5.96D-03 BMatP= 3.47D-03
 IDIUse=3 WtCom= 9.42D-01 WtEn= 5.81D-02
 Large coefficients: NSaved=  9 BigCof=   14.52 CofMax=   10.00 Det=-2.04D-07
 Inversion failed.  Reducing to  8 matrices.
 EnCoef did   100 forward-backward iterations
 Coeff-Com:  0.170D-01 0.533D+00 0.611D+00 0.136D+01 0.107D+01-0.188D+01
 Coeff-Com: -0.760D+00 0.531D-01
 Coeff-En:   0.000D+00 0.511D+00 0.347D-03 0.481D+00 0.000D+00 0.179D-02
 Coeff-En:   0.947D-03 0.435D-02
 Coeff:      0.160D-01 0.532D+00 0.575D+00 0.131D+01 0.101D+01-0.177D+01
 Coeff:     -0.716D+00 0.503D-01
 Gap=     0.022 Goal=   None    Shift=    0.000
 RMSDP=1.26D-04 MaxDP=3.99D-03 DE= 6.87D-03 OVMax= 5.85D-03

 Cycle 122  Pass 1  IDiag  1:
 E= -649.050345282230     Delta-E=       -0.000800699398 Rises=F Damp=F
 DIIS: error= 7.11D-03 at cycle 122 NSaved=   9.
 NSaved= 9 IEnMin= 1 EnMin= -649.115780560760     IErMin= 2 ErrMin= 6.21D-03
 ErrMax= 7.11D-03  0.00D+00 EMaxC= 1.00D-01 BMatC= 6.00D-03 BMatP= 3.47D-03
 IDIUse=3 WtCom= 9.42D-01 WtEn= 5.81D-02
 EnCoef did   100 forward-backward iterations
 Rare condition: small coef for last iteration:  0.313D-15
 Coeff-Com:  0.140D-01 0.536D+00 0.625D+00 0.136D+01 0.111D+01-0.170D+01
 Coeff-Com: -0.127D+01-0.499D+00 0.824D+00
 Coeff-En:   0.000D+00 0.557D+00 0.000D+00 0.000D+00 0.000D+00 0.000D+00
 Coeff-En:   0.000D+00 0.000D+00 0.443D+00
 Coeff:      0.140D-01 0.536D+00 0.625D+00 0.136D+01 0.111D+01-0.170D+01
 Coeff:     -0.127D+01-0.499D+00 0.824D+00
 Gap=     0.024 Goal=   None    Shift=    0.000
 RMSDP=2.37D-04 MaxDP=1.11D-02 DE=-8.01D-04 OVMax= 1.86D-02

 Cycle 123  Pass 1  IDiag  1:
 E= -649.046410974945     Delta-E=        0.003934307285 Rises=F Damp=F
 DIIS: error= 7.09D-03 at cycle 123 NSaved=  10.
 NSaved=10 IEnMin= 1 EnMin= -649.115780560760     IErMin= 2 ErrMin= 6.21D-03
 ErrMax= 7.09D-03  0.00D+00 EMaxC= 1.00D-01 BMatC= 6.06D-03 BMatP= 3.47D-03
 IDIUse=3 WtCom= 9.42D-01 WtEn= 5.81D-02
 EnCoef did   100 forward-backward iterations
 Rare condition: small coef for last iteration:  0.000D+00
 Coeff-Com:  0.303D-01 0.466D+00 0.117D+01 0.193D+01 0.189D+01 0.130D+01
 Coeff-Com: -0.641D+01-0.306D+01-0.594D+01 0.962D+01
 Coeff-En:   0.000D+00 0.562D+00 0.000D+00 0.000D+00 0.000D+00 0.000D+00
 Coeff-En:   0.000D+00 0.000D+00 0.000D+00 0.438D+00
 Coeff:      0.303D-01 0.466D+00 0.117D+01 0.193D+01 0.189D+01 0.130D+01
 Coeff:     -0.641D+01-0.306D+01-0.594D+01 0.962D+01
 Gap=     0.018 Goal=   None    Shift=    0.000
 RMSDP=1.06D-03 MaxDP=5.03D-02 DE= 3.93D-03 OVMax= 8.52D-02

 Cycle 124  Pass 1  IDiag  1:
 E= -649.065412288701     Delta-E=       -0.019001313756 Rises=F Damp=F
 DIIS: error= 7.69D-03 at cycle 124 NSaved=  11.
 NSaved=11 IEnMin= 1 EnMin= -649.115780560760     IErMin= 2 ErrMin= 6.21D-03
 ErrMax= 7.69D-03  0.00D+00 EMaxC= 1.00D-01 BMatC= 5.63D-03 BMatP= 3.47D-03
 IDIUse=3 WtCom= 9.42D-01 WtEn= 5.81D-02
 Large coefficients: NSaved= 11 BigCof=   32.28 CofMax=   10.00 Det=-5.39D-07
 Inversion failed.  Reducing to 10 matrices.
 EnCoef did   100 forward-backward iterations
 Coeff-Com:  0.245D-01 0.477D+00 0.937D+00 0.161D+01 0.142D+01-0.177D+00
 Coeff-Com: -0.319D+01-0.756D+01 0.695D+01 0.502D+00
 Coeff-En:   0.000D+00 0.511D+00 0.737D-03 0.485D+00 0.000D+00 0.532D-04
 Coeff-En:   0.000D+00 0.000D+00 0.000D+00 0.298D-02
 Coeff:      0.231D-01 0.479D+00 0.882D+00 0.155D+01 0.134D+01-0.167D+00
 Coeff:     -0.300D+01-0.712D+01 0.655D+01 0.473D+00
 Gap=     0.016 Goal=   None    Shift=    0.000
 RMSDP=4.97D-04 MaxDP=2.31D-02 DE=-1.90D-02 OVMax= 4.36D-02

 Cycle 125  Pass 1  IDiag  1:
 E= -649.074155749376     Delta-E=       -0.008743460674 Rises=F Damp=F
 DIIS: error= 7.91D-03 at cycle 125 NSaved=  11.
 NSaved=11 IEnMin= 1 EnMin= -649.115780560760     IErMin= 2 ErrMin= 6.21D-03
 ErrMax= 7.91D-03  0.00D+00 EMaxC= 1.00D-01 BMatC= 5.65D-03 BMatP= 3.47D-03
 IDIUse=3 WtCom= 9.42D-01 WtEn= 5.81D-02
 Large coefficients: NSaved= 11 BigCof=   41.40 CofMax=   10.00 Det=-2.15D-07
 Inversion failed.  Reducing to 10 matrices.
 EnCoef did   100 forward-backward iterations
 Rare condition: small coef for last iteration:  0.328D-15
 Coeff-Com:  0.135D-01 0.539D+00 0.590D+00 0.131D+01 0.109D+01-0.195D+01
 Coeff-Com: -0.874D+00 0.231D+00-0.292D+00 0.353D+00
 Coeff-En:   0.000D+00 0.520D+00 0.000D+00 0.000D+00 0.000D+00 0.000D+00
 Coeff-En:   0.000D+00 0.000D+00 0.000D+00 0.480D+00
 Coeff:      0.135D-01 0.539D+00 0.590D+00 0.131D+01 0.109D+01-0.195D+01
 Coeff:     -0.874D+00 0.231D+00-0.292D+00 0.353D+00
 Gap=     0.024 Goal=   None    Shift=    0.000
 RMSDP=1.60D-03 MaxDP=7.94D-02 DE=-8.74D-03 OVMax= 1.33D-01

 Cycle 126  Pass 1  IDiag  1:
 E= -649.044876920380     Delta-E=        0.029278828996 Rises=F Damp=F
 DIIS: error= 7.09D-03 at cycle 126 NSaved=  11.
 NSaved=11 IEnMin= 1 EnMin= -649.115780560760     IErMin= 2 ErrMin= 6.21D-03
 ErrMax= 7.09D-03  0.00D+00 EMaxC= 1.00D-01 BMatC= 6.09D-03 BMatP= 3.47D-03
 IDIUse=3 WtCom= 9.42D-01 WtEn= 5.81D-02
 Large coefficients: NSaved= 11 BigCof=   36.75 CofMax=   10.00 Det=-3.33D-07
 Inversion failed.  Reducing to 10 matrices.
 EnCoef did   100 forward-backward iterations
 Rare condition: small coef for last iteration:  0.000D+00
 Coeff-Com:  0.887D-02 0.534D+00 0.664D+00 0.135D+01 0.117D+01-0.131D+01
 Coeff-Com: -0.201D+01-0.470D+00 0.447D+00 0.620D+00
 Coeff-En:   0.000D+00 0.564D+00 0.000D+00 0.000D+00 0.000D+00 0.000D+00
 Coeff-En:   0.000D+00 0.000D+00 0.000D+00 0.436D+00
 Coeff:      0.887D-02 0.534D+00 0.664D+00 0.135D+01 0.117D+01-0.131D+01
 Coeff:     -0.201D+01-0.470D+00 0.447D+00 0.620D+00
 Gap=     0.024 Goal=   None    Shift=    0.000
 RMSDP=1.12D-04 MaxDP=6.11D-03 DE= 2.93D-02 OVMax= 8.03D-03

 Cycle 127  Pass 1  IDiag  1:
 E= -649.046688069356     Delta-E=       -0.001811148976 Rises=F Damp=F
 DIIS: error= 7.05D-03 at cycle 127 NSaved=  11.
 NSaved=11 IEnMin= 1 EnMin= -649.115780560760     IErMin= 2 ErrMin= 6.21D-03
 ErrMax= 7.05D-03  0.00D+00 EMaxC= 1.00D-01 BMatC= 5.98D-03 BMatP= 3.47D-03
 IDIUse=3 WtCom= 9.42D-01 WtEn= 5.81D-02
 Large coefficients: NSaved= 11 BigCof=   13.99 CofMax=   10.00 Det=-7.72D-07
 Inversion failed.  Reducing to 10 matrices.
 EnCoef did   100 forward-backward iterations
 Coeff-Com:  0.124D-01 0.531D+00 0.780D+00 0.152D+01 0.119D+01-0.337D+01
 Coeff-Com: -0.489D+00 0.588D+00-0.423D+00 0.661D+00
 Coeff-En:   0.000D+00 0.513D+00 0.246D-02 0.393D+00 0.000D+00 0.000D+00
 Coeff-En:   0.000D+00 0.810D-01 0.000D+00 0.103D-01
 Coeff:      0.116D-01 0.530D+00 0.735D+00 0.146D+01 0.112D+01-0.318D+01
 Coeff:     -0.461D+00 0.559D+00-0.399D+00 0.623D+00
 Gap=     0.021 Goal=   None    Shift=    0.000
 RMSDP=3.85D-04 MaxDP=1.61D-02 DE=-1.81D-03 OVMax= 3.00D-02

 Cycle 128  Pass 1  IDiag  1:
 E= -649.053136272607     Delta-E=       -0.006448203251 Rises=F Damp=F
 DIIS: error= 7.25D-03 at cycle 128 NSaved=  11.
 NSaved=11 IEnMin= 1 EnMin= -649.115780560760     IErMin= 2 ErrMin= 6.21D-03
 ErrMax= 7.25D-03  0.00D+00 EMaxC= 1.00D-01 BMatC= 5.90D-03 BMatP= 3.47D-03
 IDIUse=3 WtCom= 9.42D-01 WtEn= 5.81D-02
 EnCoef did   100 forward-backward iterations
 Rare condition: small coef for last iteration: -0.385D-15
 Coeff-Com:  0.117D-01 0.539D+00 0.687D+00 0.139D+01 0.132D+01-0.225D+01
 Coeff-Com:  0.795D+00-0.472D-01 0.408D+01-0.329D+01-0.223D+01
 Coeff-En:   0.000D+00 0.553D+00 0.000D+00 0.000D+00 0.000D+00 0.000D+00
 Coeff-En:   0.000D+00 0.000D+00 0.000D+00 0.000D+00 0.447D+00
 Coeff:      0.117D-01 0.539D+00 0.687D+00 0.139D+01 0.132D+01-0.225D+01
 Coeff:      0.795D+00-0.472D-01 0.408D+01-0.329D+01-0.223D+01
 Gap=     0.024 Goal=   None    Shift=    0.000
 RMSDP=3.55D-04 MaxDP=1.80D-02 DE=-6.45D-03 OVMax= 2.91D-02

 >>>>>>>>>> Convergence criterion not met.
 SCF Done:  E(RB3LYP) =  -649.053136273     A.U. after  129 cycles
            NFock=128  Conv=0.35D-03     -V/T= 2.0025
 KE= 6.474563778821D+02 PE=-1.717375231404D+03 EE= 3.416843856370D+02
 Leave Link  502 at Wed Oct  4 15:37:47 2023, MaxMem=  1610612736 cpu:            1380.0 elap:             597.8
 (Enter /home/sekinelabo/g16/l601.exe)
 Copying SCF densities to generalized density rwf, IOpCl= 0 IROHF=0.

 **********************************************************************

            Population analysis using the SCF Density.

 **********************************************************************

 Orbital symmetries:
       Occupied  (A) (A) (A) (A) (A) (A) (A) (A) (A) (A) (A) (A)
                 (A) (A) (A) (A) (A) (A) (A) (A) (A) (A)
       Virtual   (A) (A) (A) (A) (A) (A) (A) (A) (A) (A) (A) (A)
                 (A) (A) (A) (A) (A) (A) (A) (A) (A) (A) (A) (A)
                 (A) (A) (A) (A) (A) (A) (A) (A) (A) (A) (A) (A)
                 (A) (A) (A) (A) (A) (A) (A) (A) (A) (A) (A) (A)
                 (A) (A) (A) (A) (A) (A) (A) (A) (A) (A) (A) (A)
                 (A) (A) (A) (A) (A) (A) (A) (A) (A) (A) (A) (A)
                 (A) (A) (A) (A) (A) (A) (A) (A) (A) (A) (A) (A)
                 (A) (A) (A) (A) (A) (A) (A) (A) (A) (A) (A) (A)
                 (A) (A)
 The electronic state is 1-A.
 Alpha  occ. eigenvalues --  -38.49869 -38.45105 -38.44218 -38.42957  -2.25385
 Alpha  occ. eigenvalues --   -2.21005  -2.20017  -2.18585  -1.19053  -1.19051
 Alpha  occ. eigenvalues --   -1.19027  -1.15074  -1.14593  -1.14583  -1.13625
 Alpha  occ. eigenvalues --   -1.13615  -1.13577  -1.12264  -1.12260  -1.12240
 Alpha  occ. eigenvalues --   -0.14009  -0.10874
 Alpha virt. eigenvalues --   -0.08486  -0.04582  -0.03406  -0.02944  -0.02126
 Alpha virt. eigenvalues --   -0.01685  -0.00784  -0.00750  -0.00208   0.00131
 Alpha virt. eigenvalues --    0.00149   0.00789   0.00969   0.01130   0.01233
 Alpha virt. eigenvalues --    0.01381   0.01528   0.01671   0.01858   0.01934
 Alpha virt. eigenvalues --    0.02208   0.02298   0.02381   0.02499   0.02689
 Alpha virt. eigenvalues --    0.03204   0.03520   0.03602   0.04195   0.05500
 Alpha virt. eigenvalues --    0.06495   0.06997   0.07313   0.07366   0.07603
 Alpha virt. eigenvalues --    0.08016   0.08954   0.09175   0.09503   0.09697
 Alpha virt. eigenvalues --    0.10454   0.10880   0.11113   0.12077   0.12872
 Alpha virt. eigenvalues --    0.17235   0.29751   0.30164   0.31079   0.31176
 Alpha virt. eigenvalues --    0.32224   0.32302   0.32513   0.33102   0.33573
 Alpha virt. eigenvalues --    0.34177   0.36782   0.36861   0.36949   0.37022
 Alpha virt. eigenvalues --    0.38350   0.39707   0.40197   0.40381   0.40749
 Alpha virt. eigenvalues --    0.41136   0.42774   0.43499   0.44641   0.45008
 Alpha virt. eigenvalues --    0.45232   0.46063   0.46980   0.47886   0.50234
 Alpha virt. eigenvalues --    0.56320   0.56791   0.89711   1.97813   2.04392
 Alpha virt. eigenvalues --    2.06369   2.10870   4.39275   4.39490   4.39691
 Alpha virt. eigenvalues --    4.42849   4.44014   4.45932   4.46044   4.47233
 Alpha virt. eigenvalues --    4.48106   4.48299   4.49220   4.81022  96.16360
 Alpha virt. eigenvalues --   96.24043  96.28417  96.32069
          Condensed to atoms (all electrons):
               1          2          3          4
     1  Na  10.978414   0.025824  -0.093805   0.270540
     2  Na   0.025824  10.135837  -0.085911  -0.032322
     3  Na  -0.093805  -0.085911  12.128381  -0.010065
     4  Na   0.270540  -0.032322  -0.010065  10.608847
 Mulliken charges:
               1
     1  Na  -0.180973
     2  Na   0.956572
     3  Na  -0.938600
     4  Na   0.163001
 Sum of Mulliken charges =  -0.00000
 Mulliken charges with hydrogens summed into heavy atoms:
               1
     1  Na  -0.180973
     2  Na   0.956572
     3  Na  -0.938600
     4  Na   0.163001
 Electronic spatial extent (au):  <R**2>=           2029.8056
 Charge=             -0.0000 electrons
 Dipole moment (field-independent basis, Debye):
    X=             32.9798    Y=             -7.1061    Z=             -0.8210  Tot=             33.7467
 Quadrupole moment (field-independent basis, Debye-Ang):
   XX=            -17.6971   YY=            -69.7434   ZZ=            -41.6768
   XY=             70.4394   XZ=             -1.3413   YZ=              0.0435
 Traceless Quadrupole moment (field-independent basis, Debye-Ang):
   XX=             25.3420   YY=            -26.7043   ZZ=              1.3623
   XY=             70.4394   XZ=             -1.3413   YZ=              0.0435
 Octapole moment (field-independent basis, Debye-Ang**2):
  XXX=            652.2326  YYY=           -144.5340  ZZZ=             -3.1298  XYY=            205.7932
  XXY=            -62.4564  XXZ=            -24.1188  XZZ=             58.6117  YZZ=            -20.1023
  YYZ=            -10.8839  XYZ=            -15.4513
 Hexadecapole moment (field-independent basis, Debye-Ang**3):
 XXXX=          -1193.5024 YYYY=          -1962.2302 ZZZZ=           -235.1133 XXXY=           1325.2670
 XXXZ=            -88.0745 YYYX=            818.3854 YYYZ=             20.3723 ZZZX=             -6.3621
 ZZZY=             -1.7458 XXYY=           -842.9477 XXZZ=           -359.6400 YYZZ=           -313.1890
 XXYZ=            -18.7614 YYXZ=              7.7379 ZZXY=            131.8940
 N-N= 7.918133161255D+01 E-N=-1.717389393377D+03  KE= 6.474563778821D+02
 No NMR shielding tensors so no spin-rotation constants.
 Leave Link  601 at Wed Oct  4 15:37:50 2023, MaxMem=  1610612736 cpu:               8.1 elap:               3.5
 (Enter /home/sekinelabo/g16/l701.exe)
 SCFChk:  SCF convergence  3.55D-04 required  1.00D-08


 SCF Error SCF Error SCF Error SCF Error SCF Error SCF Error SCF Error SCF Error

                                    ERROR!!!!

    SCF has not converged.  Gradients and post-SCF results would be GARBAGE!!

 SCF Error SCF Error SCF Error SCF Error SCF Error SCF Error SCF Error SCF Error


 Error termination via Lnk1e in /home/sekinelabo/g16/l701.exe at Wed Oct  4 15:37:51 2023.
 Job cpu time:       0 days  0 hours 23 minutes 50.9 seconds.
 Elapsed time:       0 days  0 hours 10 minutes 19.9 seconds.
 File lengths (MBytes):  RWF=     10 Int=      0 D2E=      0 Chk=      2 Scr=      1
