 Entering Gaussian System, Link 0=g16
 Initial command:
 /home/sekinelabo/g16/l1.exe "/home/sekinelabo/g16temp/Gau-8101.inp" -scrdir="/home/sekinelabo/g16temp/"
 Entering Link 1 = /home/sekinelabo/g16/l1.exe PID=      8108.
  
 Copyright (c) 1988-2017, Gaussian, Inc.  All Rights Reserved.
  
 This is part of the Gaussian(R) 16 program.  It is based on
 the Gaussian(R) 09 system (copyright 2009, Gaussian, Inc.),
 the Gaussian(R) 03 system (copyright 2003, Gaussian, Inc.),
 the Gaussian(R) 98 system (copyright 1998, Gaussian, Inc.),
 the Gaussian(R) 94 system (copyright 1995, Gaussian, Inc.),
 the Gaussian 92(TM) system (copyright 1992, Gaussian, Inc.),
 the Gaussian 90(TM) system (copyright 1990, Gaussian, Inc.),
 the Gaussian 88(TM) system (copyright 1988, Gaussian, Inc.),
 the Gaussian 86(TM) system (copyright 1986, Carnegie Mellon
 University), and the Gaussian 82(TM) system (copyright 1983,
 Carnegie Mellon University). Gaussian is a federally registered
 trademark of Gaussian, Inc.
  
 This software contains proprietary and confidential information,
 including trade secrets, belonging to Gaussian, Inc.
  
 This software is provided under written license and may be
 used, copied, transmitted, or stored only in accord with that
 written license.
  
 The following legend is applicable only to US Government
 contracts under FAR:
  
                    RESTRICTED RIGHTS LEGEND
  
 Use, reproduction and disclosure by the US Government is
 subject to restrictions as set forth in subparagraphs (a)
 and (c) of the Commercial Computer Software - Restricted
 Rights clause in FAR 52.227-19.
  
 Gaussian, Inc.
 340 Quinnipiac St., Bldg. 40, Wallingford CT 06492
  
  
 ---------------------------------------------------------------
 Warning -- This program may not be used in any manner that
 competes with the business of Gaussian, Inc. or will provide
 assistance to any competitor of Gaussian, Inc.  The licensee
 of this program is prohibited from giving any competitor of
 Gaussian, Inc. access to this program.  By using this program,
 the user acknowledges that Gaussian, Inc. is engaged in the
 business of creating and licensing software in the field of
 computational chemistry and represents and warrants to the
 licensee that it is not a competitor of Gaussian, Inc. and that
 it will not use this program in any manner prohibited above.
 ---------------------------------------------------------------
  

 Cite this work as:
 Gaussian 16, Revision B.01,
 M. J. Frisch, G. W. Trucks, H. B. Schlegel, G. E. Scuseria, 
 M. A. Robb, J. R. Cheeseman, G. Scalmani, V. Barone, 
 G. A. Petersson, H. Nakatsuji, X. Li, M. Caricato, A. V. Marenich, 
 J. Bloino, B. G. Janesko, R. Gomperts, B. Mennucci, H. P. Hratchian, 
 J. V. Ortiz, A. F. Izmaylov, J. L. Sonnenberg, D. Williams-Young, 
 F. Ding, F. Lipparini, F. Egidi, J. Goings, B. Peng, A. Petrone, 
 T. Henderson, D. Ranasinghe, V. G. Zakrzewski, J. Gao, N. Rega, 
 G. Zheng, W. Liang, M. Hada, M. Ehara, K. Toyota, R. Fukuda, 
 J. Hasegawa, M. Ishida, T. Nakajima, Y. Honda, O. Kitao, H. Nakai, 
 T. Vreven, K. Throssell, J. A. Montgomery, Jr., J. E. Peralta, 
 F. Ogliaro, M. J. Bearpark, J. J. Heyd, E. N. Brothers, K. N. Kudin, 
 V. N. Staroverov, T. A. Keith, R. Kobayashi, J. Normand, 
 K. Raghavachari, A. P. Rendell, J. C. Burant, S. S. Iyengar, 
 J. Tomasi, M. Cossi, J. M. Millam, M. Klene, C. Adamo, R. Cammi, 
 J. W. Ochterski, R. L. Martin, K. Morokuma, O. Farkas, 
 J. B. Foresman, and D. J. Fox, Gaussian, Inc., Wallingford CT, 2016.
 
 ******************************************
 Gaussian 16:  ES64L-G16RevB.01 20-Dec-2017
                 4-Oct-2023 
 ******************************************
 %NProcShared=16
 Will use up to   16 processors via shared memory.
 %mem=12GB
 %Chk=checkpoint.chk
 -------------------------
 #p B3LYP/6-311+g(d) force
 -------------------------
 1/10=7,30=1,38=1/1,3;
 2/12=2,17=6,18=5,40=1/2;
 3/5=4,6=6,7=11,11=2,25=1,30=1,71=1,74=-5/1,2,3;
 4//1;
 5/5=2,38=5/2;
 6/7=2,8=2,9=2,10=2,28=1/1;
 7/29=1/1,2,3,16;
 1/10=7,30=1/3;
 99//99;
 Leave Link    1 at Wed Oct  4 14:11:22 2023, MaxMem=  1610612736 cpu:               0.5 elap:               0.2
 (Enter /home/sekinelabo/g16/l101.exe)


 Symbolic Z-matrix:
 Charge =  0 Multiplicity = 1
 Na                    0.        0.        0. 
 Na                   -2.78958   0.        4.17092 
 Na                    0.        0.        5.21357 
 Na                    0.58623  -0.62083   9.4165 
 
 ITRead=  0  0  0  0
 MicOpt= -1 -1 -1 -1
 NAtoms=      4 NQM=        4 NQMF=       0 NMMI=      0 NMMIF=      0
                NMic=       0 NMicF=      0.
                    Isotopes and Nuclear Properties:
 (Nuclear quadrupole moments (NQMom) in fm**2, nuclear magnetic moments (NMagM)
  in nuclear magnetons)

  Atom         1           2           3           4
 IAtWgt=          23          23          23          23
 AtmWgt=  22.9897697  22.9897697  22.9897697  22.9897697
 NucSpn=           3           3           3           3
 AtZEff=  -0.0000000  -0.0000000  -0.0000000  -0.0000000
 NQMom=   10.4000000  10.4000000  10.4000000  10.4000000
 NMagM=    2.2175200   2.2175200   2.2175200   2.2175200
 AtZNuc=  11.0000000  11.0000000  11.0000000  11.0000000
 Leave Link  101 at Wed Oct  4 14:11:23 2023, MaxMem=  1610612736 cpu:               2.0 elap:               1.1
 (Enter /home/sekinelabo/g16/l103.exe)

 GradGradGradGradGradGradGradGradGradGradGradGradGradGradGradGradGradGrad
 Berny optimization.
 Initialization pass.
 Trust Radius=3.00D-01 FncErr=1.00D-07 GrdErr=1.00D-07 EigMax=2.50D+02 EigMin=1.00D-04
 Number of steps in this run=      2 maximum allowed number of steps=      2.
 GradGradGradGradGradGradGradGradGradGradGradGradGradGradGradGradGradGrad

 Leave Link  103 at Wed Oct  4 14:11:23 2023, MaxMem=  1610612736 cpu:               0.5 elap:               0.2
 (Enter /home/sekinelabo/g16/l202.exe)
                          Input orientation:                          
 ---------------------------------------------------------------------
 Center     Atomic      Atomic             Coordinates (Angstroms)
 Number     Number       Type             X           Y           Z
 ---------------------------------------------------------------------
      1         11           0        0.000000    0.000000    0.000000
      2         11           0       -2.789584    0.000000    4.170917
      3         11           0        0.000000    0.000000    5.213565
      4         11           0        0.586225   -0.620825    9.416501
 ---------------------------------------------------------------------
                    Distance matrix (angstroms):
                    1          2          3          4
     1  Na   0.000000
     2  Na   5.017802   0.000000
     3  Na   5.213565   2.978069   0.000000
     4  Na   9.455135   6.268785   4.288794   0.000000
 Stoichiometry    Na4
 Framework group  C1[X(Na4)]
 Deg. of freedom     6
 Full point group                 C1      NOp   1
 Largest Abelian subgroup         C1      NOp   1
 Largest concise Abelian subgroup C1      NOp   1
                         Standard orientation:                         
 ---------------------------------------------------------------------
 Center     Atomic      Atomic             Coordinates (Angstroms)
 Number     Number       Type             X           Y           Z
 ---------------------------------------------------------------------
      1         11           0        4.610991   -1.072991   -0.085296
      2         11           0        0.781631    2.169029   -0.024978
      3         11           0       -0.559491   -0.478542    0.221308
      4         11           0       -4.833131   -0.617495   -0.111034
 ---------------------------------------------------------------------
 Rotational constants (GHZ):           3.3635940           0.4819350           0.4226590
 Leave Link  202 at Wed Oct  4 14:11:24 2023, MaxMem=  1610612736 cpu:               1.1 elap:               0.6
 (Enter /home/sekinelabo/g16/l301.exe)
 Standard basis: 6-311+G(d) (5D, 7F)
 Ernie: Thresh=  0.10000D-02 Tol=  0.10000D-05 Strict=F.
 There are   124 symmetry adapted cartesian basis functions of A   symmetry.
 There are   120 symmetry adapted basis functions of A   symmetry.
   120 basis functions,   200 primitive gaussians,   124 cartesian basis functions
    22 alpha electrons       22 beta electrons
       nuclear repulsion energy        78.4587296241 Hartrees.
 IExCor=  402 DFT=T Ex+Corr=B3LYP ExCW=0 ScaHFX=  0.200000
 ScaDFX=  0.800000  0.720000  1.000000  0.810000 ScalE2=  1.000000  1.000000
 IRadAn=      5 IRanWt=     -1 IRanGd=            0 ICorTp=0 IEmpDi=  4
 NAtoms=    4 NActive=    4 NUniq=    4 SFac= 1.00D+00 NAtFMM=   60 NAOKFM=F Big=F
 Integral buffers will be    131072 words long.
 Raffenetti 2 integral format.
 Two-electron integral symmetry is turned on.
 Leave Link  301 at Wed Oct  4 14:11:24 2023, MaxMem=  1610612736 cpu:               0.7 elap:               0.4
 (Enter /home/sekinelabo/g16/l302.exe)
 NPDir=0 NMtPBC=     1 NCelOv=     1 NCel=       1 NClECP=     1 NCelD=      1
         NCelK=      1 NCelE2=     1 NClLst=     1 CellRange=     0.0.
 One-electron integrals computed using PRISM.
 One-electron integral symmetry used in STVInt
 NBasis=   120 RedAO= T EigKep=  7.72D-05  NBF=   120
 NBsUse=   120 1.00D-06 EigRej= -1.00D+00 NBFU=   120
 Precomputing XC quadrature grid using
 IXCGrd= 4 IRadAn=           5 IRanWt=          -1 IRanGd=           0 AccXCQ= 0.00D+00.
 Generated NRdTot=       0 NPtTot=           0 NUsed=           0 NTot=          32
 NSgBfM=   116   116   116   116   116 MxSgAt=     4 MxSgA2=     4.
 Leave Link  302 at Wed Oct  4 14:11:35 2023, MaxMem=  1610612736 cpu:              18.7 elap:              10.7
 (Enter /home/sekinelabo/g16/l303.exe)
 DipDrv:  MaxL=1.
 Leave Link  303 at Wed Oct  4 14:11:37 2023, MaxMem=  1610612736 cpu:               2.6 elap:               1.5
 (Enter /home/sekinelabo/g16/l401.exe)
 ExpMin= 7.60D-03 ExpMax= 3.62D+04 ExpMxC= 1.21D+03 IAcc=3 IRadAn=         5 AccDes= 0.00D+00
 Harris functional with IExCor=  402 and IRadAn=       5 diagonalized for initial guess.
 HarFok:  IExCor=  402 AccDes= 0.00D+00 IRadAn=         5 IDoV= 1 UseB2=F ITyADJ=14
 ICtDFT=  3500011 ScaDFX=  1.000000  1.000000  1.000000  1.000000
 FoFCou: FMM=F IPFlag=           0 FMFlag=      100000 FMFlg1=           0
         NFxFlg=           0 DoJE=T BraDBF=F KetDBF=T FulRan=T
         wScrn=  0.000000 ICntrl=       500 IOpCl=  0 I1Cent=   200000004 NGrid=           0
         NMat0=    1 NMatS0=      1 NMatT0=    0 NMatD0=    1 NMtDS0=    0 NMtDT0=    0
 Petite list used in FoFCou.
 Harris En= -649.049859841306    
 JPrj=0 DoOrth=F DoCkMO=F.
 Leave Link  401 at Wed Oct  4 14:11:44 2023, MaxMem=  1610612736 cpu:              13.2 elap:               7.5
 (Enter /home/sekinelabo/g16/l502.exe)
 Keep R1 ints in memory in canonical form, NReq=41581754.
 FoFCou: FMM=F IPFlag=           0 FMFlag=           0 FMFlg1=           0
         NFxFlg=           0 DoJE=F BraDBF=F KetDBF=F FulRan=T
         wScrn=  0.000000 ICntrl=       600 IOpCl=  0 I1Cent=           0 NGrid=           0
         NMat0=    1 NMatS0=   7260 NMatT0=    0 NMatD0=    1 NMtDS0=    0 NMtDT0=    0
 Symmetry not used in FoFCou.
 Two-electron integral symmetry not used.
 Closed shell SCF:
 Using DIIS extrapolation, IDIIS=  1040.
 NGot=  1610612736 LenX=  1584221388 LenY=  1584205571
 Requested convergence on RMS density matrix=1.00D-08 within 128 cycles.
 Requested convergence on MAX density matrix=1.00D-06.
 Requested convergence on             energy=1.00D-06.
 No special actions if energy rises.

 Cycle   1  Pass 1  IDiag  1:
 E= -649.152481155321    
 DIIS: error= 1.51D-02 at cycle   1 NSaved=   1.
 NSaved= 1 IEnMin= 1 EnMin= -649.152481155321     IErMin= 1 ErrMin= 1.51D-02
 ErrMax= 1.51D-02  0.00D+00 EMaxC= 1.00D-01 BMatC= 2.77D-02 BMatP= 2.77D-02
 IDIUse=3 WtCom= 8.49D-01 WtEn= 1.51D-01
 Coeff-Com:  0.100D+01
 Coeff-En:   0.100D+01
 Coeff:      0.100D+01
 Gap=     0.003 Goal=   None    Shift=    0.000
 GapD=    0.003 DampG=0.250 DampE=0.500 DampFc=0.2500 IDamp=-1.
 Damping current iteration by 2.50D-01
 RMSDP=7.79D-03 MaxDP=4.63D-01              OVMax= 6.31D-01

 Cycle   2  Pass 1  IDiag  1:
 E= -649.158553942707     Delta-E=       -0.006072787386 Rises=F Damp=T
 DIIS: error= 1.01D-02 at cycle   2 NSaved=   2.
 NSaved= 2 IEnMin= 2 EnMin= -649.158553942707     IErMin= 2 ErrMin= 1.01D-02
 ErrMax= 1.01D-02  0.00D+00 EMaxC= 1.00D-01 BMatC= 1.02D-02 BMatP= 2.77D-02
 IDIUse=3 WtCom= 8.99D-01 WtEn= 1.01D-01
 Coeff-Com: -0.887D+00 0.189D+01
 Coeff-En:   0.272D+00 0.728D+00
 Coeff:     -0.769D+00 0.177D+01
 Gap=    -0.012 Goal=   None    Shift=    0.000
 RMSDP=5.81D-03 MaxDP=3.52D-01 DE=-6.07D-03 OVMax= 7.55D-01

 Cycle   3  Pass 1  IDiag  1:
 E= -649.046552208979     Delta-E=        0.112001733728 Rises=F Damp=F
 DIIS: error= 1.38D-02 at cycle   3 NSaved=   3.
 NSaved= 3 IEnMin= 2 EnMin= -649.158553942707     IErMin= 2 ErrMin= 1.01D-02
 ErrMax= 1.38D-02  0.00D+00 EMaxC= 1.00D-01 BMatC= 1.11D-02 BMatP= 1.02D-02
 IDIUse=3 WtCom= 8.62D-01 WtEn= 1.38D-01
 Rare condition: small coef for last iteration:  0.000D+00
 Coeff-Com: -0.641D+00 0.126D+01 0.379D+00
 Coeff-En:   0.230D+00 0.750D+00 0.205D-01
 Coeff:     -0.641D+00 0.126D+01 0.379D+00
 Gap=     0.035 Goal=   None    Shift=    0.000
 RMSDP=8.37D-03 MaxDP=5.35D-01 DE= 1.12D-01 OVMax= 8.36D-01

 Cycle   4  Pass 1  IDiag  1:
 E= -649.107805674230     Delta-E=       -0.061253465251 Rises=F Damp=F
 DIIS: error= 1.30D-02 at cycle   4 NSaved=   4.
 NSaved= 4 IEnMin= 2 EnMin= -649.158553942707     IErMin= 2 ErrMin= 1.01D-02
 ErrMax= 1.30D-02  0.00D+00 EMaxC= 1.00D-01 BMatC= 6.72D-03 BMatP= 1.02D-02
 IDIUse=3 WtCom= 8.70D-01 WtEn= 1.30D-01
 EnCoef did   100 forward-backward iterations
 Coeff-Com: -0.163D+00 0.433D+00 0.362D+00 0.368D+00
 Coeff-En:   0.685D+00 0.239D-01 0.705D-03 0.290D+00
 Coeff:     -0.530D-01 0.380D+00 0.315D+00 0.358D+00
 Gap=     0.013 Goal=   None    Shift=    0.000
 RMSDP=3.79D-03 MaxDP=2.32D-01 DE=-6.13D-02 OVMax= 4.27D-01

 Cycle   5  Pass 1  IDiag  1:
 E= -649.174593723540     Delta-E=       -0.066788049310 Rises=F Damp=F
 DIIS: error= 9.31D-04 at cycle   5 NSaved=   5.
 NSaved= 5 IEnMin= 5 EnMin= -649.174593723540     IErMin= 5 ErrMin= 9.31D-04
 ErrMax= 9.31D-04  0.00D+00 EMaxC= 1.00D-01 BMatC= 2.02D-04 BMatP= 6.72D-03
 IDIUse=3 WtCom= 9.91D-01 WtEn= 9.31D-03
 Coeff-Com:  0.193D+00-0.239D+00-0.179D-01 0.841D-01 0.979D+00
 Coeff-En:   0.000D+00 0.000D+00 0.000D+00 0.000D+00 0.100D+01
 Coeff:      0.192D+00-0.237D+00-0.177D-01 0.833D-01 0.980D+00
 Gap=     0.025 Goal=   None    Shift=    0.000
 RMSDP=6.37D-04 MaxDP=1.42D-02 DE=-6.68D-02 OVMax= 4.65D-02

 Cycle   6  Pass 1  IDiag  1:
 E= -649.174840635257     Delta-E=       -0.000246911717 Rises=F Damp=F
 DIIS: error= 8.04D-04 at cycle   6 NSaved=   6.
 NSaved= 6 IEnMin= 6 EnMin= -649.174840635257     IErMin= 6 ErrMin= 8.04D-04
 ErrMax= 8.04D-04  0.00D+00 EMaxC= 1.00D-01 BMatC= 2.65D-05 BMatP= 2.02D-04
 IDIUse=3 WtCom= 9.92D-01 WtEn= 8.04D-03
 Coeff-Com:  0.596D-01-0.768D-01-0.197D-01 0.122D-01 0.323D+00 0.701D+00
 Coeff-En:   0.000D+00 0.000D+00 0.000D+00 0.000D+00 0.000D+00 0.100D+01
 Coeff:      0.592D-01-0.761D-01-0.196D-01 0.121D-01 0.321D+00 0.704D+00
 Gap=     0.025 Goal=   None    Shift=    0.000
 RMSDP=5.55D-04 MaxDP=2.59D-02 DE=-2.47D-04 OVMax= 4.26D-02

 Cycle   7  Pass 1  IDiag  1:
 E= -649.174617177910     Delta-E=        0.000223457347 Rises=F Damp=F
 DIIS: error= 1.15D-03 at cycle   7 NSaved=   7.
 NSaved= 7 IEnMin= 6 EnMin= -649.174840635257     IErMin= 6 ErrMin= 8.04D-04
 ErrMax= 1.15D-03  0.00D+00 EMaxC= 1.00D-01 BMatC= 4.79D-05 BMatP= 2.65D-05
 IDIUse=3 WtCom= 9.92D-01 WtEn= 8.04D-03
 Coeff-Com: -0.155D-02 0.389D-02-0.148D-01 0.204D-01 0.743D-01 0.432D+00
 Coeff-Com:  0.486D+00
 Coeff-En:   0.000D+00 0.000D+00 0.000D+00 0.000D+00 0.000D+00 0.698D+00
 Coeff-En:   0.302D+00
 Coeff:     -0.154D-02 0.386D-02-0.147D-01 0.202D-01 0.737D-01 0.434D+00
 Coeff:      0.484D+00
 Gap=     0.025 Goal=   None    Shift=    0.000
 RMSDP=1.21D-04 MaxDP=5.62D-03 DE= 2.23D-04 OVMax= 1.03D-02

 Cycle   8  Pass 1  IDiag  1:
 E= -649.174752009003     Delta-E=       -0.000134831093 Rises=F Damp=F
 DIIS: error= 1.07D-03 at cycle   8 NSaved=   8.
 NSaved= 8 IEnMin= 6 EnMin= -649.174840635257     IErMin= 6 ErrMin= 8.04D-04
 ErrMax= 1.07D-03  0.00D+00 EMaxC= 1.00D-01 BMatC= 2.85D-05 BMatP= 2.65D-05
 IDIUse=3 WtCom= 9.92D-01 WtEn= 8.04D-03
 Coeff-Com: -0.314D-01 0.439D-01-0.108D-01 0.252D-01-0.391D-01 0.213D+00
 Coeff-Com:  0.170D+00 0.629D+00
 Coeff-En:   0.000D+00 0.000D+00 0.000D+00 0.000D+00 0.000D+00 0.619D+00
 Coeff-En:   0.000D+00 0.381D+00
 Coeff:     -0.312D-01 0.435D-01-0.107D-01 0.250D-01-0.388D-01 0.216D+00
 Coeff:      0.169D+00 0.627D+00
 Gap=     0.025 Goal=   None    Shift=    0.000
 RMSDP=4.37D-05 MaxDP=2.71D-03 DE=-1.35D-04 OVMax= 4.30D-03

 Cycle   9  Pass 1  IDiag  1:
 E= -649.174823539611     Delta-E=       -0.000071530608 Rises=F Damp=F
 DIIS: error= 8.69D-04 at cycle   9 NSaved=   9.
 NSaved= 9 IEnMin= 6 EnMin= -649.174840635257     IErMin= 6 ErrMin= 8.04D-04
 ErrMax= 8.69D-04  0.00D+00 EMaxC= 1.00D-01 BMatC= 2.04D-05 BMatP= 2.65D-05
 IDIUse=3 WtCom= 9.92D-01 WtEn= 8.04D-03
 Coeff-Com: -0.402D-01 0.545D-01-0.273D-02 0.194D-01-0.916D-01-0.171D-01
 Coeff-Com: -0.371D+00-0.765D+00 0.221D+01
 Coeff-En:   0.000D+00 0.000D+00 0.000D+00 0.000D+00 0.000D+00 0.528D+00
 Coeff-En:   0.000D+00 0.000D+00 0.472D+00
 Coeff:     -0.399D-01 0.541D-01-0.271D-02 0.193D-01-0.909D-01-0.127D-01
 Coeff:     -0.368D+00-0.759D+00 0.220D+01
 Gap=     0.025 Goal=   None    Shift=    0.000
 RMSDP=8.24D-05 MaxDP=4.51D-03 DE=-7.15D-05 OVMax= 9.32D-03

 Cycle  10  Pass 1  IDiag  1:
 E= -649.174941542742     Delta-E=       -0.000118003131 Rises=F Damp=F
 DIIS: error= 4.92D-04 at cycle  10 NSaved=  10.
 NSaved=10 IEnMin=10 EnMin= -649.174941542742     IErMin=10 ErrMin= 4.92D-04
 ErrMax= 4.92D-04  0.00D+00 EMaxC= 1.00D-01 BMatC= 6.27D-06 BMatP= 2.04D-05
 IDIUse=3 WtCom= 9.95D-01 WtEn= 4.92D-03
 Coeff-Com: -0.130D-01 0.177D-01 0.116D-02 0.551D-02-0.283D-01-0.257D-01
 Coeff-Com: -0.272D+00-0.959D+00 0.104D+01 0.123D+01
 Coeff-En:   0.000D+00 0.000D+00 0.000D+00 0.000D+00 0.000D+00 0.202D+00
 Coeff-En:   0.000D+00 0.000D+00 0.000D+00 0.798D+00
 Coeff:     -0.129D-01 0.176D-01 0.116D-02 0.549D-02-0.282D-01-0.246D-01
 Coeff:     -0.271D+00-0.954D+00 0.103D+01 0.123D+01
 Gap=     0.025 Goal=   None    Shift=    0.000
 RMSDP=9.82D-05 MaxDP=5.40D-03 DE=-1.18D-04 OVMax= 1.16D-02

 Cycle  11  Pass 1  IDiag  1:
 E= -649.174995159707     Delta-E=       -0.000053616966 Rises=F Damp=F
 DIIS: error= 1.76D-05 at cycle  11 NSaved=  11.
 NSaved=11 IEnMin=11 EnMin= -649.174995159707     IErMin=11 ErrMin= 1.76D-05
 ErrMax= 1.76D-05  0.00D+00 EMaxC= 1.00D-01 BMatC= 2.37D-08 BMatP= 6.27D-06
 IDIUse=1 WtCom= 1.00D+00 WtEn= 0.00D+00
 Coeff-Com:  0.280D-02-0.372D-02-0.426D-04-0.255D-03 0.102D-01 0.277D-01
 Coeff-Com:  0.225D-01-0.625D-01-0.111D+00 0.201D+00 0.914D+00
 Coeff:      0.280D-02-0.372D-02-0.426D-04-0.255D-03 0.102D-01 0.277D-01
 Coeff:      0.225D-01-0.625D-01-0.111D+00 0.201D+00 0.914D+00
 Gap=     0.025 Goal=   None    Shift=    0.000
 RMSDP=1.04D-05 MaxDP=4.15D-04 DE=-5.36D-05 OVMax= 1.15D-03

 Cycle  12  Pass 1  IDiag  1:
 E= -649.174995227949     Delta-E=       -0.000000068242 Rises=F Damp=F
 DIIS: error= 1.98D-05 at cycle  12 NSaved=  12.
 NSaved=12 IEnMin=12 EnMin= -649.174995227949     IErMin=11 ErrMin= 1.76D-05
 ErrMax= 1.98D-05  0.00D+00 EMaxC= 1.00D-01 BMatC= 1.04D-08 BMatP= 2.37D-08
 IDIUse=1 WtCom= 1.00D+00 WtEn= 0.00D+00
 Coeff-Com:  0.263D-03-0.355D-03 0.425D-04-0.185D-03 0.721D-03-0.202D-02
 Coeff-Com:  0.322D-03 0.180D-01-0.119D-01 0.873D-02 0.159D-01 0.970D+00
 Coeff:      0.263D-03-0.355D-03 0.425D-04-0.185D-03 0.721D-03-0.202D-02
 Coeff:      0.322D-03 0.180D-01-0.119D-01 0.873D-02 0.159D-01 0.970D+00
 Gap=     0.025 Goal=   None    Shift=    0.000
 RMSDP=3.52D-06 MaxDP=1.27D-04 DE=-6.82D-08 OVMax= 2.05D-04

 Cycle  13  Pass 1  IDiag  1:
 E= -649.174995289929     Delta-E=       -0.000000061979 Rises=F Damp=F
 DIIS: error= 1.04D-05 at cycle  13 NSaved=  13.
 NSaved=13 IEnMin=13 EnMin= -649.174995289929     IErMin=13 ErrMin= 1.04D-05
 ErrMax= 1.04D-05  0.00D+00 EMaxC= 1.00D-01 BMatC= 3.00D-09 BMatP= 1.04D-08
 IDIUse=1 WtCom= 1.00D+00 WtEn= 0.00D+00
 Coeff-Com: -0.211D-03 0.280D-03-0.127D-04-0.568D-04-0.506D-03-0.156D-02
 Coeff-Com: -0.188D-02 0.893D-02 0.170D-01-0.138D-01-0.542D-01 0.270D+00
 Coeff-Com:  0.776D+00
 Coeff:     -0.211D-03 0.280D-03-0.127D-04-0.568D-04-0.506D-03-0.156D-02
 Coeff:     -0.188D-02 0.893D-02 0.170D-01-0.138D-01-0.542D-01 0.270D+00
 Coeff:      0.776D+00
 Gap=     0.025 Goal=   None    Shift=    0.000
 RMSDP=2.39D-06 MaxDP=1.45D-04 DE=-6.20D-08 OVMax= 2.74D-04

 Cycle  14  Pass 1  IDiag  1:
 E= -649.174995314774     Delta-E=       -0.000000024845 Rises=F Damp=F
 DIIS: error= 6.08D-07 at cycle  14 NSaved=  14.
 NSaved=14 IEnMin=14 EnMin= -649.174995314774     IErMin=14 ErrMin= 6.08D-07
 ErrMax= 6.08D-07  0.00D+00 EMaxC= 1.00D-01 BMatC= 1.52D-11 BMatP= 3.00D-09
 IDIUse=1 WtCom= 1.00D+00 WtEn= 0.00D+00
 Coeff-Com: -0.646D-04 0.843D-04 0.203D-05-0.114D-04-0.171D-03-0.333D-03
 Coeff-Com: -0.762D-03 0.164D-03 0.512D-02-0.265D-02-0.187D-01 0.125D-01
 Coeff-Com:  0.199D+00 0.806D+00
 Coeff:     -0.646D-04 0.843D-04 0.203D-05-0.114D-04-0.171D-03-0.333D-03
 Coeff:     -0.762D-03 0.164D-03 0.512D-02-0.265D-02-0.187D-01 0.125D-01
 Coeff:      0.199D+00 0.806D+00
 Gap=     0.025 Goal=   None    Shift=    0.000
 RMSDP=2.47D-07 MaxDP=9.68D-06 DE=-2.48D-08 OVMax= 2.65D-05

 Cycle  15  Pass 1  IDiag  1:
 E= -649.174995314896     Delta-E=       -0.000000000122 Rises=F Damp=F
 DIIS: error= 2.00D-07 at cycle  15 NSaved=  15.
 NSaved=15 IEnMin=15 EnMin= -649.174995314896     IErMin=15 ErrMin= 2.00D-07
 ErrMax= 2.00D-07  0.00D+00 EMaxC= 1.00D-01 BMatC= 2.16D-12 BMatP= 1.52D-11
 IDIUse=1 WtCom= 1.00D+00 WtEn= 0.00D+00
 Coeff-Com: -0.786D-06 0.678D-06 0.589D-06 0.202D-05-0.131D-04 0.836D-04
 Coeff-Com:  0.780D-04-0.796D-03-0.291D-03 0.260D-03 0.683D-03-0.238D-01
 Coeff-Com: -0.469D-01 0.214D+00 0.856D+00
 Coeff:     -0.786D-06 0.678D-06 0.589D-06 0.202D-05-0.131D-04 0.836D-04
 Coeff:      0.780D-04-0.796D-03-0.291D-03 0.260D-03 0.683D-03-0.238D-01
 Coeff:     -0.469D-01 0.214D+00 0.856D+00
 Gap=     0.025 Goal=   None    Shift=    0.000
 RMSDP=9.99D-08 MaxDP=4.15D-06 DE=-1.22D-10 OVMax= 6.19D-06

 Cycle  16  Pass 1  IDiag  1:
 E= -649.174995314915     Delta-E=       -0.000000000019 Rises=F Damp=F
 DIIS: error= 1.15D-08 at cycle  16 NSaved=  16.
 NSaved=16 IEnMin=16 EnMin= -649.174995314915     IErMin=16 ErrMin= 1.15D-08
 ErrMax= 1.15D-08  0.00D+00 EMaxC= 1.00D-01 BMatC= 1.82D-14 BMatP= 2.16D-12
 IDIUse=1 WtCom= 1.00D+00 WtEn= 0.00D+00
 Coeff-Com:  0.123D-05-0.160D-05 0.306D-06 0.638D-06-0.207D-05 0.140D-04
 Coeff-Com:  0.367D-04-0.976D-04-0.276D-03 0.213D-03 0.883D-03-0.275D-02
 Coeff-Com: -0.149D-01-0.797D-02 0.137D+00 0.888D+00
 Coeff:      0.123D-05-0.160D-05 0.306D-06 0.638D-06-0.207D-05 0.140D-04
 Coeff:      0.367D-04-0.976D-04-0.276D-03 0.213D-03 0.883D-03-0.275D-02
 Coeff:     -0.149D-01-0.797D-02 0.137D+00 0.888D+00
 Gap=     0.025 Goal=   None    Shift=    0.000
 RMSDP=1.33D-08 MaxDP=3.75D-07 DE=-1.93D-11 OVMax= 9.05D-07

 Cycle  17  Pass 1  IDiag  1:
 E= -649.174995314913     Delta-E=        0.000000000001 Rises=F Damp=F
 DIIS: error= 2.12D-08 at cycle  17 NSaved=  17.
 NSaved=17 IEnMin=16 EnMin= -649.174995314915     IErMin=16 ErrMin= 1.15D-08
 ErrMax= 2.12D-08  0.00D+00 EMaxC= 1.00D-01 BMatC= 1.04D-14 BMatP= 1.82D-14
 IDIUse=1 WtCom= 1.00D+00 WtEn= 0.00D+00
 Large coefficients: NSaved= 17 BigCof=    0.00 CofMax=   10.00 Det=-7.83D-15
 Inversion failed.  Reducing to 16 matrices.
 Large coefficients: NSaved= 16 BigCof=    0.00 CofMax=   10.00 Det=-8.51D-15
 Inversion failed.  Reducing to 15 matrices.
 Coeff-Com:  0.510D-06-0.668D-06 0.100D-05 0.387D-05 0.442D-05 0.167D-04
 Coeff-Com: -0.616D-04 0.412D-04 0.228D-03-0.214D-04-0.224D-02-0.849D-02
 Coeff-Com:  0.519D-02 0.198D+00 0.808D+00
 Coeff:      0.510D-06-0.668D-06 0.100D-05 0.387D-05 0.442D-05 0.167D-04
 Coeff:     -0.616D-04 0.412D-04 0.228D-03-0.214D-04-0.224D-02-0.849D-02
 Coeff:      0.519D-02 0.198D+00 0.808D+00
 Gap=     0.025 Goal=   None    Shift=    0.000
 RMSDP=5.20D-09 MaxDP=2.64D-07 DE= 1.48D-12 OVMax= 4.83D-07

 SCF Done:  E(RB3LYP) =  -649.174995315     A.U. after   17 cycles
            NFock= 17  Conv=0.52D-08     -V/T= 2.0030
 KE= 6.472562047749D+02 PE=-1.715838191018D+03 EE= 3.409482613039D+02
 Leave Link  502 at Wed Oct  4 14:13:24 2023, MaxMem=  1610612736 cpu:             180.9 elap:             100.3
 (Enter /home/sekinelabo/g16/l601.exe)
 Copying SCF densities to generalized density rwf, IOpCl= 0 IROHF=0.

 **********************************************************************

            Population analysis using the SCF Density.

 **********************************************************************

 Orbital symmetries:
       Occupied  (A) (A) (A) (A) (A) (A) (A) (A) (A) (A) (A) (A)
                 (A) (A) (A) (A) (A) (A) (A) (A) (A) (A)
       Virtual   (A) (A) (A) (A) (A) (A) (A) (A) (A) (A) (A) (A)
                 (A) (A) (A) (A) (A) (A) (A) (A) (A) (A) (A) (A)
                 (A) (A) (A) (A) (A) (A) (A) (A) (A) (A) (A) (A)
                 (A) (A) (A) (A) (A) (A) (A) (A) (A) (A) (A) (A)
                 (A) (A) (A) (A) (A) (A) (A) (A) (A) (A) (A) (A)
                 (A) (A) (A) (A) (A) (A) (A) (A) (A) (A) (A) (A)
                 (A) (A) (A) (A) (A) (A) (A) (A) (A) (A) (A) (A)
                 (A) (A) (A) (A) (A) (A) (A) (A) (A) (A) (A) (A)
                 (A) (A)
 The electronic state is 1-A.
 Alpha  occ. eigenvalues --  -38.46090 -38.45887 -38.44961 -38.44757  -2.21856
 Alpha  occ. eigenvalues --   -2.21567  -2.20657  -2.20542  -1.15580  -1.15515
 Alpha  occ. eigenvalues --   -1.15465  -1.15247  -1.15246  -1.15202  -1.14335
 Alpha  occ. eigenvalues --   -1.14335  -1.14290  -1.14257  -1.14218  -1.14127
 Alpha  occ. eigenvalues --   -0.14264  -0.10883
 Alpha virt. eigenvalues --   -0.08363  -0.05340  -0.03048  -0.02915  -0.01802
 Alpha virt. eigenvalues --   -0.01433  -0.01375  -0.00556  -0.00419  -0.00145
 Alpha virt. eigenvalues --    0.00255   0.00756   0.00835   0.01138   0.01312
 Alpha virt. eigenvalues --    0.01462   0.01608   0.01677   0.01757   0.01918
 Alpha virt. eigenvalues --    0.02116   0.02169   0.02262   0.02671   0.02891
 Alpha virt. eigenvalues --    0.03060   0.03147   0.03545   0.04552   0.04707
 Alpha virt. eigenvalues --    0.06909   0.07221   0.07514   0.07915   0.08200
 Alpha virt. eigenvalues --    0.08268   0.08337   0.08476   0.09052   0.09591
 Alpha virt. eigenvalues --    0.09904   0.10746   0.11419   0.11817   0.13180
 Alpha virt. eigenvalues --    0.15404   0.29084   0.29117   0.30309   0.31963
 Alpha virt. eigenvalues --    0.32386   0.34338   0.34522   0.34621   0.34748
 Alpha virt. eigenvalues --    0.35067   0.35227   0.35351   0.35369   0.36526
 Alpha virt. eigenvalues --    0.37001   0.38863   0.40945   0.42129   0.43000
 Alpha virt. eigenvalues --    0.43214   0.43399   0.43697   0.43913   0.44800
 Alpha virt. eigenvalues --    0.45552   0.46659   0.47470   0.47970   0.48876
 Alpha virt. eigenvalues --    0.50427   0.52171   0.71904   2.00819   2.03145
 Alpha virt. eigenvalues --    2.05487   2.12446   4.40278   4.42138   4.43283
 Alpha virt. eigenvalues --    4.43375   4.43562   4.43963   4.44016   4.44373
 Alpha virt. eigenvalues --    4.45313   4.45394   4.49169   4.65041  96.19884
 Alpha virt. eigenvalues --   96.22512  96.25389  96.34798
          Condensed to atoms (all electrons):
               1          2          3          4
     1  Na  10.890475   0.064842   0.034127  -0.021566
     2  Na   0.064842  10.557513   0.282258  -0.009294
     3  Na   0.034127   0.282258  10.646641   0.213821
     4  Na  -0.021566  -0.009294   0.213821  10.776995
 Mulliken charges:
               1
     1  Na   0.032122
     2  Na   0.104681
     3  Na  -0.176847
     4  Na   0.040044
 Sum of Mulliken charges =  -0.00000
 Mulliken charges with hydrogens summed into heavy atoms:
               1
     1  Na   0.032122
     2  Na   0.104681
     3  Na  -0.176847
     4  Na   0.040044
 Electronic spatial extent (au):  <R**2>=           2133.3396
 Charge=             -0.0000 electrons
 Dipole moment (field-independent basis, Debye):
    X=              0.7678    Y=              0.7786    Z=             -0.0514  Tot=              1.0947
 Quadrupole moment (field-independent basis, Debye-Ang):
   XX=            -38.1054   YY=            -34.2604   ZZ=            -45.3962
   XY=             -1.0202   XZ=              0.2676   YZ=             -0.5687
 Traceless Quadrupole moment (field-independent basis, Debye-Ang):
   XX=              1.1486   YY=              4.9936   ZZ=             -6.1422
   XY=             -1.0202   XZ=              0.2676   YZ=             -0.5687
 Octapole moment (field-independent basis, Debye-Ang**2):
  XXX=            -13.1203  YYY=             33.9697  ZZZ=              0.3748  XYY=             13.8946
  XXY=            -17.1247  XXZ=             -4.0310  XZZ=              1.4068  YZZ=              2.7817
  YYZ=             -0.5418  XYZ=             -0.0701
 Hexadecapole moment (field-independent basis, Debye-Ang**3):
 XXXX=          -2796.6816 YYYY=           -460.2381 ZZZZ=           -205.7586 XXXY=            -60.5410
 XXXZ=             12.2889 YYYX=             10.4043 YYYZ=             -3.9732 ZZZX=              1.5009
 ZZZY=             -2.9919 XXYY=           -628.6984 XXZZ=           -599.2093 YYZZ=           -121.7213
 XXYZ=              2.4532 YYXZ=              0.0408 ZZXY=             -1.1461
 N-N= 7.845872962412D+01 E-N=-1.715838190354D+03  KE= 6.472562047749D+02
 No NMR shielding tensors so no spin-rotation constants.
 Leave Link  601 at Wed Oct  4 14:13:29 2023, MaxMem=  1610612736 cpu:               8.1 elap:               4.7
 (Enter /home/sekinelabo/g16/l701.exe)
 ... and contract with generalized density number  0.
 Compute integral first derivatives.
 Leave Link  701 at Wed Oct  4 14:13:33 2023, MaxMem=  1610612736 cpu:               7.1 elap:               4.1
 (Enter /home/sekinelabo/g16/l702.exe)
 L702 exits ... SP integral derivatives will be done elsewhere.
 Leave Link  702 at Wed Oct  4 14:13:34 2023, MaxMem=  1610612736 cpu:               0.6 elap:               0.4
 (Enter /home/sekinelabo/g16/l703.exe)
 Integral derivatives from FoFJK, PRISM(SPDF).
 Compute integral first derivatives, UseDBF=F ICtDFT=           0.
 Calling FoFJK, ICntrl=      2127 FMM=F ISym2X=0 I1Cent= 0 IOpClX= 0 NMat=1 NMatS=1 NMatT=0.
 FoFJK:  IHMeth= 1 ICntrl=    2127 DoSepK=F KAlg= 0 I1Cent=           0 FoldK=F
 IRaf=         0 NMat=       1 IRICut=       1 DoRegI=T DoRafI=F ISym2E= 0 IDoP0=0 IntGTp=1.
 FoFCou: FMM=F IPFlag=           0 FMFlag=      100000 FMFlg1=         800
         NFxFlg=           0 DoJE=F BraDBF=F KetDBF=F FulRan=T
         wScrn=  0.000000 ICntrl=      2127 IOpCl=  0 I1Cent=           0 NGrid=           0
         NMat0=    1 NMatS0=      1 NMatT0=    0 NMatD0=    1 NMtDS0=    0 NMtDT0=    0
 Symmetry not used in FoFCou.
 Leave Link  703 at Wed Oct  4 14:13:41 2023, MaxMem=  1610612736 cpu:              12.8 elap:               7.1
 (Enter /home/sekinelabo/g16/l716.exe)
 Dipole        = 3.02071108D-01 3.06322931D-01-2.02331531D-02
 ***** Axes restored to original set *****
 -------------------------------------------------------------------
 Center     Atomic                   Forces (Hartrees/Bohr)
 Number     Number              X              Y              Z
 -------------------------------------------------------------------
      1       11          -0.002567971    0.000054808    0.004794241
      2       11          -0.001400370   -0.000092218   -0.004633788
      3       11           0.005191325   -0.000819784    0.005336741
      4       11          -0.001222985    0.000857194   -0.005497194
 -------------------------------------------------------------------
 Cartesian Forces:  Max     0.005497194 RMS     0.003434823
 Z-matrix is all fixed cartesians, so copy forces.
 Force constants in Cartesian coordinates: 
                1             2             3             4             5 
      1  0.100000D+01
      2  0.000000D+00  0.100000D+01
      3  0.000000D+00  0.000000D+00  0.100000D+01
      4  0.000000D+00  0.000000D+00  0.000000D+00  0.337292D-01
      5  0.000000D+00  0.000000D+00  0.000000D+00  0.000000D+00  0.000000D+00
      6  0.000000D+00  0.000000D+00  0.000000D+00  0.126068D-01  0.000000D+00
      7  0.000000D+00  0.000000D+00  0.000000D+00 -0.337292D-01  0.000000D+00
      8  0.000000D+00  0.000000D+00  0.000000D+00  0.000000D+00  0.000000D+00
      9  0.000000D+00  0.000000D+00  0.000000D+00 -0.126068D-01  0.000000D+00
     10  0.000000D+00  0.000000D+00  0.000000D+00  0.000000D+00  0.000000D+00
     11  0.000000D+00  0.000000D+00  0.000000D+00  0.000000D+00  0.000000D+00
     12  0.000000D+00  0.000000D+00  0.000000D+00  0.000000D+00  0.000000D+00
                6             7             8             9            10 
      6  0.471196D-02
      7 -0.126068D-01  0.337292D-01
      8  0.000000D+00  0.000000D+00  0.000000D+00
      9 -0.471196D-02  0.126068D-01  0.000000D+00  0.471196D-02
     10  0.000000D+00  0.000000D+00  0.000000D+00  0.000000D+00  0.100000D+01
     11  0.000000D+00  0.000000D+00  0.000000D+00  0.000000D+00  0.000000D+00
     12  0.000000D+00  0.000000D+00  0.000000D+00  0.000000D+00  0.000000D+00
               11            12 
     11  0.100000D+01
     12  0.000000D+00  0.100000D+01
 Leave Link  716 at Wed Oct  4 14:13:41 2023, MaxMem=  1610612736 cpu:               0.9 elap:               0.6
 (Enter /home/sekinelabo/g16/l103.exe)

 GradGradGradGradGradGradGradGradGradGradGradGradGradGradGradGradGradGrad
 Berny optimization.
 Search for a local minimum.
 Step number   1 out of a maximum of    2
 All quantities printed in internal units (Hartrees-Bohrs-Radians)
 Second derivative matrix not updated -- first step.
 The second derivative matrix:
                          X1        Y1        Z1        X2        Y2
           X1           1.00000
           Y1           0.00000   1.00000
           Z1          -0.00000   0.00000   1.00000
           X2           0.00000   0.00000   0.00000   0.03373
           Y2           0.00000   0.00000   0.00000  -0.00000   0.00000
           Z2           0.00000   0.00000   0.00000   0.01261   0.00000
           X3           0.00000   0.00000   0.00000  -0.03373  -0.00000
           Y3           0.00000   0.00000   0.00000   0.00000  -0.00000
           Z3           0.00000   0.00000   0.00000  -0.01261   0.00000
           X4           0.00000   0.00000   0.00000   0.00000   0.00000
           Y4           0.00000   0.00000   0.00000   0.00000   0.00000
           Z4           0.00000   0.00000   0.00000   0.00000   0.00000
                          Z2        X3        Y3        Z3        X4
           Z2           0.00471
           X3          -0.01261   0.03373
           Y3           0.00000  -0.00000   0.00000
           Z3          -0.00471   0.01261   0.00000   0.00471
           X4           0.00000   0.00000   0.00000   0.00000   1.00000
           Y4           0.00000   0.00000   0.00000   0.00000   0.00000
           Z4           0.00000   0.00000   0.00000   0.00000  -0.00000
                          Y4        Z4
           Y4           1.00000
           Z4           0.00000   1.00000
 ITU=  0
     Eigenvalues ---    0.07688   0.08022   0.28269   0.50000   0.53355
     Eigenvalues ---    1.00000
 Angle between quadratic step and forces=  38.48 degrees.
 Linear search not attempted -- first point.
 B after Tr=    -0.000000    0.000000    0.000000
         Rot=    1.000000    0.000000   -0.000000    0.000000 Ang=   0.00 deg.
 Variable       Old X    -DE/DX   Delta X   Delta X   Delta X     New X
                                 (Linear)    (Quad)   (Total)
    X1        0.00000  -0.00257   0.00000  -0.01554  -0.01554  -0.01554
    Y1       -0.00000   0.00005   0.00000   0.00019   0.00019   0.00019
    Z1        0.00000   0.00479   0.00000   0.00115   0.00115   0.00115
    X2       -5.27155  -0.00140   0.00000  -0.03984  -0.03984  -5.31139
    Y2        0.00000  -0.00009   0.00000   0.00231   0.00231   0.00231
    Z2        7.88189  -0.00463   0.00000  -0.05844  -0.05844   7.82345
    X3        0.00000   0.00519   0.00000   0.04721   0.04721   0.04721
    Y3        0.00000  -0.00082   0.00000  -0.00486  -0.00486  -0.00486
    Z3        9.85221   0.00534   0.00000   0.06773   0.06773   9.91994
    X4        1.10781  -0.00122   0.00000   0.00817   0.00817   1.11597
    Y4       -1.17319   0.00086   0.00000   0.00235   0.00235  -1.17084
    Z4       17.79461  -0.00550   0.00000  -0.01044  -0.01044  17.78416
         Item               Value     Threshold  Converged?
 Maximum Force            0.005497     0.000450     NO 
 RMS     Force            0.003435     0.000300     NO 
 Maximum Displacement     0.067734     0.001800     NO 
 RMS     Displacement     0.031980     0.001200     NO 
 Predicted change in Energy=-5.159010D-04
 GradGradGradGradGradGradGradGradGradGradGradGradGradGradGradGradGradGrad

 Leave Link  103 at Wed Oct  4 14:13:43 2023, MaxMem=  1610612736 cpu:               3.5 elap:               1.8
 (Enter /home/sekinelabo/g16/l9999.exe)
 1\1\GINC-SEKINELABO-XA7R-R37\Force\RB3LYP\6-311+G(d)\Na4\SEKINELABO\04
 -Oct-2023\0\\#p B3LYP/6-311+g(d) force\\\0,1\Na,0.,0.,0.\Na,-2.7895844
 369,0.,4.170917241\Na,0.,0.,5.2135652276\Na,0.5862252119,-0.6208252863
 ,9.4165009249\\Version=ES64L-G16RevB.01\State=1-A\HF=-649.1749953\RMSD
 =5.198e-09\RMSF=3.435e-03\Dipole=-0.3383778,0.0179078,-0.265838\Quadru
 pole=3.5286736,-4.5437057,1.0150321,-0.0765579,-1.0737319,-0.5045544\P
 G=C01 [X(Na4)]\\@


 ERWIN WITH HIS PSI CAN DO
 CALCULATIONS QUITE A FEW.
 BUT ONE THING HAS NOT BEEN SEEN
 JUST WHAT DOES PSI REALLY MEAN.
 -- WALTER HUCKEL, TRANS. BY FELIX BLOCH
 Job cpu time:       0 days  0 hours  4 minutes 14.2 seconds.
 Elapsed time:       0 days  0 hours  2 minutes 21.8 seconds.
 File lengths (MBytes):  RWF=     10 Int=      0 D2E=      0 Chk=      2 Scr=      1
 Normal termination of Gaussian 16 at Wed Oct  4 14:13:44 2023.
 Initial command:
 /home/sekinelabo/g16/l1.exe "/home/sekinelabo/g16temp/Gau-8101.inp" -scrdir="/home/sekinelabo/g16temp/"
 Entering Link 1 = /home/sekinelabo/g16/l1.exe PID=     11177.
  
 Copyright (c) 1988-2017, Gaussian, Inc.  All Rights Reserved.
  
 This is part of the Gaussian(R) 16 program.  It is based on
 the Gaussian(R) 09 system (copyright 2009, Gaussian, Inc.),
 the Gaussian(R) 03 system (copyright 2003, Gaussian, Inc.),
 the Gaussian(R) 98 system (copyright 1998, Gaussian, Inc.),
 the Gaussian(R) 94 system (copyright 1995, Gaussian, Inc.),
 the Gaussian 92(TM) system (copyright 1992, Gaussian, Inc.),
 the Gaussian 90(TM) system (copyright 1990, Gaussian, Inc.),
 the Gaussian 88(TM) system (copyright 1988, Gaussian, Inc.),
 the Gaussian 86(TM) system (copyright 1986, Carnegie Mellon
 University), and the Gaussian 82(TM) system (copyright 1983,
 Carnegie Mellon University). Gaussian is a federally registered
 trademark of Gaussian, Inc.
  
 This software contains proprietary and confidential information,
 including trade secrets, belonging to Gaussian, Inc.
  
 This software is provided under written license and may be
 used, copied, transmitted, or stored only in accord with that
 written license.
  
 The following legend is applicable only to US Government
 contracts under FAR:
  
                    RESTRICTED RIGHTS LEGEND
  
 Use, reproduction and disclosure by the US Government is
 subject to restrictions as set forth in subparagraphs (a)
 and (c) of the Commercial Computer Software - Restricted
 Rights clause in FAR 52.227-19.
  
 Gaussian, Inc.
 340 Quinnipiac St., Bldg. 40, Wallingford CT 06492
  
  
 ---------------------------------------------------------------
 Warning -- This program may not be used in any manner that
 competes with the business of Gaussian, Inc. or will provide
 assistance to any competitor of Gaussian, Inc.  The licensee
 of this program is prohibited from giving any competitor of
 Gaussian, Inc. access to this program.  By using this program,
 the user acknowledges that Gaussian, Inc. is engaged in the
 business of creating and licensing software in the field of
 computational chemistry and represents and warrants to the
 licensee that it is not a competitor of Gaussian, Inc. and that
 it will not use this program in any manner prohibited above.
 ---------------------------------------------------------------
  

 Cite this work as:
 Gaussian 16, Revision B.01,
 M. J. Frisch, G. W. Trucks, H. B. Schlegel, G. E. Scuseria, 
 M. A. Robb, J. R. Cheeseman, G. Scalmani, V. Barone, 
 G. A. Petersson, H. Nakatsuji, X. Li, M. Caricato, A. V. Marenich, 
 J. Bloino, B. G. Janesko, R. Gomperts, B. Mennucci, H. P. Hratchian, 
 J. V. Ortiz, A. F. Izmaylov, J. L. Sonnenberg, D. Williams-Young, 
 F. Ding, F. Lipparini, F. Egidi, J. Goings, B. Peng, A. Petrone, 
 T. Henderson, D. Ranasinghe, V. G. Zakrzewski, J. Gao, N. Rega, 
 G. Zheng, W. Liang, M. Hada, M. Ehara, K. Toyota, R. Fukuda, 
 J. Hasegawa, M. Ishida, T. Nakajima, Y. Honda, O. Kitao, H. Nakai, 
 T. Vreven, K. Throssell, J. A. Montgomery, Jr., J. E. Peralta, 
 F. Ogliaro, M. J. Bearpark, J. J. Heyd, E. N. Brothers, K. N. Kudin, 
 V. N. Staroverov, T. A. Keith, R. Kobayashi, J. Normand, 
 K. Raghavachari, A. P. Rendell, J. C. Burant, S. S. Iyengar, 
 J. Tomasi, M. Cossi, J. M. Millam, M. Klene, C. Adamo, R. Cammi, 
 J. W. Ochterski, R. L. Martin, K. Morokuma, O. Farkas, 
 J. B. Foresman, and D. J. Fox, Gaussian, Inc., Wallingford CT, 2016.
 
 ******************************************
 Gaussian 16:  ES64L-G16RevB.01 20-Dec-2017
                 4-Oct-2023 
 ******************************************
 %NProcShared=16
 Will use up to   16 processors via shared memory.
 %mem=12GB
 %Chk=checkpoint.chk
 -------------------------
 #p B3LYP/6-311+g(d) force
 -------------------------
 1/10=7,30=1,38=1/1,3;
 2/12=2,17=6,18=5,40=1/2;
 3/5=4,6=6,7=11,11=2,25=1,30=1,71=1,74=-5/1,2,3;
 4//1;
 5/5=2,38=5/2;
 6/7=2,8=2,9=2,10=2,28=1/1;
 7/29=1/1,2,3,16;
 1/10=7,30=1/3;
 99//99;
 Leave Link    1 at Wed Oct  4 14:13:44 2023, MaxMem=  1610612736 cpu:               0.7 elap:               0.5
 (Enter /home/sekinelabo/g16/l101.exe)


 Symbolic Z-matrix:
 Charge =  0 Multiplicity = 1
 Na                    0.        0.        0. 
 Na                   -3.94352   0.        3.34573 
 Na                    0.        0.        2.48213 
 Na                   -0.18964  -0.05451   5.06367 
 
 ITRead=  0  0  0  0
 MicOpt= -1 -1 -1 -1
 NAtoms=      4 NQM=        4 NQMF=       0 NMMI=      0 NMMIF=      0
                NMic=       0 NMicF=      0.
                    Isotopes and Nuclear Properties:
 (Nuclear quadrupole moments (NQMom) in fm**2, nuclear magnetic moments (NMagM)
  in nuclear magnetons)

  Atom         1           2           3           4
 IAtWgt=          23          23          23          23
 AtmWgt=  22.9897697  22.9897697  22.9897697  22.9897697
 NucSpn=           3           3           3           3
 AtZEff=  -0.0000000  -0.0000000  -0.0000000  -0.0000000
 NQMom=   10.4000000  10.4000000  10.4000000  10.4000000
 NMagM=    2.2175200   2.2175200   2.2175200   2.2175200
 AtZNuc=  11.0000000  11.0000000  11.0000000  11.0000000
 Leave Link  101 at Wed Oct  4 14:13:46 2023, MaxMem=  1610612736 cpu:               1.8 elap:               1.1
 (Enter /home/sekinelabo/g16/l103.exe)

 GradGradGradGradGradGradGradGradGradGradGradGradGradGradGradGradGradGrad
 Berny optimization.
 Initialization pass.
 Trust Radius=3.00D-01 FncErr=1.00D-07 GrdErr=1.00D-07 EigMax=2.50D+02 EigMin=1.00D-04
 Number of steps in this run=      2 maximum allowed number of steps=      2.
 GradGradGradGradGradGradGradGradGradGradGradGradGradGradGradGradGradGrad

 Leave Link  103 at Wed Oct  4 14:13:46 2023, MaxMem=  1610612736 cpu:               0.5 elap:               0.3
 (Enter /home/sekinelabo/g16/l202.exe)
                          Input orientation:                          
 ---------------------------------------------------------------------
 Center     Atomic      Atomic             Coordinates (Angstroms)
 Number     Number       Type             X           Y           Z
 ---------------------------------------------------------------------
      1         11           0        0.000000    0.000000    0.000000
      2         11           0       -3.943523    0.000000    3.345729
      3         11           0        0.000000    0.000000    2.482134
      4         11           0       -0.189639   -0.054509    5.063671
 ---------------------------------------------------------------------
                    Distance matrix (angstroms):
                    1          2          3          4
     1  Na   0.000000
     2  Na   5.171583   0.000000
     3  Na   2.482134   4.036975   0.000000
     4  Na   5.067514   4.128673   2.589067   0.000000
 Stoichiometry    Na4
 Framework group  C1[X(Na4)]
 Deg. of freedom     6
 Full point group                 C1      NOp   1
 Largest Abelian subgroup         C1      NOp   1
 Largest concise Abelian subgroup C1      NOp   1
                         Standard orientation:                         
 ---------------------------------------------------------------------
 Center     Atomic      Atomic             Coordinates (Angstroms)
 Number     Number       Type             X           Y           Z
 ---------------------------------------------------------------------
      1         11           0       -2.818325   -0.734117   -0.009373
      2         11           0        2.192821   -2.012240    0.000439
      3         11           0       -0.794648    0.702882    0.018091
      4         11           0        1.420151    2.043476   -0.009157
 ---------------------------------------------------------------------
 Rotational constants (GHZ):           2.3743668           1.4274336           0.8915219
 Leave Link  202 at Wed Oct  4 14:13:47 2023, MaxMem=  1610612736 cpu:               1.2 elap:               0.7
 (Enter /home/sekinelabo/g16/l301.exe)
 Standard basis: 6-311+G(d) (5D, 7F)
 Ernie: Thresh=  0.10000D-02 Tol=  0.10000D-05 Strict=F.
 There are   124 symmetry adapted cartesian basis functions of A   symmetry.
 There are   120 symmetry adapted basis functions of A   symmetry.
   120 basis functions,   200 primitive gaussians,   124 cartesian basis functions
    22 alpha electrons       22 beta electrons
       nuclear repulsion energy       106.9140109307 Hartrees.
 IExCor=  402 DFT=T Ex+Corr=B3LYP ExCW=0 ScaHFX=  0.200000
 ScaDFX=  0.800000  0.720000  1.000000  0.810000 ScalE2=  1.000000  1.000000
 IRadAn=      5 IRanWt=     -1 IRanGd=            0 ICorTp=0 IEmpDi=  4
 NAtoms=    4 NActive=    4 NUniq=    4 SFac= 1.00D+00 NAtFMM=   60 NAOKFM=F Big=F
 Integral buffers will be    131072 words long.
 Raffenetti 2 integral format.
 Two-electron integral symmetry is turned on.
 Leave Link  301 at Wed Oct  4 14:13:47 2023, MaxMem=  1610612736 cpu:               0.7 elap:               0.4
 (Enter /home/sekinelabo/g16/l302.exe)
 NPDir=0 NMtPBC=     1 NCelOv=     1 NCel=       1 NClECP=     1 NCelD=      1
         NCelK=      1 NCelE2=     1 NClLst=     1 CellRange=     0.0.
 One-electron integrals computed using PRISM.
 One-electron integral symmetry used in STVInt
 NBasis=   120 RedAO= T EigKep=  8.21D-06  NBF=   120
 NBsUse=   119 1.00D-06 EigRej=  3.81D-07 NBFU=   119
 Precomputing XC quadrature grid using
 IXCGrd= 4 IRadAn=           5 IRanWt=          -1 IRanGd=           0 AccXCQ= 0.00D+00.
 Generated NRdTot=       0 NPtTot=           0 NUsed=           0 NTot=          32
 NSgBfM=   118   117   117   117   118 MxSgAt=     4 MxSgA2=     4.
 Leave Link  302 at Wed Oct  4 14:13:58 2023, MaxMem=  1610612736 cpu:              20.8 elap:              11.4
 (Enter /home/sekinelabo/g16/l303.exe)
 DipDrv:  MaxL=1.
 Leave Link  303 at Wed Oct  4 14:14:00 2023, MaxMem=  1610612736 cpu:               3.0 elap:               1.7
 (Enter /home/sekinelabo/g16/l401.exe)
 ExpMin= 7.60D-03 ExpMax= 3.62D+04 ExpMxC= 1.21D+03 IAcc=3 IRadAn=         5 AccDes= 0.00D+00
 Harris functional with IExCor=  402 and IRadAn=       5 diagonalized for initial guess.
 HarFok:  IExCor=  402 AccDes= 0.00D+00 IRadAn=         5 IDoV= 1 UseB2=F ITyADJ=14
 ICtDFT=  3500011 ScaDFX=  1.000000  1.000000  1.000000  1.000000
 FoFCou: FMM=F IPFlag=           0 FMFlag=      100000 FMFlg1=           0
         NFxFlg=           0 DoJE=T BraDBF=F KetDBF=T FulRan=T
         wScrn=  0.000000 ICntrl=       500 IOpCl=  0 I1Cent=   200000004 NGrid=           0
         NMat0=    1 NMatS0=      1 NMatT0=    0 NMatD0=    1 NMtDS0=    0 NMtDT0=    0
 Petite list used in FoFCou.
 Harris En= -649.040465017001    
 JPrj=0 DoOrth=F DoCkMO=F.
 Leave Link  401 at Wed Oct  4 14:14:09 2023, MaxMem=  1610612736 cpu:              14.8 elap:               8.4
 (Enter /home/sekinelabo/g16/l502.exe)
 Keep R1 ints in memory in canonical form, NReq=41581762.
 FoFCou: FMM=F IPFlag=           0 FMFlag=           0 FMFlg1=           0
         NFxFlg=           0 DoJE=F BraDBF=F KetDBF=F FulRan=T
         wScrn=  0.000000 ICntrl=       600 IOpCl=  0 I1Cent=           0 NGrid=           0
         NMat0=    1 NMatS0=   7260 NMatT0=    0 NMatD0=    1 NMtDS0=    0 NMtDT0=    0
 Symmetry not used in FoFCou.
 Two-electron integral symmetry not used.
 Closed shell SCF:
 Using DIIS extrapolation, IDIIS=  1040.
 NGot=  1610612736 LenX=  1584221380 LenY=  1584205563
 Requested convergence on RMS density matrix=1.00D-08 within 128 cycles.
 Requested convergence on MAX density matrix=1.00D-06.
 Requested convergence on             energy=1.00D-06.
 No special actions if energy rises.

 Cycle   1  Pass 1  IDiag  1:
 E= -649.143855085594    
 DIIS: error= 1.59D-02 at cycle   1 NSaved=   1.
 NSaved= 1 IEnMin= 1 EnMin= -649.143855085594     IErMin= 1 ErrMin= 1.59D-02
 ErrMax= 1.59D-02  0.00D+00 EMaxC= 1.00D-01 BMatC= 2.73D-02 BMatP= 2.73D-02
 IDIUse=3 WtCom= 8.41D-01 WtEn= 1.59D-01
 Coeff-Com:  0.100D+01
 Coeff-En:   0.100D+01
 Coeff:      0.100D+01
 Gap=     0.008 Goal=   None    Shift=    0.000
 GapD=    0.008 DampG=0.250 DampE=0.500 DampFc=0.2500 IDamp=-1.
 Damping current iteration by 2.50D-01
 RMSDP=1.03D-02 MaxDP=4.29D-01              OVMax= 7.05D-01

 Cycle   2  Pass 1  IDiag  1:
 E= -649.148896234264     Delta-E=       -0.005041148670 Rises=F Damp=T
 DIIS: error= 1.12D-02 at cycle   2 NSaved=   2.
 NSaved= 2 IEnMin= 2 EnMin= -649.148896234264     IErMin= 2 ErrMin= 1.12D-02
 ErrMax= 1.12D-02  0.00D+00 EMaxC= 1.00D-01 BMatC= 1.03D-02 BMatP= 2.73D-02
 IDIUse=3 WtCom= 8.88D-01 WtEn= 1.12D-01
 Coeff-Com: -0.110D+01 0.210D+01
 Coeff-En:   0.149D+00 0.851D+00
 Coeff:     -0.959D+00 0.196D+01
 Gap=     0.003 Goal=   None    Shift=    0.000
 RMSDP=4.24D-03 MaxDP=2.06D-01 DE=-5.04D-03 OVMax= 7.89D-01

 Cycle   3  Pass 1  IDiag  1:
 E= -649.128610943811     Delta-E=        0.020285290453 Rises=F Damp=F
 DIIS: error= 7.96D-03 at cycle   3 NSaved=   3.
 NSaved= 3 IEnMin= 2 EnMin= -649.148896234264     IErMin= 3 ErrMin= 7.96D-03
 ErrMax= 7.96D-03  0.00D+00 EMaxC= 1.00D-01 BMatC= 5.39D-03 BMatP= 1.03D-02
 IDIUse=3 WtCom= 9.20D-01 WtEn= 7.96D-02
 Coeff-Com: -0.668D+00 0.122D+01 0.449D+00
 Coeff-En:   0.000D+00 0.860D+00 0.140D+00
 Coeff:     -0.615D+00 0.119D+01 0.425D+00
 Gap=     0.020 Goal=   None    Shift=    0.000
 RMSDP=5.96D-03 MaxDP=2.14D-01 DE= 2.03D-02 OVMax= 4.06D-01

 Cycle   4  Pass 1  IDiag  1:
 E= -649.161988216699     Delta-E=       -0.033377272888 Rises=F Damp=F
 DIIS: error= 2.71D-03 at cycle   4 NSaved=   4.
 NSaved= 4 IEnMin= 4 EnMin= -649.161988216699     IErMin= 4 ErrMin= 2.71D-03
 ErrMax= 2.71D-03  0.00D+00 EMaxC= 1.00D-01 BMatC= 5.93D-04 BMatP= 5.39D-03
 IDIUse=3 WtCom= 9.73D-01 WtEn= 2.71D-02
 Coeff-Com: -0.104D+00 0.185D+00 0.222D+00 0.697D+00
 Coeff-En:   0.000D+00 0.000D+00 0.222D-01 0.978D+00
 Coeff:     -0.102D+00 0.180D+00 0.217D+00 0.705D+00
 Gap=     0.021 Goal=   None    Shift=    0.000
 RMSDP=2.11D-03 MaxDP=8.41D-02 DE=-3.34D-02 OVMax= 8.34D-02

 Cycle   5  Pass 1  IDiag  1:
 E= -649.163835700139     Delta-E=       -0.001847483439 Rises=F Damp=F
 DIIS: error= 1.72D-03 at cycle   5 NSaved=   5.
 NSaved= 5 IEnMin= 5 EnMin= -649.163835700139     IErMin= 5 ErrMin= 1.72D-03
 ErrMax= 1.72D-03  0.00D+00 EMaxC= 1.00D-01 BMatC= 2.05D-04 BMatP= 5.93D-04
 IDIUse=3 WtCom= 9.83D-01 WtEn= 1.72D-02
 Coeff-Com: -0.153D-01 0.174D-01 0.910D-01 0.397D+00 0.510D+00
 Coeff-En:   0.000D+00 0.000D+00 0.000D+00 0.263D+00 0.737D+00
 Coeff:     -0.150D-01 0.171D-01 0.895D-01 0.394D+00 0.514D+00
 Gap=     0.025 Goal=   None    Shift=    0.000
 RMSDP=9.80D-04 MaxDP=3.72D-02 DE=-1.85D-03 OVMax= 4.17D-02

 Cycle   6  Pass 1  IDiag  1:
 E= -649.164733071460     Delta-E=       -0.000897371321 Rises=F Damp=F
 DIIS: error= 2.97D-04 at cycle   6 NSaved=   6.
 NSaved= 6 IEnMin= 6 EnMin= -649.164733071460     IErMin= 6 ErrMin= 2.97D-04
 ErrMax= 2.97D-04  0.00D+00 EMaxC= 1.00D-01 BMatC= 1.20D-05 BMatP= 2.05D-04
 IDIUse=3 WtCom= 9.97D-01 WtEn= 2.97D-03
 Coeff-Com: -0.248D-02 0.136D-02 0.176D-01 0.187D-01 0.175D+00 0.790D+00
 Coeff-En:   0.000D+00 0.000D+00 0.000D+00 0.000D+00 0.000D+00 0.100D+01
 Coeff:     -0.248D-02 0.135D-02 0.176D-01 0.186D-01 0.174D+00 0.791D+00
 Gap=     0.026 Goal=   None    Shift=    0.000
 RMSDP=2.66D-04 MaxDP=1.01D-02 DE=-8.97D-04 OVMax= 1.46D-02

 Cycle   7  Pass 1  IDiag  1:
 E= -649.164775738656     Delta-E=       -0.000042667197 Rises=F Damp=F
 DIIS: error= 1.31D-04 at cycle   7 NSaved=   7.
 NSaved= 7 IEnMin= 7 EnMin= -649.164775738656     IErMin= 7 ErrMin= 1.31D-04
 ErrMax= 1.31D-04  0.00D+00 EMaxC= 1.00D-01 BMatC= 1.20D-06 BMatP= 1.20D-05
 IDIUse=3 WtCom= 9.99D-01 WtEn= 1.31D-03
 Coeff-Com: -0.274D-02 0.404D-02-0.647D-02-0.291D-01 0.393D-01 0.287D+00
 Coeff-Com:  0.708D+00
 Coeff-En:   0.000D+00 0.000D+00 0.000D+00 0.000D+00 0.000D+00 0.281D-01
 Coeff-En:   0.972D+00
 Coeff:     -0.274D-02 0.404D-02-0.647D-02-0.291D-01 0.393D-01 0.286D+00
 Coeff:      0.709D+00
 Gap=     0.026 Goal=   None    Shift=    0.000
 RMSDP=6.22D-05 MaxDP=2.86D-03 DE=-4.27D-05 OVMax= 5.08D-03

 Cycle   8  Pass 1  IDiag  1:
 E= -649.164783177370     Delta-E=       -0.000007438714 Rises=F Damp=F
 DIIS: error= 1.16D-05 at cycle   8 NSaved=   8.
 NSaved= 8 IEnMin= 8 EnMin= -649.164783177370     IErMin= 8 ErrMin= 1.16D-05
 ErrMax= 1.16D-05  0.00D+00 EMaxC= 1.00D-01 BMatC= 1.53D-08 BMatP= 1.20D-06
 IDIUse=1 WtCom= 1.00D+00 WtEn= 0.00D+00
 Coeff-Com: -0.569D-03 0.802D-03-0.158D-02-0.310D-02 0.839D-03 0.196D-02
 Coeff-Com:  0.340D-01 0.968D+00
 Coeff:     -0.569D-03 0.802D-03-0.158D-02-0.310D-02 0.839D-03 0.196D-02
 Coeff:      0.340D-01 0.968D+00
 Gap=     0.026 Goal=   None    Shift=    0.000
 RMSDP=1.66D-05 MaxDP=4.70D-04 DE=-7.44D-06 OVMax= 6.56D-04

 Cycle   9  Pass 1  IDiag  1:
 E= -649.164783276810     Delta-E=       -0.000000099440 Rises=F Damp=F
 DIIS: error= 5.97D-06 at cycle   9 NSaved=   9.
 NSaved= 9 IEnMin= 9 EnMin= -649.164783276810     IErMin= 9 ErrMin= 5.97D-06
 ErrMax= 5.97D-06  0.00D+00 EMaxC= 1.00D-01 BMatC= 4.75D-09 BMatP= 1.53D-08
 IDIUse=1 WtCom= 1.00D+00 WtEn= 0.00D+00
 Coeff-Com: -0.215D-03 0.300D-03-0.362D-03 0.121D-02-0.343D-02-0.188D-01
 Coeff-Com: -0.449D-01 0.306D+00 0.760D+00
 Coeff:     -0.215D-03 0.300D-03-0.362D-03 0.121D-02-0.343D-02-0.188D-01
 Coeff:     -0.449D-01 0.306D+00 0.760D+00
 Gap=     0.026 Goal=   None    Shift=    0.000
 RMSDP=4.26D-06 MaxDP=9.01D-05 DE=-9.94D-08 OVMax= 1.73D-04

 Cycle  10  Pass 1  IDiag  1:
 E= -649.164783297835     Delta-E=       -0.000000021025 Rises=F Damp=F
 DIIS: error= 2.53D-06 at cycle  10 NSaved=  10.
 NSaved=10 IEnMin=10 EnMin= -649.164783297835     IErMin=10 ErrMin= 2.53D-06
 ErrMax= 2.53D-06  0.00D+00 EMaxC= 1.00D-01 BMatC= 4.61D-10 BMatP= 4.75D-09
 IDIUse=1 WtCom= 1.00D+00 WtEn= 0.00D+00
 Coeff-Com: -0.146D-03 0.196D-03-0.487D-04 0.509D-03-0.526D-03-0.208D-02
 Coeff-Com: -0.134D-01 0.860D-02 0.101D+00 0.906D+00
 Coeff:     -0.146D-03 0.196D-03-0.487D-04 0.509D-03-0.526D-03-0.208D-02
 Coeff:     -0.134D-01 0.860D-02 0.101D+00 0.906D+00
 Gap=     0.026 Goal=   None    Shift=    0.000
 RMSDP=1.92D-06 MaxDP=8.85D-05 DE=-2.10D-08 OVMax= 1.41D-04

 Cycle  11  Pass 1  IDiag  1:
 E= -649.164783301617     Delta-E=       -0.000000003782 Rises=F Damp=F
 DIIS: error= 5.52D-07 at cycle  11 NSaved=  11.
 NSaved=11 IEnMin=11 EnMin= -649.164783301617     IErMin=11 ErrMin= 5.52D-07
 ErrMax= 5.52D-07  0.00D+00 EMaxC= 1.00D-01 BMatC= 4.40D-11 BMatP= 4.61D-10
 IDIUse=1 WtCom= 1.00D+00 WtEn= 0.00D+00
 Coeff-Com: -0.246D-04 0.311D-04 0.193D-04-0.388D-04 0.113D-03 0.100D-02
 Coeff-Com: -0.193D-02-0.236D-01-0.456D-01 0.368D+00 0.702D+00
 Coeff:     -0.246D-04 0.311D-04 0.193D-04-0.388D-04 0.113D-03 0.100D-02
 Coeff:     -0.193D-02-0.236D-01-0.456D-01 0.368D+00 0.702D+00
 Gap=     0.026 Goal=   None    Shift=    0.000
 RMSDP=6.63D-07 MaxDP=1.66D-05 DE=-3.78D-09 OVMax= 2.63D-05

 Cycle  12  Pass 1  IDiag  1:
 E= -649.164783301840     Delta-E=       -0.000000000222 Rises=F Damp=F
 DIIS: error= 9.65D-08 at cycle  12 NSaved=  12.
 NSaved=12 IEnMin=12 EnMin= -649.164783301840     IErMin=12 ErrMin= 9.65D-08
 ErrMax= 9.65D-08  0.00D+00 EMaxC= 1.00D-01 BMatC= 1.37D-12 BMatP= 4.40D-11
 IDIUse=1 WtCom= 1.00D+00 WtEn= 0.00D+00
 Coeff-Com:  0.214D-05-0.292D-05 0.544D-05-0.617D-04 0.887D-04 0.612D-03
 Coeff-Com:  0.717D-03-0.105D-01-0.285D-01 0.848D-01 0.190D+00 0.763D+00
 Coeff:      0.214D-05-0.292D-05 0.544D-05-0.617D-04 0.887D-04 0.612D-03
 Coeff:      0.717D-03-0.105D-01-0.285D-01 0.848D-01 0.190D+00 0.763D+00
 Gap=     0.026 Goal=   None    Shift=    0.000
 RMSDP=1.12D-07 MaxDP=3.49D-06 DE=-2.22D-10 OVMax= 4.10D-06

 Cycle  13  Pass 1  IDiag  1:
 E= -649.164783301842     Delta-E=       -0.000000000002 Rises=F Damp=F
 DIIS: error= 7.08D-08 at cycle  13 NSaved=  13.
 NSaved=13 IEnMin=13 EnMin= -649.164783301842     IErMin=13 ErrMin= 7.08D-08
 ErrMax= 7.08D-08  0.00D+00 EMaxC= 1.00D-01 BMatC= 3.13D-13 BMatP= 1.37D-12
 IDIUse=1 WtCom= 1.00D+00 WtEn= 0.00D+00
 Coeff-Com:  0.394D-05-0.516D-05 0.491D-06-0.690D-05 0.151D-06-0.754D-05
 Coeff-Com:  0.403D-03 0.532D-03-0.171D-03-0.112D-01-0.290D-01 0.181D+00
 Coeff-Com:  0.858D+00
 Coeff:      0.394D-05-0.516D-05 0.491D-06-0.690D-05 0.151D-06-0.754D-05
 Coeff:      0.403D-03 0.532D-03-0.171D-03-0.112D-01-0.290D-01 0.181D+00
 Coeff:      0.858D+00
 Gap=     0.026 Goal=   None    Shift=    0.000
 RMSDP=4.34D-08 MaxDP=1.27D-06 DE=-1.93D-12 OVMax= 1.51D-06

 Cycle  14  Pass 1  IDiag  1:
 E= -649.164783301844     Delta-E=       -0.000000000002 Rises=F Damp=F
 DIIS: error= 2.26D-08 at cycle  14 NSaved=  14.
 NSaved=14 IEnMin=14 EnMin= -649.164783301844     IErMin=14 ErrMin= 2.26D-08
 ErrMax= 2.26D-08  0.00D+00 EMaxC= 1.00D-01 BMatC= 3.20D-14 BMatP= 3.13D-13
 IDIUse=1 WtCom= 1.00D+00 WtEn= 0.00D+00
 Coeff-Com:  0.353D-06-0.474D-06 0.247D-06-0.211D-06-0.334D-05-0.427D-05
 Coeff-Com:  0.225D-04-0.774D-04 0.935D-03 0.853D-03-0.902D-02-0.596D-02
 Coeff-Com: -0.115D+00 0.113D+01
 Coeff:      0.353D-06-0.474D-06 0.247D-06-0.211D-06-0.334D-05-0.427D-05
 Coeff:      0.225D-04-0.774D-04 0.935D-03 0.853D-03-0.902D-02-0.596D-02
 Coeff:     -0.115D+00 0.113D+01
 Gap=     0.026 Goal=   None    Shift=    0.000
 RMSDP=1.89D-08 MaxDP=6.93D-07 DE=-2.27D-12 OVMax= 6.40D-07

 Cycle  15  Pass 1  IDiag  1:
 E= -649.164783301846     Delta-E=       -0.000000000002 Rises=F Damp=F
 DIIS: error= 3.53D-09 at cycle  15 NSaved=  15.
 NSaved=15 IEnMin=15 EnMin= -649.164783301846     IErMin=15 ErrMin= 3.53D-09
 ErrMax= 3.53D-09  0.00D+00 EMaxC= 1.00D-01 BMatC= 1.19D-15 BMatP= 3.20D-14
 IDIUse=1 WtCom= 1.00D+00 WtEn= 0.00D+00
 Coeff-Com:  0.345D-07-0.569D-07 0.114D-06 0.685D-07-0.104D-05 0.350D-06
 Coeff-Com: -0.952D-05-0.129D-03 0.148D-03 0.993D-03-0.190D-02-0.683D-02
 Coeff-Com: -0.921D-01 0.285D+00 0.815D+00
 Coeff:      0.345D-07-0.569D-07 0.114D-06 0.685D-07-0.104D-05 0.350D-06
 Coeff:     -0.952D-05-0.129D-03 0.148D-03 0.993D-03-0.190D-02-0.683D-02
 Coeff:     -0.921D-01 0.285D+00 0.815D+00
 Gap=     0.026 Goal=   None    Shift=    0.000
 RMSDP=3.76D-09 MaxDP=1.28D-07 DE=-2.39D-12 OVMax= 1.00D-07

 SCF Done:  E(RB3LYP) =  -649.164783302     A.U. after   15 cycles
            NFock= 15  Conv=0.38D-08     -V/T= 2.0026
 KE= 6.474770295046D+02 PE=-1.772910814848D+03 EE= 3.693549911105D+02
 Leave Link  502 at Wed Oct  4 14:15:41 2023, MaxMem=  1610612736 cpu:             165.0 elap:              92.3
 (Enter /home/sekinelabo/g16/l601.exe)
 Copying SCF densities to generalized density rwf, IOpCl= 0 IROHF=0.

 **********************************************************************

            Population analysis using the SCF Density.

 **********************************************************************

 Orbital symmetries:
       Occupied  (A) (A) (A) (A) (A) (A) (A) (A) (A) (A) (A) (A)
                 (A) (A) (A) (A) (A) (A) (A) (A) (A) (A)
       Virtual   (A) (A) (A) (A) (A) (A) (A) (A) (A) (A) (A) (A)
                 (A) (A) (A) (A) (A) (A) (A) (A) (A) (A) (A) (A)
                 (A) (A) (A) (A) (A) (A) (A) (A) (A) (A) (A) (A)
                 (A) (A) (A) (A) (A) (A) (A) (A) (A) (A) (A) (A)
                 (A) (A) (A) (A) (A) (A) (A) (A) (A) (A) (A) (A)
                 (A) (A) (A) (A) (A) (A) (A) (A) (A) (A) (A) (A)
                 (A) (A) (A) (A) (A) (A) (A) (A) (A) (A) (A) (A)
                 (A) (A) (A) (A) (A) (A) (A) (A) (A) (A) (A) (A)
                 (A)
 The electronic state is 1-A.
 Alpha  occ. eigenvalues --  -38.46891 -38.46343 -38.44396 -38.43227  -2.22728
 Alpha  occ. eigenvalues --   -2.22044  -2.20472  -2.19139  -1.16634  -1.16339
 Alpha  occ. eigenvalues --   -1.16269  -1.15731  -1.15726  -1.15653  -1.14564
 Alpha  occ. eigenvalues --   -1.14007  -1.13978  -1.12775  -1.12713  -1.12706
 Alpha  occ. eigenvalues --   -0.16014  -0.10900
 Alpha virt. eigenvalues --   -0.08337  -0.03880  -0.03572  -0.03106  -0.01924
 Alpha virt. eigenvalues --   -0.00816  -0.00451  -0.00313  -0.00034   0.00477
 Alpha virt. eigenvalues --    0.00846   0.01046   0.01166   0.01292   0.01579
 Alpha virt. eigenvalues --    0.01821   0.01900   0.02033   0.02097   0.02162
 Alpha virt. eigenvalues --    0.02386   0.02498   0.02686   0.03205   0.03387
 Alpha virt. eigenvalues --    0.04026   0.04070   0.05116   0.06056   0.06443
 Alpha virt. eigenvalues --    0.07352   0.07380   0.07702   0.07939   0.08300
 Alpha virt. eigenvalues --    0.08715   0.08811   0.09356   0.10812   0.11314
 Alpha virt. eigenvalues --    0.11735   0.13079   0.15141   0.16289   0.22048
 Alpha virt. eigenvalues --    0.27629   0.27849   0.28554   0.30105   0.31753
 Alpha virt. eigenvalues --    0.32987   0.33932   0.34685   0.35282   0.36530
 Alpha virt. eigenvalues --    0.36652   0.38069   0.38820   0.39336   0.40847
 Alpha virt. eigenvalues --    0.42170   0.42547   0.43005   0.43559   0.45311
 Alpha virt. eigenvalues --    0.45400   0.46574   0.46781   0.48364   0.48759
 Alpha virt. eigenvalues --    0.48993   0.50523   0.50994   0.65313   0.65369
 Alpha virt. eigenvalues --    0.87384   0.94503   2.02313   2.04428   2.14839
 Alpha virt. eigenvalues --    2.20780   4.41519   4.41639   4.42798   4.43479
 Alpha virt. eigenvalues --    4.45604   4.46137   4.46881   4.49364   4.49775
 Alpha virt. eigenvalues --    4.51258   4.72144   4.86655  96.21439  96.26441
 Alpha virt. eigenvalues --   96.38019  96.43849
          Condensed to atoms (all electrons):
               1          2          3          4
     1  Na  10.638847  -0.113171   0.213928   0.056976
     2  Na  -0.113171  10.909358   0.051022   0.061072
     3  Na   0.213928   0.051022  11.811734  -0.199335
     4  Na   0.056976   0.061072  -0.199335  10.499076
 Mulliken charges:
               1
     1  Na   0.203420
     2  Na   0.091718
     3  Na  -0.877349
     4  Na   0.582211
 Sum of Mulliken charges =  -0.00000
 Mulliken charges with hydrogens summed into heavy atoms:
               1
     1  Na   0.203420
     2  Na   0.091718
     3  Na  -0.877349
     4  Na   0.582211
 Electronic spatial extent (au):  <R**2>=           1058.0820
 Charge=             -0.0000 electrons
 Dipole moment (field-independent basis, Debye):
    X=              1.8000    Y=             -0.2041    Z=             -0.0137  Tot=              1.8116
 Quadrupole moment (field-independent basis, Debye-Ang):
   XX=            -49.8565   YY=            -26.8385   ZZ=            -43.6454
   XY=              2.0791   XZ=              0.0250   YZ=             -0.0157
 Traceless Quadrupole moment (field-independent basis, Debye-Ang):
   XX=             -9.7430   YY=             13.2749   ZZ=             -3.5320
   XY=              2.0791   XZ=              0.0250   YZ=             -0.0157
 Octapole moment (field-independent basis, Debye-Ang**2):
  XXX=             -1.6807  YYY=              8.5380  ZZZ=             -0.0265  XYY=             24.5460
  XXY=             -8.5252  XXZ=             -0.2387  XZZ=              3.9027  YZZ=              1.1862
  YYZ=             -0.1333  XYZ=             -0.1498
 Hexadecapole moment (field-independent basis, Debye-Ang**3):
 XXXX=          -1312.2717 YYYY=           -549.1035 ZZZZ=           -175.6452 XXXY=             34.1920
 XXXZ=              0.7887 YYYX=             19.1565 YYYZ=             -0.3592 ZZZX=              0.1168
 ZZZY=             -0.0762 XXYY=           -286.1090 XXZZ=           -251.7537 YYZZ=           -133.4733
 XXYZ=             -0.0029 YYXZ=             -0.0977 ZZXY=              3.3792
 N-N= 1.069140109307D+02 E-N=-1.772910814709D+03  KE= 6.474770295046D+02
 No NMR shielding tensors so no spin-rotation constants.
 Leave Link  601 at Wed Oct  4 14:15:46 2023, MaxMem=  1610612736 cpu:               8.1 elap:               4.5
 (Enter /home/sekinelabo/g16/l701.exe)
 ... and contract with generalized density number  0.
 Compute integral first derivatives.
 Leave Link  701 at Wed Oct  4 14:15:49 2023, MaxMem=  1610612736 cpu:               7.1 elap:               3.9
 (Enter /home/sekinelabo/g16/l702.exe)
 L702 exits ... SP integral derivatives will be done elsewhere.
 Leave Link  702 at Wed Oct  4 14:15:50 2023, MaxMem=  1610612736 cpu:               0.5 elap:               0.4
 (Enter /home/sekinelabo/g16/l703.exe)
 Integral derivatives from FoFJK, PRISM(SPDF).
 Compute integral first derivatives, UseDBF=F ICtDFT=           0.
 Calling FoFJK, ICntrl=      2127 FMM=F ISym2X=0 I1Cent= 0 IOpClX= 0 NMat=1 NMatS=1 NMatT=0.
 FoFJK:  IHMeth= 1 ICntrl=    2127 DoSepK=F KAlg= 0 I1Cent=           0 FoldK=F
 IRaf=         0 NMat=       1 IRICut=       1 DoRegI=T DoRafI=F ISym2E= 0 IDoP0=0 IntGTp=1.
 FoFCou: FMM=F IPFlag=           0 FMFlag=      100000 FMFlg1=         800
         NFxFlg=           0 DoJE=F BraDBF=F KetDBF=F FulRan=T
         wScrn=  0.000000 ICntrl=      2127 IOpCl=  0 I1Cent=           0 NGrid=           0
         NMat0=    1 NMatS0=      1 NMatT0=    0 NMatD0=    1 NMtDS0=    0 NMtDT0=    0
 Symmetry not used in FoFCou.
 Leave Link  703 at Wed Oct  4 14:15:57 2023, MaxMem=  1610612736 cpu:              13.7 elap:               7.6
 (Enter /home/sekinelabo/g16/l716.exe)
 Dipole        = 7.08192668D-01-8.02997617D-02-5.40093445D-03
 ***** Axes restored to original set *****
 -------------------------------------------------------------------
 Center     Atomic                   Forces (Hartrees/Bohr)
 Number     Number              X              Y              Z
 -------------------------------------------------------------------
      1       11           0.002847164    0.000001717   -0.023052090
      2       11           0.005503815   -0.000107335    0.005586356
      3       11           0.000495389    0.000416028    0.000984012
      4       11          -0.008846369   -0.000310409    0.016481723
 -------------------------------------------------------------------
 Cartesian Forces:  Max     0.023052090 RMS     0.008908819
 Z-matrix is all fixed cartesians, so copy forces.
 Force constants in Cartesian coordinates: 
                1             2             3             4             5 
      1  0.557749D-01
      2 -0.114958D+00  0.413520D+00
      3  0.000000D+00  0.000000D+00  0.961338D-01
      4  0.152280D-02 -0.947353D-04  0.000000D+00  0.199869D-01
      5  0.601195D-02 -0.196243D-01  0.000000D+00 -0.106262D-03  0.183855D-02
      6  0.695370D-02 -0.432600D-03  0.000000D+00  0.184717D-02 -0.177501D-03
      7 -0.997390D-01  0.224899D+00  0.000000D+00 -0.134264D-01 -0.119996D-01
      8  0.221500D+00 -0.798463D+00  0.000000D+00  0.267238D-03  0.370173D-01
      9 -0.769483D-02 -0.405792D-04 -0.961338D-01 -0.238721D-02  0.446648D-04
     10  0.424413D-01 -0.109847D+00  0.000000D+00 -0.808335D-02  0.609389D-02
     11 -0.112554D+00  0.404567D+00  0.000000D+00 -0.662407D-04 -0.192315D-01
     12  0.741127D-03  0.473179D-03  0.000000D+00  0.540040D-03  0.132837D-03
                6             7             8             9            10 
      6  0.136778D-01
      7  0.561608D-02  0.212858D+00
      8  0.845950D-03 -0.433230D+00  0.154263D+01
      9 -0.811272D-02 -0.161297D-02 -0.163498D-02  0.184601D+00
     10 -0.144169D-01 -0.996925D-01  0.211462D+00  0.116950D-01  0.653346D-01
     11 -0.235849D-03  0.220330D+00 -0.781185D+00  0.163089D-02 -0.107710D+00
     12 -0.556505D-02 -0.400310D-02  0.789028D-03 -0.803550D-01  0.272194D-02
               11            12 
     11  0.395849D+00
     12 -0.139504D-02  0.859200D-01
 Leave Link  716 at Wed Oct  4 14:15:58 2023, MaxMem=  1610612736 cpu:               0.7 elap:               0.5
 (Enter /home/sekinelabo/g16/l103.exe)

 GradGradGradGradGradGradGradGradGradGradGradGradGradGradGradGradGradGrad
 Berny optimization.
 Search for a local minimum.
 Step number   1 out of a maximum of    2
 All quantities printed in internal units (Hartrees-Bohrs-Radians)
 Second derivative matrix not updated -- first step.
 The second derivative matrix:
                          X1        Y1        Z1        X2        Y2
           X1           0.05577
           Y1          -0.11496   0.41352
           Z1          -0.00000   0.00000   0.09613
           X2           0.00152  -0.00009  -0.00000   0.01999
           Y2           0.00601  -0.01962  -0.00000  -0.00011   0.00184
           Z2           0.00695  -0.00043  -0.00000   0.00185  -0.00018
           X3          -0.09974   0.22490   0.00000  -0.01343  -0.01200
           Y3           0.22150  -0.79846  -0.00000   0.00027   0.03702
           Z3          -0.00769  -0.00004  -0.09613  -0.00239   0.00004
           X4           0.04244  -0.10985  -0.00000  -0.00808   0.00609
           Y4          -0.11255   0.40457   0.00000  -0.00007  -0.01923
           Z4           0.00074   0.00047  -0.00000   0.00054   0.00013
                          Z2        X3        Y3        Z3        X4
           Z2           0.01368
           X3           0.00562   0.21286
           Y3           0.00085  -0.43323   1.54263
           Z3          -0.00811  -0.00161  -0.00163   0.18460
           X4          -0.01442  -0.09969   0.21146   0.01170   0.06533
           Y4          -0.00024   0.22033  -0.78118   0.00163  -0.10771
           Z4          -0.00557  -0.00400   0.00079  -0.08035   0.00272
                          Y4        Z4
           Y4           0.39585
           Z4          -0.00140   0.08592
 ITU=  0
     Eigenvalues ---    0.02118   0.03899   0.09007   0.11909   0.27252
     Eigenvalues ---    2.54504
 Quadratic step=4.612D-01 exceeds max=3.000D-01 adjusted using Lamda=-3.020D-02.
 Angle between NR and scaled steps=   8.24 degrees.
 Angle between quadratic step and forces=  15.45 degrees.
 Linear search not attempted -- first point.
 B after Tr=    -0.000000   -0.000000    0.000000
         Rot=    1.000000    0.000000   -0.000000    0.000000 Ang=   0.00 deg.
 Variable       Old X    -DE/DX   Delta X   Delta X   Delta X     New X
                                 (Linear)    (Quad)   (Total)
    X1       -0.00000   0.00285   0.00000   0.05323   0.05323   0.05323
    Y1        0.00000   0.00000   0.00000  -0.00035  -0.00035  -0.00035
    Z1       -0.00000  -0.02305   0.00000  -0.19950  -0.19950  -0.19950
    X2       -7.45218   0.00550   0.00000   0.07965   0.07965  -7.37253
    Y2       -0.00000  -0.00011   0.00000  -0.00156  -0.00156  -0.00156
    Z2        6.32251   0.00559   0.00000   0.08944   0.08944   6.41195
    X3       -0.00000   0.00050   0.00000  -0.01106  -0.01106  -0.01106
    Y3        0.00000   0.00042   0.00000   0.00452   0.00452   0.00452
    Z3        4.69055   0.00098   0.00000  -0.02238  -0.02238   4.66817
    X4       -0.35837  -0.00885   0.00000  -0.12182  -0.12182  -0.48019
    Y4       -0.10301  -0.00031   0.00000  -0.00261  -0.00261  -0.10562
    Z4        9.56895   0.01648   0.00000   0.13244   0.13244   9.70139
         Item               Value     Threshold  Converged?
 Maximum Force            0.023052     0.000450     NO 
 RMS     Force            0.008909     0.000300     NO 
 Maximum Displacement     0.199498     0.001800     NO 
 RMS     Displacement     0.086608     0.001200     NO 
 Predicted change in Energy=-5.821419D-03
 GradGradGradGradGradGradGradGradGradGradGradGradGradGradGradGradGradGrad

 Leave Link  103 at Wed Oct  4 14:16:01 2023, MaxMem=  1610612736 cpu:               5.7 elap:               3.1
 (Enter /home/sekinelabo/g16/l9999.exe)
 1\1\GINC-SEKINELABO-XA7R-R37\Force\RB3LYP\6-311+G(d)\Na4\SEKINELABO\04
 -Oct-2023\0\\#p B3LYP/6-311+g(d) force\\\0,1\Na,0.,0.,0.\Na,-3.9435228
 015,0.,3.3457287521\Na,0.,0.,2.4821340395\Na,-0.1896386613,-0.05450942
 15,5.0636713304\\Version=ES64L-G16RevB.01\State=1-A\HF=-649.1647833\RM
 SD=3.758e-09\RMSF=8.909e-03\Dipole=-0.4755627,-0.0079943,0.5308392\Qua
 drupole=2.6718462,-2.6239461,-0.0479001,-0.1518917,8.5868997,-0.079364
 1\PG=C01 [X(Na4)]\\@


 TO ERR IS HUMAN - AND TO BLAME IT ON A COMPUTER IS EVEN MORE SO.
 Job cpu time:       0 days  0 hours  4 minutes  5.3 seconds.
 Elapsed time:       0 days  0 hours  2 minutes 17.3 seconds.
 File lengths (MBytes):  RWF=     10 Int=      0 D2E=      0 Chk=      2 Scr=      1
 Normal termination of Gaussian 16 at Wed Oct  4 14:16:02 2023.
 Initial command:
 /home/sekinelabo/g16/l1.exe "/home/sekinelabo/g16temp/Gau-8101.inp" -scrdir="/home/sekinelabo/g16temp/"
 Entering Link 1 = /home/sekinelabo/g16/l1.exe PID=     13215.
  
 Copyright (c) 1988-2017, Gaussian, Inc.  All Rights Reserved.
  
 This is part of the Gaussian(R) 16 program.  It is based on
 the Gaussian(R) 09 system (copyright 2009, Gaussian, Inc.),
 the Gaussian(R) 03 system (copyright 2003, Gaussian, Inc.),
 the Gaussian(R) 98 system (copyright 1998, Gaussian, Inc.),
 the Gaussian(R) 94 system (copyright 1995, Gaussian, Inc.),
 the Gaussian 92(TM) system (copyright 1992, Gaussian, Inc.),
 the Gaussian 90(TM) system (copyright 1990, Gaussian, Inc.),
 the Gaussian 88(TM) system (copyright 1988, Gaussian, Inc.),
 the Gaussian 86(TM) system (copyright 1986, Carnegie Mellon
 University), and the Gaussian 82(TM) system (copyright 1983,
 Carnegie Mellon University). Gaussian is a federally registered
 trademark of Gaussian, Inc.
  
 This software contains proprietary and confidential information,
 including trade secrets, belonging to Gaussian, Inc.
  
 This software is provided under written license and may be
 used, copied, transmitted, or stored only in accord with that
 written license.
  
 The following legend is applicable only to US Government
 contracts under FAR:
  
                    RESTRICTED RIGHTS LEGEND
  
 Use, reproduction and disclosure by the US Government is
 subject to restrictions as set forth in subparagraphs (a)
 and (c) of the Commercial Computer Software - Restricted
 Rights clause in FAR 52.227-19.
  
 Gaussian, Inc.
 340 Quinnipiac St., Bldg. 40, Wallingford CT 06492
  
  
 ---------------------------------------------------------------
 Warning -- This program may not be used in any manner that
 competes with the business of Gaussian, Inc. or will provide
 assistance to any competitor of Gaussian, Inc.  The licensee
 of this program is prohibited from giving any competitor of
 Gaussian, Inc. access to this program.  By using this program,
 the user acknowledges that Gaussian, Inc. is engaged in the
 business of creating and licensing software in the field of
 computational chemistry and represents and warrants to the
 licensee that it is not a competitor of Gaussian, Inc. and that
 it will not use this program in any manner prohibited above.
 ---------------------------------------------------------------
  

 Cite this work as:
 Gaussian 16, Revision B.01,
 M. J. Frisch, G. W. Trucks, H. B. Schlegel, G. E. Scuseria, 
 M. A. Robb, J. R. Cheeseman, G. Scalmani, V. Barone, 
 G. A. Petersson, H. Nakatsuji, X. Li, M. Caricato, A. V. Marenich, 
 J. Bloino, B. G. Janesko, R. Gomperts, B. Mennucci, H. P. Hratchian, 
 J. V. Ortiz, A. F. Izmaylov, J. L. Sonnenberg, D. Williams-Young, 
 F. Ding, F. Lipparini, F. Egidi, J. Goings, B. Peng, A. Petrone, 
 T. Henderson, D. Ranasinghe, V. G. Zakrzewski, J. Gao, N. Rega, 
 G. Zheng, W. Liang, M. Hada, M. Ehara, K. Toyota, R. Fukuda, 
 J. Hasegawa, M. Ishida, T. Nakajima, Y. Honda, O. Kitao, H. Nakai, 
 T. Vreven, K. Throssell, J. A. Montgomery, Jr., J. E. Peralta, 
 F. Ogliaro, M. J. Bearpark, J. J. Heyd, E. N. Brothers, K. N. Kudin, 
 V. N. Staroverov, T. A. Keith, R. Kobayashi, J. Normand, 
 K. Raghavachari, A. P. Rendell, J. C. Burant, S. S. Iyengar, 
 J. Tomasi, M. Cossi, J. M. Millam, M. Klene, C. Adamo, R. Cammi, 
 J. W. Ochterski, R. L. Martin, K. Morokuma, O. Farkas, 
 J. B. Foresman, and D. J. Fox, Gaussian, Inc., Wallingford CT, 2016.
 
 ******************************************
 Gaussian 16:  ES64L-G16RevB.01 20-Dec-2017
                 4-Oct-2023 
 ******************************************
 %NProcShared=16
 Will use up to   16 processors via shared memory.
 %mem=12GB
 %Chk=checkpoint.chk
 -------------------------
 #p B3LYP/6-311+g(d) force
 -------------------------
 1/10=7,30=1,38=1/1,3;
 2/12=2,17=6,18=5,40=1/2;
 3/5=4,6=6,7=11,11=2,25=1,30=1,71=1,74=-5/1,2,3;
 4//1;
 5/5=2,38=5/2;
 6/7=2,8=2,9=2,10=2,28=1/1;
 7/29=1/1,2,3,16;
 1/10=7,30=1/3;
 99//99;
 Leave Link    1 at Wed Oct  4 14:16:02 2023, MaxMem=  1610612736 cpu:               0.5 elap:               0.3
 (Enter /home/sekinelabo/g16/l101.exe)


 Symbolic Z-matrix:
 Charge =  0 Multiplicity = 1
 Na                    0.        0.        0. 
 Na                   -4.09637   0.       -0.25018 
 Na                    0.        0.        5.38341 
 Na                   -2.62195  -0.22003   5.62879 
 
 ITRead=  0  0  0  0
 MicOpt= -1 -1 -1 -1
 NAtoms=      4 NQM=        4 NQMF=       0 NMMI=      0 NMMIF=      0
                NMic=       0 NMicF=      0.
                    Isotopes and Nuclear Properties:
 (Nuclear quadrupole moments (NQMom) in fm**2, nuclear magnetic moments (NMagM)
  in nuclear magnetons)

  Atom         1           2           3           4
 IAtWgt=          23          23          23          23
 AtmWgt=  22.9897697  22.9897697  22.9897697  22.9897697
 NucSpn=           3           3           3           3
 AtZEff=  -0.0000000  -0.0000000  -0.0000000  -0.0000000
 NQMom=   10.4000000  10.4000000  10.4000000  10.4000000
 NMagM=    2.2175200   2.2175200   2.2175200   2.2175200
 AtZNuc=  11.0000000  11.0000000  11.0000000  11.0000000
 Leave Link  101 at Wed Oct  4 14:16:03 2023, MaxMem=  1610612736 cpu:               1.9 elap:               1.2
 (Enter /home/sekinelabo/g16/l103.exe)

 GradGradGradGradGradGradGradGradGradGradGradGradGradGradGradGradGradGrad
 Berny optimization.
 Initialization pass.
 Trust Radius=3.00D-01 FncErr=1.00D-07 GrdErr=1.00D-07 EigMax=2.50D+02 EigMin=1.00D-04
 Number of steps in this run=      2 maximum allowed number of steps=      2.
[...]
 ErrMax= 2.86D-03  0.00D+00 EMaxC= 1.00D-01 BMatC= 4.09D-04 BMatP= 1.20D-04
 IDIUse=3 WtCom= 1.58D-01 WtEn= 8.42D-01
 Coeff-Com:  0.145D-01-0.181D-01 0.655D+00 0.349D+00
 Coeff-En:   0.000D+00 0.000D+00 0.745D+00 0.255D+00
 Coeff:      0.229D-02-0.286D-02 0.731D+00 0.270D+00
 Gap=     0.047 Goal=   None    Shift=    0.000
 RMSDP=7.42D-04 MaxDP=3.56D-02 DE= 2.10D-03 OVMax= 7.39D-02

 Cycle   5  Pass 1  IDiag  1:
 E= -649.181781009295     Delta-E=       -0.002703586882 Rises=F Damp=F
 DIIS: error= 5.60D-04 at cycle   5 NSaved=   5.
 NSaved= 5 IEnMin= 5 EnMin= -649.181781009295     IErMin= 5 ErrMin= 5.60D-04
 ErrMax= 5.60D-04  0.00D+00 EMaxC= 1.00D-01 BMatC= 2.04D-05 BMatP= 1.20D-04
 IDIUse=3 WtCom= 9.94D-01 WtEn= 5.60D-03
 Coeff-Com: -0.444D-03-0.161D-03 0.318D+00 0.305D-01 0.652D+00
 Coeff-En:   0.000D+00 0.000D+00 0.162D+00 0.000D+00 0.838D+00
 Coeff:     -0.442D-03-0.160D-03 0.317D+00 0.303D-01 0.653D+00
 Gap=     0.047 Goal=   None    Shift=    0.000
 RMSDP=1.91D-04 MaxDP=1.01D-02 DE=-2.70D-03 OVMax= 1.67D-02

 Cycle   6  Pass 1  IDiag  1:
 E= -649.181886681139     Delta-E=       -0.000105671844 Rises=F Damp=F
 DIIS: error= 3.95D-05 at cycle   6 NSaved=   6.
 NSaved= 6 IEnMin= 6 EnMin= -649.181886681139     IErMin= 6 ErrMin= 3.95D-05
 ErrMax= 3.95D-05  0.00D+00 EMaxC= 1.00D-01 BMatC= 1.39D-07 BMatP= 2.04D-05
 IDIUse=1 WtCom= 1.00D+00 WtEn= 0.00D+00
 Coeff-Com: -0.223D-02 0.252D-02 0.171D-01-0.267D-01 0.160D+00 0.850D+00
 Coeff:     -0.223D-02 0.252D-02 0.171D-01-0.267D-01 0.160D+00 0.850D+00
 Gap=     0.047 Goal=   None    Shift=    0.000
 RMSDP=3.50D-05 MaxDP=1.01D-03 DE=-1.06D-04 OVMax= 8.77D-04

 Cycle   7  Pass 1  IDiag  1:
 E= -649.181887126422     Delta-E=       -0.000000445283 Rises=F Damp=F
 DIIS: error= 1.00D-05 at cycle   7 NSaved=   7.
 NSaved= 7 IEnMin= 7 EnMin= -649.181887126422     IErMin= 7 ErrMin= 1.00D-05
 ErrMax= 1.00D-05  0.00D+00 EMaxC= 1.00D-01 BMatC= 4.99D-09 BMatP= 1.39D-07
 IDIUse=1 WtCom= 1.00D+00 WtEn= 0.00D+00
 Coeff-Com: -0.406D-03 0.490D-03-0.110D-01-0.270D-02-0.139D-01 0.115D+00
 Coeff-Com:  0.913D+00
 Coeff:     -0.406D-03 0.490D-03-0.110D-01-0.270D-02-0.139D-01 0.115D+00
 Coeff:      0.913D+00
 Gap=     0.047 Goal=   None    Shift=    0.000
 RMSDP=7.51D-06 MaxDP=2.04D-04 DE=-4.45D-07 OVMax= 3.46D-04

 Cycle   8  Pass 1  IDiag  1:
 E= -649.181887152550     Delta-E=       -0.000000026128 Rises=F Damp=F
 DIIS: error= 4.54D-06 at cycle   8 NSaved=   8.
 NSaved= 8 IEnMin= 8 EnMin= -649.181887152550     IErMin= 8 ErrMin= 4.54D-06
 ErrMax= 4.54D-06  0.00D+00 EMaxC= 1.00D-01 BMatC= 1.14D-09 BMatP= 4.99D-09
 IDIUse=1 WtCom= 1.00D+00 WtEn= 0.00D+00
 Coeff-Com:  0.534D-04-0.779D-04-0.423D-02-0.526D-03-0.796D-02-0.711D-02
 Coeff-Com:  0.327D+00 0.692D+00
 Coeff:      0.534D-04-0.779D-04-0.423D-02-0.526D-03-0.796D-02-0.711D-02
 Coeff:      0.327D+00 0.692D+00
 Gap=     0.047 Goal=   None    Shift=    0.000
 RMSDP=2.21D-06 MaxDP=6.49D-05 DE=-2.61D-08 OVMax= 8.58D-05

 Cycle   9  Pass 1  IDiag  1:
 E= -649.181887157126     Delta-E=       -0.000000004576 Rises=F Damp=F
 DIIS: error= 5.67D-07 at cycle   9 NSaved=   9.
 NSaved= 9 IEnMin= 9 EnMin= -649.181887157126     IErMin= 9 ErrMin= 5.67D-07
 ErrMax= 5.67D-07  0.00D+00 EMaxC= 1.00D-01 BMatC= 2.84D-11 BMatP= 1.14D-09
 IDIUse=1 WtCom= 1.00D+00 WtEn= 0.00D+00
 Coeff-Com:  0.883D-04-0.115D-03-0.298D-03 0.414D-03-0.260D-02-0.132D-01
 Coeff-Com: -0.582D-02 0.116D+00 0.905D+00
 Coeff:      0.883D-04-0.115D-03-0.298D-03 0.414D-03-0.260D-02-0.132D-01
 Coeff:     -0.582D-02 0.116D+00 0.905D+00
 Gap=     0.047 Goal=   None    Shift=    0.000
 RMSDP=7.59D-07 MaxDP=2.00D-05 DE=-4.58D-09 OVMax= 2.51D-05

 Cycle  10  Pass 1  IDiag  1:
 E= -649.181887157300     Delta-E=       -0.000000000174 Rises=F Damp=F
 DIIS: error= 1.35D-07 at cycle  10 NSaved=  10.
 NSaved=10 IEnMin=10 EnMin= -649.181887157300     IErMin=10 ErrMin= 1.35D-07
 ErrMax= 1.35D-07  0.00D+00 EMaxC= 1.00D-01 BMatC= 2.04D-12 BMatP= 2.84D-11
 IDIUse=1 WtCom= 1.00D+00 WtEn= 0.00D+00
 Coeff-Com:  0.250D-04-0.324D-04 0.123D-04 0.125D-03-0.478D-03-0.423D-02
 Coeff-Com: -0.131D-01 0.187D-01 0.327D+00 0.672D+00
 Coeff:      0.250D-04-0.324D-04 0.123D-04 0.125D-03-0.478D-03-0.423D-02
 Coeff:     -0.131D-01 0.187D-01 0.327D+00 0.672D+00
 Gap=     0.047 Goal=   None    Shift=    0.000
 RMSDP=1.17D-07 MaxDP=3.07D-06 DE=-1.74D-10 OVMax= 5.35D-06

 Cycle  11  Pass 1  IDiag  1:
 E= -649.181887157306     Delta-E=       -0.000000000006 Rises=F Damp=F
 DIIS: error= 4.48D-08 at cycle  11 NSaved=  11.
 NSaved=11 IEnMin=11 EnMin= -649.181887157306     IErMin=11 ErrMin= 4.48D-08
 ErrMax= 4.48D-08  0.00D+00 EMaxC= 1.00D-01 BMatC= 1.39D-13 BMatP= 2.04D-12
 IDIUse=1 WtCom= 1.00D+00 WtEn= 0.00D+00
 Coeff-Com: -0.448D-05 0.592D-05 0.573D-04-0.151D-04 0.186D-03 0.400D-03
 Coeff-Com: -0.397D-02-0.867D-02 0.496D-02 0.158D+00 0.849D+00
 Coeff:     -0.448D-05 0.592D-05 0.573D-04-0.151D-04 0.186D-03 0.400D-03
 Coeff:     -0.397D-02-0.867D-02 0.496D-02 0.158D+00 0.849D+00
 Gap=     0.047 Goal=   None    Shift=    0.000
 RMSDP=3.35D-08 MaxDP=9.76D-07 DE=-6.37D-12 OVMax= 1.49D-06

 Cycle  12  Pass 1  IDiag  1:
 E= -649.181887157311     Delta-E=       -0.000000000004 Rises=F Damp=F
 DIIS: error= 6.51D-09 at cycle  12 NSaved=  12.
 NSaved=12 IEnMin=12 EnMin= -649.181887157311     IErMin=12 ErrMin= 6.51D-09
 ErrMax= 6.51D-09  0.00D+00 EMaxC= 1.00D-01 BMatC= 5.05D-15 BMatP= 1.39D-13
 IDIUse=1 WtCom= 1.00D+00 WtEn= 0.00D+00
 Coeff-Com: -0.223D-05 0.290D-05 0.128D-04-0.128D-04 0.860D-04 0.311D-03
 Coeff-Com:  0.393D-04-0.231D-02-0.189D-01-0.195D-01 0.584D-01 0.982D+00
 Coeff:     -0.223D-05 0.290D-05 0.128D-04-0.128D-04 0.860D-04 0.311D-03
 Coeff:      0.393D-04-0.231D-02-0.189D-01-0.195D-01 0.584D-01 0.982D+00
 Gap=     0.047 Goal=   None    Shift=    0.000
 RMSDP=7.83D-09 MaxDP=2.43D-07 DE=-4.09D-12 OVMax= 4.20D-07

 SCF Done:  E(RB3LYP) =  -649.181887157     A.U. after   12 cycles
            NFock= 12  Conv=0.78D-08     -V/T= 2.0027
 KE= 6.474258204751D+02 PE=-1.759216521643D+03 EE= 3.625591912900D+02
 Leave Link  502 at Wed Oct  4 16:58:25 2023, MaxMem=  1610612736 cpu:             119.4 elap:              43.0
 (Enter /home/sekinelabo/g16/l601.exe)
 Copying SCF densities to generalized density rwf, IOpCl= 0 IROHF=0.

 **********************************************************************

            Population analysis using the SCF Density.

 **********************************************************************

 Orbital symmetries:
       Occupied  (A) (A) (A) (A) (A) (A) (A) (A) (A) (A) (A) (A)
                 (A) (A) (A) (A) (A) (A) (A) (A) (A) (A)
       Virtual   (A) (A) (A) (A) (A) (A) (A) (A) (A) (A) (A) (A)
                 (A) (A) (A) (A) (A) (A) (A) (A) (A) (A) (A) (A)
                 (A) (A) (A) (A) (A) (A) (A) (A) (A) (A) (A) (A)
                 (A) (A) (A) (A) (A) (A) (A) (A) (A) (A) (A) (A)
                 (A) (A) (A) (A) (A) (A) (A) (A) (A) (A) (A) (A)
                 (A) (A) (A) (A) (A) (A) (A) (A) (A) (A) (A) (A)
                 (A) (A) (A) (A) (A) (A) (A) (A) (A) (A) (A) (A)
                 (A) (A) (A) (A) (A) (A) (A) (A) (A) (A) (A) (A)
                 (A) (A)
 The electronic state is 1-A.
 Alpha  occ. eigenvalues --  -38.45928 -38.45458 -38.44766 -38.44231  -2.21955
 Alpha  occ. eigenvalues --   -2.21350  -2.20575  -2.19951  -1.16406  -1.15507
 Alpha  occ. eigenvalues --   -1.15490  -1.14934  -1.14874  -1.14671  -1.14247
 Alpha  occ. eigenvalues --   -1.14226  -1.14214  -1.13628  -1.13627  -1.13572
 Alpha  occ. eigenvalues --   -0.15807  -0.11465
 Alpha virt. eigenvalues --   -0.06729  -0.04685  -0.03696  -0.02480  -0.01674
 Alpha virt. eigenvalues --   -0.01239  -0.00436   0.00173   0.00262   0.00450
 Alpha virt. eigenvalues --    0.00651   0.00972   0.01255   0.01287   0.01509
 Alpha virt. eigenvalues --    0.01678   0.01755   0.01861   0.02118   0.02362
 Alpha virt. eigenvalues --    0.02567   0.02616   0.02799   0.02845   0.03280
 Alpha virt. eigenvalues --    0.03418   0.03584   0.04574   0.04926   0.05295
 Alpha virt. eigenvalues --    0.06640   0.06899   0.07972   0.08069   0.08390
 Alpha virt. eigenvalues --    0.08615   0.08642   0.08963   0.09508   0.10293
 Alpha virt. eigenvalues --    0.10954   0.11717   0.12060   0.14024   0.14977
 Alpha virt. eigenvalues --    0.16847   0.27522   0.27789   0.29092   0.31234
 Alpha virt. eigenvalues --    0.33507   0.34360   0.35069   0.35336   0.35862
 Alpha virt. eigenvalues --    0.35920   0.36265   0.37568   0.38407   0.40726
 Alpha virt. eigenvalues --    0.42505   0.42719   0.42906   0.43584   0.43823
 Alpha virt. eigenvalues --    0.44353   0.44403   0.44655   0.45227   0.47076
 Alpha virt. eigenvalues --    0.48760   0.49885   0.51890   0.52735   0.58536
 Alpha virt. eigenvalues --    0.64512   0.72334   0.90321   2.03829   2.05654
 Alpha virt. eigenvalues --    2.10417   2.16533   4.40833   4.41895   4.44471
 Alpha virt. eigenvalues --    4.44595   4.44785   4.44952   4.46563   4.47417
 Alpha virt. eigenvalues --    4.48343   4.51702   4.67669   4.80466  96.23603
 Alpha virt. eigenvalues --   96.26418  96.31990  96.40084
          Condensed to atoms (all electrons):
               1          2          3          4
     1  Na  10.702668   0.292782   0.006586   0.236513
     2  Na   0.292782  10.762693  -0.055501  -0.020283
     3  Na   0.006586  -0.055501  10.653408   0.239352
     4  Na   0.236513  -0.020283   0.239352  10.482332
 Mulliken charges:
               1
     1  Na  -0.238550
     2  Na   0.020310
     3  Na   0.156154
     4  Na   0.062086
 Sum of Mulliken charges =   0.00000
 Mulliken charges with hydrogens summed into heavy atoms:
               1
     1  Na  -0.238550
     2  Na   0.020310
     3  Na   0.156154
     4  Na   0.062086
 Electronic spatial extent (au):  <R**2>=           1463.9177
 Charge=             -0.0000 electrons
 Dipole moment (field-independent basis, Debye):
    X=              1.3371    Y=             -0.0615    Z=             -0.1898  Tot=              1.3519
 Quadrupole moment (field-independent basis, Debye-Ang):
   XX=            -30.8191   YY=            -38.8169   ZZ=            -43.0486
   XY=             -2.8854   XZ=              0.4441   YZ=             -0.1307
 Traceless Quadrupole moment (field-independent basis, Debye-Ang):
   XX=              6.7424   YY=             -1.2554   ZZ=             -5.4870
   XY=             -2.8854   XZ=              0.4441   YZ=             -0.1307
 Octapole moment (field-independent basis, Debye-Ang**2):
  XXX=             -0.0044  YYY=              4.1992  ZZZ=              0.0883  XYY=             11.7031
  XXY=            -12.0440  XXZ=            -13.5020  XZZ=              5.7862  YZZ=             -0.1454
  YYZ=              0.5929  XYZ=              1.7456
 Hexadecapole moment (field-independent basis, Debye-Ang**3):
 XXXX=          -1743.5384 YYYY=           -236.0849 ZZZZ=           -190.4011 XXXY=            -88.3652
 XXXZ=             14.1322 YYYX=            -10.1795 YYYZ=              0.0795 ZZZX=              2.0082
 ZZZY=             -0.4404 XXYY=           -421.9678 XXZZ=           -416.9845 YYZZ=            -71.5163
 XXYZ=              5.4886 YYXZ=              0.6867 ZZXY=             -4.7639
 N-N= 1.000496227205D+02 E-N=-1.759216521019D+03  KE= 6.474258204751D+02
 No NMR shielding tensors so no spin-rotation constants.
 Leave Link  601 at Wed Oct  4 16:58:27 2023, MaxMem=  1610612736 cpu:               7.4 elap:               2.4
 (Enter /home/sekinelabo/g16/l701.exe)
 ... and contract with generalized density number  0.
 Compute integral first derivatives.
 Leave Link  701 at Wed Oct  4 16:58:29 2023, MaxMem=  1610612736 cpu:               6.7 elap:               2.1
 (Enter /home/sekinelabo/g16/l702.exe)
 L702 exits ... SP integral derivatives will be done elsewhere.
 Leave Link  702 at Wed Oct  4 16:58:29 2023, MaxMem=  1610612736 cpu:               0.6 elap:               0.2
 (Enter /home/sekinelabo/g16/l703.exe)
 Integral derivatives from FoFJK, PRISM(SPDF).
 Compute integral first derivatives, UseDBF=F ICtDFT=           0.
 Calling FoFJK, ICntrl=      2127 FMM=F ISym2X=0 I1Cent= 0 IOpClX= 0 NMat=1 NMatS=1 NMatT=0.
 FoFJK:  IHMeth= 1 ICntrl=    2127 DoSepK=F KAlg= 0 I1Cent=           0 FoldK=F
 IRaf=         0 NMat=       1 IRICut=       1 DoRegI=T DoRafI=F ISym2E= 0 IDoP0=0 IntGTp=1.
 FoFCou: FMM=F IPFlag=           0 FMFlag=      100000 FMFlg1=         800
         NFxFlg=           0 DoJE=F BraDBF=F KetDBF=F FulRan=T
         wScrn=  0.000000 ICntrl=      2127 IOpCl=  0 I1Cent=           0 NGrid=           0
         NMat0=    1 NMatS0=      1 NMatT0=    0 NMatD0=    1 NMtDS0=    0 NMtDT0=    0
 Symmetry not used in FoFCou.
 Leave Link  703 at Wed Oct  4 16:58:33 2023, MaxMem=  1610612736 cpu:              12.6 elap:               3.8
 (Enter /home/sekinelabo/g16/l716.exe)
 Dipole        = 5.26054974D-01-2.42068377D-02-7.46832736D-02
 ***** Axes restored to original set *****
 -------------------------------------------------------------------
 Center     Atomic                   Forces (Hartrees/Bohr)
 Number     Number              X              Y              Z
 -------------------------------------------------------------------
      1       11           0.006651017    0.017372012   -0.024860176
      2       11           0.002200728   -0.000641907    0.006207124
      3       11           0.001372095    0.002004008    0.002651240
      4       11          -0.010223840   -0.018734113    0.016001813
 -------------------------------------------------------------------
 Cartesian Forces:  Max     0.024860176 RMS     0.012014972
 Z-matrix is all fixed cartesians, so copy forces.
 Force constants in Cartesian coordinates: 
                1             2             3             4             5 
      1  0.310239D-01
      2  0.335620D-01  0.612477D-01
      3 -0.156300D-01 -0.420676D-01  0.887381D-01
      4 -0.878242D-02 -0.242217D-02 -0.588004D-02  0.494066D-02
      5 -0.438889D-02 -0.705951D-02 -0.346502D-02  0.109772D-02  0.380839D-02
      6 -0.178320D-02  0.945822D-03 -0.110530D-01  0.328336D-02 -0.428645D-03
      7 -0.106596D-02  0.535412D-02  0.379177D-02  0.165412D-02 -0.166645D-02
      8  0.377089D-02  0.355156D-02  0.432443D-02 -0.847427D-03  0.853744D-03
      9 -0.179406D-02 -0.350189D-02 -0.348657D-02  0.000000D+00  0.000000D+00
     10 -0.211755D-01 -0.364939D-01  0.177183D-01  0.218764D-02  0.495762D-02
     11 -0.329440D-01 -0.577397D-01  0.412081D-01  0.217187D-02  0.239737D-02
     12  0.192073D-01  0.446236D-01 -0.741986D-01  0.259668D-02  0.389367D-02
                6             7             8             9            10 
      6  0.120669D-01
      7 -0.645910D-03  0.577625D-02
      8  0.330908D-03  0.554987D-02  0.137659D-01
      9  0.000000D+00  0.633299D-02  0.123616D-01  0.301466D-01
     10 -0.854241D-03 -0.636441D-02 -0.847333D-02 -0.453893D-02  0.253523D-01
     11 -0.848086D-03 -0.923755D-02 -0.181713D-01 -0.885968D-02  0.400096D-01
     12 -0.101397D-02 -0.947886D-02 -0.170169D-01 -0.266600D-01 -0.123251D-01
               11            12 
     11  0.735136D-01
     12 -0.315004D-01  0.101873D+00
 Leave Link  716 at Wed Oct  4 16:58:33 2023, MaxMem=  1610612736 cpu:               0.8 elap:               0.2
 (Enter /home/sekinelabo/g16/l103.exe)

 GradGradGradGradGradGradGradGradGradGradGradGradGradGradGradGradGradGrad
 Berny optimization.
 Search for a local minimum.
 Step number   1 out of a maximum of    2
 All quantities printed in internal units (Hartrees-Bohrs-Radians)
 Second derivative matrix not updated -- first step.
 The second derivative matrix:
                          X1        Y1        Z1        X2        Y2
           X1           0.03102
           Y1           0.03356   0.06125
           Z1          -0.01563  -0.04207   0.08874
           X2          -0.00878  -0.00242  -0.00588   0.00494
           Y2          -0.00439  -0.00706  -0.00347   0.00110   0.00381
           Z2          -0.00178   0.00095  -0.01105   0.00328  -0.00043
           X3          -0.00107   0.00535   0.00379   0.00165  -0.00167
           Y3           0.00377   0.00355   0.00432  -0.00085   0.00085
           Z3          -0.00179  -0.00350  -0.00349   0.00000  -0.00000
           X4          -0.02118  -0.03649   0.01772   0.00219   0.00496
           Y4          -0.03294  -0.05774   0.04121   0.00217   0.00240
           Z4           0.01921   0.04462  -0.07420   0.00260   0.00389
                          Z2        X3        Y3        Z3        X4
           Z2           0.01207
           X3          -0.00065   0.00578
           Y3           0.00033   0.00555   0.01377
           Z3          -0.00000   0.00633   0.01236   0.03015
           X4          -0.00085  -0.00636  -0.00847  -0.00454   0.02535
           Y4          -0.00085  -0.00924  -0.01817  -0.00886   0.04001
           Z4          -0.00101  -0.00948  -0.01702  -0.02666  -0.01233
                          Y4        Z4
           Y4           0.07351
           Z4          -0.03150   0.10187
 ITU=  0
     Eigenvalues ---    0.01066   0.01557   0.01624   0.04876   0.10628
     Eigenvalues ---    0.25475
 Quadratic step=3.853D-01 exceeds max=3.000D-01 adjusted using Lamda=-7.458D-03.
 Angle between NR and scaled steps=   9.02 degrees.
 Angle between quadratic step and forces=  46.36 degrees.
 Linear search not attempted -- first point.
 B after Tr=    -0.000000    0.000000    0.000000
         Rot=    1.000000    0.000000   -0.000000    0.000000 Ang=   0.00 deg.
 Variable       Old X    -DE/DX   Delta X   Delta X   Delta X     New X
                                 (Linear)    (Quad)   (Total)
    X1        0.00000   0.00665   0.00000  -0.02537  -0.02537  -0.02537
    Y1        0.00000   0.01737   0.00000   0.07685   0.07685   0.07685
    Z1        0.00000  -0.02486   0.00000  -0.18281  -0.18281  -0.18281
    X2       -2.59435   0.00220   0.00000   0.06424   0.06424  -2.53010
    Y2       -0.00000  -0.00064   0.00000  -0.02497  -0.02497  -0.02497
    Z2       -6.64389   0.00621   0.00000   0.19090   0.19090  -6.45299
    X3        0.00000   0.00137   0.00000   0.01927   0.01927   0.01927
    Y3        0.00000   0.00200   0.00000   0.01388   0.01388   0.01388
    Z3        8.12135   0.00265   0.00000   0.01372   0.01372   8.13507
    X4       -1.35727  -0.01022   0.00000  -0.05815  -0.05815  -1.41541
    Y4       -2.64929  -0.01873   0.00000  -0.06576  -0.06576  -2.71505
    Z4        3.35933   0.01600   0.00000  -0.02180  -0.02180   3.33753
         Item               Value     Threshold  Converged?
 Maximum Force            0.024860     0.000450     NO 
 RMS     Force            0.012015     0.000300     NO 
 Maximum Displacement     0.190899     0.001800     NO 
 RMS     Displacement     0.086649     0.001200     NO 
 Predicted change in Energy=-4.646752D-03
 GradGradGradGradGradGradGradGradGradGradGradGradGradGradGradGradGradGrad

 Leave Link  103 at Wed Oct  4 16:58:34 2023, MaxMem=  1610612736 cpu:               3.3 elap:               0.9
 (Enter /home/sekinelabo/g16/l9999.exe)
 1\1\GINC-SEKINELABO-XA7R-R37\Force\RB3LYP\6-311+G(d)\Na4\SEKINELABO\04
 -Oct-2023\0\\#p B3LYP/6-311+g(d) force\\\0,1\Na,0.,0.,0.\Na,-1.3728689
 594,0.,-3.5157968354\Na,0.,0.,4.2976358513\Na,-0.7182338665,-1.4019429
 072,1.777682225\\Version=ES64L-G16RevB.01\State=1-A\HF=-649.1818872\RM
 SD=7.826e-09\RMSF=1.201e-02\Dipole=0.0232925,0.0282679,0.5306183\Quadr
 upole=-2.8532222,-1.7403369,4.5935591,1.4247368,2.5021427,1.2710257\PG
 =C01 [X(Na4)]\\@


 BETTER TO HUNT IN FIELDS, FOR HEALTH UNBOUGHT
 THAN FEE THE DOCTOR FOR A NAUSEOUS DRAUGHT.
 THE WISE, FOR CURE, ON EXERCISE DEPEND;
 GOD NEVER MADE HIS WORK FOR MAN TO MEND.
     -- JOHN DRYDEN (1631-1700)
 Job cpu time:       0 days  0 hours  3 minutes 12.0 seconds.
 Elapsed time:       0 days  0 hours  1 minutes  8.2 seconds.
 File lengths (MBytes):  RWF=     10 Int=      0 D2E=      0 Chk=      2 Scr=      1
 Normal termination of Gaussian 16 at Wed Oct  4 16:58:34 2023.
