 Entering Gaussian System, Link 0=g16
 Initial command:
 /home/sekinelabo/g16/l1.exe "/home/sekinelabo/g16temp/Gau-213184.inp" -scrdir="/home/sekinelabo/g16temp/"
 Entering Link 1 = /home/sekinelabo/g16/l1.exe PID=    213186.
  
 Copyright (c) 1988-2017, Gaussian, Inc.  All Rights Reserved.
  
 This is part of the Gaussian(R) 16 program.  It is based on
 the Gaussian(R) 09 system (copyright 2009, Gaussian, Inc.),
 the Gaussian(R) 03 system (copyright 2003, Gaussian, Inc.),
 the Gaussian(R) 98 system (copyright 1998, Gaussian, Inc.),
 the Gaussian(R) 94 system (copyright 1995, Gaussian, Inc.),
 the Gaussian 92(TM) system (copyright 1992, Gaussian, Inc.),
 the Gaussian 90(TM) system (copyright 1990, Gaussian, Inc.),
 the Gaussian 88(TM) system (copyright 1988, Gaussian, Inc.),
 the Gaussian 86(TM) system (copyright 1986, Carnegie Mellon
 University), and the Gaussian 82(TM) system (copyright 1983,
 Carnegie Mellon University). Gaussian is a federally registered
 trademark of Gaussian, Inc.
  
 This software contains proprietary and confidential information,
 including trade secrets, belonging to Gaussian, Inc.
  
 This software is provided under written license and may be
 used, copied, transmitted, or stored only in accord with that
 written license.
  
 The following legend is applicable only to US Government
 contracts under FAR:
  
                    RESTRICTED RIGHTS LEGEND
  
 Use, reproduction and disclosure by the US Government is
 subject to restrictions as set forth in subparagraphs (a)
 and (c) of the Commercial Computer Software - Restricted
 Rights clause in FAR 52.227-19.
  
 Gaussian, Inc.
 340 Quinnipiac St., Bldg. 40, Wallingford CT 06492
  
  
 ---------------------------------------------------------------
 Warning -- This program may not be used in any manner that
 competes with the business of Gaussian, Inc. or will provide
 assistance to any competitor of Gaussian, Inc.  The licensee
 of this program is prohibited from giving any competitor of
 Gaussian, Inc. access to this program.  By using this program,
 the user acknowledges that Gaussian, Inc. is engaged in the
 business of creating and licensing software in the field of
 computational chemistry and represents and warrants to the
 licensee that it is not a competitor of Gaussian, Inc. and that
 it will not use this program in any manner prohibited above.
 ---------------------------------------------------------------
  

 Cite this work as:
 Gaussian 16, Revision B.01,
 M. J. Frisch, G. W. Trucks, H. B. Schlegel, G. E. Scuseria, 
 M. A. Robb, J. R. Cheeseman, G. Scalmani, V. Barone, 
 G. A. Petersson, H. Nakatsuji, X. Li, M. Caricato, A. V. Marenich, 
 J. Bloino, B. G. Janesko, R. Gomperts, B. Mennucci, H. P. Hratchian, 
 J. V. Ortiz, A. F. Izmaylov, J. L. Sonnenberg, D. Williams-Young, 
 F. Ding, F. Lipparini, F. Egidi, J. Goings, B. Peng, A. Petrone, 
 T. Henderson, D. Ranasinghe, V. G. Zakrzewski, J. Gao, N. Rega, 
 G. Zheng, W. Liang, M. Hada, M. Ehara, K. Toyota, R. Fukuda, 
 J. Hasegawa, M. Ishida, T. Nakajima, Y. Honda, O. Kitao, H. Nakai, 
 T. Vreven, K. Throssell, J. A. Montgomery, Jr., J. E. Peralta, 
 F. Ogliaro, M. J. Bearpark, J. J. Heyd, E. N. Brothers, K. N. Kudin, 
 V. N. Staroverov, T. A. Keith, R. Kobayashi, J. Normand, 
 K. Raghavachari, A. P. Rendell, J. C. Burant, S. S. Iyengar, 
 J. Tomasi, M. Cossi, J. M. Millam, M. Klene, C. Adamo, R. Cammi, 
 J. W. Ochterski, R. L. Martin, K. Morokuma, O. Farkas, 
 J. B. Foresman, and D. J. Fox, Gaussian, Inc., Wallingford CT, 2016.
 
 ******************************************
 Gaussian 16:  ES64L-G16RevB.01 20-Dec-2017
                 5-Oct-2023 
 ******************************************
 %NProcShared=16
 Will use up to   16 processors via shared memory.
 %mem=12GB
 %Chk=checkpoint.chk
 -------------------------
 #p B3LYP/6-311+g(d) force
 -------------------------
 1/10=7,30=1,38=1/1,3;
 2/12=2,17=6,18=5,40=1/2;
 3/5=4,6=6,7=11,11=2,25=1,30=1,71=1,74=-5/1,2,3;
 4//1;
 5/5=2,38=5/2;
 6/7=2,8=2,9=2,10=2,28=1/1;
 7/29=1/1,2,3,16;
 1/10=7,30=1/3;
 99//99;
 Leave Link    1 at Thu Oct  5 15:46:31 2023, MaxMem=  1610612736 cpu:               0.2 elap:               0.0
 (Enter /home/sekinelabo/g16/l101.exe)


 Symbolic Z-matrix:
 Charge =  0 Multiplicity = 1
 Na                    0.        0.        0. 
 Na                   -2.52943   0.        2.15145 
 Na                    0.        0.        5.13272 
 Na                    5.05795  -0.0373    4.06854 
 
 ITRead=  0  0  0  0
 MicOpt= -1 -1 -1 -1
 NAtoms=      4 NQM=        4 NQMF=       0 NMMI=      0 NMMIF=      0
                NMic=       0 NMicF=      0.
                    Isotopes and Nuclear Properties:
 (Nuclear quadrupole moments (NQMom) in fm**2, nuclear magnetic moments (NMagM)
  in nuclear magnetons)

  Atom         1           2           3           4
 IAtWgt=          23          23          23          23
 AtmWgt=  22.9897697  22.9897697  22.9897697  22.9897697
 NucSpn=           3           3           3           3
 AtZEff=  -0.0000000  -0.0000000  -0.0000000  -0.0000000
 NQMom=   10.4000000  10.4000000  10.4000000  10.4000000
 NMagM=    2.2175200   2.2175200   2.2175200   2.2175200
 AtZNuc=  11.0000000  11.0000000  11.0000000  11.0000000
 Leave Link  101 at Thu Oct  5 15:46:32 2023, MaxMem=  1610612736 cpu:               1.7 elap:               0.1
 (Enter /home/sekinelabo/g16/l103.exe)

 GradGradGradGradGradGradGradGradGradGradGradGradGradGradGradGradGradGrad
 Berny optimization.
 Initialization pass.
 Trust Radius=3.00D-01 FncErr=1.00D-07 GrdErr=1.00D-07 EigMax=2.50D+02 EigMin=1.00D-04
 Number of steps in this run=      2 maximum allowed number of steps=      2.
 GradGradGradGradGradGradGradGradGradGradGradGradGradGradGradGradGradGrad

 Leave Link  103 at Thu Oct  5 15:46:32 2023, MaxMem=  1610612736 cpu:               0.2 elap:               0.0
 (Enter /home/sekinelabo/g16/l202.exe)
                          Input orientation:                          
 ---------------------------------------------------------------------
 Center     Atomic      Atomic             Coordinates (Angstroms)
 Number     Number       Type             X           Y           Z
 ---------------------------------------------------------------------
      1         11           0        0.000000    0.000000    0.000000
      2         11           0       -2.529432    0.000000    2.151450
      3         11           0        0.000000    0.000000    5.132722
      4         11           0        5.057951   -0.037298    4.068542
 ---------------------------------------------------------------------
                    Distance matrix (angstroms):
                    1          2          3          4
     1  Na   0.000000
     2  Na   3.320658   0.000000
     3  Na   5.132722   3.909732   0.000000
     4  Na   6.491325   7.825920   5.168824   0.000000
 Stoichiometry    Na4
 Framework group  C1[X(Na4)]
 Deg. of freedom     6
 Full point group                 C1      NOp   1
 Largest Abelian subgroup         C1      NOp   1
 Largest concise Abelian subgroup C1      NOp   1
                         Standard orientation:                         
 ---------------------------------------------------------------------
 Center     Atomic      Atomic             Coordinates (Angstroms)
 Number     Number       Type             X           Y           Z
 ---------------------------------------------------------------------
      1         11           0       -1.702364   -2.357299   -0.005356
      2         11           0       -3.175592    0.618636    0.007825
      3         11           0        0.326101    2.357588   -0.006381
      4         11           0        4.551856   -0.618925    0.003913
 ---------------------------------------------------------------------
 Rotational constants (GHZ):           1.8502455           0.6502182           0.4811392
 Leave Link  202 at Thu Oct  5 15:46:32 2023, MaxMem=  1610612736 cpu:               0.0 elap:               0.0
 (Enter /home/sekinelabo/g16/l301.exe)
 Standard basis: 6-311+G(d) (5D, 7F)
 Ernie: Thresh=  0.10000D-02 Tol=  0.10000D-05 Strict=F.
 There are   124 symmetry adapted cartesian basis functions of A   symmetry.
 There are   120 symmetry adapted basis functions of A   symmetry.
   120 basis functions,   200 primitive gaussians,   124 cartesian basis functions
    22 alpha electrons       22 beta electrons
       nuclear repulsion energy        78.5682611048 Hartrees.
 IExCor=  402 DFT=T Ex+Corr=B3LYP ExCW=0 ScaHFX=  0.200000
 ScaDFX=  0.800000  0.720000  1.000000  0.810000 ScalE2=  1.000000  1.000000
 IRadAn=      5 IRanWt=     -1 IRanGd=            0 ICorTp=0 IEmpDi=  4
 NAtoms=    4 NActive=    4 NUniq=    4 SFac= 1.00D+00 NAtFMM=   60 NAOKFM=F Big=F
 Integral buffers will be    131072 words long.
 Raffenetti 2 integral format.
 Two-electron integral symmetry is turned on.
 Leave Link  301 at Thu Oct  5 15:46:32 2023, MaxMem=  1610612736 cpu:               0.4 elap:               0.0
 (Enter /home/sekinelabo/g16/l302.exe)
 NPDir=0 NMtPBC=     1 NCelOv=     1 NCel=       1 NClECP=     1 NCelD=      1
         NCelK=      1 NCelE2=     1 NClLst=     1 CellRange=     0.0.
 One-electron integrals computed using PRISM.
 One-electron integral symmetry used in STVInt
 NBasis=   120 RedAO= T EigKep=  1.16D-04  NBF=   120
 NBsUse=   120 1.00D-06 EigRej= -1.00D+00 NBFU=   120
 Precomputing XC quadrature grid using
 IXCGrd= 4 IRadAn=           5 IRanWt=          -1 IRanGd=           0 AccXCQ= 0.00D+00.
 Generated NRdTot=       0 NPtTot=           0 NUsed=           0 NTot=          32
 NSgBfM=   116   116   116   116   116 MxSgAt=     4 MxSgA2=     4.
 Leave Link  302 at Thu Oct  5 15:46:32 2023, MaxMem=  1610612736 cpu:               1.3 elap:               0.1
 (Enter /home/sekinelabo/g16/l303.exe)
 DipDrv:  MaxL=1.
 Leave Link  303 at Thu Oct  5 15:46:32 2023, MaxMem=  1610612736 cpu:               0.3 elap:               0.0
 (Enter /home/sekinelabo/g16/l401.exe)
 ExpMin= 7.60D-03 ExpMax= 3.62D+04 ExpMxC= 1.21D+03 IAcc=3 IRadAn=         5 AccDes= 0.00D+00
 Harris functional with IExCor=  402 and IRadAn=       5 diagonalized for initial guess.
 HarFok:  IExCor=  402 AccDes= 0.00D+00 IRadAn=         5 IDoV= 1 UseB2=F ITyADJ=14
 ICtDFT=  3500011 ScaDFX=  1.000000  1.000000  1.000000  1.000000
 FoFCou: FMM=F IPFlag=           0 FMFlag=      100000 FMFlg1=           0
         NFxFlg=           0 DoJE=T BraDBF=F KetDBF=T FulRan=T
         wScrn=  0.000000 ICntrl=       500 IOpCl=  0 I1Cent=   200000004 NGrid=           0
         NMat0=    1 NMatS0=      1 NMatT0=    0 NMatD0=    1 NMtDS0=    0 NMtDT0=    0
 Petite list used in FoFCou.
 Harris En= -649.051381109541    
 JPrj=0 DoOrth=F DoCkMO=F.
 Leave Link  401 at Thu Oct  5 15:46:32 2023, MaxMem=  1610612736 cpu:               2.0 elap:               0.1
 (Enter /home/sekinelabo/g16/l502.exe)
 Keep R1 ints in memory in canonical form, NReq=41581754.
 FoFCou: FMM=F IPFlag=           0 FMFlag=           0 FMFlg1=           0
         NFxFlg=           0 DoJE=F BraDBF=F KetDBF=F FulRan=T
         wScrn=  0.000000 ICntrl=       600 IOpCl=  0 I1Cent=           0 NGrid=           0
         NMat0=    1 NMatS0=   7260 NMatT0=    0 NMatD0=    1 NMtDS0=    0 NMtDT0=    0
 Symmetry not used in FoFCou.
 Two-electron integral symmetry not used.
 Closed shell SCF:
 Using DIIS extrapolation, IDIIS=  1040.
 NGot=  1610612736 LenX=  1584221388 LenY=  1584205571
 Requested convergence on RMS density matrix=1.00D-08 within 128 cycles.
 Requested convergence on MAX density matrix=1.00D-06.
 Requested convergence on             energy=1.00D-06.
 No special actions if energy rises.

 Cycle   1  Pass 1  IDiag  1:
 E= -649.163248568116    
 DIIS: error= 1.50D-02 at cycle   1 NSaved=   1.
 NSaved= 1 IEnMin= 1 EnMin= -649.163248568116     IErMin= 1 ErrMin= 1.50D-02
 ErrMax= 1.50D-02  0.00D+00 EMaxC= 1.00D-01 BMatC= 2.66D-02 BMatP= 2.66D-02
 IDIUse=3 WtCom= 8.50D-01 WtEn= 1.50D-01
 Coeff-Com:  0.100D+01
 Coeff-En:   0.100D+01
 Coeff:      0.100D+01
 Gap=     0.020 Goal=   None    Shift=    0.000
 GapD=    0.020 DampG=0.250 DampE=0.500 DampFc=0.2500 IDamp=-1.
 Damping current iteration by 2.50D-01
 RMSDP=3.83D-03 MaxDP=2.22D-01              OVMax= 3.71D-01

 Cycle   2  Pass 1  IDiag  1:
 E= -649.167139586557     Delta-E=       -0.003891018441 Rises=F Damp=T
 DIIS: error= 1.04D-02 at cycle   2 NSaved=   2.
 NSaved= 2 IEnMin= 2 EnMin= -649.167139586557     IErMin= 2 ErrMin= 1.04D-02
 ErrMax= 1.04D-02  0.00D+00 EMaxC= 1.00D-01 BMatC= 1.02D-02 BMatP= 2.66D-02
 IDIUse=3 WtCom= 8.96D-01 WtEn= 1.04D-01
 Coeff-Com: -0.120D+01 0.220D+01
 Coeff-En:   0.000D+00 0.100D+01
 Coeff:     -0.107D+01 0.207D+01
 Gap=     0.017 Goal=   None    Shift=    0.000
 RMSDP=4.08D-03 MaxDP=2.03D-01 DE=-3.89D-03 OVMax= 5.66D-01

 Cycle   3  Pass 1  IDiag  1:
 E= -649.134408862625     Delta-E=        0.032730723932 Rises=F Damp=F
 DIIS: error= 6.50D-03 at cycle   3 NSaved=   3.
 NSaved= 3 IEnMin= 2 EnMin= -649.167139586557     IErMin= 3 ErrMin= 6.50D-03
 ErrMax= 6.50D-03  0.00D+00 EMaxC= 1.00D-01 BMatC= 4.38D-03 BMatP= 1.02D-02
 IDIUse=3 WtCom= 9.35D-01 WtEn= 6.50D-02
 Coeff-Com: -0.711D+00 0.126D+01 0.448D+00
 Coeff-En:   0.000D+00 0.914D+00 0.857D-01
 Coeff:     -0.665D+00 0.124D+01 0.424D+00
 Gap=     0.011 Goal=   None    Shift=    0.000
 RMSDP=6.37D-03 MaxDP=3.95D-01 DE= 3.27D-02 OVMax= 6.69D-01

 Cycle   4  Pass 1  IDiag  1:
 E= -649.138638472304     Delta-E=       -0.004229609679 Rises=F Damp=F
 DIIS: error= 5.64D-03 at cycle   4 NSaved=   4.
 NSaved= 4 IEnMin= 2 EnMin= -649.167139586557     IErMin= 4 ErrMin= 5.64D-03
 ErrMax= 5.64D-03  0.00D+00 EMaxC= 1.00D-01 BMatC= 3.83D-03 BMatP= 4.38D-03
 IDIUse=3 WtCom= 9.44D-01 WtEn= 5.64D-02
 Coeff-Com: -0.479D-01 0.124D+00 0.455D+00 0.469D+00
 Coeff-En:   0.000D+00 0.000D+00 0.484D+00 0.516D+00
 Coeff:     -0.452D-01 0.117D+00 0.457D+00 0.472D+00
 Gap=     0.020 Goal=   None    Shift=    0.000
 RMSDP=3.30D-03 MaxDP=1.58D-01 DE=-4.23D-03 OVMax= 3.54D-01

 Cycle   5  Pass 1  IDiag  1:
 E= -649.176955356519     Delta-E=       -0.038316884215 Rises=F Damp=F
 DIIS: error= 6.18D-04 at cycle   5 NSaved=   5.
 NSaved= 5 IEnMin= 5 EnMin= -649.176955356519     IErMin= 5 ErrMin= 6.18D-04
 ErrMax= 6.18D-04  0.00D+00 EMaxC= 1.00D-01 BMatC= 3.67D-05 BMatP= 3.83D-03
 IDIUse=3 WtCom= 9.94D-01 WtEn= 6.18D-03
 Coeff-Com: -0.155D-01 0.206D-01 0.647D-01 0.857D-01 0.844D+00
 Coeff-En:   0.000D+00 0.000D+00 0.000D+00 0.000D+00 0.100D+01
 Coeff:     -0.154D-01 0.205D-01 0.643D-01 0.852D-01 0.845D+00
 Gap=     0.025 Goal=   None    Shift=    0.000
 RMSDP=2.84D-04 MaxDP=6.69D-03 DE=-3.83D-02 OVMax= 2.42D-02

 Cycle   6  Pass 1  IDiag  1:
 E= -649.177123211900     Delta-E=       -0.000167855381 Rises=F Damp=F
 DIIS: error= 3.01D-04 at cycle   6 NSaved=   6.
 NSaved= 6 IEnMin= 6 EnMin= -649.177123211900     IErMin= 6 ErrMin= 3.01D-04
 ErrMax= 3.01D-04  0.00D+00 EMaxC= 1.00D-01 BMatC= 6.76D-06 BMatP= 3.67D-05
 IDIUse=3 WtCom= 9.97D-01 WtEn= 3.01D-03
 Coeff-Com: -0.125D-01 0.165D-01-0.844D-02 0.118D-01 0.246D+00 0.747D+00
 Coeff-En:   0.000D+00 0.000D+00 0.000D+00 0.000D+00 0.000D+00 0.100D+01
 Coeff:     -0.125D-01 0.165D-01-0.841D-02 0.117D-01 0.245D+00 0.748D+00
 Gap=     0.026 Goal=   None    Shift=    0.000
 RMSDP=1.55D-04 MaxDP=6.62D-03 DE=-1.68D-04 OVMax= 8.28D-03

 Cycle   7  Pass 1  IDiag  1:
 E= -649.177135095514     Delta-E=       -0.000011883614 Rises=F Damp=F
 DIIS: error= 2.07D-04 at cycle   7 NSaved=   7.
 NSaved= 7 IEnMin= 7 EnMin= -649.177135095514     IErMin= 7 ErrMin= 2.07D-04
 ErrMax= 2.07D-04  0.00D+00 EMaxC= 1.00D-01 BMatC= 3.65D-06 BMatP= 6.76D-06
 IDIUse=3 WtCom= 9.98D-01 WtEn= 2.07D-03
 Coeff-Com: -0.644D-02 0.849D-02-0.110D-01 0.122D-01 0.888D-01 0.370D+00
 Coeff-Com:  0.538D+00
 Coeff-En:   0.000D+00 0.000D+00 0.000D+00 0.000D+00 0.000D+00 0.209D+00
 Coeff-En:   0.791D+00
 Coeff:     -0.642D-02 0.847D-02-0.110D-01 0.121D-01 0.886D-01 0.370D+00
 Coeff:      0.538D+00
 Gap=     0.026 Goal=   None    Shift=    0.000
 RMSDP=4.96D-05 MaxDP=2.23D-03 DE=-1.19D-05 OVMax= 2.97D-03

 Cycle   8  Pass 1  IDiag  1:
 E= -649.177150253316     Delta-E=       -0.000015157802 Rises=F Damp=F
 DIIS: error= 1.09D-04 at cycle   8 NSaved=   8.
 NSaved= 8 IEnMin= 8 EnMin= -649.177150253316     IErMin= 8 ErrMin= 1.09D-04
 ErrMax= 1.09D-04  0.00D+00 EMaxC= 1.00D-01 BMatC= 1.38D-06 BMatP= 3.65D-06
 IDIUse=3 WtCom= 9.99D-01 WtEn= 1.09D-03
 Coeff-Com: -0.266D-02 0.362D-02-0.886D-02 0.105D-01 0.724D-02 0.539D-01
 Coeff-Com:  0.157D+00 0.779D+00
 Coeff-En:   0.000D+00 0.000D+00 0.000D+00 0.000D+00 0.000D+00 0.000D+00
 Coeff-En:   0.000D+00 0.100D+01
 Coeff:     -0.265D-02 0.361D-02-0.885D-02 0.105D-01 0.723D-02 0.539D-01
 Coeff:      0.157D+00 0.779D+00
 Gap=     0.026 Goal=   None    Shift=    0.000
 RMSDP=2.40D-05 MaxDP=1.42D-03 DE=-1.52D-05 OVMax= 2.23D-03

 Cycle   9  Pass 1  IDiag  1:
 E= -649.177156628013     Delta-E=       -0.000006374697 Rises=F Damp=F
 DIIS: error= 7.58D-05 at cycle   9 NSaved=   9.
 NSaved= 9 IEnMin= 9 EnMin= -649.177156628013     IErMin= 9 ErrMin= 7.58D-05
 ErrMax= 7.58D-05  0.00D+00 EMaxC= 1.00D-01 BMatC= 5.96D-07 BMatP= 1.38D-06
 IDIUse=1 WtCom= 1.00D+00 WtEn= 0.00D+00
 Coeff-Com: -0.102D-02 0.135D-02-0.515D-02 0.730D-02-0.818D-02-0.347D-01
 Coeff-Com: -0.322D-01 0.196D+00 0.876D+00
 Coeff:     -0.102D-02 0.135D-02-0.515D-02 0.730D-02-0.818D-02-0.347D-01
 Coeff:     -0.322D-01 0.196D+00 0.876D+00
 Gap=     0.026 Goal=   None    Shift=    0.000
 RMSDP=1.24D-05 MaxDP=6.62D-04 DE=-6.37D-06 OVMax= 9.46D-04

 Cycle  10  Pass 1  IDiag  1:
 E= -649.177158932860     Delta-E=       -0.000002304847 Rises=F Damp=F
 DIIS: error= 4.94D-05 at cycle  10 NSaved=  10.
 NSaved=10 IEnMin=10 EnMin= -649.177158932860     IErMin=10 ErrMin= 4.94D-05
 ErrMax= 4.94D-05  0.00D+00 EMaxC= 1.00D-01 BMatC= 2.65D-07 BMatP= 5.96D-07
 IDIUse=1 WtCom= 1.00D+00 WtEn= 0.00D+00
 Coeff-Com: -0.461D-03 0.631D-03-0.221D-02 0.401D-02-0.845D-02-0.425D-01
 Coeff-Com: -0.696D-01-0.154D+00 0.416D+00 0.857D+00
 Coeff:     -0.461D-03 0.631D-03-0.221D-02 0.401D-02-0.845D-02-0.425D-01
 Coeff:     -0.696D-01-0.154D+00 0.416D+00 0.857D+00
 Gap=     0.026 Goal=   None    Shift=    0.000
 RMSDP=1.60D-05 MaxDP=9.55D-04 DE=-2.30D-06 OVMax= 1.67D-03

 Cycle  11  Pass 1  IDiag  1:
 E= -649.177160816080     Delta-E=       -0.000001883220 Rises=F Damp=F
 DIIS: error= 2.08D-05 at cycle  11 NSaved=  11.
 NSaved=11 IEnMin=11 EnMin= -649.177160816080     IErMin=11 ErrMin= 2.08D-05
 ErrMax= 2.08D-05  0.00D+00 EMaxC= 1.00D-01 BMatC= 3.85D-08 BMatP= 2.65D-07
 IDIUse=1 WtCom= 1.00D+00 WtEn= 0.00D+00
 Coeff-Com: -0.348D-03 0.474D-03-0.343D-03 0.731D-03 0.374D-02 0.194D-01
 Coeff-Com: -0.256D-02-0.304D-01-0.182D+00-0.501D-01 0.124D+01
 Coeff:     -0.348D-03 0.474D-03-0.343D-03 0.731D-03 0.374D-02 0.194D-01
 Coeff:     -0.256D-02-0.304D-01-0.182D+00-0.501D-01 0.124D+01
 Gap=     0.026 Goal=   None    Shift=    0.000
 RMSDP=6.67D-06 MaxDP=3.29D-04 DE=-1.88D-06 OVMax= 6.75D-04

 Cycle  12  Pass 1  IDiag  1:
 E= -649.177161100748     Delta-E=       -0.000000284668 Rises=F Damp=F
 DIIS: error= 4.94D-06 at cycle  12 NSaved=  12.
 NSaved=12 IEnMin=12 EnMin= -649.177161100748     IErMin=12 ErrMin= 4.94D-06
 ErrMax= 4.94D-06  0.00D+00 EMaxC= 1.00D-01 BMatC= 2.45D-09 BMatP= 3.85D-08
 IDIUse=1 WtCom= 1.00D+00 WtEn= 0.00D+00
 Coeff-Com:  0.280D-04-0.379D-04 0.366D-04 0.720D-05 0.788D-03 0.181D-02
 Coeff-Com: -0.195D-03-0.529D-02-0.152D-01-0.981D-01 0.496D-01 0.107D+01
 Coeff:      0.280D-04-0.379D-04 0.366D-04 0.720D-05 0.788D-03 0.181D-02
 Coeff:     -0.195D-03-0.529D-02-0.152D-01-0.981D-01 0.496D-01 0.107D+01
 Gap=     0.026 Goal=   None    Shift=    0.000
 RMSDP=2.70D-06 MaxDP=1.53D-04 DE=-2.85D-07 OVMax= 2.89D-04

 Cycle  13  Pass 1  IDiag  1:
 E= -649.177161121531     Delta-E=       -0.000000020783 Rises=F Damp=F
 DIIS: error= 5.36D-07 at cycle  13 NSaved=  13.
 NSaved=13 IEnMin=13 EnMin= -649.177161121531     IErMin=13 ErrMin= 5.36D-07
 ErrMax= 5.36D-07  0.00D+00 EMaxC= 1.00D-01 BMatC= 3.11D-11 BMatP= 2.45D-09
 IDIUse=1 WtCom= 1.00D+00 WtEn= 0.00D+00
 Coeff-Com: -0.623D-05 0.827D-05-0.199D-04 0.352D-04 0.117D-03-0.393D-03
 Coeff-Com: -0.625D-03 0.192D-02 0.109D-01-0.320D-02-0.329D-01 0.140D+00
 Coeff-Com:  0.884D+00
 Coeff:     -0.623D-05 0.827D-05-0.199D-04 0.352D-04 0.117D-03-0.393D-03
 Coeff:     -0.625D-03 0.192D-02 0.109D-01-0.320D-02-0.329D-01 0.140D+00
 Coeff:      0.884D+00
 Gap=     0.026 Goal=   None    Shift=    0.000
 RMSDP=4.11D-07 MaxDP=2.49D-05 DE=-2.08D-08 OVMax= 4.14D-05

 Cycle  14  Pass 1  IDiag  1:
 E= -649.177161121711     Delta-E=       -0.000000000180 Rises=F Damp=F
 DIIS: error= 3.66D-07 at cycle  14 NSaved=  14.
 NSaved=14 IEnMin=14 EnMin= -649.177161121711     IErMin=14 ErrMin= 3.66D-07
 ErrMax= 3.66D-07  0.00D+00 EMaxC= 1.00D-01 BMatC= 9.60D-12 BMatP= 3.11D-11
 IDIUse=1 WtCom= 1.00D+00 WtEn= 0.00D+00
 Coeff-Com: -0.223D-06 0.393D-06 0.129D-05-0.261D-05-0.107D-04-0.381D-03
 Coeff-Com: -0.327D-03 0.487D-03 0.365D-02 0.700D-02-0.261D-01-0.356D-01
 Coeff-Com:  0.293D+00 0.758D+00
 Coeff:     -0.223D-06 0.393D-06 0.129D-05-0.261D-05-0.107D-04-0.381D-03
 Coeff:     -0.327D-03 0.487D-03 0.365D-02 0.700D-02-0.261D-01-0.356D-01
 Coeff:      0.293D+00 0.758D+00
 Gap=     0.026 Goal=   None    Shift=    0.000
 RMSDP=1.78D-07 MaxDP=9.43D-06 DE=-1.80D-10 OVMax= 1.80D-05

 Cycle  15  Pass 1  IDiag  1:
 E= -649.177161121791     Delta-E=       -0.000000000080 Rises=F Damp=F
 DIIS: error= 4.61D-08 at cycle  15 NSaved=  15.
 NSaved=15 IEnMin=15 EnMin= -649.177161121791     IErMin=15 ErrMin= 4.61D-08
 ErrMax= 4.61D-08  0.00D+00 EMaxC= 1.00D-01 BMatC= 2.14D-13 BMatP= 9.60D-12
 IDIUse=1 WtCom= 1.00D+00 WtEn= 0.00D+00
 Coeff-Com: -0.713D-07 0.676D-07-0.959D-06 0.696D-06-0.472D-05-0.390D-04
 Coeff-Com: -0.422D-04 0.116D-03 0.208D-03 0.206D-02-0.201D-02-0.168D-01
 Coeff-Com: -0.722D-02 0.149D+00 0.875D+00
 Coeff:     -0.713D-07 0.676D-07-0.959D-06 0.696D-06-0.472D-05-0.390D-04
 Coeff:     -0.422D-04 0.116D-03 0.208D-03 0.206D-02-0.201D-02-0.168D-01
 Coeff:     -0.722D-02 0.149D+00 0.875D+00
 Gap=     0.026 Goal=   None    Shift=    0.000
 RMSDP=2.73D-08 MaxDP=1.53D-06 DE=-8.05D-11 OVMax= 2.80D-06

 Cycle  16  Pass 1  IDiag  1:
 E= -649.177161121798     Delta-E=       -0.000000000007 Rises=F Damp=F
 DIIS: error= 1.10D-08 at cycle  16 NSaved=  16.
 NSaved=16 IEnMin=16 EnMin= -649.177161121798     IErMin=16 ErrMin= 1.10D-08
 ErrMax= 1.10D-08  0.00D+00 EMaxC= 1.00D-01 BMatC= 9.14D-15 BMatP= 2.14D-13
 IDIUse=1 WtCom= 1.00D+00 WtEn= 0.00D+00
 Coeff-Com:  0.233D-06-0.310D-06 0.763D-07-0.161D-06-0.874D-06 0.124D-04
 Coeff-Com:  0.659D-05-0.215D-04-0.114D-03-0.579D-03 0.121D-02 0.254D-02
 Coeff-Com: -0.258D-01-0.511D-01 0.132D+00 0.942D+00
 Coeff:      0.233D-06-0.310D-06 0.763D-07-0.161D-06-0.874D-06 0.124D-04
 Coeff:      0.659D-05-0.215D-04-0.114D-03-0.579D-03 0.121D-02 0.254D-02
 Coeff:     -0.258D-01-0.511D-01 0.132D+00 0.942D+00
 Gap=     0.026 Goal=   None    Shift=    0.000
 RMSDP=7.40D-09 MaxDP=2.94D-07 DE=-7.05D-12 OVMax= 7.91D-07

 SCF Done:  E(RB3LYP) =  -649.177161122     A.U. after   16 cycles
            NFock= 16  Conv=0.74D-08     -V/T= 2.0030
 KE= 6.472509669429D+02 PE=-1.716118052458D+03 EE= 3.411216632883D+02
 Leave Link  502 at Thu Oct  5 15:46:33 2023, MaxMem=  1610612736 cpu:              23.1 elap:               1.7
 (Enter /home/sekinelabo/g16/l601.exe)
 Copying SCF densities to generalized density rwf, IOpCl= 0 IROHF=0.

 **********************************************************************

            Population analysis using the SCF Density.

 **********************************************************************

 Orbital symmetries:
       Occupied  (A) (A) (A) (A) (A) (A) (A) (A) (A) (A) (A) (A)
                 (A) (A) (A) (A) (A) (A) (A) (A) (A) (A)
       Virtual   (A) (A) (A) (A) (A) (A) (A) (A) (A) (A) (A) (A)
                 (A) (A) (A) (A) (A) (A) (A) (A) (A) (A) (A) (A)
                 (A) (A) (A) (A) (A) (A) (A) (A) (A) (A) (A) (A)
                 (A) (A) (A) (A) (A) (A) (A) (A) (A) (A) (A) (A)
                 (A) (A) (A) (A) (A) (A) (A) (A) (A) (A) (A) (A)
                 (A) (A) (A) (A) (A) (A) (A) (A) (A) (A) (A) (A)
                 (A) (A) (A) (A) (A) (A) (A) (A) (A) (A) (A) (A)
                 (A) (A) (A) (A) (A) (A) (A) (A) (A) (A) (A) (A)
                 (A) (A)
 The electronic state is 1-A.
 Alpha  occ. eigenvalues --  -38.45761 -38.45590 -38.44896 -38.44887  -2.21503
 Alpha  occ. eigenvalues --   -2.21279  -2.20665  -2.20575  -1.15173  -1.15164
 Alpha  occ. eigenvalues --   -1.15141  -1.14969  -1.14942  -1.14919  -1.14341
 Alpha  occ. eigenvalues --   -1.14315  -1.14309  -1.14256  -1.14250  -1.14215
 Alpha  occ. eigenvalues --   -0.14334  -0.10733
 Alpha virt. eigenvalues --   -0.08119  -0.05772  -0.03129  -0.02743  -0.02188
 Alpha virt. eigenvalues --   -0.01217  -0.01201  -0.00419  -0.00314  -0.00049
 Alpha virt. eigenvalues --    0.00293   0.00586   0.00850   0.00919   0.01191
 Alpha virt. eigenvalues --    0.01362   0.01499   0.01734   0.01798   0.02064
 Alpha virt. eigenvalues --    0.02185   0.02309   0.02434   0.02489   0.02666
 Alpha virt. eigenvalues --    0.02933   0.03011   0.03131   0.03979   0.04648
 Alpha virt. eigenvalues --    0.06411   0.07004   0.07312   0.07526   0.08036
 Alpha virt. eigenvalues --    0.08363   0.08595   0.08633   0.09014   0.09624
 Alpha virt. eigenvalues --    0.09831   0.10499   0.10853   0.12109   0.12721
 Alpha virt. eigenvalues --    0.14124   0.28422   0.29317   0.29786   0.30943
 Alpha virt. eigenvalues --    0.32642   0.33825   0.34751   0.34760   0.35068
 Alpha virt. eigenvalues --    0.35297   0.35381   0.35818   0.36051   0.36531
 Alpha virt. eigenvalues --    0.37329   0.39434   0.41897   0.42559   0.42709
 Alpha virt. eigenvalues --    0.43027   0.43261   0.43743   0.44075   0.44445
 Alpha virt. eigenvalues --    0.44942   0.45531   0.46160   0.47276   0.48755
 Alpha virt. eigenvalues --    0.49438   0.51217   0.61892   1.99981   2.02724
 Alpha virt. eigenvalues --    2.05520   2.12643   4.41343   4.42972   4.43328
 Alpha virt. eigenvalues --    4.43483   4.44028   4.44253   4.44452   4.44538
 Alpha virt. eigenvalues --    4.45155   4.45623   4.46909   4.53443  96.18812
 Alpha virt. eigenvalues --   96.22043  96.25278  96.34203
          Condensed to atoms (all electrons):
               1          2          3          4
     1  Na  10.765856   0.330022  -0.053508  -0.095518
     2  Na   0.330022  10.598478   0.029925  -0.038581
     3  Na  -0.053508   0.029925  10.880789   0.189080
     4  Na  -0.095518  -0.038581   0.189080  11.032038
 Mulliken charges:
               1
     1  Na   0.053148
     2  Na   0.080157
     3  Na  -0.046285
     4  Na  -0.087019
 Sum of Mulliken charges =  -0.00000
 Mulliken charges with hydrogens summed into heavy atoms:
               1
     1  Na   0.053148
     2  Na   0.080157
     3  Na  -0.046285
     4  Na  -0.087019
 Electronic spatial extent (au):  <R**2>=           1885.3237
 Charge=             -0.0000 electrons
 Dipole moment (field-independent basis, Debye):
    X=             -2.0632    Y=             -0.7877    Z=             -0.0014  Tot=              2.2084
 Quadrupole moment (field-independent basis, Debye-Ang):
   XX=            -43.7317   YY=            -32.4669   ZZ=            -45.6278
   XY=             -8.1157   XZ=             -0.0185   YZ=              0.0240
 Traceless Quadrupole moment (field-independent basis, Debye-Ang):
   XX=             -3.1229   YY=              8.1419   ZZ=             -5.0190
   XY=             -8.1157   XZ=             -0.0185   YZ=              0.0240
 Octapole moment (field-independent basis, Debye-Ang**2):
  XXX=            -38.5986  YYY=            -19.7751  ZZZ=             -0.0088  XYY=            -19.7801
  XXY=              7.7055  XXZ=              0.2237  XZZ=            -10.5908  YZZ=             -1.9134
  YYZ=             -0.1132  XYZ=             -0.1040
 Hexadecapole moment (field-independent basis, Debye-Ang**3):
 XXXX=          -2327.9444 YYYY=           -793.0554 ZZZZ=           -203.7009 XXXY=           -186.2398
 XXXZ=             -0.3251 YYYX=            -12.0545 YYYZ=              0.1881 ZZZX=             -0.1273
 ZZZY=              0.1424 XXYY=           -571.5328 XXZZ=           -466.3067 YYZZ=           -181.0226
 XXYZ=              0.2435 YYXZ=              0.0460 ZZXY=            -14.3974
 N-N= 7.856826110484D+01 E-N=-1.716118054147D+03  KE= 6.472509669429D+02
 No NMR shielding tensors so no spin-rotation constants.
 Leave Link  601 at Thu Oct  5 15:46:34 2023, MaxMem=  1610612736 cpu:               0.9 elap:               0.1
 (Enter /home/sekinelabo/g16/l701.exe)
 ... and contract with generalized density number  0.
 Compute integral first derivatives.
 Leave Link  701 at Thu Oct  5 15:46:34 2023, MaxMem=  1610612736 cpu:               1.3 elap:               0.1
 (Enter /home/sekinelabo/g16/l702.exe)
 L702 exits ... SP integral derivatives will be done elsewhere.
 Leave Link  702 at Thu Oct  5 15:46:34 2023, MaxMem=  1610612736 cpu:               0.5 elap:               0.0
 (Enter /home/sekinelabo/g16/l703.exe)
 Integral derivatives from FoFJK, PRISM(SPDF).
 Compute integral first derivatives, UseDBF=F ICtDFT=           0.
 Calling FoFJK, ICntrl=      2127 FMM=F ISym2X=0 I1Cent= 0 IOpClX= 0 NMat=1 NMatS=1 NMatT=0.
 FoFJK:  IHMeth= 1 ICntrl=    2127 DoSepK=F KAlg= 0 I1Cent=           0 FoldK=F
 IRaf=         0 NMat=       1 IRICut=       1 DoRegI=T DoRafI=F ISym2E= 0 IDoP0=0 IntGTp=1.
 FoFCou: FMM=F IPFlag=           0 FMFlag=      100000 FMFlg1=         800
         NFxFlg=           0 DoJE=F BraDBF=F KetDBF=F FulRan=T
         wScrn=  0.000000 ICntrl=      2127 IOpCl=  0 I1Cent=           0 NGrid=           0
         NMat0=    1 NMatS0=      1 NMatT0=    0 NMatD0=    1 NMtDS0=    0 NMtDT0=    0
 Symmetry not used in FoFCou.
 Leave Link  703 at Thu Oct  5 15:46:34 2023, MaxMem=  1610612736 cpu:               5.9 elap:               0.4
 (Enter /home/sekinelabo/g16/l716.exe)
 Dipole        =-8.11705856D-01-3.09916935D-01-5.66917058D-04
 ***** Axes restored to original set *****
 -------------------------------------------------------------------
 Center     Atomic                   Forces (Hartrees/Bohr)
 Number     Number              X              Y              Z
 -------------------------------------------------------------------
      1       11          -0.003371235    0.000005193    0.002714653
      2       11           0.003290581    0.000001552   -0.001243138
      3       11           0.004908972   -0.000043120   -0.003346846
      4       11          -0.004828318    0.000036374    0.001875331
 -------------------------------------------------------------------
 Cartesian Forces:  Max     0.004908972 RMS     0.002787472
 Z-matrix is all fixed cartesians, so copy forces.
 Force constants in Cartesian coordinates: 
                1             2             3             4             5 
      1  0.162050D-01
      2  0.538079D-02  0.999971D+00
      3 -0.835766D-02  0.199759D-03  0.134585D-01
      4 -0.188401D-01  0.000000D+00  0.522671D-02  0.290153D-01
      5  0.000000D+00  0.000000D+00  0.000000D+00  0.538079D-02  0.999970D+00
      6  0.106190D-01  0.000000D+00 -0.108012D-01 -0.406498D-02  0.199759D-03
      7  0.266399D-02  0.000000D+00  0.313202D-02 -0.101462D-01  0.000000D+00
      8  0.000000D+00  0.000000D+00  0.000000D+00  0.000000D+00  0.000000D+00
      9 -0.226024D-02  0.000000D+00 -0.265733D-02 -0.116066D-02  0.000000D+00
     10  0.000000D+00  0.000000D+00  0.000000D+00  0.000000D+00  0.000000D+00
     11  0.000000D+00  0.000000D+00  0.000000D+00  0.000000D+00  0.000000D+00
     12  0.000000D+00  0.000000D+00  0.000000D+00  0.000000D+00  0.000000D+00
                6             7             8             9            10 
      6  0.167557D-01
      7 -0.655292D-02  0.751120D-02
      8  0.000000D+00  0.538079D-02  0.999971D+00
      9 -0.595447D-02  0.342197D-02  0.199759D-03  0.861184D-02
     10  0.000000D+00  0.000000D+00  0.000000D+00  0.000000D+00  0.100000D+01
     11  0.000000D+00  0.000000D+00  0.000000D+00  0.000000D+00  0.000000D+00
     12  0.000000D+00  0.000000D+00  0.000000D+00  0.000000D+00  0.000000D+00
               11            12 
     11  0.100000D+01
     12  0.000000D+00  0.100000D+01
 Leave Link  716 at Thu Oct  5 15:46:34 2023, MaxMem=  1610612736 cpu:               0.3 elap:               0.0
 (Enter /home/sekinelabo/g16/l103.exe)

 GradGradGradGradGradGradGradGradGradGradGradGradGradGradGradGradGradGrad
 Berny optimization.
 Search for a local minimum.
 Step number   1 out of a maximum of    2
 All quantities printed in internal units (Hartrees-Bohrs-Radians)
 Second derivative matrix not updated -- first step.
 The second derivative matrix:
                          X1        Y1        Z1        X2        Y2
           X1           0.01621
           Y1           0.00538   0.99997
           Z1          -0.00836   0.00020   0.01346
           X2          -0.01884  -0.00000   0.00523   0.02902
           Y2          -0.00000   0.00000   0.00000   0.00538   0.99997
           Z2           0.01062   0.00000  -0.01080  -0.00406   0.00020
           X3           0.00266   0.00000   0.00313  -0.01015  -0.00000
           Y3           0.00000   0.00000   0.00000  -0.00000  -0.00000
           Z3          -0.00226  -0.00000  -0.00266  -0.00116  -0.00000
           X4           0.00000   0.00000   0.00000   0.00000   0.00000
           Y4           0.00000   0.00000   0.00000   0.00000   0.00000
           Z4           0.00000   0.00000   0.00000   0.00000   0.00000
                          Z2        X3        Y3        Z3        X4
           Z2           0.01676
           X3          -0.00655   0.00751
           Y3          -0.00000   0.00538   0.99997
           Z3          -0.00595   0.00342   0.00020   0.00861
           X4           0.00000   0.00000   0.00000   0.00000   1.00000
           Y4           0.00000   0.00000   0.00000   0.00000   0.00000
           Z4           0.00000   0.00000   0.00000   0.00000   0.00000
                          Y4        Z4
           Y4           1.00000
           Z4          -0.00000   1.00000
 ITU=  0
     Eigenvalues ---    0.01209   0.02874   0.05065   0.28813   0.75000
     Eigenvalues ---    1.00000
 Angle between quadratic step and forces=  55.60 degrees.
 Linear search not attempted -- first point.
 B after Tr=     0.000000    0.000000    0.000000
         Rot=    1.000000    0.000000    0.000000    0.000000 Ang=   0.00 deg.
 Variable       Old X    -DE/DX   Delta X   Delta X   Delta X     New X
                                 (Linear)    (Quad)   (Total)
    X1       -0.00000  -0.00337   0.00000  -0.03029  -0.03029  -0.03029
    Y1        0.00000   0.00001   0.00000   0.00006   0.00006   0.00006
    Z1        0.00000   0.00271   0.00000   0.21868   0.21868   0.21868
    X2       -4.77993   0.00329   0.00000   0.00717   0.00717  -4.77276
    Y2       -0.00000   0.00000   0.00000  -0.00002  -0.00002  -0.00002
    Z2        4.06565  -0.00124   0.00000  -0.03871  -0.03871   4.02694
    X3        0.00000   0.00491   0.00000   0.03133   0.03133   0.03133
    Y3        0.00000  -0.00004   0.00000  -0.00010  -0.00010  -0.00010
    Z3        9.69944  -0.00335   0.00000  -0.18885  -0.18885   9.51058
    X4        9.55814  -0.00483   0.00000  -0.00821  -0.00821   9.54993
    Y4       -0.07048   0.00004   0.00000   0.00005   0.00005  -0.07043
    Z4        7.68843   0.00188   0.00000   0.00889   0.00889   7.69732
         Item               Value     Threshold  Converged?
 Maximum Force            0.004909     0.000450     NO 
 RMS     Force            0.002787     0.000300     NO 
 Maximum Displacement     0.218678     0.001800     NO 
 RMS     Displacement     0.085187     0.001200     NO 
 Predicted change in Energy=-8.048484D-04
 GradGradGradGradGradGradGradGradGradGradGradGradGradGradGradGradGradGrad

 Leave Link  103 at Thu Oct  5 15:46:34 2023, MaxMem=  1610612736 cpu:               0.1 elap:               0.0
 (Enter /home/sekinelabo/g16/l9999.exe)
 1\1\GINC-SEKINELABO-XA7R-R37\Force\RB3LYP\6-311+G(d)\Na4\SEKINELABO\05
 -Oct-2023\0\\#p B3LYP/6-311+g(d) force\\\0,1\Na,0.,0.,0.\Na,-2.5294323
 915,0.,2.1514504509\Na,0.,0.,5.1327218426\Na,5.0579512909,-0.037298438
 1,4.0685424302\\Version=ES64L-G16RevB.01\State=1-A\HF=-649.1771611\RMS
 D=7.404e-09\RMSF=2.787e-03\Dipole=-0.6231354,0.0040409,-0.605476\Quadr
 upole=3.3672061,-3.7315312,0.3643251,-0.0170634,-7.1893796,0.0269558\P
 G=C01 [X(Na4)]\\@


 IF YOU PERCEIVE THAT THERE ARE FOUR POSSIBLE WAYS IN
 WHICH A PROCEDURE CAN GO WRONG AND CIRCUMVENT THESE, 
 THEN A FIFTH WAY WILL DEVELOP.

                              -- MURPHY'S TWELFTH LAW
 Job cpu time:       0 days  0 hours  0 minutes 38.6 seconds.
 Elapsed time:       0 days  0 hours  0 minutes  2.7 seconds.
 File lengths (MBytes):  RWF=     10 Int=      0 D2E=      0 Chk=      2 Scr=      1
 Normal termination of Gaussian 16 at Thu Oct  5 15:46:34 2023.
 Initial command:
 /home/sekinelabo/g16/l1.exe "/home/sekinelabo/g16temp/Gau-213184.inp" -scrdir="/home/sekinelabo/g16temp/"
 Entering Link 1 = /home/sekinelabo/g16/l1.exe PID=    213428.
  
 Copyright (c) 1988-2017, Gaussian, Inc.  All Rights Reserved.
  
 This is part of the Gaussian(R) 16 program.  It is based on
 the Gaussian(R) 09 system (copyright 2009, Gaussian, Inc.),
 the Gaussian(R) 03 system (copyright 2003, Gaussian, Inc.),
 the Gaussian(R) 98 system (copyright 1998, Gaussian, Inc.),
 the Gaussian(R) 94 system (copyright 1995, Gaussian, Inc.),
 the Gaussian 92(TM) system (copyright 1992, Gaussian, Inc.),
 the Gaussian 90(TM) system (copyright 1990, Gaussian, Inc.),
 the Gaussian 88(TM) system (copyright 1988, Gaussian, Inc.),
 the Gaussian 86(TM) system (copyright 1986, Carnegie Mellon
 University), and the Gaussian 82(TM) system (copyright 1983,
 Carnegie Mellon University). Gaussian is a federally registered
 trademark of Gaussian, Inc.
  
 This software contains proprietary and confidential information,
 including trade secrets, belonging to Gaussian, Inc.
  
 This software is provided under written license and may be
 used, copied, transmitted, or stored only in accord with that
 written license.
  
 The following legend is applicable only to US Government
 contracts under FAR:
  
                    RESTRICTED RIGHTS LEGEND
  
 Use, reproduction and disclosure by the US Government is
 subject to restrictions as set forth in subparagraphs (a)
 and (c) of the Commercial Computer Software - Restricted
 Rights clause in FAR 52.227-19.
  
 Gaussian, Inc.
 340 Quinnipiac St., Bldg. 40, Wallingford CT 06492
  
  
 ---------------------------------------------------------------
 Warning -- This program may not be used in any manner that
 competes with the business of Gaussian, Inc. or will provide
 assistance to any competitor of Gaussian, Inc.  The licensee
 of this program is prohibited from giving any competitor of
 Gaussian, Inc. access to this program.  By using this program,
 the user acknowledges that Gaussian, Inc. is engaged in the
 business of creating and licensing software in the field of
 computational chemistry and represents and warrants to the
 licensee that it is not a competitor of Gaussian, Inc. and that
 it will not use this program in any manner prohibited above.
 ---------------------------------------------------------------
  

 Cite this work as:
 Gaussian 16, Revision B.01,
 M. J. Frisch, G. W. Trucks, H. B. Schlegel, G. E. Scuseria, 
 M. A. Robb, J. R. Cheeseman, G. Scalmani, V. Barone, 
 G. A. Petersson, H. Nakatsuji, X. Li, M. Caricato, A. V. Marenich, 
 J. Bloino, B. G. Janesko, R. Gomperts, B. Mennucci, H. P. Hratchian, 
 J. V. Ortiz, A. F. Izmaylov, J. L. Sonnenberg, D. Williams-Young, 
 F. Ding, F. Lipparini, F. Egidi, J. Goings, B. Peng, A. Petrone, 
 T. Henderson, D. Ranasinghe, V. G. Zakrzewski, J. Gao, N. Rega, 
 G. Zheng, W. Liang, M. Hada, M. Ehara, K. Toyota, R. Fukuda, 
 J. Hasegawa, M. Ishida, T. Nakajima, Y. Honda, O. Kitao, H. Nakai, 
 T. Vreven, K. Throssell, J. A. Montgomery, Jr., J. E. Peralta, 
 F. Ogliaro, M. J. Bearpark, J. J. Heyd, E. N. Brothers, K. N. Kudin, 
 V. N. Staroverov, T. A. Keith, R. Kobayashi, J. Normand, 
 K. Raghavachari, A. P. Rendell, J. C. Burant, S. S. Iyengar, 
 J. Tomasi, M. Cossi, J. M. Millam, M. Klene, C. Adamo, R. Cammi, 
 J. W. Ochterski, R. L. Martin, K. Morokuma, O. Farkas, 
 J. B. Foresman, and D. J. Fox, Gaussian, Inc., Wallingford CT, 2016.
 
 ******************************************
 Gaussian 16:  ES64L-G16RevB.01 20-Dec-2017
                 5-Oct-2023 
 ******************************************
 %NProcShared=16
 Will use up to   16 processors via shared memory.
 %mem=12GB
 %Chk=checkpoint.chk
 -------------------------
 #p B3LYP/6-311+g(d) force
 -------------------------
 1/10=7,30=1,38=1/1,3;
 2/12=2,17=6,18=5,40=1/2;
 3/5=4,6=6,7=11,11=2,25=1,30=1,71=1,74=-5/1,2,3;
 4//1;
 5/5=2,38=5/2;
 6/7=2,8=2,9=2,10=2,28=1/1;
 7/29=1/1,2,3,16;
 1/10=7,30=1/3;
 99//99;
 Leave Link    1 at Thu Oct  5 15:46:34 2023, MaxMem=  1610612736 cpu:               0.2 elap:               0.0
 (Enter /home/sekinelabo/g16/l101.exe)


 Symbolic Z-matrix:
 Charge =  0 Multiplicity = 1
 Na                    0.        0.        0. 
 Na                   -5.02101   0.        2.14966 
 Na                    0.        0.        4.44215 
 Na                   -0.51154  -1.23316   8.92984 
 
 ITRead=  0  0  0  0
 MicOpt= -1 -1 -1 -1
 NAtoms=      4 NQM=        4 NQMF=       0 NMMI=      0 NMMIF=      0
                NMic=       0 NMicF=      0.
                    Isotopes and Nuclear Properties:
 (Nuclear quadrupole moments (NQMom) in fm**2, nuclear magnetic moments (NMagM)
  in nuclear magnetons)

  Atom         1           2           3           4
 IAtWgt=          23          23          23          23
 AtmWgt=  22.9897697  22.9897697  22.9897697  22.9897697
 NucSpn=           3           3           3           3
 AtZEff=  -0.0000000  -0.0000000  -0.0000000  -0.0000000
 NQMom=   10.4000000  10.4000000  10.4000000  10.4000000
 NMagM=    2.2175200   2.2175200   2.2175200   2.2175200
 AtZNuc=  11.0000000  11.0000000  11.0000000  11.0000000
 Leave Link  101 at Thu Oct  5 15:46:34 2023, MaxMem=  1610612736 cpu:               1.7 elap:               0.1
 (Enter /home/sekinelabo/g16/l103.exe)

 GradGradGradGradGradGradGradGradGradGradGradGradGradGradGradGradGradGrad
 Berny optimization.
 Initialization pass.
 Trust Radius=3.00D-01 FncErr=1.00D-07 GrdErr=1.00D-07 EigMax=2.50D+02 EigMin=1.00D-04
 Number of steps in this run=      2 maximum allowed number of steps=      2.
 GradGradGradGradGradGradGradGradGradGradGradGradGradGradGradGradGradGrad

 Leave Link  103 at Thu Oct  5 15:46:34 2023, MaxMem=  1610612736 cpu:               0.1 elap:               0.0
 (Enter /home/sekinelabo/g16/l202.exe)
                          Input orientation:                          
 ---------------------------------------------------------------------
 Center     Atomic      Atomic             Coordinates (Angstroms)
 Number     Number       Type             X           Y           Z
 ---------------------------------------------------------------------
      1         11           0        0.000000    0.000000    0.000000
      2         11           0       -5.021015    0.000000    2.149662
      3         11           0        0.000000    0.000000    4.442150
      4         11           0       -0.511537   -1.233156    8.929838
 ---------------------------------------------------------------------
                    Distance matrix (angstroms):
                    1          2          3          4
     1  Na   0.000000
     2  Na   5.461834   0.000000
     3  Na   4.442150   5.519610   0.000000
     4  Na   9.029084   8.235706   4.682060   0.000000
 Stoichiometry    Na4
 Framework group  C1[X(Na4)]
 Deg. of freedom     6
 Full point group                 C1      NOp   1
 Largest Abelian subgroup         C1      NOp   1
 Largest concise Abelian subgroup C1      NOp   1
                         Standard orientation:                         
 ---------------------------------------------------------------------
 Center     Atomic      Atomic             Coordinates (Angstroms)
 Number     Number       Type             X           Y           Z
 ---------------------------------------------------------------------
      1         11           0        3.498820   -2.185299   -0.220100
      2         11           0        2.494793    3.178098    0.019780
      3         11           0       -0.796278   -1.236665    0.400329
      4         11           0       -5.197335    0.243867   -0.200009
 ---------------------------------------------------------------------
 Rotational constants (GHZ):           1.3152511           0.4741634           0.3512932
 Leave Link  202 at Thu Oct  5 15:46:34 2023, MaxMem=  1610612736 cpu:               0.0 elap:               0.0
 (Enter /home/sekinelabo/g16/l301.exe)
 Standard basis: 6-311+G(d) (5D, 7F)
 Ernie: Thresh=  0.10000D-02 Tol=  0.10000D-05 Strict=F.
 There are   124 symmetry adapted cartesian basis functions of A   symmetry.
 There are   120 symmetry adapted basis functions of A   symmetry.
   120 basis functions,   200 primitive gaussians,   124 cartesian basis functions
    22 alpha electrons       22 beta electrons
       nuclear repulsion energy        66.2800877564 Hartrees.
 IExCor=  402 DFT=T Ex+Corr=B3LYP ExCW=0 ScaHFX=  0.200000
 ScaDFX=  0.800000  0.720000  1.000000  0.810000 ScalE2=  1.000000  1.000000
 IRadAn=      5 IRanWt=     -1 IRanGd=            0 ICorTp=0 IEmpDi=  4
 NAtoms=    4 NActive=    4 NUniq=    4 SFac= 1.00D+00 NAtFMM=   60 NAOKFM=F Big=F
 Integral buffers will be    131072 words long.
 Raffenetti 2 integral format.
 Two-electron integral symmetry is turned on.
 Leave Link  301 at Thu Oct  5 15:46:34 2023, MaxMem=  1610612736 cpu:               0.4 elap:               0.0
 (Enter /home/sekinelabo/g16/l302.exe)
 NPDir=0 NMtPBC=     1 NCelOv=     1 NCel=       1 NClECP=     1 NCelD=      1
         NCelK=      1 NCelE2=     1 NClLst=     1 CellRange=     0.0.
 One-electron integrals computed using PRISM.
 One-electron integral symmetry used in STVInt
 NBasis=   120 RedAO= T EigKep=  1.59D-04  NBF=   120
 NBsUse=   120 1.00D-06 EigRej= -1.00D+00 NBFU=   120
 Precomputing XC quadrature grid using
 IXCGrd= 4 IRadAn=           5 IRanWt=          -1 IRanGd=           0 AccXCQ= 0.00D+00.
 Generated NRdTot=       0 NPtTot=           0 NUsed=           0 NTot=          32
 NSgBfM=   116   116   116   116   116 MxSgAt=     4 MxSgA2=     4.
 Leave Link  302 at Thu Oct  5 15:46:34 2023, MaxMem=  1610612736 cpu:               1.4 elap:               0.1
 (Enter /home/sekinelabo/g16/l303.exe)
 DipDrv:  MaxL=1.
 Leave Link  303 at Thu Oct  5 15:46:34 2023, MaxMem=  1610612736 cpu:               0.3 elap:               0.0
 (Enter /home/sekinelabo/g16/l401.exe)
 ExpMin= 7.60D-03 ExpMax= 3.62D+04 ExpMxC= 1.21D+03 IAcc=3 IRadAn=         5 AccDes= 0.00D+00
 Harris functional with IExCor=  402 and IRadAn=       5 diagonalized for initial guess.
 HarFok:  IExCor=  402 AccDes= 0.00D+00 IRadAn=         5 IDoV= 1 UseB2=F ITyADJ=14
 ICtDFT=  3500011 ScaDFX=  1.000000  1.000000  1.000000  1.000000
 FoFCou: FMM=F IPFlag=           0 FMFlag=      100000 FMFlg1=           0
         NFxFlg=           0 DoJE=T BraDBF=F KetDBF=T FulRan=T
         wScrn=  0.000000 ICntrl=       500 IOpCl=  0 I1Cent=   200000004 NGrid=           0
         NMat0=    1 NMatS0=      1 NMatT0=    0 NMatD0=    1 NMtDS0=    0 NMtDT0=    0
 Petite list used in FoFCou.
 Harris En= -649.034992649693    
 JPrj=0 DoOrth=F DoCkMO=F.
 Leave Link  401 at Thu Oct  5 15:46:35 2023, MaxMem=  1610612736 cpu:               2.0 elap:               0.1
 (Enter /home/sekinelabo/g16/l502.exe)
 Keep R1 ints in memory in canonical form, NReq=41581754.
 FoFCou: FMM=F IPFlag=           0 FMFlag=           0 FMFlg1=           0
         NFxFlg=           0 DoJE=F BraDBF=F KetDBF=F FulRan=T
         wScrn=  0.000000 ICntrl=       600 IOpCl=  0 I1Cent=           0 NGrid=           0
         NMat0=    1 NMatS0=   7260 NMatT0=    0 NMatD0=    1 NMtDS0=    0 NMtDT0=    0
 Symmetry not used in FoFCou.
 Two-electron integral symmetry not used.
 Closed shell SCF:
 Using DIIS extrapolation, IDIIS=  1040.
 NGot=  1610612736 LenX=  1584221388 LenY=  1584205571
 Requested convergence on RMS density matrix=1.00D-08 within 128 cycles.
 Requested convergence on MAX density matrix=1.00D-06.
 Requested convergence on             energy=1.00D-06.
 No special actions if energy rises.

 Cycle   1  Pass 1  IDiag  1:
 E= -649.127919034436    
 DIIS: error= 1.65D-02 at cycle   1 NSaved=   1.
 NSaved= 1 IEnMin= 1 EnMin= -649.127919034436     IErMin= 1 ErrMin= 1.65D-02
 ErrMax= 1.65D-02  0.00D+00 EMaxC= 1.00D-01 BMatC= 2.84D-02 BMatP= 2.84D-02
 IDIUse=3 WtCom= 8.35D-01 WtEn= 1.65D-01
 Coeff-Com:  0.100D+01
 Coeff-En:   0.100D+01
 Coeff:      0.100D+01
 Gap=    -0.029 Goal=   None    Shift=    0.000
 GapD=   -0.029 DampG=0.250 DampE=0.500 DampFc=0.2500 IDamp=-1.
 Damping current iteration by 2.50D-01
 RMSDP=9.84D-03 MaxDP=6.56D-01              OVMax= 8.60D-01

 Cycle   2  Pass 1  IDiag  1:
 E= -649.137995421699     Delta-E=       -0.010076387262 Rises=F Damp=T
 DIIS: error= 1.18D-02 at cycle   2 NSaved=   2.
 NSaved= 2 IEnMin= 2 EnMin= -649.137995421699     IErMin= 2 ErrMin= 1.18D-02
 ErrMax= 1.18D-02  0.00D+00 EMaxC= 1.00D-01 BMatC= 1.02D-02 BMatP= 2.84D-02
 IDIUse=3 WtCom= 8.82D-01 WtEn= 1.18D-01
 Coeff-Com: -0.879D+00 0.188D+01
 Coeff-En:   0.260D+00 0.740D+00
 Coeff:     -0.745D+00 0.175D+01
 Gap=    -0.026 Goal=   None    Shift=    0.000
 RMSDP=6.20D-03 MaxDP=3.27D-01 DE=-1.01D-02 OVMax= 9.29D-01

 Cycle   3  Pass 1  IDiag  1:
 E= -648.987744875056     Delta-E=        0.150250546643 Rises=F Damp=F
 DIIS: error= 1.70D-02 at cycle   3 NSaved=   3.
 NSaved= 3 IEnMin= 2 EnMin= -649.137995421699     IErMin= 2 ErrMin= 1.18D-02
 ErrMax= 1.70D-02  0.00D+00 EMaxC= 1.00D-01 BMatC= 1.61D-02 BMatP= 1.02D-02
 IDIUse=2 WtCom= 0.00D+00 WtEn= 1.00D+00
 Rare condition: small coef for last iteration:  0.000D+00
 Coeff-En:   0.000D+00 0.000D+00 0.100D+01
 Coeff:      0.000D+00 0.000D+00 0.100D+01
 Gap=     0.012 Goal=   None    Shift=    0.000
 RMSDP=1.64D-02 MaxDP=1.17D+00 DE= 1.50D-01 OVMax= 8.83D-01

 Cycle   4  Pass 1  IDiag  1:
 E= -648.787743358418     Delta-E=        0.200001516638 Rises=F Damp=F
 DIIS: error= 1.24D-02 at cycle   4 NSaved=   4.
 NSaved= 4 IEnMin= 2 EnMin= -649.137995421699     IErMin= 2 ErrMin= 1.18D-02
 ErrMax= 1.24D-02  0.00D+00 EMaxC= 1.00D-01 BMatC= 3.46D-02 BMatP= 1.02D-02
 IDIUse=2 WtCom= 0.00D+00 WtEn= 1.00D+00
 Coeff-En:   0.000D+00 0.000D+00 0.624D+00 0.376D+00
 Coeff:      0.000D+00 0.000D+00 0.624D+00 0.376D+00
 Gap=     0.071 Goal=   None    Shift=    0.000
 RMSDP=1.06D-02 MaxDP=6.24D-01 DE= 2.00D-01 OVMax= 5.06D-01

 Cycle   5  Pass 1  IDiag  1:
 E= -649.006948018855     Delta-E=       -0.219204660437 Rises=F Damp=F
 DIIS: error= 1.07D-02 at cycle   5 NSaved=   5.
 NSaved= 5 IEnMin= 2 EnMin= -649.137995421699     IErMin= 5 ErrMin= 1.07D-02
 ErrMax= 1.07D-02  0.00D+00 EMaxC= 1.00D-01 BMatC= 5.97D-03 BMatP= 1.02D-02
 IDIUse=3 WtCom= 8.93D-01 WtEn= 1.07D-01
 EnCoef did   100 forward-backward iterations
 Coeff-Com: -0.425D+00 0.829D+00 0.291D+00 0.434D-02 0.301D+00
 Coeff-En:   0.503D+00 0.383D+00 0.193D-02 0.000D+00 0.112D+00
 Coeff:     -0.326D+00 0.781D+00 0.260D+00 0.388D-02 0.281D+00
 Gap=    -0.027 Goal=   None    Shift=    0.000
 RMSDP=8.99D-03 MaxDP=5.37D-01 DE=-2.19D-01 OVMax= 8.03D-01

 Cycle   6  Pass 1  IDiag  1:
 E= -649.085212319657     Delta-E=       -0.078264300802 Rises=F Damp=F
 DIIS: error= 9.18D-03 at cycle   6 NSaved=   6.
 NSaved= 6 IEnMin= 2 EnMin= -649.137995421699     IErMin= 6 ErrMin= 9.18D-03
 ErrMax= 9.18D-03  0.00D+00 EMaxC= 1.00D-01 BMatC= 4.81D-03 BMatP= 5.97D-03
 IDIUse=3 WtCom= 9.08D-01 WtEn= 9.18D-02
 EnCoef did   100 forward-backward iterations
 Rare condition: small coef for last iteration: -0.138D-15
 Coeff-Com: -0.416D+00 0.748D+00-0.318D-01-0.257D-01 0.210D+00 0.515D+00
 Coeff-En:   0.138D+00 0.000D+00 0.000D+00 0.000D+00 0.334D+00 0.528D+00
 Coeff:     -0.416D+00 0.748D+00-0.318D-01-0.257D-01 0.210D+00 0.515D+00
 Gap=     0.013 Goal=   None    Shift=    0.000
 RMSDP=4.10D-03 MaxDP=1.93D-01 DE=-7.83D-02 OVMax= 3.80D-01

 Cycle   7  Pass 1  IDiag  1:
 E= -649.140449321181     Delta-E=       -0.055237001524 Rises=F Damp=F
 DIIS: error= 5.11D-03 at cycle   7 NSaved=   7.
 NSaved= 7 IEnMin= 7 EnMin= -649.140449321181     IErMin= 7 ErrMin= 5.11D-03
 ErrMax= 5.11D-03  0.00D+00 EMaxC= 1.00D-01 BMatC= 1.67D-03 BMatP= 4.81D-03
 IDIUse=3 WtCom= 9.49D-01 WtEn= 5.11D-02
 Coeff-Com: -0.350D+00 0.552D+00-0.165D+00-0.337D-01 0.104D+00 0.292D+00
 Coeff-Com:  0.601D+00
 Coeff-En:   0.000D+00 0.000D+00 0.000D+00 0.000D+00 0.169D+00 0.000D+00
 Coeff-En:   0.831D+00
 Coeff:     -0.332D+00 0.524D+00-0.156D+00-0.320D-01 0.107D+00 0.277D+00
 Coeff:      0.612D+00
 Gap=     0.016 Goal=   None    Shift=    0.000
 RMSDP=1.87D-03 MaxDP=9.58D-02 DE=-5.52D-02 OVMax= 1.48D-01

 Cycle   8  Pass 1  IDiag  1:
 E= -649.151898034135     Delta-E=       -0.011448712954 Rises=F Damp=F
 DIIS: error= 2.77D-03 at cycle   8 NSaved=   8.
 NSaved= 8 IEnMin= 8 EnMin= -649.151898034135     IErMin= 8 ErrMin= 2.77D-03
 ErrMax= 2.77D-03  0.00D+00 EMaxC= 1.00D-01 BMatC= 5.60D-04 BMatP= 1.67D-03
 IDIUse=3 WtCom= 9.72D-01 WtEn= 2.77D-02
 Coeff-Com: -0.259D+00 0.398D+00-0.563D-01-0.165D-01 0.642D-01 0.340D-01
 Coeff-Com:  0.316D+00 0.520D+00
 Coeff-En:   0.000D+00 0.000D+00 0.000D+00 0.000D+00 0.553D-01 0.000D+00
 Coeff-En:   0.000D+00 0.945D+00
 Coeff:     -0.252D+00 0.387D+00-0.547D-01-0.160D-01 0.640D-01 0.330D-01
 Coeff:      0.307D+00 0.532D+00
 Gap=     0.017 Goal=   None    Shift=    0.000
 RMSDP=1.24D-03 MaxDP=6.71D-02 DE=-1.14D-02 OVMax= 1.06D-01

 Cycle   9  Pass 1  IDiag  1:
 E= -649.154650884222     Delta-E=       -0.002752850087 Rises=F Damp=F
 DIIS: error= 1.98D-03 at cycle   9 NSaved=   9.
 NSaved= 9 IEnMin= 9 EnMin= -649.154650884222     IErMin= 9 ErrMin= 1.98D-03
 ErrMax= 1.98D-03  0.00D+00 EMaxC= 1.00D-01 BMatC= 2.97D-04 BMatP= 5.60D-04
 IDIUse=3 WtCom= 9.80D-01 WtEn= 1.98D-02
 EnCoef did     1 forward-backward iterations
 Coeff-Com: -0.115D+00 0.173D+00 0.459D-01-0.730D-02 0.555D-01-0.118D+00
 Coeff-Com: -0.119D+00 0.439D+00 0.647D+00
 Coeff-En:   0.000D+00 0.000D+00 0.000D+00 0.000D+00 0.612D-03 0.000D+00
 Coeff-En:   0.000D+00 0.227D+00 0.773D+00
 Coeff:     -0.113D+00 0.169D+00 0.450D-01-0.716D-02 0.544D-01-0.116D+00
 Coeff:     -0.117D+00 0.434D+00 0.650D+00
 Gap=     0.019 Goal=   None    Shift=    0.000
 RMSDP=9.99D-04 MaxDP=5.49D-02 DE=-2.75D-03 OVMax= 8.16D-02

 Cycle  10  Pass 1  IDiag  1:
 E= -649.153940161446     Delta-E=        0.000710722777 Rises=F Damp=F
 DIIS: error= 2.21D-03 at cycle  10 NSaved=  10.
 NSaved=10 IEnMin= 9 EnMin= -649.154650884222     IErMin= 9 ErrMin= 1.98D-03
 ErrMax= 2.21D-03  0.00D+00 EMaxC= 1.00D-01 BMatC= 3.20D-04 BMatP= 2.97D-04
 IDIUse=3 WtCom= 9.80D-01 WtEn= 1.98D-02
 EnCoef did     2 forward-backward iterations
 Coeff-Com: -0.101D+00 0.154D+00 0.616D-01-0.712D-02 0.552D-01-0.150D+00
 Coeff-Com: -0.129D+00 0.256D+00 0.588D+00 0.273D+00
 Coeff-En:   0.000D+00 0.000D+00 0.000D+00 0.000D+00 0.134D-02 0.000D+00
 Coeff-En:   0.000D+00 0.000D+00 0.613D+00 0.386D+00
 Coeff:     -0.994D-01 0.151D+00 0.603D-01-0.698D-02 0.541D-01-0.147D+00
 Coeff:     -0.126D+00 0.251D+00 0.588D+00 0.275D+00
 Gap=     0.019 Goal=   None    Shift=    0.000
 RMSDP=7.94D-05 MaxDP=3.50D-03 DE= 7.11D-04 OVMax= 9.27D-03

 Cycle  11  Pass 1  IDiag  1:
 E= -649.154450242325     Delta-E=       -0.000510080879 Rises=F Damp=F
 DIIS: error= 2.05D-03 at cycle  11 NSaved=  11.
 NSaved=11 IEnMin= 9 EnMin= -649.154650884222     IErMin= 9 ErrMin= 1.98D-03
 ErrMax= 2.05D-03  0.00D+00 EMaxC= 1.00D-01 BMatC= 2.79D-04 BMatP= 2.97D-04
 IDIUse=3 WtCom= 9.80D-01 WtEn= 1.98D-02
 Coeff-Com: -0.369D-01 0.545D-01 0.303D-01-0.460D-02 0.366D-01-0.520D-01
 Coeff-Com: -0.250D-01-0.298D+00 0.239D+00-0.683D+01 0.789D+01
 Coeff-En:   0.000D+00 0.000D+00 0.000D+00 0.000D+00 0.000D+00 0.000D+00
 Coeff-En:   0.000D+00 0.000D+00 0.535D+00 0.000D+00 0.465D+00
 Coeff:     -0.362D-01 0.534D-01 0.297D-01-0.451D-02 0.359D-01-0.509D-01
 Coeff:     -0.245D-01-0.292D+00 0.245D+00-0.670D+01 0.774D+01
 Gap=     0.019 Goal=   None    Shift=    0.000
 RMSDP=2.14D-04 MaxDP=5.95D-03 DE=-5.10D-04 OVMax= 2.27D-02

 Cycle  12  Pass 1  IDiag  1:
 E= -649.155257682010     Delta-E=       -0.000807439684 Rises=F Damp=F
 DIIS: error= 1.67D-03 at cycle  12 NSaved=  12.
 NSaved=12 IEnMin=12 EnMin= -649.155257682010     IErMin=12 ErrMin= 1.67D-03
 ErrMax= 1.67D-03  0.00D+00 EMaxC= 1.00D-01 BMatC= 2.15D-04 BMatP= 2.79D-04
 IDIUse=3 WtCom= 9.83D-01 WtEn= 1.67D-02
 Coeff-Com: -0.235D-01 0.314D-01-0.590D-02-0.114D-02 0.218D-01 0.204D-01
 Coeff-Com:  0.127D+00-0.147D+00 0.102D+00-0.789D+01 0.715D+01 0.161D+01
 Coeff-En:   0.000D+00 0.000D+00 0.000D+00 0.000D+00 0.000D+00 0.000D+00
 Coeff-En:   0.000D+00 0.000D+00 0.390D+00 0.000D+00 0.000D+00 0.610D+00
 Coeff:     -0.231D-01 0.308D-01-0.580D-02-0.112D-02 0.214D-01 0.201D-01
 Coeff:      0.124D+00-0.144D+00 0.107D+00-0.776D+01 0.703D+01 0.160D+01
 Gap=     0.019 Goal=   None    Shift=    0.000
 RMSDP=2.73D-04 MaxDP=1.48D-02 DE=-8.07D-04 OVMax= 2.61D-02

 Cycle  13  Pass 1  IDiag  1:
 E= -649.156388485915     Delta-E=       -0.001130803905 Rises=F Damp=F
 DIIS: error= 1.21D-03 at cycle  13 NSaved=  13.
 NSaved=13 IEnMin=13 EnMin= -649.156388485915     IErMin=13 ErrMin= 1.21D-03
 ErrMax= 1.21D-03  0.00D+00 EMaxC= 1.00D-01 BMatC= 1.03D-04 BMatP= 2.15D-04
 IDIUse=3 WtCom= 9.88D-01 WtEn= 1.21D-02
 Coeff-Com:  0.687D-02-0.917D-02-0.129D-01 0.224D-02 0.883D-02 0.334D-01
 Coeff-Com:  0.500D-01 0.568D-01-0.127D+00-0.244D+01 0.118D+01-0.231D+00
 Coeff-Com:  0.248D+01
 Coeff-En:   0.000D+00 0.000D+00 0.000D+00 0.000D+00 0.000D+00 0.000D+00
 Coeff-En:   0.000D+00 0.000D+00 0.148D-01 0.000D+00 0.000D+00 0.000D+00
 Coeff-En:   0.985D+00
 Coeff:      0.679D-02-0.906D-02-0.127D-01 0.221D-02 0.873D-02 0.330D-01
 Coeff:      0.494D-01 0.561D-01-0.126D+00-0.241D+01 0.117D+01-0.228D+00
 Coeff:      0.246D+01
 Gap=     0.019 Goal=   None    Shift=    0.000
 RMSDP=3.34D-04 MaxDP=1.87D-02 DE=-1.13D-03 OVMax= 3.75D-02

 Cycle  14  Pass 1  IDiag  1:
 E= -649.157250903946     Delta-E=       -0.000862418031 Rises=F Damp=F
 DIIS: error= 5.32D-04 at cycle  14 NSaved=  14.
 NSaved=14 IEnMin=14 EnMin= -649.157250903946     IErMin=14 ErrMin= 5.32D-04
 ErrMax= 5.32D-04  0.00D+00 EMaxC= 1.00D-01 BMatC= 2.10D-05 BMatP= 1.03D-04
 IDIUse=3 WtCom= 9.95D-01 WtEn= 5.32D-03
 Coeff-Com:  0.795D-02-0.104D-01 0.134D-02 0.529D-03 0.298D-02-0.205D-03
 Coeff-Com: -0.185D-01 0.473D-01-0.931D-01 0.972D+00-0.110D+01-0.472D+00
 Coeff-Com: -0.219D-01 0.168D+01
 Coeff-En:   0.000D+00 0.000D+00 0.000D+00 0.000D+00 0.000D+00 0.000D+00
 Coeff-En:   0.000D+00 0.000D+00 0.000D+00 0.000D+00 0.000D+00 0.000D+00
 Coeff-En:   0.000D+00 0.100D+01
 Coeff:      0.791D-02-0.103D-01 0.134D-02 0.526D-03 0.297D-02-0.204D-03
 Coeff:     -0.184D-01 0.471D-01-0.926D-01 0.966D+00-0.110D+01-0.469D+00
 Coeff:     -0.218D-01 0.168D+01
 Gap=     0.019 Goal=   None    Shift=    0.000
 RMSDP=1.61D-04 MaxDP=9.34D-03 DE=-8.62D-04 OVMax= 1.70D-02

 Cycle  15  Pass 1  IDiag  1:
 E= -649.157423536146     Delta-E=       -0.000172632200 Rises=F Damp=F
 DIIS: error= 2.17D-04 at cycle  15 NSaved=  15.
 NSaved=15 IEnMin=15 EnMin= -649.157423536146     IErMin=15 ErrMin= 2.17D-04
 ErrMax= 2.17D-04  0.00D+00 EMaxC= 1.00D-01 BMatC= 3.07D-06 BMatP= 2.10D-05
 IDIUse=3 WtCom= 9.98D-01 WtEn= 2.17D-03
 Coeff-Com: -0.510D-03 0.816D-03 0.148D-03 0.388D-03-0.693D-03 0.539D-03
 Coeff-Com: -0.368D-02 0.109D-03 0.449D-02-0.308D-01 0.880D-01 0.564D-01
 Coeff-Com: -0.269D+00-0.344D+00 0.150D+01
 Coeff-En:   0.000D+00 0.000D+00 0.000D+00 0.000D+00 0.000D+00 0.000D+00
 Coeff-En:   0.000D+00 0.000D+00 0.000D+00 0.000D+00 0.000D+00 0.000D+00
 Coeff-En:   0.000D+00 0.000D+00 0.100D+01
 Coeff:     -0.509D-03 0.814D-03 0.147D-03 0.387D-03-0.691D-03 0.538D-03
 Coeff:     -0.367D-02 0.108D-03 0.448D-02-0.307D-01 0.878D-01 0.563D-01
 Coeff:     -0.268D+00-0.343D+00 0.150D+01
 Gap=     0.018 Goal=   None    Shift=    0.000
 RMSDP=9.01D-05 MaxDP=5.54D-03 DE=-1.73D-04 OVMax= 9.72D-03

 Cycle  16  Pass 1  IDiag  1:
 E= -649.157452813846     Delta-E=       -0.000029277700 Rises=F Damp=F
 DIIS: error= 1.39D-05 at cycle  16 NSaved=  16.
 NSaved=16 IEnMin=16 EnMin= -649.157452813846     IErMin=16 ErrMin= 1.39D-05
 ErrMax= 1.39D-05  0.00D+00 EMaxC= 1.00D-01 BMatC= 1.86D-08 BMatP= 3.07D-06
 IDIUse=1 WtCom= 1.00D+00 WtEn= 0.00D+00
 Coeff-Com: -0.672D-03 0.889D-03 0.125D-03-0.146D-04 0.106D-03 0.349D-03
 Coeff-Com: -0.107D-02-0.477D-02 0.791D-02-0.115D+00 0.113D+00 0.613D-01
 Coeff-Com: -0.450D-01-0.845D-01 0.138D+00 0.930D+00
 Coeff:     -0.672D-03 0.889D-03 0.125D-03-0.146D-04 0.106D-03 0.349D-03
 Coeff:     -0.107D-02-0.477D-02 0.791D-02-0.115D+00 0.113D+00 0.613D-01
 Coeff:     -0.450D-01-0.845D-01 0.138D+00 0.930D+00
 Gap=     0.018 Goal=   None    Shift=    0.000
 RMSDP=1.58D-05 MaxDP=4.81D-04 DE=-2.93D-05 OVMax= 1.12D-03

 Cycle  17  Pass 1  IDiag  1:
 E= -649.157452925493     Delta-E=       -0.000000111647 Rises=F Damp=F
 DIIS: error= 1.20D-05 at cycle  17 NSaved=  17.
 NSaved=17 IEnMin=17 EnMin= -649.157452925493     IErMin=17 ErrMin= 1.20D-05
 ErrMax= 1.20D-05  0.00D+00 EMaxC= 1.00D-01 BMatC= 8.25D-09 BMatP= 1.86D-08
 IDIUse=1 WtCom= 1.00D+00 WtEn= 0.00D+00
 Coeff-Com:  0.321D-04-0.448D-04 0.171D-03-0.238D-04 0.110D-03-0.194D-03
 Coeff-Com: -0.542D-03-0.251D-02 0.116D-02-0.116D-01 0.975D-02 0.830D-02
 Coeff-Com:  0.210D-02 0.379D-04-0.646D-01 0.159D+00 0.899D+00
 Coeff:      0.321D-04-0.448D-04 0.171D-03-0.238D-04 0.110D-03-0.194D-03
 Coeff:     -0.542D-03-0.251D-02 0.116D-02-0.116D-01 0.975D-02 0.830D-02
 Coeff:      0.210D-02 0.379D-04-0.646D-01 0.159D+00 0.899D+00
 Gap=     0.018 Goal=   None    Shift=    0.000
 RMSDP=4.17D-06 MaxDP=9.46D-05 DE=-1.12D-07 OVMax= 2.17D-04

 Cycle  18  Pass 1  IDiag  1:
 E= -649.157452970146     Delta-E=       -0.000000044653 Rises=F Damp=F
 DIIS: error= 6.89D-06 at cycle  18 NSaved=  18.
 NSaved=18 IEnMin=18 EnMin= -649.157452970146     IErMin=18 ErrMin= 6.89D-06
 ErrMax= 6.89D-06  0.00D+00 EMaxC= 1.00D-01 BMatC= 3.55D-09 BMatP= 8.25D-09
 IDIUse=1 WtCom= 1.00D+00 WtEn= 0.00D+00
 Coeff-Com:  0.699D-04-0.868D-04 0.483D-04-0.110D-05 0.201D-04-0.546D-04
 Coeff-Com: -0.120D-03-0.385D-03-0.186D-03 0.109D-02-0.176D-02-0.248D-02
 Coeff-Com:  0.410D-02-0.315D-02-0.191D-01 0.104D-01 0.445D-01 0.967D+00
 Coeff:      0.699D-04-0.868D-04 0.483D-04-0.110D-05 0.201D-04-0.546D-04
 Coeff:     -0.120D-03-0.385D-03-0.186D-03 0.109D-02-0.176D-02-0.248D-02
 Coeff:      0.410D-02-0.315D-02-0.191D-01 0.104D-01 0.445D-01 0.967D+00
 Gap=     0.018 Goal=   None    Shift=    0.000
 RMSDP=2.27D-06 MaxDP=1.36D-04 DE=-4.47D-08 OVMax= 2.29D-04

 Cycle  19  Pass 1  IDiag  1:
 E= -649.157453001033     Delta-E=       -0.000000030887 Rises=F Damp=F
 DIIS: error= 1.83D-06 at cycle  19 NSaved=  19.
 NSaved=19 IEnMin=19 EnMin= -649.157453001033     IErMin=19 ErrMin= 1.83D-06
 ErrMax= 1.83D-06  0.00D+00 EMaxC= 1.00D-01 BMatC= 2.47D-10 BMatP= 3.55D-09
 IDIUse=1 WtCom= 1.00D+00 WtEn= 0.00D+00
 Coeff-Com:  0.273D-05-0.399D-06-0.860D-05 0.550D-05-0.290D-05 0.235D-04
 Coeff-Com:  0.134D-04 0.890D-05 0.127D-03-0.842D-03 0.100D-02-0.129D-02
 Coeff-Com:  0.213D-03-0.201D-02 0.332D-02-0.106D-01-0.111D+00 0.208D+00
 Coeff-Com:  0.914D+00
 Coeff:      0.273D-05-0.399D-06-0.860D-05 0.550D-05-0.290D-05 0.235D-04
 Coeff:      0.134D-04 0.890D-05 0.127D-03-0.842D-03 0.100D-02-0.129D-02
 Coeff:      0.213D-03-0.201D-02 0.332D-02-0.106D-01-0.111D+00 0.208D+00
 Coeff:      0.914D+00
 Gap=     0.018 Goal=   None    Shift=    0.000
 RMSDP=6.76D-07 MaxDP=4.02D-05 DE=-3.09D-08 OVMax= 5.73D-05

 Cycle  20  Pass 1  IDiag  1:
 E= -649.157453003112     Delta-E=       -0.000000002079 Rises=F Damp=F
 DIIS: error= 6.60D-07 at cycle  20 NSaved=  20.
 NSaved=20 IEnMin=20 EnMin= -649.157453003112     IErMin=20 ErrMin= 6.60D-07
 ErrMax= 6.60D-07  0.00D+00 EMaxC= 1.00D-01 BMatC= 2.24D-11 BMatP= 2.47D-10
 IDIUse=1 WtCom= 1.00D+00 WtEn= 0.00D+00
 Coeff-Com: -0.192D-05 0.273D-05-0.494D-05 0.276D-05-0.354D-05 0.133D-04
 Coeff-Com: -0.801D-05 0.163D-04-0.168D-04 0.115D-03-0.209D-03 0.781D-04
 Coeff-Com: -0.286D-03 0.885D-04 0.792D-03-0.241D-02-0.170D-01-0.688D-01
 Coeff-Com:  0.163D+00 0.925D+00
 Coeff:     -0.192D-05 0.273D-05-0.494D-05 0.276D-05-0.354D-05 0.133D-04
 Coeff:     -0.801D-05 0.163D-04-0.168D-04 0.115D-03-0.209D-03 0.781D-04
 Coeff:     -0.286D-03 0.885D-04 0.792D-03-0.241D-02-0.170D-01-0.688D-01
 Coeff:      0.163D+00 0.925D+00
 Gap=     0.018 Goal=   None    Shift=    0.000
 RMSDP=2.48D-07 MaxDP=1.39D-05 DE=-2.08D-09 OVMax= 2.57D-05

 Cycle  21  Pass 1  IDiag  1:
 E= -649.157453003326     Delta-E=       -0.000000000214 Rises=F Damp=F
 DIIS: error= 8.29D-08 at cycle  21 NSaved=  20.
 NSaved=20 IEnMin=20 EnMin= -649.157453003326     IErMin=20 ErrMin= 8.29D-08
 ErrMax= 8.29D-08  0.00D+00 EMaxC= 1.00D-01 BMatC= 4.12D-13 BMatP= 2.24D-11
 IDIUse=1 WtCom= 1.00D+00 WtEn= 0.00D+00
 Coeff-Com:  0.235D-05-0.318D-05 0.480D-06 0.382D-06-0.203D-07-0.583D-05
 Coeff-Com:  0.188D-05-0.268D-04 0.126D-03-0.136D-03-0.130D-04-0.489D-04
 Coeff-Com:  0.259D-03-0.298D-03-0.167D-02 0.256D-02 0.130D-01-0.220D-01
 Coeff-Com: -0.601D-01 0.107D+01
 Coeff:      0.235D-05-0.318D-05 0.480D-06 0.382D-06-0.203D-07-0.583D-05
 Coeff:      0.188D-05-0.268D-04 0.126D-03-0.136D-03-0.130D-04-0.489D-04
 Coeff:      0.259D-03-0.298D-03-0.167D-02 0.256D-02 0.130D-01-0.220D-01
 Coeff:     -0.601D-01 0.107D+01
 Gap=     0.018 Goal=   None    Shift=    0.000
 RMSDP=4.14D-08 MaxDP=2.33D-06 DE=-2.14D-10 OVMax= 2.77D-06

 Cycle  22  Pass 1  IDiag  1:
 E= -649.157453003325     Delta-E=        0.000000000000 Rises=F Damp=F
 DIIS: error= 9.00D-09 at cycle  22 NSaved=  20.
 NSaved=20 IEnMin=19 EnMin= -649.157453003326     IErMin=20 ErrMin= 9.00D-09
 ErrMax= 9.00D-09  0.00D+00 EMaxC= 1.00D-01 BMatC= 3.70D-15 BMatP= 4.12D-13
 IDIUse=1 WtCom= 1.00D+00 WtEn= 0.00D+00
 Large coefficients: NSaved= 20 BigCof=    0.00 CofMax=   10.00 Det=-6.78D-15
 Inversion failed.  Reducing to 19 matrices.
 Large coefficients: NSaved= 19 BigCof=    0.00 CofMax=   10.00 Det=-7.17D-15
 Inversion failed.  Reducing to 18 matrices.
 Large coefficients: NSaved= 18 BigCof=    0.00 CofMax=   10.00 Det=-8.05D-15
 Inversion failed.  Reducing to 17 matrices.
 Coeff-Com:  0.186D-08 0.182D-06 0.614D-06 0.253D-06-0.137D-04 0.135D-04
 Coeff-Com:  0.506D-05-0.280D-05-0.175D-04 0.441D-04-0.251D-04-0.254D-03
 Coeff-Com:  0.313D-03 0.254D-02-0.264D-02 0.822D-01 0.918D+00
 Coeff:      0.186D-08 0.182D-06 0.614D-06 0.253D-06-0.137D-04 0.135D-04
 Coeff:      0.506D-05-0.280D-05-0.175D-04 0.441D-04-0.251D-04-0.254D-03
 Coeff:      0.313D-03 0.254D-02-0.264D-02 0.822D-01 0.918D+00
 Gap=     0.018 Goal=   None    Shift=    0.000
 RMSDP=5.04D-09 MaxDP=1.75D-07 DE= 4.55D-13 OVMax= 4.24D-07

 SCF Done:  E(RB3LYP) =  -649.157453003     A.U. after   22 cycles
            NFock= 22  Conv=0.50D-08     -V/T= 2.0030
 KE= 6.471845720231D+02 PE=-1.691189073880D+03 EE= 3.285669610968D+02
 Leave Link  502 at Thu Oct  5 15:46:37 2023, MaxMem=  1610612736 cpu:              29.6 elap:               2.1
 (Enter /home/sekinelabo/g16/l601.exe)
 Copying SCF densities to generalized density rwf, IOpCl= 0 IROHF=0.

 **********************************************************************

            Population analysis using the SCF Density.

 **********************************************************************

 Orbital symmetries:
       Occupied  (A) (A) (A) (A) (A) (A) (A) (A) (A) (A) (A) (A)
                 (A) (A) (A) (A) (A) (A) (A) (A) (A) (A)
       Virtual   (A) (A) (A) (A) (A) (A) (A) (A) (A) (A) (A) (A)
                 (A) (A) (A) (A) (A) (A) (A) (A) (A) (A) (A) (A)
                 (A) (A) (A) (A) (A) (A) (A) (A) (A) (A) (A) (A)
                 (A) (A) (A) (A) (A) (A) (A) (A) (A) (A) (A) (A)
                 (A) (A) (A) (A) (A) (A) (A) (A) (A) (A) (A) (A)
                 (A) (A) (A) (A) (A) (A) (A) (A) (A) (A) (A) (A)
                 (A) (A) (A) (A) (A) (A) (A) (A) (A) (A) (A) (A)
                 (A) (A) (A) (A) (A) (A) (A) (A) (A) (A) (A) (A)
                 (A) (A)
 The electronic state is 1-A.
 Alpha  occ. eigenvalues --  -38.47032 -38.47005 -38.45413 -38.44702  -2.22704
 Alpha  occ. eigenvalues --   -2.22674  -2.21087  -2.20392  -1.16385  -1.16366
 Alpha  occ. eigenvalues --   -1.16351  -1.16350  -1.16342  -1.16316  -1.14786
 Alpha  occ. eigenvalues --   -1.14784  -1.14687  -1.14071  -1.14070  -1.14026
 Alpha  occ. eigenvalues --   -0.13113  -0.10818
 Alpha virt. eigenvalues --   -0.08978  -0.06594  -0.02840  -0.02808  -0.02224
 Alpha virt. eigenvalues --   -0.02024  -0.01285  -0.01055  -0.00783  -0.00227
 Alpha virt. eigenvalues --   -0.00114   0.00496   0.00595   0.00649   0.01050
 Alpha virt. eigenvalues --    0.01279   0.01388   0.01652   0.01752   0.01781
 Alpha virt. eigenvalues --    0.01825   0.02008   0.02270   0.02325   0.02409
 Alpha virt. eigenvalues --    0.02768   0.02868   0.03259   0.03425   0.04357
 Alpha virt. eigenvalues --    0.06720   0.07281   0.07683   0.07730   0.07952
 Alpha virt. eigenvalues --    0.08088   0.08221   0.08605   0.08752   0.09038
 Alpha virt. eigenvalues --    0.09327   0.09940   0.10539   0.11608   0.12158
 Alpha virt. eigenvalues --    0.12930   0.31124   0.31989   0.32585   0.33194
 Alpha virt. eigenvalues --    0.33645   0.33806   0.33860   0.33977   0.34166
 Alpha virt. eigenvalues --    0.34843   0.35081   0.35397   0.35499   0.35526
 Alpha virt. eigenvalues --    0.35768   0.36000   0.36208   0.37235   0.37457
 Alpha virt. eigenvalues --    0.41037   0.41671   0.42247   0.42669   0.43297
 Alpha virt. eigenvalues --    0.43686   0.43892   0.44640   0.44901   0.46334
 Alpha virt. eigenvalues --    0.47001   0.48448   0.51311   1.99584   2.00829
 Alpha virt. eigenvalues --    2.04058   2.04429   4.41536   4.41727   4.42133
 Alpha virt. eigenvalues --    4.42343   4.42688   4.43491   4.43719   4.44009
 Alpha virt. eigenvalues --    4.44485   4.45058   4.45378   4.49076  96.18484
 Alpha virt. eigenvalues --   96.19994  96.23731  96.23932
          Condensed to atoms (all electrons):
               1          2          3          4
     1  Na  10.738208   0.117450   0.080333  -0.032723
     2  Na   0.117450  10.923327  -0.052628  -0.051018
     3  Na   0.080333  -0.052628  10.846492   0.214929
     4  Na  -0.032723  -0.051018   0.214929  10.939285
 Mulliken charges:
               1
     1  Na   0.096731
     2  Na   0.062869
     3  Na  -0.089126
     4  Na  -0.070474
 Sum of Mulliken charges =  -0.00000
 Mulliken charges with hydrogens summed into heavy atoms:
               1
     1  Na   0.096731
     2  Na   0.062869
     3  Na  -0.089126
     4  Na  -0.070474
 Electronic spatial extent (au):  <R**2>=           2555.4993
 Charge=             -0.0000 electrons
 Dipole moment (field-independent basis, Debye):
    X=              2.5572    Y=              0.2915    Z=             -0.1028  Tot=              2.5758
 Quadrupole moment (field-independent basis, Debye-Ang):
   XX=            -38.2136   YY=            -33.0887   ZZ=            -46.5132
   XY=             -8.1879   XZ=             -0.0406   YZ=              0.4462
 Traceless Quadrupole moment (field-independent basis, Debye-Ang):
   XX=              1.0582   YY=              6.1831   ZZ=             -7.2413
   XY=             -8.1879   XZ=             -0.0406   YZ=              0.4462
 Octapole moment (field-independent basis, Debye-Ang**2):
  XXX=              9.0640  YYY=             11.2059  ZZZ=             -0.0913  XYY=             44.9477
  XXY=            -20.0620  XXZ=            -10.6992  XZZ=              6.9579  YZZ=             -0.8392
  YYZ=             -1.3971  XYZ=              4.1231
 Hexadecapole moment (field-independent basis, Debye-Ang**3):
 XXXX=          -2893.1972 YYYY=          -1093.1518 ZZZZ=           -232.5193 XXXY=           -252.6821
 XXXZ=             19.3755 YYYX=            -57.8407 YYYZ=              7.5650 ZZZX=             -0.8308
 ZZZY=              2.2704 XXYY=           -651.8085 XXZZ=           -610.5715 YYZZ=           -241.2988
 XXYZ=             12.2502 YYXZ=             -7.9591 ZZXY=            -18.5812
 N-N= 6.628008775637D+01 E-N=-1.691189073947D+03  KE= 6.471845720231D+02
 No NMR shielding tensors so no spin-rotation constants.
 Leave Link  601 at Thu Oct  5 15:46:37 2023, MaxMem=  1610612736 cpu:               0.9 elap:               0.1
 (Enter /home/sekinelabo/g16/l701.exe)
 ... and contract with generalized density number  0.
 Compute integral first derivatives.
 Leave Link  701 at Thu Oct  5 15:46:37 2023, MaxMem=  1610612736 cpu:               1.3 elap:               0.1
 (Enter /home/sekinelabo/g16/l702.exe)
 L702 exits ... SP integral derivatives will be done elsewhere.
 Leave Link  702 at Thu Oct  5 15:46:37 2023, MaxMem=  1610612736 cpu:               0.3 elap:               0.0
 (Enter /home/sekinelabo/g16/l703.exe)
 Integral derivatives from FoFJK, PRISM(SPDF).
 Compute integral first derivatives, UseDBF=F ICtDFT=           0.
 Calling FoFJK, ICntrl=      2127 FMM=F ISym2X=0 I1Cent= 0 IOpClX= 0 NMat=1 NMatS=1 NMatT=0.
 FoFJK:  IHMeth= 1 ICntrl=    2127 DoSepK=F KAlg= 0 I1Cent=           0 FoldK=F
 IRaf=         0 NMat=       1 IRICut=       1 DoRegI=T DoRafI=F ISym2E= 0 IDoP0=0 IntGTp=1.
 FoFCou: FMM=F IPFlag=           0 FMFlag=      100000 FMFlg1=         800
         NFxFlg=           0 DoJE=F BraDBF=F KetDBF=F FulRan=T
         wScrn=  0.000000 ICntrl=      2127 IOpCl=  0 I1Cent=           0 NGrid=           0
         NMat0=    1 NMatS0=      1 NMatT0=    0 NMatD0=    1 NMtDS0=    0 NMtDT0=    0
 Symmetry not used in FoFCou.
 Leave Link  703 at Thu Oct  5 15:46:37 2023, MaxMem=  1610612736 cpu:               5.6 elap:               0.3
 (Enter /home/sekinelabo/g16/l716.exe)
 Dipole        = 1.00609379D+00 1.14680426D-01-4.04309126D-02
 ***** Axes restored to original set *****
 -------------------------------------------------------------------
 Center     Atomic                   Forces (Hartrees/Bohr)
 Number     Number              X              Y              Z
 -------------------------------------------------------------------
      1       11          -0.004257800    0.000045077    0.005732979
      2       11           0.004325301    0.000070184   -0.002077548
      3       11          -0.001057329   -0.001812048    0.002226563
      4       11           0.000989828    0.001696786   -0.005881994
 -------------------------------------------------------------------
 Cartesian Forces:  Max     0.005881994 RMS     0.003186469
 Z-matrix is all fixed cartesians, so copy forces.
 Force constants in Cartesian coordinates: 
                1             2             3             4             5 
      1  0.100000D+01
      2  0.000000D+00  0.100000D+01
      3  0.000000D+00  0.000000D+00  0.100000D+01
      4  0.000000D+00  0.000000D+00  0.000000D+00  0.100000D+01
      5  0.000000D+00  0.000000D+00  0.000000D+00  0.000000D+00  0.100000D+01
      6  0.000000D+00  0.000000D+00  0.000000D+00  0.000000D+00  0.000000D+00
      7  0.000000D+00  0.000000D+00  0.000000D+00  0.000000D+00  0.000000D+00
      8  0.000000D+00  0.000000D+00  0.000000D+00  0.000000D+00  0.000000D+00
      9  0.000000D+00  0.000000D+00  0.000000D+00  0.000000D+00  0.000000D+00
     10  0.000000D+00  0.000000D+00  0.000000D+00  0.000000D+00  0.000000D+00
     11  0.000000D+00  0.000000D+00  0.000000D+00  0.000000D+00  0.000000D+00
     12  0.000000D+00  0.000000D+00  0.000000D+00  0.000000D+00  0.000000D+00
                6             7             8             9            10 
      6  0.100000D+01
      7  0.000000D+00  0.100000D+01
      8  0.000000D+00  0.000000D+00  0.100000D+01
      9  0.000000D+00  0.000000D+00  0.000000D+00  0.100000D+01
     10  0.000000D+00  0.000000D+00  0.000000D+00  0.000000D+00  0.100000D+01
     11  0.000000D+00  0.000000D+00  0.000000D+00  0.000000D+00  0.000000D+00
     12  0.000000D+00  0.000000D+00  0.000000D+00  0.000000D+00  0.000000D+00
               11            12 
     11  0.100000D+01
     12  0.000000D+00  0.100000D+01
 Leave Link  716 at Thu Oct  5 15:46:37 2023, MaxMem=  1610612736 cpu:               0.3 elap:               0.0
 (Enter /home/sekinelabo/g16/l103.exe)

 GradGradGradGradGradGradGradGradGradGradGradGradGradGradGradGradGradGrad
 Berny optimization.
 Search for a local minimum.
 Step number   1 out of a maximum of    2
 All quantities printed in internal units (Hartrees-Bohrs-Radians)
 Second derivative matrix not updated -- first step.
 The second derivative matrix:
                          X1        Y1        Z1        X2        Y2
           X1           1.00000
           Y1           0.00000   1.00000
           Z1          -0.00000  -0.00000   1.00000
           X2           0.00000   0.00000   0.00000   1.00000
           Y2           0.00000   0.00000   0.00000   0.00000   1.00000
           Z2           0.00000   0.00000   0.00000  -0.00000  -0.00000
           X3           0.00000   0.00000   0.00000   0.00000   0.00000
           Y3           0.00000   0.00000   0.00000   0.00000   0.00000
           Z3           0.00000   0.00000   0.00000   0.00000   0.00000
           X4           0.00000   0.00000   0.00000   0.00000   0.00000
           Y4           0.00000   0.00000   0.00000   0.00000   0.00000
           Z4           0.00000   0.00000   0.00000   0.00000   0.00000
                          Z2        X3        Y3        Z3        X4
           Z2           1.00000
           X3           0.00000   1.00000
           Y3           0.00000   0.00000   1.00000
           Z3           0.00000  -0.00000  -0.00000   1.00000
           X4           0.00000   0.00000   0.00000   0.00000   1.00000
           Y4           0.00000   0.00000   0.00000   0.00000   0.00000
           Z4           0.00000   0.00000   0.00000   0.00000  -0.00000
                          Y4        Z4
           Y4           1.00000
           Z4          -0.00000   1.00000
 ITU=  0
     Eigenvalues ---    1.00000   1.00000   1.00000   1.00000   1.00000
     Eigenvalues ---    1.00000   1.00000   1.00000   1.00000   1.00000
     Eigenvalues ---    1.00000   1.00000
 Angle between quadratic step and forces=   0.00 degrees.
 Linear search not attempted -- first point.
 B after Tr=    -0.000000   -0.000000   -0.000000
         Rot=    1.000000   -0.000000   -0.000000    0.000000 Ang=   0.00 deg.
 Variable       Old X    -DE/DX   Delta X   Delta X   Delta X     New X
                                 (Linear)    (Quad)   (Total)
    X1        0.00000  -0.00426   0.00000  -0.00426  -0.00426  -0.00426
    Y1        0.00000   0.00005   0.00000   0.00005   0.00005   0.00005
    Z1       -0.00000   0.00573   0.00000   0.00573   0.00573   0.00573
    X2       -9.48834   0.00433   0.00000   0.00433   0.00433  -9.48402
    Y2        0.00000   0.00007   0.00000   0.00007   0.00007   0.00007
    Z2        4.06227  -0.00208   0.00000  -0.00208  -0.00208   4.06020
    X3        0.00000  -0.00106   0.00000  -0.00106  -0.00106  -0.00106
    Y3        0.00000  -0.00181   0.00000  -0.00181  -0.00181  -0.00181
    Z3        8.39445   0.00223   0.00000   0.00223   0.00223   8.39667
    X4       -0.96666   0.00099   0.00000   0.00099   0.00099  -0.96567
    Y4       -2.33033   0.00170   0.00000   0.00170   0.00170  -2.32863
    Z4       16.87495  -0.00588   0.00000  -0.00588  -0.00588  16.86907
         Item               Value     Threshold  Converged?
 Maximum Force            0.005882     0.000450     NO 
 RMS     Force            0.003186     0.000300     NO 
 Maximum Displacement     0.005882     0.001800     NO 
 RMS     Displacement     0.003186     0.001200     NO 
 Predicted change in Energy=-6.092152D-05
[...]
 ErrMax= 5.74D-05  0.00D+00 EMaxC= 1.00D-01 BMatC= 3.79D-07 BMatP= 2.98D-05
 IDIUse=1 WtCom= 1.00D+00 WtEn= 0.00D+00
 Coeff-Com: -0.159D-02 0.199D-02 0.112D+00 0.166D+00 0.721D+00
 Coeff:     -0.159D-02 0.199D-02 0.112D+00 0.166D+00 0.721D+00
 Gap=     0.047 Goal=   None    Shift=    0.000
 RMSDP=4.93D-05 MaxDP=1.35D-03 DE=-9.21D-05 OVMax= 1.30D-03

 Cycle   6  Pass 1  IDiag  1:
 E= -649.164595591934     Delta-E=       -0.000000870009 Rises=F Damp=F
 DIIS: error= 1.54D-05 at cycle   6 NSaved=   6.
 NSaved= 6 IEnMin= 6 EnMin= -649.164595591934     IErMin= 6 ErrMin= 1.54D-05
 ErrMax= 1.54D-05  0.00D+00 EMaxC= 1.00D-01 BMatC= 2.29D-08 BMatP= 3.79D-07
 IDIUse=1 WtCom= 1.00D+00 WtEn= 0.00D+00
 Coeff-Com: -0.973D-03 0.117D-02 0.113D-01 0.290D-01 0.216D+00 0.743D+00
 Coeff:     -0.973D-03 0.117D-02 0.113D-01 0.290D-01 0.216D+00 0.743D+00
 Gap=     0.047 Goal=   None    Shift=    0.000
 RMSDP=1.21D-05 MaxDP=3.65D-04 DE=-8.70D-07 OVMax= 3.18D-04

 Cycle   7  Pass 1  IDiag  1:
 E= -649.164595646070     Delta-E=       -0.000000054136 Rises=F Damp=F
 DIIS: error= 4.31D-06 at cycle   7 NSaved=   7.
 NSaved= 7 IEnMin= 7 EnMin= -649.164595646070     IErMin= 7 ErrMin= 4.31D-06
 ErrMax= 4.31D-06  0.00D+00 EMaxC= 1.00D-01 BMatC= 6.69D-10 BMatP= 2.29D-08
 IDIUse=1 WtCom= 1.00D+00 WtEn= 0.00D+00
 Coeff-Com: -0.394D-04 0.341D-04-0.410D-02-0.717D-02-0.270D-01 0.396D-01
 Coeff-Com:  0.999D+00
 Coeff:     -0.394D-04 0.341D-04-0.410D-02-0.717D-02-0.270D-01 0.396D-01
 Coeff:      0.999D+00
 Gap=     0.047 Goal=   None    Shift=    0.000
 RMSDP=4.17D-06 MaxDP=1.08D-04 DE=-5.41D-08 OVMax= 1.13D-04

 Cycle   8  Pass 1  IDiag  1:
 E= -649.164595650850     Delta-E=       -0.000000004780 Rises=F Damp=F
 DIIS: error= 8.66D-07 at cycle   8 NSaved=   8.
 NSaved= 8 IEnMin= 8 EnMin= -649.164595650850     IErMin= 8 ErrMin= 8.66D-07
 ErrMax= 8.66D-07  0.00D+00 EMaxC= 1.00D-01 BMatC= 1.81D-10 BMatP= 6.69D-10
 IDIUse=1 WtCom= 1.00D+00 WtEn= 0.00D+00
 Coeff-Com:  0.333D-04-0.464D-04-0.232D-02-0.476D-02-0.260D-01-0.178D-01
 Coeff-Com:  0.386D+00 0.665D+00
 Coeff:      0.333D-04-0.464D-04-0.232D-02-0.476D-02-0.260D-01-0.178D-01
 Coeff:      0.386D+00 0.665D+00
 Gap=     0.047 Goal=   None    Shift=    0.000
 RMSDP=7.18D-07 MaxDP=1.76D-05 DE=-4.78D-09 OVMax= 3.79D-05

 Cycle   9  Pass 1  IDiag  1:
 E= -649.164595651299     Delta-E=       -0.000000000449 Rises=F Damp=F
 DIIS: error= 2.80D-07 at cycle   9 NSaved=   9.
 NSaved= 9 IEnMin= 9 EnMin= -649.164595651299     IErMin= 9 ErrMin= 2.80D-07
 ErrMax= 2.80D-07  0.00D+00 EMaxC= 1.00D-01 BMatC= 1.78D-11 BMatP= 1.81D-10
 IDIUse=1 WtCom= 1.00D+00 WtEn= 0.00D+00
 Coeff-Com:  0.502D-04-0.652D-04 0.215D-04-0.234D-03-0.471D-02-0.137D-01
 Coeff-Com: -0.356D-01 0.199D+00 0.855D+00
 Coeff:      0.502D-04-0.652D-04 0.215D-04-0.234D-03-0.471D-02-0.137D-01
 Coeff:     -0.356D-01 0.199D+00 0.855D+00
 Gap=     0.047 Goal=   None    Shift=    0.000
 RMSDP=6.43D-07 MaxDP=2.02D-05 DE=-4.49D-10 OVMax= 1.63D-05

 Cycle  10  Pass 1  IDiag  1:
 E= -649.164595651365     Delta-E=       -0.000000000066 Rises=F Damp=F
 DIIS: error= 7.49D-08 at cycle  10 NSaved=  10.
 NSaved=10 IEnMin=10 EnMin= -649.164595651365     IErMin=10 ErrMin= 7.49D-08
 ErrMax= 7.49D-08  0.00D+00 EMaxC= 1.00D-01 BMatC= 8.10D-13 BMatP= 1.78D-11
 IDIUse=1 WtCom= 1.00D+00 WtEn= 0.00D+00
 Coeff-Com:  0.147D-04-0.190D-04 0.970D-04 0.122D-03-0.576D-03-0.407D-02
 Coeff-Com: -0.307D-01 0.395D-01 0.298D+00 0.698D+00
 Coeff:      0.147D-04-0.190D-04 0.970D-04 0.122D-03-0.576D-03-0.407D-02
 Coeff:     -0.307D-01 0.395D-01 0.298D+00 0.698D+00
 Gap=     0.047 Goal=   None    Shift=    0.000
 RMSDP=1.68D-07 MaxDP=4.92D-06 DE=-6.61D-11 OVMax= 3.42D-06

 Cycle  11  Pass 1  IDiag  1:
 E= -649.164595651367     Delta-E=       -0.000000000002 Rises=F Damp=F
 DIIS: error= 2.75D-08 at cycle  11 NSaved=  11.
 NSaved=11 IEnMin=11 EnMin= -649.164595651367     IErMin=11 ErrMin= 2.75D-08
 ErrMax= 2.75D-08  0.00D+00 EMaxC= 1.00D-01 BMatC= 1.10D-13 BMatP= 8.10D-13
 IDIUse=1 WtCom= 1.00D+00 WtEn= 0.00D+00
 Coeff-Com: -0.837D-05 0.110D-04 0.322D-04 0.122D-03 0.107D-02 0.204D-02
 Coeff-Com: -0.575D-02-0.279D-01-0.821D-01 0.206D+00 0.907D+00
 Coeff:     -0.837D-05 0.110D-04 0.322D-04 0.122D-03 0.107D-02 0.204D-02
 Coeff:     -0.575D-02-0.279D-01-0.821D-01 0.206D+00 0.907D+00
 Gap=     0.047 Goal=   None    Shift=    0.000
 RMSDP=1.51D-07 MaxDP=5.10D-06 DE=-1.82D-12 OVMax= 1.65D-06

 Cycle  12  Pass 1  IDiag  1:
 E= -649.164595651372     Delta-E=       -0.000000000005 Rises=F Damp=F
 DIIS: error= 3.75D-09 at cycle  12 NSaved=  12.
 NSaved=12 IEnMin=12 EnMin= -649.164595651372     IErMin=12 ErrMin= 3.75D-09
 ErrMax= 3.75D-09  0.00D+00 EMaxC= 1.00D-01 BMatC= 2.88D-15 BMatP= 1.10D-13
 IDIUse=1 WtCom= 1.00D+00 WtEn= 0.00D+00
 Coeff-Com: -0.162D-05 0.210D-05 0.146D-05 0.141D-04 0.196D-03 0.407D-03
 Coeff-Com:  0.162D-03-0.411D-02-0.215D-01 0.147D-01 0.168D+00 0.842D+00
 Coeff:     -0.162D-05 0.210D-05 0.146D-05 0.141D-04 0.196D-03 0.407D-03
 Coeff:      0.162D-03-0.411D-02-0.215D-01 0.147D-01 0.168D+00 0.842D+00
 Gap=     0.047 Goal=   None    Shift=    0.000
 RMSDP=1.48D-08 MaxDP=6.40D-07 DE=-5.23D-12 OVMax= 2.33D-07

 Cycle  13  Pass 1  IDiag  1:
 E= -649.164595651367     Delta-E=        0.000000000005 Rises=F Damp=F
 DIIS: error= 2.14D-09 at cycle  13 NSaved=  13.
 NSaved=13 IEnMin=12 EnMin= -649.164595651372     IErMin=13 ErrMin= 2.14D-09
 ErrMax= 2.14D-09  0.00D+00 EMaxC= 1.00D-01 BMatC= 3.91D-16 BMatP= 2.88D-15
 IDIUse=1 WtCom= 1.00D+00 WtEn= 0.00D+00
 Coeff-Com:  0.101D-06-0.140D-06-0.150D-05-0.322D-05-0.128D-04 0.145D-05
 Coeff-Com:  0.398D-03 0.296D-03-0.464D-03-0.938D-02-0.120D-01 0.229D+00
 Coeff-Com:  0.792D+00
 Coeff:      0.101D-06-0.140D-06-0.150D-05-0.322D-05-0.128D-04 0.145D-05
 Coeff:      0.398D-03 0.296D-03-0.464D-03-0.938D-02-0.120D-01 0.229D+00
 Coeff:      0.792D+00
 Gap=     0.047 Goal=   None    Shift=    0.000
 RMSDP=3.14D-09 MaxDP=1.02D-07 DE= 4.66D-12 OVMax= 8.84D-08

 SCF Done:  E(RB3LYP) =  -649.164595651     A.U. after   13 cycles
            NFock= 13  Conv=0.31D-08     -V/T= 2.0023
 KE= 6.476526291619D+02 PE=-1.808312105910D+03 EE= 3.869772926259D+02
 Leave Link  502 at Thu Oct  5 15:46:58 2023, MaxMem=  1610612736 cpu:              21.2 elap:               1.5
 (Enter /home/sekinelabo/g16/l601.exe)
 Copying SCF densities to generalized density rwf, IOpCl= 0 IROHF=0.

 **********************************************************************

            Population analysis using the SCF Density.

 **********************************************************************

 Orbital symmetries:
       Occupied  (A) (A) (A) (A) (A) (A) (A) (A) (A) (A) (A) (A)
                 (A) (A) (A) (A) (A) (A) (A) (A) (A) (A)
       Virtual   (A) (A) (A) (A) (A) (A) (A) (A) (A) (A) (A) (A)
                 (A) (A) (A) (A) (A) (A) (A) (A) (A) (A) (A) (A)
                 (A) (A) (A) (A) (A) (A) (A) (A) (A) (A) (A) (A)
                 (A) (A) (A) (A) (A) (A) (A) (A) (A) (A) (A) (A)
                 (A) (A) (A) (A) (A) (A) (A) (A) (A) (A) (A) (A)
                 (A) (A) (A) (A) (A) (A) (A) (A) (A) (A) (A) (A)
                 (A) (A) (A) (A) (A) (A) (A) (A) (A) (A) (A) (A)
                 (A) (A) (A) (A) (A) (A) (A) (A) (A) (A) (A) (A)
                 (A) (A)
 The electronic state is 1-A.
 Alpha  occ. eigenvalues --  -38.46001 -38.45285 -38.44939 -38.43314  -2.22049
 Alpha  occ. eigenvalues --   -2.21241  -2.21091  -2.19245  -1.16107  -1.15875
 Alpha  occ. eigenvalues --   -1.15579  -1.15072  -1.14856  -1.14823  -1.14782
 Alpha  occ. eigenvalues --   -1.14661  -1.14609  -1.12896  -1.12809  -1.12805
 Alpha  occ. eigenvalues --   -0.17503  -0.11264
 Alpha virt. eigenvalues --   -0.06542  -0.05277  -0.03583  -0.01910  -0.01324
 Alpha virt. eigenvalues --   -0.00920  -0.00058   0.00206   0.00299   0.00497
 Alpha virt. eigenvalues --    0.00677   0.00997   0.01531   0.01680   0.01779
 Alpha virt. eigenvalues --    0.01828   0.02053   0.02151   0.02227   0.02295
 Alpha virt. eigenvalues --    0.02496   0.02593   0.02681   0.03099   0.03410
 Alpha virt. eigenvalues --    0.03880   0.04383   0.04740   0.04962   0.05508
 Alpha virt. eigenvalues --    0.05960   0.06723   0.07351   0.07622   0.08571
 Alpha virt. eigenvalues --    0.08931   0.09168   0.09735   0.10181   0.11107
 Alpha virt. eigenvalues --    0.12092   0.12606   0.12948   0.14906   0.16225
 Alpha virt. eigenvalues --    0.16993   0.25701   0.27007   0.28850   0.30509
 Alpha virt. eigenvalues --    0.32032   0.33133   0.34074   0.35303   0.36622
 Alpha virt. eigenvalues --    0.36711   0.38255   0.39831   0.41452   0.42200
 Alpha virt. eigenvalues --    0.43100   0.43729   0.44052   0.44514   0.45333
 Alpha virt. eigenvalues --    0.46209   0.48051   0.48665   0.49630   0.52757
 Alpha virt. eigenvalues --    0.54982   0.55789   0.59822   0.63550   0.65002
 Alpha virt. eigenvalues --    0.82836   0.88492   0.92919   2.05735   2.11415
 Alpha virt. eigenvalues --    2.13844   2.18848   4.41797   4.42651   4.43539
 Alpha virt. eigenvalues --    4.46151   4.46781   4.47575   4.48734   4.51120
 Alpha virt. eigenvalues --    4.57416   4.74146   4.81968   4.89754  96.28641
 Alpha virt. eigenvalues --   96.33948  96.36502  96.44077
          Condensed to atoms (all electrons):
               1          2          3          4
     1  Na  11.432410  -0.207558   0.291046   0.025980
     2  Na  -0.207558  10.859450  -0.057418   0.288702
     3  Na   0.291046  -0.057418  10.686159  -0.076710
     4  Na   0.025980   0.288702  -0.076710  10.493900
 Mulliken charges:
               1
     1  Na  -0.541877
     2  Na   0.116825
     3  Na   0.156924
     4  Na   0.268129
 Sum of Mulliken charges =   0.00000
 Mulliken charges with hydrogens summed into heavy atoms:
               1
     1  Na  -0.541877
     2  Na   0.116825
     3  Na   0.156924
     4  Na   0.268129
 Electronic spatial extent (au):  <R**2>=            781.0889
 Charge=              0.0000 electrons
 Dipole moment (field-independent basis, Debye):
    X=              1.2264    Y=              0.2030    Z=             -0.3365  Tot=              1.2878
 Quadrupole moment (field-independent basis, Debye-Ang):
   XX=            -50.3186   YY=            -32.9889   ZZ=            -39.6635
   XY=             -0.5371   XZ=              1.4638   YZ=              0.3653
 Traceless Quadrupole moment (field-independent basis, Debye-Ang):
   XX=             -9.3282   YY=              8.0014   ZZ=              1.3268
   XY=             -0.5371   XZ=              1.4638   YZ=              0.3653
 Octapole moment (field-independent basis, Debye-Ang**2):
  XXX=             -5.8051  YYY=              0.3847  ZZZ=              1.4268  XYY=             18.7087
  XXY=              8.0969  XXZ=             -9.1436  XZZ=              2.2315  YZZ=             -1.6998
  YYZ=             -2.1655  XYZ=              3.8281
 Hexadecapole moment (field-independent basis, Debye-Ang**3):
 XXXX=          -1155.7512 YYYY=           -271.2598 ZZZZ=           -203.0755 XXXY=             -7.4850
 XXXZ=             33.8189 YYYX=             -0.6667 YYYZ=              4.4793 ZZZX=              6.4550
 ZZZY=              1.2455 XXYY=           -220.0396 XXZZ=           -226.8002 YYZZ=            -80.8828
 XXYZ=              1.7657 YYXZ=             -0.1912 ZZXY=             -1.3328
 N-N= 1.245175884707D+02 E-N=-1.808312106032D+03  KE= 6.476526291619D+02
 No NMR shielding tensors so no spin-rotation constants.
 Leave Link  601 at Thu Oct  5 15:46:58 2023, MaxMem=  1610612736 cpu:               0.9 elap:               0.1
 (Enter /home/sekinelabo/g16/l701.exe)
 ... and contract with generalized density number  0.
 Compute integral first derivatives.
 Leave Link  701 at Thu Oct  5 15:46:58 2023, MaxMem=  1610612736 cpu:               1.3 elap:               0.1
 (Enter /home/sekinelabo/g16/l702.exe)
 L702 exits ... SP integral derivatives will be done elsewhere.
 Leave Link  702 at Thu Oct  5 15:46:58 2023, MaxMem=  1610612736 cpu:               0.4 elap:               0.0
 (Enter /home/sekinelabo/g16/l703.exe)
 Integral derivatives from FoFJK, PRISM(SPDF).
 Compute integral first derivatives, UseDBF=F ICtDFT=           0.
 Calling FoFJK, ICntrl=      2127 FMM=F ISym2X=0 I1Cent= 0 IOpClX= 0 NMat=1 NMatS=1 NMatT=0.
 FoFJK:  IHMeth= 1 ICntrl=    2127 DoSepK=F KAlg= 0 I1Cent=           0 FoldK=F
 IRaf=         0 NMat=       1 IRICut=       1 DoRegI=T DoRafI=F ISym2E= 0 IDoP0=0 IntGTp=1.
 FoFCou: FMM=F IPFlag=           0 FMFlag=      100000 FMFlg1=         800
         NFxFlg=           0 DoJE=F BraDBF=F KetDBF=F FulRan=T
         wScrn=  0.000000 ICntrl=      2127 IOpCl=  0 I1Cent=           0 NGrid=           0
         NMat0=    1 NMatS0=      1 NMatT0=    0 NMatD0=    1 NMtDS0=    0 NMtDT0=    0
 Symmetry not used in FoFCou.
 Leave Link  703 at Thu Oct  5 15:46:59 2023, MaxMem=  1610612736 cpu:               6.8 elap:               0.4
 (Enter /home/sekinelabo/g16/l716.exe)
 Dipole        = 4.82509006D-01 7.98820364D-02-1.32376124D-01
 ***** Axes restored to original set *****
 -------------------------------------------------------------------
 Center     Atomic                   Forces (Hartrees/Bohr)
 Number     Number              X              Y              Z
 -------------------------------------------------------------------
      1       11           0.013483182    0.013560524   -0.011439586
      2       11          -0.018228093    0.013395818   -0.002578303
      3       11           0.002012120    0.000086243    0.025339604
      4       11           0.002732792   -0.027042585   -0.011321715
 -------------------------------------------------------------------
 Cartesian Forces:  Max     0.027042585 RMS     0.014514388
 Z-matrix is all fixed cartesians, so copy forces.
 Force constants in Cartesian coordinates: 
                1             2             3             4             5 
      1  0.863842D-01
      2  0.291465D-01  0.655297D-01
      3  0.998528D-02  0.168724D-01  0.143973D+00
      4 -0.363611D-01  0.112985D-01 -0.457840D-02  0.771978D-01
      5 -0.113345D-01  0.112356D-02 -0.323801D-02 -0.417795D-01  0.585614D-01
      6 -0.237306D-02  0.259007D-02 -0.109827D-01  0.719450D-02  0.924888D-02
      7 -0.241789D-01 -0.626096D-02  0.144004D-01  0.406329D-02  0.976280D-03
      8 -0.592102D-02 -0.136127D-01  0.768913D-02 -0.516714D-03 -0.534071D-03
      9  0.000000D+00  0.000000D+00 -0.105596D+00  0.000000D+00  0.000000D+00
     10 -0.258442D-01 -0.341840D-01 -0.198073D-01 -0.449000D-01  0.521378D-01
     11 -0.118910D-01 -0.530406D-01 -0.213235D-01  0.309978D-01 -0.591509D-01
     12 -0.761222D-02 -0.194625D-01 -0.273939D-01 -0.261609D-02 -0.601086D-02
                6             7             8             9            10 
      6  0.164860D-01
      7 -0.105191D-01  0.178274D-01
      8  0.133767D-02  0.406168D-02  0.929532D-02
      9  0.000000D+00  0.000000D+00  0.000000D+00  0.105596D+00
     10  0.569763D-02  0.228820D-02  0.237605D-02  0.000000D+00  0.684560D-01
     11 -0.131766D-01  0.122300D-02  0.485147D-02  0.000000D+00 -0.203298D-01
     12 -0.550326D-02 -0.388134D-02 -0.902681D-02  0.000000D+00  0.141096D-01
               11            12 
     11  0.107340D+00
     12  0.345001D-01  0.328972D-01
 Leave Link  716 at Thu Oct  5 15:46:59 2023, MaxMem=  1610612736 cpu:               0.3 elap:               0.0
 (Enter /home/sekinelabo/g16/l103.exe)

 GradGradGradGradGradGradGradGradGradGradGradGradGradGradGradGradGradGrad
 Berny optimization.
 Search for a local minimum.
 Step number   1 out of a maximum of    2
 All quantities printed in internal units (Hartrees-Bohrs-Radians)
 Second derivative matrix not updated -- first step.
 The second derivative matrix:
                          X1        Y1        Z1        X2        Y2
           X1           0.08638
           Y1           0.02915   0.06553
           Z1           0.00999   0.01687   0.14397
           X2          -0.03636   0.01130  -0.00458   0.07720
           Y2          -0.01133   0.00112  -0.00324  -0.04178   0.05856
           Z2          -0.00237   0.00259  -0.01098   0.00719   0.00925
           X3          -0.02418  -0.00626   0.01440   0.00406   0.00098
           Y3          -0.00592  -0.01361   0.00769  -0.00052  -0.00053
           Z3           0.00000   0.00000  -0.10560  -0.00000   0.00000
           X4          -0.02584  -0.03418  -0.01981  -0.04490   0.05214
           Y4          -0.01189  -0.05304  -0.02132   0.03100  -0.05915
           Z4          -0.00761  -0.01946  -0.02739  -0.00262  -0.00601
                          Z2        X3        Y3        Z3        X4
           Z2           0.01649
           X3          -0.01052   0.01783
           Y3           0.00134   0.00406   0.00930
           Z3          -0.00000  -0.00000   0.00000   0.10560
           X4           0.00570   0.00229   0.00238   0.00000   0.06846
           Y4          -0.01318   0.00122   0.00485   0.00000  -0.02033
           Z4          -0.00550  -0.00388  -0.00903  -0.00000   0.01411
                          Y4        Z4
           Y4           0.10734
           Z4           0.03450   0.03290
 ITU=  0
     Eigenvalues ---    0.02946   0.04459   0.10637   0.15547   0.20693
     Eigenvalues ---    0.24665
 Quadratic step=4.220D-01 exceeds max=3.000D-01 adjusted using Lamda=-2.786D-02.
 Angle between NR and scaled steps=  10.48 degrees.
 Angle between quadratic step and forces=  26.48 degrees.
 Linear search not attempted -- first point.
 B after Tr=     0.000000    0.000000    0.000000
         Rot=    1.000000   -0.000000    0.000000    0.000000 Ang=   0.00 deg.
 Variable       Old X    -DE/DX   Delta X   Delta X   Delta X     New X
                                 (Linear)    (Quad)   (Total)
    X1       -0.00000   0.01348   0.00000   0.06307   0.06307   0.06307
    Y1        0.00000   0.01356   0.00000   0.05736   0.05736   0.05736
    Z1       -0.00000  -0.01144   0.00000  -0.01134  -0.01134  -0.01134
    X2       -5.58338  -0.01823   0.00000  -0.11708  -0.11708  -5.70046
    Y2        0.00000   0.01340   0.00000   0.03791   0.03791   0.03791
    Z2       -2.15674  -0.00258   0.00000  -0.07678  -0.07678  -2.23352
    X3       -0.00000   0.00201   0.00000   0.07510   0.07510   0.07510
    Y3       -0.00000   0.00009   0.00000   0.02356   0.02356   0.02356
    Z3        4.60975   0.02534   0.00000   0.18089   0.18089   4.79064
    X4       -2.40849   0.00273   0.00000  -0.02108  -0.02108  -2.42958
    Y4       -3.53461  -0.02704   0.00000  -0.11883  -0.11883  -3.65344
    Z4       -2.53365  -0.01132   0.00000  -0.09277  -0.09277  -2.62641
         Item               Value     Threshold  Converged?
 Maximum Force            0.027043     0.000450     NO 
 RMS     Force            0.014514     0.000300     NO 
 Maximum Displacement     0.180888     0.001800     NO 
 RMS     Displacement     0.086854     0.001200     NO 
 Predicted change in Energy=-8.031386D-03
 GradGradGradGradGradGradGradGradGradGradGradGradGradGradGradGradGradGrad

 Leave Link  103 at Thu Oct  5 15:46:59 2023, MaxMem=  1610612736 cpu:               0.2 elap:               0.0
 (Enter /home/sekinelabo/g16/l9999.exe)
 1\1\GINC-SEKINELABO-XA7R-R37\Force\RB3LYP\6-311+G(d)\Na4\SEKINELABO\05
 -Oct-2023\0\\#p B3LYP/6-311+g(d) force\\\0,1\Na,0.,0.,0.\Na,-2.9545980
 43,0.,-1.1412973904\Na,0.,0.,2.4393759548\Na,-1.2745193285,-1.87043314
 54,-1.3407483223\\Version=ES64L-G16RevB.01\State=1-A\HF=-649.1645957\R
 MSD=3.140e-09\RMSF=1.451e-02\Dipole=-0.3884901,-0.1391609,-0.2939885\Q
 uadrupole=-0.3465831,3.0075467,-2.6609636,-3.6799352,-4.645571,-0.6336
 977\PG=C01 [X(Na4)]\\@


 THE CAUTIOUS SELDOM ERR...CONFUCIUS                   
 Job cpu time:       0 days  0 hours  0 minutes 37.7 seconds.
 Elapsed time:       0 days  0 hours  0 minutes  2.6 seconds.
 File lengths (MBytes):  RWF=     10 Int=      0 D2E=      0 Chk=      2 Scr=      1
 Normal termination of Gaussian 16 at Thu Oct  5 15:46:59 2023.
