 Entering Gaussian System, Link 0=g16
 Initial command:
 /home/sekinelabo/g16/l1.exe "/home/sekinelabo/g16temp/Gau-708780.inp" -scrdir="/home/sekinelabo/g16temp/"
 Entering Link 1 = /home/sekinelabo/g16/l1.exe PID=    708790.
  
 Copyright (c) 1988-2017, Gaussian, Inc.  All Rights Reserved.
  
 This is part of the Gaussian(R) 16 program.  It is based on
 the Gaussian(R) 09 system (copyright 2009, Gaussian, Inc.),
 the Gaussian(R) 03 system (copyright 2003, Gaussian, Inc.),
 the Gaussian(R) 98 system (copyright 1998, Gaussian, Inc.),
 the Gaussian(R) 94 system (copyright 1995, Gaussian, Inc.),
 the Gaussian 92(TM) system (copyright 1992, Gaussian, Inc.),
 the Gaussian 90(TM) system (copyright 1990, Gaussian, Inc.),
 the Gaussian 88(TM) system (copyright 1988, Gaussian, Inc.),
 the Gaussian 86(TM) system (copyright 1986, Carnegie Mellon
 University), and the Gaussian 82(TM) system (copyright 1983,
 Carnegie Mellon University). Gaussian is a federally registered
 trademark of Gaussian, Inc.
  
 This software contains proprietary and confidential information,
 including trade secrets, belonging to Gaussian, Inc.
  
 This software is provided under written license and may be
 used, copied, transmitted, or stored only in accord with that
 written license.
  
 The following legend is applicable only to US Government
 contracts under FAR:
  
                    RESTRICTED RIGHTS LEGEND
  
 Use, reproduction and disclosure by the US Government is
 subject to restrictions as set forth in subparagraphs (a)
 and (c) of the Commercial Computer Software - Restricted
 Rights clause in FAR 52.227-19.
  
 Gaussian, Inc.
 340 Quinnipiac St., Bldg. 40, Wallingford CT 06492
  
  
 ---------------------------------------------------------------
 Warning -- This program may not be used in any manner that
 competes with the business of Gaussian, Inc. or will provide
 assistance to any competitor of Gaussian, Inc.  The licensee
 of this program is prohibited from giving any competitor of
 Gaussian, Inc. access to this program.  By using this program,
 the user acknowledges that Gaussian, Inc. is engaged in the
 business of creating and licensing software in the field of
 computational chemistry and represents and warrants to the
 licensee that it is not a competitor of Gaussian, Inc. and that
 it will not use this program in any manner prohibited above.
 ---------------------------------------------------------------
  

 Cite this work as:
 Gaussian 16, Revision B.01,
 M. J. Frisch, G. W. Trucks, H. B. Schlegel, G. E. Scuseria, 
 M. A. Robb, J. R. Cheeseman, G. Scalmani, V. Barone, 
 G. A. Petersson, H. Nakatsuji, X. Li, M. Caricato, A. V. Marenich, 
 J. Bloino, B. G. Janesko, R. Gomperts, B. Mennucci, H. P. Hratchian, 
 J. V. Ortiz, A. F. Izmaylov, J. L. Sonnenberg, D. Williams-Young, 
 F. Ding, F. Lipparini, F. Egidi, J. Goings, B. Peng, A. Petrone, 
 T. Henderson, D. Ranasinghe, V. G. Zakrzewski, J. Gao, N. Rega, 
 G. Zheng, W. Liang, M. Hada, M. Ehara, K. Toyota, R. Fukuda, 
 J. Hasegawa, M. Ishida, T. Nakajima, Y. Honda, O. Kitao, H. Nakai, 
 T. Vreven, K. Throssell, J. A. Montgomery, Jr., J. E. Peralta, 
 F. Ogliaro, M. J. Bearpark, J. J. Heyd, E. N. Brothers, K. N. Kudin, 
 V. N. Staroverov, T. A. Keith, R. Kobayashi, J. Normand, 
 K. Raghavachari, A. P. Rendell, J. C. Burant, S. S. Iyengar, 
 J. Tomasi, M. Cossi, J. M. Millam, M. Klene, C. Adamo, R. Cammi, 
 J. W. Ochterski, R. L. Martin, K. Morokuma, O. Farkas, 
 J. B. Foresman, and D. J. Fox, Gaussian, Inc., Wallingford CT, 2016.
 
 ******************************************
 Gaussian 16:  ES64L-G16RevB.01 20-Dec-2017
                 6-Oct-2023 
 ******************************************
 %NProcShared=16
 Will use up to   16 processors via shared memory.
 %mem=12GB
 %Chk=checkpoint.chk
 -------------------------
 #p B3LYP/6-311+g(d) force
 -------------------------
 1/10=7,30=1,38=1/1,3;
 2/12=2,17=6,18=5,40=1/2;
 3/5=4,6=6,7=11,11=2,25=1,30=1,71=1,74=-5/1,2,3;
 4//1;
 5/5=2,38=5/2;
 6/7=2,8=2,9=2,10=2,28=1/1;
 7/29=1/1,2,3,16;
 1/10=7,30=1/3;
 99//99;
 Leave Link    1 at Fri Oct  6 21:59:34 2023, MaxMem=  1610612736 cpu:               0.6 elap:               0.2
 (Enter /home/sekinelabo/g16/l101.exe)


 Symbolic Z-matrix:
 Charge =  0 Multiplicity = 1
 Na                    0.        0.        0. 
 Na                   -4.63037   0.       -1.91174 
 Na                    0.        0.        5.77583 
 Na                   -3.09844  -1.24138   2.89402 
 
 ITRead=  0  0  0  0
 MicOpt= -1 -1 -1 -1
 NAtoms=      4 NQM=        4 NQMF=       0 NMMI=      0 NMMIF=      0
                NMic=       0 NMicF=      0.
                    Isotopes and Nuclear Properties:
 (Nuclear quadrupole moments (NQMom) in fm**2, nuclear magnetic moments (NMagM)
  in nuclear magnetons)

  Atom         1           2           3           4
 IAtWgt=          23          23          23          23
 AtmWgt=  22.9897697  22.9897697  22.9897697  22.9897697
 NucSpn=           3           3           3           3
 AtZEff=  -0.0000000  -0.0000000  -0.0000000  -0.0000000
 NQMom=   10.4000000  10.4000000  10.4000000  10.4000000
 NMagM=    2.2175200   2.2175200   2.2175200   2.2175200
 AtZNuc=  11.0000000  11.0000000  11.0000000  11.0000000
 Leave Link  101 at Fri Oct  6 21:59:35 2023, MaxMem=  1610612736 cpu:               2.1 elap:               1.0
 (Enter /home/sekinelabo/g16/l103.exe)

 GradGradGradGradGradGradGradGradGradGradGradGradGradGradGradGradGradGrad
 Berny optimization.
 Initialization pass.
 Trust Radius=3.00D-01 FncErr=1.00D-07 GrdErr=1.00D-07 EigMax=2.50D+02 EigMin=1.00D-04
 Number of steps in this run=      2 maximum allowed number of steps=      2.
 GradGradGradGradGradGradGradGradGradGradGradGradGradGradGradGradGradGrad

 Leave Link  103 at Fri Oct  6 21:59:35 2023, MaxMem=  1610612736 cpu:               0.4 elap:               0.3
 (Enter /home/sekinelabo/g16/l202.exe)
                          Input orientation:                          
 ---------------------------------------------------------------------
 Center     Atomic      Atomic             Coordinates (Angstroms)
 Number     Number       Type             X           Y           Z
 ---------------------------------------------------------------------
      1         11           0        0.000000    0.000000    0.000000
      2         11           0       -4.630375    0.000000   -1.911736
      3         11           0        0.000000    0.000000    5.775826
      4         11           0       -3.098438   -1.241375    2.894019
 ---------------------------------------------------------------------
                    Distance matrix (angstroms):
                    1          2          3          4
     1  Na   0.000000
     2  Na   5.009502   0.000000
     3  Na   5.775826   8.974352   0.000000
     4  Na   4.417768   5.194528   4.409779   0.000000
 Stoichiometry    Na4
 Framework group  C1[X(Na4)]
 Deg. of freedom     6
 Full point group                 C1      NOp   1
 Largest Abelian subgroup         C1      NOp   1
 Largest concise Abelian subgroup C1      NOp   1
                         Standard orientation:                         
 ---------------------------------------------------------------------
 Center     Atomic      Atomic             Coordinates (Angstroms)
 Number     Number       Type             X           Y           Z
 ---------------------------------------------------------------------
      1         11           0        0.605588    2.499475    0.264786
      2         11           0        4.446459   -0.648778   -0.391964
      3         11           0       -4.510635   -0.092997   -0.416040
      4         11           0       -0.541412   -1.757700    0.543218
 ---------------------------------------------------------------------
 Rotational constants (GHZ):           2.1019313           0.5301065           0.4349311
 Leave Link  202 at Fri Oct  6 21:59:36 2023, MaxMem=  1610612736 cpu:               1.1 elap:               0.7
 (Enter /home/sekinelabo/g16/l301.exe)
 Standard basis: 6-311+G(d) (5D, 7F)
 Ernie: Thresh=  0.10000D-02 Tol=  0.10000D-05 Strict=F.
 There are   124 symmetry adapted cartesian basis functions of A   symmetry.
 There are   120 symmetry adapted basis functions of A   symmetry.
   120 basis functions,   200 primitive gaussians,   124 cartesian basis functions
    22 alpha electrons       22 beta electrons
       nuclear repulsion energy        72.3430256766 Hartrees.
 IExCor=  402 DFT=T Ex+Corr=B3LYP ExCW=0 ScaHFX=  0.200000
 ScaDFX=  0.800000  0.720000  1.000000  0.810000 ScalE2=  1.000000  1.000000
 IRadAn=      5 IRanWt=     -1 IRanGd=            0 ICorTp=0 IEmpDi=  4
 NAtoms=    4 NActive=    4 NUniq=    4 SFac= 1.00D+00 NAtFMM=   60 NAOKFM=F Big=F
 Integral buffers will be    131072 words long.
 Raffenetti 2 integral format.
 Two-electron integral symmetry is turned on.
 Leave Link  301 at Fri Oct  6 21:59:36 2023, MaxMem=  1610612736 cpu:               0.8 elap:               0.4
 (Enter /home/sekinelabo/g16/l302.exe)
 NPDir=0 NMtPBC=     1 NCelOv=     1 NCel=       1 NClECP=     1 NCelD=      1
         NCelK=      1 NCelE2=     1 NClLst=     1 CellRange=     0.0.
 One-electron integrals computed using PRISM.
 One-electron integral symmetry used in STVInt
 NBasis=   120 RedAO= T EigKep=  4.59D-04  NBF=   120
 NBsUse=   120 1.00D-06 EigRej= -1.00D+00 NBFU=   120
 Precomputing XC quadrature grid using
 IXCGrd= 4 IRadAn=           5 IRanWt=          -1 IRanGd=           0 AccXCQ= 0.00D+00.
 Generated NRdTot=       0 NPtTot=           0 NUsed=           0 NTot=          32
 NSgBfM=   117   117   117   117   117 MxSgAt=     4 MxSgA2=     4.
 Leave Link  302 at Fri Oct  6 21:59:48 2023, MaxMem=  1610612736 cpu:              19.0 elap:              11.9
 (Enter /home/sekinelabo/g16/l303.exe)
 DipDrv:  MaxL=1.
 Leave Link  303 at Fri Oct  6 21:59:50 2023, MaxMem=  1610612736 cpu:               2.7 elap:               1.7
 (Enter /home/sekinelabo/g16/l401.exe)
 ExpMin= 7.60D-03 ExpMax= 3.62D+04 ExpMxC= 1.21D+03 IAcc=3 IRadAn=         5 AccDes= 0.00D+00
 Harris functional with IExCor=  402 and IRadAn=       5 diagonalized for initial guess.
 HarFok:  IExCor=  402 AccDes= 0.00D+00 IRadAn=         5 IDoV= 1 UseB2=F ITyADJ=14
 ICtDFT=  3500011 ScaDFX=  1.000000  1.000000  1.000000  1.000000
 FoFCou: FMM=F IPFlag=           0 FMFlag=      100000 FMFlg1=           0
         NFxFlg=           0 DoJE=T BraDBF=F KetDBF=T FulRan=T
         wScrn=  0.000000 ICntrl=       500 IOpCl=  0 I1Cent=   200000004 NGrid=           0
         NMat0=    1 NMatS0=      1 NMatT0=    0 NMatD0=    1 NMtDS0=    0 NMtDT0=    0
 Petite list used in FoFCou.
 Harris En= -649.041943637433    
 JPrj=0 DoOrth=F DoCkMO=F.
 Leave Link  401 at Fri Oct  6 21:59:59 2023, MaxMem=  1610612736 cpu:              14.2 elap:               8.9
 (Enter /home/sekinelabo/g16/l502.exe)
 Keep R1 ints in memory in canonical form, NReq=41581754.
 FoFCou: FMM=F IPFlag=           0 FMFlag=           0 FMFlg1=           0
         NFxFlg=           0 DoJE=F BraDBF=F KetDBF=F FulRan=T
         wScrn=  0.000000 ICntrl=       600 IOpCl=  0 I1Cent=           0 NGrid=           0
         NMat0=    1 NMatS0=   7260 NMatT0=    0 NMatD0=    1 NMtDS0=    0 NMtDT0=    0
 Symmetry not used in FoFCou.
 Two-electron integral symmetry not used.
 Closed shell SCF:
 Using DIIS extrapolation, IDIIS=  1040.
 NGot=  1610612736 LenX=  1584221388 LenY=  1584205571
 Requested convergence on RMS density matrix=1.00D-08 within 128 cycles.
 Requested convergence on MAX density matrix=1.00D-06.
 Requested convergence on             energy=1.00D-06.
 No special actions if energy rises.

 Cycle   1  Pass 1  IDiag  1:
 E= -649.152727993991    
 DIIS: error= 1.78D-02 at cycle   1 NSaved=   1.
 NSaved= 1 IEnMin= 1 EnMin= -649.152727993991     IErMin= 1 ErrMin= 1.78D-02
 ErrMax= 1.78D-02  0.00D+00 EMaxC= 1.00D-01 BMatC= 2.73D-02 BMatP= 2.73D-02
 IDIUse=3 WtCom= 8.22D-01 WtEn= 1.78D-01
 Coeff-Com:  0.100D+01
 Coeff-En:   0.100D+01
 Coeff:      0.100D+01
 Gap=     0.018 Goal=   None    Shift=    0.000
 GapD=    0.018 DampG=0.250 DampE=0.500 DampFc=0.2500 IDamp=-1.
 Damping current iteration by 2.50D-01
 RMSDP=3.13D-03 MaxDP=1.63D-01              OVMax= 1.91D-01

 Cycle   2  Pass 1  IDiag  1:
 E= -649.157411166480     Delta-E=       -0.004683172490 Rises=F Damp=T
 DIIS: error= 1.24D-02 at cycle   2 NSaved=   2.
 NSaved= 2 IEnMin= 2 EnMin= -649.157411166480     IErMin= 2 ErrMin= 1.24D-02
 ErrMax= 1.24D-02  0.00D+00 EMaxC= 1.00D-01 BMatC= 1.04D-02 BMatP= 2.73D-02
 IDIUse=3 WtCom= 8.76D-01 WtEn= 1.24D-01
 Coeff-Com: -0.126D+01 0.226D+01
 Coeff-En:   0.000D+00 0.100D+01
 Coeff:     -0.110D+01 0.210D+01
 Gap=     0.031 Goal=   None    Shift=    0.000
 RMSDP=1.84D-03 MaxDP=9.71D-02 DE=-4.68D-03 OVMax= 2.21D-01

 Cycle   3  Pass 1  IDiag  1:
 E= -649.162446374499     Delta-E=       -0.005035208019 Rises=F Damp=F
 DIIS: error= 3.44D-03 at cycle   3 NSaved=   3.
 NSaved= 3 IEnMin= 3 EnMin= -649.162446374499     IErMin= 3 ErrMin= 3.44D-03
 ErrMax= 3.44D-03  0.00D+00 EMaxC= 1.00D-01 BMatC= 6.18D-04 BMatP= 1.04D-02
 IDIUse=3 WtCom= 9.66D-01 WtEn= 3.44D-02
 Coeff-Com: -0.212D+00 0.409D+00 0.804D+00
 Coeff-En:   0.000D+00 0.000D+00 0.100D+01
 Coeff:     -0.205D+00 0.394D+00 0.810D+00
 Gap=     0.021 Goal=   None    Shift=    0.000
 RMSDP=3.95D-03 MaxDP=2.05D-01 DE=-5.04D-03 OVMax= 4.21D-01

 Cycle   4  Pass 1  IDiag  1:
 E= -649.131308464673     Delta-E=        0.031137909826 Rises=F Damp=F
 DIIS: error= 9.08D-03 at cycle   4 NSaved=   4.
 NSaved= 4 IEnMin= 3 EnMin= -649.162446374499     IErMin= 3 ErrMin= 3.44D-03
 ErrMax= 9.08D-03  0.00D+00 EMaxC= 1.00D-01 BMatC= 3.97D-03 BMatP= 6.18D-04
 IDIUse=3 WtCom= 9.50D-02 WtEn= 9.05D-01
 Coeff-Com:  0.229D-01-0.804D-02 0.722D+00 0.263D+00
 Coeff-En:   0.000D+00 0.000D+00 0.799D+00 0.201D+00
 Coeff:      0.218D-02-0.764D-03 0.792D+00 0.206D+00
 Gap=     0.023 Goal=   None    Shift=    0.000
 RMSDP=2.24D-03 MaxDP=1.32D-01 DE= 3.11D-02 OVMax= 2.42D-01

 Cycle   5  Pass 1  IDiag  1:
 E= -649.164393601312     Delta-E=       -0.033085136639 Rises=F Damp=F
 DIIS: error= 2.59D-03 at cycle   5 NSaved=   5.
 NSaved= 5 IEnMin= 5 EnMin= -649.164393601312     IErMin= 5 ErrMin= 2.59D-03
 ErrMax= 2.59D-03  0.00D+00 EMaxC= 1.00D-01 BMatC= 3.64D-04 BMatP= 6.18D-04
 IDIUse=3 WtCom= 9.74D-01 WtEn= 2.59D-02
 Coeff-Com:  0.738D-02-0.117D-01 0.397D+00-0.450D-01 0.652D+00
 Coeff-En:   0.000D+00 0.000D+00 0.414D+00 0.000D+00 0.586D+00
 Coeff:      0.718D-02-0.114D-01 0.398D+00-0.438D-01 0.650D+00
 Gap=     0.027 Goal=   None    Shift=    0.000
 RMSDP=7.61D-04 MaxDP=4.09D-02 DE=-3.31D-02 OVMax= 7.67D-02

 Cycle   6  Pass 1  IDiag  1:
 E= -649.167099640256     Delta-E=       -0.002706038944 Rises=F Damp=F
 DIIS: error= 4.02D-04 at cycle   6 NSaved=   6.
 NSaved= 6 IEnMin= 6 EnMin= -649.167099640256     IErMin= 6 ErrMin= 4.02D-04
 ErrMax= 4.02D-04  0.00D+00 EMaxC= 1.00D-01 BMatC= 1.60D-05 BMatP= 3.64D-04
 IDIUse=3 WtCom= 9.96D-01 WtEn= 4.02D-03
 Coeff-Com: -0.431D-02 0.464D-02 0.179D+00-0.669D-01 0.382D+00 0.506D+00
 Coeff-En:   0.000D+00 0.000D+00 0.000D+00 0.000D+00 0.000D+00 0.100D+01
 Coeff:     -0.430D-02 0.463D-02 0.178D+00-0.667D-01 0.381D+00 0.508D+00
 Gap=     0.028 Goal=   None    Shift=    0.000
 RMSDP=1.87D-04 MaxDP=9.34D-03 DE=-2.71D-03 OVMax= 1.60D-02

 Cycle   7  Pass 1  IDiag  1:
 E= -649.167212759801     Delta-E=       -0.000113119546 Rises=F Damp=F
 DIIS: error= 1.57D-04 at cycle   7 NSaved=   7.
 NSaved= 7 IEnMin= 7 EnMin= -649.167212759801     IErMin= 7 ErrMin= 1.57D-04
 ErrMax= 1.57D-04  0.00D+00 EMaxC= 1.00D-01 BMatC= 1.36D-06 BMatP= 1.60D-05
 IDIUse=3 WtCom= 9.98D-01 WtEn= 1.57D-03
 Coeff-Com:  0.120D-02-0.172D-02 0.298D-01-0.163D-01 0.301D-01 0.764D-01
 Coeff-Com:  0.881D+00
 Coeff-En:   0.000D+00 0.000D+00 0.000D+00 0.000D+00 0.000D+00 0.000D+00
 Coeff-En:   0.100D+01
 Coeff:      0.120D-02-0.172D-02 0.297D-01-0.163D-01 0.301D-01 0.763D-01
 Coeff:      0.881D+00
 Gap=     0.028 Goal=   None    Shift=    0.000
 RMSDP=5.26D-05 MaxDP=2.40D-03 DE=-1.13D-04 OVMax= 5.97D-03

 Cycle   8  Pass 1  IDiag  1:
 E= -649.167223958111     Delta-E=       -0.000011198310 Rises=F Damp=F
 DIIS: error= 2.45D-05 at cycle   8 NSaved=   8.
 NSaved= 8 IEnMin= 8 EnMin= -649.167223958111     IErMin= 8 ErrMin= 2.45D-05
 ErrMax= 2.45D-05  0.00D+00 EMaxC= 1.00D-01 BMatC= 6.18D-08 BMatP= 1.36D-06
 IDIUse=1 WtCom= 1.00D+00 WtEn= 0.00D+00
 Coeff-Com:  0.170D-02-0.224D-02-0.427D-02 0.132D-02-0.309D-01-0.529D-02
 Coeff-Com:  0.284D+00 0.756D+00
 Coeff:      0.170D-02-0.224D-02-0.427D-02 0.132D-02-0.309D-01-0.529D-02
 Coeff:      0.284D+00 0.756D+00
 Gap=     0.028 Goal=   None    Shift=    0.000
 RMSDP=1.40D-05 MaxDP=5.75D-04 DE=-1.12D-05 OVMax= 1.23D-03

 Cycle   9  Pass 1  IDiag  1:
 E= -649.167224327003     Delta-E=       -0.000000368891 Rises=F Damp=F
 DIIS: error= 1.04D-05 at cycle   9 NSaved=   9.
 NSaved= 9 IEnMin= 9 EnMin= -649.167224327003     IErMin= 9 ErrMin= 1.04D-05
 ErrMax= 1.04D-05  0.00D+00 EMaxC= 1.00D-01 BMatC= 6.78D-09 BMatP= 6.18D-08
 IDIUse=1 WtCom= 1.00D+00 WtEn= 0.00D+00
 Coeff-Com: -0.705D-04 0.114D-03-0.514D-02 0.123D-02-0.759D-02 0.295D-02
 Coeff-Com: -0.340D-02 0.544D-01 0.957D+00
 Coeff:     -0.705D-04 0.114D-03-0.514D-02 0.123D-02-0.759D-02 0.295D-02
 Coeff:     -0.340D-02 0.544D-01 0.957D+00
 Gap=     0.028 Goal=   None    Shift=    0.000
 RMSDP=4.81D-06 MaxDP=1.37D-04 DE=-3.69D-07 OVMax= 5.03D-04

 Cycle  10  Pass 1  IDiag  1:
 E= -649.167224376066     Delta-E=       -0.000000049063 Rises=F Damp=F
 DIIS: error= 6.93D-06 at cycle  10 NSaved=  10.
 NSaved=10 IEnMin=10 EnMin= -649.167224376066     IErMin=10 ErrMin= 6.93D-06
 ErrMax= 6.93D-06  0.00D+00 EMaxC= 1.00D-01 BMatC= 3.10D-09 BMatP= 6.78D-09
 IDIUse=1 WtCom= 1.00D+00 WtEn= 0.00D+00
 Coeff-Com: -0.175D-03 0.240D-03-0.138D-02 0.320D-03-0.372D-04 0.755D-02
 Coeff-Com: -0.861D-02-0.649D-01 0.163D+00 0.904D+00
 Coeff:     -0.175D-03 0.240D-03-0.138D-02 0.320D-03-0.372D-04 0.755D-02
 Coeff:     -0.861D-02-0.649D-01 0.163D+00 0.904D+00
 Gap=     0.028 Goal=   None    Shift=    0.000
 RMSDP=2.37D-06 MaxDP=1.23D-04 DE=-4.91D-08 OVMax= 1.86D-04

 Cycle  11  Pass 1  IDiag  1:
 E= -649.167224400689     Delta-E=       -0.000000024623 Rises=F Damp=F
 DIIS: error= 2.75D-06 at cycle  11 NSaved=  11.
 NSaved=11 IEnMin=11 EnMin= -649.167224400689     IErMin=11 ErrMin= 2.75D-06
 ErrMax= 2.75D-06  0.00D+00 EMaxC= 1.00D-01 BMatC= 3.03D-10 BMatP= 3.10D-09
 IDIUse=1 WtCom= 1.00D+00 WtEn= 0.00D+00
 Coeff-Com: -0.122D-03 0.170D-03-0.971D-04-0.605D-04 0.121D-02 0.484D-02
 Coeff-Com: -0.777D-02-0.450D-01-0.135D+00 0.467D+00 0.714D+00
 Coeff:     -0.122D-03 0.170D-03-0.971D-04-0.605D-04 0.121D-02 0.484D-02
 Coeff:     -0.777D-02-0.450D-01-0.135D+00 0.467D+00 0.714D+00
 Gap=     0.028 Goal=   None    Shift=    0.000
 RMSDP=1.16D-06 MaxDP=4.69D-05 DE=-2.46D-08 OVMax= 9.90D-05

 Cycle  12  Pass 1  IDiag  1:
 E= -649.167224403700     Delta-E=       -0.000000003011 Rises=F Damp=F
 DIIS: error= 3.18D-07 at cycle  12 NSaved=  12.
 NSaved=12 IEnMin=12 EnMin= -649.167224403700     IErMin=12 ErrMin= 3.18D-07
 ErrMax= 3.18D-07  0.00D+00 EMaxC= 1.00D-01 BMatC= 4.99D-12 BMatP= 3.03D-10
 IDIUse=1 WtCom= 1.00D+00 WtEn= 0.00D+00
 Coeff-Com:  0.933D-05-0.115D-04 0.166D-03-0.370D-04 0.182D-03-0.123D-03
 Coeff-Com:  0.498D-03 0.136D-02-0.312D-01-0.429D-01 0.116D+00 0.956D+00
 Coeff:      0.933D-05-0.115D-04 0.166D-03-0.370D-04 0.182D-03-0.123D-03
 Coeff:      0.498D-03 0.136D-02-0.312D-01-0.429D-01 0.116D+00 0.956D+00
 Gap=     0.028 Goal=   None    Shift=    0.000
 RMSDP=2.77D-07 MaxDP=7.86D-06 DE=-3.01D-09 OVMax= 2.58D-05

 Cycle  13  Pass 1  IDiag  1:
 E= -649.167224403773     Delta-E=       -0.000000000073 Rises=F Damp=F
 DIIS: error= 1.48D-07 at cycle  13 NSaved=  13.
 NSaved=13 IEnMin=13 EnMin= -649.167224403773     IErMin=13 ErrMin= 1.48D-07
 ErrMax= 1.48D-07  0.00D+00 EMaxC= 1.00D-01 BMatC= 1.09D-12 BMatP= 4.99D-12
 IDIUse=1 WtCom= 1.00D+00 WtEn= 0.00D+00
 Coeff-Com:  0.754D-05-0.100D-04 0.434D-04-0.308D-05-0.236D-04-0.272D-03
 Coeff-Com:  0.707D-05 0.181D-02 0.438D-02-0.248D-01-0.379D-01 0.684D-01
 Coeff-Com:  0.988D+00
 Coeff:      0.754D-05-0.100D-04 0.434D-04-0.308D-05-0.236D-04-0.272D-03
 Coeff:      0.707D-05 0.181D-02 0.438D-02-0.248D-01-0.379D-01 0.684D-01
 Coeff:      0.988D+00
 Gap=     0.028 Goal=   None    Shift=    0.000
 RMSDP=6.67D-08 MaxDP=2.64D-06 DE=-7.29D-11 OVMax= 7.01D-06

 Cycle  14  Pass 1  IDiag  1:
 E= -649.167224403787     Delta-E=       -0.000000000014 Rises=F Damp=F
 DIIS: error= 2.48D-08 at cycle  14 NSaved=  14.
 NSaved=14 IEnMin=14 EnMin= -649.167224403787     IErMin=14 ErrMin= 2.48D-08
 ErrMax= 2.48D-08  0.00D+00 EMaxC= 1.00D-01 BMatC= 3.30D-14 BMatP= 1.09D-12
 IDIUse=1 WtCom= 1.00D+00 WtEn= 0.00D+00
 Coeff-Com:  0.128D-05-0.172D-05 0.287D-05 0.117D-05-0.162D-04-0.519D-04
 Coeff-Com:  0.396D-04 0.313D-03 0.207D-02-0.106D-02-0.131D-01-0.174D-01
 Coeff-Com:  0.188D+00 0.841D+00
 Coeff:      0.128D-05-0.172D-05 0.287D-05 0.117D-05-0.162D-04-0.519D-04
 Coeff:      0.396D-04 0.313D-03 0.207D-02-0.106D-02-0.131D-01-0.174D-01
 Coeff:      0.188D+00 0.841D+00
 Gap=     0.028 Goal=   None    Shift=    0.000
 RMSDP=1.22D-08 MaxDP=6.56D-07 DE=-1.40D-11 OVMax= 1.17D-06

 Cycle  15  Pass 1  IDiag  1:
 E= -649.167224403780     Delta-E=        0.000000000007 Rises=F Damp=F
 DIIS: error= 1.28D-08 at cycle  15 NSaved=  15.
 NSaved=15 IEnMin=14 EnMin= -649.167224403787     IErMin=15 ErrMin= 1.28D-08
 ErrMax= 1.28D-08  0.00D+00 EMaxC= 1.00D-01 BMatC= 8.34D-15 BMatP= 3.30D-14
 IDIUse=1 WtCom= 1.00D+00 WtEn= 0.00D+00
 Coeff-Com: -0.188D-06 0.240D-06-0.464D-06 0.832D-07-0.187D-06 0.828D-05
 Coeff-Com:  0.118D-04-0.857D-04 0.159D-03 0.887D-03-0.101D-02-0.898D-02
 Coeff-Com:  0.991D-02 0.294D+00 0.705D+00
 Coeff:     -0.188D-06 0.240D-06-0.464D-06 0.832D-07-0.187D-06 0.828D-05
 Coeff:      0.118D-04-0.857D-04 0.159D-03 0.887D-03-0.101D-02-0.898D-02
 Coeff:      0.991D-02 0.294D+00 0.705D+00
 Gap=     0.028 Goal=   None    Shift=    0.000
 RMSDP=4.00D-09 MaxDP=2.48D-07 DE= 6.71D-12 OVMax= 3.47D-07

 SCF Done:  E(RB3LYP) =  -649.167224404     A.U. after   15 cycles
            NFock= 15  Conv=0.40D-08     -V/T= 2.0031
 KE= 6.471732343717D+02 PE=-1.703393899088D+03 EE= 3.347104146362D+02
 Leave Link  502 at Fri Oct  6 22:01:40 2023, MaxMem=  1610612736 cpu:             161.7 elap:             101.2
 (Enter /home/sekinelabo/g16/l601.exe)
 Copying SCF densities to generalized density rwf, IOpCl= 0 IROHF=0.

 **********************************************************************

            Population analysis using the SCF Density.

 **********************************************************************

 Orbital symmetries:
       Occupied  (A) (A) (A) (A) (A) (A) (A) (A) (A) (A) (A) (A)
                 (A) (A) (A) (A) (A) (A) (A) (A) (A) (A)
       Virtual   (A) (A) (A) (A) (A) (A) (A) (A) (A) (A) (A) (A)
                 (A) (A) (A) (A) (A) (A) (A) (A) (A) (A) (A) (A)
                 (A) (A) (A) (A) (A) (A) (A) (A) (A) (A) (A) (A)
                 (A) (A) (A) (A) (A) (A) (A) (A) (A) (A) (A) (A)
                 (A) (A) (A) (A) (A) (A) (A) (A) (A) (A) (A) (A)
                 (A) (A) (A) (A) (A) (A) (A) (A) (A) (A) (A) (A)
                 (A) (A) (A) (A) (A) (A) (A) (A) (A) (A) (A) (A)
                 (A) (A) (A) (A) (A) (A) (A) (A) (A) (A) (A) (A)
                 (A) (A)
 The electronic state is 1-A.
 Alpha  occ. eigenvalues --  -38.47347 -38.46225 -38.45315 -38.44501  -2.23005
 Alpha  occ. eigenvalues --   -2.21899  -2.21000  -2.20196  -1.16695  -1.16656
 Alpha  occ. eigenvalues --   -1.16643  -1.15597  -1.15561  -1.15517  -1.14680
 Alpha  occ. eigenvalues --   -1.14679  -1.14636  -1.13877  -1.13876  -1.13823
 Alpha  occ. eigenvalues --   -0.13390  -0.10738
 Alpha virt. eigenvalues --   -0.07970  -0.06826  -0.02817  -0.02440  -0.02340
 Alpha virt. eigenvalues --   -0.01973  -0.01190  -0.00709  -0.00291  -0.00091
 Alpha virt. eigenvalues --    0.00274   0.00377   0.00549   0.00732   0.01178
 Alpha virt. eigenvalues --    0.01289   0.01555   0.01630   0.01759   0.01993
 Alpha virt. eigenvalues --    0.02127   0.02244   0.02267   0.02571   0.02613
 Alpha virt. eigenvalues --    0.02806   0.02968   0.02995   0.03212   0.03984
 Alpha virt. eigenvalues --    0.06412   0.07252   0.07536   0.07945   0.08003
 Alpha virt. eigenvalues --    0.08341   0.08488   0.08534   0.08962   0.09078
 Alpha virt. eigenvalues --    0.09592   0.09869   0.10652   0.11804   0.11924
 Alpha virt. eigenvalues --    0.12559   0.30921   0.31743   0.32111   0.32880
 Alpha virt. eigenvalues --    0.33244   0.33445   0.33859   0.35005   0.35058
 Alpha virt. eigenvalues --    0.35223   0.35450   0.35609   0.35704   0.36135
 Alpha virt. eigenvalues --    0.36665   0.36835   0.37568   0.37908   0.38769
 Alpha virt. eigenvalues --    0.40718   0.42272   0.43342   0.43398   0.43751
 Alpha virt. eigenvalues --    0.44386   0.44744   0.45693   0.46686   0.47386
 Alpha virt. eigenvalues --    0.48598   0.49565   0.49883   1.99985   2.02351
 Alpha virt. eigenvalues --    2.02812   2.05589   4.41554   4.41674   4.42647
 Alpha virt. eigenvalues --    4.42936   4.43566   4.43830   4.44301   4.44543
 Alpha virt. eigenvalues --    4.44944   4.45219   4.46375   4.48155  96.19000
 Alpha virt. eigenvalues --   96.21624  96.22203  96.25297
          Condensed to atoms (all electrons):
               1          2          3          4
     1  Na  10.703925   0.161358  -0.043756   0.108093
     2  Na   0.161358  10.976342  -0.056750  -0.039581
     3  Na  -0.043756  -0.056750  10.942640   0.217904
     4  Na   0.108093  -0.039581   0.217904  10.682556
 Mulliken charges:
               1
     1  Na   0.070380
     2  Na  -0.041370
     3  Na  -0.060038
     4  Na   0.031028
 Sum of Mulliken charges =  -0.00000
 Mulliken charges with hydrogens summed into heavy atoms:
               1
     1  Na   0.070380
     2  Na  -0.041370
     3  Na  -0.060038
     4  Na   0.031028
 Electronic spatial extent (au):  <R**2>=           2103.1926
 Charge=             -0.0000 electrons
 Dipole moment (field-independent basis, Debye):
    X=              0.4664    Y=              0.8134    Z=              0.2446  Tot=              0.9690
 Quadrupole moment (field-independent basis, Debye-Ang):
   XX=            -45.0002   YY=            -31.0963   ZZ=            -45.7527
   XY=             -6.6209   XZ=              0.6599   YZ=             -0.4753
 Traceless Quadrupole moment (field-independent basis, Debye-Ang):
   XX=             -4.3838   YY=              9.5201   ZZ=             -5.1363
   XY=             -6.6209   XZ=              0.6599   YZ=             -0.4753
 Octapole moment (field-independent basis, Debye-Ang**2):
  XXX=             -6.3424  YYY=             24.6599  ZZZ=              3.0559  XYY=              5.6433
  XXY=             -4.2812  XXZ=            -14.6998  XZZ=              0.6311  YZZ=              0.8104
  YYZ=              7.3142  XYZ=              1.6826
 Hexadecapole moment (field-independent basis, Debye-Ang**3):
 XXXX=          -2661.4520 YYYY=           -620.8684 ZZZZ=           -254.6269 XXXY=           -131.7695
 XXXZ=             15.9204 YYYX=            -32.4996 YYYZ=             -1.0669 ZZZX=              3.8604
 ZZZY=             -3.3133 XXYY=           -663.7527 XXZZ=           -562.1225 YYZZ=           -159.8804
 XXYZ=              6.6775 YYXZ=              0.9358 ZZXY=            -12.6315
 N-N= 7.234302567664D+01 E-N=-1.703393898655D+03  KE= 6.471732343717D+02
 No NMR shielding tensors so no spin-rotation constants.
 Leave Link  601 at Fri Oct  6 22:01:45 2023, MaxMem=  1610612736 cpu:               8.3 elap:               5.0
 (Enter /home/sekinelabo/g16/l701.exe)
 ... and contract with generalized density number  0.
 Compute integral first derivatives.
 Leave Link  701 at Fri Oct  6 22:01:50 2023, MaxMem=  1610612736 cpu:               6.9 elap:               4.3
 (Enter /home/sekinelabo/g16/l702.exe)
 L702 exits ... SP integral derivatives will be done elsewhere.
 Leave Link  702 at Fri Oct  6 22:01:50 2023, MaxMem=  1610612736 cpu:               0.7 elap:               0.5
 (Enter /home/sekinelabo/g16/l703.exe)
 Integral derivatives from FoFJK, PRISM(SPDF).
 Compute integral first derivatives, UseDBF=F ICtDFT=           0.
 Calling FoFJK, ICntrl=      2127 FMM=F ISym2X=0 I1Cent= 0 IOpClX= 0 NMat=1 NMatS=1 NMatT=0.
 FoFJK:  IHMeth= 1 ICntrl=    2127 DoSepK=F KAlg= 0 I1Cent=           0 FoldK=F
 IRaf=         0 NMat=       1 IRICut=       1 DoRegI=T DoRafI=F ISym2E= 0 IDoP0=0 IntGTp=1.
 FoFCou: FMM=F IPFlag=           0 FMFlag=      100000 FMFlg1=         800
         NFxFlg=           0 DoJE=F BraDBF=F KetDBF=F FulRan=T
         wScrn=  0.000000 ICntrl=      2127 IOpCl=  0 I1Cent=           0 NGrid=           0
         NMat0=    1 NMatS0=      1 NMatT0=    0 NMatD0=    1 NMtDS0=    0 NMtDT0=    0
 Symmetry not used in FoFCou.
 Leave Link  703 at Fri Oct  6 22:01:58 2023, MaxMem=  1610612736 cpu:              12.6 elap:               7.8
 (Enter /home/sekinelabo/g16/l716.exe)
 Dipole        = 1.83484324D-01 3.20023050D-01 9.62459782D-02
 ***** Axes restored to original set *****
 -------------------------------------------------------------------
 Center     Atomic                   Forces (Hartrees/Bohr)
 Number     Number              X              Y              Z
 -------------------------------------------------------------------
      1       11          -0.008394696   -0.001139270    0.001108302
      2       11           0.005430811   -0.000270540    0.002584824
      3       11          -0.004659609   -0.002048697   -0.004746313
      4       11           0.007623494    0.003458507    0.001053186
 -------------------------------------------------------------------
 Cartesian Forces:  Max     0.008394696 RMS     0.004367209
 Z-matrix is all fixed cartesians, so copy forces.
 Force constants in Cartesian coordinates: 
                1             2             3             4             5 
      1  0.100000D+01
      2  0.000000D+00  0.100000D+01
      3  0.000000D+00  0.000000D+00  0.100000D+01
      4  0.000000D+00  0.000000D+00  0.000000D+00  0.100000D+01
      5  0.000000D+00  0.000000D+00  0.000000D+00  0.000000D+00  0.100000D+01
      6  0.000000D+00  0.000000D+00  0.000000D+00  0.000000D+00  0.000000D+00
      7  0.000000D+00  0.000000D+00  0.000000D+00  0.000000D+00  0.000000D+00
      8  0.000000D+00  0.000000D+00  0.000000D+00  0.000000D+00  0.000000D+00
      9  0.000000D+00  0.000000D+00  0.000000D+00  0.000000D+00  0.000000D+00
     10  0.000000D+00  0.000000D+00  0.000000D+00  0.000000D+00  0.000000D+00
     11  0.000000D+00  0.000000D+00  0.000000D+00  0.000000D+00  0.000000D+00
     12  0.000000D+00  0.000000D+00  0.000000D+00  0.000000D+00  0.000000D+00
                6             7             8             9            10 
      6  0.100000D+01
      7  0.000000D+00  0.100000D+01
      8  0.000000D+00  0.000000D+00  0.100000D+01
      9  0.000000D+00  0.000000D+00  0.000000D+00  0.100000D+01
     10  0.000000D+00  0.000000D+00  0.000000D+00  0.000000D+00  0.100000D+01
     11  0.000000D+00  0.000000D+00  0.000000D+00  0.000000D+00  0.000000D+00
     12  0.000000D+00  0.000000D+00  0.000000D+00  0.000000D+00  0.000000D+00
               11            12 
     11  0.100000D+01
     12  0.000000D+00  0.100000D+01
 Leave Link  716 at Fri Oct  6 22:01:58 2023, MaxMem=  1610612736 cpu:               0.8 elap:               0.6
 (Enter /home/sekinelabo/g16/l103.exe)

 GradGradGradGradGradGradGradGradGradGradGradGradGradGradGradGradGradGrad
 Berny optimization.
 Search for a local minimum.
 Step number   1 out of a maximum of    2
 All quantities printed in internal units (Hartrees-Bohrs-Radians)
 Second derivative matrix not updated -- first step.
 The second derivative matrix:
                          X1        Y1        Z1        X2        Y2
           X1           1.00000
           Y1          -0.00000   1.00000
           Z1           0.00000   0.00000   1.00000
           X2           0.00000   0.00000   0.00000   1.00000
           Y2           0.00000   0.00000   0.00000  -0.00000   1.00000
           Z2           0.00000   0.00000   0.00000   0.00000   0.00000
           X3           0.00000   0.00000   0.00000   0.00000   0.00000
           Y3           0.00000   0.00000   0.00000   0.00000   0.00000
           Z3           0.00000   0.00000   0.00000   0.00000   0.00000
           X4           0.00000   0.00000   0.00000   0.00000   0.00000
           Y4           0.00000   0.00000   0.00000   0.00000   0.00000
           Z4           0.00000   0.00000   0.00000   0.00000   0.00000
                          Z2        X3        Y3        Z3        X4
           Z2           1.00000
           X3           0.00000   1.00000
           Y3           0.00000  -0.00000   1.00000
           Z3           0.00000   0.00000   0.00000   1.00000
           X4           0.00000   0.00000   0.00000   0.00000   1.00000
           Y4           0.00000   0.00000   0.00000   0.00000  -0.00000
           Z4           0.00000   0.00000   0.00000   0.00000   0.00000
                          Y4        Z4
           Y4           1.00000
           Z4           0.00000   1.00000
 ITU=  0
     Eigenvalues ---    1.00000   1.00000   1.00000   1.00000   1.00000
     Eigenvalues ---    1.00000   1.00000   1.00000   1.00000   1.00000
     Eigenvalues ---    1.00000   1.00000
 Angle between quadratic step and forces=   0.00 degrees.
 Linear search not attempted -- first point.
 B after Tr=    -0.000000    0.000000   -0.000000
         Rot=    1.000000   -0.000000   -0.000000    0.000000 Ang=   0.00 deg.
 Variable       Old X    -DE/DX   Delta X   Delta X   Delta X     New X
                                 (Linear)    (Quad)   (Total)
    X1       -0.00000  -0.00839   0.00000  -0.00839  -0.00839  -0.00839
    Y1       -0.00000  -0.00114   0.00000  -0.00114  -0.00114  -0.00114
    Z1       -0.00000   0.00111   0.00000   0.00111   0.00111   0.00111
    X2       -8.75014   0.00543   0.00000   0.00543   0.00543  -8.74471
    Y2        0.00000  -0.00027   0.00000  -0.00027  -0.00027  -0.00027
    Z2       -3.61266   0.00258   0.00000   0.00258   0.00258  -3.61007
    X3       -0.00000  -0.00466   0.00000  -0.00466  -0.00466  -0.00466
    Y3       -0.00000  -0.00205   0.00000  -0.00205  -0.00205  -0.00205
    Z3       10.91473  -0.00475   0.00000  -0.00475  -0.00475  10.90998
    X4       -5.85520   0.00762   0.00000   0.00762   0.00762  -5.84758
    Y4       -2.34586   0.00346   0.00000   0.00346   0.00346  -2.34240
    Z4        5.46890   0.00105   0.00000   0.00105   0.00105   5.46996
         Item               Value     Threshold  Converged?
 Maximum Force            0.008395     0.000450     NO 
 RMS     Force            0.004367     0.000300     NO 
 Maximum Displacement     0.008395     0.001800     NO 
 RMS     Displacement     0.004367     0.001200     NO 
 Predicted change in Energy=-1.144351D-04
 GradGradGradGradGradGradGradGradGradGradGradGradGradGradGradGradGradGrad

 Leave Link  103 at Fri Oct  6 22:01:59 2023, MaxMem=  1610612736 cpu:               0.7 elap:               0.5
 (Enter /home/sekinelabo/g16/l9999.exe)
 1\1\GINC-SEKINELABO-XA7R-R37\Force\RB3LYP\6-311+G(d)\Na4\SEKINELABO\06
 -Oct-2023\0\\#p B3LYP/6-311+g(d) force\\\0,1\Na,0.,0.,0.\Na,-4.6303749
 249,0.,-1.9117364822\Na,0.,0.,5.7758263958\Na,-3.0984380843,-1.2413753
 005,2.8940186489\\Version=ES64L-G16RevB.01\State=1-A\HF=-649.1672244\R
 MSD=3.999e-09\RMSF=4.367e-03\Dipole=0.2101326,-0.0192778,-0.3175172\Qu
 adrupole=8.2064417,-3.1728111,-5.0336306,3.0481492,-1.2436736,0.187024
 9\PG=C01 [X(Na4)]\\@


 I DO NOT KNOW WHAT I MAY APPEAR TO THE WORLD; BUT TO MYSELF
 I SEEM TO HAVE BEEN ONLY LIKE A BOY PLAYING ON THE SEASHORE,
 AND DIVERTING MYSELF IN NOW AND THEN FINDING A SMOOTHER PEBBLE
 OR A PRETTIER SHELL THAN ORDINARY, WHILST THE GREAT OCEAN OF
 TRUTH LAY ALL UNDISCOVERED BEFORE ME.
                                          -- NEWTON (1642-1726)
 Job cpu time:       0 days  0 hours  3 minutes 53.4 seconds.
 Elapsed time:       0 days  0 hours  2 minutes 25.4 seconds.
 File lengths (MBytes):  RWF=     10 Int=      0 D2E=      0 Chk=      2 Scr=      1
 Normal termination of Gaussian 16 at Fri Oct  6 22:02:00 2023.
 Initial command:
 /home/sekinelabo/g16/l1.exe "/home/sekinelabo/g16temp/Gau-708780.inp" -scrdir="/home/sekinelabo/g16temp/"
 Entering Link 1 = /home/sekinelabo/g16/l1.exe PID=    711319.
  
 Copyright (c) 1988-2017, Gaussian, Inc.  All Rights Reserved.
  
 This is part of the Gaussian(R) 16 program.  It is based on
 the Gaussian(R) 09 system (copyright 2009, Gaussian, Inc.),
 the Gaussian(R) 03 system (copyright 2003, Gaussian, Inc.),
 the Gaussian(R) 98 system (copyright 1998, Gaussian, Inc.),
 the Gaussian(R) 94 system (copyright 1995, Gaussian, Inc.),
 the Gaussian 92(TM) system (copyright 1992, Gaussian, Inc.),
 the Gaussian 90(TM) system (copyright 1990, Gaussian, Inc.),
 the Gaussian 88(TM) system (copyright 1988, Gaussian, Inc.),
 the Gaussian 86(TM) system (copyright 1986, Carnegie Mellon
 University), and the Gaussian 82(TM) system (copyright 1983,
 Carnegie Mellon University). Gaussian is a federally registered
 trademark of Gaussian, Inc.
  
 This software contains proprietary and confidential information,
 including trade secrets, belonging to Gaussian, Inc.
  
 This software is provided under written license and may be
 used, copied, transmitted, or stored only in accord with that
 written license.
  
 The following legend is applicable only to US Government
 contracts under FAR:
  
                    RESTRICTED RIGHTS LEGEND
  
 Use, reproduction and disclosure by the US Government is
 subject to restrictions as set forth in subparagraphs (a)
 and (c) of the Commercial Computer Software - Restricted
 Rights clause in FAR 52.227-19.
  
 Gaussian, Inc.
 340 Quinnipiac St., Bldg. 40, Wallingford CT 06492
  
  
 ---------------------------------------------------------------
 Warning -- This program may not be used in any manner that
 competes with the business of Gaussian, Inc. or will provide
 assistance to any competitor of Gaussian, Inc.  The licensee
 of this program is prohibited from giving any competitor of
 Gaussian, Inc. access to this program.  By using this program,
 the user acknowledges that Gaussian, Inc. is engaged in the
 business of creating and licensing software in the field of
 computational chemistry and represents and warrants to the
 licensee that it is not a competitor of Gaussian, Inc. and that
 it will not use this program in any manner prohibited above.
 ---------------------------------------------------------------
  

 Cite this work as:
 Gaussian 16, Revision B.01,
 M. J. Frisch, G. W. Trucks, H. B. Schlegel, G. E. Scuseria, 
 M. A. Robb, J. R. Cheeseman, G. Scalmani, V. Barone, 
 G. A. Petersson, H. Nakatsuji, X. Li, M. Caricato, A. V. Marenich, 
 J. Bloino, B. G. Janesko, R. Gomperts, B. Mennucci, H. P. Hratchian, 
 J. V. Ortiz, A. F. Izmaylov, J. L. Sonnenberg, D. Williams-Young, 
 F. Ding, F. Lipparini, F. Egidi, J. Goings, B. Peng, A. Petrone, 
 T. Henderson, D. Ranasinghe, V. G. Zakrzewski, J. Gao, N. Rega, 
 G. Zheng, W. Liang, M. Hada, M. Ehara, K. Toyota, R. Fukuda, 
 J. Hasegawa, M. Ishida, T. Nakajima, Y. Honda, O. Kitao, H. Nakai, 
 T. Vreven, K. Throssell, J. A. Montgomery, Jr., J. E. Peralta, 
 F. Ogliaro, M. J. Bearpark, J. J. Heyd, E. N. Brothers, K. N. Kudin, 
 V. N. Staroverov, T. A. Keith, R. Kobayashi, J. Normand, 
 K. Raghavachari, A. P. Rendell, J. C. Burant, S. S. Iyengar, 
 J. Tomasi, M. Cossi, J. M. Millam, M. Klene, C. Adamo, R. Cammi, 
 J. W. Ochterski, R. L. Martin, K. Morokuma, O. Farkas, 
 J. B. Foresman, and D. J. Fox, Gaussian, Inc., Wallingford CT, 2016.
 
 ******************************************
 Gaussian 16:  ES64L-G16RevB.01 20-Dec-2017
                 6-Oct-2023 
 ******************************************
 %NProcShared=16
 Will use up to   16 processors via shared memory.
 %mem=12GB
 %Chk=checkpoint.chk
 -------------------------
 #p B3LYP/6-311+g(d) force
 -------------------------
 1/10=7,30=1,38=1/1,3;
 2/12=2,17=6,18=5,40=1/2;
 3/5=4,6=6,7=11,11=2,25=1,30=1,71=1,74=-5/1,2,3;
 4//1;
 5/5=2,38=5/2;
 6/7=2,8=2,9=2,10=2,28=1/1;
 7/29=1/1,2,3,16;
 1/10=7,30=1/3;
 99//99;
 Leave Link    1 at Fri Oct  6 22:02:00 2023, MaxMem=  1610612736 cpu:               0.5 elap:               0.4
 (Enter /home/sekinelabo/g16/l101.exe)


 Symbolic Z-matrix:
 Charge =  0 Multiplicity = 1
 Na                    0.        0.        0. 
 Na                   -5.00251   0.        0.09702 
 Na                    0.        0.        3.25657 
 Na                   -0.29104  -1.671     5.20974 
 
 ITRead=  0  0  0  0
 MicOpt= -1 -1 -1 -1
 NAtoms=      4 NQM=        4 NQMF=       0 NMMI=      0 NMMIF=      0
                NMic=       0 NMicF=      0.
                    Isotopes and Nuclear Properties:
 (Nuclear quadrupole moments (NQMom) in fm**2, nuclear magnetic moments (NMagM)
  in nuclear magnetons)

  Atom         1           2           3           4
 IAtWgt=          23          23          23          23
 AtmWgt=  22.9897697  22.9897697  22.9897697  22.9897697
 NucSpn=           3           3           3           3
 AtZEff=  -0.0000000  -0.0000000  -0.0000000  -0.0000000
 NQMom=   10.4000000  10.4000000  10.4000000  10.4000000
 NMagM=    2.2175200   2.2175200   2.2175200   2.2175200
 AtZNuc=  11.0000000  11.0000000  11.0000000  11.0000000
 Leave Link  101 at Fri Oct  6 22:02:01 2023, MaxMem=  1610612736 cpu:               2.1 elap:               1.4
 (Enter /home/sekinelabo/g16/l103.exe)

 GradGradGradGradGradGradGradGradGradGradGradGradGradGradGradGradGradGrad
 Berny optimization.
 Initialization pass.
 Trust Radius=3.00D-01 FncErr=1.00D-07 GrdErr=1.00D-07 EigMax=2.50D+02 EigMin=1.00D-04
 Number of steps in this run=      2 maximum allowed number of steps=      2.
 GradGradGradGradGradGradGradGradGradGradGradGradGradGradGradGradGradGrad

 Leave Link  103 at Fri Oct  6 22:02:02 2023, MaxMem=  1610612736 cpu:               0.5 elap:               0.4
 (Enter /home/sekinelabo/g16/l202.exe)
                          Input orientation:                          
 ---------------------------------------------------------------------
 Center     Atomic      Atomic             Coordinates (Angstroms)
 Number     Number       Type             X           Y           Z
 ---------------------------------------------------------------------
      1         11           0        0.000000    0.000000    0.000000
      2         11           0       -5.002515    0.000000    0.097016
      3         11           0        0.000000    0.000000    3.256567
      4         11           0       -0.291043   -1.671005    5.209739
 ---------------------------------------------------------------------
                    Distance matrix (angstroms):
                    1          2          3          4
     1  Na   0.000000
     2  Na   5.003455   0.000000
     3  Na   3.256567   5.916749   0.000000
     4  Na   5.478900   7.150536   2.586859   0.000000
 Stoichiometry    Na4
 Framework group  C1[X(Na4)]
 Deg. of freedom     6
 Full point group                 C1      NOp   1
 Largest Abelian subgroup         C1      NOp   1
 Largest concise Abelian subgroup C1      NOp   1
                         Standard orientation:                         
 ---------------------------------------------------------------------
 Center     Atomic      Atomic             Coordinates (Angstroms)
 Number     Number       Type             X           Y           Z
 ---------------------------------------------------------------------
      1         11           0       -0.778934    2.410196   -0.305368
      2         11           0       -3.985007   -1.416519    0.029165
      3         11           0        1.609374    0.409550    0.642596
      4         11           0        3.154567   -1.403227   -0.366394
 ---------------------------------------------------------------------
 Rotational constants (GHZ):           2.0750958           0.7409176           0.5639395
 Leave Link  202 at Fri Oct  6 22:02:03 2023, MaxMem=  1610612736 cpu:               1.1 elap:               0.7
 (Enter /home/sekinelabo/g16/l301.exe)
 Standard basis: 6-311+G(d) (5D, 7F)
 Ernie: Thresh=  0.10000D-02 Tol=  0.10000D-05 Strict=F.
 There are   124 symmetry adapted cartesian basis functions of A   symmetry.
 There are   120 symmetry adapted basis functions of A   symmetry.
   120 basis functions,   200 primitive gaussians,   124 cartesian basis functions
    22 alpha electrons       22 beta electrons
       nuclear repulsion energy        88.6746451014 Hartrees.
 IExCor=  402 DFT=T Ex+Corr=B3LYP ExCW=0 ScaHFX=  0.200000
 ScaDFX=  0.800000  0.720000  1.000000  0.810000 ScalE2=  1.000000  1.000000
 IRadAn=      5 IRanWt=     -1 IRanGd=            0 ICorTp=0 IEmpDi=  4
 NAtoms=    4 NActive=    4 NUniq=    4 SFac= 1.00D+00 NAtFMM=   60 NAOKFM=F Big=F
 Integral buffers will be    131072 words long.
 Raffenetti 2 integral format.
 Two-electron integral symmetry is turned on.
 Leave Link  301 at Fri Oct  6 22:02:03 2023, MaxMem=  1610612736 cpu:               0.8 elap:               0.5
 (Enter /home/sekinelabo/g16/l302.exe)
 NPDir=0 NMtPBC=     1 NCelOv=     1 NCel=       1 NClECP=     1 NCelD=      1
         NCelK=      1 NCelE2=     1 NClLst=     1 CellRange=     0.0.
 One-electron integrals computed using PRISM.
 One-electron integral symmetry used in STVInt
 NBasis=   120 RedAO= T EigKep=  1.68D-05  NBF=   120
 NBsUse=   120 1.00D-06 EigRej= -1.00D+00 NBFU=   120
 Precomputing XC quadrature grid using
 IXCGrd= 4 IRadAn=           5 IRanWt=          -1 IRanGd=           0 AccXCQ= 0.00D+00.
 Generated NRdTot=       0 NPtTot=           0 NUsed=           0 NTot=          32
 NSgBfM=   115   115   115   115   115 MxSgAt=     4 MxSgA2=     4.
 Leave Link  302 at Fri Oct  6 22:02:16 2023, MaxMem=  1610612736 cpu:              20.6 elap:              12.7
 (Enter /home/sekinelabo/g16/l303.exe)
 DipDrv:  MaxL=1.
 Leave Link  303 at Fri Oct  6 22:02:18 2023, MaxMem=  1610612736 cpu:               2.7 elap:               1.8
 (Enter /home/sekinelabo/g16/l401.exe)
 ExpMin= 7.60D-03 ExpMax= 3.62D+04 ExpMxC= 1.21D+03 IAcc=3 IRadAn=         5 AccDes= 0.00D+00
 Harris functional with IExCor=  402 and IRadAn=       5 diagonalized for initial guess.
 HarFok:  IExCor=  402 AccDes= 0.00D+00 IRadAn=         5 IDoV= 1 UseB2=F ITyADJ=14
 ICtDFT=  3500011 ScaDFX=  1.000000  1.000000  1.000000  1.000000
 FoFCou: FMM=F IPFlag=           0 FMFlag=      100000 FMFlg1=           0
         NFxFlg=           0 DoJE=T BraDBF=F KetDBF=T FulRan=T
         wScrn=  0.000000 ICntrl=       500 IOpCl=  0 I1Cent=   200000004 NGrid=           0
         NMat0=    1 NMatS0=      1 NMatT0=    0 NMatD0=    1 NMtDS0=    0 NMtDT0=    0
 Petite list used in FoFCou.
 Harris En= -649.048561404310    
 JPrj=0 DoOrth=F DoCkMO=F.
 Leave Link  401 at Fri Oct  6 22:02:27 2023, MaxMem=  1610612736 cpu:              15.6 elap:               9.8
 (Enter /home/sekinelabo/g16/l502.exe)
 Keep R1 ints in memory in canonical form, NReq=41581762.
 FoFCou: FMM=F IPFlag=           0 FMFlag=           0 FMFlg1=           0
         NFxFlg=           0 DoJE=F BraDBF=F KetDBF=F FulRan=T
         wScrn=  0.000000 ICntrl=       600 IOpCl=  0 I1Cent=           0 NGrid=           0
         NMat0=    1 NMatS0=   7260 NMatT0=    0 NMatD0=    1 NMtDS0=    0 NMtDT0=    0
 Symmetry not used in FoFCou.
 Two-electron integral symmetry not used.
 Closed shell SCF:
 Using DIIS extrapolation, IDIIS=  1040.
 NGot=  1610612736 LenX=  1584221380 LenY=  1584205563
 Requested convergence on RMS density matrix=1.00D-08 within 128 cycles.
 Requested convergence on MAX density matrix=1.00D-06.
 Requested convergence on             energy=1.00D-06.
 No special actions if energy rises.

 Cycle   1  Pass 1  IDiag  1:
 E= -649.150827287189    
 DIIS: error= 1.10D-02 at cycle   1 NSaved=   1.
 NSaved= 1 IEnMin= 1 EnMin= -649.150827287189     IErMin= 1 ErrMin= 1.10D-02
 ErrMax= 1.10D-02  0.00D+00 EMaxC= 1.00D-01 BMatC= 2.73D-02 BMatP= 2.73D-02
 IDIUse=3 WtCom= 8.90D-01 WtEn= 1.10D-01
 Coeff-Com:  0.100D+01
 Coeff-En:   0.100D+01
 Coeff:      0.100D+01
 Gap=     0.012 Goal=   None    Shift=    0.000
 GapD=    0.012 DampG=0.250 DampE=0.500 DampFc=0.2500 IDamp=-1.
 Damping current iteration by 2.50D-01
 RMSDP=1.27D-02 MaxDP=4.84D-01              OVMax= 5.10D-01

 Cycle   2  Pass 1  IDiag  1:
 E= -649.159014460190     Delta-E=       -0.008187173001 Rises=F Damp=T
 DIIS: error= 7.90D-03 at cycle   2 NSaved=   2.
 NSaved= 2 IEnMin= 2 EnMin= -649.159014460190     IErMin= 2 ErrMin= 7.90D-03
 ErrMax= 7.90D-03  0.00D+00 EMaxC= 1.00D-01 BMatC= 1.02D-02 BMatP= 2.73D-02
 IDIUse=3 WtCom= 9.21D-01 WtEn= 7.90D-02
 Coeff-Com: -0.106D+01 0.206D+01
 Coeff-En:   0.242D-01 0.976D+00
 Coeff:     -0.972D+00 0.197D+01
 Gap=     0.042 Goal=   None    Shift=    0.000
 RMSDP=6.52D-03 MaxDP=2.59D-01 DE=-8.19D-03 OVMax= 8.48D-01

 Cycle   3  Pass 1  IDiag  1:
 E= -649.106814031057     Delta-E=        0.052200429132 Rises=F Damp=F
 DIIS: error= 9.77D-03 at cycle   3 NSaved=   3.
 NSaved= 3 IEnMin= 2 EnMin= -649.159014460190     IErMin= 2 ErrMin= 7.90D-03
 ErrMax= 9.77D-03  0.00D+00 EMaxC= 1.00D-01 BMatC= 6.28D-03 BMatP= 1.02D-02
 IDIUse=3 WtCom= 9.02D-01 WtEn= 9.77D-02
 Rare condition: small coef for last iteration:  0.000D+00
 Coeff-Com: -0.696D+00 0.126D+01 0.432D+00
 Coeff-En:   0.000D+00 0.000D+00 0.100D+01
 Coeff:     -0.696D+00 0.126D+01 0.432D+00
 Gap=     0.008 Goal=   None    Shift=    0.000
 RMSDP=1.01D-02 MaxDP=4.03D-01 DE= 5.22D-02 OVMax= 6.91D-01

 Cycle   4  Pass 1  IDiag  1:
 E= -649.145123293436     Delta-E=       -0.038309262379 Rises=F Damp=F
 DIIS: error= 6.15D-03 at cycle   4 NSaved=   4.
 NSaved= 4 IEnMin= 2 EnMin= -649.159014460190     IErMin= 4 ErrMin= 6.15D-03
 ErrMax= 6.15D-03  0.00D+00 EMaxC= 1.00D-01 BMatC= 3.44D-03 BMatP= 6.28D-03
 IDIUse=3 WtCom= 9.39D-01 WtEn= 6.15D-02
 EnCoef did    25 forward-backward iterations
 Coeff-Com: -0.628D-01 0.149D+00 0.398D+00 0.515D+00
 Coeff-En:   0.278D+00 0.000D+00 0.184D+00 0.538D+00
 Coeff:     -0.419D-01 0.140D+00 0.385D+00 0.517D+00
 Gap=     0.022 Goal=   None    Shift=    0.000
 RMSDP=3.50D-03 MaxDP=1.96D-01 DE=-3.83D-02 OVMax= 2.79D-01

 Cycle   5  Pass 1  IDiag  1:
 E= -649.173581794342     Delta-E=       -0.028458500905 Rises=F Damp=F
 DIIS: error= 1.10D-03 at cycle   5 NSaved=   5.
 NSaved= 5 IEnMin= 5 EnMin= -649.173581794342     IErMin= 5 ErrMin= 1.10D-03
 ErrMax= 1.10D-03  0.00D+00 EMaxC= 1.00D-01 BMatC= 9.87D-05 BMatP= 3.44D-03
 IDIUse=3 WtCom= 9.89D-01 WtEn= 1.10D-02
 Coeff-Com:  0.465D-01-0.612D-01 0.103D+00 0.934D-01 0.818D+00
 Coeff-En:   0.000D+00 0.000D+00 0.000D+00 0.000D+00 0.100D+01
 Coeff:      0.459D-01-0.605D-01 0.102D+00 0.924D-01 0.820D+00
 Gap=     0.029 Goal=   None    Shift=    0.000
 RMSDP=1.24D-03 MaxDP=5.82D-02 DE=-2.85D-02 OVMax= 5.70D-02

 Cycle   6  Pass 1  IDiag  1:
 E= -649.172601687351     Delta-E=        0.000980106991 Rises=F Damp=F
 DIIS: error= 1.62D-03 at cycle   6 NSaved=   6.
 NSaved= 6 IEnMin= 5 EnMin= -649.173581794342     IErMin= 5 ErrMin= 1.10D-03
 ErrMax= 1.62D-03  0.00D+00 EMaxC= 1.00D-01 BMatC= 2.00D-04 BMatP= 9.87D-05
 IDIUse=3 WtCom= 9.89D-01 WtEn= 1.10D-02
 Coeff-Com:  0.403D-01-0.526D-01 0.292D-01-0.105D+00 0.498D+00 0.591D+00
 Coeff-En:   0.000D+00 0.000D+00 0.000D+00 0.000D+00 0.887D+00 0.113D+00
 Coeff:      0.398D-01-0.521D-01 0.289D-01-0.104D+00 0.502D+00 0.585D+00
 Gap=     0.030 Goal=   None    Shift=    0.000
 RMSDP=6.48D-04 MaxDP=2.44D-02 DE= 9.80D-04 OVMax= 2.78D-02

 Cycle   7  Pass 1  IDiag  1:
 E= -649.173712849982     Delta-E=       -0.001111162630 Rises=F Damp=F
 DIIS: error= 7.21D-04 at cycle   7 NSaved=   7.
 NSaved= 7 IEnMin= 7 EnMin= -649.173712849982     IErMin= 7 ErrMin= 7.21D-04
 ErrMax= 7.21D-04  0.00D+00 EMaxC= 1.00D-01 BMatC= 4.13D-05 BMatP= 9.87D-05
 IDIUse=3 WtCom= 9.93D-01 WtEn= 7.21D-03
 Coeff-Com:  0.331D-01-0.443D-01 0.201D-01-0.920D-01 0.233D+00 0.241D+00
 Coeff-Com:  0.609D+00
 Coeff-En:   0.000D+00 0.000D+00 0.000D+00 0.000D+00 0.281D+00 0.000D+00
 Coeff-En:   0.719D+00
 Coeff:      0.328D-01-0.440D-01 0.199D-01-0.913D-01 0.233D+00 0.239D+00
 Coeff:      0.610D+00
 Gap=     0.030 Goal=   None    Shift=    0.000
 RMSDP=2.71D-04 MaxDP=1.07D-02 DE=-1.11D-03 OVMax= 1.72D-02

 Cycle   8  Pass 1  IDiag  1:
 E= -649.173973833037     Delta-E=       -0.000260983055 Rises=F Damp=F
 DIIS: error= 3.56D-04 at cycle   8 NSaved=   8.
 NSaved= 8 IEnMin= 8 EnMin= -649.173973833037     IErMin= 8 ErrMin= 3.56D-04
 ErrMax= 3.56D-04  0.00D+00 EMaxC= 1.00D-01 BMatC= 1.09D-05 BMatP= 4.13D-05
 IDIUse=3 WtCom= 9.96D-01 WtEn= 3.56D-03
 Coeff-Com:  0.105D-01-0.140D-01 0.812D-02-0.159D-01 0.414D-02-0.110D+00
 Coeff-Com: -0.161D+00 0.128D+01
 Coeff-En:   0.000D+00 0.000D+00 0.000D+00 0.000D+00 0.000D+00 0.000D+00
 Coeff-En:   0.000D+00 0.100D+01
 Coeff:      0.104D-01-0.140D-01 0.809D-02-0.158D-01 0.413D-02-0.110D+00
 Coeff:     -0.160D+00 0.128D+01
 Gap=     0.030 Goal=   None    Shift=    0.000
 RMSDP=1.60D-04 MaxDP=6.74D-03 DE=-2.61D-04 OVMax= 1.02D-02

 Cycle   9  Pass 1  IDiag  1:
 E= -649.174048899248     Delta-E=       -0.000075066211 Rises=F Damp=F
 DIIS: error= 1.17D-04 at cycle   9 NSaved=   9.
 NSaved= 9 IEnMin= 9 EnMin= -649.174048899248     IErMin= 9 ErrMin= 1.17D-04
 ErrMax= 1.17D-04  0.00D+00 EMaxC= 1.00D-01 BMatC= 1.23D-06 BMatP= 1.09D-05
 IDIUse=3 WtCom= 9.99D-01 WtEn= 1.17D-03
 Coeff-Com:  0.218D-02-0.284D-02 0.250D-02-0.110D-02-0.118D-01-0.694D-01
 Coeff-Com: -0.171D+00 0.433D+00 0.819D+00
 Coeff-En:   0.000D+00 0.000D+00 0.000D+00 0.000D+00 0.000D+00 0.000D+00
 Coeff-En:   0.000D+00 0.000D+00 0.100D+01
 Coeff:      0.218D-02-0.283D-02 0.249D-02-0.110D-02-0.118D-01-0.694D-01
 Coeff:     -0.171D+00 0.433D+00 0.819D+00
 Gap=     0.030 Goal=   None    Shift=    0.000
 RMSDP=5.73D-05 MaxDP=2.67D-03 DE=-7.51D-05 OVMax= 4.35D-03

 Cycle  10  Pass 1  IDiag  1:
 E= -649.174058571116     Delta-E=       -0.000009671868 Rises=F Damp=F
 DIIS: error= 2.53D-05 at cycle  10 NSaved=  10.
 NSaved=10 IEnMin=10 EnMin= -649.174058571116     IErMin=10 ErrMin= 2.53D-05
 ErrMax= 2.53D-05  0.00D+00 EMaxC= 1.00D-01 BMatC= 4.98D-08 BMatP= 1.23D-06
 IDIUse=1 WtCom= 1.00D+00 WtEn= 0.00D+00
 Coeff-Com: -0.170D-03 0.201D-03 0.330D-03 0.121D-02-0.310D-02-0.101D-01
 Coeff-Com: -0.489D-01-0.313D-02 0.205D+00 0.859D+00
 Coeff:     -0.170D-03 0.201D-03 0.330D-03 0.121D-02-0.310D-02-0.101D-01
 Coeff:     -0.489D-01-0.313D-02 0.205D+00 0.859D+00
 Gap=     0.030 Goal=   None    Shift=    0.000
 RMSDP=1.65D-05 MaxDP=7.21D-04 DE=-9.67D-06 OVMax= 1.29D-03

 Cycle  11  Pass 1  IDiag  1:
 E= -649.174058971337     Delta-E=       -0.000000400221 Rises=F Damp=F
 DIIS: error= 3.31D-06 at cycle  11 NSaved=  11.
 NSaved=11 IEnMin=11 EnMin= -649.174058971337     IErMin=11 ErrMin= 3.31D-06
 ErrMax= 3.31D-06  0.00D+00 EMaxC= 1.00D-01 BMatC= 9.93D-10 BMatP= 4.98D-08
 IDIUse=1 WtCom= 1.00D+00 WtEn= 0.00D+00
 Coeff-Com:  0.553D-04-0.827D-04 0.571D-04-0.996D-04 0.163D-02 0.379D-02
 Coeff-Com:  0.578D-02-0.183D-01-0.149D-01 0.107D+00 0.915D+00
 Coeff:      0.553D-04-0.827D-04 0.571D-04-0.996D-04 0.163D-02 0.379D-02
 Coeff:      0.578D-02-0.183D-01-0.149D-01 0.107D+00 0.915D+00
 Gap=     0.030 Goal=   None    Shift=    0.000
 RMSDP=3.12D-06 MaxDP=1.47D-04 DE=-4.00D-07 OVMax= 2.06D-04

 Cycle  12  Pass 1  IDiag  1:
 E= -649.174058978136     Delta-E=       -0.000000006799 Rises=F Damp=F
 DIIS: error= 1.28D-06 at cycle  12 NSaved=  12.
 NSaved=12 IEnMin=12 EnMin= -649.174058978136     IErMin=12 ErrMin= 1.28D-06
 ErrMax= 1.28D-06  0.00D+00 EMaxC= 1.00D-01 BMatC= 1.43D-10 BMatP= 9.93D-10
 IDIUse=1 WtCom= 1.00D+00 WtEn= 0.00D+00
 Coeff-Com:  0.175D-04-0.233D-04-0.380D-05-0.183D-04 0.307D-03 0.730D-03
 Coeff-Com:  0.190D-02-0.311D-02-0.952D-02-0.269D-01 0.166D+00 0.871D+00
 Coeff:      0.175D-04-0.233D-04-0.380D-05-0.183D-04 0.307D-03 0.730D-03
 Coeff:      0.190D-02-0.311D-02-0.952D-02-0.269D-01 0.166D+00 0.871D+00
 Gap=     0.030 Goal=   None    Shift=    0.000
 RMSDP=1.17D-06 MaxDP=4.12D-05 DE=-6.80D-09 OVMax= 5.80D-05

 Cycle  13  Pass 1  IDiag  1:
 E= -649.174058979360     Delta-E=       -0.000000001223 Rises=F Damp=F
 DIIS: error= 8.23D-08 at cycle  13 NSaved=  13.
 NSaved=13 IEnMin=13 EnMin= -649.174058979360     IErMin=13 ErrMin= 8.23D-08
 ErrMax= 8.23D-08  0.00D+00 EMaxC= 1.00D-01 BMatC= 1.72D-12 BMatP= 1.43D-10
 IDIUse=1 WtCom= 1.00D+00 WtEn= 0.00D+00
 Coeff-Com:  0.784D-05-0.104D-04-0.769D-07 0.208D-05 0.253D-04 0.299D-04
 Coeff-Com: -0.158D-03 0.178D-03-0.106D-02-0.107D-01-0.254D-02 0.285D+00
 Coeff-Com:  0.730D+00
 Coeff:      0.784D-05-0.104D-04-0.769D-07 0.208D-05 0.253D-04 0.299D-04
 Coeff:     -0.158D-03 0.178D-03-0.106D-02-0.107D-01-0.254D-02 0.285D+00
 Coeff:      0.730D+00
 Gap=     0.030 Goal=   None    Shift=    0.000
 RMSDP=2.28D-07 MaxDP=8.83D-06 DE=-1.22D-09 OVMax= 3.72D-06

 Cycle  14  Pass 1  IDiag  1:
 E= -649.174058979370     Delta-E=       -0.000000000011 Rises=F Damp=F
 DIIS: error= 2.05D-08 at cycle  14 NSaved=  14.
 NSaved=14 IEnMin=14 EnMin= -649.174058979370     IErMin=14 ErrMin= 2.05D-08
 ErrMax= 2.05D-08  0.00D+00 EMaxC= 1.00D-01 BMatC= 4.44D-14 BMatP= 1.72D-12
 IDIUse=1 WtCom= 1.00D+00 WtEn= 0.00D+00
 Coeff-Com: -0.456D-06 0.599D-06-0.249D-06 0.265D-05-0.460D-05-0.262D-04
 Coeff-Com: -0.146D-03 0.585D-04 0.422D-03 0.709D-03-0.117D-01-0.121D-01
 Coeff-Com:  0.982D-01 0.925D+00
 Coeff:     -0.456D-06 0.599D-06-0.249D-06 0.265D-05-0.460D-05-0.262D-04
 Coeff:     -0.146D-03 0.585D-04 0.422D-03 0.709D-03-0.117D-01-0.121D-01
 Coeff:      0.982D-01 0.925D+00
 Gap=     0.030 Goal=   None    Shift=    0.000
 RMSDP=5.88D-08 MaxDP=2.50D-06 DE=-1.07D-11 OVMax= 1.33D-06

 Cycle  15  Pass 1  IDiag  1:
 E= -649.174058979374     Delta-E=       -0.000000000003 Rises=F Damp=F
 DIIS: error= 1.59D-08 at cycle  15 NSaved=  15.
 NSaved=15 IEnMin=15 EnMin= -649.174058979374     IErMin=15 ErrMin= 1.59D-08
 ErrMax= 1.59D-08  0.00D+00 EMaxC= 1.00D-01 BMatC= 2.16D-14 BMatP= 4.44D-14
 IDIUse=1 WtCom= 1.00D+00 WtEn= 0.00D+00
 Coeff-Com: -0.307D-06 0.394D-06 0.145D-06 0.277D-07 0.153D-05-0.241D-05
 Coeff-Com: -0.241D-04 0.922D-05 0.171D-03 0.653D-03-0.253D-02-0.139D-01
 Coeff-Com:  0.112D-03 0.227D+00 0.788D+00
 Coeff:     -0.307D-06 0.394D-06 0.145D-06 0.277D-07 0.153D-05-0.241D-05
 Coeff:     -0.241D-04 0.922D-05 0.171D-03 0.653D-03-0.253D-02-0.139D-01
 Coeff:      0.112D-03 0.227D+00 0.788D+00
 Gap=     0.030 Goal=   None    Shift=    0.000
 RMSDP=1.46D-08 MaxDP=6.52D-07 DE=-3.41D-12 OVMax= 8.27D-07

 Cycle  16  Pass 1  IDiag  1:
 E= -649.174058979372     Delta-E=        0.000000000002 Rises=F Damp=F
 DIIS: error= 2.37D-09 at cycle  16 NSaved=  16.
 NSaved=16 IEnMin=15 EnMin= -649.174058979374     IErMin=16 ErrMin= 2.37D-09
 ErrMax= 2.37D-09  0.00D+00 EMaxC= 1.00D-01 BMatC= 5.52D-16 BMatP= 2.16D-14
 IDIUse=1 WtCom= 1.00D+00 WtEn= 0.00D+00
 Large coefficients: NSaved= 16 BigCof=    0.00 CofMax=   10.00 Det=-1.13D-15
 Inversion failed.  Reducing to 15 matrices.
 Coeff-Com: -0.657D-07 0.856D-07 0.136D-07-0.467D-06-0.938D-06 0.248D-05
 Coeff-Com: -0.136D-05 0.515D-05 0.410D-04 0.123D-03-0.115D-02-0.326D-02
 Coeff-Com: -0.233D-01 0.107D+00 0.920D+00
 Coeff:     -0.657D-07 0.856D-07 0.136D-07-0.467D-06-0.938D-06 0.248D-05
 Coeff:     -0.136D-05 0.515D-05 0.410D-04 0.123D-03-0.115D-02-0.326D-02
 Coeff:     -0.233D-01 0.107D+00 0.920D+00
 Gap=     0.030 Goal=   None    Shift=    0.000
 RMSDP=2.37D-09 MaxDP=8.75D-08 DE= 2.05D-12 OVMax= 1.41D-07

 SCF Done:  E(RB3LYP) =  -649.174058979     A.U. after   16 cycles
            NFock= 16  Conv=0.24D-08     -V/T= 2.0028
 KE= 6.473713566502D+02 PE=-1.736446280201D+03 EE= 3.512262194703D+02
 Leave Link  502 at Fri Oct  6 22:04:17 2023, MaxMem=  1610612736 cpu:             175.4 elap:             109.8
 (Enter /home/sekinelabo/g16/l601.exe)
 Copying SCF densities to generalized density rwf, IOpCl= 0 IROHF=0.

 **********************************************************************

            Population analysis using the SCF Density.

 **********************************************************************

 Orbital symmetries:
       Occupied  (A) (A) (A) (A) (A) (A) (A) (A) (A) (A) (A) (A)
                 (A) (A) (A) (A) (A) (A) (A) (A) (A) (A)
       Virtual   (A) (A) (A) (A) (A) (A) (A) (A) (A) (A) (A) (A)
                 (A) (A) (A) (A) (A) (A) (A) (A) (A) (A) (A) (A)
                 (A) (A) (A) (A) (A) (A) (A) (A) (A) (A) (A) (A)
                 (A) (A) (A) (A) (A) (A) (A) (A) (A) (A) (A) (A)
                 (A) (A) (A) (A) (A) (A) (A) (A) (A) (A) (A) (A)
                 (A) (A) (A) (A) (A) (A) (A) (A) (A) (A) (A) (A)
                 (A) (A) (A) (A) (A) (A) (A) (A) (A) (A) (A) (A)
                 (A) (A) (A) (A) (A) (A) (A) (A) (A) (A) (A) (A)
                 (A) (A)
 The electronic state is 1-A.
 Alpha  occ. eigenvalues --  -38.46075 -38.45808 -38.44550 -38.44040  -2.21751
 Alpha  occ. eigenvalues --   -2.21543  -2.20424  -2.19955  -1.15431  -1.15429
 Alpha  occ. eigenvalues --   -1.15387  -1.15231  -1.15210  -1.15171  -1.14477
 Alpha  occ. eigenvalues --   -1.14024  -1.14020  -1.13566  -1.13554  -1.13488
 Alpha  occ. eigenvalues --   -0.14750  -0.11292
 Alpha virt. eigenvalues --   -0.08319  -0.04265  -0.03185  -0.03040  -0.01758
 Alpha virt. eigenvalues --   -0.01523  -0.00858  -0.00634  -0.00105   0.00156
 Alpha virt. eigenvalues --    0.00400   0.00941   0.01094   0.01171   0.01444
 Alpha virt. eigenvalues --    0.01498   0.01726   0.01793   0.01987   0.02107
 Alpha virt. eigenvalues --    0.02187   0.02289   0.02431   0.02696   0.02856
 Alpha virt. eigenvalues --    0.03245   0.03672   0.03804   0.04734   0.05594
 Alpha virt. eigenvalues --    0.06855   0.07242   0.07309   0.07465   0.08009
 Alpha virt. eigenvalues --    0.08166   0.08421   0.08746   0.09465   0.10086
 Alpha virt. eigenvalues --    0.10570   0.11172   0.12134   0.12681   0.14919
 Alpha virt. eigenvalues --    0.17033   0.28073   0.29316   0.30560   0.31099
 Alpha virt. eigenvalues --    0.33020   0.33757   0.33963   0.34506   0.34627
 Alpha virt. eigenvalues --    0.35321   0.35820   0.36144   0.36736   0.37255
 Alpha virt. eigenvalues --    0.37602   0.41956   0.42111   0.42845   0.43100
 Alpha virt. eigenvalues --    0.43369   0.43922   0.44123   0.44560   0.45026
 Alpha virt. eigenvalues --    0.45410   0.46913   0.47718   0.50312   0.54290
 Alpha virt. eigenvalues --    0.56356   0.66494   0.87879   2.01471   2.05107
 Alpha virt. eigenvalues --    2.09024   2.15385   4.41188   4.42483   4.42768
 Alpha virt. eigenvalues --    4.43418   4.43562   4.43977   4.44904   4.45965
 Alpha virt. eigenvalues --    4.47771   4.48395   4.54321   4.80816  96.20651
 Alpha virt. eigenvalues --   96.25127  96.31418  96.37922
          Condensed to atoms (all electrons):
               1          2          3          4
     1  Na  10.745167   0.209387   0.086852  -0.181188
     2  Na   0.209387  10.946804  -0.103691  -0.092138
     3  Na   0.086852  -0.103691  12.102774  -0.263561
     4  Na  -0.181188  -0.092138  -0.263561  10.893933
 Mulliken charges:
               1
     1  Na   0.139781
     2  Na   0.039639
     3  Na  -0.822374
     4  Na   0.642955
 Sum of Mulliken charges =  -0.00000
 Mulliken charges with hydrogens summed into heavy atoms:
               1
     1  Na   0.139781
     2  Na   0.039639
     3  Na  -0.822374
     4  Na   0.642955
 Electronic spatial extent (au):  <R**2>=           1643.5518
 Charge=             -0.0000 electrons
 Dipole moment (field-independent basis, Debye):
    X=             -0.2904    Y=             -0.1873    Z=             -0.3525  Tot=              0.4936
 Quadrupole moment (field-independent basis, Debye-Ang):
   XX=            -41.7504   YY=            -32.5014   ZZ=            -42.9426
   XY=              1.5430   XZ=             -1.4266   YZ=              0.2330
 Traceless Quadrupole moment (field-independent basis, Debye-Ang):
   XX=             -2.6856   YY=              6.5634   ZZ=             -3.8778
   XY=              1.5430   XZ=             -1.4266   YZ=              0.2330
 Octapole moment (field-independent basis, Debye-Ang**2):
  XXX=             -1.6592  YYY=             14.1333  ZZZ=             -0.2064  XYY=             -0.4995
  XXY=            -34.0721  XXZ=             -6.7806  XZZ=              6.5323  YZZ=              1.2414
  YYZ=             -6.8288  XYZ=              7.0781
 Hexadecapole moment (field-independent basis, Debye-Ang**3):
 XXXX=          -2012.1481 YYYY=           -668.0830 ZZZZ=           -215.5037 XXXY=             41.5693
 XXXZ=            -41.9937 YYYX=            -13.9217 YYYZ=             -7.4674 ZZZX=             -5.3511
 ZZZY=              1.8203 XXYY=           -420.6362 XXZZ=           -395.7075 YYZZ=           -158.0101
 XXYZ=             16.3433 YYXZ=             -5.9623 ZZXY=              1.5691
 N-N= 8.867464510137D+01 E-N=-1.736446280474D+03  KE= 6.473713566502D+02
 No NMR shielding tensors so no spin-rotation constants.
 Leave Link  601 at Fri Oct  6 22:04:23 2023, MaxMem=  1610612736 cpu:               8.7 elap:               5.6
 (Enter /home/sekinelabo/g16/l701.exe)
 ... and contract with generalized density number  0.
 Compute integral first derivatives.
 Leave Link  701 at Fri Oct  6 22:04:27 2023, MaxMem=  1610612736 cpu:               6.9 elap:               4.4
 (Enter /home/sekinelabo/g16/l702.exe)
 L702 exits ... SP integral derivatives will be done elsewhere.
 Leave Link  702 at Fri Oct  6 22:04:28 2023, MaxMem=  1610612736 cpu:               0.7 elap:               0.5
 (Enter /home/sekinelabo/g16/l703.exe)
 Integral derivatives from FoFJK, PRISM(SPDF).
 Compute integral first derivatives, UseDBF=F ICtDFT=           0.
 Calling FoFJK, ICntrl=      2127 FMM=F ISym2X=0 I1Cent= 0 IOpClX= 0 NMat=1 NMatS=1 NMatT=0.
 FoFJK:  IHMeth= 1 ICntrl=    2127 DoSepK=F KAlg= 0 I1Cent=           0 FoldK=F
 IRaf=         0 NMat=       1 IRICut=       1 DoRegI=T DoRafI=F ISym2E= 0 IDoP0=0 IntGTp=1.
 FoFCou: FMM=F IPFlag=           0 FMFlag=      100000 FMFlg1=         800
         NFxFlg=           0 DoJE=F BraDBF=F KetDBF=F FulRan=T
         wScrn=  0.000000 ICntrl=      2127 IOpCl=  0 I1Cent=           0 NGrid=           0
         NMat0=    1 NMatS0=      1 NMatT0=    0 NMatD0=    1 NMtDS0=    0 NMtDT0=    0
 Symmetry not used in FoFCou.
 Leave Link  703 at Fri Oct  6 22:04:36 2023, MaxMem=  1610612736 cpu:              13.2 elap:               8.2
 (Enter /home/sekinelabo/g16/l716.exe)
 Dipole        =-1.14267545D-01-7.36843169D-02-1.38674153D-01
 ***** Axes restored to original set *****
 -------------------------------------------------------------------
 Center     Atomic                   Forces (Hartrees/Bohr)
 Number     Number              X              Y              Z
 -------------------------------------------------------------------
      1       11          -0.005917989   -0.000188847   -0.001989251
      2       11           0.005694715    0.000293086   -0.000609338
      3       11           0.001201695    0.010552974   -0.010044411
      4       11          -0.000978421   -0.010657214    0.012643000
 -------------------------------------------------------------------
 Cartesian Forces:  Max     0.012643000 RMS     0.006831184
 Z-matrix is all fixed cartesians, so copy forces.
 Force constants in Cartesian coordinates: 
                1             2             3             4             5 
      1  0.194358D-03
      2  0.111589D-02  0.640683D-02
      3  0.000000D+00  0.000000D+00  0.254184D-01
      4  0.000000D+00  0.000000D+00  0.000000D+00  0.100000D+01
      5  0.000000D+00  0.000000D+00  0.000000D+00  0.000000D+00  0.100000D+01
      6  0.000000D+00  0.000000D+00  0.000000D+00  0.000000D+00  0.000000D+00
      7 -0.379097D-03 -0.217656D-02  0.000000D+00  0.000000D+00  0.000000D+00
      8 -0.217656D-02 -0.124966D-01  0.000000D+00  0.000000D+00  0.000000D+00
      9 -0.934962D-03 -0.536802D-02 -0.254184D-01  0.000000D+00  0.000000D+00
     10  0.184739D-03  0.106066D-02  0.000000D+00  0.000000D+00  0.000000D+00
     11  0.106066D-02  0.608973D-02  0.000000D+00  0.000000D+00  0.000000D+00
     12  0.934962D-03  0.536802D-02  0.000000D+00  0.000000D+00  0.000000D+00
                6             7             8             9            10 
      6  0.100000D+01
      7  0.000000D+00  0.171770D-02
      8  0.000000D+00  0.986208D-02  0.566225D-01
      9  0.000000D+00 -0.474148D-02 -0.272229D-01  0.739742D-01
     10  0.000000D+00 -0.133861D-02 -0.768552D-02  0.567644D-02  0.115387D-02
     11  0.000000D+00 -0.768552D-02 -0.441259D-01  0.325909D-01  0.662486D-02
     12  0.000000D+00  0.474148D-02  0.272229D-01 -0.485558D-01 -0.567644D-02
               11            12 
     11  0.380362D-01
     12 -0.325909D-01  0.485558D-01
 Leave Link  716 at Fri Oct  6 22:04:37 2023, MaxMem=  1610612736 cpu:               0.8 elap:               0.5
 (Enter /home/sekinelabo/g16/l103.exe)

 GradGradGradGradGradGradGradGradGradGradGradGradGradGradGradGradGradGrad
 Berny optimization.
 Search for a local minimum.
 Step number   1 out of a maximum of    2
 All quantities printed in internal units (Hartrees-Bohrs-Radians)
 Second derivative matrix not updated -- first step.
 The second derivative matrix:
                          X1        Y1        Z1        X2        Y2
           X1           0.00019
           Y1           0.00112   0.00641
           Z1           0.00000  -0.00000   0.02542
           X2           0.00000   0.00000   0.00000   1.00000
           Y2           0.00000   0.00000   0.00000  -0.00000   1.00000
           Z2           0.00000   0.00000   0.00000   0.00000  -0.00000
           X3          -0.00038  -0.00218  -0.00000   0.00000   0.00000
           Y3          -0.00218  -0.01250   0.00000   0.00000   0.00000
           Z3          -0.00093  -0.00537  -0.02542   0.00000   0.00000
           X4           0.00018   0.00106  -0.00000   0.00000   0.00000
           Y4           0.00106   0.00609  -0.00000   0.00000   0.00000
           Z4           0.00093   0.00537  -0.00000   0.00000   0.00000
                          Z2        X3        Y3        Z3        X4
           Z2           1.00000
           X3           0.00000   0.00172
           Y3           0.00000   0.00986   0.05662
           Z3           0.00000  -0.00474  -0.02722   0.07397
           X4           0.00000  -0.00134  -0.00769   0.00568   0.00115
           Y4           0.00000  -0.00769  -0.04413   0.03259   0.00662
           Z4           0.00000   0.00474   0.02722  -0.04856  -0.00568
                          Y4        Z4
           Y4           0.03804
           Z4          -0.03259   0.04856
 ITU=  0
     Eigenvalues ---    0.02530   0.02873   0.05786   0.16550   0.29108
     Eigenvalues ---    0.75000
 Angle between quadratic step and forces=  39.20 degrees.
 Linear search not attempted -- first point.
 B after Tr=     0.000000    0.000000    0.000000
         Rot=    1.000000    0.000000    0.000000    0.000000 Ang=   0.00 deg.
 Variable       Old X    -DE/DX   Delta X   Delta X   Delta X     New X
                                 (Linear)    (Quad)   (Total)
    X1       -0.00000  -0.00592   0.00000  -0.02770  -0.02770  -0.02770
    Y1        0.00000  -0.00019   0.00000   0.03092   0.03092   0.03092
    Z1        0.00000  -0.00199   0.00000  -0.10578  -0.10578  -0.10578
    X2       -9.45338   0.00569   0.00000   0.01143   0.01143  -9.44195
    Y2        0.00000   0.00029   0.00000  -0.00439  -0.00439  -0.00439
    Z2        0.18333  -0.00061   0.00000  -0.00871  -0.00871   0.17463
    X3        0.00000   0.00120   0.00000   0.04240   0.04240   0.04240
    Y3       -0.00000   0.01055   0.00000   0.04805   0.04805   0.04805
    Z3        6.15402  -0.01004   0.00000  -0.02464  -0.02464   6.12938
    X4       -0.54999  -0.00098   0.00000  -0.02613  -0.02613  -0.57612
    Y4       -3.15774  -0.01066   0.00000  -0.07458  -0.07458  -3.23232
    Z4        9.84498   0.01264   0.00000   0.13912   0.13912   9.98410
         Item               Value     Threshold  Converged?
 Maximum Force            0.012643     0.000450     NO 
 RMS     Force            0.006831     0.000300     NO 
 Maximum Displacement     0.139122     0.001800     NO 
 RMS     Displacement     0.060174     0.001200     NO 
 Predicted change in Energy=-1.911247D-03
 GradGradGradGradGradGradGradGradGradGradGradGradGradGradGradGradGradGrad

 Leave Link  103 at Fri Oct  6 22:04:40 2023, MaxMem=  1610612736 cpu:               4.7 elap:               3.0
 (Enter /home/sekinelabo/g16/l9999.exe)
 1\1\GINC-SEKINELABO-XA7R-R37\Force\RB3LYP\6-311+G(d)\Na4\SEKINELABO\06
 -Oct-2023\0\\#p B3LYP/6-311+g(d) force\\\0,1\Na,0.,0.,0.\Na,-5.0025146
 348,0.,0.0970158805\Na,0.,0.,3.2565674218\Na,-0.2910431751,-1.67100456
 48,5.2097391056\\Version=ES64L-G16RevB.01\State=1-A\HF=-649.174059\RMS
 D=2.374e-09\RMSF=6.831e-03\Dipole=-0.1218552,-0.1290071,-0.0789014\Qua
 drupole=3.1004205,-2.0753713,-1.0250492,0.7388958,-3.1036932,-1.691726
 8\PG=C01 [X(Na4)]\\@


 COLLEGE PROFESSOR: SOMEONE WHO TALKS IN OTHER PEOPLE'S SLEEP.
 Job cpu time:       0 days  0 hours  4 minutes 15.5 seconds.
 Elapsed time:       0 days  0 hours  2 minutes 40.2 seconds.
 File lengths (MBytes):  RWF=     10 Int=      0 D2E=      0 Chk=      2 Scr=      1
 Normal termination of Gaussian 16 at Fri Oct  6 22:04:40 2023.
 Initial command:
 /home/sekinelabo/g16/l1.exe "/home/sekinelabo/g16temp/Gau-708780.inp" -scrdir="/home/sekinelabo/g16temp/"
 Entering Link 1 = /home/sekinelabo/g16/l1.exe PID=    713833.
  
 Copyright (c) 1988-2017, Gaussian, Inc.  All Rights Reserved.
  
 This is part of the Gaussian(R) 16 program.  It is based on
 the Gaussian(R) 09 system (copyright 2009, Gaussian, Inc.),
 the Gaussian(R) 03 system (copyright 2003, Gaussian, Inc.),
 the Gaussian(R) 98 system (copyright 1998, Gaussian, Inc.),
 the Gaussian(R) 94 system (copyright 1995, Gaussian, Inc.),
 the Gaussian 92(TM) system (copyright 1992, Gaussian, Inc.),
 the Gaussian 90(TM) system (copyright 1990, Gaussian, Inc.),
 the Gaussian 88(TM) system (copyright 1988, Gaussian, Inc.),
 the Gaussian 86(TM) system (copyright 1986, Carnegie Mellon
 University), and the Gaussian 82(TM) system (copyright 1983,
 Carnegie Mellon University). Gaussian is a federally registered
 trademark of Gaussian, Inc.
  
 This software contains proprietary and confidential information,
 including trade secrets, belonging to Gaussian, Inc.
  
 This software is provided under written license and may be
 used, copied, transmitted, or stored only in accord with that
 written license.
  
 The following legend is applicable only to US Government
 contracts under FAR:
  
                    RESTRICTED RIGHTS LEGEND
  
 Use, reproduction and disclosure by the US Government is
 subject to restrictions as set forth in subparagraphs (a)
 and (c) of the Commercial Computer Software - Restricted
 Rights clause in FAR 52.227-19.
  
 Gaussian, Inc.
 340 Quinnipiac St., Bldg. 40, Wallingford CT 06492
  
  
 ---------------------------------------------------------------
 Warning -- This program may not be used in any manner that
 competes with the business of Gaussian, Inc. or will provide
 assistance to any competitor of Gaussian, Inc.  The licensee
 of this program is prohibited from giving any competitor of
 Gaussian, Inc. access to this program.  By using this program,
 the user acknowledges that Gaussian, Inc. is engaged in the
 business of creating and licensing software in the field of
 computational chemistry and represents and warrants to the
 licensee that it is not a competitor of Gaussian, Inc. and that
 it will not use this program in any manner prohibited above.
 ---------------------------------------------------------------
  

 Cite this work as:
 Gaussian 16, Revision B.01,
 M. J. Frisch, G. W. Trucks, H. B. Schlegel, G. E. Scuseria, 
 M. A. Robb, J. R. Cheeseman, G. Scalmani, V. Barone, 
 G. A. Petersson, H. Nakatsuji, X. Li, M. Caricato, A. V. Marenich, 
 J. Bloino, B. G. Janesko, R. Gomperts, B. Mennucci, H. P. Hratchian, 
 J. V. Ortiz, A. F. Izmaylov, J. L. Sonnenberg, D. Williams-Young, 
 F. Ding, F. Lipparini, F. Egidi, J. Goings, B. Peng, A. Petrone, 
 T. Henderson, D. Ranasinghe, V. G. Zakrzewski, J. Gao, N. Rega, 
 G. Zheng, W. Liang, M. Hada, M. Ehara, K. Toyota, R. Fukuda, 
 J. Hasegawa, M. Ishida, T. Nakajima, Y. Honda, O. Kitao, H. Nakai, 
 T. Vreven, K. Throssell, J. A. Montgomery, Jr., J. E. Peralta, 
 F. Ogliaro, M. J. Bearpark, J. J. Heyd, E. N. Brothers, K. N. Kudin, 
 V. N. Staroverov, T. A. Keith, R. Kobayashi, J. Normand, 
 K. Raghavachari, A. P. Rendell, J. C. Burant, S. S. Iyengar, 
 J. Tomasi, M. Cossi, J. M. Millam, M. Klene, C. Adamo, R. Cammi, 
 J. W. Ochterski, R. L. Martin, K. Morokuma, O. Farkas, 
 J. B. Foresman, and D. J. Fox, Gaussian, Inc., Wallingford CT, 2016.
 
 ******************************************
 Gaussian 16:  ES64L-G16RevB.01 20-Dec-2017
                 6-Oct-2023 
 ******************************************
 %NProcShared=16
 Will use up to   16 processors via shared memory.
 %mem=12GB
 %Chk=checkpoint.chk
 -------------------------
 #p B3LYP/6-311+g(d) force
 -------------------------
 1/10=7,30=1,38=1/1,3;
 2/12=2,17=6,18=5,40=1/2;
 3/5=4,6=6,7=11,11=2,25=1,30=1,71=1,74=-5/1,2,3;
 4//1;
 5/5=2,38=5/2;
 6/7=2,8=2,9=2,10=2,28=1/1;
 7/29=1/1,2,3,16;
 1/10=7,30=1/3;
 99//99;
 Leave Link    1 at Fri Oct  6 22:04:41 2023, MaxMem=  1610612736 cpu:               0.6 elap:               0.4
 (Enter /home/sekinelabo/g16/l101.exe)


 Symbolic Z-matrix:
 Charge =  0 Multiplicity = 1
 Na                    0.        0.        0. 
 Na                   -0.33334   0.       -2.34818 
 Na                    0.        0.        3.19625 
 Na                   -2.85255  -0.80613   3.99901 
 
 ITRead=  0  0  0  0
 MicOpt= -1 -1 -1 -1
 NAtoms=      4 NQM=        4 NQMF=       0 NMMI=      0 NMMIF=      0
                NMic=       0 NMicF=      0.
                    Isotopes and Nuclear Properties:
 (Nuclear quadrupole moments (NQMom) in fm**2, nuclear magnetic moments (NMagM)
  in nuclear magnetons)

  Atom         1           2           3           4
 IAtWgt=          23          23          23          23
 AtmWgt=  22.9897697  22.9897697  22.9897697  22.9897697
 NucSpn=           3           3           3           3
 AtZEff=  -0.0000000  -0.0000000  -0.0000000  -0.0000000
 NQMom=   10.4000000  10.4000000  10.4000000  10.4000000
 NMagM=    2.2175200   2.2175200   2.2175200   2.2175200
 AtZNuc=  11.0000000  11.0000000  11.0000000  11.0000000
 Leave Link  101 at Fri Oct  6 22:04:42 2023, MaxMem=  1610612736 cpu:               2.0 elap:               1.2
 (Enter /home/sekinelabo/g16/l103.exe)

 GradGradGradGradGradGradGradGradGradGradGradGradGradGradGradGradGradGrad
 Berny optimization.
 Initialization pass.
 Trust Radius=3.00D-01 FncErr=1.00D-07 GrdErr=1.00D-07 EigMax=2.50D+02 EigMin=1.00D-04
 Number of steps in this run=      2 maximum allowed number of steps=      2.
 GradGradGradGradGradGradGradGradGradGradGradGradGradGradGradGradGradGrad

 Leave Link  103 at Fri Oct  6 22:04:42 2023, MaxMem=  1610612736 cpu:               0.6 elap:               0.3
 (Enter /home/sekinelabo/g16/l202.exe)
                          Input orientation:                          
 ---------------------------------------------------------------------
 Center     Atomic      Atomic             Coordinates (Angstroms)
 Number     Number       Type             X           Y           Z
 ---------------------------------------------------------------------
      1         11           0        0.000000    0.000000    0.000000
      2         11           0       -0.333338    0.000000   -2.348176
      3         11           0        0.000000    0.000000    3.196245
      4         11           0       -2.852549   -0.806131    3.999008
 ---------------------------------------------------------------------
[...]
 ErrMax= 8.08D-04  0.00D+00 EMaxC= 1.00D-01 BMatC= 1.05D-04 BMatP= 4.36D-05
 IDIUse=3 WtCom= 2.60D-01 WtEn= 7.40D-01
 Coeff-Com:  0.328D-02-0.448D-02 0.613D+00 0.388D+00
 Coeff-En:   0.000D+00 0.000D+00 0.705D+00 0.295D+00
 Coeff:      0.853D-03-0.117D-02 0.681D+00 0.319D+00
 Gap=     0.050 Goal=   None    Shift=    0.000
 RMSDP=3.66D-04 MaxDP=1.94D-02 DE= 4.03D-04 OVMax= 3.80D-02

 Cycle   5  Pass 1  IDiag  1:
 E= -649.180506583468     Delta-E=       -0.000611867075 Rises=F Damp=F
 DIIS: error= 9.43D-05 at cycle   5 NSaved=   5.
 NSaved= 5 IEnMin= 5 EnMin= -649.180506583468     IErMin= 5 ErrMin= 9.43D-05
 ErrMax= 9.43D-05  0.00D+00 EMaxC= 1.00D-01 BMatC= 3.00D-06 BMatP= 4.36D-05
 IDIUse=1 WtCom= 1.00D+00 WtEn= 0.00D+00
 Coeff-Com: -0.868D-03 0.559D-03 0.251D+00 0.588D-01 0.690D+00
 Coeff:     -0.868D-03 0.559D-03 0.251D+00 0.588D-01 0.690D+00
 Gap=     0.050 Goal=   None    Shift=    0.000
 RMSDP=5.89D-05 MaxDP=3.65D-03 DE=-6.12D-04 OVMax= 4.92D-03

 Cycle   6  Pass 1  IDiag  1:
 E= -649.180516616139     Delta-E=       -0.000010032671 Rises=F Damp=F
 DIIS: error= 2.44D-05 at cycle   6 NSaved=   6.
 NSaved= 6 IEnMin= 6 EnMin= -649.180516616139     IErMin= 6 ErrMin= 2.44D-05
 ErrMax= 2.44D-05  0.00D+00 EMaxC= 1.00D-01 BMatC= 9.95D-08 BMatP= 3.00D-06
 IDIUse=1 WtCom= 1.00D+00 WtEn= 0.00D+00
 Coeff-Com: -0.101D-02 0.968D-03 0.156D-03-0.319D-01 0.225D+00 0.807D+00
 Coeff:     -0.101D-02 0.968D-03 0.156D-03-0.319D-01 0.225D+00 0.807D+00
 Gap=     0.050 Goal=   None    Shift=    0.000
 RMSDP=1.56D-05 MaxDP=3.53D-04 DE=-1.00D-05 OVMax= 6.69D-04

 Cycle   7  Pass 1  IDiag  1:
 E= -649.180516855862     Delta-E=       -0.000000239722 Rises=F Damp=F
 DIIS: error= 4.49D-06 at cycle   7 NSaved=   7.
 NSaved= 7 IEnMin= 7 EnMin= -649.180516855862     IErMin= 7 ErrMin= 4.49D-06
 ErrMax= 4.49D-06  0.00D+00 EMaxC= 1.00D-01 BMatC= 2.64D-09 BMatP= 9.95D-08
 IDIUse=1 WtCom= 1.00D+00 WtEn= 0.00D+00
 Coeff-Com: -0.296D-03 0.340D-03-0.103D-01-0.835D-02 0.140D-01 0.114D+00
 Coeff-Com:  0.891D+00
 Coeff:     -0.296D-03 0.340D-03-0.103D-01-0.835D-02 0.140D-01 0.114D+00
 Coeff:      0.891D+00
 Gap=     0.050 Goal=   None    Shift=    0.000
 RMSDP=4.41D-06 MaxDP=8.68D-05 DE=-2.40D-07 OVMax= 2.41D-04

 Cycle   8  Pass 1  IDiag  1:
 E= -649.180516868050     Delta-E=       -0.000000012189 Rises=F Damp=F
 DIIS: error= 3.26D-06 at cycle   8 NSaved=   8.
 NSaved= 8 IEnMin= 8 EnMin= -649.180516868050     IErMin= 8 ErrMin= 3.26D-06
 ErrMax= 3.26D-06  0.00D+00 EMaxC= 1.00D-01 BMatC= 9.47D-10 BMatP= 2.64D-09
 IDIUse=1 WtCom= 1.00D+00 WtEn= 0.00D+00
 Coeff-Com:  0.109D-03-0.147D-03-0.323D-02-0.904D-03-0.741D-02-0.369D-01
 Coeff-Com:  0.344D+00 0.704D+00
 Coeff:      0.109D-03-0.147D-03-0.323D-02-0.904D-03-0.741D-02-0.369D-01
 Coeff:      0.344D+00 0.704D+00
 Gap=     0.050 Goal=   None    Shift=    0.000
 RMSDP=1.66D-06 MaxDP=4.75D-05 DE=-1.22D-08 OVMax= 7.63D-05

 Cycle   9  Pass 1  IDiag  1:
 E= -649.180516871518     Delta-E=       -0.000000003467 Rises=F Damp=F
 DIIS: error= 4.47D-07 at cycle   9 NSaved=   9.
 NSaved= 9 IEnMin= 9 EnMin= -649.180516871518     IErMin= 9 ErrMin= 4.47D-07
 ErrMax= 4.47D-07  0.00D+00 EMaxC= 1.00D-01 BMatC= 1.63D-11 BMatP= 9.47D-10
 IDIUse=1 WtCom= 1.00D+00 WtEn= 0.00D+00
 Coeff-Com:  0.575D-04-0.740D-04-0.163D-03 0.576D-03-0.405D-02-0.120D-01
 Coeff-Com:  0.170D-01 0.119D+00 0.880D+00
 Coeff:      0.575D-04-0.740D-04-0.163D-03 0.576D-03-0.405D-02-0.120D-01
 Coeff:      0.170D-01 0.119D+00 0.880D+00
 Gap=     0.050 Goal=   None    Shift=    0.000
 RMSDP=3.44D-07 MaxDP=1.02D-05 DE=-3.47D-09 OVMax= 2.01D-05

 Cycle  10  Pass 1  IDiag  1:
 E= -649.180516871628     Delta-E=       -0.000000000110 Rises=F Damp=F
 DIIS: error= 7.74D-08 at cycle  10 NSaved=  10.
 NSaved=10 IEnMin=10 EnMin= -649.180516871628     IErMin=10 ErrMin= 7.74D-08
 ErrMax= 7.74D-08  0.00D+00 EMaxC= 1.00D-01 BMatC= 1.02D-12 BMatP= 1.63D-11
 IDIUse=1 WtCom= 1.00D+00 WtEn= 0.00D+00
 Coeff-Com:  0.372D-05-0.438D-05 0.102D-03 0.171D-03-0.588D-03-0.461D-03
 Coeff-Com: -0.128D-01-0.135D-01 0.214D+00 0.814D+00
 Coeff:      0.372D-05-0.438D-05 0.102D-03 0.171D-03-0.588D-03-0.461D-03
 Coeff:     -0.128D-01-0.135D-01 0.214D+00 0.814D+00
 Gap=     0.050 Goal=   None    Shift=    0.000
 RMSDP=1.13D-07 MaxDP=2.93D-06 DE=-1.10D-10 OVMax= 4.74D-06

 Cycle  11  Pass 1  IDiag  1:
 E= -649.180516871639     Delta-E=       -0.000000000011 Rises=F Damp=F
 DIIS: error= 3.19D-08 at cycle  11 NSaved=  11.
 NSaved=11 IEnMin=11 EnMin= -649.180516871639     IErMin=11 ErrMin= 3.19D-08
 ErrMax= 3.19D-08  0.00D+00 EMaxC= 1.00D-01 BMatC= 1.13D-13 BMatP= 1.02D-12
 IDIUse=1 WtCom= 1.00D+00 WtEn= 0.00D+00
 Coeff-Com: -0.668D-05 0.873D-05 0.541D-04-0.283D-04 0.378D-03 0.125D-02
 Coeff-Com: -0.628D-02-0.178D-01-0.436D-01 0.195D+00 0.871D+00
 Coeff:     -0.668D-05 0.873D-05 0.541D-04-0.283D-04 0.378D-03 0.125D-02
 Coeff:     -0.628D-02-0.178D-01-0.436D-01 0.195D+00 0.871D+00
 Gap=     0.050 Goal=   None    Shift=    0.000
 RMSDP=3.51D-08 MaxDP=7.33D-07 DE=-1.14D-11 OVMax= 2.26D-06

 Cycle  12  Pass 1  IDiag  1:
 E= -649.180516871639     Delta-E=        0.000000000000 Rises=F Damp=F
 DIIS: error= 1.01D-08 at cycle  12 NSaved=  12.
 NSaved=12 IEnMin=11 EnMin= -649.180516871639     IErMin=12 ErrMin= 1.01D-08
 ErrMax= 1.01D-08  0.00D+00 EMaxC= 1.00D-01 BMatC= 1.14D-14 BMatP= 1.13D-13
 IDIUse=1 WtCom= 1.00D+00 WtEn= 0.00D+00
 Coeff-Com: -0.214D-05 0.275D-05 0.501D-05-0.201D-04 0.161D-03 0.335D-03
 Coeff-Com:  0.563D-04-0.220D-02-0.326D-01-0.387D-01 0.201D+00 0.872D+00
 Coeff:     -0.214D-05 0.275D-05 0.501D-05-0.201D-04 0.161D-03 0.335D-03
 Coeff:      0.563D-04-0.220D-02-0.326D-01-0.387D-01 0.201D+00 0.872D+00
 Gap=     0.050 Goal=   None    Shift=    0.000
 RMSDP=9.54D-09 MaxDP=2.14D-07 DE= 4.55D-13 OVMax= 5.98D-07

 SCF Done:  E(RB3LYP) =  -649.180516872     A.U. after   12 cycles
            NFock= 12  Conv=0.95D-08     -V/T= 2.0027
 KE= 6.474214776709D+02 PE=-1.768709207481D+03 EE= 3.673218301043D+02
 Leave Link  502 at Sat Oct  7 02:09:36 2023, MaxMem=  1610612736 cpu:             130.8 elap:              60.0
 (Enter /home/sekinelabo/g16/l601.exe)
 Copying SCF densities to generalized density rwf, IOpCl= 0 IROHF=0.

 **********************************************************************

            Population analysis using the SCF Density.

 **********************************************************************

 Orbital symmetries:
       Occupied  (A) (A) (A) (A) (A) (A) (A) (A) (A) (A) (A) (A)
                 (A) (A) (A) (A) (A) (A) (A) (A) (A) (A)
       Virtual   (A) (A) (A) (A) (A) (A) (A) (A) (A) (A) (A) (A)
                 (A) (A) (A) (A) (A) (A) (A) (A) (A) (A) (A) (A)
                 (A) (A) (A) (A) (A) (A) (A) (A) (A) (A) (A) (A)
                 (A) (A) (A) (A) (A) (A) (A) (A) (A) (A) (A) (A)
                 (A) (A) (A) (A) (A) (A) (A) (A) (A) (A) (A) (A)
                 (A) (A) (A) (A) (A) (A) (A) (A) (A) (A) (A) (A)
                 (A) (A) (A) (A) (A) (A) (A) (A) (A) (A) (A) (A)
                 (A) (A) (A) (A) (A) (A) (A) (A) (A) (A) (A) (A)
                 (A) (A)
 The electronic state is 1-A.
 Alpha  occ. eigenvalues --  -38.46572 -38.46085 -38.43726 -38.43671  -2.22601
 Alpha  occ. eigenvalues --   -2.22041  -2.19542  -2.19395  -1.17385  -1.16157
 Alpha  occ. eigenvalues --   -1.15999  -1.15623  -1.15485  -1.15245  -1.13221
 Alpha  occ. eigenvalues --   -1.13204  -1.13175  -1.13078  -1.13077  -1.13008
 Alpha  occ. eigenvalues --   -0.15964  -0.11129
 Alpha virt. eigenvalues --   -0.06126  -0.05168  -0.03644  -0.02231  -0.01537
 Alpha virt. eigenvalues --   -0.00866  -0.00621   0.00195   0.00259   0.00647
 Alpha virt. eigenvalues --    0.00771   0.00797   0.01082   0.01476   0.01533
 Alpha virt. eigenvalues --    0.01706   0.01873   0.01935   0.02047   0.02419
 Alpha virt. eigenvalues --    0.02544   0.02579   0.02673   0.03211   0.03304
 Alpha virt. eigenvalues --    0.03415   0.03744   0.04509   0.04967   0.05060
 Alpha virt. eigenvalues --    0.06161   0.06819   0.07458   0.08170   0.08306
 Alpha virt. eigenvalues --    0.08762   0.08951   0.09748   0.10151   0.10500
 Alpha virt. eigenvalues --    0.11356   0.11495   0.12026   0.12777   0.14836
 Alpha virt. eigenvalues --    0.17032   0.26652   0.27905   0.29851   0.30790
 Alpha virt. eigenvalues --    0.32837   0.33822   0.35379   0.36036   0.36392
 Alpha virt. eigenvalues --    0.36436   0.37002   0.38796   0.39053   0.41401
 Alpha virt. eigenvalues --    0.42618   0.43458   0.43760   0.44220   0.44348
 Alpha virt. eigenvalues --    0.44748   0.45257   0.45440   0.46357   0.47367
 Alpha virt. eigenvalues --    0.49349   0.51200   0.51238   0.52927   0.59014
 Alpha virt. eigenvalues --    0.60146   0.68896   0.88180   2.03793   2.05593
 Alpha virt. eigenvalues --    2.09689   2.19654   4.41562   4.42162   4.44960
 Alpha virt. eigenvalues --    4.45327   4.45566   4.45796   4.45994   4.47691
 Alpha virt. eigenvalues --    4.48858   4.54697   4.61228   4.76102  96.23293
 Alpha virt. eigenvalues --   96.25952  96.30634  96.43707
          Condensed to atoms (all electrons):
               1          2          3          4
     1  Na  10.591772   0.107333   0.335525   0.124296
     2  Na   0.107333  10.740752   0.096621  -0.114258
     3  Na   0.335525   0.096621  10.497823   0.100510
     4  Na   0.124296  -0.114258   0.100510  10.869601
 Mulliken charges:
               1
     1  Na  -0.158925
     2  Na   0.169552
     3  Na  -0.030478
     4  Na   0.019852
 Sum of Mulliken charges =  -0.00000
 Mulliken charges with hydrogens summed into heavy atoms:
               1
     1  Na  -0.158925
     2  Na   0.169552
     3  Na  -0.030478
     4  Na   0.019852
 Electronic spatial extent (au):  <R**2>=           1218.0504
 Charge=             -0.0000 electrons
 Dipole moment (field-independent basis, Debye):
    X=              1.0047    Y=              0.1270    Z=             -0.1288  Tot=              1.0209
 Quadrupole moment (field-independent basis, Debye-Ang):
   XX=            -37.8588   YY=            -36.1198   ZZ=            -41.9884
   XY=              1.4843   XZ=             -0.3221   YZ=             -0.5618
 Traceless Quadrupole moment (field-independent basis, Debye-Ang):
   XX=              0.7968   YY=              2.5359   ZZ=             -3.3327
   XY=              1.4843   XZ=             -0.3221   YZ=             -0.5618
 Octapole moment (field-independent basis, Debye-Ang**2):
  XXX=              6.1049  YYY=              6.6949  ZZZ=              1.6264  XYY=              5.4994
  XXY=             -6.5596  XXZ=            -17.4384  XZZ=              6.1649  YZZ=             -0.5175
  YYZ=              3.5902  XYZ=             -0.8809
 Hexadecapole moment (field-independent basis, Debye-Ang**3):
 XXXX=          -1539.0648 YYYY=           -263.6879 ZZZZ=           -210.0512 XXXY=             30.5633
 XXXZ=             -9.7455 YYYX=              7.2174 YYYZ=             -1.9209 ZZZX=             -1.4501
 ZZZY=             -3.0544 XXYY=           -371.0698 XXZZ=           -344.6928 YYZZ=            -79.7452
 XXYZ=              3.0806 YYXZ=              0.6408 ZZXY=              1.8291
 N-N= 1.047853828345D+02 E-N=-1.768709209550D+03  KE= 6.474214776709D+02
 No NMR shielding tensors so no spin-rotation constants.
 Leave Link  601 at Sat Oct  7 02:09:40 2023, MaxMem=  1610612736 cpu:               8.0 elap:               3.6
 (Enter /home/sekinelabo/g16/l701.exe)
 ... and contract with generalized density number  0.
 Compute integral first derivatives.
 Leave Link  701 at Sat Oct  7 02:09:43 2023, MaxMem=  1610612736 cpu:               6.6 elap:               2.9
 (Enter /home/sekinelabo/g16/l702.exe)
 L702 exits ... SP integral derivatives will be done elsewhere.
 Leave Link  702 at Sat Oct  7 02:09:43 2023, MaxMem=  1610612736 cpu:               0.7 elap:               0.3
 (Enter /home/sekinelabo/g16/l703.exe)
 Integral derivatives from FoFJK, PRISM(SPDF).
 Compute integral first derivatives, UseDBF=F ICtDFT=           0.
 Calling FoFJK, ICntrl=      2127 FMM=F ISym2X=0 I1Cent= 0 IOpClX= 0 NMat=1 NMatS=1 NMatT=0.
 FoFJK:  IHMeth= 1 ICntrl=    2127 DoSepK=F KAlg= 0 I1Cent=           0 FoldK=F
 IRaf=         0 NMat=       1 IRICut=       1 DoRegI=T DoRafI=F ISym2E= 0 IDoP0=0 IntGTp=1.
 FoFCou: FMM=F IPFlag=           0 FMFlag=      100000 FMFlg1=         800
         NFxFlg=           0 DoJE=F BraDBF=F KetDBF=F FulRan=T
         wScrn=  0.000000 ICntrl=      2127 IOpCl=  0 I1Cent=           0 NGrid=           0
         NMat0=    1 NMatS0=      1 NMatT0=    0 NMatD0=    1 NMtDS0=    0 NMtDT0=    0
 Symmetry not used in FoFCou.
 Leave Link  703 at Sat Oct  7 02:09:49 2023, MaxMem=  1610612736 cpu:              12.8 elap:               5.6
 (Enter /home/sekinelabo/g16/l716.exe)
 Dipole        = 3.95286943D-01 4.99582560D-02-5.06807171D-02
 ***** Axes restored to original set *****
 -------------------------------------------------------------------
 Center     Atomic                   Forces (Hartrees/Bohr)
 Number     Number              X              Y              Z
 -------------------------------------------------------------------
      1       11           0.004881616   -0.002122550   -0.031170944
      2       11          -0.001743843    0.000980483    0.001083274
      3       11           0.002820553   -0.003103152    0.030305922
      4       11          -0.005958326    0.004245219   -0.000218252
 -------------------------------------------------------------------
 Cartesian Forces:  Max     0.031170944 RMS     0.012892970
 Z-matrix is all fixed cartesians, so copy forces.
 Force constants in Cartesian coordinates: 
                1             2             3             4             5 
      1  0.652359D-01
      2 -0.539321D-02  0.781458D-02
      3 -0.106338D-01  0.000000D+00  0.166956D+00
      4 -0.334627D-01 -0.274346D-03 -0.231261D-02  0.429077D-01
      5 -0.224400D-03 -0.254031D-02  0.000000D+00 -0.142942D-02  0.506004D-02
      6  0.177109D-01  0.412937D-03 -0.924949D-02  0.218158D-02  0.215152D-02
      7 -0.309005D-01  0.612477D-02  0.129464D-01 -0.867984D-02 -0.620276D-03
      8  0.532575D-02 -0.327092D-02  0.000000D+00  0.256624D-02 -0.581025D-02
      9 -0.574979D-03 -0.463139D-02 -0.157706D+00  0.187755D-02 -0.476957D-02
     10 -0.872707D-03 -0.457209D-03  0.000000D+00 -0.765222D-03  0.227410D-02
     11  0.291860D-03 -0.200335D-02  0.000000D+00 -0.862468D-03  0.329052D-02
     12 -0.650214D-02  0.421846D-02  0.000000D+00 -0.174652D-02  0.261805D-02
                6             7             8             9            10 
      6  0.173870D-01
      7 -0.210443D-01  0.464651D-01
      8 -0.386262D-02 -0.882705D-02  0.148952D-01
      9 -0.107663D-01  0.576296D-03  0.126598D-01  0.178684D+00
     10  0.115179D-02 -0.688470D-02  0.935061D-03 -0.187887D-02  0.852263D-02
     11  0.129816D-02  0.332256D-02 -0.581402D-02 -0.325883D-02 -0.275195D-02
     12  0.262881D-02  0.752158D-02 -0.879718D-02 -0.102120D-01  0.727081D-03
               11            12 
     11  0.452686D-02
     12  0.196067D-02  0.758320D-02
 Leave Link  716 at Sat Oct  7 02:09:49 2023, MaxMem=  1610612736 cpu:               0.6 elap:               0.4
 (Enter /home/sekinelabo/g16/l103.exe)

 GradGradGradGradGradGradGradGradGradGradGradGradGradGradGradGradGradGrad
 Berny optimization.
 Search for a local minimum.
 Step number   1 out of a maximum of    2
 All quantities printed in internal units (Hartrees-Bohrs-Radians)
 Second derivative matrix not updated -- first step.
 The second derivative matrix:
                          X1        Y1        Z1        X2        Y2
           X1           0.06524
           Y1          -0.00539   0.00781
           Z1          -0.01063   0.00000   0.16696
           X2          -0.03346  -0.00027  -0.00231   0.04291
           Y2          -0.00022  -0.00254   0.00000  -0.00143   0.00506
           Z2           0.01771   0.00041  -0.00925   0.00218   0.00215
           X3          -0.03090   0.00612   0.01295  -0.00868  -0.00062
           Y3           0.00533  -0.00327  -0.00000   0.00257  -0.00581
           Z3          -0.00057  -0.00463  -0.15771   0.00188  -0.00477
           X4          -0.00087  -0.00046  -0.00000  -0.00077   0.00227
           Y4           0.00029  -0.00200   0.00000  -0.00086   0.00329
           Z4          -0.00650   0.00422  -0.00000  -0.00175   0.00262
                          Z2        X3        Y3        Z3        X4
           Z2           0.01739
           X3          -0.02104   0.04647
           Y3          -0.00386  -0.00883   0.01490
           Z3          -0.01077   0.00058   0.01266   0.17868
           X4           0.00115  -0.00688   0.00094  -0.00188   0.00852
           Y4           0.00130   0.00332  -0.00581  -0.00326  -0.00275
           Z4           0.00263   0.00752  -0.00880  -0.01021   0.00073
                          Y4        Z4
           Y4           0.00453
           Z4           0.00196   0.00758
 ITU=  0
     Eigenvalues ---    0.01196   0.01256   0.03864   0.06126   0.10757
     Eigenvalues ---    0.33175
 Quadratic step=6.621D-01 exceeds max=3.000D-01 adjusted using Lamda=-1.899D-02.
 Angle between NR and scaled steps=  15.95 degrees.
 Angle between quadratic step and forces=  52.61 degrees.
 Linear search not attempted -- first point.
 B after Tr=     0.000000    0.000000    0.000000
         Rot=    1.000000    0.000000    0.000000    0.000000 Ang=   0.00 deg.
 Variable       Old X    -DE/DX   Delta X   Delta X   Delta X     New X
                                 (Linear)    (Quad)   (Total)
    X1        0.00000   0.00488   0.00000   0.07636   0.07636   0.07636
    Y1        0.00000  -0.00212   0.00000  -0.06696  -0.06696  -0.06696
    Z1        0.00000  -0.03117   0.00000  -0.09843  -0.09843  -0.09843
    X2       -5.94911  -0.00174   0.00000   0.02070   0.02070  -5.92841
    Y2       -0.00000   0.00098   0.00000   0.03018   0.03018   0.03018
    Z2        0.36263   0.00108   0.00000   0.02712   0.02712   0.38975
    X3       -0.00000   0.00282   0.00000   0.07961   0.07961   0.07961
    Y3        0.00000  -0.00310   0.00000  -0.09009  -0.09009  -0.09009
    Z3        4.31509   0.03031   0.00000   0.08099   0.08099   4.39607
    X4        6.60107  -0.00596   0.00000  -0.17667  -0.17667   6.42440
    Y4       -3.72412   0.00425   0.00000   0.12687   0.12687  -3.59725
    Z4        3.26194  -0.00022   0.00000  -0.00968  -0.00968   3.25225
         Item               Value     Threshold  Converged?
 Maximum Force            0.031171     0.000450     NO 
 RMS     Force            0.012893     0.000300     NO 
 Maximum Displacement     0.176673     0.001800     NO 
 RMS     Displacement     0.086839     0.001200     NO 
 Predicted change in Energy=-4.937989D-03
 GradGradGradGradGradGradGradGradGradGradGradGradGradGradGradGradGradGrad

 Leave Link  103 at Sat Oct  7 02:09:51 2023, MaxMem=  1610612736 cpu:               3.4 elap:               1.6
 (Enter /home/sekinelabo/g16/l9999.exe)
 1\1\GINC-SEKINELABO-XA7R-R37\Force\RB3LYP\6-311+G(d)\Na4\SEKINELABO\07
 -Oct-2023\0\\#p B3LYP/6-311+g(d) force\\\0,1\Na,0.,0.,0.\Na,-3.1481339
 507,0.,0.1918937934\Na,0.,0.,2.2834448506\Na,3.4931358746,-1.970721624
 4,1.726142525\\Version=ES64L-G16RevB.01\State=1-A\HF=-649.1805169\RMSD
 =9.541e-09\RMSF=1.289e-02\Dipole=-0.3923156,0.0772025,-0.0380047\Quadr
 upole=0.8739094,-2.2038842,1.3299748,-1.0176694,-1.1842301,0.5824892\P
 G=C01 [X(Na4)]\\@


 YE HAVE SOWN MUCH, AND BRING IN LITTLE.
 YE EAT, BUT YE HAVE NOT ENOUGH.
 YE DRINK, BUT YE ARE NOT FILLED WITH DRINK.
 YE CLOTHE YOU, BUT THERE IS NONE WARM.
 AND HE THAT EARNETH WAGES EARNETH WAGES TO PUT
 IT INTO A BAG WITH HOLES.
                                     HAGGAI I,6
 Job cpu time:       0 days  0 hours  3 minutes 25.7 seconds.
 Elapsed time:       0 days  0 hours  1 minutes 35.2 seconds.
 File lengths (MBytes):  RWF=     10 Int=      0 D2E=      0 Chk=      2 Scr=      1
 Normal termination of Gaussian 16 at Sat Oct  7 02:09:51 2023.
