 Entering Gaussian System, Link 0=g16
 Initial command:
 /home/sekinelabo/g16/l1.exe "/home/sekinelabo/g16temp/Gau-8196.inp" -scrdir="/home/sekinelabo/g16temp/"
 Entering Link 1 = /home/sekinelabo/g16/l1.exe PID=      8234.
  
 Copyright (c) 1988-2017, Gaussian, Inc.  All Rights Reserved.
  
 This is part of the Gaussian(R) 16 program.  It is based on
 the Gaussian(R) 09 system (copyright 2009, Gaussian, Inc.),
 the Gaussian(R) 03 system (copyright 2003, Gaussian, Inc.),
 the Gaussian(R) 98 system (copyright 1998, Gaussian, Inc.),
 the Gaussian(R) 94 system (copyright 1995, Gaussian, Inc.),
 the Gaussian 92(TM) system (copyright 1992, Gaussian, Inc.),
 the Gaussian 90(TM) system (copyright 1990, Gaussian, Inc.),
 the Gaussian 88(TM) system (copyright 1988, Gaussian, Inc.),
 the Gaussian 86(TM) system (copyright 1986, Carnegie Mellon
 University), and the Gaussian 82(TM) system (copyright 1983,
 Carnegie Mellon University). Gaussian is a federally registered
 trademark of Gaussian, Inc.
  
 This software contains proprietary and confidential information,
 including trade secrets, belonging to Gaussian, Inc.
  
 This software is provided under written license and may be
 used, copied, transmitted, or stored only in accord with that
 written license.
  
 The following legend is applicable only to US Government
 contracts under FAR:
  
                    RESTRICTED RIGHTS LEGEND
  
 Use, reproduction and disclosure by the US Government is
 subject to restrictions as set forth in subparagraphs (a)
 and (c) of the Commercial Computer Software - Restricted
 Rights clause in FAR 52.227-19.
  
 Gaussian, Inc.
 340 Quinnipiac St., Bldg. 40, Wallingford CT 06492
  
  
 ---------------------------------------------------------------
 Warning -- This program may not be used in any manner that
 competes with the business of Gaussian, Inc. or will provide
 assistance to any competitor of Gaussian, Inc.  The licensee
 of this program is prohibited from giving any competitor of
 Gaussian, Inc. access to this program.  By using this program,
 the user acknowledges that Gaussian, Inc. is engaged in the
 business of creating and licensing software in the field of
 computational chemistry and represents and warrants to the
 licensee that it is not a competitor of Gaussian, Inc. and that
 it will not use this program in any manner prohibited above.
 ---------------------------------------------------------------
  

 Cite this work as:
 Gaussian 16, Revision B.01,
 M. J. Frisch, G. W. Trucks, H. B. Schlegel, G. E. Scuseria, 
 M. A. Robb, J. R. Cheeseman, G. Scalmani, V. Barone, 
 G. A. Petersson, H. Nakatsuji, X. Li, M. Caricato, A. V. Marenich, 
 J. Bloino, B. G. Janesko, R. Gomperts, B. Mennucci, H. P. Hratchian, 
 J. V. Ortiz, A. F. Izmaylov, J. L. Sonnenberg, D. Williams-Young, 
 F. Ding, F. Lipparini, F. Egidi, J. Goings, B. Peng, A. Petrone, 
 T. Henderson, D. Ranasinghe, V. G. Zakrzewski, J. Gao, N. Rega, 
 G. Zheng, W. Liang, M. Hada, M. Ehara, K. Toyota, R. Fukuda, 
 J. Hasegawa, M. Ishida, T. Nakajima, Y. Honda, O. Kitao, H. Nakai, 
 T. Vreven, K. Throssell, J. A. Montgomery, Jr., J. E. Peralta, 
 F. Ogliaro, M. J. Bearpark, J. J. Heyd, E. N. Brothers, K. N. Kudin, 
 V. N. Staroverov, T. A. Keith, R. Kobayashi, J. Normand, 
 K. Raghavachari, A. P. Rendell, J. C. Burant, S. S. Iyengar, 
 J. Tomasi, M. Cossi, J. M. Millam, M. Klene, C. Adamo, R. Cammi, 
 J. W. Ochterski, R. L. Martin, K. Morokuma, O. Farkas, 
 J. B. Foresman, and D. J. Fox, Gaussian, Inc., Wallingford CT, 2016.
 
 ******************************************
 Gaussian 16:  ES64L-G16RevB.01 20-Dec-2017
                 4-Oct-2023 
 ******************************************
 %NProcShared=16
 Will use up to   16 processors via shared memory.
 %mem=12GB
 %Chk=checkpoint.chk
 -------------------------
 #p B3LYP/6-311+g(d) force
 -------------------------
 1/10=7,30=1,38=1/1,3;
 2/12=2,17=6,18=5,40=1/2;
 3/5=4,6=6,7=11,11=2,25=1,30=1,71=1,74=-5/1,2,3;
 4//1;
 5/5=2,38=5/2;
 6/7=2,8=2,9=2,10=2,28=1/1;
 7/29=1/1,2,3,16;
 1/10=7,30=1/3;
 99//99;
 Leave Link    1 at Wed Oct  4 14:11:22 2023, MaxMem=  1610612736 cpu:               0.4 elap:               0.3
 (Enter /home/sekinelabo/g16/l101.exe)


 Symbolic Z-matrix:
 Charge =  0 Multiplicity = 1
 Na                    0.        0.        0. 
 Na                   -4.27855   0.        0.7426 
 Na                    0.        0.        4.60974 
 Na                    0.76419  -1.07951   2.69074 
 
 ITRead=  0  0  0  0
 MicOpt= -1 -1 -1 -1
 NAtoms=      4 NQM=        4 NQMF=       0 NMMI=      0 NMMIF=      0
                NMic=       0 NMicF=      0.
                    Isotopes and Nuclear Properties:
 (Nuclear quadrupole moments (NQMom) in fm**2, nuclear magnetic moments (NMagM)
  in nuclear magnetons)

  Atom         1           2           3           4
 IAtWgt=          23          23          23          23
 AtmWgt=  22.9897697  22.9897697  22.9897697  22.9897697
 NucSpn=           3           3           3           3
 AtZEff=  -0.0000000  -0.0000000  -0.0000000  -0.0000000
 NQMom=   10.4000000  10.4000000  10.4000000  10.4000000
 NMagM=    2.2175200   2.2175200   2.2175200   2.2175200
 AtZNuc=  11.0000000  11.0000000  11.0000000  11.0000000
 Leave Link  101 at Wed Oct  4 14:11:23 2023, MaxMem=  1610612736 cpu:               2.1 elap:               1.1
 (Enter /home/sekinelabo/g16/l103.exe)

 GradGradGradGradGradGradGradGradGradGradGradGradGradGradGradGradGradGrad
 Berny optimization.
 Initialization pass.
 Trust Radius=3.00D-01 FncErr=1.00D-07 GrdErr=1.00D-07 EigMax=2.50D+02 EigMin=1.00D-04
 Number of steps in this run=      2 maximum allowed number of steps=      2.
 GradGradGradGradGradGradGradGradGradGradGradGradGradGradGradGradGradGrad

 Leave Link  103 at Wed Oct  4 14:11:23 2023, MaxMem=  1610612736 cpu:               0.5 elap:               0.2
 (Enter /home/sekinelabo/g16/l202.exe)
                          Input orientation:                          
 ---------------------------------------------------------------------
 Center     Atomic      Atomic             Coordinates (Angstroms)
 Number     Number       Type             X           Y           Z
 ---------------------------------------------------------------------
      1         11           0        0.000000    0.000000    0.000000
      2         11           0       -4.278554    0.000000    0.742596
      3         11           0        0.000000    0.000000    4.609740
      4         11           0        0.764190   -1.079512    2.690737
 ---------------------------------------------------------------------
                    Distance matrix (angstroms):
                    1          2          3          4
     1  Na   0.000000
     2  Na   4.342519   0.000000
     3  Na   4.609740   5.767220   0.000000
     4  Na   2.998232   5.512701   2.330644   0.000000
 Stoichiometry    Na4
 Framework group  C1[X(Na4)]
 Deg. of freedom     6
 Full point group                 C1      NOp   1
 Largest Abelian subgroup         C1      NOp   1
 Largest concise Abelian subgroup C1      NOp   1
                         Standard orientation:                         
 ---------------------------------------------------------------------
 Center     Atomic      Atomic             Coordinates (Angstroms)
 Number     Number       Type             X           Y           Z
 ---------------------------------------------------------------------
      1         11           0        0.562766    2.107269   -0.361465
      2         11           0        3.472950   -1.078535    0.127365
      3         11           0       -2.253261   -1.542305   -0.378838
      4         11           0       -1.782455    0.513571    0.612938
 ---------------------------------------------------------------------
 Rotational constants (GHZ):           2.4665471           1.0321274           0.7612108
 Leave Link  202 at Wed Oct  4 14:11:24 2023, MaxMem=  1610612736 cpu:               1.2 elap:               0.6
 (Enter /home/sekinelabo/g16/l301.exe)
 Standard basis: 6-311+G(d) (5D, 7F)
 Ernie: Thresh=  0.10000D-02 Tol=  0.10000D-05 Strict=F.
 There are   124 symmetry adapted cartesian basis functions of A   symmetry.
 There are   120 symmetry adapted basis functions of A   symmetry.
   120 basis functions,   200 primitive gaussians,   124 cartesian basis functions
    22 alpha electrons       22 beta electrons
       nuclear repulsion energy       100.1821508452 Hartrees.
 IExCor=  402 DFT=T Ex+Corr=B3LYP ExCW=0 ScaHFX=  0.200000
 ScaDFX=  0.800000  0.720000  1.000000  0.810000 ScalE2=  1.000000  1.000000
 IRadAn=      5 IRanWt=     -1 IRanGd=            0 ICorTp=0 IEmpDi=  4
 NAtoms=    4 NActive=    4 NUniq=    4 SFac= 1.00D+00 NAtFMM=   60 NAOKFM=F Big=F
 Integral buffers will be    131072 words long.
 Raffenetti 2 integral format.
 Two-electron integral symmetry is turned on.
 Leave Link  301 at Wed Oct  4 14:11:25 2023, MaxMem=  1610612736 cpu:               0.8 elap:               0.4
 (Enter /home/sekinelabo/g16/l302.exe)
 NPDir=0 NMtPBC=     1 NCelOv=     1 NCel=       1 NClECP=     1 NCelD=      1
         NCelK=      1 NCelE2=     1 NClLst=     1 CellRange=     0.0.
 One-electron integrals computed using PRISM.
 One-electron integral symmetry used in STVInt
 NBasis=   120 RedAO= T EigKep=  1.68D-05  NBF=   120
 NBsUse=   120 1.00D-06 EigRej= -1.00D+00 NBFU=   120
 Precomputing XC quadrature grid using
 IXCGrd= 4 IRadAn=           5 IRanWt=          -1 IRanGd=           0 AccXCQ= 0.00D+00.
 Generated NRdTot=       0 NPtTot=           0 NUsed=           0 NTot=          32
 NSgBfM=   117   117   117   117   117 MxSgAt=     4 MxSgA2=     4.
 Leave Link  302 at Wed Oct  4 14:11:35 2023, MaxMem=  1610612736 cpu:              19.0 elap:              10.7
 (Enter /home/sekinelabo/g16/l303.exe)
 DipDrv:  MaxL=1.
 Leave Link  303 at Wed Oct  4 14:11:37 2023, MaxMem=  1610612736 cpu:               2.8 elap:               1.5
 (Enter /home/sekinelabo/g16/l401.exe)
 ExpMin= 7.60D-03 ExpMax= 3.62D+04 ExpMxC= 1.21D+03 IAcc=3 IRadAn=         5 AccDes= 0.00D+00
 Harris functional with IExCor=  402 and IRadAn=       5 diagonalized for initial guess.
 HarFok:  IExCor=  402 AccDes= 0.00D+00 IRadAn=         5 IDoV= 1 UseB2=F ITyADJ=14
 ICtDFT=  3500011 ScaDFX=  1.000000  1.000000  1.000000  1.000000
 FoFCou: FMM=F IPFlag=           0 FMFlag=      100000 FMFlg1=           0
         NFxFlg=           0 DoJE=T BraDBF=F KetDBF=T FulRan=T
         wScrn=  0.000000 ICntrl=       500 IOpCl=  0 I1Cent=   200000004 NGrid=           0
         NMat0=    1 NMatS0=      1 NMatT0=    0 NMatD0=    1 NMtDS0=    0 NMtDT0=    0
 Petite list used in FoFCou.
 Harris En= -649.038791689989    
 JPrj=0 DoOrth=F DoCkMO=F.
 Leave Link  401 at Wed Oct  4 14:11:45 2023, MaxMem=  1610612736 cpu:              13.8 elap:               7.8
 (Enter /home/sekinelabo/g16/l502.exe)
 Keep R1 ints in memory in canonical form, NReq=41581762.
 FoFCou: FMM=F IPFlag=           0 FMFlag=           0 FMFlg1=           0
         NFxFlg=           0 DoJE=F BraDBF=F KetDBF=F FulRan=T
         wScrn=  0.000000 ICntrl=       600 IOpCl=  0 I1Cent=           0 NGrid=           0
         NMat0=    1 NMatS0=   7260 NMatT0=    0 NMatD0=    1 NMtDS0=    0 NMtDT0=    0
 Symmetry not used in FoFCou.
 Two-electron integral symmetry not used.
 Closed shell SCF:
 Using DIIS extrapolation, IDIIS=  1040.
 NGot=  1610612736 LenX=  1584221380 LenY=  1584205563
 Requested convergence on RMS density matrix=1.00D-08 within 128 cycles.
 Requested convergence on MAX density matrix=1.00D-06.
 Requested convergence on             energy=1.00D-06.
 No special actions if energy rises.

 Cycle   1  Pass 1  IDiag  1:
 E= -649.153599540863    
 DIIS: error= 1.12D-02 at cycle   1 NSaved=   1.
 NSaved= 1 IEnMin= 1 EnMin= -649.153599540863     IErMin= 1 ErrMin= 1.12D-02
 ErrMax= 1.12D-02  0.00D+00 EMaxC= 1.00D-01 BMatC= 2.67D-02 BMatP= 2.67D-02
 IDIUse=3 WtCom= 8.88D-01 WtEn= 1.12D-01
 Coeff-Com:  0.100D+01
 Coeff-En:   0.100D+01
 Coeff:      0.100D+01
 Gap=     0.032 Goal=   None    Shift=    0.000
 GapD=    0.032 DampG=0.250 DampE=0.500 DampFc=0.2500 IDamp=-1.
 Damping current iteration by 2.50D-01
 RMSDP=2.99D-03 MaxDP=6.25D-02              OVMax= 1.36D-01

 Cycle   2  Pass 1  IDiag  1:
 E= -649.157742620805     Delta-E=       -0.004143079942 Rises=F Damp=T
 DIIS: error= 7.68D-03 at cycle   2 NSaved=   2.
 NSaved= 2 IEnMin= 2 EnMin= -649.157742620805     IErMin= 2 ErrMin= 7.68D-03
 ErrMax= 7.68D-03  0.00D+00 EMaxC= 1.00D-01 BMatC= 1.03D-02 BMatP= 2.67D-02
 IDIUse=3 WtCom= 9.23D-01 WtEn= 7.68D-02
 Coeff-Com: -0.130D+01 0.230D+01
 Coeff-En:   0.000D+00 0.100D+01
 Coeff:     -0.120D+01 0.220D+01
 Gap=     0.030 Goal=   None    Shift=    0.000
 RMSDP=2.38D-03 MaxDP=1.00D-01 DE=-4.14D-03 OVMax= 2.01D-01

 Cycle   3  Pass 1  IDiag  1:
 E= -649.162706318671     Delta-E=       -0.004963697866 Rises=F Damp=F
 DIIS: error= 2.61D-03 at cycle   3 NSaved=   3.
 NSaved= 3 IEnMin= 3 EnMin= -649.162706318671     IErMin= 3 ErrMin= 2.61D-03
 ErrMax= 2.61D-03  0.00D+00 EMaxC= 1.00D-01 BMatC= 5.00D-04 BMatP= 1.03D-02
 IDIUse=3 WtCom= 9.74D-01 WtEn= 2.61D-02
 Coeff-Com: -0.241D+00 0.429D+00 0.812D+00
 Coeff-En:   0.000D+00 0.000D+00 0.100D+01
 Coeff:     -0.235D+00 0.418D+00 0.817D+00
 Gap=     0.031 Goal=   None    Shift=    0.000
 RMSDP=3.84D-03 MaxDP=2.06D-01 DE=-4.96D-03 OVMax= 3.16D-01

 Cycle   4  Pass 1  IDiag  1:
 E= -649.150844034319     Delta-E=        0.011862284352 Rises=F Damp=F
 DIIS: error= 4.51D-03 at cycle   4 NSaved=   4.
 NSaved= 4 IEnMin= 3 EnMin= -649.162706318671     IErMin= 3 ErrMin= 2.61D-03
 ErrMax= 4.51D-03  0.00D+00 EMaxC= 1.00D-01 BMatC= 2.11D-03 BMatP= 5.00D-04
 IDIUse=3 WtCom= 1.30D-01 WtEn= 8.70D-01
 Coeff-Com: -0.633D-02 0.146D-01 0.672D+00 0.320D+00
 Coeff-En:   0.000D+00 0.000D+00 0.731D+00 0.269D+00
 Coeff:     -0.820D-03 0.190D-02 0.723D+00 0.276D+00
 Gap=     0.032 Goal=   None    Shift=    0.000
 RMSDP=2.03D-03 MaxDP=1.19D-01 DE= 1.19D-02 OVMax= 1.73D-01

 Cycle   5  Pass 1  IDiag  1:
 E= -649.165666867987     Delta-E=       -0.014822833668 Rises=F Damp=F
 DIIS: error= 1.13D-03 at cycle   5 NSaved=   5.
 NSaved= 5 IEnMin= 5 EnMin= -649.165666867987     IErMin= 5 ErrMin= 1.13D-03
 ErrMax= 1.13D-03  0.00D+00 EMaxC= 1.00D-01 BMatC= 1.09D-04 BMatP= 5.00D-04
 IDIUse=3 WtCom= 9.89D-01 WtEn= 1.13D-02
 Coeff-Com:  0.132D-02-0.267D-02 0.283D+00-0.333D-01 0.751D+00
 Coeff-En:   0.000D+00 0.000D+00 0.249D+00 0.000D+00 0.751D+00
 Coeff:      0.131D-02-0.264D-02 0.283D+00-0.329D-01 0.751D+00
 Gap=     0.032 Goal=   None    Shift=    0.000
 RMSDP=5.81D-04 MaxDP=2.85D-02 DE=-1.48D-02 OVMax= 4.44D-02

 Cycle   6  Pass 1  IDiag  1:
 E= -649.166441181827     Delta-E=       -0.000774313840 Rises=F Damp=F
 DIIS: error= 7.27D-05 at cycle   6 NSaved=   6.
 NSaved= 6 IEnMin= 6 EnMin= -649.166441181827     IErMin= 6 ErrMin= 7.27D-05
 ErrMax= 7.27D-05  0.00D+00 EMaxC= 1.00D-01 BMatC= 7.72D-07 BMatP= 1.09D-04
 IDIUse=1 WtCom= 1.00D+00 WtEn= 0.00D+00
 Coeff-Com: -0.137D-02 0.149D-02 0.682D-01-0.254D-01 0.207D+00 0.750D+00
 Coeff:     -0.137D-02 0.149D-02 0.682D-01-0.254D-01 0.207D+00 0.750D+00
 Gap=     0.033 Goal=   None    Shift=    0.000
 RMSDP=5.83D-05 MaxDP=1.80D-03 DE=-7.74D-04 OVMax= 1.92D-03

 Cycle   7  Pass 1  IDiag  1:
 E= -649.166443999787     Delta-E=       -0.000002817960 Rises=F Damp=F
 DIIS: error= 4.19D-05 at cycle   7 NSaved=   7.
 NSaved= 7 IEnMin= 7 EnMin= -649.166443999787     IErMin= 7 ErrMin= 4.19D-05
 ErrMax= 4.19D-05  0.00D+00 EMaxC= 1.00D-01 BMatC= 1.49D-07 BMatP= 7.72D-07
 IDIUse=1 WtCom= 1.00D+00 WtEn= 0.00D+00
 Coeff-Com: -0.303D-03 0.356D-03 0.166D-01-0.914D-02 0.354D-01 0.271D+00
 Coeff-Com:  0.686D+00
 Coeff:     -0.303D-03 0.356D-03 0.166D-01-0.914D-02 0.354D-01 0.271D+00
 Coeff:      0.686D+00
 Gap=     0.033 Goal=   None    Shift=    0.000
 RMSDP=1.60D-05 MaxDP=8.48D-04 DE=-2.82D-06 OVMax= 1.20D-03

 Cycle   8  Pass 1  IDiag  1:
 E= -649.166444937065     Delta-E=       -0.000000937278 Rises=F Damp=F
 DIIS: error= 1.30D-05 at cycle   8 NSaved=   8.
 NSaved= 8 IEnMin= 8 EnMin= -649.166444937065     IErMin= 8 ErrMin= 1.30D-05
 ErrMax= 1.30D-05  0.00D+00 EMaxC= 1.00D-01 BMatC= 1.11D-08 BMatP= 1.49D-07
 IDIUse=1 WtCom= 1.00D+00 WtEn= 0.00D+00
 Coeff-Com:  0.159D-03-0.209D-03 0.185D-02-0.172D-02-0.500D-02 0.366D-01
 Coeff-Com:  0.280D+00 0.689D+00
 Coeff:      0.159D-03-0.209D-03 0.185D-02-0.172D-02-0.500D-02 0.366D-01
 Coeff:      0.280D+00 0.689D+00
 Gap=     0.033 Goal=   None    Shift=    0.000
 RMSDP=6.92D-06 MaxDP=2.35D-04 DE=-9.37D-07 OVMax= 3.34D-04

 Cycle   9  Pass 1  IDiag  1:
 E= -649.166444989215     Delta-E=       -0.000000052149 Rises=F Damp=F
 DIIS: error= 2.59D-06 at cycle   9 NSaved=   9.
 NSaved= 9 IEnMin= 9 EnMin= -649.166444989215     IErMin= 9 ErrMin= 2.59D-06
 ErrMax= 2.59D-06  0.00D+00 EMaxC= 1.00D-01 BMatC= 6.57D-10 BMatP= 1.11D-08
 IDIUse=1 WtCom= 1.00D+00 WtEn= 0.00D+00
 Coeff-Com:  0.992D-04-0.133D-03-0.832D-03 0.140D-03-0.498D-02-0.148D-01
 Coeff-Com:  0.204D-01 0.218D+00 0.782D+00
 Coeff:      0.992D-04-0.133D-03-0.832D-03 0.140D-03-0.498D-02-0.148D-01
 Coeff:      0.204D-01 0.218D+00 0.782D+00
 Gap=     0.033 Goal=   None    Shift=    0.000
 RMSDP=1.12D-06 MaxDP=3.60D-05 DE=-5.21D-08 OVMax= 6.95D-05

 Cycle  10  Pass 1  IDiag  1:
 E= -649.166444991497     Delta-E=       -0.000000002283 Rises=F Damp=F
 DIIS: error= 1.51D-06 at cycle  10 NSaved=  10.
 NSaved=10 IEnMin=10 EnMin= -649.166444991497     IErMin=10 ErrMin= 1.51D-06
 ErrMax= 1.51D-06  0.00D+00 EMaxC= 1.00D-01 BMatC= 9.60D-11 BMatP= 6.57D-10
 IDIUse=1 WtCom= 1.00D+00 WtEn= 0.00D+00
 Coeff-Com:  0.266D-04-0.350D-04-0.708D-03 0.308D-03-0.254D-02-0.127D-01
 Coeff-Com: -0.165D-01 0.885D-02 0.253D+00 0.770D+00
 Coeff:      0.266D-04-0.350D-04-0.708D-03 0.308D-03-0.254D-02-0.127D-01
 Coeff:     -0.165D-01 0.885D-02 0.253D+00 0.770D+00
 Gap=     0.033 Goal=   None    Shift=    0.000
 RMSDP=1.04D-06 MaxDP=4.63D-05 DE=-2.28D-09 OVMax= 6.56D-05

 Cycle  11  Pass 1  IDiag  1:
 E= -649.166444992173     Delta-E=       -0.000000000676 Rises=F Damp=F
 DIIS: error= 4.85D-07 at cycle  11 NSaved=  11.
 NSaved=11 IEnMin=11 EnMin= -649.166444992173     IErMin=11 ErrMin= 4.85D-07
 ErrMax= 4.85D-07  0.00D+00 EMaxC= 1.00D-01 BMatC= 1.30D-11 BMatP= 9.60D-11
 IDIUse=1 WtCom= 1.00D+00 WtEn= 0.00D+00
 Coeff-Com: -0.964D-05 0.124D-04-0.623D-04 0.207D-04 0.856D-04 0.134D-02
 Coeff-Com:  0.134D-02-0.131D-01-0.544D-01 0.886D-01 0.976D+00
 Coeff:     -0.964D-05 0.124D-04-0.623D-04 0.207D-04 0.856D-04 0.134D-02
 Coeff:      0.134D-02-0.131D-01-0.544D-01 0.886D-01 0.976D+00
 Gap=     0.033 Goal=   None    Shift=    0.000
 RMSDP=2.50D-07 MaxDP=1.02D-05 DE=-6.76D-10 OVMax= 2.35D-05

 Cycle  12  Pass 1  IDiag  1:
 E= -649.166444992300     Delta-E=       -0.000000000127 Rises=F Damp=F
 DIIS: error= 5.33D-08 at cycle  12 NSaved=  12.
 NSaved=12 IEnMin=12 EnMin= -649.166444992300     IErMin=12 ErrMin= 5.33D-08
 ErrMax= 5.33D-08  0.00D+00 EMaxC= 1.00D-01 BMatC= 1.57D-13 BMatP= 1.30D-11
 IDIUse=1 WtCom= 1.00D+00 WtEn= 0.00D+00
 Coeff-Com: -0.178D-05 0.236D-05 0.302D-05-0.264D-05 0.581D-04 0.495D-03
 Coeff-Com:  0.116D-02-0.135D-02-0.152D-01-0.249D-01 0.220D+00 0.820D+00
 Coeff:     -0.178D-05 0.236D-05 0.302D-05-0.264D-05 0.581D-04 0.495D-03
 Coeff:      0.116D-02-0.135D-02-0.152D-01-0.249D-01 0.220D+00 0.820D+00
 Gap=     0.033 Goal=   None    Shift=    0.000
 RMSDP=3.86D-08 MaxDP=1.08D-06 DE=-1.27D-10 OVMax= 1.12D-06

 Cycle  13  Pass 1  IDiag  1:
 E= -649.166444992298     Delta-E=        0.000000000002 Rises=F Damp=F
 DIIS: error= 2.57D-08 at cycle  13 NSaved=  13.
 NSaved=13 IEnMin=12 EnMin= -649.166444992300     IErMin=13 ErrMin= 2.57D-08
 ErrMax= 2.57D-08  0.00D+00 EMaxC= 1.00D-01 BMatC= 4.97D-14 BMatP= 1.57D-13
 IDIUse=1 WtCom= 1.00D+00 WtEn= 0.00D+00
 Coeff-Com:  0.466D-07-0.270D-07 0.582D-05-0.269D-05 0.248D-04 0.109D-03
 Coeff-Com:  0.234D-03-0.359D-03-0.355D-02-0.170D-01 0.368D-01 0.316D+00
 Coeff-Com:  0.668D+00
 Coeff:      0.466D-07-0.270D-07 0.582D-05-0.269D-05 0.248D-04 0.109D-03
 Coeff:      0.234D-03-0.359D-03-0.355D-02-0.170D-01 0.368D-01 0.316D+00
 Coeff:      0.668D+00
 Gap=     0.033 Goal=   None    Shift=    0.000
 RMSDP=1.52D-08 MaxDP=5.38D-07 DE= 1.59D-12 OVMax= 7.04D-07

 Cycle  14  Pass 1  IDiag  1:
 E= -649.166444992297     Delta-E=        0.000000000001 Rises=F Damp=F
 DIIS: error= 7.04D-09 at cycle  14 NSaved=  14.
 NSaved=14 IEnMin=12 EnMin= -649.166444992300     IErMin=14 ErrMin= 7.04D-09
 ErrMax= 7.04D-09  0.00D+00 EMaxC= 1.00D-01 BMatC= 3.55D-15 BMatP= 4.97D-14
 IDIUse=1 WtCom= 1.00D+00 WtEn= 0.00D+00
 Coeff-Com:  0.420D-06-0.551D-06 0.290D-05-0.531D-06 0.473D-06-0.455D-04
 Coeff-Com: -0.863D-04 0.194D-03 0.123D-02-0.337D-02-0.184D-01 0.679D-02
 Coeff-Com:  0.115D+00 0.899D+00
 Coeff:      0.420D-06-0.551D-06 0.290D-05-0.531D-06 0.473D-06-0.455D-04
 Coeff:     -0.863D-04 0.194D-03 0.123D-02-0.337D-02-0.184D-01 0.679D-02
 Coeff:      0.115D+00 0.899D+00
 Gap=     0.033 Goal=   None    Shift=    0.000
 RMSDP=6.22D-09 MaxDP=2.03D-07 DE= 1.14D-12 OVMax= 2.47D-07

 SCF Done:  E(RB3LYP) =  -649.166444992     A.U. after   14 cycles
            NFock= 14  Conv=0.62D-08     -V/T= 2.0027
 KE= 6.474433169119D+02 PE=-1.759373037285D+03 EE= 3.625811245354D+02
 Leave Link  502 at Wed Oct  4 14:13:07 2023, MaxMem=  1610612736 cpu:             146.3 elap:              82.5
 (Enter /home/sekinelabo/g16/l601.exe)
 Copying SCF densities to generalized density rwf, IOpCl= 0 IROHF=0.

 **********************************************************************

            Population analysis using the SCF Density.

 **********************************************************************

 Orbital symmetries:
       Occupied  (A) (A) (A) (A) (A) (A) (A) (A) (A) (A) (A) (A)
                 (A) (A) (A) (A) (A) (A) (A) (A) (A) (A)
       Virtual   (A) (A) (A) (A) (A) (A) (A) (A) (A) (A) (A) (A)
                 (A) (A) (A) (A) (A) (A) (A) (A) (A) (A) (A) (A)
                 (A) (A) (A) (A) (A) (A) (A) (A) (A) (A) (A) (A)
                 (A) (A) (A) (A) (A) (A) (A) (A) (A) (A) (A) (A)
                 (A) (A) (A) (A) (A) (A) (A) (A) (A) (A) (A) (A)
                 (A) (A) (A) (A) (A) (A) (A) (A) (A) (A) (A) (A)
                 (A) (A) (A) (A) (A) (A) (A) (A) (A) (A) (A) (A)
                 (A) (A) (A) (A) (A) (A) (A) (A) (A) (A) (A) (A)
                 (A) (A)
 The electronic state is 1-A.
 Alpha  occ. eigenvalues --  -38.45645 -38.45506 -38.45241 -38.45078  -2.21641
 Alpha  occ. eigenvalues --   -2.21280  -2.21204  -2.20772  -1.16274  -1.15173
 Alpha  occ. eigenvalues --   -1.15169  -1.15027  -1.14941  -1.14888  -1.14740
 Alpha  occ. eigenvalues --   -1.14714  -1.14458  -1.14451  -1.14409  -1.14396
 Alpha  occ. eigenvalues --   -0.15708  -0.11094
 Alpha virt. eigenvalues --   -0.07836  -0.04422  -0.03512  -0.03043  -0.01715
 Alpha virt. eigenvalues --   -0.01280  -0.00493  -0.00325   0.00110   0.00280
 Alpha virt. eigenvalues --    0.00810   0.00825   0.01118   0.01244   0.01434
 Alpha virt. eigenvalues --    0.01721   0.01754   0.01856   0.02107   0.02227
 Alpha virt. eigenvalues --    0.02270   0.02413   0.02529   0.02626   0.02961
 Alpha virt. eigenvalues --    0.03117   0.03343   0.03966   0.04727   0.05623
 Alpha virt. eigenvalues --    0.06121   0.06626   0.07236   0.07632   0.08105
 Alpha virt. eigenvalues --    0.08391   0.08786   0.09166   0.09372   0.10340
 Alpha virt. eigenvalues --    0.10609   0.11020   0.11867   0.12334   0.15204
 Alpha virt. eigenvalues --    0.16895   0.27436   0.28441   0.29905   0.30505
 Alpha virt. eigenvalues --    0.33037   0.33280   0.34340   0.34704   0.35126
 Alpha virt. eigenvalues --    0.35700   0.36078   0.37145   0.37210   0.38289
 Alpha virt. eigenvalues --    0.39930   0.42094   0.42203   0.42855   0.43420
 Alpha virt. eigenvalues --    0.44059   0.44361   0.44994   0.45827   0.47711
 Alpha virt. eigenvalues --    0.48134   0.49310   0.50541   0.51671   0.59104
 Alpha virt. eigenvalues --    0.62331   0.71362   0.89064   2.02901   2.05096
 Alpha virt. eigenvalues --    2.08604   2.17169   4.40724   4.42044   4.43305
 Alpha virt. eigenvalues --    4.43896   4.44084   4.44550   4.46678   4.47714
 Alpha virt. eigenvalues --    4.48415   4.52302   4.64826   4.79317  96.22363
 Alpha virt. eigenvalues --   96.25665  96.29980  96.40872
          Condensed to atoms (all electrons):
               1          2          3          4
     1  Na  10.796352   0.306294  -0.140548   0.051085
     2  Na   0.306294  11.017547  -0.135281  -0.174733
     3  Na  -0.140548  -0.135281  10.634331   0.321764
     4  Na   0.051085  -0.174733   0.321764  11.094605
 Mulliken charges:
               1
     1  Na  -0.013183
     2  Na  -0.013828
     3  Na   0.319733
     4  Na  -0.292722
 Sum of Mulliken charges =  -0.00000
 Mulliken charges with hydrogens summed into heavy atoms:
               1
     1  Na  -0.013183
     2  Na  -0.013828
     3  Na   0.319733
     4  Na  -0.292722
 Electronic spatial extent (au):  <R**2>=           1251.2915
 Charge=             -0.0000 electrons
 Dipole moment (field-independent basis, Debye):
    X=             -0.2641    Y=             -0.2331    Z=             -0.2437  Tot=              0.4284
 Quadrupole moment (field-independent basis, Debye-Ang):
   XX=            -47.9507   YY=            -31.9365   ZZ=            -42.1363
   XY=             -4.3348   XZ=              0.6330   YZ=              0.7699
 Traceless Quadrupole moment (field-independent basis, Debye-Ang):
   XX=             -7.2762   YY=              8.7380   ZZ=             -1.4618
   XY=             -4.3348   XZ=              0.6330   YZ=              0.7699
 Octapole moment (field-independent basis, Debye-Ang**2):
  XXX=              9.6331  YYY=              7.0494  ZZZ=             -0.2978  XYY=             -6.3775
  XXY=            -15.7449  XXZ=              1.1791  XZZ=             -7.2722  YZZ=              1.3847
  YYZ=             -6.6264  XYZ=             -7.1184
 Hexadecapole moment (field-independent basis, Debye-Ang**3):
 XXXX=          -1632.8708 YYYY=           -564.5196 ZZZZ=           -207.3207 XXXY=            -78.5981
 XXXZ=             18.8075 YYYX=             -5.8397 YYYZ=             -1.6057 ZZZX=              2.0054
 ZZZY=              4.0976 XXYY=           -349.6066 XXZZ=           -307.9713 YYZZ=           -134.8221
 XXYZ=             11.8754 YYXZ=              5.4862 ZZXY=             -7.6587
 N-N= 1.001821508452D+02 E-N=-1.759373037486D+03  KE= 6.474433169119D+02
 No NMR shielding tensors so no spin-rotation constants.
 Leave Link  601 at Wed Oct  4 14:13:12 2023, MaxMem=  1610612736 cpu:               8.8 elap:               5.0
 (Enter /home/sekinelabo/g16/l701.exe)
 ... and contract with generalized density number  0.
 Compute integral first derivatives.
 Leave Link  701 at Wed Oct  4 14:13:16 2023, MaxMem=  1610612736 cpu:               6.8 elap:               3.8
 (Enter /home/sekinelabo/g16/l702.exe)
 L702 exits ... SP integral derivatives will be done elsewhere.
 Leave Link  702 at Wed Oct  4 14:13:16 2023, MaxMem=  1610612736 cpu:               0.5 elap:               0.3
 (Enter /home/sekinelabo/g16/l703.exe)
 Integral derivatives from FoFJK, PRISM(SPDF).
 Compute integral first derivatives, UseDBF=F ICtDFT=           0.
 Calling FoFJK, ICntrl=      2127 FMM=F ISym2X=0 I1Cent= 0 IOpClX= 0 NMat=1 NMatS=1 NMatT=0.
 FoFJK:  IHMeth= 1 ICntrl=    2127 DoSepK=F KAlg= 0 I1Cent=           0 FoldK=F
 IRaf=         0 NMat=       1 IRICut=       1 DoRegI=T DoRafI=F ISym2E= 0 IDoP0=0 IntGTp=1.
 FoFCou: FMM=F IPFlag=           0 FMFlag=      100000 FMFlg1=         800
         NFxFlg=           0 DoJE=F BraDBF=F KetDBF=F FulRan=T
         wScrn=  0.000000 ICntrl=      2127 IOpCl=  0 I1Cent=           0 NGrid=           0
         NMat0=    1 NMatS0=      1 NMatT0=    0 NMatD0=    1 NMtDS0=    0 NMtDT0=    0
 Symmetry not used in FoFCou.
 Leave Link  703 at Wed Oct  4 14:13:24 2023, MaxMem=  1610612736 cpu:              13.5 elap:               7.4
 (Enter /home/sekinelabo/g16/l716.exe)
 Dipole        =-1.03909341D-01-9.17069243D-02-9.58983836D-02
 ***** Axes restored to original set *****
 -------------------------------------------------------------------
 Center     Atomic                   Forces (Hartrees/Bohr)
 Number     Number              X              Y              Z
 -------------------------------------------------------------------
      1       11          -0.009474366    0.002968367   -0.004649493
      2       11           0.006121524   -0.000107579   -0.002669631
      3       11          -0.008070023    0.013873079    0.024776534
      4       11           0.011422865   -0.016733866   -0.017457409
 -------------------------------------------------------------------
 Cartesian Forces:  Max     0.024776534 RMS     0.012081438
 Z-matrix is all fixed cartesians, so copy forces.
 Force constants in Cartesian coordinates: 
                1             2             3             4             5 
      1  0.451268D-02
      2 -0.637470D-02  0.900504D-02
      3  0.673524D-02 -0.951434D-02  0.315027D-01
      4  0.000000D+00  0.000000D+00  0.000000D+00  0.100000D+01
      5  0.000000D+00  0.000000D+00  0.000000D+00  0.000000D+00  0.100000D+01
      6  0.000000D+00  0.000000D+00  0.000000D+00  0.000000D+00  0.000000D+00
      7  0.247137D-02 -0.349111D-02 -0.210250D-02  0.000000D+00  0.000000D+00
      8 -0.349111D-02  0.493161D-02  0.297004D-02  0.000000D+00  0.000000D+00
      9  0.294803D-02 -0.416446D-02 -0.250803D-02  0.000000D+00  0.000000D+00
     10 -0.698404D-02  0.986581D-02 -0.463273D-02  0.000000D+00  0.000000D+00
     11  0.986581D-02 -0.139367D-01  0.654430D-02  0.000000D+00  0.000000D+00
     12 -0.968327D-02  0.136788D-01 -0.289947D-01  0.000000D+00  0.000000D+00
                6             7             8             9            10 
      6  0.100000D+01
      7  0.000000D+00  0.175362D-01
      8  0.000000D+00 -0.247720D-01  0.349934D-01
      9  0.000000D+00 -0.332318D-01  0.469440D-01  0.963385D-01
     10  0.000000D+00 -0.200075D-01  0.282631D-01  0.302838D-01  0.269916D-01
     11  0.000000D+00  0.282631D-01 -0.399250D-01 -0.427795D-01 -0.381289D-01
     12  0.000000D+00  0.353343D-01 -0.499140D-01 -0.938304D-01 -0.256510D-01
               11            12 
     11  0.538617D-01
     12  0.362352D-01  0.122825D+00
 Leave Link  716 at Wed Oct  4 14:13:24 2023, MaxMem=  1610612736 cpu:               0.7 elap:               0.4
 (Enter /home/sekinelabo/g16/l103.exe)

 GradGradGradGradGradGradGradGradGradGradGradGradGradGradGradGradGradGrad
 Berny optimization.
 Search for a local minimum.
 Step number   1 out of a maximum of    2
 All quantities printed in internal units (Hartrees-Bohrs-Radians)
 Second derivative matrix not updated -- first step.
 The second derivative matrix:
                          X1        Y1        Z1        X2        Y2
           X1           0.00451
           Y1          -0.00637   0.00901
           Z1           0.00674  -0.00951   0.03150
           X2           0.00000   0.00000   0.00000   1.00000
           Y2           0.00000   0.00000   0.00000   0.00000   1.00000
           Z2           0.00000   0.00000   0.00000  -0.00000  -0.00000
           X3           0.00247  -0.00349  -0.00210   0.00000   0.00000
           Y3          -0.00349   0.00493   0.00297   0.00000   0.00000
           Z3           0.00295  -0.00416  -0.00251   0.00000   0.00000
           X4          -0.00698   0.00987  -0.00463   0.00000   0.00000
           Y4           0.00987  -0.01394   0.00654   0.00000   0.00000
           Z4          -0.00968   0.01368  -0.02899   0.00000   0.00000
                          Z2        X3        Y3        Z3        X4
           Z2           1.00000
           X3           0.00000   0.01754
           Y3           0.00000  -0.02477   0.03499
           Z3           0.00000  -0.03323   0.04694   0.09634
           X4           0.00000  -0.02001   0.02826   0.03028   0.02699
           Y4           0.00000   0.02826  -0.03992  -0.04278  -0.03813
           Z4           0.00000   0.03533  -0.04991  -0.09383  -0.02565
                          Y4        Z4
           Y4           0.05386
           Z4           0.03624   0.12283
 ITU=  0
     Eigenvalues ---    0.03295   0.05202   0.08401   0.28061   0.29064
     Eigenvalues ---    0.75000
 Angle between quadratic step and forces=  39.55 degrees.
 Linear search not attempted -- first point.
 B after Tr=     0.000000   -0.000000   -0.000000
         Rot=    1.000000    0.000000   -0.000000    0.000000 Ang=   0.00 deg.
 Variable       Old X    -DE/DX   Delta X   Delta X   Delta X     New X
                                 (Linear)    (Quad)   (Total)
    X1        0.00000  -0.00947   0.00000  -0.04891  -0.04891  -0.04891
    Y1        0.00000   0.00297   0.00000   0.02463   0.02463   0.02463
    Z1        0.00000  -0.00465   0.00000  -0.14481  -0.14481  -0.14481
    X2       -8.08530   0.00612   0.00000   0.01189   0.01189  -8.07340
    Y2        0.00000  -0.00011   0.00000   0.00436   0.00436   0.00436
    Z2        1.40330  -0.00267   0.00000  -0.01261  -0.01261   1.39070
    X3       -0.00000  -0.00807   0.00000  -0.02903  -0.02903  -0.02903
    Y3        0.00000   0.01387   0.00000   0.03987   0.03987   0.03987
    Z3        8.71115   0.02478   0.00000   0.15903   0.15903   8.87018
    X4        1.44411   0.01142   0.00000   0.06605   0.06605   1.51016
    Y4       -2.03998  -0.01673   0.00000  -0.06886  -0.06886  -2.10884
    Z4        5.08476  -0.01746   0.00000  -0.00161  -0.00161   5.08314
         Item               Value     Threshold  Converged?
 Maximum Force            0.024777     0.000450     NO 
 RMS     Force            0.012081     0.000300     NO 
 Maximum Displacement     0.159030     0.001800     NO 
 RMS     Displacement     0.071367     0.001200     NO 
 Predicted change in Energy=-3.989189D-03
 GradGradGradGradGradGradGradGradGradGradGradGradGradGradGradGradGradGrad

 Leave Link  103 at Wed Oct  4 14:13:26 2023, MaxMem=  1610612736 cpu:               3.7 elap:               2.0
 (Enter /home/sekinelabo/g16/l9999.exe)
 1\1\GINC-SEKINELABO-XA7R-R37\Force\RB3LYP\6-311+G(d)\Na4\SEKINELABO\04
 -Oct-2023\0\\#p B3LYP/6-311+g(d) force\\\0,1\Na,0.,0.,0.\Na,-4.2785539
 928,0.,0.742596095\Na,0.,0.,4.6097395743\Na,0.7641903006,-1.0795115642
 ,2.6907368515\\Version=ES64L-G16RevB.01\State=1-A\HF=-649.166445\RMSD=
 6.222e-09\RMSF=1.208e-02\Dipole=0.0370301,0.0917375,0.1364435\Quadrupo
 le=2.1190506,-1.0604488,-1.0586018,-0.3237715,-6.447028,1.4912358\PG=C
 01 [X(Na4)]\\@


 BE LIKE A POSTAGE STAMP.  STICK TO ONE THING UNTIL
 YOU GET THERE -- JOSH BILLINGS
 Job cpu time:       0 days  0 hours  3 minutes 41.9 seconds.
 Elapsed time:       0 days  0 hours  2 minutes  4.7 seconds.
 File lengths (MBytes):  RWF=     10 Int=      0 D2E=      0 Chk=      2 Scr=      1
 Normal termination of Gaussian 16 at Wed Oct  4 14:13:27 2023.
 Initial command:
 /home/sekinelabo/g16/l1.exe "/home/sekinelabo/g16temp/Gau-8196.inp" -scrdir="/home/sekinelabo/g16temp/"
 Entering Link 1 = /home/sekinelabo/g16/l1.exe PID=     10528.
  
 Copyright (c) 1988-2017, Gaussian, Inc.  All Rights Reserved.
  
 This is part of the Gaussian(R) 16 program.  It is based on
 the Gaussian(R) 09 system (copyright 2009, Gaussian, Inc.),
 the Gaussian(R) 03 system (copyright 2003, Gaussian, Inc.),
 the Gaussian(R) 98 system (copyright 1998, Gaussian, Inc.),
 the Gaussian(R) 94 system (copyright 1995, Gaussian, Inc.),
 the Gaussian 92(TM) system (copyright 1992, Gaussian, Inc.),
 the Gaussian 90(TM) system (copyright 1990, Gaussian, Inc.),
 the Gaussian 88(TM) system (copyright 1988, Gaussian, Inc.),
 the Gaussian 86(TM) system (copyright 1986, Carnegie Mellon
 University), and the Gaussian 82(TM) system (copyright 1983,
 Carnegie Mellon University). Gaussian is a federally registered
 trademark of Gaussian, Inc.
  
 This software contains proprietary and confidential information,
 including trade secrets, belonging to Gaussian, Inc.
  
 This software is provided under written license and may be
 used, copied, transmitted, or stored only in accord with that
 written license.
  
 The following legend is applicable only to US Government
 contracts under FAR:
  
                    RESTRICTED RIGHTS LEGEND
  
 Use, reproduction and disclosure by the US Government is
 subject to restrictions as set forth in subparagraphs (a)
 and (c) of the Commercial Computer Software - Restricted
 Rights clause in FAR 52.227-19.
  
 Gaussian, Inc.
 340 Quinnipiac St., Bldg. 40, Wallingford CT 06492
  
  
 ---------------------------------------------------------------
 Warning -- This program may not be used in any manner that
 competes with the business of Gaussian, Inc. or will provide
 assistance to any competitor of Gaussian, Inc.  The licensee
 of this program is prohibited from giving any competitor of
 Gaussian, Inc. access to this program.  By using this program,
 the user acknowledges that Gaussian, Inc. is engaged in the
 business of creating and licensing software in the field of
 computational chemistry and represents and warrants to the
 licensee that it is not a competitor of Gaussian, Inc. and that
 it will not use this program in any manner prohibited above.
 ---------------------------------------------------------------
  

 Cite this work as:
 Gaussian 16, Revision B.01,
 M. J. Frisch, G. W. Trucks, H. B. Schlegel, G. E. Scuseria, 
 M. A. Robb, J. R. Cheeseman, G. Scalmani, V. Barone, 
 G. A. Petersson, H. Nakatsuji, X. Li, M. Caricato, A. V. Marenich, 
 J. Bloino, B. G. Janesko, R. Gomperts, B. Mennucci, H. P. Hratchian, 
 J. V. Ortiz, A. F. Izmaylov, J. L. Sonnenberg, D. Williams-Young, 
 F. Ding, F. Lipparini, F. Egidi, J. Goings, B. Peng, A. Petrone, 
 T. Henderson, D. Ranasinghe, V. G. Zakrzewski, J. Gao, N. Rega, 
 G. Zheng, W. Liang, M. Hada, M. Ehara, K. Toyota, R. Fukuda, 
 J. Hasegawa, M. Ishida, T. Nakajima, Y. Honda, O. Kitao, H. Nakai, 
 T. Vreven, K. Throssell, J. A. Montgomery, Jr., J. E. Peralta, 
 F. Ogliaro, M. J. Bearpark, J. J. Heyd, E. N. Brothers, K. N. Kudin, 
 V. N. Staroverov, T. A. Keith, R. Kobayashi, J. Normand, 
 K. Raghavachari, A. P. Rendell, J. C. Burant, S. S. Iyengar, 
 J. Tomasi, M. Cossi, J. M. Millam, M. Klene, C. Adamo, R. Cammi, 
 J. W. Ochterski, R. L. Martin, K. Morokuma, O. Farkas, 
 J. B. Foresman, and D. J. Fox, Gaussian, Inc., Wallingford CT, 2016.
 
 ******************************************
 Gaussian 16:  ES64L-G16RevB.01 20-Dec-2017
                 4-Oct-2023 
 ******************************************
 %NProcShared=16
 Will use up to   16 processors via shared memory.
 %mem=12GB
 %Chk=checkpoint.chk
 -------------------------
 #p B3LYP/6-311+g(d) force
 -------------------------
 1/10=7,30=1,38=1/1,3;
 2/12=2,17=6,18=5,40=1/2;
 3/5=4,6=6,7=11,11=2,25=1,30=1,71=1,74=-5/1,2,3;
 4//1;
 5/5=2,38=5/2;
 6/7=2,8=2,9=2,10=2,28=1/1;
 7/29=1/1,2,3,16;
 1/10=7,30=1/3;
 99//99;
 Leave Link    1 at Wed Oct  4 14:13:27 2023, MaxMem=  1610612736 cpu:               0.5 elap:               0.3
 (Enter /home/sekinelabo/g16/l101.exe)


 Symbolic Z-matrix:
 Charge =  0 Multiplicity = 1
 Na                    0.        0.        0. 
 Na                   -5.20532   0.        1.28485 
 Na                    0.        0.        4.0246 
 Na                    3.56784  -2.42394   4.98589 
 
 ITRead=  0  0  0  0
 MicOpt= -1 -1 -1 -1
 NAtoms=      4 NQM=        4 NQMF=       0 NMMI=      0 NMMIF=      0
                NMic=       0 NMicF=      0.
                    Isotopes and Nuclear Properties:
 (Nuclear quadrupole moments (NQMom) in fm**2, nuclear magnetic moments (NMagM)
  in nuclear magnetons)

  Atom         1           2           3           4
 IAtWgt=          23          23          23          23
 AtmWgt=  22.9897697  22.9897697  22.9897697  22.9897697
 NucSpn=           3           3           3           3
 AtZEff=  -0.0000000  -0.0000000  -0.0000000  -0.0000000
 NQMom=   10.4000000  10.4000000  10.4000000  10.4000000
 NMagM=    2.2175200   2.2175200   2.2175200   2.2175200
 AtZNuc=  11.0000000  11.0000000  11.0000000  11.0000000
 Leave Link  101 at Wed Oct  4 14:13:28 2023, MaxMem=  1610612736 cpu:               2.0 elap:               1.2
 (Enter /home/sekinelabo/g16/l103.exe)

 GradGradGradGradGradGradGradGradGradGradGradGradGradGradGradGradGradGrad
 Berny optimization.
 Initialization pass.
 Trust Radius=3.00D-01 FncErr=1.00D-07 GrdErr=1.00D-07 EigMax=2.50D+02 EigMin=1.00D-04
 Number of steps in this run=      2 maximum allowed number of steps=      2.
 GradGradGradGradGradGradGradGradGradGradGradGradGradGradGradGradGradGrad

 Leave Link  103 at Wed Oct  4 14:13:29 2023, MaxMem=  1610612736 cpu:               0.6 elap:               0.3
 (Enter /home/sekinelabo/g16/l202.exe)
                          Input orientation:                          
 ---------------------------------------------------------------------
 Center     Atomic      Atomic             Coordinates (Angstroms)
 Number     Number       Type             X           Y           Z
 ---------------------------------------------------------------------
      1         11           0        0.000000    0.000000    0.000000
      2         11           0       -5.205321    0.000000    1.284850
      3         11           0        0.000000    0.000000    4.024602
      4         11           0        3.567837   -2.423945    4.985894
 ---------------------------------------------------------------------
                    Distance matrix (angstroms):
                    1          2          3          4
     1  Na   0.000000
     2  Na   5.361549   0.000000
     3  Na   4.024602   5.882313   0.000000
     4  Na   6.592731   9.825555   4.419168   0.000000
 Stoichiometry    Na4
 Framework group  C1[X(Na4)]
 Deg. of freedom     6
 Full point group                 C1      NOp   1
 Largest Abelian subgroup         C1      NOp   1
 Largest concise Abelian subgroup C1      NOp   1
                         Standard orientation:                         
 ---------------------------------------------------------------------
 Center     Atomic      Atomic             Coordinates (Angstroms)
 Number     Number       Type             X           Y           Z
 ---------------------------------------------------------------------
      1         11           0       -0.921994    2.510400    0.085187
      2         11           0       -4.862797   -1.084783   -0.454192
      3         11           0        0.844985   -0.996810    0.965346
      4         11           0        4.939806   -0.428806   -0.596341
 ---------------------------------------------------------------------
 Rotational constants (GHZ):           2.1642061           0.4300768           0.3772642
 Leave Link  202 at Wed Oct  4 14:13:29 2023, MaxMem=  1610612736 cpu:               1.1 elap:               0.6
 (Enter /home/sekinelabo/g16/l301.exe)
 Standard basis: 6-311+G(d) (5D, 7F)
 Ernie: Thresh=  0.10000D-02 Tol=  0.10000D-05 Strict=F.
 There are   124 symmetry adapted cartesian basis functions of A   symmetry.
 There are   120 symmetry adapted basis functions of A   symmetry.
   120 basis functions,   200 primitive gaussians,   124 cartesian basis functions
    22 alpha electrons       22 beta electrons
       nuclear repulsion energy        69.4557885946 Hartrees.
 IExCor=  402 DFT=T Ex+Corr=B3LYP ExCW=0 ScaHFX=  0.200000
 ScaDFX=  0.800000  0.720000  1.000000  0.810000 ScalE2=  1.000000  1.000000
 IRadAn=      5 IRanWt=     -1 IRanGd=            0 ICorTp=0 IEmpDi=  4
 NAtoms=    4 NActive=    4 NUniq=    4 SFac= 1.00D+00 NAtFMM=   60 NAOKFM=F Big=F
 Integral buffers will be    131072 words long.
 Raffenetti 2 integral format.
 Two-electron integral symmetry is turned on.
 Leave Link  301 at Wed Oct  4 14:13:30 2023, MaxMem=  1610612736 cpu:               0.7 elap:               0.4
 (Enter /home/sekinelabo/g16/l302.exe)
 NPDir=0 NMtPBC=     1 NCelOv=     1 NCel=       1 NClECP=     1 NCelD=      1
         NCelK=      1 NCelE2=     1 NClLst=     1 CellRange=     0.0.
 One-electron integrals computed using PRISM.
 One-electron integral symmetry used in STVInt
 NBasis=   120 RedAO= T EigKep=  4.01D-04  NBF=   120
 NBsUse=   120 1.00D-06 EigRej= -1.00D+00 NBFU=   120
 Precomputing XC quadrature grid using
 IXCGrd= 4 IRadAn=           5 IRanWt=          -1 IRanGd=           0 AccXCQ= 0.00D+00.
 Generated NRdTot=       0 NPtTot=           0 NUsed=           0 NTot=          32
 NSgBfM=   116   116   116   116   116 MxSgAt=     4 MxSgA2=     4.
 Leave Link  302 at Wed Oct  4 14:13:41 2023, MaxMem=  1610612736 cpu:              21.6 elap:              11.8
 (Enter /home/sekinelabo/g16/l303.exe)
 DipDrv:  MaxL=1.
 Leave Link  303 at Wed Oct  4 14:13:43 2023, MaxMem=  1610612736 cpu:               3.1 elap:               1.9
 (Enter /home/sekinelabo/g16/l401.exe)
 ExpMin= 7.60D-03 ExpMax= 3.62D+04 ExpMxC= 1.21D+03 IAcc=3 IRadAn=         5 AccDes= 0.00D+00
 Harris functional with IExCor=  402 and IRadAn=       5 diagonalized for initial guess.
 HarFok:  IExCor=  402 AccDes= 0.00D+00 IRadAn=         5 IDoV= 1 UseB2=F ITyADJ=14
 ICtDFT=  3500011 ScaDFX=  1.000000  1.000000  1.000000  1.000000
 FoFCou: FMM=F IPFlag=           0 FMFlag=      100000 FMFlg1=           0
         NFxFlg=           0 DoJE=T BraDBF=F KetDBF=T FulRan=T
         wScrn=  0.000000 ICntrl=       500 IOpCl=  0 I1Cent=   200000004 NGrid=           0
         NMat0=    1 NMatS0=      1 NMatT0=    0 NMatD0=    1 NMtDS0=    0 NMtDT0=    0
 Petite list used in FoFCou.
 Harris En= -649.040973132922    
 JPrj=0 DoOrth=F DoCkMO=F.
 Leave Link  401 at Wed Oct  4 14:13:52 2023, MaxMem=  1610612736 cpu:              14.3 elap:               8.2
 (Enter /home/sekinelabo/g16/l502.exe)
 Keep R1 ints in memory in canonical form, NReq=41581754.
 FoFCou: FMM=F IPFlag=           0 FMFlag=           0 FMFlg1=           0
         NFxFlg=           0 DoJE=F BraDBF=F KetDBF=F FulRan=T
         wScrn=  0.000000 ICntrl=       600 IOpCl=  0 I1Cent=           0 NGrid=           0
         NMat0=    1 NMatS0=   7260 NMatT0=    0 NMatD0=    1 NMtDS0=    0 NMtDT0=    0
 Symmetry not used in FoFCou.
 Two-electron integral symmetry not used.
 Closed shell SCF:
 Using DIIS extrapolation, IDIIS=  1040.
 NGot=  1610612736 LenX=  1584221388 LenY=  1584205571
 Requested convergence on RMS density matrix=1.00D-08 within 128 cycles.
 Requested convergence on MAX density matrix=1.00D-06.
 Requested convergence on             energy=1.00D-06.
 No special actions if energy rises.

 Cycle   1  Pass 1  IDiag  1:
 E= -649.149159687649    
 DIIS: error= 1.49D-02 at cycle   1 NSaved=   1.
 NSaved= 1 IEnMin= 1 EnMin= -649.149159687649     IErMin= 1 ErrMin= 1.49D-02
 ErrMax= 1.49D-02  0.00D+00 EMaxC= 1.00D-01 BMatC= 2.73D-02 BMatP= 2.73D-02
 IDIUse=3 WtCom= 8.51D-01 WtEn= 1.49D-01
 Coeff-Com:  0.100D+01
 Coeff-En:   0.100D+01
 Coeff:      0.100D+01
 Gap=     0.014 Goal=   None    Shift=    0.000
 GapD=    0.014 DampG=0.250 DampE=0.500 DampFc=0.2500 IDamp=-1.
 Damping current iteration by 2.50D-01
 RMSDP=6.01D-03 MaxDP=3.13D-01              OVMax= 5.78D-01

 Cycle   2  Pass 1  IDiag  1:
 E= -649.152040788706     Delta-E=       -0.002881101057 Rises=F Damp=T
 DIIS: error= 1.02D-02 at cycle   2 NSaved=   2.
 NSaved= 2 IEnMin= 2 EnMin= -649.152040788706     IErMin= 2 ErrMin= 1.02D-02
 ErrMax= 1.02D-02  0.00D+00 EMaxC= 1.00D-01 BMatC= 1.03D-02 BMatP= 2.73D-02
 IDIUse=3 WtCom= 8.98D-01 WtEn= 1.02D-01
 Coeff-Com: -0.101D+01 0.201D+01
 Coeff-En:   0.327D+00 0.673D+00
 Coeff:     -0.875D+00 0.187D+01
 Gap=    -0.000 Goal=   None    Shift=    0.000
 RMSDP=5.74D-03 MaxDP=3.19D-01 DE=-2.88D-03 OVMax= 7.43D-01

 Cycle   3  Pass 1  IDiag  1:
 E= -649.041467243440     Delta-E=        0.110573545266 Rises=F Damp=F
 DIIS: error= 1.21D-02 at cycle   3 NSaved=   3.
 NSaved= 3 IEnMin= 2 EnMin= -649.152040788706     IErMin= 2 ErrMin= 1.02D-02
 ErrMax= 1.21D-02  0.00D+00 EMaxC= 1.00D-01 BMatC= 9.52D-03 BMatP= 1.03D-02
 IDIUse=3 WtCom= 8.79D-01 WtEn= 1.21D-01
 Rare condition: small coef for last iteration:  0.000D+00
 Coeff-Com: -0.693D+00 0.132D+01 0.372D+00
 Coeff-En:   0.288D+00 0.695D+00 0.174D-01
 Coeff:     -0.693D+00 0.132D+01 0.372D+00
 Gap=     0.038 Goal=   None    Shift=    0.000
 RMSDP=8.15D-03 MaxDP=4.92D-01 DE= 1.11D-01 OVMax= 8.18D-01

 Cycle   4  Pass 1  IDiag  1:
 E= -649.099299735893     Delta-E=       -0.057832492453 Rises=F Damp=F
 DIIS: error= 1.02D-02 at cycle   4 NSaved=   4.
 NSaved= 4 IEnMin= 2 EnMin= -649.152040788706     IErMin= 2 ErrMin= 1.02D-02
 ErrMax= 1.02D-02  0.00D+00 EMaxC= 1.00D-01 BMatC= 6.19D-03 BMatP= 9.52D-03
 IDIUse=3 WtCom= 8.98D-01 WtEn= 1.02D-01
 EnCoef did   100 forward-backward iterations
 Coeff-Com: -0.215D+00 0.490D+00 0.367D+00 0.357D+00
 Coeff-En:   0.766D+00 0.530D-02 0.477D-02 0.224D+00
 Coeff:     -0.114D+00 0.441D+00 0.330D+00 0.343D+00
 Gap=     0.013 Goal=   None    Shift=    0.000
 RMSDP=3.81D-03 MaxDP=2.34D-01 DE=-5.78D-02 OVMax= 4.31D-01

 Cycle   5  Pass 1  IDiag  1:
 E= -649.164899637531     Delta-E=       -0.065599901638 Rises=F Damp=F
 DIIS: error= 1.03D-03 at cycle   5 NSaved=   5.
 NSaved= 5 IEnMin= 5 EnMin= -649.164899637531     IErMin= 5 ErrMin= 1.03D-03
 ErrMax= 1.03D-03  0.00D+00 EMaxC= 1.00D-01 BMatC= 1.83D-04 BMatP= 6.19D-03
 IDIUse=3 WtCom= 9.90D-01 WtEn= 1.03D-02
 Coeff-Com:  0.178D+00-0.220D+00 0.706D-02 0.548D-01 0.980D+00
 Coeff-En:   0.000D+00 0.000D+00 0.000D+00 0.000D+00 0.100D+01
 Coeff:      0.176D+00-0.218D+00 0.699D-02 0.542D-01 0.980D+00
 Gap=     0.025 Goal=   None    Shift=    0.000
 RMSDP=9.70D-04 MaxDP=4.45D-02 DE=-6.56D-02 OVMax= 1.02D-01

 Cycle   6  Pass 1  IDiag  1:
 E= -649.163632082209     Delta-E=        0.001267555322 Rises=F Damp=F
 DIIS: error= 2.23D-03 at cycle   6 NSaved=   6.
 NSaved= 6 IEnMin= 5 EnMin= -649.164899637531     IErMin= 5 ErrMin= 1.03D-03
 ErrMax= 2.23D-03  0.00D+00 EMaxC= 1.00D-01 BMatC= 2.46D-04 BMatP= 1.83D-04
 IDIUse=3 WtCom= 9.90D-01 WtEn= 1.03D-02
 Coeff-Com:  0.133D+00-0.174D+00-0.807D-02-0.807D-02 0.652D+00 0.405D+00
 Coeff-En:   0.000D+00 0.000D+00 0.000D+00 0.000D+00 0.752D+00 0.248D+00
 Coeff:      0.131D+00-0.172D+00-0.798D-02-0.799D-02 0.653D+00 0.403D+00
 Gap=     0.024 Goal=   None    Shift=    0.000
 RMSDP=8.31D-04 MaxDP=4.44D-02 DE= 1.27D-03 OVMax= 6.36D-02

 Cycle   7  Pass 1  IDiag  1:
 E= -649.165598444182     Delta-E=       -0.001966361973 Rises=F Damp=F
 DIIS: error= 2.94D-04 at cycle   7 NSaved=   7.
 NSaved= 7 IEnMin= 7 EnMin= -649.165598444182     IErMin= 7 ErrMin= 2.94D-04
 ErrMax= 2.94D-04  0.00D+00 EMaxC= 1.00D-01 BMatC= 9.54D-06 BMatP= 1.83D-04
 IDIUse=3 WtCom= 9.97D-01 WtEn= 2.94D-03
 Coeff-Com:  0.365D-01-0.495D-01-0.480D-02-0.153D-01 0.171D+00 0.192D+00
 Coeff-Com:  0.670D+00
 Coeff-En:   0.000D+00 0.000D+00 0.000D+00 0.000D+00 0.000D+00 0.000D+00
 Coeff-En:   0.100D+01
 Coeff:      0.364D-01-0.494D-01-0.479D-02-0.153D-01 0.170D+00 0.192D+00
 Coeff:      0.671D+00
 Gap=     0.025 Goal=   None    Shift=    0.000
 RMSDP=1.38D-04 MaxDP=6.06D-03 DE=-1.97D-03 OVMax= 1.41D-02

 Cycle   8  Pass 1  IDiag  1:
 E= -649.165647034265     Delta-E=       -0.000048590083 Rises=F Damp=F
 DIIS: error= 1.56D-04 at cycle   8 NSaved=   8.
 NSaved= 8 IEnMin= 8 EnMin= -649.165647034265     IErMin= 8 ErrMin= 1.56D-04
 ErrMax= 1.56D-04  0.00D+00 EMaxC= 1.00D-01 BMatC= 9.37D-07 BMatP= 9.54D-06
 IDIUse=3 WtCom= 9.98D-01 WtEn= 1.56D-03
 Coeff-Com:  0.106D-02-0.127D-02-0.285D-02-0.211D-02 0.163D-01 0.490D-01
 Coeff-Com:  0.231D+00 0.708D+00
 Coeff-En:   0.000D+00 0.000D+00 0.000D+00 0.000D+00 0.000D+00 0.000D+00
 Coeff-En:   0.000D+00 0.100D+01
 Coeff:      0.106D-02-0.127D-02-0.285D-02-0.211D-02 0.163D-01 0.489D-01
 Coeff:      0.231D+00 0.709D+00
 Gap=     0.025 Goal=   None    Shift=    0.000
 RMSDP=3.25D-05 MaxDP=8.91D-04 DE=-4.86D-05 OVMax= 2.50D-03

 Cycle   9  Pass 1  IDiag  1:
 E= -649.165653309424     Delta-E=       -0.000006275159 Rises=F Damp=F
 DIIS: error= 8.09D-05 at cycle   9 NSaved=   9.
 NSaved= 9 IEnMin= 9 EnMin= -649.165653309424     IErMin= 9 ErrMin= 8.09D-05
 ErrMax= 8.09D-05  0.00D+00 EMaxC= 1.00D-01 BMatC= 3.02D-07 BMatP= 9.37D-07
 IDIUse=1 WtCom= 1.00D+00 WtEn= 0.00D+00
 Coeff-Com: -0.475D-02 0.652D-02-0.181D-02 0.161D-02-0.110D-01 0.121D-01
 Coeff-Com:  0.698D-01 0.230D+00 0.698D+00
 Coeff:     -0.475D-02 0.652D-02-0.181D-02 0.161D-02-0.110D-01 0.121D-01
 Coeff:      0.698D-01 0.230D+00 0.698D+00
 Gap=     0.025 Goal=   None    Shift=    0.000
 RMSDP=1.44D-05 MaxDP=4.87D-04 DE=-6.28D-06 OVMax= 1.48D-03

 Cycle  10  Pass 1  IDiag  1:
 E= -649.165652327706     Delta-E=        0.000000981718 Rises=F Damp=F
 DIIS: error= 8.88D-05 at cycle  10 NSaved=  10.
 NSaved=10 IEnMin= 9 EnMin= -649.165653309424     IErMin= 9 ErrMin= 8.09D-05
 ErrMax= 8.88D-05  0.00D+00 EMaxC= 1.00D-01 BMatC= 3.84D-07 BMatP= 3.02D-07
 IDIUse=1 WtCom= 1.00D+00 WtEn= 0.00D+00
 Coeff-Com: -0.469D-02 0.648D-02-0.151D-02 0.275D-02-0.103D-01 0.102D-01
 Coeff-Com:  0.236D-01-0.359D-02 0.273D+00 0.704D+00
 Coeff:     -0.469D-02 0.648D-02-0.151D-02 0.275D-02-0.103D-01 0.102D-01
 Coeff:      0.236D-01-0.359D-02 0.273D+00 0.704D+00
 Gap=     0.025 Goal=   None    Shift=    0.000
 RMSDP=5.10D-06 MaxDP=1.30D-04 DE= 9.82D-07 OVMax= 3.94D-04

 Cycle  11  Pass 1  IDiag  1:
 E= -649.165652522364     Delta-E=       -0.000000194658 Rises=F Damp=F
 DIIS: error= 8.68D-05 at cycle  11 NSaved=  11.
 NSaved=11 IEnMin= 9 EnMin= -649.165653309424     IErMin= 9 ErrMin= 8.09D-05
 ErrMax= 8.68D-05  0.00D+00 EMaxC= 1.00D-01 BMatC= 3.57D-07 BMatP= 3.02D-07
 IDIUse=1 WtCom= 1.00D+00 WtEn= 0.00D+00
 Coeff-Com: -0.267D-02 0.375D-02-0.139D-02 0.266D-02-0.203D-02 0.169D-01
 Coeff-Com:  0.319D-01-0.317D-01-0.221D-01-0.120D+00 0.113D+01
 Coeff:     -0.267D-02 0.375D-02-0.139D-02 0.266D-02-0.203D-02 0.169D-01
 Coeff:      0.319D-01-0.317D-01-0.221D-01-0.120D+00 0.113D+01
 Gap=     0.025 Goal=   None    Shift=    0.000
 RMSDP=5.34D-06 MaxDP=3.22D-04 DE=-1.95D-07 OVMax= 5.60D-04

 Cycle  12  Pass 1  IDiag  1:
 E= -649.165653637850     Delta-E=       -0.000001115486 Rises=F Damp=F
 DIIS: error= 7.01D-05 at cycle  12 NSaved=  12.
 NSaved=12 IEnMin=12 EnMin= -649.165653637850     IErMin=12 ErrMin= 7.01D-05
 ErrMax= 7.01D-05  0.00D+00 EMaxC= 1.00D-01 BMatC= 2.36D-07 BMatP= 3.02D-07
 IDIUse=1 WtCom= 1.00D+00 WtEn= 0.00D+00
 Coeff-Com: -0.526D-03 0.710D-03-0.448D-03 0.754D-03 0.936D-03 0.271D-02
 Coeff-Com:  0.664D-02 0.271D-01 0.130D+00-0.535D+00-0.259D+01 0.396D+01
 Coeff:     -0.526D-03 0.710D-03-0.448D-03 0.754D-03 0.936D-03 0.271D-02
 Coeff:      0.664D-02 0.271D-01 0.130D+00-0.535D+00-0.259D+01 0.396D+01
 Gap=     0.025 Goal=   None    Shift=    0.000
 RMSDP=1.45D-05 MaxDP=8.26D-04 DE=-1.12D-06 OVMax= 1.63D-03

 Cycle  13  Pass 1  IDiag  1:
 E= -649.165655504566     Delta-E=       -0.000001866717 Rises=F Damp=F
 DIIS: error= 2.63D-05 at cycle  13 NSaved=  13.
 NSaved=13 IEnMin=13 EnMin= -649.165655504566     IErMin=13 ErrMin= 2.63D-05
 ErrMax= 2.63D-05  0.00D+00 EMaxC= 1.00D-01 BMatC= 3.21D-08 BMatP= 2.36D-07
 IDIUse=1 WtCom= 1.00D+00 WtEn= 0.00D+00
 Coeff-Com: -0.335D-03 0.435D-03-0.419D-04 0.104D-03-0.118D-02-0.330D-02
 Coeff-Com: -0.739D-02 0.308D-01 0.121D+00 0.174D+00-0.248D+01 0.234D+01
 Coeff-Com:  0.831D+00
 Coeff:     -0.335D-03 0.435D-03-0.419D-04 0.104D-03-0.118D-02-0.330D-02
 Coeff:     -0.739D-02 0.308D-01 0.121D+00 0.174D+00-0.248D+01 0.234D+01
 Coeff:      0.831D+00
 Gap=     0.025 Goal=   None    Shift=    0.000
 RMSDP=7.36D-06 MaxDP=4.05D-04 DE=-1.87D-06 OVMax= 8.08D-04

 Cycle  14  Pass 1  IDiag  1:
 E= -649.165655789907     Delta-E=       -0.000000285340 Rises=F Damp=F
 DIIS: error= 2.47D-06 at cycle  14 NSaved=  14.
 NSaved=14 IEnMin=14 EnMin= -649.165655789907     IErMin=14 ErrMin= 2.47D-06
 ErrMax= 2.47D-06  0.00D+00 EMaxC= 1.00D-01 BMatC= 2.48D-10 BMatP= 3.21D-08
 IDIUse=1 WtCom= 1.00D+00 WtEn= 0.00D+00
 Coeff-Com: -0.103D-03 0.137D-03-0.122D-05 0.314D-04-0.499D-03-0.855D-03
 Coeff-Com: -0.187D-02-0.588D-02 0.256D-01 0.111D+00-0.168D+00-0.142D-01
 Coeff-Com:  0.790D-01 0.976D+00
 Coeff:     -0.103D-03 0.137D-03-0.122D-05 0.314D-04-0.499D-03-0.855D-03
 Coeff:     -0.187D-02-0.588D-02 0.256D-01 0.111D+00-0.168D+00-0.142D-01
 Coeff:      0.790D-01 0.976D+00
 Gap=     0.025 Goal=   None    Shift=    0.000
 RMSDP=9.10D-07 MaxDP=2.51D-05 DE=-2.85D-07 OVMax= 8.48D-05

 Cycle  15  Pass 1  IDiag  1:
 E= -649.165655792461     Delta-E=       -0.000000002554 Rises=F Damp=F
 DIIS: error= 6.59D-07 at cycle  15 NSaved=  15.
 NSaved=15 IEnMin=15 EnMin= -649.165655792461     IErMin=15 ErrMin= 6.59D-07
 ErrMax= 6.59D-07  0.00D+00 EMaxC= 1.00D-01 BMatC= 1.79D-11 BMatP= 2.48D-10
 IDIUse=1 WtCom= 1.00D+00 WtEn= 0.00D+00
 Coeff-Com: -0.886D-05 0.119D-04 0.637D-06 0.306D-05-0.844D-04-0.103D-03
 Coeff-Com:  0.869D-04-0.172D-02 0.198D-02 0.219D-01 0.733D-01-0.117D+00
 Coeff-Com: -0.356D-01 0.130D+00 0.927D+00
 Coeff:     -0.886D-05 0.119D-04 0.637D-06 0.306D-05-0.844D-04-0.103D-03
 Coeff:      0.869D-04-0.172D-02 0.198D-02 0.219D-01 0.733D-01-0.117D+00
 Coeff:     -0.356D-01 0.130D+00 0.927D+00
 Gap=     0.025 Goal=   None    Shift=    0.000
 RMSDP=2.84D-07 MaxDP=1.10D-05 DE=-2.55D-09 OVMax= 2.88D-05

 Cycle  16  Pass 1  IDiag  1:
 E= -649.165655792647     Delta-E=       -0.000000000186 Rises=F Damp=F
 DIIS: error= 3.22D-08 at cycle  16 NSaved=  16.
 NSaved=16 IEnMin=16 EnMin= -649.165655792647     IErMin=16 ErrMin= 3.22D-08
 ErrMax= 3.22D-08  0.00D+00 EMaxC= 1.00D-01 BMatC= 5.94D-14 BMatP= 1.79D-11
 IDIUse=1 WtCom= 1.00D+00 WtEn= 0.00D+00
 Coeff-Com: -0.827D-06 0.115D-05 0.595D-06-0.196D-06-0.438D-05 0.103D-04
 Coeff-Com:  0.447D-04 0.178D-03-0.404D-03-0.162D-02 0.853D-02-0.627D-02
 Coeff-Com: -0.449D-02-0.302D-01 0.632D-01 0.971D+00
 Coeff:     -0.827D-06 0.115D-05 0.595D-06-0.196D-06-0.438D-05 0.103D-04
 Coeff:      0.447D-04 0.178D-03-0.404D-03-0.162D-02 0.853D-02-0.627D-02
 Coeff:     -0.449D-02-0.302D-01 0.632D-01 0.971D+00
 Gap=     0.025 Goal=   None    Shift=    0.000
 RMSDP=4.54D-08 MaxDP=9.29D-07 DE=-1.86D-10 OVMax= 3.55D-06

 Cycle  17  Pass 1  IDiag  1:
 E= -649.165655792646     Delta-E=        0.000000000001 Rises=F Damp=F
 DIIS: error= 4.99D-08 at cycle  17 NSaved=  17.
 NSaved=17 IEnMin=16 EnMin= -649.165655792647     IErMin=16 ErrMin= 3.22D-08
 ErrMax= 4.99D-08  0.00D+00 EMaxC= 1.00D-01 BMatC= 8.90D-14 BMatP= 5.94D-14
 IDIUse=1 WtCom= 1.00D+00 WtEn= 0.00D+00
 Coeff-Com: -0.107D-06 0.120D-06-0.486D-07-0.148D-07 0.241D-05 0.153D-04
 Coeff-Com:  0.207D-04 0.125D-03-0.210D-03-0.159D-02 0.147D-02 0.149D-02
 Coeff-Com: -0.292D-03-0.162D-01-0.372D-02 0.338D+00 0.680D+00
 Coeff:     -0.107D-06 0.120D-06-0.486D-07-0.148D-07 0.241D-05 0.153D-04
 Coeff:      0.207D-04 0.125D-03-0.210D-03-0.159D-02 0.147D-02 0.149D-02
 Coeff:     -0.292D-03-0.162D-01-0.372D-02 0.338D+00 0.680D+00
 Gap=     0.025 Goal=   None    Shift=    0.000
 RMSDP=1.65D-08 MaxDP=8.69D-07 DE= 1.25D-12 OVMax= 1.74D-06

 Cycle  18  Pass 1  IDiag  1:
 E= -649.165655792649     Delta-E=       -0.000000000003 Rises=F Damp=F
 DIIS: error= 6.23D-09 at cycle  18 NSaved=  18.
 NSaved=18 IEnMin=18 EnMin= -649.165655792649     IErMin=18 ErrMin= 6.23D-09
 ErrMax= 6.23D-09  0.00D+00 EMaxC= 1.00D-01 BMatC= 1.31D-15 BMatP= 5.94D-14
 IDIUse=1 WtCom= 1.00D+00 WtEn= 0.00D+00
 Large coefficients: NSaved= 18 BigCof=    0.00 CofMax=   10.00 Det=-6.80D-15
 Inversion failed.  Reducing to 17 matrices.
 Large coefficients: NSaved= 17 BigCof=    0.00 CofMax=   10.00 Det=-6.94D-15
 Inversion failed.  Reducing to 16 matrices.
 Large coefficients: NSaved= 16 BigCof=    0.00 CofMax=   10.00 Det=-6.94D-15
 Inversion failed.  Reducing to 15 matrices.
 Coeff-Com: -0.971D-08 0.358D-06-0.109D-06-0.325D-05 0.962D-05-0.201D-04
 Coeff-Com: -0.122D-03-0.694D-03 0.973D-03 0.370D-03-0.281D-03-0.864D-02
 Coeff-Com: -0.197D-01 0.119D+00 0.909D+00
 Coeff:     -0.971D-08 0.358D-06-0.109D-06-0.325D-05 0.962D-05-0.201D-04
 Coeff:     -0.122D-03-0.694D-03 0.973D-03 0.370D-03-0.281D-03-0.864D-02
 Coeff:     -0.197D-01 0.119D+00 0.909D+00
 Gap=     0.025 Goal=   None    Shift=    0.000
 RMSDP=1.96D-09 MaxDP=1.09D-07 DE=-3.30D-12 OVMax= 2.02D-07

 SCF Done:  E(RB3LYP) =  -649.165655793     A.U. after   18 cycles
            NFock= 18  Conv=0.20D-08     -V/T= 2.0031
 KE= 6.471868433218D+02 PE=-1.697632618797D+03 EE= 3.318243310881D+02
 Leave Link  502 at Wed Oct  4 14:15:42 2023, MaxMem=  1610612736 cpu:             195.0 elap:             110.2
 (Enter /home/sekinelabo/g16/l601.exe)
 Copying SCF densities to generalized density rwf, IOpCl= 0 IROHF=0.

 **********************************************************************

            Population analysis using the SCF Density.

 **********************************************************************

 Orbital symmetries:
       Occupied  (A) (A) (A) (A) (A) (A) (A) (A) (A) (A) (A) (A)
                 (A) (A) (A) (A) (A) (A) (A) (A) (A) (A)
       Virtual   (A) (A) (A) (A) (A) (A) (A) (A) (A) (A) (A) (A)
                 (A) (A) (A) (A) (A) (A) (A) (A) (A) (A) (A) (A)
                 (A) (A) (A) (A) (A) (A) (A) (A) (A) (A) (A) (A)
                 (A) (A) (A) (A) (A) (A) (A) (A) (A) (A) (A) (A)
                 (A) (A) (A) (A) (A) (A) (A) (A) (A) (A) (A) (A)
                 (A) (A) (A) (A) (A) (A) (A) (A) (A) (A) (A) (A)
                 (A) (A) (A) (A) (A) (A) (A) (A) (A) (A) (A) (A)
                 (A) (A) (A) (A) (A) (A) (A) (A) (A) (A) (A) (A)
                 (A) (A)
 The electronic state is 1-A.
 Alpha  occ. eigenvalues --  -38.46654 -38.45955 -38.45631 -38.45078  -2.22331
 Alpha  occ. eigenvalues --   -2.21632  -2.21320  -2.20767  -1.16016  -1.15981
 Alpha  occ. eigenvalues --   -1.15976  -1.15309  -1.15309  -1.15274  -1.15016
 Alpha  occ. eigenvalues --   -1.14989  -1.14937  -1.14447  -1.14447  -1.14398
 Alpha  occ. eigenvalues --   -0.13305  -0.10875
 Alpha virt. eigenvalues --   -0.08402  -0.06489  -0.02756  -0.02646  -0.02252
 Alpha virt. eigenvalues --   -0.01690  -0.01347  -0.00785  -0.00685  -0.00334
 Alpha virt. eigenvalues --    0.00143   0.00416   0.00684   0.00824   0.01097
 Alpha virt. eigenvalues --    0.01312   0.01517   0.01633   0.01686   0.01912
 Alpha virt. eigenvalues --    0.01948   0.02022   0.02164   0.02439   0.02639
 Alpha virt. eigenvalues --    0.02711   0.02974   0.03030   0.03721   0.03881
 Alpha virt. eigenvalues --    0.06760   0.07035   0.07699   0.07877   0.08119
 Alpha virt. eigenvalues --    0.08182   0.08357   0.08379   0.08547   0.09206
 Alpha virt. eigenvalues --    0.09653   0.10247   0.10747   0.11434   0.12386
 Alpha virt. eigenvalues --    0.12636   0.30750   0.30994   0.31324   0.33255
 Alpha virt. eigenvalues --    0.33311   0.33583   0.34340   0.34550   0.34644
 Alpha virt. eigenvalues --    0.34913   0.35140   0.35212   0.35350   0.35577
 Alpha virt. eigenvalues --    0.36103   0.37361   0.38541   0.38632   0.40123
 Alpha virt. eigenvalues --    0.41273   0.42274   0.42714   0.43396   0.43562
 Alpha virt. eigenvalues --    0.43806   0.44183   0.44918   0.45909   0.46978
 Alpha virt. eigenvalues --    0.47619   0.49230   0.51266   1.99832   2.01362
 Alpha virt. eigenvalues --    2.03690   2.06583   4.42239   4.42369   4.42702
 Alpha virt. eigenvalues --    4.42726   4.43134   4.43430   4.43736   4.43946
 Alpha virt. eigenvalues --    4.44251   4.44758   4.45909   4.48344  96.18678
 Alpha virt. eigenvalues --   96.20525  96.23230  96.26448
          Condensed to atoms (all electrons):
               1          2          3          4
     1  Na  10.725642   0.129289   0.151839  -0.053850
     2  Na   0.129289  10.984767  -0.049510  -0.044485
     3  Na   0.151839  -0.049510  10.699414   0.196812
     4  Na  -0.053850  -0.044485   0.196812  10.929985
 Mulliken charges:
               1
     1  Na   0.047080
     2  Na  -0.020061
     3  Na   0.001444
     4  Na  -0.028463
 Sum of Mulliken charges =  -0.00000
 Mulliken charges with hydrogens summed into heavy atoms:
               1
     1  Na   0.047080
     2  Na  -0.020061
     3  Na   0.001444
     4  Na  -0.028463
 Electronic spatial extent (au):  <R**2>=           2436.6144
 Charge=             -0.0000 electrons
 Dipole moment (field-independent basis, Debye):
    X=             -0.4063    Y=              0.7100    Z=              0.0184  Tot=              0.8183
 Quadrupole moment (field-independent basis, Debye-Ang):
   XX=            -40.5095   YY=            -34.1402   ZZ=            -44.7183
   XY=              3.5533   XZ=             -1.7612   YZ=             -1.6797
 Traceless Quadrupole moment (field-independent basis, Debye-Ang):
   XX=             -0.7202   YY=              5.6491   ZZ=             -4.9290
   XY=              3.5533   XZ=             -1.7612   YZ=             -1.6797
 Octapole moment (field-independent basis, Debye-Ang**2):
  XXX=             22.4012  YYY=             33.6546  ZZZ=              3.7315  XYY=            -12.2467
  XXY=            -14.5857  XXZ=            -22.3634  XZZ=              2.5735  YZZ=             -0.7950
  YYZ=              2.4008  XYZ=             -1.8559
 Hexadecapole moment (field-independent basis, Debye-Ang**3):
 XXXX=          -3084.7945 YYYY=           -595.5479 ZZZZ=           -297.4772 XXXY=            120.9514
 XXXZ=            -65.5343 YYYX=              2.6720 YYYZ=             -9.7358 ZZZX=             -9.8346
 ZZZY=            -11.6185 XXYY=           -719.5681 XXZZ=           -658.7377 YYZZ=           -161.5134
 XXYZ=             14.7409 YYXZ=             -1.0811 ZZXY=              5.1351
 N-N= 6.945578859459D+01 E-N=-1.697632618984D+03  KE= 6.471868433218D+02
 No NMR shielding tensors so no spin-rotation constants.
 Leave Link  601 at Wed Oct  4 14:15:46 2023, MaxMem=  1610612736 cpu:               8.3 elap:               4.5
 (Enter /home/sekinelabo/g16/l701.exe)
 ... and contract with generalized density number  0.
 Compute integral first derivatives.
 Leave Link  701 at Wed Oct  4 14:15:51 2023, MaxMem=  1610612736 cpu:               7.5 elap:               4.4
 (Enter /home/sekinelabo/g16/l702.exe)
 L702 exits ... SP integral derivatives will be done elsewhere.
 Leave Link  702 at Wed Oct  4 14:15:51 2023, MaxMem=  1610612736 cpu:               0.7 elap:               0.5
 (Enter /home/sekinelabo/g16/l703.exe)
 Integral derivatives from FoFJK, PRISM(SPDF).
 Compute integral first derivatives, UseDBF=F ICtDFT=           0.
 Calling FoFJK, ICntrl=      2127 FMM=F ISym2X=0 I1Cent= 0 IOpClX= 0 NMat=1 NMatS=1 NMatT=0.
 FoFJK:  IHMeth= 1 ICntrl=    2127 DoSepK=F KAlg= 0 I1Cent=           0 FoldK=F
 IRaf=         0 NMat=       1 IRICut=       1 DoRegI=T DoRafI=F ISym2E= 0 IDoP0=0 IntGTp=1.
 FoFCou: FMM=F IPFlag=           0 FMFlag=      100000 FMFlg1=         800
         NFxFlg=           0 DoJE=F BraDBF=F KetDBF=F FulRan=T
         wScrn=  0.000000 ICntrl=      2127 IOpCl=  0 I1Cent=           0 NGrid=           0
         NMat0=    1 NMatS0=      1 NMatT0=    0 NMatD0=    1 NMtDS0=    0 NMtDT0=    0
 Symmetry not used in FoFCou.
 Leave Link  703 at Wed Oct  4 14:15:58 2023, MaxMem=  1610612736 cpu:              12.4 elap:               7.0
 (Enter /home/sekinelabo/g16/l716.exe)
 Dipole        =-1.59868542D-01 2.79339835D-01 7.23967906D-03
 ***** Axes restored to original set *****
 -------------------------------------------------------------------
 Center     Atomic                   Forces (Hartrees/Bohr)
 Number     Number              X              Y              Z
 -------------------------------------------------------------------
      1       11          -0.004428307   -0.000114902    0.005649824
      2       11           0.004877760    0.000111617   -0.000945013
      3       11           0.004678442   -0.003643268   -0.003194102
      4       11          -0.005127896    0.003646553   -0.001510708
 -------------------------------------------------------------------
 Cartesian Forces:  Max     0.005649824 RMS     0.003690981
 Z-matrix is all fixed cartesians, so copy forces.
 Force constants in Cartesian coordinates: 
                1             2             3             4             5 
      1  0.000000D+00
      2  0.000000D+00  0.000000D+00
      3  0.000000D+00  0.000000D+00  0.102125D-01
      4  0.000000D+00  0.000000D+00  0.000000D+00  0.100000D+01
      5  0.000000D+00  0.000000D+00  0.000000D+00  0.000000D+00  0.100000D+01
      6  0.000000D+00  0.000000D+00  0.000000D+00  0.000000D+00  0.000000D+00
      7  0.000000D+00  0.000000D+00  0.000000D+00  0.000000D+00  0.000000D+00
      8  0.000000D+00  0.000000D+00  0.000000D+00  0.000000D+00  0.000000D+00
      9  0.000000D+00  0.000000D+00 -0.102125D-01  0.000000D+00  0.000000D+00
     10  0.000000D+00  0.000000D+00  0.000000D+00  0.000000D+00  0.000000D+00
     11  0.000000D+00  0.000000D+00  0.000000D+00  0.000000D+00  0.000000D+00
     12  0.000000D+00  0.000000D+00  0.000000D+00  0.000000D+00  0.000000D+00
                6             7             8             9            10 
      6  0.100000D+01
      7  0.000000D+00  0.000000D+00
      8  0.000000D+00  0.000000D+00  0.000000D+00
      9  0.000000D+00  0.000000D+00  0.000000D+00  0.102125D-01
     10  0.000000D+00  0.000000D+00  0.000000D+00  0.000000D+00  0.100000D+01
     11  0.000000D+00  0.000000D+00  0.000000D+00  0.000000D+00  0.000000D+00
     12  0.000000D+00  0.000000D+00  0.000000D+00  0.000000D+00  0.000000D+00
               11            12 
     11  0.100000D+01
     12  0.000000D+00  0.100000D+01
 Leave Link  716 at Wed Oct  4 14:15:59 2023, MaxMem=  1610612736 cpu:               0.7 elap:               0.5
 (Enter /home/sekinelabo/g16/l103.exe)

 GradGradGradGradGradGradGradGradGradGradGradGradGradGradGradGradGradGrad
 Berny optimization.
 Search for a local minimum.
 Step number   1 out of a maximum of    2
 All quantities printed in internal units (Hartrees-Bohrs-Radians)
 Second derivative matrix not updated -- first step.
 The second derivative matrix:
                          X1        Y1        Z1        X2        Y2
           X1           0.00000
           Y1          -0.00000   0.00000
           Z1          -0.00000   0.00000   0.01021
           X2           0.00000   0.00000   0.00000   1.00000
           Y2           0.00000   0.00000   0.00000   0.00000   1.00000
           Z2           0.00000   0.00000   0.00000  -0.00000   0.00000
           X3          -0.00000   0.00000   0.00000   0.00000   0.00000
           Y3           0.00000   0.00000  -0.00000   0.00000   0.00000
           Z3           0.00000  -0.00000  -0.01021   0.00000   0.00000
           X4           0.00000   0.00000   0.00000   0.00000   0.00000
           Y4           0.00000   0.00000   0.00000   0.00000   0.00000
           Z4           0.00000   0.00000   0.00000   0.00000   0.00000
                          Z2        X3        Y3        Z3        X4
           Z2           1.00000
           X3           0.00000   0.00000
           Y3           0.00000  -0.00000   0.00000
           Z3           0.00000  -0.00000   0.00000   0.01021
           X4           0.00000   0.00000   0.00000   0.00000   1.00000
           Y4           0.00000   0.00000   0.00000   0.00000   0.00000
           Z4           0.00000   0.00000   0.00000   0.00000  -0.00000
                          Y4        Z4
           Y4           1.00000
           Z4           0.00000   1.00000
 ITU=  0
     Eigenvalues ---    0.02043   0.13591   0.34035   0.50000   0.53549
     Eigenvalues ---    1.00000
 Quadratic step=3.113D-01 exceeds max=3.000D-01 adjusted using Lamda=-7.930D-04.
 Angle between NR and scaled steps=   0.34 degrees.
 Angle between quadratic step and forces=  52.37 degrees.
 Linear search not attempted -- first point.
 B after Tr=     0.000000    0.000000    0.000000
         Rot=    1.000000   -0.000000   -0.000000    0.000000 Ang=   0.00 deg.
 Variable       Old X    -DE/DX   Delta X   Delta X   Delta X     New X
                                 (Linear)    (Quad)   (Total)
    X1        0.00000  -0.00443   0.00000  -0.03160  -0.03160  -0.03160
    Y1        0.00000  -0.00011   0.00000   0.00615   0.00615   0.00615
    Z1       -0.00000   0.00565   0.00000   0.21164   0.21164   0.21164
    X2       -9.83663   0.00488   0.00000   0.00639   0.00639  -9.83025
    Y2       -0.00000   0.00011   0.00000   0.00055   0.00055   0.00055
    Z2        2.42801  -0.00095   0.00000  -0.01387  -0.01387   2.41415
    X3       -0.00000   0.00468   0.00000   0.03677   0.03677   0.03677
    Y3        0.00000  -0.00364   0.00000  -0.01536  -0.01536  -0.01536
    Z3        7.60540  -0.00319   0.00000  -0.20517  -0.20517   7.40022
    X4        6.74223  -0.00513   0.00000  -0.01156  -0.01156   6.73068
    Y4       -4.58059   0.00365   0.00000   0.00866   0.00866  -4.57193
    Z4        9.42197  -0.00151   0.00000   0.00740   0.00740   9.42937
         Item               Value     Threshold  Converged?
 Maximum Force            0.005650     0.000450     NO 
 RMS     Force            0.003691     0.000300     NO 
 Maximum Displacement     0.211640     0.001800     NO 
 RMS     Displacement     0.086606     0.001200     NO 
 Predicted change in Energy=-1.206831D-03
 GradGradGradGradGradGradGradGradGradGradGradGradGradGradGradGradGradGrad

 Leave Link  103 at Wed Oct  4 14:16:01 2023, MaxMem=  1610612736 cpu:               3.6 elap:               2.2
 (Enter /home/sekinelabo/g16/l9999.exe)
 1\1\GINC-SEKINELABO-XA7R-R37\Force\RB3LYP\6-311+G(d)\Na4\SEKINELABO\04
 -Oct-2023\0\\#p B3LYP/6-311+g(d) force\\\0,1\Na,0.,0.,0.\Na,-5.2053211
 295,0.,1.2848496367\Na,0.,0.,4.0246021386\Na,3.5678366662,-2.423944626
 9,4.9858937822\\Version=ES64L-G16RevB.01\State=1-A\HF=-649.1656558\RMS
 D=1.962e-09\RMSF=3.691e-03\Dipole=-0.0043696,0.0790968,-0.3120348\Quad
 rupole=2.0880852,-3.2021643,1.1140791,-1.8702022,-3.8079821,0.0710833\
 PG=C01 [X(Na4)]\\@


 TO ERR IS HUMAN - AND TO BLAME IT ON A COMPUTER IS EVEN MORE SO.
 Job cpu time:       0 days  0 hours  4 minutes 33.1 seconds.
 Elapsed time:       0 days  0 hours  2 minutes 34.4 seconds.
 File lengths (MBytes):  RWF=     10 Int=      0 D2E=      0 Chk=      2 Scr=      1
 Normal termination of Gaussian 16 at Wed Oct  4 14:16:02 2023.
 Initial command:
 /home/sekinelabo/g16/l1.exe "/home/sekinelabo/g16temp/Gau-8196.inp" -scrdir="/home/sekinelabo/g16temp/"
 Entering Link 1 = /home/sekinelabo/g16/l1.exe PID=     13216.
  
 Copyright (c) 1988-2017, Gaussian, Inc.  All Rights Reserved.
  
 This is part of the Gaussian(R) 16 program.  It is based on
 the Gaussian(R) 09 system (copyright 2009, Gaussian, Inc.),
 the Gaussian(R) 03 system (copyright 2003, Gaussian, Inc.),
 the Gaussian(R) 98 system (copyright 1998, Gaussian, Inc.),
 the Gaussian(R) 94 system (copyright 1995, Gaussian, Inc.),
 the Gaussian 92(TM) system (copyright 1992, Gaussian, Inc.),
 the Gaussian 90(TM) system (copyright 1990, Gaussian, Inc.),
 the Gaussian 88(TM) system (copyright 1988, Gaussian, Inc.),
 the Gaussian 86(TM) system (copyright 1986, Carnegie Mellon
 University), and the Gaussian 82(TM) system (copyright 1983,
 Carnegie Mellon University). Gaussian is a federally registered
 trademark of Gaussian, Inc.
  
 This software contains proprietary and confidential information,
 including trade secrets, belonging to Gaussian, Inc.
  
 This software is provided under written license and may be
 used, copied, transmitted, or stored only in accord with that
 written license.
  
 The following legend is applicable only to US Government
 contracts under FAR:
  
                    RESTRICTED RIGHTS LEGEND
  
 Use, reproduction and disclosure by the US Government is
 subject to restrictions as set forth in subparagraphs (a)
 and (c) of the Commercial Computer Software - Restricted
 Rights clause in FAR 52.227-19.
  
 Gaussian, Inc.
 340 Quinnipiac St., Bldg. 40, Wallingford CT 06492
  
  
 ---------------------------------------------------------------
 Warning -- This program may not be used in any manner that
 competes with the business of Gaussian, Inc. or will provide
 assistance to any competitor of Gaussian, Inc.  The licensee
 of this program is prohibited from giving any competitor of
 Gaussian, Inc. access to this program.  By using this program,
 the user acknowledges that Gaussian, Inc. is engaged in the
 business of creating and licensing software in the field of
 computational chemistry and represents and warrants to the
 licensee that it is not a competitor of Gaussian, Inc. and that
 it will not use this program in any manner prohibited above.
 ---------------------------------------------------------------
  

 Cite this work as:
 Gaussian 16, Revision B.01,
 M. J. Frisch, G. W. Trucks, H. B. Schlegel, G. E. Scuseria, 
 M. A. Robb, J. R. Cheeseman, G. Scalmani, V. Barone, 
 G. A. Petersson, H. Nakatsuji, X. Li, M. Caricato, A. V. Marenich, 
 J. Bloino, B. G. Janesko, R. Gomperts, B. Mennucci, H. P. Hratchian, 
 J. V. Ortiz, A. F. Izmaylov, J. L. Sonnenberg, D. Williams-Young, 
 F. Ding, F. Lipparini, F. Egidi, J. Goings, B. Peng, A. Petrone, 
 T. Henderson, D. Ranasinghe, V. G. Zakrzewski, J. Gao, N. Rega, 
 G. Zheng, W. Liang, M. Hada, M. Ehara, K. Toyota, R. Fukuda, 
 J. Hasegawa, M. Ishida, T. Nakajima, Y. Honda, O. Kitao, H. Nakai, 
 T. Vreven, K. Throssell, J. A. Montgomery, Jr., J. E. Peralta, 
 F. Ogliaro, M. J. Bearpark, J. J. Heyd, E. N. Brothers, K. N. Kudin, 
 V. N. Staroverov, T. A. Keith, R. Kobayashi, J. Normand, 
 K. Raghavachari, A. P. Rendell, J. C. Burant, S. S. Iyengar, 
 J. Tomasi, M. Cossi, J. M. Millam, M. Klene, C. Adamo, R. Cammi, 
 J. W. Ochterski, R. L. Martin, K. Morokuma, O. Farkas, 
 J. B. Foresman, and D. J. Fox, Gaussian, Inc., Wallingford CT, 2016.
 
 ******************************************
 Gaussian 16:  ES64L-G16RevB.01 20-Dec-2017
                 4-Oct-2023 
 ******************************************
 %NProcShared=16
 Will use up to   16 processors via shared memory.
 %mem=12GB
 %Chk=checkpoint.chk
 -------------------------
 #p B3LYP/6-311+g(d) force
 -------------------------
 1/10=7,30=1,38=1/1,3;
 2/12=2,17=6,18=5,40=1/2;
 3/5=4,6=6,7=11,11=2,25=1,30=1,71=1,74=-5/1,2,3;
 4//1;
 5/5=2,38=5/2;
 6/7=2,8=2,9=2,10=2,28=1/1;
 7/29=1/1,2,3,16;
 1/10=7,30=1/3;
 99//99;
 Leave Link    1 at Wed Oct  4 14:16:02 2023, MaxMem=  1610612736 cpu:               0.5 elap:               0.3
 (Enter /home/sekinelabo/g16/l101.exe)


 Symbolic Z-matrix:
 Charge =  0 Multiplicity = 1
 Na                    0.        0.        0. 
 Na                   -2.57464   0.        2.53554 
 Na                    0.        0.        5.36154 
 Na                   -2.53541  -0.50141   6.7126 
 
 ITRead=  0  0  0  0
 MicOpt= -1 -1 -1 -1
 NAtoms=      4 NQM=        4 NQMF=       0 NMMI=      0 NMMIF=      0
                NMic=       0 NMicF=      0.
                    Isotopes and Nuclear Properties:
 (Nuclear quadrupole moments (NQMom) in fm**2, nuclear magnetic moments (NMagM)
  in nuclear magnetons)

  Atom         1           2           3           4
 IAtWgt=          23          23          23          23
 AtmWgt=  22.9897697  22.9897697  22.9897697  22.9897697
 NucSpn=           3           3           3           3
 AtZEff=  -0.0000000  -0.0000000  -0.0000000  -0.0000000
 NQMom=   10.4000000  10.4000000  10.4000000  10.4000000
 NMagM=    2.2175200   2.2175200   2.2175200   2.2175200
 AtZNuc=  11.0000000  11.0000000  11.0000000  11.0000000
 Leave Link  101 at Wed Oct  4 14:16:03 2023, MaxMem=  1610612736 cpu:               2.1 elap:               1.2
 (Enter /home/sekinelabo/g16/l103.exe)

 GradGradGradGradGradGradGradGradGradGradGradGradGradGradGradGradGradGrad
 Berny optimization.
 Initialization pass.
 Trust Radius=3.00D-01 FncErr=1.00D-07 GrdErr=1.00D-07 EigMax=2.50D+02 EigMin=1.00D-04
 Number of steps in this run=      2 maximum allowed number of steps=      2.
 GradGradGradGradGradGradGradGradGradGradGradGradGradGradGradGradGradGrad

 Leave Link  103 at Wed Oct  4 14:16:04 2023, MaxMem=  1610612736 cpu:               0.5 elap:               0.3
 (Enter /home/sekinelabo/g16/l202.exe)
                          Input orientation:                          
[...]
 DIIS: error= 9.06D-06 at cycle   8 NSaved=   8.
 NSaved= 8 IEnMin= 8 EnMin= -649.191823513458     IErMin= 8 ErrMin= 9.06D-06
 ErrMax= 9.06D-06  0.00D+00 EMaxC= 1.00D-01 BMatC= 1.10D-08 BMatP= 3.65D-08
 IDIUse=1 WtCom= 1.00D+00 WtEn= 0.00D+00
 Coeff-Com:  0.952D-04-0.130D-03-0.293D-02-0.225D-02-0.191D-01-0.192D-01
 Coeff-Com:  0.339D+00 0.705D+00
 Coeff:      0.952D-04-0.130D-03-0.293D-02-0.225D-02-0.191D-01-0.192D-01
 Coeff:      0.339D+00 0.705D+00
 Gap=     0.034 Goal=   None    Shift=    0.000
 RMSDP=7.36D-06 MaxDP=1.88D-04 DE=-2.18D-07 OVMax= 5.29D-04

 Cycle   9  Pass 1  IDiag  1:
 E= -649.191823580771     Delta-E=       -0.000000067314 Rises=F Damp=F
 DIIS: error= 3.01D-06 at cycle   9 NSaved=   9.
 NSaved= 9 IEnMin= 9 EnMin= -649.191823580771     IErMin= 9 ErrMin= 3.01D-06
 ErrMax= 3.01D-06  0.00D+00 EMaxC= 1.00D-01 BMatC= 5.30D-10 BMatP= 1.10D-08
 IDIUse=1 WtCom= 1.00D+00 WtEn= 0.00D+00
 Coeff-Com:  0.951D-04-0.124D-03 0.573D-03 0.788D-03-0.900D-02-0.190D-01
 Coeff-Com: -0.715D-01-0.561D-01 0.115D+01
 Coeff:      0.951D-04-0.124D-03 0.573D-03 0.788D-03-0.900D-02-0.190D-01
 Coeff:     -0.715D-01-0.561D-01 0.115D+01
 Gap=     0.034 Goal=   None    Shift=    0.000
 RMSDP=5.42D-06 MaxDP=1.40D-04 DE=-6.73D-08 OVMax= 4.27D-04

 Cycle  10  Pass 1  IDiag  1:
 E= -649.191823596648     Delta-E=       -0.000000015877 Rises=F Damp=F
 DIIS: error= 9.44D-07 at cycle  10 NSaved=  10.
 NSaved=10 IEnMin=10 EnMin= -649.191823596648     IErMin=10 ErrMin= 9.44D-07
 ErrMax= 9.44D-07  0.00D+00 EMaxC= 1.00D-01 BMatC= 1.27D-10 BMatP= 5.30D-10
 IDIUse=1 WtCom= 1.00D+00 WtEn= 0.00D+00
 Coeff-Com: -0.505D-04 0.674D-04 0.413D-03 0.445D-03 0.296D-02 0.863D-03
 Coeff-Com: -0.656D-01-0.138D+00 0.205D+00 0.993D+00
 Coeff:     -0.505D-04 0.674D-04 0.413D-03 0.445D-03 0.296D-02 0.863D-03
 Coeff:     -0.656D-01-0.138D+00 0.205D+00 0.993D+00
 Gap=     0.034 Goal=   None    Shift=    0.000
 RMSDP=2.77D-06 MaxDP=7.15D-05 DE=-1.59D-08 OVMax= 1.83D-04

 Cycle  11  Pass 1  IDiag  1:
 E= -649.191823599105     Delta-E=       -0.000000002457 Rises=F Damp=F
 DIIS: error= 2.96D-07 at cycle  11 NSaved=  11.
 NSaved=11 IEnMin=11 EnMin= -649.191823599105     IErMin=11 ErrMin= 2.96D-07
 ErrMax= 2.96D-07  0.00D+00 EMaxC= 1.00D-01 BMatC= 1.38D-11 BMatP= 1.27D-10
 IDIUse=1 WtCom= 1.00D+00 WtEn= 0.00D+00
 Coeff-Com: -0.175D-04 0.224D-04 0.721D-04-0.340D-04 0.221D-02 0.213D-02
 Coeff-Com:  0.525D-02-0.885D-02-0.166D+00 0.134D+00 0.103D+01
 Coeff:     -0.175D-04 0.224D-04 0.721D-04-0.340D-04 0.221D-02 0.213D-02
 Coeff:      0.525D-02-0.885D-02-0.166D+00 0.134D+00 0.103D+01
 Gap=     0.034 Goal=   None    Shift=    0.000
 RMSDP=9.37D-07 MaxDP=2.47D-05 DE=-2.46D-09 OVMax= 6.17D-05

 Cycle  12  Pass 1  IDiag  1:
 E= -649.191823599327     Delta-E=       -0.000000000221 Rises=F Damp=F
 DIIS: error= 6.95D-08 at cycle  12 NSaved=  12.
 NSaved=12 IEnMin=12 EnMin= -649.191823599327     IErMin=12 ErrMin= 6.95D-08
 ErrMax= 6.95D-08  0.00D+00 EMaxC= 1.00D-01 BMatC= 3.16D-13 BMatP= 1.38D-11
 IDIUse=1 WtCom= 1.00D+00 WtEn= 0.00D+00
 Coeff-Com:  0.434D-05-0.585D-05-0.257D-04-0.215D-04-0.834D-04-0.113D-03
 Coeff-Com:  0.214D-02 0.558D-02 0.638D-02-0.293D-01-0.726D-01 0.109D+01
 Coeff:      0.434D-05-0.585D-05-0.257D-04-0.215D-04-0.834D-04-0.113D-03
 Coeff:      0.214D-02 0.558D-02 0.638D-02-0.293D-01-0.726D-01 0.109D+01
 Gap=     0.034 Goal=   None    Shift=    0.000
 RMSDP=8.49D-08 MaxDP=2.15D-06 DE=-2.21D-10 OVMax= 6.64D-06

 Cycle  13  Pass 1  IDiag  1:
 E= -649.191823599334     Delta-E=       -0.000000000008 Rises=F Damp=F
 DIIS: error= 2.53D-08 at cycle  13 NSaved=  13.
 NSaved=13 IEnMin=13 EnMin= -649.191823599334     IErMin=13 ErrMin= 2.53D-08
 ErrMax= 2.53D-08  0.00D+00 EMaxC= 1.00D-01 BMatC= 7.67D-14 BMatP= 3.16D-13
 IDIUse=1 WtCom= 1.00D+00 WtEn= 0.00D+00
 Coeff-Com:  0.175D-05-0.223D-05-0.867D-05-0.134D-05-0.152D-03-0.491D-04
 Coeff-Com: -0.519D-03 0.479D-03 0.130D-01-0.186D-01-0.953D-01 0.198D+00
 Coeff-Com:  0.904D+00
 Coeff:      0.175D-05-0.223D-05-0.867D-05-0.134D-05-0.152D-03-0.491D-04
 Coeff:     -0.519D-03 0.479D-03 0.130D-01-0.186D-01-0.953D-01 0.198D+00
 Coeff:      0.904D+00
 Gap=     0.034 Goal=   None    Shift=    0.000
 RMSDP=4.98D-08 MaxDP=1.11D-06 DE=-7.50D-12 OVMax= 3.76D-06

 Cycle  14  Pass 1  IDiag  1:
 E= -649.191823599338     Delta-E=       -0.000000000003 Rises=F Damp=F
 DIIS: error= 1.55D-08 at cycle  14 NSaved=  14.
 NSaved=14 IEnMin=14 EnMin= -649.191823599338     IErMin=14 ErrMin= 1.55D-08
 ErrMax= 1.55D-08  0.00D+00 EMaxC= 1.00D-01 BMatC= 1.53D-14 BMatP= 7.67D-14
 IDIUse=1 WtCom= 1.00D+00 WtEn= 0.00D+00
 Coeff-Com:  0.319D-06-0.382D-06-0.527D-06 0.103D-05-0.434D-04-0.607D-05
 Coeff-Com: -0.467D-03-0.470D-03 0.352D-02-0.268D-02-0.326D-01-0.285D-01
 Coeff-Com:  0.398D+00 0.663D+00
 Coeff:      0.319D-06-0.382D-06-0.527D-06 0.103D-05-0.434D-04-0.607D-05
 Coeff:     -0.467D-03-0.470D-03 0.352D-02-0.268D-02-0.326D-01-0.285D-01
 Coeff:      0.398D+00 0.663D+00
 Gap=     0.034 Goal=   None    Shift=    0.000
 RMSDP=1.35D-08 MaxDP=3.59D-07 DE=-3.30D-12 OVMax= 8.52D-07

 Cycle  15  Pass 1  IDiag  1:
 E= -649.191823599339     Delta-E=       -0.000000000001 Rises=F Damp=F
 DIIS: error= 1.61D-09 at cycle  15 NSaved=  15.
 NSaved=15 IEnMin=15 EnMin= -649.191823599339     IErMin=15 ErrMin= 1.61D-09
 ErrMax= 1.61D-09  0.00D+00 EMaxC= 1.00D-01 BMatC= 5.43D-16 BMatP= 1.53D-14
 IDIUse=1 WtCom= 1.00D+00 WtEn= 0.00D+00
 Coeff-Com: -0.198D-06 0.266D-06 0.154D-06-0.522D-06 0.880D-05 0.837D-05
 Coeff-Com:  0.378D-04-0.212D-04-0.620D-03 0.151D-02 0.420D-02-0.245D-01
 Coeff-Com: -0.139D-01 0.643D-01 0.969D+00
 Coeff:     -0.198D-06 0.266D-06 0.154D-06-0.522D-06 0.880D-05 0.837D-05
 Coeff:      0.378D-04-0.212D-04-0.620D-03 0.151D-02 0.420D-02-0.245D-01
 Coeff:     -0.139D-01 0.643D-01 0.969D+00
 Gap=     0.034 Goal=   None    Shift=    0.000
 RMSDP=5.76D-09 MaxDP=2.02D-07 DE=-1.48D-12 OVMax= 2.10D-07

 SCF Done:  E(RB3LYP) =  -649.191823599     A.U. after   15 cycles
            NFock= 15  Conv=0.58D-08     -V/T= 2.0028
 KE= 6.473732851443D+02 PE=-1.765288001589D+03 EE= 3.657526519051D+02
 Leave Link  502 at Wed Oct  4 16:58:05 2023, MaxMem=  1610612736 cpu:             151.9 elap:              56.7
 (Enter /home/sekinelabo/g16/l601.exe)
 Copying SCF densities to generalized density rwf, IOpCl= 0 IROHF=0.

 **********************************************************************

            Population analysis using the SCF Density.

 **********************************************************************

 Orbital symmetries:
       Occupied  (A) (A) (A) (A) (A) (A) (A) (A) (A) (A) (A) (A)
                 (A) (A) (A) (A) (A) (A) (A) (A) (A) (A)
       Virtual   (A) (A) (A) (A) (A) (A) (A) (A) (A) (A) (A) (A)
                 (A) (A) (A) (A) (A) (A) (A) (A) (A) (A) (A) (A)
                 (A) (A) (A) (A) (A) (A) (A) (A) (A) (A) (A) (A)
                 (A) (A) (A) (A) (A) (A) (A) (A) (A) (A) (A) (A)
                 (A) (A) (A) (A) (A) (A) (A) (A) (A) (A) (A) (A)
                 (A) (A) (A) (A) (A) (A) (A) (A) (A) (A) (A) (A)
                 (A) (A) (A) (A) (A) (A) (A) (A) (A) (A) (A) (A)
                 (A) (A) (A) (A) (A) (A) (A) (A) (A) (A) (A) (A)
                 (A) (A)
 The electronic state is 1-A.
 Alpha  occ. eigenvalues --  -38.46397 -38.45095 -38.44189 -38.42351  -2.22248
 Alpha  occ. eigenvalues --   -2.20941  -2.20079  -2.18088  -1.15950  -1.15925
 Alpha  occ. eigenvalues --   -1.15847  -1.14655  -1.14625  -1.14524  -1.13756
 Alpha  occ. eigenvalues --   -1.13742  -1.13700  -1.11770  -1.11767  -1.11714
 Alpha  occ. eigenvalues --   -0.16347  -0.10322
 Alpha virt. eigenvalues --   -0.06913  -0.05712  -0.03329  -0.01993  -0.01548
 Alpha virt. eigenvalues --   -0.01291  -0.00382  -0.00161   0.00017   0.00240
 Alpha virt. eigenvalues --    0.00562   0.00853   0.01251   0.01463   0.01533
 Alpha virt. eigenvalues --    0.01697   0.01773   0.01961   0.02071   0.02106
 Alpha virt. eigenvalues --    0.02311   0.02412   0.02562   0.02888   0.03367
 Alpha virt. eigenvalues --    0.03500   0.04047   0.04110   0.04581   0.04799
 Alpha virt. eigenvalues --    0.06130   0.06374   0.07236   0.07365   0.08187
 Alpha virt. eigenvalues --    0.08509   0.09044   0.09925   0.10068   0.11286
 Alpha virt. eigenvalues --    0.11625   0.12052   0.12172   0.13484   0.14196
 Alpha virt. eigenvalues --    0.14972   0.25200   0.26994   0.29223   0.29503
 Alpha virt. eigenvalues --    0.31288   0.31598   0.32204   0.36554   0.37069
 Alpha virt. eigenvalues --    0.37479   0.37730   0.39651   0.41570   0.42039
 Alpha virt. eigenvalues --    0.42811   0.43325   0.43398   0.43756   0.44350
 Alpha virt. eigenvalues --    0.45200   0.45925   0.46444   0.47110   0.48278
 Alpha virt. eigenvalues --    0.49125   0.49607   0.50965   0.52107   0.53515
 Alpha virt. eigenvalues --    0.63147   0.66620   0.73164   2.04046   2.08538
 Alpha virt. eigenvalues --    2.14745   2.17482   4.39507   4.41209   4.41996
 Alpha virt. eigenvalues --    4.43120   4.44908   4.45742   4.46788   4.47103
 Alpha virt. eigenvalues --    4.49609   4.51998   4.60677   4.68649  96.23583
 Alpha virt. eigenvalues --   96.28762  96.37998  96.40735
          Condensed to atoms (all electrons):
               1          2          3          4
     1  Na  10.778971   0.183731   0.314773  -0.077432
     2  Na   0.183731  10.451126  -0.051073   0.290221
     3  Na   0.314773  -0.051073  11.088901  -0.255511
     4  Na  -0.077432   0.290221  -0.255511  10.871583
 Mulliken charges:
               1
     1  Na  -0.200044
     2  Na   0.125995
     3  Na  -0.097090
     4  Na   0.171139
 Sum of Mulliken charges =  -0.00000
 Mulliken charges with hydrogens summed into heavy atoms:
               1
     1  Na  -0.200044
     2  Na   0.125995
     3  Na  -0.097090
     4  Na   0.171139
 Electronic spatial extent (au):  <R**2>=           1070.6659
 Charge=             -0.0000 electrons
 Dipole moment (field-independent basis, Debye):
    X=             -2.3842    Y=              0.5205    Z=             -0.2915  Tot=              2.4577
 Quadrupole moment (field-independent basis, Debye-Ang):
   XX=            -52.3885   YY=            -31.0956   ZZ=            -39.2032
   XY=              2.9366   XZ=              1.3070   YZ=             -1.1865
 Traceless Quadrupole moment (field-independent basis, Debye-Ang):
   XX=            -11.4927   YY=              9.8002   ZZ=              1.6926
   XY=              2.9366   XZ=              1.3070   YZ=             -1.1865
 Octapole moment (field-independent basis, Debye-Ang**2):
  XXX=             -8.7067  YYY=             12.4637  ZZZ=             -4.0632  XYY=            -19.6578
  XXY=             -2.0484  XXZ=             12.5467  XZZ=            -14.5246  YZZ=             -2.0132
  YYZ=            -11.0216  XYZ=              5.0883
 Hexadecapole moment (field-independent basis, Debye-Ang**3):
 XXXX=          -1497.6590 YYYY=           -346.0744 ZZZZ=           -283.1932 XXXY=             47.0788
 XXXZ=             16.2948 YYYX=              4.3335 YYYZ=             -9.5049 ZZZX=              6.0584
 ZZZY=             -5.4453 XXYY=           -328.2413 XXZZ=           -296.9599 YYZZ=           -103.8723
 XXYZ=            -13.2739 YYXZ=              8.4476 ZZXY=              7.2980
 N-N= 1.029702409398D+02 E-N=-1.765288001770D+03  KE= 6.473732851443D+02
 No NMR shielding tensors so no spin-rotation constants.
 Leave Link  601 at Wed Oct  4 16:58:08 2023, MaxMem=  1610612736 cpu:               7.9 elap:               2.9
 (Enter /home/sekinelabo/g16/l701.exe)
 ... and contract with generalized density number  0.
 Compute integral first derivatives.
 Leave Link  701 at Wed Oct  4 16:58:10 2023, MaxMem=  1610612736 cpu:               7.1 elap:               2.6
 (Enter /home/sekinelabo/g16/l702.exe)
 L702 exits ... SP integral derivatives will be done elsewhere.
 Leave Link  702 at Wed Oct  4 16:58:11 2023, MaxMem=  1610612736 cpu:               0.6 elap:               0.2
 (Enter /home/sekinelabo/g16/l703.exe)
 Integral derivatives from FoFJK, PRISM(SPDF).
 Compute integral first derivatives, UseDBF=F ICtDFT=           0.
 Calling FoFJK, ICntrl=      2127 FMM=F ISym2X=0 I1Cent= 0 IOpClX= 0 NMat=1 NMatS=1 NMatT=0.
 FoFJK:  IHMeth= 1 ICntrl=    2127 DoSepK=F KAlg= 0 I1Cent=           0 FoldK=F
 IRaf=         0 NMat=       1 IRICut=       1 DoRegI=T DoRafI=F ISym2E= 0 IDoP0=0 IntGTp=1.
 FoFCou: FMM=F IPFlag=           0 FMFlag=      100000 FMFlg1=         800
         NFxFlg=           0 DoJE=F BraDBF=F KetDBF=F FulRan=T
         wScrn=  0.000000 ICntrl=      2127 IOpCl=  0 I1Cent=           0 NGrid=           0
         NMat0=    1 NMatS0=      1 NMatT0=    0 NMatD0=    1 NMtDS0=    0 NMtDT0=    0
 Symmetry not used in FoFCou.
 Leave Link  703 at Wed Oct  4 16:58:15 2023, MaxMem=  1610612736 cpu:              12.4 elap:               4.5
 (Enter /home/sekinelabo/g16/l716.exe)
 Dipole        =-9.38003426D-01 2.04762415D-01-1.14691597D-01
 ***** Axes restored to original set *****
 -------------------------------------------------------------------
 Center     Atomic                   Forces (Hartrees/Bohr)
 Number     Number              X              Y              Z
 -------------------------------------------------------------------
      1       11           0.004276339    0.003865040    0.009079359
      2       11          -0.001339057    0.002709196    0.003044220
      3       11           0.000111945    0.001324408   -0.005625312
      4       11          -0.003049227   -0.007898645   -0.006498267
 -------------------------------------------------------------------
 Cartesian Forces:  Max     0.009079359 RMS     0.004842391
 Z-matrix is all fixed cartesians, so copy forces.
 Force constants in Cartesian coordinates: 
                1             2             3             4             5 
      1  0.537496D-01
      2  0.175827D-01  0.281495D-01
      3 -0.853150D-02  0.550811D-02  0.311217D-01
      4 -0.301023D-01  0.853504D-02  0.829644D-02  0.451202D-01
      5 -0.773274D-02 -0.282395D-02 -0.447924D-03 -0.120139D-01  0.307960D-01
      6  0.445264D-02 -0.278259D-02 -0.821090D-02 -0.122750D-01  0.194263D-01
      7 -0.670648D-02 -0.324784D-02  0.912367D-02 -0.765251D-03  0.599219D-04
      8 -0.319661D-02 -0.378741D-02  0.413391D-02  0.564477D-05 -0.540539D-05
      9  0.000000D+00  0.000000D+00 -0.115341D-01  0.000000D+00  0.000000D+00
     10 -0.169408D-01 -0.228699D-01 -0.888862D-02 -0.142527D-01  0.196867D-01
     11 -0.665334D-02 -0.215382D-01 -0.919410D-02  0.347324D-02 -0.279666D-01
     12  0.407885D-02 -0.272552D-02 -0.113767D-01  0.397859D-02 -0.189784D-01
                6             7             8             9            10 
      6  0.198348D-01
      7 -0.554232D-02  0.663488D-02
      8  0.408821D-04  0.227673D-02  0.267669D-02
      9  0.000000D+00  0.000000D+00  0.000000D+00  0.115341D-01
     10  0.133647D-01  0.836851D-03  0.914240D-03  0.000000D+00  0.303566D-01
     11 -0.166846D-01  0.911188D-03  0.111613D-02  0.000000D+00  0.226891D-02
     12 -0.116239D-01 -0.358136D-02 -0.417479D-02  0.000000D+00 -0.447609D-02
               11            12 
     11  0.483887D-01
     12  0.258787D-01  0.230006D-01
 Leave Link  716 at Wed Oct  4 16:58:15 2023, MaxMem=  1610612736 cpu:               0.7 elap:               0.3
 (Enter /home/sekinelabo/g16/l103.exe)

 GradGradGradGradGradGradGradGradGradGradGradGradGradGradGradGradGradGrad
 Berny optimization.
 Search for a local minimum.
 Step number   1 out of a maximum of    2
 All quantities printed in internal units (Hartrees-Bohrs-Radians)
 Second derivative matrix not updated -- first step.
 The second derivative matrix:
                          X1        Y1        Z1        X2        Y2
           X1           0.05375
           Y1           0.01758   0.02815
           Z1          -0.00853   0.00551   0.03112
           X2          -0.03010   0.00854   0.00830   0.04512
           Y2          -0.00773  -0.00282  -0.00045  -0.01201   0.03080
           Z2           0.00445  -0.00278  -0.00821  -0.01228   0.01943
           X3          -0.00671  -0.00325   0.00912  -0.00077   0.00006
           Y3          -0.00320  -0.00379   0.00413   0.00001  -0.00001
           Z3          -0.00000   0.00000  -0.01153  -0.00000   0.00000
           X4          -0.01694  -0.02287  -0.00889  -0.01425   0.01969
           Y4          -0.00665  -0.02154  -0.00919   0.00347  -0.02797
           Z4           0.00408  -0.00273  -0.01138   0.00398  -0.01898
                          Z2        X3        Y3        Z3        X4
           Z2           0.01983
           X3          -0.00554   0.00663
           Y3           0.00004   0.00228   0.00268
           Z3           0.00000   0.00000   0.00000   0.01153
           X4           0.01336   0.00084   0.00091   0.00000   0.03036
           Y4          -0.01668   0.00091   0.00112  -0.00000   0.00227
           Z4          -0.01162  -0.00358  -0.00417  -0.00000  -0.00448
                          Y4        Z4
           Y4           0.04839
           Z4           0.02588   0.02300
 ITU=  0
     Eigenvalues ---    0.00867   0.01352   0.03625   0.07993   0.08737
     Eigenvalues ---    0.10552
 Quadratic step=4.898D-01 exceeds max=3.000D-01 adjusted using Lamda=-1.015D-02.
 Angle between NR and scaled steps=  14.37 degrees.
 Angle between quadratic step and forces=  34.63 degrees.
 Linear search not attempted -- first point.
 B after Tr=     0.000000    0.000000    0.000000
         Rot=    1.000000    0.000000    0.000000    0.000000 Ang=   0.00 deg.
 Variable       Old X    -DE/DX   Delta X   Delta X   Delta X     New X
                                 (Linear)    (Quad)   (Total)
    X1        0.00000   0.00428   0.00000   0.07717   0.07717   0.07717
    Y1        0.00000   0.00387   0.00000  -0.00545  -0.00545  -0.00545
    Z1        0.00000   0.00908   0.00000   0.16818   0.16818   0.16818
    X2       -6.06534  -0.00134   0.00000   0.01112   0.01112  -6.05422
    Y2        0.00000   0.00271   0.00000  -0.00936  -0.00936  -0.00936
    Z2        0.83747   0.00304   0.00000   0.09997   0.09997   0.93744
    X3        0.00000   0.00011   0.00000  -0.04531  -0.04531  -0.04531
    Y3       -0.00000   0.00132   0.00000   0.04829   0.04829   0.04829
    Z3        7.38526  -0.00563   0.00000  -0.16985  -0.16985   7.21542
    X4       -3.70502  -0.00305   0.00000  -0.04298  -0.04298  -3.74800
    Y4       -4.20758  -0.00790   0.00000  -0.03348  -0.03348  -4.24107
    Z4       -1.93626  -0.00650   0.00000  -0.09830  -0.09830  -2.03457
         Item               Value     Threshold  Converged?
 Maximum Force            0.009079     0.000450     NO 
 RMS     Force            0.004842     0.000300     NO 
 Maximum Displacement     0.169848     0.001800     NO 
 RMS     Displacement     0.086767     0.001200     NO 
 Predicted change in Energy=-2.532800D-03
 GradGradGradGradGradGradGradGradGradGradGradGradGradGradGradGradGradGrad

 Leave Link  103 at Wed Oct  4 16:58:17 2023, MaxMem=  1610612736 cpu:               3.6 elap:               1.4
 (Enter /home/sekinelabo/g16/l9999.exe)
 1\1\GINC-SEKINELABO-XA7R-R37\Force\RB3LYP\6-311+G(d)\Na4\SEKINELABO\04
 -Oct-2023\0\\#p B3LYP/6-311+g(d) force\\\0,1\Na,0.,0.,0.\Na,-3.2096383
 774,0.,0.4431681814\Na,0.,0.,3.9081131207\Na,-1.9606111234,-2.22655764
 24,-1.0246260339\\Version=ES64L-G16RevB.01\State=1-A\HF=-649.1918236\R
 MSD=5.758e-09\RMSF=4.842e-03\Dipole=-0.5904133,-0.1246616,-0.7555156\Q
 uadrupole=2.2127364,0.841859,-3.0545954,-4.0036157,-6.6384758,-1.66249
 07\PG=C01 [X(Na4)]\\@


 ACCORDING TO HEN3RY, LIFE IS MUCH LIKE A SEWER........
 YOU GET OUT OF IT JUST WHAT YOU PUT INTO IT...........
                         TOM LEHRER - (THE 3 IS SILENT)
 Job cpu time:       0 days  0 hours  3 minutes 44.6 seconds.
 Elapsed time:       0 days  0 hours  1 minutes 23.8 seconds.
 File lengths (MBytes):  RWF=     10 Int=      0 D2E=      0 Chk=      2 Scr=      1
 Normal termination of Gaussian 16 at Wed Oct  4 16:58:17 2023.
