 Entering Gaussian System, Link 0=g16
 Initial command:
 /home/sekinelabo/g16/l1.exe "/home/sekinelabo/g16temp/Gau-8098.inp" -scrdir="/home/sekinelabo/g16temp/"
 Entering Link 1 = /home/sekinelabo/g16/l1.exe PID=      8109.
  
 Copyright (c) 1988-2017, Gaussian, Inc.  All Rights Reserved.
  
 This is part of the Gaussian(R) 16 program.  It is based on
 the Gaussian(R) 09 system (copyright 2009, Gaussian, Inc.),
 the Gaussian(R) 03 system (copyright 2003, Gaussian, Inc.),
 the Gaussian(R) 98 system (copyright 1998, Gaussian, Inc.),
 the Gaussian(R) 94 system (copyright 1995, Gaussian, Inc.),
 the Gaussian 92(TM) system (copyright 1992, Gaussian, Inc.),
 the Gaussian 90(TM) system (copyright 1990, Gaussian, Inc.),
 the Gaussian 88(TM) system (copyright 1988, Gaussian, Inc.),
 the Gaussian 86(TM) system (copyright 1986, Carnegie Mellon
 University), and the Gaussian 82(TM) system (copyright 1983,
 Carnegie Mellon University). Gaussian is a federally registered
 trademark of Gaussian, Inc.
  
 This software contains proprietary and confidential information,
 including trade secrets, belonging to Gaussian, Inc.
  
 This software is provided under written license and may be
 used, copied, transmitted, or stored only in accord with that
 written license.
  
 The following legend is applicable only to US Government
 contracts under FAR:
  
                    RESTRICTED RIGHTS LEGEND
  
 Use, reproduction and disclosure by the US Government is
 subject to restrictions as set forth in subparagraphs (a)
 and (c) of the Commercial Computer Software - Restricted
 Rights clause in FAR 52.227-19.
  
 Gaussian, Inc.
 340 Quinnipiac St., Bldg. 40, Wallingford CT 06492
  
  
 ---------------------------------------------------------------
 Warning -- This program may not be used in any manner that
 competes with the business of Gaussian, Inc. or will provide
 assistance to any competitor of Gaussian, Inc.  The licensee
 of this program is prohibited from giving any competitor of
 Gaussian, Inc. access to this program.  By using this program,
 the user acknowledges that Gaussian, Inc. is engaged in the
 business of creating and licensing software in the field of
 computational chemistry and represents and warrants to the
 licensee that it is not a competitor of Gaussian, Inc. and that
 it will not use this program in any manner prohibited above.
 ---------------------------------------------------------------
  

 Cite this work as:
 Gaussian 16, Revision B.01,
 M. J. Frisch, G. W. Trucks, H. B. Schlegel, G. E. Scuseria, 
 M. A. Robb, J. R. Cheeseman, G. Scalmani, V. Barone, 
 G. A. Petersson, H. Nakatsuji, X. Li, M. Caricato, A. V. Marenich, 
 J. Bloino, B. G. Janesko, R. Gomperts, B. Mennucci, H. P. Hratchian, 
 J. V. Ortiz, A. F. Izmaylov, J. L. Sonnenberg, D. Williams-Young, 
 F. Ding, F. Lipparini, F. Egidi, J. Goings, B. Peng, A. Petrone, 
 T. Henderson, D. Ranasinghe, V. G. Zakrzewski, J. Gao, N. Rega, 
 G. Zheng, W. Liang, M. Hada, M. Ehara, K. Toyota, R. Fukuda, 
 J. Hasegawa, M. Ishida, T. Nakajima, Y. Honda, O. Kitao, H. Nakai, 
 T. Vreven, K. Throssell, J. A. Montgomery, Jr., J. E. Peralta, 
 F. Ogliaro, M. J. Bearpark, J. J. Heyd, E. N. Brothers, K. N. Kudin, 
 V. N. Staroverov, T. A. Keith, R. Kobayashi, J. Normand, 
 K. Raghavachari, A. P. Rendell, J. C. Burant, S. S. Iyengar, 
 J. Tomasi, M. Cossi, J. M. Millam, M. Klene, C. Adamo, R. Cammi, 
 J. W. Ochterski, R. L. Martin, K. Morokuma, O. Farkas, 
 J. B. Foresman, and D. J. Fox, Gaussian, Inc., Wallingford CT, 2016.
 
 ******************************************
 Gaussian 16:  ES64L-G16RevB.01 20-Dec-2017
                 4-Oct-2023 
 ******************************************
 %NProcShared=16
 Will use up to   16 processors via shared memory.
 %mem=12GB
 %Chk=checkpoint.chk
 -------------------------
 #p B3LYP/6-311+g(d) force
 -------------------------
 1/10=7,30=1,38=1/1,3;
 2/12=2,17=6,18=5,40=1/2;
 3/5=4,6=6,7=11,11=2,25=1,30=1,71=1,74=-5/1,2,3;
 4//1;
 5/5=2,38=5/2;
 6/7=2,8=2,9=2,10=2,28=1/1;
 7/29=1/1,2,3,16;
 1/10=7,30=1/3;
 99//99;
 Leave Link    1 at Wed Oct  4 14:11:22 2023, MaxMem=  1610612736 cpu:               0.6 elap:               0.2
 (Enter /home/sekinelabo/g16/l101.exe)


 Symbolic Z-matrix:
 Charge =  0 Multiplicity = 1
 Na                    0.        0.        0. 
 Na                   -3.64299   0.       -1.37112 
 Na                    0.        0.        3.39121 
 Na                   -0.29995  -2.62685   3.33646 
 
 ITRead=  0  0  0  0
 MicOpt= -1 -1 -1 -1
 NAtoms=      4 NQM=        4 NQMF=       0 NMMI=      0 NMMIF=      0
                NMic=       0 NMicF=      0.
                    Isotopes and Nuclear Properties:
 (Nuclear quadrupole moments (NQMom) in fm**2, nuclear magnetic moments (NMagM)
  in nuclear magnetons)

  Atom         1           2           3           4
 IAtWgt=          23          23          23          23
 AtmWgt=  22.9897697  22.9897697  22.9897697  22.9897697
 NucSpn=           3           3           3           3
 AtZEff=  -0.0000000  -0.0000000  -0.0000000  -0.0000000
 NQMom=   10.4000000  10.4000000  10.4000000  10.4000000
 NMagM=    2.2175200   2.2175200   2.2175200   2.2175200
 AtZNuc=  11.0000000  11.0000000  11.0000000  11.0000000
 Leave Link  101 at Wed Oct  4 14:11:23 2023, MaxMem=  1610612736 cpu:               2.1 elap:               1.2
 (Enter /home/sekinelabo/g16/l103.exe)

 GradGradGradGradGradGradGradGradGradGradGradGradGradGradGradGradGradGrad
 Berny optimization.
 Initialization pass.
 Trust Radius=3.00D-01 FncErr=1.00D-07 GrdErr=1.00D-07 EigMax=2.50D+02 EigMin=1.00D-04
 Number of steps in this run=      2 maximum allowed number of steps=      2.
 GradGradGradGradGradGradGradGradGradGradGradGradGradGradGradGradGradGrad

 Leave Link  103 at Wed Oct  4 14:11:23 2023, MaxMem=  1610612736 cpu:               0.5 elap:               0.2
 (Enter /home/sekinelabo/g16/l202.exe)
                          Input orientation:                          
 ---------------------------------------------------------------------
 Center     Atomic      Atomic             Coordinates (Angstroms)
 Number     Number       Type             X           Y           Z
 ---------------------------------------------------------------------
      1         11           0        0.000000    0.000000    0.000000
      2         11           0       -3.642992    0.000000   -1.371123
      3         11           0        0.000000    0.000000    3.391213
      4         11           0       -0.299947   -2.626845    3.336462
 ---------------------------------------------------------------------
                    Distance matrix (angstroms):
                    1          2          3          4
     1  Na   0.000000
     2  Na   3.892476   0.000000
     3  Na   3.391213   5.995935   0.000000
     4  Na   4.257025   6.343314   2.644481   0.000000
 Stoichiometry    Na4
 Framework group  C1[X(Na4)]
 Deg. of freedom     6
 Full point group                 C1      NOp   1
 Largest Abelian subgroup         C1      NOp   1
 Largest concise Abelian subgroup C1      NOp   1
                         Standard orientation:                         
 ---------------------------------------------------------------------
 Center     Atomic      Atomic             Coordinates (Angstroms)
 Number     Number       Type             X           Y           Z
 ---------------------------------------------------------------------
      1         11           0       -0.751382    1.378747   -0.854819
      2         11           0       -3.755520   -0.775151    0.364709
      3         11           0        2.007826    0.746459    1.012614
      4         11           0        2.499076   -1.350055   -0.522504
 ---------------------------------------------------------------------
 Rotational constants (GHZ):           3.1208796           0.8109518           0.7370118
 Leave Link  202 at Wed Oct  4 14:11:24 2023, MaxMem=  1610612736 cpu:               1.0 elap:               0.6
 (Enter /home/sekinelabo/g16/l301.exe)
 Standard basis: 6-311+G(d) (5D, 7F)
 Ernie: Thresh=  0.10000D-02 Tol=  0.10000D-05 Strict=F.
 There are   124 symmetry adapted cartesian basis functions of A   symmetry.
 There are   120 symmetry adapted basis functions of A   symmetry.
   120 basis functions,   200 primitive gaussians,   124 cartesian basis functions
    22 alpha electrons       22 beta electrons
       nuclear repulsion energy        95.3581921641 Hartrees.
 IExCor=  402 DFT=T Ex+Corr=B3LYP ExCW=0 ScaHFX=  0.200000
 ScaDFX=  0.800000  0.720000  1.000000  0.810000 ScalE2=  1.000000  1.000000
 IRadAn=      5 IRanWt=     -1 IRanGd=            0 ICorTp=0 IEmpDi=  4
 NAtoms=    4 NActive=    4 NUniq=    4 SFac= 1.00D+00 NAtFMM=   60 NAOKFM=F Big=F
 Integral buffers will be    131072 words long.
 Raffenetti 2 integral format.
 Two-electron integral symmetry is turned on.
 Leave Link  301 at Wed Oct  4 14:11:24 2023, MaxMem=  1610612736 cpu:               0.8 elap:               0.5
 (Enter /home/sekinelabo/g16/l302.exe)
 NPDir=0 NMtPBC=     1 NCelOv=     1 NCel=       1 NClECP=     1 NCelD=      1
         NCelK=      1 NCelE2=     1 NClLst=     1 CellRange=     0.0.
 One-electron integrals computed using PRISM.
 One-electron integral symmetry used in STVInt
 NBasis=   120 RedAO= T EigKep=  3.79D-05  NBF=   120
 NBsUse=   120 1.00D-06 EigRej= -1.00D+00 NBFU=   120
 Precomputing XC quadrature grid using
 IXCGrd= 4 IRadAn=           5 IRanWt=          -1 IRanGd=           0 AccXCQ= 0.00D+00.
 Generated NRdTot=       0 NPtTot=           0 NUsed=           0 NTot=          32
 NSgBfM=   118   118   118   118   118 MxSgAt=     4 MxSgA2=     4.
 Leave Link  302 at Wed Oct  4 14:11:36 2023, MaxMem=  1610612736 cpu:              20.1 elap:              11.4
 (Enter /home/sekinelabo/g16/l303.exe)
 DipDrv:  MaxL=1.
 Leave Link  303 at Wed Oct  4 14:11:37 2023, MaxMem=  1610612736 cpu:               2.7 elap:               1.5
 (Enter /home/sekinelabo/g16/l401.exe)
 ExpMin= 7.60D-03 ExpMax= 3.62D+04 ExpMxC= 1.21D+03 IAcc=3 IRadAn=         5 AccDes= 0.00D+00
 Harris functional with IExCor=  402 and IRadAn=       5 diagonalized for initial guess.
 HarFok:  IExCor=  402 AccDes= 0.00D+00 IRadAn=         5 IDoV= 1 UseB2=F ITyADJ=14
 ICtDFT=  3500011 ScaDFX=  1.000000  1.000000  1.000000  1.000000
 FoFCou: FMM=F IPFlag=           0 FMFlag=      100000 FMFlg1=           0
         NFxFlg=           0 DoJE=T BraDBF=F KetDBF=T FulRan=T
         wScrn=  0.000000 ICntrl=       500 IOpCl=  0 I1Cent=   200000004 NGrid=           0
         NMat0=    1 NMatS0=      1 NMatT0=    0 NMatD0=    1 NMtDS0=    0 NMtDT0=    0
 Petite list used in FoFCou.
 Harris En= -649.064036963688    
 JPrj=0 DoOrth=F DoCkMO=F.
 Leave Link  401 at Wed Oct  4 14:11:46 2023, MaxMem=  1610612736 cpu:              14.7 elap:               8.4
 (Enter /home/sekinelabo/g16/l502.exe)
 Keep R1 ints in memory in canonical form, NReq=41581762.
 FoFCou: FMM=F IPFlag=           0 FMFlag=           0 FMFlg1=           0
         NFxFlg=           0 DoJE=F BraDBF=F KetDBF=F FulRan=T
         wScrn=  0.000000 ICntrl=       600 IOpCl=  0 I1Cent=           0 NGrid=           0
         NMat0=    1 NMatS0=   7260 NMatT0=    0 NMatD0=    1 NMtDS0=    0 NMtDT0=    0
 Symmetry not used in FoFCou.
 Two-electron integral symmetry not used.
 Closed shell SCF:
 Using DIIS extrapolation, IDIIS=  1040.
 NGot=  1610612736 LenX=  1584221380 LenY=  1584205563
 Requested convergence on RMS density matrix=1.00D-08 within 128 cycles.
 Requested convergence on MAX density matrix=1.00D-06.
 Requested convergence on             energy=1.00D-06.
 No special actions if energy rises.

 Cycle   1  Pass 1  IDiag  1:
 E= -649.177886561192    
 DIIS: error= 1.07D-02 at cycle   1 NSaved=   1.
 NSaved= 1 IEnMin= 1 EnMin= -649.177886561192     IErMin= 1 ErrMin= 1.07D-02
 ErrMax= 1.07D-02  0.00D+00 EMaxC= 1.00D-01 BMatC= 2.63D-02 BMatP= 2.63D-02
 IDIUse=3 WtCom= 8.93D-01 WtEn= 1.07D-01
 Coeff-Com:  0.100D+01
 Coeff-En:   0.100D+01
 Coeff:      0.100D+01
 Gap=     0.039 Goal=   None    Shift=    0.000
 GapD=    0.039 DampG=0.250 DampE=0.500 DampFc=0.2500 IDamp=-1.
 Damping current iteration by 2.50D-01
 RMSDP=2.64D-03 MaxDP=1.15D-01              OVMax= 1.47D-01

 Cycle   2  Pass 1  IDiag  1:
 E= -649.182311457045     Delta-E=       -0.004424895852 Rises=F Damp=T
 DIIS: error= 7.39D-03 at cycle   2 NSaved=   2.
 NSaved= 2 IEnMin= 2 EnMin= -649.182311457045     IErMin= 2 ErrMin= 7.39D-03
 ErrMax= 7.39D-03  0.00D+00 EMaxC= 1.00D-01 BMatC= 1.02D-02 BMatP= 2.63D-02
 IDIUse=3 WtCom= 9.26D-01 WtEn= 7.39D-02
 Coeff-Com: -0.131D+01 0.231D+01
 Coeff-En:   0.000D+00 0.100D+01
 Coeff:     -0.121D+01 0.221D+01
 Gap=     0.045 Goal=   None    Shift=    0.000
 RMSDP=2.33D-03 MaxDP=5.56D-02 DE=-4.42D-03 OVMax= 1.24D-01

 Cycle   3  Pass 1  IDiag  1:
 E= -649.190797604096     Delta-E=       -0.008486147051 Rises=F Damp=F
 DIIS: error= 1.24D-03 at cycle   3 NSaved=   3.
 NSaved= 3 IEnMin= 3 EnMin= -649.190797604096     IErMin= 3 ErrMin= 1.24D-03
 ErrMax= 1.24D-03  0.00D+00 EMaxC= 1.00D-01 BMatC= 1.18D-04 BMatP= 1.02D-02
 IDIUse=3 WtCom= 9.88D-01 WtEn= 1.24D-02
 Coeff-Com: -0.954D-01 0.162D+00 0.934D+00
 Coeff-En:   0.000D+00 0.000D+00 0.100D+01
 Coeff:     -0.943D-01 0.160D+00 0.935D+00
 Gap=     0.041 Goal=   None    Shift=    0.000
 RMSDP=1.37D-03 MaxDP=7.67D-02 DE=-8.49D-03 OVMax= 1.34D-01

 Cycle   4  Pass 1  IDiag  1:
 E= -649.189055191348     Delta-E=        0.001742412748 Rises=F Damp=F
 DIIS: error= 2.35D-03 at cycle   4 NSaved=   4.
 NSaved= 4 IEnMin= 3 EnMin= -649.190797604096     IErMin= 3 ErrMin= 1.24D-03
 ErrMax= 2.35D-03  0.00D+00 EMaxC= 1.00D-01 BMatC= 3.74D-04 BMatP= 1.18D-04
 IDIUse=3 WtCom= 1.71D-01 WtEn= 8.29D-01
 Coeff-Com: -0.288D-02 0.554D-02 0.642D+00 0.355D+00
 Coeff-En:   0.000D+00 0.000D+00 0.721D+00 0.279D+00
 Coeff:     -0.493D-03 0.947D-03 0.708D+00 0.292D+00
 Gap=     0.043 Goal=   None    Shift=    0.000
 RMSDP=7.12D-04 MaxDP=3.82D-02 DE= 1.74D-03 OVMax= 7.15D-02

 Cycle   5  Pass 1  IDiag  1:
 E= -649.191456000656     Delta-E=       -0.002400809308 Rises=F Damp=F
 DIIS: error= 4.47D-04 at cycle   5 NSaved=   5.
 NSaved= 5 IEnMin= 5 EnMin= -649.191456000656     IErMin= 5 ErrMin= 4.47D-04
 ErrMax= 4.47D-04  0.00D+00 EMaxC= 1.00D-01 BMatC= 1.28D-05 BMatP= 1.18D-04
 IDIUse=3 WtCom= 9.96D-01 WtEn= 4.47D-03
 Coeff-Com:  0.302D-02-0.444D-02 0.245D+00 0.141D-03 0.756D+00
 Coeff-En:   0.000D+00 0.000D+00 0.117D+00 0.000D+00 0.883D+00
 Coeff:      0.301D-02-0.442D-02 0.244D+00 0.140D-03 0.757D+00
 Gap=     0.043 Goal=   None    Shift=    0.000
 RMSDP=1.83D-04 MaxDP=8.58D-03 DE=-2.40D-03 OVMax= 1.69D-02

 Cycle   6  Pass 1  IDiag  1:
 E= -649.191538228003     Delta-E=       -0.000082227347 Rises=F Damp=F
 DIIS: error= 2.19D-05 at cycle   6 NSaved=   6.
 NSaved= 6 IEnMin= 6 EnMin= -649.191538228003     IErMin= 6 ErrMin= 2.19D-05
 ErrMax= 2.19D-05  0.00D+00 EMaxC= 1.00D-01 BMatC= 1.32D-07 BMatP= 1.28D-05
 IDIUse=1 WtCom= 1.00D+00 WtEn= 0.00D+00
 Coeff-Com:  0.929D-04-0.444D-03 0.404D-01-0.197D-01 0.261D+00 0.719D+00
 Coeff:      0.929D-04-0.444D-03 0.404D-01-0.197D-01 0.261D+00 0.719D+00
 Gap=     0.043 Goal=   None    Shift=    0.000
 RMSDP=1.35D-05 MaxDP=6.24D-04 DE=-8.22D-05 OVMax= 6.36D-04

 Cycle   7  Pass 1  IDiag  1:
 E= -649.191538522269     Delta-E=       -0.000000294265 Rises=F Damp=F
 DIIS: error= 9.50D-06 at cycle   7 NSaved=   7.
 NSaved= 7 IEnMin= 7 EnMin= -649.191538522269     IErMin= 7 ErrMin= 9.50D-06
 ErrMax= 9.50D-06  0.00D+00 EMaxC= 1.00D-01 BMatC= 9.09D-09 BMatP= 1.32D-07
 IDIUse=1 WtCom= 1.00D+00 WtEn= 0.00D+00
 Coeff-Com: -0.631D-03 0.769D-03-0.344D-02-0.246D-02 0.165D-01 0.202D+00
 Coeff-Com:  0.787D+00
 Coeff:     -0.631D-03 0.769D-03-0.344D-02-0.246D-02 0.165D-01 0.202D+00
 Coeff:      0.787D+00
 Gap=     0.043 Goal=   None    Shift=    0.000
 RMSDP=5.62D-06 MaxDP=2.16D-04 DE=-2.94D-07 OVMax= 3.27D-04

 Cycle   8  Pass 1  IDiag  1:
 E= -649.191538550948     Delta-E=       -0.000000028680 Rises=F Damp=F
 DIIS: error= 3.45D-06 at cycle   8 NSaved=   8.
 NSaved= 8 IEnMin= 8 EnMin= -649.191538550948     IErMin= 8 ErrMin= 3.45D-06
 ErrMax= 3.45D-06  0.00D+00 EMaxC= 1.00D-01 BMatC= 9.55D-10 BMatP= 9.09D-09
 IDIUse=1 WtCom= 1.00D+00 WtEn= 0.00D+00
 Coeff-Com: -0.135D-03 0.173D-03-0.416D-02 0.453D-03-0.153D-01 0.287D-02
 Coeff-Com:  0.264D+00 0.752D+00
 Coeff:     -0.135D-03 0.173D-03-0.416D-02 0.453D-03-0.153D-01 0.287D-02
 Coeff:      0.264D+00 0.752D+00
 Gap=     0.043 Goal=   None    Shift=    0.000
 RMSDP=1.97D-06 MaxDP=6.92D-05 DE=-2.87D-08 OVMax= 9.88D-05

 Cycle   9  Pass 1  IDiag  1:
 E= -649.191538554920     Delta-E=       -0.000000003972 Rises=F Damp=F
 DIIS: error= 3.78D-07 at cycle   9 NSaved=   9.
 NSaved= 9 IEnMin= 9 EnMin= -649.191538554920     IErMin= 9 ErrMin= 3.78D-07
 ErrMax= 3.78D-07  0.00D+00 EMaxC= 1.00D-01 BMatC= 2.76D-11 BMatP= 9.55D-10
 IDIUse=1 WtCom= 1.00D+00 WtEn= 0.00D+00
 Coeff-Com:  0.443D-04-0.568D-04-0.684D-03 0.620D-03-0.601D-02-0.149D-01
 Coeff-Com:  0.820D-02 0.126D+00 0.887D+00
 Coeff:      0.443D-04-0.568D-04-0.684D-03 0.620D-03-0.601D-02-0.149D-01
 Coeff:      0.820D-02 0.126D+00 0.887D+00
 Gap=     0.043 Goal=   None    Shift=    0.000
 RMSDP=6.89D-07 MaxDP=2.04D-05 DE=-3.97D-09 OVMax= 2.35D-05

 Cycle  10  Pass 1  IDiag  1:
 E= -649.191538555015     Delta-E=       -0.000000000094 Rises=F Damp=F
 DIIS: error= 3.63D-07 at cycle  10 NSaved=  10.
 NSaved=10 IEnMin=10 EnMin= -649.191538555015     IErMin=10 ErrMin= 3.63D-07
 ErrMax= 3.63D-07  0.00D+00 EMaxC= 1.00D-01 BMatC= 3.81D-12 BMatP= 2.76D-11
 IDIUse=1 WtCom= 1.00D+00 WtEn= 0.00D+00
 Coeff-Com:  0.234D-04-0.298D-04-0.131D-03 0.248D-03-0.179D-02-0.682D-02
 Coeff-Com: -0.986D-02 0.115D-01 0.323D+00 0.684D+00
 Coeff:      0.234D-04-0.298D-04-0.131D-03 0.248D-03-0.179D-02-0.682D-02
 Coeff:     -0.986D-02 0.115D-01 0.323D+00 0.684D+00
 Gap=     0.043 Goal=   None    Shift=    0.000
 RMSDP=1.29D-07 MaxDP=5.16D-06 DE=-9.44D-11 OVMax= 9.10D-06

 Cycle  11  Pass 1  IDiag  1:
 E= -649.191538555049     Delta-E=       -0.000000000035 Rises=F Damp=F
 DIIS: error= 3.33D-08 at cycle  11 NSaved=  11.
 NSaved=11 IEnMin=11 EnMin= -649.191538555049     IErMin=11 ErrMin= 3.33D-08
 ErrMax= 3.33D-08  0.00D+00 EMaxC= 1.00D-01 BMatC= 1.26D-13 BMatP= 3.81D-12
 IDIUse=1 WtCom= 1.00D+00 WtEn= 0.00D+00
 Coeff-Com: -0.279D-06 0.526D-06 0.188D-04 0.213D-04-0.169D-04-0.180D-03
 Coeff-Com: -0.255D-02-0.664D-02 0.103D-01 0.143D+00 0.856D+00
 Coeff:     -0.279D-06 0.526D-06 0.188D-04 0.213D-04-0.169D-04-0.180D-03
 Coeff:     -0.255D-02-0.664D-02 0.103D-01 0.143D+00 0.856D+00
 Gap=     0.043 Goal=   None    Shift=    0.000
 RMSDP=2.59D-08 MaxDP=7.50D-07 DE=-3.46D-11 OVMax= 1.56D-06

 Cycle  12  Pass 1  IDiag  1:
 E= -649.191538555045     Delta-E=        0.000000000004 Rises=F Damp=F
 DIIS: error= 8.92D-09 at cycle  12 NSaved=  12.
 NSaved=12 IEnMin=11 EnMin= -649.191538555049     IErMin=12 ErrMin= 8.92D-09
 ErrMax= 8.92D-09  0.00D+00 EMaxC= 1.00D-01 BMatC= 2.15D-14 BMatP= 1.26D-13
 IDIUse=1 WtCom= 1.00D+00 WtEn= 0.00D+00
 Coeff-Com: -0.241D-05 0.316D-05 0.121D-04-0.140D-04 0.123D-03 0.445D-03
 Coeff-Com:  0.446D-03-0.141D-02-0.244D-01-0.154D-01 0.316D+00 0.724D+00
 Coeff:     -0.241D-05 0.316D-05 0.121D-04-0.140D-04 0.123D-03 0.445D-03
 Coeff:      0.446D-03-0.141D-02-0.244D-01-0.154D-01 0.316D+00 0.724D+00
 Gap=     0.043 Goal=   None    Shift=    0.000
 RMSDP=1.04D-08 MaxDP=2.89D-07 DE= 4.21D-12 OVMax= 4.39D-07

 Cycle  13  Pass 1  IDiag  1:
 E= -649.191538555047     Delta-E=       -0.000000000002 Rises=F Damp=F
 DIIS: error= 4.24D-09 at cycle  13 NSaved=  13.
 NSaved=13 IEnMin=11 EnMin= -649.191538555049     IErMin=13 ErrMin= 4.24D-09
 ErrMax= 4.24D-09  0.00D+00 EMaxC= 1.00D-01 BMatC= 9.23D-16 BMatP= 2.15D-14
 IDIUse=1 WtCom= 1.00D+00 WtEn= 0.00D+00
 Coeff-Com: -0.972D-07 0.116D-06 0.102D-05-0.239D-05 0.187D-04 0.350D-04
 Coeff-Com:  0.145D-03 0.172D-03-0.325D-02-0.135D-01-0.113D-01 0.724D-01
 Coeff-Com:  0.955D+00
 Coeff:     -0.972D-07 0.116D-06 0.102D-05-0.239D-05 0.187D-04 0.350D-04
 Coeff:      0.145D-03 0.172D-03-0.325D-02-0.135D-01-0.113D-01 0.724D-01
 Coeff:      0.955D+00
 Gap=     0.043 Goal=   None    Shift=    0.000
 RMSDP=3.85D-09 MaxDP=1.24D-07 DE=-1.93D-12 OVMax= 1.53D-07

 SCF Done:  E(RB3LYP) =  -649.191538555     A.U. after   13 cycles
            NFock= 13  Conv=0.39D-08     -V/T= 2.0028
 KE= 6.473734360201D+02 PE=-1.750042581740D+03 EE= 3.581194150008D+02
 Leave Link  502 at Wed Oct  4 14:13:04 2023, MaxMem=  1610612736 cpu:             140.2 elap:              78.2
 (Enter /home/sekinelabo/g16/l601.exe)
 Copying SCF densities to generalized density rwf, IOpCl= 0 IROHF=0.

 **********************************************************************

            Population analysis using the SCF Density.

 **********************************************************************

 Orbital symmetries:
       Occupied  (A) (A) (A) (A) (A) (A) (A) (A) (A) (A) (A) (A)
                 (A) (A) (A) (A) (A) (A) (A) (A) (A) (A)
       Virtual   (A) (A) (A) (A) (A) (A) (A) (A) (A) (A) (A) (A)
                 (A) (A) (A) (A) (A) (A) (A) (A) (A) (A) (A) (A)
                 (A) (A) (A) (A) (A) (A) (A) (A) (A) (A) (A) (A)
                 (A) (A) (A) (A) (A) (A) (A) (A) (A) (A) (A) (A)
                 (A) (A) (A) (A) (A) (A) (A) (A) (A) (A) (A) (A)
                 (A) (A) (A) (A) (A) (A) (A) (A) (A) (A) (A) (A)
                 (A) (A) (A) (A) (A) (A) (A) (A) (A) (A) (A) (A)
                 (A) (A) (A) (A) (A) (A) (A) (A) (A) (A) (A) (A)
                 (A) (A)
 The electronic state is 1-A.
 Alpha  occ. eigenvalues --  -38.45168 -38.44938 -38.44392 -38.43861  -2.21038
 Alpha  occ. eigenvalues --   -2.20833  -2.20152  -2.19577  -1.15083  -1.14656
 Alpha  occ. eigenvalues --   -1.14641  -1.14448  -1.14431  -1.14329  -1.13854
 Alpha  occ. eigenvalues --   -1.13819  -1.13763  -1.13257  -1.13255  -1.13199
 Alpha  occ. eigenvalues --   -0.15465  -0.11075
 Alpha virt. eigenvalues --   -0.06751  -0.05235  -0.03321  -0.02532  -0.01583
 Alpha virt. eigenvalues --   -0.01023  -0.00582  -0.00190   0.00043   0.00441
 Alpha virt. eigenvalues --    0.00666   0.00934   0.01053   0.01293   0.01455
 Alpha virt. eigenvalues --    0.01706   0.01746   0.01944   0.01993   0.02135
 Alpha virt. eigenvalues --    0.02197   0.02404   0.02423   0.02783   0.03087
 Alpha virt. eigenvalues --    0.03401   0.03703   0.04091   0.04648   0.04884
 Alpha virt. eigenvalues --    0.06343   0.06839   0.07366   0.07510   0.08164
 Alpha virt. eigenvalues --    0.08487   0.08860   0.09414   0.09942   0.10307
 Alpha virt. eigenvalues --    0.10535   0.11347   0.12432   0.13447   0.13476
 Alpha virt. eigenvalues --    0.16118   0.27332   0.28533   0.29376   0.29787
 Alpha virt. eigenvalues --    0.32298   0.32832   0.34062   0.35303   0.35503
 Alpha virt. eigenvalues --    0.36247   0.36446   0.38135   0.39404   0.40712
 Alpha virt. eigenvalues --    0.41940   0.42149   0.43068   0.43727   0.43820
 Alpha virt. eigenvalues --    0.44427   0.44855   0.45000   0.46094   0.47028
 Alpha virt. eigenvalues --    0.48535   0.48714   0.50380   0.52032   0.53649
 Alpha virt. eigenvalues --    0.55493   0.61370   0.84966   2.03203   2.07997
 Alpha virt. eigenvalues --    2.08750   2.14865   4.42296   4.42611   4.44131
 Alpha virt. eigenvalues --    4.44397   4.45128   4.45337   4.45488   4.46341
 Alpha virt. eigenvalues --    4.46873   4.48019   4.53950   4.78194  96.22563
 Alpha virt. eigenvalues --   96.28286  96.31124  96.37179
          Condensed to atoms (all electrons):
               1          2          3          4
     1  Na  10.961296   0.328666   0.155220  -0.219254
     2  Na   0.328666  10.876291  -0.096319  -0.159992
     3  Na   0.155220  -0.096319  10.684553   0.320346
     4  Na  -0.219254  -0.159992   0.320346  10.820525
 Mulliken charges:
               1
     1  Na  -0.225928
     2  Na   0.051354
     3  Na  -0.063801
     4  Na   0.238375
 Sum of Mulliken charges =  -0.00000
 Mulliken charges with hydrogens summed into heavy atoms:
               1
     1  Na  -0.225928
     2  Na   0.051354
     3  Na  -0.063801
     4  Na   0.238375
 Electronic spatial extent (au):  <R**2>=           1345.0360
 Charge=             -0.0000 electrons
 Dipole moment (field-independent basis, Debye):
    X=              1.6375    Y=             -0.3886    Z=              0.0261  Tot=              1.6832
 Quadrupole moment (field-independent basis, Debye-Ang):
   XX=            -45.5448   YY=            -34.8519   ZZ=            -38.5745
   XY=              2.7758   XZ=             -2.0529   YZ=              1.8999
 Traceless Quadrupole moment (field-independent basis, Debye-Ang):
   XX=             -5.8877   YY=              4.8052   ZZ=              1.0826
   XY=              2.7758   XZ=             -2.0529   YZ=              1.8999
 Octapole moment (field-independent basis, Debye-Ang**2):
  XXX=             -7.2445  YYY=             -2.2845  ZZZ=              1.7983  XYY=             16.3302
  XXY=            -20.6616  XXZ=              7.6132  XZZ=             13.9577  YZZ=              3.7789
  YYZ=             -4.3872  XYZ=             12.9982
 Hexadecapole moment (field-independent basis, Debye-Ang**3):
 XXXX=          -1820.3724 YYYY=           -403.2371 ZZZZ=           -270.1931 XXXY=             66.2369
 XXXZ=            -58.1259 YYYX=              0.7207 YYYZ=              9.2888 ZZZX=             -4.1167
 ZZZY=             10.7942 XXYY=           -352.6338 XXZZ=           -352.0502 YYZZ=           -108.7544
 XXYZ=             21.1017 YYXZ=             -5.7656 ZZXY=              6.8102
 N-N= 9.535819216411D+01 E-N=-1.750042581974D+03  KE= 6.473734360201D+02
 No NMR shielding tensors so no spin-rotation constants.
 Leave Link  601 at Wed Oct  4 14:13:09 2023, MaxMem=  1610612736 cpu:               8.1 elap:               4.6
 (Enter /home/sekinelabo/g16/l701.exe)
 ... and contract with generalized density number  0.
 Compute integral first derivatives.
 Leave Link  701 at Wed Oct  4 14:13:12 2023, MaxMem=  1610612736 cpu:               6.9 elap:               3.9
 (Enter /home/sekinelabo/g16/l702.exe)
 L702 exits ... SP integral derivatives will be done elsewhere.
 Leave Link  702 at Wed Oct  4 14:13:13 2023, MaxMem=  1610612736 cpu:               0.6 elap:               0.4
 (Enter /home/sekinelabo/g16/l703.exe)
 Integral derivatives from FoFJK, PRISM(SPDF).
 Compute integral first derivatives, UseDBF=F ICtDFT=           0.
 Calling FoFJK, ICntrl=      2127 FMM=F ISym2X=0 I1Cent= 0 IOpClX= 0 NMat=1 NMatS=1 NMatT=0.
 FoFJK:  IHMeth= 1 ICntrl=    2127 DoSepK=F KAlg= 0 I1Cent=           0 FoldK=F
 IRaf=         0 NMat=       1 IRICut=       1 DoRegI=T DoRafI=F ISym2E= 0 IDoP0=0 IntGTp=1.
 FoFCou: FMM=F IPFlag=           0 FMFlag=      100000 FMFlg1=         800
         NFxFlg=           0 DoJE=F BraDBF=F KetDBF=F FulRan=T
         wScrn=  0.000000 ICntrl=      2127 IOpCl=  0 I1Cent=           0 NGrid=           0
         NMat0=    1 NMatS0=      1 NMatT0=    0 NMatD0=    1 NMtDS0=    0 NMtDT0=    0
 Symmetry not used in FoFCou.
 Leave Link  703 at Wed Oct  4 14:13:20 2023, MaxMem=  1610612736 cpu:              13.0 elap:               7.1
 (Enter /home/sekinelabo/g16/l716.exe)
 Dipole        = 6.44232441D-01-1.52885238D-01 1.02818446D-02
 ***** Axes restored to original set *****
 -------------------------------------------------------------------
 Center     Atomic                   Forces (Hartrees/Bohr)
 Number     Number              X              Y              Z
 -------------------------------------------------------------------
      1       11          -0.007217527   -0.000813504   -0.003712966
      2       11           0.006445012    0.000587015    0.001717920
      3       11           0.001412192    0.012965113    0.002246285
      4       11          -0.000639676   -0.012738624   -0.000251239
 -------------------------------------------------------------------
 Cartesian Forces:  Max     0.012965113 RMS     0.006118644
 Z-matrix is all fixed cartesians, so copy forces.
 Force constants in Cartesian coordinates: 
                1             2             3             4             5 
      1  0.207487D-01
      2  0.687649D-03  0.610442D-02
      3 -0.262023D-02  0.000000D+00  0.267076D-01
      4 -0.127148D-01  0.000000D+00 -0.234333D-02  0.108466D-01
      5 -0.107261D-05 -0.680295D-04  0.000000D+00  0.000000D+00  0.485304D-04
      6  0.262023D-02  0.000000D+00 -0.550248D-02  0.234333D-02  0.000000D+00
      7 -0.803038D-02 -0.576301D-03  0.496356D-02  0.186815D-02 -0.653646D-04
      8 -0.668527D-03 -0.588749D-02  0.000000D+00  0.000000D+00  0.270853D-04
      9 -0.885422D-03 -0.775427D-02 -0.212051D-01  0.000000D+00  0.000000D+00
     10 -0.354850D-05 -0.111348D-03  0.000000D+00  0.000000D+00  0.664372D-04
     11 -0.180493D-04 -0.148905D-03  0.000000D+00  0.000000D+00 -0.758615D-05
     12  0.885422D-03  0.775427D-02  0.000000D+00  0.000000D+00  0.000000D+00
                6             7             8             9            10 
      6  0.550248D-02
      7 -0.496356D-02  0.713714D-02
      8  0.000000D+00  0.838575D-02  0.737745D-01
      9  0.000000D+00  0.102390D-02  0.896705D-02  0.312410D-01
     10  0.000000D+00 -0.974910D-03 -0.771723D-02 -0.138482D-03  0.978458D-03
     11  0.000000D+00 -0.774409D-02 -0.679141D-01 -0.121278D-02  0.776214D-02
     12  0.000000D+00 -0.102390D-02 -0.896705D-02 -0.100359D-01  0.138482D-03
               11            12 
     11  0.680706D-01
     12  0.121278D-02  0.100359D-01
 Leave Link  716 at Wed Oct  4 14:13:20 2023, MaxMem=  1610612736 cpu:               0.7 elap:               0.4
 (Enter /home/sekinelabo/g16/l103.exe)

 GradGradGradGradGradGradGradGradGradGradGradGradGradGradGradGradGradGrad
 Berny optimization.
 Search for a local minimum.
 Step number   1 out of a maximum of    2
 All quantities printed in internal units (Hartrees-Bohrs-Radians)
 Second derivative matrix not updated -- first step.
 The second derivative matrix:
                          X1        Y1        Z1        X2        Y2
           X1           0.02075
           Y1           0.00069   0.00610
           Z1          -0.00262  -0.00000   0.02671
           X2          -0.01271   0.00000  -0.00234   0.01085
           Y2          -0.00000  -0.00007   0.00000   0.00000   0.00005
           Z2           0.00262  -0.00000  -0.00550   0.00234   0.00000
           X3          -0.00803  -0.00058   0.00496   0.00187  -0.00007
           Y3          -0.00067  -0.00589   0.00000   0.00000   0.00003
           Z3          -0.00089  -0.00775  -0.02121   0.00000   0.00000
           X4          -0.00000  -0.00011  -0.00000  -0.00000   0.00007
           Y4          -0.00002  -0.00015   0.00000   0.00000  -0.00001
           Z4           0.00089   0.00775  -0.00000  -0.00000   0.00000
                          Z2        X3        Y3        Z3        X4
           Z2           0.00550
           X3          -0.00496   0.00714
           Y3           0.00000   0.00839   0.07377
           Z3          -0.00000   0.00102   0.00897   0.03124
           X4          -0.00000  -0.00097  -0.00772  -0.00014   0.00098
           Y4          -0.00000  -0.00774  -0.06791  -0.00121   0.00776
           Z4          -0.00000  -0.00102  -0.00897  -0.01004   0.00014
                          Y4        Z4
           Y4           0.06807
           Z4           0.00121   0.01004
 ITU=  0
     Eigenvalues ---    0.00026   0.01071   0.02225   0.03264   0.05338
     Eigenvalues ---    0.14196
 Quadratic step=5.226D+00 exceeds max=3.000D-01 adjusted using Lamda=-1.375D-02.
 Angle between NR and scaled steps=  66.56 degrees.
 Angle between quadratic step and forces=  39.34 degrees.
 Linear search not attempted -- first point.
 B after Tr=     0.000000    0.000000    0.000000
         Rot=    1.000000   -0.000000    0.000000   -0.000000 Ang=   0.00 deg.
 Variable       Old X    -DE/DX   Delta X   Delta X   Delta X     New X
                                 (Linear)    (Quad)   (Total)
    X1        0.00000  -0.00722   0.00000  -0.16825  -0.16825  -0.16825
    Y1        0.00000  -0.00081   0.00000  -0.02926  -0.02926  -0.02926
    Z1       -0.00000  -0.00371   0.00000  -0.08437  -0.08437  -0.08437
    X2       -6.88426   0.00645   0.00000   0.16490   0.16490  -6.71936
    Y2        0.00000   0.00059   0.00000   0.04175   0.04175   0.04175
    Z2       -2.59105   0.00172   0.00000   0.05669   0.05669  -2.53436
    X3        0.00000   0.00141   0.00000  -0.04360  -0.04360  -0.04360
    Y3        0.00000   0.01297   0.00000   0.08334   0.08334   0.08334
    Z3        6.40846   0.00225   0.00000  -0.00824  -0.00824   6.40023
    X4       -0.56682  -0.00064   0.00000   0.04695   0.04695  -0.51986
    Y4       -4.96402  -0.01274   0.00000  -0.09583  -0.09583  -5.05985
    Z4        6.30500  -0.00025   0.00000   0.03592   0.03592   6.34092
         Item               Value     Threshold  Converged?
 Maximum Force            0.012965     0.000450     NO 
 RMS     Force            0.006119     0.000300     NO 
 Maximum Displacement     0.168253     0.001800     NO 
 RMS     Displacement     0.086614     0.001200     NO 
 Predicted change in Energy=-3.078250D-03
 GradGradGradGradGradGradGradGradGradGradGradGradGradGradGradGradGradGrad

 Leave Link  103 at Wed Oct  4 14:13:23 2023, MaxMem=  1610612736 cpu:               4.7 elap:               2.7
 (Enter /home/sekinelabo/g16/l9999.exe)
 1\1\GINC-SEKINELABO-XA7R-R37\Force\RB3LYP\6-311+G(d)\Na4\SEKINELABO\04
 -Oct-2023\0\\#p B3LYP/6-311+g(d) force\\\0,1\Na,0.,0.,0.\Na,-3.6429924
 651,0.,-1.371123315\Na,0.,0.,3.3912126349\Na,-0.2999468374,-2.62684533
 25,3.3364623102\\Version=ES64L-G16RevB.01\State=1-A\HF=-649.1915386\RM
 SD=3.851e-09\RMSF=6.119e-03\Dipole=0.2272792,-0.2740785,0.558337\Quadr
 upole=1.8831142,2.9303406,-4.8134548,1.7717385,-0.7213981,1.8865534\PG
 =C01 [X(Na4)]\\@


 ACHIEVEMENT--  THE MAN WHO ROWS THE BOAT GENERALLY 
                DOESN'T HAVE TIME TO ROCK IT.

                   -- FROM THE BACK OF A SUGAR PACKET
 Job cpu time:       0 days  0 hours  3 minutes 37.6 seconds.
 Elapsed time:       0 days  0 hours  2 minutes  1.7 seconds.
 File lengths (MBytes):  RWF=     10 Int=      0 D2E=      0 Chk=      2 Scr=      1
 Normal termination of Gaussian 16 at Wed Oct  4 14:13:24 2023.
 Initial command:
 /home/sekinelabo/g16/l1.exe "/home/sekinelabo/g16temp/Gau-8098.inp" -scrdir="/home/sekinelabo/g16temp/"
 Entering Link 1 = /home/sekinelabo/g16/l1.exe PID=     10376.
  
 Copyright (c) 1988-2017, Gaussian, Inc.  All Rights Reserved.
  
 This is part of the Gaussian(R) 16 program.  It is based on
 the Gaussian(R) 09 system (copyright 2009, Gaussian, Inc.),
 the Gaussian(R) 03 system (copyright 2003, Gaussian, Inc.),
 the Gaussian(R) 98 system (copyright 1998, Gaussian, Inc.),
 the Gaussian(R) 94 system (copyright 1995, Gaussian, Inc.),
 the Gaussian 92(TM) system (copyright 1992, Gaussian, Inc.),
 the Gaussian 90(TM) system (copyright 1990, Gaussian, Inc.),
 the Gaussian 88(TM) system (copyright 1988, Gaussian, Inc.),
 the Gaussian 86(TM) system (copyright 1986, Carnegie Mellon
 University), and the Gaussian 82(TM) system (copyright 1983,
 Carnegie Mellon University). Gaussian is a federally registered
 trademark of Gaussian, Inc.
  
 This software contains proprietary and confidential information,
 including trade secrets, belonging to Gaussian, Inc.
  
 This software is provided under written license and may be
 used, copied, transmitted, or stored only in accord with that
 written license.
  
 The following legend is applicable only to US Government
 contracts under FAR:
  
                    RESTRICTED RIGHTS LEGEND
  
 Use, reproduction and disclosure by the US Government is
 subject to restrictions as set forth in subparagraphs (a)
 and (c) of the Commercial Computer Software - Restricted
 Rights clause in FAR 52.227-19.
  
 Gaussian, Inc.
 340 Quinnipiac St., Bldg. 40, Wallingford CT 06492
  
  
 ---------------------------------------------------------------
 Warning -- This program may not be used in any manner that
 competes with the business of Gaussian, Inc. or will provide
 assistance to any competitor of Gaussian, Inc.  The licensee
 of this program is prohibited from giving any competitor of
 Gaussian, Inc. access to this program.  By using this program,
 the user acknowledges that Gaussian, Inc. is engaged in the
 business of creating and licensing software in the field of
 computational chemistry and represents and warrants to the
 licensee that it is not a competitor of Gaussian, Inc. and that
 it will not use this program in any manner prohibited above.
 ---------------------------------------------------------------
  

 Cite this work as:
 Gaussian 16, Revision B.01,
 M. J. Frisch, G. W. Trucks, H. B. Schlegel, G. E. Scuseria, 
 M. A. Robb, J. R. Cheeseman, G. Scalmani, V. Barone, 
 G. A. Petersson, H. Nakatsuji, X. Li, M. Caricato, A. V. Marenich, 
 J. Bloino, B. G. Janesko, R. Gomperts, B. Mennucci, H. P. Hratchian, 
 J. V. Ortiz, A. F. Izmaylov, J. L. Sonnenberg, D. Williams-Young, 
 F. Ding, F. Lipparini, F. Egidi, J. Goings, B. Peng, A. Petrone, 
 T. Henderson, D. Ranasinghe, V. G. Zakrzewski, J. Gao, N. Rega, 
 G. Zheng, W. Liang, M. Hada, M. Ehara, K. Toyota, R. Fukuda, 
 J. Hasegawa, M. Ishida, T. Nakajima, Y. Honda, O. Kitao, H. Nakai, 
 T. Vreven, K. Throssell, J. A. Montgomery, Jr., J. E. Peralta, 
 F. Ogliaro, M. J. Bearpark, J. J. Heyd, E. N. Brothers, K. N. Kudin, 
 V. N. Staroverov, T. A. Keith, R. Kobayashi, J. Normand, 
 K. Raghavachari, A. P. Rendell, J. C. Burant, S. S. Iyengar, 
 J. Tomasi, M. Cossi, J. M. Millam, M. Klene, C. Adamo, R. Cammi, 
 J. W. Ochterski, R. L. Martin, K. Morokuma, O. Farkas, 
 J. B. Foresman, and D. J. Fox, Gaussian, Inc., Wallingford CT, 2016.
 
 ******************************************
 Gaussian 16:  ES64L-G16RevB.01 20-Dec-2017
                 4-Oct-2023 
 ******************************************
 %NProcShared=16
 Will use up to   16 processors via shared memory.
 %mem=12GB
 %Chk=checkpoint.chk
 -------------------------
 #p B3LYP/6-311+g(d) force
 -------------------------
 1/10=7,30=1,38=1/1,3;
 2/12=2,17=6,18=5,40=1/2;
 3/5=4,6=6,7=11,11=2,25=1,30=1,71=1,74=-5/1,2,3;
 4//1;
 5/5=2,38=5/2;
 6/7=2,8=2,9=2,10=2,28=1/1;
 7/29=1/1,2,3,16;
 1/10=7,30=1/3;
 99//99;
 Leave Link    1 at Wed Oct  4 14:13:24 2023, MaxMem=  1610612736 cpu:               0.6 elap:               0.4
 (Enter /home/sekinelabo/g16/l101.exe)


 Symbolic Z-matrix:
 Charge =  0 Multiplicity = 1
 Na                    0.        0.        0. 
 Na                   -5.48993   0.       -1.03526 
 Na                    0.        0.        4.03931 
 Na                    2.06469  -2.34083   3.26717 
 
 ITRead=  0  0  0  0
 MicOpt= -1 -1 -1 -1
 NAtoms=      4 NQM=        4 NQMF=       0 NMMI=      0 NMMIF=      0
                NMic=       0 NMicF=      0.
                    Isotopes and Nuclear Properties:
 (Nuclear quadrupole moments (NQMom) in fm**2, nuclear magnetic moments (NMagM)
  in nuclear magnetons)

  Atom         1           2           3           4
 IAtWgt=          23          23          23          23
 AtmWgt=  22.9897697  22.9897697  22.9897697  22.9897697
 NucSpn=           3           3           3           3
 AtZEff=  -0.0000000  -0.0000000  -0.0000000  -0.0000000
 NQMom=   10.4000000  10.4000000  10.4000000  10.4000000
 NMagM=    2.2175200   2.2175200   2.2175200   2.2175200
 AtZNuc=  11.0000000  11.0000000  11.0000000  11.0000000
 Leave Link  101 at Wed Oct  4 14:13:25 2023, MaxMem=  1610612736 cpu:               1.8 elap:               1.2
 (Enter /home/sekinelabo/g16/l103.exe)

 GradGradGradGradGradGradGradGradGradGradGradGradGradGradGradGradGradGrad
 Berny optimization.
 Initialization pass.
 Trust Radius=3.00D-01 FncErr=1.00D-07 GrdErr=1.00D-07 EigMax=2.50D+02 EigMin=1.00D-04
 Number of steps in this run=      2 maximum allowed number of steps=      2.
 GradGradGradGradGradGradGradGradGradGradGradGradGradGradGradGradGradGrad

 Leave Link  103 at Wed Oct  4 14:13:26 2023, MaxMem=  1610612736 cpu:               0.6 elap:               0.4
 (Enter /home/sekinelabo/g16/l202.exe)
                          Input orientation:                          
 ---------------------------------------------------------------------
 Center     Atomic      Atomic             Coordinates (Angstroms)
 Number     Number       Type             X           Y           Z
 ---------------------------------------------------------------------
      1         11           0        0.000000    0.000000    0.000000
      2         11           0       -5.489927    0.000000   -1.035262
      3         11           0        0.000000    0.000000    4.039313
      4         11           0        2.064690   -2.340828    3.267167
 ---------------------------------------------------------------------
                    Distance matrix (angstroms):
                    1          2          3          4
     1  Na   0.000000
     2  Na   5.586686   0.000000
     3  Na   4.039313   7.476002   0.000000
     4  Na   4.518495   9.003477   3.215374   0.000000
 Stoichiometry    Na4
 Framework group  C1[X(Na4)]
 Deg. of freedom     6
 Full point group                 C1      NOp   1
 Largest Abelian subgroup         C1      NOp   1
 Largest concise Abelian subgroup C1      NOp   1
                         Standard orientation:                         
 ---------------------------------------------------------------------
 Center     Atomic      Atomic             Coordinates (Angstroms)
 Number     Number       Type             X           Y           Z
 ---------------------------------------------------------------------
      1         11           0       -0.292754   -1.649199   -0.853336
      2         11           0       -5.307756    0.406413    0.501387
      3         11           0        1.961456    1.697803   -0.673976
      4         11           0        3.639053   -0.455017    1.025925
 ---------------------------------------------------------------------
 Rotational constants (GHZ):           2.5981487           0.4595607           0.4283255
 Leave Link  202 at Wed Oct  4 14:13:26 2023, MaxMem=  1610612736 cpu:               1.2 elap:               0.7
 (Enter /home/sekinelabo/g16/l301.exe)
 Standard basis: 6-311+G(d) (5D, 7F)
 Ernie: Thresh=  0.10000D-02 Tol=  0.10000D-05 Strict=F.
 There are   124 symmetry adapted cartesian basis functions of A   symmetry.
 There are   120 symmetry adapted basis functions of A   symmetry.
   120 basis functions,   200 primitive gaussians,   124 cartesian basis functions
    22 alpha electrons       22 beta electrons
       nuclear repulsion energy        77.0742025382 Hartrees.
 IExCor=  402 DFT=T Ex+Corr=B3LYP ExCW=0 ScaHFX=  0.200000
 ScaDFX=  0.800000  0.720000  1.000000  0.810000 ScalE2=  1.000000  1.000000
 IRadAn=      5 IRanWt=     -1 IRanGd=            0 ICorTp=0 IEmpDi=  4
 NAtoms=    4 NActive=    4 NUniq=    4 SFac= 1.00D+00 NAtFMM=   60 NAOKFM=F Big=F
 Integral buffers will be    131072 words long.
 Raffenetti 2 integral format.
 Two-electron integral symmetry is turned on.
 Leave Link  301 at Wed Oct  4 14:13:27 2023, MaxMem=  1610612736 cpu:               0.7 elap:               0.4
 (Enter /home/sekinelabo/g16/l302.exe)
 NPDir=0 NMtPBC=     1 NCelOv=     1 NCel=       1 NClECP=     1 NCelD=      1
         NCelK=      1 NCelE2=     1 NClLst=     1 CellRange=     0.0.
 One-electron integrals computed using PRISM.
 One-electron integral symmetry used in STVInt
 NBasis=   120 RedAO= T EigKep=  1.17D-04  NBF=   120
 NBsUse=   120 1.00D-06 EigRej= -1.00D+00 NBFU=   120
 Precomputing XC quadrature grid using
 IXCGrd= 4 IRadAn=           5 IRanWt=          -1 IRanGd=           0 AccXCQ= 0.00D+00.
 Generated NRdTot=       0 NPtTot=           0 NUsed=           0 NTot=          32
 NSgBfM=   117   117   117   117   117 MxSgAt=     4 MxSgA2=     4.
 Leave Link  302 at Wed Oct  4 14:13:38 2023, MaxMem=  1610612736 cpu:              20.9 elap:              11.5
 (Enter /home/sekinelabo/g16/l303.exe)
 DipDrv:  MaxL=1.
 Leave Link  303 at Wed Oct  4 14:13:40 2023, MaxMem=  1610612736 cpu:               3.0 elap:               1.8
 (Enter /home/sekinelabo/g16/l401.exe)
 ExpMin= 7.60D-03 ExpMax= 3.62D+04 ExpMxC= 1.21D+03 IAcc=3 IRadAn=         5 AccDes= 0.00D+00
 Harris functional with IExCor=  402 and IRadAn=       5 diagonalized for initial guess.
 HarFok:  IExCor=  402 AccDes= 0.00D+00 IRadAn=         5 IDoV= 1 UseB2=F ITyADJ=14
 ICtDFT=  3500011 ScaDFX=  1.000000  1.000000  1.000000  1.000000
 FoFCou: FMM=F IPFlag=           0 FMFlag=      100000 FMFlg1=           0
         NFxFlg=           0 DoJE=T BraDBF=F KetDBF=T FulRan=T
         wScrn=  0.000000 ICntrl=       500 IOpCl=  0 I1Cent=   200000004 NGrid=           0
         NMat0=    1 NMatS0=      1 NMatT0=    0 NMatD0=    1 NMtDS0=    0 NMtDT0=    0
 Petite list used in FoFCou.
 Harris En= -649.051725845535    
 JPrj=0 DoOrth=F DoCkMO=F.
 Leave Link  401 at Wed Oct  4 14:13:48 2023, MaxMem=  1610612736 cpu:              14.8 elap:               8.2
 (Enter /home/sekinelabo/g16/l502.exe)
 Keep R1 ints in memory in canonical form, NReq=41581754.
 FoFCou: FMM=F IPFlag=           0 FMFlag=           0 FMFlg1=           0
         NFxFlg=           0 DoJE=F BraDBF=F KetDBF=F FulRan=T
         wScrn=  0.000000 ICntrl=       600 IOpCl=  0 I1Cent=           0 NGrid=           0
         NMat0=    1 NMatS0=   7260 NMatT0=    0 NMatD0=    1 NMtDS0=    0 NMtDT0=    0
 Symmetry not used in FoFCou.
 Two-electron integral symmetry not used.
 Closed shell SCF:
 Using DIIS extrapolation, IDIIS=  1040.
 NGot=  1610612736 LenX=  1584221388 LenY=  1584205571
 Requested convergence on RMS density matrix=1.00D-08 within 128 cycles.
 Requested convergence on MAX density matrix=1.00D-06.
 Requested convergence on             energy=1.00D-06.
 No special actions if energy rises.

 Cycle   1  Pass 1  IDiag  1:
 E= -649.155859273321    
 DIIS: error= 1.31D-02 at cycle   1 NSaved=   1.
 NSaved= 1 IEnMin= 1 EnMin= -649.155859273321     IErMin= 1 ErrMin= 1.31D-02
 ErrMax= 1.31D-02  0.00D+00 EMaxC= 1.00D-01 BMatC= 2.73D-02 BMatP= 2.73D-02
 IDIUse=3 WtCom= 8.69D-01 WtEn= 1.31D-01
 Coeff-Com:  0.100D+01
 Coeff-En:   0.100D+01
 Coeff:      0.100D+01
 Gap=     0.007 Goal=   None    Shift=    0.000
 GapD=    0.007 DampG=0.250 DampE=0.500 DampFc=0.2500 IDamp=-1.
 Damping current iteration by 2.50D-01
 RMSDP=6.53D-03 MaxDP=3.38D-01              OVMax= 6.71D-01

 Cycle   2  Pass 1  IDiag  1:
 E= -649.162878578758     Delta-E=       -0.007019305437 Rises=F Damp=T
 DIIS: error= 9.08D-03 at cycle   2 NSaved=   2.
 NSaved= 2 IEnMin= 2 EnMin= -649.162878578758     IErMin= 2 ErrMin= 9.08D-03
 ErrMax= 9.08D-03  0.00D+00 EMaxC= 1.00D-01 BMatC= 1.02D-02 BMatP= 2.73D-02
 IDIUse=3 WtCom= 9.09D-01 WtEn= 9.08D-02
 Coeff-Com: -0.102D+01 0.202D+01
 Coeff-En:   0.916D-01 0.908D+00
 Coeff:     -0.920D+00 0.192D+01
 Gap=     0.033 Goal=   None    Shift=    0.000
 RMSDP=4.76D-03 MaxDP=2.72D-01 DE=-7.02D-03 OVMax= 6.33D-01

 Cycle   3  Pass 1  IDiag  1:
 E= -649.104690685909     Delta-E=        0.058187892849 Rises=F Damp=F
 DIIS: error= 9.43D-03 at cycle   3 NSaved=   3.
 NSaved= 3 IEnMin= 2 EnMin= -649.162878578758     IErMin= 2 ErrMin= 9.08D-03
 ErrMax= 9.43D-03  0.00D+00 EMaxC= 1.00D-01 BMatC= 6.42D-03 BMatP= 1.02D-02
 IDIUse=3 WtCom= 9.06D-01 WtEn= 9.43D-02
 Rare condition: small coef for last iteration:  0.000D+00
 Coeff-Com: -0.671D+00 0.123D+01 0.439D+00
 Coeff-En:   0.453D-01 0.935D+00 0.199D-01
 Coeff:     -0.671D+00 0.123D+01 0.439D+00
 Gap=     0.033 Goal=   None    Shift=    0.000
 RMSDP=7.38D-03 MaxDP=4.94D-01 DE= 5.82D-02 OVMax= 7.95D-01

 Cycle   4  Pass 1  IDiag  1:
 E= -649.125713247053     Delta-E=       -0.021022561144 Rises=F Damp=F
 DIIS: error= 7.60D-03 at cycle   4 NSaved=   4.
 NSaved= 4 IEnMin= 2 EnMin= -649.162878578758     IErMin= 4 ErrMin= 7.60D-03
 ErrMax= 7.60D-03  0.00D+00 EMaxC= 1.00D-01 BMatC= 4.44D-03 BMatP= 6.42D-03
 IDIUse=3 WtCom= 9.24D-01 WtEn= 7.60D-02
 EnCoef did    25 forward-backward iterations
 Coeff-Com: -0.703D-01 0.181D+00 0.420D+00 0.470D+00
 Coeff-En:   0.385D+00 0.000D+00 0.196D+00 0.418D+00
 Coeff:     -0.356D-01 0.167D+00 0.403D+00 0.466D+00
 Gap=     0.031 Goal=   None    Shift=    0.000
 RMSDP=3.64D-03 MaxDP=1.80D-01 DE=-2.10D-02 OVMax= 4.09D-01

 Cycle   5  Pass 1  IDiag  1:
 E= -649.176450579814     Delta-E=       -0.050737332761 Rises=F Damp=F
 DIIS: error= 4.73D-04 at cycle   5 NSaved=   5.
 NSaved= 5 IEnMin= 5 EnMin= -649.176450579814     IErMin= 5 ErrMin= 4.73D-04
 ErrMax= 4.73D-04  0.00D+00 EMaxC= 1.00D-01 BMatC= 4.96D-05 BMatP= 4.44D-03
 IDIUse=3 WtCom= 9.95D-01 WtEn= 4.73D-03
 Coeff-Com:  0.513D-01-0.655D-01 0.218D-01 0.811D-01 0.911D+00
 Coeff-En:   0.000D+00 0.000D+00 0.000D+00 0.000D+00 0.100D+01
 Coeff:      0.511D-01-0.652D-01 0.217D-01 0.807D-01 0.912D+00
 Gap=     0.028 Goal=   None    Shift=    0.000
 RMSDP=3.41D-04 MaxDP=1.07D-02 DE=-5.07D-02 OVMax= 2.25D-02

 Cycle   6  Pass 1  IDiag  1:
 E= -649.176653325162     Delta-E=       -0.000202745348 Rises=F Damp=F
 DIIS: error= 1.32D-04 at cycle   6 NSaved=   6.
 NSaved= 6 IEnMin= 6 EnMin= -649.176653325162     IErMin= 6 ErrMin= 1.32D-04
 ErrMax= 1.32D-04  0.00D+00 EMaxC= 1.00D-01 BMatC= 7.24D-06 BMatP= 4.96D-05
 IDIUse=3 WtCom= 9.99D-01 WtEn= 1.32D-03
 Coeff-Com:  0.947D-02-0.135D-01-0.105D-01 0.158D-01 0.244D+00 0.754D+00
 Coeff-En:   0.000D+00 0.000D+00 0.000D+00 0.000D+00 0.000D+00 0.100D+01
 Coeff:      0.946D-02-0.135D-01-0.104D-01 0.158D-01 0.244D+00 0.755D+00
 Gap=     0.029 Goal=   None    Shift=    0.000
 RMSDP=1.69D-04 MaxDP=4.50D-03 DE=-2.03D-04 OVMax= 1.49D-02

 Cycle   7  Pass 1  IDiag  1:
 E= -649.176575540710     Delta-E=        0.000077784453 Rises=F Damp=F
 DIIS: error= 3.27D-04 at cycle   7 NSaved=   7.
 NSaved= 7 IEnMin= 6 EnMin= -649.176653325162     IErMin= 6 ErrMin= 1.32D-04
 ErrMax= 3.27D-04  0.00D+00 EMaxC= 1.00D-01 BMatC= 1.09D-05 BMatP= 7.24D-06
 IDIUse=3 WtCom= 9.99D-01 WtEn= 1.32D-03
 Rare condition: small coef for last iteration:  0.000D+00
 Coeff-Com: -0.590D-02 0.774D-02-0.112D-01 0.220D-01 0.599D-01 0.326D+00
 Coeff-Com:  0.602D+00
 Coeff-En:   0.000D+00 0.000D+00 0.000D+00 0.000D+00 0.000D+00 0.000D+00
 Coeff-En:   0.100D+01
 Coeff:     -0.590D-02 0.774D-02-0.112D-01 0.220D-01 0.599D-01 0.326D+00
 Coeff:      0.602D+00
 Gap=     0.028 Goal=   None    Shift=    0.000
 RMSDP=4.41D-05 MaxDP=2.75D-03 DE= 7.78D-05 OVMax= 4.98D-03

 Cycle   8  Pass 1  IDiag  1:
 E= -649.176623876181     Delta-E=       -0.000048335471 Rises=F Damp=F
 DIIS: error= 2.39D-04 at cycle   8 NSaved=   8.
 NSaved= 8 IEnMin= 6 EnMin= -649.176653325162     IErMin= 6 ErrMin= 1.32D-04
 ErrMax= 2.39D-04  0.00D+00 EMaxC= 1.00D-01 BMatC= 5.86D-06 BMatP= 7.24D-06
 IDIUse=3 WtCom= 9.99D-01 WtEn= 1.32D-03
 Coeff-Com: -0.100D-01 0.133D-01-0.693D-02 0.181D-01-0.303D-01-0.232D-01
 Coeff-Com: -0.509D+00 0.155D+01
 Coeff-En:   0.000D+00 0.000D+00 0.000D+00 0.000D+00 0.000D+00 0.000D+00
 Coeff-En:   0.000D+00 0.100D+01
 Coeff:     -0.999D-02 0.133D-01-0.692D-02 0.181D-01-0.303D-01-0.232D-01
 Coeff:     -0.508D+00 0.155D+01
 Gap=     0.028 Goal=   None    Shift=    0.000
 RMSDP=1.39D-05 MaxDP=4.34D-04 DE=-4.83D-05 OVMax= 9.38D-04

 Cycle   9  Pass 1  IDiag  1:
 E= -649.176627841710     Delta-E=       -0.000003965530 Rises=F Damp=F
 DIIS: error= 2.26D-04 at cycle   9 NSaved=   9.
 NSaved= 9 IEnMin= 6 EnMin= -649.176653325162     IErMin= 6 ErrMin= 1.32D-04
 ErrMax= 2.26D-04  0.00D+00 EMaxC= 1.00D-01 BMatC= 4.99D-06 BMatP= 5.86D-06
 IDIUse=3 WtCom= 9.99D-01 WtEn= 1.32D-03
 Coeff-Com: -0.916D-02 0.122D-01-0.575D-02 0.171D-01-0.309D-01-0.401D-01
 Coeff-Com: -0.626D+00 0.118D+01 0.500D+00
 Coeff-En:   0.000D+00 0.000D+00 0.000D+00 0.000D+00 0.000D+00 0.000D+00
 Coeff-En:   0.000D+00 0.000D+00 0.100D+01
 Coeff:     -0.914D-02 0.122D-01-0.574D-02 0.171D-01-0.309D-01-0.400D-01
 Coeff:     -0.625D+00 0.118D+01 0.501D+00
 Gap=     0.028 Goal=   None    Shift=    0.000
 RMSDP=1.62D-05 MaxDP=9.70D-04 DE=-3.97D-06 OVMax= 1.84D-03

 Cycle  10  Pass 1  IDiag  1:
 E= -649.176640971503     Delta-E=       -0.000013129793 Rises=F Damp=F
 DIIS: error= 1.89D-04 at cycle  10 NSaved=  10.
 NSaved=10 IEnMin= 6 EnMin= -649.176653325162     IErMin= 6 ErrMin= 1.32D-04
 ErrMax= 1.89D-04  0.00D+00 EMaxC= 1.00D-01 BMatC= 3.52D-06 BMatP= 4.99D-06
 IDIUse=3 WtCom= 9.99D-01 WtEn= 1.32D-03
 Coeff-Com: -0.979D-03 0.125D-02-0.142D-02 0.455D-02 0.119D-01 0.673D-01
 Coeff-Com: -0.103D+00-0.226D+00-0.318D+01 0.442D+01
 Coeff-En:   0.000D+00 0.000D+00 0.000D+00 0.000D+00 0.000D+00 0.966D+00
 Coeff-En:   0.000D+00 0.000D+00 0.000D+00 0.337D-01
 Coeff:     -0.977D-03 0.125D-02-0.142D-02 0.454D-02 0.119D-01 0.685D-01
 Coeff:     -0.103D+00-0.226D+00-0.317D+01 0.442D+01
 Gap=     0.028 Goal=   None    Shift=    0.000
 RMSDP=5.70D-05 MaxDP=3.26D-03 DE=-1.31D-05 OVMax= 6.37D-03

 Cycle  11  Pass 1  IDiag  1:
 E= -649.176668331026     Delta-E=       -0.000027359523 Rises=F Damp=F
 DIIS: error= 6.66D-05 at cycle  11 NSaved=  11.
 NSaved=11 IEnMin=11 EnMin= -649.176668331026     IErMin=11 ErrMin= 6.66D-05
 ErrMax= 6.66D-05  0.00D+00 EMaxC= 1.00D-01 BMatC= 3.59D-07 BMatP= 3.52D-06
 IDIUse=1 WtCom= 1.00D+00 WtEn= 0.00D+00
 Coeff-Com:  0.363D-03-0.512D-03-0.108D-03 0.799D-03 0.797D-02 0.335D-01
 Coeff-Com:  0.837D-02-0.138D+00-0.173D+01 0.194D+01 0.876D+00
 Coeff:      0.363D-03-0.512D-03-0.108D-03 0.799D-03 0.797D-02 0.335D-01
 Coeff:      0.837D-02-0.138D+00-0.173D+01 0.194D+01 0.876D+00
 Gap=     0.028 Goal=   None    Shift=    0.000
 RMSDP=2.29D-05 MaxDP=1.30D-03 DE=-2.74D-05 OVMax= 2.51D-03

 Cycle  12  Pass 1  IDiag  1:
 E= -649.176671424501     Delta-E=       -0.000003093475 Rises=F Damp=F
 DIIS: error= 8.38D-06 at cycle  12 NSaved=  12.
 NSaved=12 IEnMin=12 EnMin= -649.176671424501     IErMin=12 ErrMin= 8.38D-06
 ErrMax= 8.38D-06  0.00D+00 EMaxC= 1.00D-01 BMatC= 1.00D-08 BMatP= 3.59D-07
 IDIUse=1 WtCom= 1.00D+00 WtEn= 0.00D+00
 Coeff-Com:  0.117D-03-0.162D-03-0.718D-04 0.313D-03 0.274D-02 0.959D-02
 Coeff-Com:  0.163D-01-0.532D-02-0.673D+00 0.629D+00 0.386D+00 0.635D+00
 Coeff:      0.117D-03-0.162D-03-0.718D-04 0.313D-03 0.274D-02 0.959D-02
 Coeff:      0.163D-01-0.532D-02-0.673D+00 0.629D+00 0.386D+00 0.635D+00
 Gap=     0.028 Goal=   None    Shift=    0.000
 RMSDP=3.26D-06 MaxDP=1.61D-04 DE=-3.09D-06 OVMax= 3.33D-04

 Cycle  13  Pass 1  IDiag  1:
 E= -649.176671496023     Delta-E=       -0.000000071522 Rises=F Damp=F
 DIIS: error= 4.93D-06 at cycle  13 NSaved=  13.
 NSaved=13 IEnMin=13 EnMin= -649.176671496023     IErMin=13 ErrMin= 4.93D-06
 ErrMax= 4.93D-06  0.00D+00 EMaxC= 1.00D-01 BMatC= 1.97D-09 BMatP= 1.00D-08
 IDIUse=1 WtCom= 1.00D+00 WtEn= 0.00D+00
 Coeff-Com:  0.136D-04-0.195D-04 0.592D-06-0.389D-04-0.403D-03-0.400D-02
 Coeff-Com: -0.111D-02 0.270D-01 0.126D+00-0.199D+00-0.421D-01 0.240D+00
 Coeff-Com:  0.854D+00
 Coeff:      0.136D-04-0.195D-04 0.592D-06-0.389D-04-0.403D-03-0.400D-02
 Coeff:     -0.111D-02 0.270D-01 0.126D+00-0.199D+00-0.421D-01 0.240D+00
 Coeff:      0.854D+00
 Gap=     0.028 Goal=   None    Shift=    0.000
 RMSDP=2.22D-06 MaxDP=1.33D-04 DE=-7.15D-08 OVMax= 2.37D-04

 Cycle  14  Pass 1  IDiag  1:
 E= -649.176671512282     Delta-E=       -0.000000016260 Rises=F Damp=F
 DIIS: error= 4.06D-07 at cycle  14 NSaved=  14.
 NSaved=14 IEnMin=14 EnMin= -649.176671512282     IErMin=14 ErrMin= 4.06D-07
 ErrMax= 4.06D-07  0.00D+00 EMaxC= 1.00D-01 BMatC= 2.05D-11 BMatP= 1.97D-09
 IDIUse=1 WtCom= 1.00D+00 WtEn= 0.00D+00
 Coeff-Com: -0.133D-04 0.177D-04-0.531D-05-0.901D-05-0.744D-04 0.607D-04
 Coeff-Com:  0.104D-02-0.180D-02 0.204D-01-0.118D-01-0.183D-01-0.290D-01
 Coeff-Com: -0.867D-01 0.113D+01
 Coeff:     -0.133D-04 0.177D-04-0.531D-05-0.901D-05-0.744D-04 0.607D-04
 Coeff:      0.104D-02-0.180D-02 0.204D-01-0.118D-01-0.183D-01-0.290D-01
 Coeff:     -0.867D-01 0.113D+01
 Gap=     0.028 Goal=   None    Shift=    0.000
 RMSDP=3.97D-07 MaxDP=1.17D-05 DE=-1.63D-08 OVMax= 3.70D-05

 Cycle  15  Pass 1  IDiag  1:
 E= -649.176671512524     Delta-E=       -0.000000000242 Rises=F Damp=F
 DIIS: error= 6.56D-08 at cycle  15 NSaved=  15.
 NSaved=15 IEnMin=15 EnMin= -649.176671512524     IErMin=15 ErrMin= 6.56D-08
 ErrMax= 6.56D-08  0.00D+00 EMaxC= 1.00D-01 BMatC= 9.42D-13 BMatP= 2.05D-11
 IDIUse=1 WtCom= 1.00D+00 WtEn= 0.00D+00
 Coeff-Com: -0.784D-05 0.106D-04-0.183D-05-0.214D-05-0.380D-04 0.170D-03
 Coeff-Com:  0.576D-03-0.137D-02 0.141D-02 0.382D-02-0.461D-02-0.178D-01
 Coeff-Com: -0.677D-01 0.416D+00 0.670D+00
 Coeff:     -0.784D-05 0.106D-04-0.183D-05-0.214D-05-0.380D-04 0.170D-03
 Coeff:      0.576D-03-0.137D-02 0.141D-02 0.382D-02-0.461D-02-0.178D-01
 Coeff:     -0.677D-01 0.416D+00 0.670D+00
 Gap=     0.028 Goal=   None    Shift=    0.000
 RMSDP=6.24D-08 MaxDP=1.42D-06 DE=-2.42D-10 OVMax= 4.47D-06

 Cycle  16  Pass 1  IDiag  1:
 E= -649.176671512527     Delta-E=       -0.000000000003 Rises=F Damp=F
 DIIS: error= 3.48D-08 at cycle  16 NSaved=  16.
 NSaved=16 IEnMin=16 EnMin= -649.176671512527     IErMin=16 ErrMin= 3.48D-08
 ErrMax= 3.48D-08  0.00D+00 EMaxC= 1.00D-01 BMatC= 1.58D-13 BMatP= 9.42D-13
 IDIUse=1 WtCom= 1.00D+00 WtEn= 0.00D+00
 Coeff-Com: -0.353D-06 0.571D-06 0.416D-06 0.937D-06-0.118D-05 0.997D-04
 Coeff-Com:  0.189D-04-0.482D-03-0.508D-02 0.602D-02 0.255D-02-0.212D-02
 Coeff-Com: -0.181D-01-0.591D-01 0.231D+00 0.845D+00
 Coeff:     -0.353D-06 0.571D-06 0.416D-06 0.937D-06-0.118D-05 0.997D-04
 Coeff:      0.189D-04-0.482D-03-0.508D-02 0.602D-02 0.255D-02-0.212D-02
 Coeff:     -0.181D-01-0.591D-01 0.231D+00 0.845D+00
 Gap=     0.028 Goal=   None    Shift=    0.000
 RMSDP=3.76D-08 MaxDP=8.34D-07 DE=-2.73D-12 OVMax= 2.59D-06

 Cycle  17  Pass 1  IDiag  1:
 E= -649.176671512524     Delta-E=        0.000000000004 Rises=F Damp=F
 DIIS: error= 4.13D-09 at cycle  17 NSaved=  17.
 NSaved=17 IEnMin=16 EnMin= -649.176671512527     IErMin=17 ErrMin= 4.13D-09
 ErrMax= 4.13D-09  0.00D+00 EMaxC= 1.00D-01 BMatC= 3.11D-15 BMatP= 1.58D-13
 IDIUse=1 WtCom= 1.00D+00 WtEn= 0.00D+00
 Coeff-Com:  0.438D-06-0.583D-06 0.318D-06 0.296D-07-0.107D-06 0.628D-05
 Coeff-Com: -0.191D-04-0.191D-04-0.812D-03 0.649D-03 0.714D-03 0.411D-03
 Coeff-Com: -0.356D-03-0.370D-01 0.238D-01 0.124D+00 0.889D+00
 Coeff:      0.438D-06-0.583D-06 0.318D-06 0.296D-07-0.107D-06 0.628D-05
 Coeff:     -0.191D-04-0.191D-04-0.812D-03 0.649D-03 0.714D-03 0.411D-03
 Coeff:     -0.356D-03-0.370D-01 0.238D-01 0.124D+00 0.889D+00
 Gap=     0.028 Goal=   None    Shift=    0.000
 RMSDP=7.80D-09 MaxDP=2.36D-07 DE= 3.52D-12 OVMax= 6.93D-07

 SCF Done:  E(RB3LYP) =  -649.176671513     A.U. after   17 cycles
            NFock= 17  Conv=0.78D-08     -V/T= 2.0030
 KE= 6.472492506153D+02 PE=-1.713073843004D+03 EE= 3.395737183383D+02
 Leave Link  502 at Wed Oct  4 14:15:33 2023, MaxMem=  1610612736 cpu:             187.1 elap:             105.0
 (Enter /home/sekinelabo/g16/l601.exe)
 Copying SCF densities to generalized density rwf, IOpCl= 0 IROHF=0.

 **********************************************************************

            Population analysis using the SCF Density.

 **********************************************************************

 Orbital symmetries:
       Occupied  (A) (A) (A) (A) (A) (A) (A) (A) (A) (A) (A) (A)
                 (A) (A) (A) (A) (A) (A) (A) (A) (A) (A)
       Virtual   (A) (A) (A) (A) (A) (A) (A) (A) (A) (A) (A) (A)
                 (A) (A) (A) (A) (A) (A) (A) (A) (A) (A) (A) (A)
                 (A) (A) (A) (A) (A) (A) (A) (A) (A) (A) (A) (A)
                 (A) (A) (A) (A) (A) (A) (A) (A) (A) (A) (A) (A)
                 (A) (A) (A) (A) (A) (A) (A) (A) (A) (A) (A) (A)
                 (A) (A) (A) (A) (A) (A) (A) (A) (A) (A) (A) (A)
                 (A) (A) (A) (A) (A) (A) (A) (A) (A) (A) (A) (A)
                 (A) (A) (A) (A) (A) (A) (A) (A) (A) (A) (A) (A)
                 (A) (A)
 The electronic state is 1-A.
 Alpha  occ. eigenvalues --  -38.45864 -38.45619 -38.45421 -38.44725  -2.21631
 Alpha  occ. eigenvalues --   -2.21310  -2.21187  -2.20407  -1.15306  -1.15292
 Alpha  occ. eigenvalues --   -1.15270  -1.15003  -1.14981  -1.14936  -1.14855
 Alpha  occ. eigenvalues --   -1.14848  -1.14820  -1.14085  -1.14084  -1.14053
 Alpha  occ. eigenvalues --   -0.14797  -0.10419
 Alpha virt. eigenvalues --   -0.07578  -0.06552  -0.03319  -0.02727  -0.01841
 Alpha virt. eigenvalues --   -0.01422  -0.01070  -0.00770  -0.00471   0.00149
 Alpha virt. eigenvalues --    0.00268   0.00444   0.00635   0.00723   0.01088
 Alpha virt. eigenvalues --    0.01448   0.01582   0.01705   0.01877   0.01961
 Alpha virt. eigenvalues --    0.01977   0.02175   0.02364   0.02469   0.02661
 Alpha virt. eigenvalues --    0.02928   0.03029   0.03346   0.03596   0.04195
 Alpha virt. eigenvalues --    0.06132   0.07030   0.07098   0.07703   0.07990
 Alpha virt. eigenvalues --    0.08481   0.08706   0.08782   0.09357   0.09652
 Alpha virt. eigenvalues --    0.09894   0.10417   0.10667   0.11929   0.12382
 Alpha virt. eigenvalues --    0.14116   0.28081   0.28992   0.30223   0.30814
 Alpha virt. eigenvalues --    0.32109   0.33543   0.34138   0.35236   0.35522
 Alpha virt. eigenvalues --    0.35561   0.35684   0.35794   0.35967   0.36866
 Alpha virt. eigenvalues --    0.38340   0.38408   0.40670   0.41983   0.42885
 Alpha virt. eigenvalues --    0.43352   0.43539   0.43591   0.43931   0.44148
 Alpha virt. eigenvalues --    0.44709   0.45765   0.45958   0.46955   0.48891
 Alpha virt. eigenvalues --    0.50185   0.51005   0.64183   2.00307   2.02274
 Alpha virt. eigenvalues --    2.06335   2.11870   4.40228   4.42513   4.42971
 Alpha virt. eigenvalues --    4.43307   4.43630   4.44145   4.44253   4.44335
 Alpha virt. eigenvalues --    4.45071   4.45685   4.48128   4.56236  96.19241
 Alpha virt. eigenvalues --   96.21480  96.26206  96.33560
          Condensed to atoms (all electrons):
               1          2          3          4
     1  Na  10.979420   0.175716   0.089645  -0.131350
     2  Na   0.175716  10.996121  -0.028915  -0.059140
     3  Na   0.089645  -0.028915  10.576440   0.304690
     4  Na  -0.131350  -0.059140   0.304690  10.746726
 Mulliken charges:
               1
     1  Na  -0.113431
     2  Na  -0.083782
     3  Na   0.058139
     4  Na   0.139074
 Sum of Mulliken charges =  -0.00000
 Mulliken charges with hydrogens summed into heavy atoms:
               1
     1  Na  -0.113431
     2  Na  -0.083782
     3  Na   0.058139
     4  Na   0.139074
 Electronic spatial extent (au):  <R**2>=           2205.0954
 Charge=              0.0000 electrons
 Dipole moment (field-independent basis, Debye):
    X=              3.4281    Y=              0.3985    Z=              0.0299  Tot=              3.4513
 Quadrupole moment (field-independent basis, Debye-Ang):
   XX=            -45.0495   YY=            -35.6895   ZZ=            -42.1814
   XY=             -4.8602   XZ=              1.1742   YZ=             -3.5614
 Traceless Quadrupole moment (field-independent basis, Debye-Ang):
   XX=             -4.0760   YY=              5.2839   ZZ=             -1.2079
   XY=             -4.8602   XZ=              1.1742   YZ=             -3.5614
 Octapole moment (field-independent basis, Debye-Ang**2):
  XXX=             52.2516  YYY=             12.2252  ZZZ=              1.0860  XYY=             29.2814
  XXY=             -6.9750  XXZ=             24.7917  XZZ=             25.3021  YZZ=              1.4038
  YYZ=             -8.4650  XYZ=            -12.1136
 Hexadecapole moment (field-independent basis, Debye-Ang**3):
 XXXX=          -3130.9667 YYYY=           -480.1629 ZZZZ=           -338.0901 XXXY=           -149.3325
 XXXZ=             39.3685 YYYX=             -3.3300 YYYZ=            -26.9976 ZZZX=             14.7741
 ZZZY=            -23.2603 XXYY=           -642.5886 XXZZ=           -595.8107 YYZZ=           -135.2351
 XXYZ=            -37.2387 YYXZ=             -7.6674 ZZXY=             -9.1090
 N-N= 7.707420253817D+01 E-N=-1.713073843339D+03  KE= 6.472492506153D+02
 No NMR shielding tensors so no spin-rotation constants.
 Leave Link  601 at Wed Oct  4 14:15:38 2023, MaxMem=  1610612736 cpu:               8.7 elap:               4.9
 (Enter /home/sekinelabo/g16/l701.exe)
 ... and contract with generalized density number  0.
 Compute integral first derivatives.
 Leave Link  701 at Wed Oct  4 14:15:42 2023, MaxMem=  1610612736 cpu:               6.5 elap:               3.6
 (Enter /home/sekinelabo/g16/l702.exe)
 L702 exits ... SP integral derivatives will be done elsewhere.
 Leave Link  702 at Wed Oct  4 14:15:42 2023, MaxMem=  1610612736 cpu:               0.6 elap:               0.4
 (Enter /home/sekinelabo/g16/l703.exe)
 Integral derivatives from FoFJK, PRISM(SPDF).
 Compute integral first derivatives, UseDBF=F ICtDFT=           0.
 Calling FoFJK, ICntrl=      2127 FMM=F ISym2X=0 I1Cent= 0 IOpClX= 0 NMat=1 NMatS=1 NMatT=0.
 FoFJK:  IHMeth= 1 ICntrl=    2127 DoSepK=F KAlg= 0 I1Cent=           0 FoldK=F
 IRaf=         0 NMat=       1 IRICut=       1 DoRegI=T DoRafI=F ISym2E= 0 IDoP0=0 IntGTp=1.
 FoFCou: FMM=F IPFlag=           0 FMFlag=      100000 FMFlg1=         800
         NFxFlg=           0 DoJE=F BraDBF=F KetDBF=F FulRan=T
         wScrn=  0.000000 ICntrl=      2127 IOpCl=  0 I1Cent=           0 NGrid=           0
         NMat0=    1 NMatS0=      1 NMatT0=    0 NMatD0=    1 NMtDS0=    0 NMtDT0=    0
 Symmetry not used in FoFCou.
 Leave Link  703 at Wed Oct  4 14:15:49 2023, MaxMem=  1610612736 cpu:              12.3 elap:               6.8
 (Enter /home/sekinelabo/g16/l716.exe)
 Dipole        = 1.34869899D+00 1.56774638D-01 1.17658120D-02
 ***** Axes restored to original set *****
 -------------------------------------------------------------------
 Center     Atomic                   Forces (Hartrees/Bohr)
 Number     Number              X              Y              Z
 -------------------------------------------------------------------
      1       11          -0.004606211   -0.000457951    0.002087738
      2       11           0.004744033    0.000116755    0.000832553
      3       11           0.001194932   -0.001479449   -0.002984931
      4       11          -0.001332754    0.001820646    0.000064640
 -------------------------------------------------------------------
 Cartesian Forces:  Max     0.004744033 RMS     0.002356194
 Z-matrix is all fixed cartesians, so copy forces.
 Force constants in Cartesian coordinates: 
                1             2             3             4             5 
      1  0.187746D-02
      2 -0.212855D-02  0.241323D-02
      3  0.000000D+00  0.000000D+00  0.100602D-01
      4  0.000000D+00  0.000000D+00  0.000000D+00  0.100000D+01
      5  0.000000D+00  0.000000D+00  0.000000D+00  0.000000D+00  0.100000D+01
      6  0.000000D+00  0.000000D+00  0.000000D+00  0.000000D+00  0.000000D+00
      7 -0.131107D-02  0.148642D-02  0.000000D+00  0.000000D+00  0.000000D+00
      8  0.148642D-02 -0.168521D-02  0.000000D+00  0.000000D+00  0.000000D+00
      9  0.346120D-02 -0.392411D-02 -0.100602D-01  0.000000D+00  0.000000D+00
     10 -0.566388D-03  0.642139D-03  0.000000D+00  0.000000D+00  0.000000D+00
     11  0.642139D-03 -0.728020D-03  0.000000D+00  0.000000D+00  0.000000D+00
     12 -0.346120D-02  0.392411D-02  0.000000D+00  0.000000D+00  0.000000D+00
                6             7             8             9            10 
      6  0.100000D+01
      7  0.000000D+00  0.120189D-01
      8  0.000000D+00 -0.136264D-01  0.154488D-01
      9  0.000000D+00 -0.656944D-02  0.744806D-02  0.179941D-01
     10  0.000000D+00 -0.107079D-01  0.121400D-01  0.310824D-02  0.112743D-01
     11  0.000000D+00  0.121400D-01 -0.137636D-01 -0.352395D-02 -0.127821D-01
     12  0.000000D+00  0.656944D-02 -0.744806D-02 -0.793382D-02 -0.310824D-02
               11            12 
     11  0.144916D-01
     12  0.352395D-02  0.793382D-02
 Leave Link  716 at Wed Oct  4 14:15:50 2023, MaxMem=  1610612736 cpu:               0.7 elap:               0.5
 (Enter /home/sekinelabo/g16/l103.exe)

 GradGradGradGradGradGradGradGradGradGradGradGradGradGradGradGradGradGrad
 Berny optimization.
 Search for a local minimum.
 Step number   1 out of a maximum of    2
 All quantities printed in internal units (Hartrees-Bohrs-Radians)
 Second derivative matrix not updated -- first step.
 The second derivative matrix:
                          X1        Y1        Z1        X2        Y2
           X1           0.00188
           Y1          -0.00213   0.00241
           Z1           0.00000   0.00000   0.01006
           X2           0.00000   0.00000   0.00000   1.00000
           Y2           0.00000   0.00000   0.00000   0.00000   1.00000
           Z2           0.00000   0.00000   0.00000   0.00000  -0.00000
           X3          -0.00131   0.00149  -0.00000   0.00000   0.00000
           Y3           0.00149  -0.00169   0.00000   0.00000   0.00000
           Z3           0.00346  -0.00392  -0.01006   0.00000   0.00000
           X4          -0.00057   0.00064  -0.00000   0.00000   0.00000
           Y4           0.00064  -0.00073  -0.00000   0.00000   0.00000
           Z4          -0.00346   0.00392   0.00000   0.00000   0.00000
                          Z2        X3        Y3        Z3        X4
           Z2           1.00000
           X3           0.00000   0.01202
           Y3           0.00000  -0.01363   0.01545
           Z3           0.00000  -0.00657   0.00745   0.01799
           X4           0.00000  -0.01071   0.01214   0.00311   0.01127
           Y4           0.00000   0.01214  -0.01376  -0.00352  -0.01278
           Z4           0.00000   0.00657  -0.00745  -0.00793  -0.00311
                          Y4        Z4
           Y4           0.01449
           Z4           0.00352   0.00793
 ITU=  0
     Eigenvalues ---    0.01119   0.02457   0.05775   0.12666   0.17776
     Eigenvalues ---    0.75000
 Angle between quadratic step and forces=  51.38 degrees.
 Linear search not attempted -- first point.
 B after Tr=     0.000000   -0.000000    0.000000
         Rot=    1.000000    0.000000    0.000000    0.000000 Ang=   0.00 deg.
 Variable       Old X    -DE/DX   Delta X   Delta X   Delta X     New X
                                 (Linear)    (Quad)   (Total)
    X1       -0.00000  -0.00461   0.00000  -0.02089  -0.02089  -0.02089
    Y1        0.00000  -0.00046   0.00000  -0.00303  -0.00303  -0.00303
    Z1       -0.00000   0.00209   0.00000   0.09418   0.09418   0.09418
    X2      -10.37446   0.00474   0.00000   0.00992   0.00992 -10.36454
    Y2       -0.00000   0.00012   0.00000   0.00309   0.00309   0.00309
    Z2       -1.95636   0.00083   0.00000  -0.00463  -0.00463  -1.96099
    X3       -0.00000   0.00119   0.00000   0.01917   0.01917   0.01917
    Y3        0.00000  -0.00148   0.00000  -0.01758  -0.01758  -0.01758
    Z3        7.63320  -0.00298   0.00000  -0.09680  -0.09680   7.53639
    X4        3.90170  -0.00133   0.00000  -0.00820  -0.00820   3.89350
    Y4       -4.42352   0.00182   0.00000   0.01752   0.01752  -4.40601
    Z4        6.17405   0.00006   0.00000   0.00725   0.00725   6.18130
         Item               Value     Threshold  Converged?
 Maximum Force            0.004744     0.000450     NO 
 RMS     Force            0.002356     0.000300     NO 
 Maximum Displacement     0.096802     0.001800     NO 
 RMS     Displacement     0.040742     0.001200     NO 
 Predicted change in Energy=-3.594833D-04
 GradGradGradGradGradGradGradGradGradGradGradGradGradGradGradGradGradGrad

 Leave Link  103 at Wed Oct  4 14:15:52 2023, MaxMem=  1610612736 cpu:               3.5 elap:               2.0
 (Enter /home/sekinelabo/g16/l9999.exe)
 1\1\GINC-SEKINELABO-XA7R-R37\Force\RB3LYP\6-311+G(d)\Na4\SEKINELABO\04
 -Oct-2023\0\\#p B3LYP/6-311+g(d) force\\\0,1\Na,0.,0.,0.\Na,-5.4899266
 251,0.,-1.0352616108\Na,0.,0.,4.0393129375\Na,2.0646897862,-2.34082782
 28,3.2671666549\\Version=ES64L-G16RevB.01\State=1-A\HF=-649.1766715\RM
 SD=7.795e-09\RMSF=2.356e-03\Dipole=1.0038913,-0.236762,0.8830921\Quadr
 upole=1.0909722,0.6507371,-1.7417092,-2.8902059,-3.9048387,2.7598033\P
 G=C01 [X(Na4)]\\@


 DON'T WORRY CHARLIE BROWN...WE LEARN MORE FROM LOSING 
 THAN WE DO FROM WINNING.
 THEN THAT MAKES ME THE SMARTEST PERSON IN THE WORLD...
 CHARLES SCHULZ 'PEANUTS'
 Job cpu time:       0 days  0 hours  4 minutes 24.2 seconds.
 Elapsed time:       0 days  0 hours  2 minutes 28.4 seconds.
 File lengths (MBytes):  RWF=     10 Int=      0 D2E=      0 Chk=      2 Scr=      1
 Normal termination of Gaussian 16 at Wed Oct  4 14:15:52 2023.
 Initial command:
 /home/sekinelabo/g16/l1.exe "/home/sekinelabo/g16temp/Gau-8098.inp" -scrdir="/home/sekinelabo/g16temp/"
 Entering Link 1 = /home/sekinelabo/g16/l1.exe PID=     12820.
  
 Copyright (c) 1988-2017, Gaussian, Inc.  All Rights Reserved.
  
 This is part of the Gaussian(R) 16 program.  It is based on
 the Gaussian(R) 09 system (copyright 2009, Gaussian, Inc.),
 the Gaussian(R) 03 system (copyright 2003, Gaussian, Inc.),
 the Gaussian(R) 98 system (copyright 1998, Gaussian, Inc.),
 the Gaussian(R) 94 system (copyright 1995, Gaussian, Inc.),
 the Gaussian 92(TM) system (copyright 1992, Gaussian, Inc.),
 the Gaussian 90(TM) system (copyright 1990, Gaussian, Inc.),
 the Gaussian 88(TM) system (copyright 1988, Gaussian, Inc.),
 the Gaussian 86(TM) system (copyright 1986, Carnegie Mellon
 University), and the Gaussian 82(TM) system (copyright 1983,
 Carnegie Mellon University). Gaussian is a federally registered
 trademark of Gaussian, Inc.
  
 This software contains proprietary and confidential information,
 including trade secrets, belonging to Gaussian, Inc.
  
 This software is provided under written license and may be
 used, copied, transmitted, or stored only in accord with that
 written license.
  
 The following legend is applicable only to US Government
 contracts under FAR:
  
                    RESTRICTED RIGHTS LEGEND
  
 Use, reproduction and disclosure by the US Government is
 subject to restrictions as set forth in subparagraphs (a)
 and (c) of the Commercial Computer Software - Restricted
 Rights clause in FAR 52.227-19.
  
 Gaussian, Inc.
 340 Quinnipiac St., Bldg. 40, Wallingford CT 06492
  
  
 ---------------------------------------------------------------
 Warning -- This program may not be used in any manner that
 competes with the business of Gaussian, Inc. or will provide
 assistance to any competitor of Gaussian, Inc.  The licensee
 of this program is prohibited from giving any competitor of
 Gaussian, Inc. access to this program.  By using this program,
 the user acknowledges that Gaussian, Inc. is engaged in the
 business of creating and licensing software in the field of
 computational chemistry and represents and warrants to the
 licensee that it is not a competitor of Gaussian, Inc. and that
 it will not use this program in any manner prohibited above.
 ---------------------------------------------------------------
  

 Cite this work as:
 Gaussian 16, Revision B.01,
 M. J. Frisch, G. W. Trucks, H. B. Schlegel, G. E. Scuseria, 
 M. A. Robb, J. R. Cheeseman, G. Scalmani, V. Barone, 
 G. A. Petersson, H. Nakatsuji, X. Li, M. Caricato, A. V. Marenich, 
 J. Bloino, B. G. Janesko, R. Gomperts, B. Mennucci, H. P. Hratchian, 
 J. V. Ortiz, A. F. Izmaylov, J. L. Sonnenberg, D. Williams-Young, 
 F. Ding, F. Lipparini, F. Egidi, J. Goings, B. Peng, A. Petrone, 
 T. Henderson, D. Ranasinghe, V. G. Zakrzewski, J. Gao, N. Rega, 
 G. Zheng, W. Liang, M. Hada, M. Ehara, K. Toyota, R. Fukuda, 
 J. Hasegawa, M. Ishida, T. Nakajima, Y. Honda, O. Kitao, H. Nakai, 
 T. Vreven, K. Throssell, J. A. Montgomery, Jr., J. E. Peralta, 
 F. Ogliaro, M. J. Bearpark, J. J. Heyd, E. N. Brothers, K. N. Kudin, 
 V. N. Staroverov, T. A. Keith, R. Kobayashi, J. Normand, 
 K. Raghavachari, A. P. Rendell, J. C. Burant, S. S. Iyengar, 
 J. Tomasi, M. Cossi, J. M. Millam, M. Klene, C. Adamo, R. Cammi, 
 J. W. Ochterski, R. L. Martin, K. Morokuma, O. Farkas, 
 J. B. Foresman, and D. J. Fox, Gaussian, Inc., Wallingford CT, 2016.
 
 ******************************************
 Gaussian 16:  ES64L-G16RevB.01 20-Dec-2017
                 4-Oct-2023 
 ******************************************
 %NProcShared=16
 Will use up to   16 processors via shared memory.
 %mem=12GB
 %Chk=checkpoint.chk
 -------------------------
 #p B3LYP/6-311+g(d) force
 -------------------------
 1/10=7,30=1,38=1/1,3;
 2/12=2,17=6,18=5,40=1/2;
 3/5=4,6=6,7=11,11=2,25=1,30=1,71=1,74=-5/1,2,3;
 4//1;
 5/5=2,38=5/2;
 6/7=2,8=2,9=2,10=2,28=1/1;
 7/29=1/1,2,3,16;
 1/10=7,30=1/3;
 99//99;
 Leave Link    1 at Wed Oct  4 14:15:53 2023, MaxMem=  1610612736 cpu:               0.4 elap:               0.3
 (Enter /home/sekinelabo/g16/l101.exe)


 Symbolic Z-matrix:
 Charge =  0 Multiplicity = 1
 Na                    0.        0.        0. 
 Na                   -5.24028   0.        1.0736 
 Na                    0.        0.        4.59591 
 Na                    4.17232  -0.52688   6.84588 
 
 ITRead=  0  0  0  0
 MicOpt= -1 -1 -1 -1
 NAtoms=      4 NQM=        4 NQMF=       0 NMMI=      0 NMMIF=      0
                NMic=       0 NMicF=      0.
                    Isotopes and Nuclear Properties:
 (Nuclear quadrupole moments (NQMom) in fm**2, nuclear magnetic moments (NMagM)
  in nuclear magnetons)

  Atom         1           2           3           4
 IAtWgt=          23          23          23          23
 AtmWgt=  22.9897697  22.9897697  22.9897697  22.9897697
 NucSpn=           3           3           3           3
 AtZEff=  -0.0000000  -0.0000000  -0.0000000  -0.0000000
 NQMom=   10.4000000  10.4000000  10.4000000  10.4000000
 NMagM=    2.2175200   2.2175200   2.2175200   2.2175200
 AtZNuc=  11.0000000  11.0000000  11.0000000  11.0000000
 Leave Link  101 at Wed Oct  4 14:15:54 2023, MaxMem=  1610612736 cpu:               2.0 elap:               1.2
 (Enter /home/sekinelabo/g16/l103.exe)

 GradGradGradGradGradGradGradGradGradGradGradGradGradGradGradGradGradGrad
 Berny optimization.
 Initialization pass.
 Trust Radius=3.00D-01 FncErr=1.00D-07 GrdErr=1.00D-07 EigMax=2.50D+02 EigMin=1.00D-04
 Number of steps in this run=      2 maximum allowed number of steps=      2.
 GradGradGradGradGradGradGradGradGradGradGradGradGradGradGradGradGradGrad

 Leave Link  103 at Wed Oct  4 14:15:54 2023, MaxMem=  1610612736 cpu:               0.6 elap:               0.4
 (Enter /home/sekinelabo/g16/l202.exe)
                          Input orientation:                          
 ---------------------------------------------------------------------
 Center     Atomic      Atomic             Coordinates (Angstroms)
 Number     Number       Type             X           Y           Z
 ---------------------------------------------------------------------
      1         11           0        0.000000    0.000000    0.000000
      2         11           0       -5.240284    0.000000    1.073605
      3         11           0        0.000000    0.000000    4.595914
      4         11           0        4.172325   -0.526879    6.845880
 ---------------------------------------------------------------------
                    Distance matrix (angstroms):
                    1          2          3          4
     1  Na   0.000000
     2  Na   5.349131   0.000000
     3  Na   4.595914   6.314051   0.000000
     4  Na   8.034424  11.054138   4.769511   0.000000
 Stoichiometry    Na4
 Framework group  C1[X(Na4)]
 Deg. of freedom     6
 Full point group                 C1      NOp   1
 Largest Abelian subgroup         C1      NOp   1
 Largest concise Abelian subgroup C1      NOp   1
                         Standard orientation:                         
 ---------------------------------------------------------------------
 Center     Atomic      Atomic             Coordinates (Angstroms)
 Number     Number       Type             X           Y           Z
 ---------------------------------------------------------------------
      1         11           0       -1.685415    2.652832    0.013934
[...]
 Coeff:     -0.675D-01 0.704D-02 0.330D+00 0.750D+00
 Gap=     0.023 Goal=   None    Shift=    0.000
 RMSDP=2.10D-05 MaxDP=9.60D-04 DE=-1.76D-05 OVMax= 1.94D-03

 Cycle  11  Pass 1  IDiag  1:
 E= -649.160166882518     Delta-E=       -0.000001397950 Rises=F Damp=F
 DIIS: error= 4.17D-06 at cycle  11 NSaved=  11.
 NSaved=11 IEnMin=11 EnMin= -649.160166882518     IErMin=11 ErrMin= 4.17D-06
 ErrMax= 4.17D-06  0.00D+00 EMaxC= 1.00D-01 BMatC= 1.58D-09 BMatP= 1.65D-07
 IDIUse=1 WtCom= 1.00D+00 WtEn= 0.00D+00
 Coeff-Com: -0.184D-03 0.244D-03-0.182D-04-0.793D-05 0.123D-02 0.382D-02
 Coeff-Com:  0.331D-03-0.168D-01-0.190D-01 0.747D-01 0.956D+00
 Coeff:     -0.184D-03 0.244D-03-0.182D-04-0.793D-05 0.123D-02 0.382D-02
 Coeff:      0.331D-03-0.168D-01-0.190D-01 0.747D-01 0.956D+00
 Gap=     0.023 Goal=   None    Shift=    0.000
 RMSDP=3.23D-06 MaxDP=1.62D-04 DE=-1.40D-06 OVMax= 1.01D-04

 Cycle  12  Pass 1  IDiag  1:
 E= -649.160166891440     Delta-E=       -0.000000008922 Rises=F Damp=F
 DIIS: error= 2.15D-06 at cycle  12 NSaved=  12.
 NSaved=12 IEnMin=12 EnMin= -649.160166891440     IErMin=12 ErrMin= 2.15D-06
 ErrMax= 2.15D-06  0.00D+00 EMaxC= 1.00D-01 BMatC= 3.15D-10 BMatP= 1.58D-09
 IDIUse=1 WtCom= 1.00D+00 WtEn= 0.00D+00
 Coeff-Com:  0.102D-04-0.128D-04-0.289D-04-0.478D-04 0.456D-03 0.665D-03
 Coeff-Com:  0.295D-02-0.334D-02-0.194D-01-0.308D-01 0.166D+00 0.884D+00
 Coeff:      0.102D-04-0.128D-04-0.289D-04-0.478D-04 0.456D-03 0.665D-03
 Coeff:      0.295D-02-0.334D-02-0.194D-01-0.308D-01 0.166D+00 0.884D+00
 Gap=     0.023 Goal=   None    Shift=    0.000
 RMSDP=9.79D-07 MaxDP=4.11D-05 DE=-8.92D-09 OVMax= 7.42D-05

 Cycle  13  Pass 1  IDiag  1:
 E= -649.160166893929     Delta-E=       -0.000000002489 Rises=F Damp=F
 DIIS: error= 3.72D-07 at cycle  13 NSaved=  13.
 NSaved=13 IEnMin=13 EnMin= -649.160166893929     IErMin=13 ErrMin= 3.72D-07
 ErrMax= 3.72D-07  0.00D+00 EMaxC= 1.00D-01 BMatC= 9.25D-12 BMatP= 3.15D-10
 IDIUse=1 WtCom= 1.00D+00 WtEn= 0.00D+00
 Coeff-Com:  0.951D-05-0.122D-04-0.138D-05 0.169D-04-0.119D-03-0.275D-03
 Coeff-Com:  0.250D-03 0.132D-02-0.135D-02-0.734D-02-0.662D-01 0.105D+00
 Coeff-Com:  0.969D+00
 Coeff:      0.951D-05-0.122D-04-0.138D-05 0.169D-04-0.119D-03-0.275D-03
 Coeff:      0.250D-03 0.132D-02-0.135D-02-0.734D-02-0.662D-01 0.105D+00
 Coeff:      0.969D+00
 Gap=     0.023 Goal=   None    Shift=    0.000
 RMSDP=2.87D-07 MaxDP=8.88D-06 DE=-2.49D-09 OVMax= 1.17D-05

 Cycle  14  Pass 1  IDiag  1:
 E= -649.160166893978     Delta-E=       -0.000000000049 Rises=F Damp=F
 DIIS: error= 1.51D-07 at cycle  14 NSaved=  14.
 NSaved=14 IEnMin=14 EnMin= -649.160166893978     IErMin=14 ErrMin= 1.51D-07
 ErrMax= 1.51D-07  0.00D+00 EMaxC= 1.00D-01 BMatC= 2.00D-12 BMatP= 9.25D-12
 IDIUse=1 WtCom= 1.00D+00 WtEn= 0.00D+00
 Coeff-Com:  0.139D-05-0.131D-05-0.236D-07 0.324D-05-0.483D-04-0.108D-03
 Coeff-Com: -0.279D-04 0.431D-03 0.299D-03-0.203D-02-0.265D-01-0.261D-01
 Coeff-Com:  0.252D+00 0.802D+00
 Coeff:      0.139D-05-0.131D-05-0.236D-07 0.324D-05-0.483D-04-0.108D-03
 Coeff:     -0.279D-04 0.431D-03 0.299D-03-0.203D-02-0.265D-01-0.261D-01
 Coeff:      0.252D+00 0.802D+00
 Gap=     0.023 Goal=   None    Shift=    0.000
 RMSDP=7.08D-08 MaxDP=2.17D-06 DE=-4.88D-11 OVMax= 4.10D-06

 Cycle  15  Pass 1  IDiag  1:
 E= -649.160166893997     Delta-E=       -0.000000000019 Rises=F Damp=F
 DIIS: error= 8.34D-08 at cycle  15 NSaved=  15.
 NSaved=15 IEnMin=15 EnMin= -649.160166893997     IErMin=15 ErrMin= 8.34D-08
 ErrMax= 8.34D-08  0.00D+00 EMaxC= 1.00D-01 BMatC= 3.37D-13 BMatP= 2.00D-12
 IDIUse=1 WtCom= 1.00D+00 WtEn= 0.00D+00
 Coeff-Com: -0.118D-05 0.156D-05 0.352D-06 0.246D-05-0.107D-04-0.176D-05
 Coeff-Com: -0.529D-04 0.893D-05 0.282D-03-0.118D-04 0.209D-03-0.145D-01
 Coeff-Com: -0.672D-01 0.185D+00 0.896D+00
 Coeff:     -0.118D-05 0.156D-05 0.352D-06 0.246D-05-0.107D-04-0.176D-05
 Coeff:     -0.529D-04 0.893D-05 0.282D-03-0.118D-04 0.209D-03-0.145D-01
 Coeff:     -0.672D-01 0.185D+00 0.896D+00
 Gap=     0.023 Goal=   None    Shift=    0.000
 RMSDP=3.58D-08 MaxDP=1.32D-06 DE=-1.86D-11 OVMax= 1.92D-06

 Cycle  16  Pass 1  IDiag  1:
 E= -649.160166893997     Delta-E=       -0.000000000000 Rises=F Damp=F
 DIIS: error= 2.52D-08 at cycle  16 NSaved=  16.
 NSaved=16 IEnMin=16 EnMin= -649.160166893997     IErMin=16 ErrMin= 2.52D-08
 ErrMax= 2.52D-08  0.00D+00 EMaxC= 1.00D-01 BMatC= 3.98D-14 BMatP= 3.37D-13
 IDIUse=1 WtCom= 1.00D+00 WtEn= 0.00D+00
 Large coefficients: NSaved= 16 BigCof=    0.00 CofMax=   10.00 Det=-7.45D-15
 Inversion failed.  Reducing to 15 matrices.
 Coeff-Com: -0.494D-06 0.623D-06 0.448D-06 0.128D-05 0.755D-05-0.926D-05
 Coeff-Com: -0.465D-04 0.281D-04 0.836D-05 0.196D-02-0.343D-02-0.354D-01
 Coeff-Com:  0.285D-02 0.216D+00 0.818D+00
 Coeff:     -0.494D-06 0.623D-06 0.448D-06 0.128D-05 0.755D-05-0.926D-05
 Coeff:     -0.465D-04 0.281D-04 0.836D-05 0.196D-02-0.343D-02-0.354D-01
 Coeff:      0.285D-02 0.216D+00 0.818D+00
 Gap=     0.023 Goal=   None    Shift=    0.000
 RMSDP=1.01D-08 MaxDP=4.46D-07 DE=-3.41D-13 OVMax= 8.30D-07

 Cycle  17  Pass 1  IDiag  1:
 E= -649.160166894001     Delta-E=       -0.000000000004 Rises=F Damp=F
 DIIS: error= 4.26D-09 at cycle  17 NSaved=  16.
 NSaved=16 IEnMin=16 EnMin= -649.160166894001     IErMin=16 ErrMin= 4.26D-09
 ErrMax= 4.26D-09  0.00D+00 EMaxC= 1.00D-01 BMatC= 1.21D-15 BMatP= 3.98D-14
 IDIUse=1 WtCom= 1.00D+00 WtEn= 0.00D+00
 Large coefficients: NSaved= 16 BigCof=    0.00 CofMax=   10.00 Det=-7.60D-16
 Inversion failed.  Reducing to 15 matrices.
 Coeff-Com:  0.484D-08 0.143D-06-0.141D-06-0.735D-07-0.141D-05-0.121D-06
 Coeff-Com: -0.618D-05 0.337D-05 0.160D-03 0.547D-03 0.173D-02-0.201D-01
 Coeff-Com: -0.458D-01 0.164D+00 0.899D+00
 Coeff:      0.484D-08 0.143D-06-0.141D-06-0.735D-07-0.141D-05-0.121D-06
 Coeff:     -0.618D-05 0.337D-05 0.160D-03 0.547D-03 0.173D-02-0.201D-01
 Coeff:     -0.458D-01 0.164D+00 0.899D+00
 Gap=     0.023 Goal=   None    Shift=    0.000
 RMSDP=2.16D-09 MaxDP=7.42D-08 DE=-3.64D-12 OVMax= 1.29D-07

 SCF Done:  E(RB3LYP) =  -649.160166894     A.U. after   17 cycles
            NFock= 17  Conv=0.22D-08     -V/T= 2.0027
 KE= 6.474114351743D+02 PE=-1.755363256413D+03 EE= 3.605199811153D+02
 Leave Link  502 at Wed Oct  4 16:58:23 2023, MaxMem=  1610612736 cpu:             174.8 elap:              63.7
 (Enter /home/sekinelabo/g16/l601.exe)
 Copying SCF densities to generalized density rwf, IOpCl= 0 IROHF=0.

 **********************************************************************

            Population analysis using the SCF Density.

 **********************************************************************

 Orbital symmetries:
       Occupied  (A) (A) (A) (A) (A) (A) (A) (A) (A) (A) (A) (A)
                 (A) (A) (A) (A) (A) (A) (A) (A) (A) (A)
       Virtual   (A) (A) (A) (A) (A) (A) (A) (A) (A) (A) (A) (A)
                 (A) (A) (A) (A) (A) (A) (A) (A) (A) (A) (A) (A)
                 (A) (A) (A) (A) (A) (A) (A) (A) (A) (A) (A) (A)
                 (A) (A) (A) (A) (A) (A) (A) (A) (A) (A) (A) (A)
                 (A) (A) (A) (A) (A) (A) (A) (A) (A) (A) (A) (A)
                 (A) (A) (A) (A) (A) (A) (A) (A) (A) (A) (A) (A)
                 (A) (A) (A) (A) (A) (A) (A) (A) (A) (A) (A) (A)
                 (A) (A) (A) (A) (A) (A) (A) (A) (A) (A) (A) (A)
                 (A) (A)
 The electronic state is 1-A.
 Alpha  occ. eigenvalues --  -38.48412 -38.45780 -38.44877 -38.43912  -2.24334
 Alpha  occ. eigenvalues --   -2.21787  -2.20667  -2.19617  -1.18619  -1.17888
 Alpha  occ. eigenvalues --   -1.17799  -1.15446  -1.15350  -1.15233  -1.14365
 Alpha  occ. eigenvalues --   -1.14330  -1.14283  -1.13297  -1.13293  -1.13254
 Alpha  occ. eigenvalues --   -0.16256  -0.10432
 Alpha virt. eigenvalues --   -0.08119  -0.04917  -0.04006  -0.02938  -0.01475
 Alpha virt. eigenvalues --   -0.01038  -0.00710  -0.00507  -0.00192   0.00185
 Alpha virt. eigenvalues --    0.00681   0.00744   0.00843   0.01182   0.01429
 Alpha virt. eigenvalues --    0.01520   0.01860   0.01963   0.02004   0.02118
 Alpha virt. eigenvalues --    0.02230   0.02414   0.02506   0.02572   0.02937
 Alpha virt. eigenvalues --    0.03268   0.03303   0.03994   0.04698   0.05289
 Alpha virt. eigenvalues --    0.06147   0.06740   0.07307   0.07827   0.08337
 Alpha virt. eigenvalues --    0.08639   0.08830   0.09125   0.09685   0.09961
 Alpha virt. eigenvalues --    0.10411   0.10969   0.11652   0.12658   0.14284
 Alpha virt. eigenvalues --    0.16991   0.26453   0.26636   0.29016   0.30596
 Alpha virt. eigenvalues --    0.33188   0.33630   0.34899   0.35492   0.36033
 Alpha virt. eigenvalues --    0.36085   0.36984   0.37324   0.37623   0.39690
 Alpha virt. eigenvalues --    0.40531   0.41622   0.42059   0.43419   0.43605
 Alpha virt. eigenvalues --    0.43877   0.44424   0.44551   0.45355   0.46519
 Alpha virt. eigenvalues --    0.48281   0.48917   0.49708   0.50706   0.58096
 Alpha virt. eigenvalues --    0.58962   0.66849   0.88181   2.03846   2.04452
 Alpha virt. eigenvalues --    2.06652   2.18429   4.40816   4.41535   4.43038
 Alpha virt. eigenvalues --    4.43975   4.44939   4.45008   4.45231   4.46416
 Alpha virt. eigenvalues --    4.47950   4.53960   4.60001   4.76053  96.23638
 Alpha virt. eigenvalues --   96.24745  96.27156  96.42212
          Condensed to atoms (all electrons):
               1          2          3          4
     1  Na  10.404703   0.151305   0.130342  -0.062860
     2  Na   0.151305  11.018454  -0.167736  -0.154447
     3  Na   0.130342  -0.167736  11.346059   0.258369
     4  Na  -0.062860  -0.154447   0.258369  10.920837
 Mulliken charges:
               1
     1  Na   0.376511
     2  Na   0.152424
     3  Na  -0.567035
     4  Na   0.038100
 Sum of Mulliken charges =  -0.00000
 Mulliken charges with hydrogens summed into heavy atoms:
               1
     1  Na   0.376511
     2  Na   0.152424
     3  Na  -0.567035
     4  Na   0.038100
 Electronic spatial extent (au):  <R**2>=           1427.2094
 Charge=              0.0000 electrons
 Dipole moment (field-independent basis, Debye):
    X=             -2.9509    Y=              0.5635    Z=             -0.3224  Tot=              3.0215
 Quadrupole moment (field-independent basis, Debye-Ang):
   XX=            -44.9961   YY=            -33.1641   ZZ=            -43.5569
   XY=             -5.5977   XZ=              0.5868   YZ=             -1.2195
 Traceless Quadrupole moment (field-independent basis, Debye-Ang):
   XX=             -4.4237   YY=              7.4082   ZZ=             -2.9845
   XY=             -5.5977   XZ=              0.5868   YZ=             -1.2195
 Octapole moment (field-independent basis, Debye-Ang**2):
  XXX=            -21.6731  YYY=             17.6370  ZZZ=             -0.3917  XYY=            -37.6152
  XXY=              2.3021  XXZ=             -6.2468  XZZ=            -11.7257  YZZ=              2.3606
  YYZ=             -4.7754  XYZ=              1.2601
 Hexadecapole moment (field-independent basis, Debye-Ang**3):
 XXXX=          -1946.5675 YYYY=           -520.5768 ZZZZ=           -198.2182 XXXY=            -40.5091
 XXXZ=             -3.9409 YYYX=            -58.6380 YYYZ=            -12.1905 ZZZX=              2.4621
 ZZZY=             -6.4904 XXYY=           -392.9280 XXZZ=           -381.4296 YYZZ=           -128.3338
 XXYZ=             -2.7905 YYXZ=              7.1788 ZZXY=            -12.5619
 N-N= 9.827167322981D+01 E-N=-1.755363256635D+03  KE= 6.474114351743D+02
 No NMR shielding tensors so no spin-rotation constants.
 Leave Link  601 at Wed Oct  4 16:58:25 2023, MaxMem=  1610612736 cpu:               7.3 elap:               2.2
 (Enter /home/sekinelabo/g16/l701.exe)
 ... and contract with generalized density number  0.
 Compute integral first derivatives.
 Leave Link  701 at Wed Oct  4 16:58:27 2023, MaxMem=  1610612736 cpu:               7.2 elap:               2.2
 (Enter /home/sekinelabo/g16/l702.exe)
 L702 exits ... SP integral derivatives will be done elsewhere.
 Leave Link  702 at Wed Oct  4 16:58:28 2023, MaxMem=  1610612736 cpu:               0.6 elap:               0.2
 (Enter /home/sekinelabo/g16/l703.exe)
 Integral derivatives from FoFJK, PRISM(SPDF).
 Compute integral first derivatives, UseDBF=F ICtDFT=           0.
 Calling FoFJK, ICntrl=      2127 FMM=F ISym2X=0 I1Cent= 0 IOpClX= 0 NMat=1 NMatS=1 NMatT=0.
 FoFJK:  IHMeth= 1 ICntrl=    2127 DoSepK=F KAlg= 0 I1Cent=           0 FoldK=F
 IRaf=         0 NMat=       1 IRICut=       1 DoRegI=T DoRafI=F ISym2E= 0 IDoP0=0 IntGTp=1.
 FoFCou: FMM=F IPFlag=           0 FMFlag=      100000 FMFlg1=         800
         NFxFlg=           0 DoJE=F BraDBF=F KetDBF=F FulRan=T
         wScrn=  0.000000 ICntrl=      2127 IOpCl=  0 I1Cent=           0 NGrid=           0
         NMat0=    1 NMatS0=      1 NMatT0=    0 NMatD0=    1 NMtDS0=    0 NMtDT0=    0
 Symmetry not used in FoFCou.
 Leave Link  703 at Wed Oct  4 16:58:31 2023, MaxMem=  1610612736 cpu:              12.3 elap:               3.8
 (Enter /home/sekinelabo/g16/l716.exe)
 Dipole        =-1.16097779D+00 2.21706891D-01-1.26843238D-01
 ***** Axes restored to original set *****
 -------------------------------------------------------------------
 Center     Atomic                   Forces (Hartrees/Bohr)
 Number     Number              X              Y              Z
 -------------------------------------------------------------------
      1       11          -0.002365312   -0.000819574   -0.027483900
      2       11          -0.002777869    0.000845721   -0.003703880
      3       11           0.006953613   -0.002261948    0.035234032
      4       11          -0.001810432    0.002235800   -0.004046253
 -------------------------------------------------------------------
 Cartesian Forces:  Max     0.035234032 RMS     0.013239261
 Z-matrix is all fixed cartesians, so copy forces.
 Force constants in Cartesian coordinates: 
                1             2             3             4             5 
      1  0.276370D-01
      2  0.000000D+00  0.000000D+00
      3 -0.720601D-02  0.000000D+00  0.155299D+00
      4 -0.566501D-02  0.000000D+00  0.103802D-02  0.384958D-01
      5  0.000000D+00  0.000000D+00  0.000000D+00  0.000000D+00  0.000000D+00
      6  0.200535D-01  0.000000D+00 -0.522443D-02 -0.447417D-02  0.000000D+00
      7 -0.219720D-01  0.000000D+00  0.616799D-02 -0.328307D-01  0.000000D+00
      8  0.000000D+00  0.000000D+00  0.000000D+00  0.000000D+00  0.000000D+00
      9 -0.128475D-01  0.000000D+00 -0.150074D+00  0.343616D-02  0.000000D+00
     10  0.000000D+00  0.000000D+00  0.000000D+00  0.000000D+00  0.000000D+00
     11  0.000000D+00  0.000000D+00  0.000000D+00  0.000000D+00  0.000000D+00
     12  0.000000D+00  0.000000D+00  0.000000D+00  0.000000D+00  0.000000D+00
                6             7             8             9            10 
      6  0.145545D-01
      7 -0.155794D-01  0.548028D-01
      8  0.000000D+00  0.000000D+00  0.000000D+00
      9 -0.933002D-02  0.941137D-02  0.000000D+00  0.159404D+00
     10  0.000000D+00  0.000000D+00  0.000000D+00  0.000000D+00  0.100000D+01
     11  0.000000D+00  0.000000D+00  0.000000D+00  0.000000D+00  0.000000D+00
     12  0.000000D+00  0.000000D+00  0.000000D+00  0.000000D+00  0.000000D+00
               11            12 
     11  0.100000D+01
     12  0.000000D+00  0.100000D+01
 Leave Link  716 at Wed Oct  4 16:58:32 2023, MaxMem=  1610612736 cpu:               0.9 elap:               0.3
 (Enter /home/sekinelabo/g16/l103.exe)

 GradGradGradGradGradGradGradGradGradGradGradGradGradGradGradGradGradGrad
 Berny optimization.
 Search for a local minimum.
 Step number   1 out of a maximum of    2
 All quantities printed in internal units (Hartrees-Bohrs-Radians)
 Second derivative matrix not updated -- first step.
 The second derivative matrix:
                          X1        Y1        Z1        X2        Y2
           X1           0.02764
           Y1           0.00000   0.00000
           Z1          -0.00721  -0.00000   0.15530
           X2          -0.00567  -0.00000   0.00104   0.03850
           Y2           0.00000  -0.00000  -0.00000   0.00000  -0.00000
           Z2           0.02005   0.00000  -0.00522  -0.00447   0.00000
           X3          -0.02197  -0.00000   0.00617  -0.03283  -0.00000
           Y3          -0.00000   0.00000   0.00000  -0.00000   0.00000
           Z3          -0.01285  -0.00000  -0.15007   0.00344  -0.00000
           X4           0.00000   0.00000   0.00000   0.00000   0.00000
           Y4           0.00000   0.00000   0.00000   0.00000   0.00000
           Z4           0.00000   0.00000   0.00000   0.00000   0.00000
                          Z2        X3        Y3        Z3        X4
           Z2           0.01455
           X3          -0.01558   0.05480
           Y3          -0.00000   0.00000   0.00000
           Z3          -0.00933   0.00941  -0.00000   0.15940
           X4           0.00000   0.00000   0.00000   0.00000   1.00000
           Y4           0.00000   0.00000   0.00000   0.00000   0.00000
           Z4           0.00000   0.00000   0.00000   0.00000   0.00000
                          Y4        Z4
           Y4           1.00000
           Z4           0.00000   1.00000
 ITU=  0
     Eigenvalues ---    0.05239   0.06794   0.09023   0.22198   0.30758
     Eigenvalues ---    0.75000
 Angle between quadratic step and forces=  23.85 degrees.
 Linear search not attempted -- first point.
 B after Tr=    -0.000000    0.000000    0.000000
         Rot=    1.000000   -0.000000   -0.000000    0.000000 Ang=   0.00 deg.
 Variable       Old X    -DE/DX   Delta X   Delta X   Delta X     New X
                                 (Linear)    (Quad)   (Total)
    X1        0.00000  -0.00237   0.00000  -0.04239  -0.04239  -0.04239
    Y1        0.00000  -0.00082   0.00000   0.00431   0.00431   0.00431
    Z1       -0.00000  -0.02748   0.00000  -0.07733  -0.07733  -0.07733
    X2       -6.01397  -0.00278   0.00000  -0.02989  -0.02989  -6.04386
    Y2       -0.00000   0.00085   0.00000   0.00974   0.00974   0.00974
    Z2        4.41033  -0.00370   0.00000  -0.03958  -0.03958   4.37075
    X3        0.00000   0.00695   0.00000   0.06953   0.06953   0.06953
    Y3        0.00000  -0.00226   0.00000  -0.02306  -0.02306  -0.02306
    Z3        4.35175   0.03523   0.00000   0.12456   0.12456   4.47631
    X4        5.34293  -0.00181   0.00000   0.00275   0.00275   5.34568
    Y4       -3.78815   0.00224   0.00000   0.00901   0.00901  -3.77913
    Z4        9.58977  -0.00405   0.00000  -0.00766  -0.00766   9.58211
         Item               Value     Threshold  Converged?
 Maximum Force            0.035234     0.000450     NO 
 RMS     Force            0.013239     0.000300     NO 
 Maximum Displacement     0.124560     0.001800     NO 
 RMS     Displacement     0.051136     0.001200     NO 
 Predicted change in Energy=-3.715208D-03
 GradGradGradGradGradGradGradGradGradGradGradGradGradGradGradGradGradGrad

 Leave Link  103 at Wed Oct  4 16:58:33 2023, MaxMem=  1610612736 cpu:               3.0 elap:               1.0
 (Enter /home/sekinelabo/g16/l9999.exe)
 1\1\GINC-SEKINELABO-XA7R-R37\Force\RB3LYP\6-311+G(d)\Na4\SEKINELABO\04
 -Oct-2023\0\\#p B3LYP/6-311+g(d) force\\\0,1\Na,0.,0.,0.\Na,-3.1824577
 113,0.,2.3338446566\Na,0.,0.,2.3028491529\Na,2.8273589185,-2.004600227
 4,5.0746878535\\Version=ES64L-G16RevB.01\State=1-A\HF=-649.1601669\RMS
 D=2.165e-09\RMSF=1.324e-02\Dipole=-0.7675882,0.2748205,-0.865098\Quadr
 upole=-3.8644967,-2.3996677,6.2641643,0.9998679,-3.0969934,-0.9020798\
 PG=C01 [X(Na4)]\\@


 I am not a vegetarian because I love animals;
 I am a vegetarian because I hate plants.
                               -- A. Whitney Brown
 Job cpu time:       0 days  0 hours  4 minutes  6.4 seconds.
 Elapsed time:       0 days  0 hours  1 minutes 28.6 seconds.
 File lengths (MBytes):  RWF=     10 Int=      0 D2E=      0 Chk=      2 Scr=      1
 Normal termination of Gaussian 16 at Wed Oct  4 16:58:33 2023.
