 Entering Gaussian System, Link 0=g16
 Initial command:
 /home/sekinelabo/g16/l1.exe "/home/sekinelabo/g16temp/Gau-709019.inp" -scrdir="/home/sekinelabo/g16temp/"
 Entering Link 1 = /home/sekinelabo/g16/l1.exe PID=    709036.
  
 Copyright (c) 1988-2017, Gaussian, Inc.  All Rights Reserved.
  
 This is part of the Gaussian(R) 16 program.  It is based on
 the Gaussian(R) 09 system (copyright 2009, Gaussian, Inc.),
 the Gaussian(R) 03 system (copyright 2003, Gaussian, Inc.),
 the Gaussian(R) 98 system (copyright 1998, Gaussian, Inc.),
 the Gaussian(R) 94 system (copyright 1995, Gaussian, Inc.),
 the Gaussian 92(TM) system (copyright 1992, Gaussian, Inc.),
 the Gaussian 90(TM) system (copyright 1990, Gaussian, Inc.),
 the Gaussian 88(TM) system (copyright 1988, Gaussian, Inc.),
 the Gaussian 86(TM) system (copyright 1986, Carnegie Mellon
 University), and the Gaussian 82(TM) system (copyright 1983,
 Carnegie Mellon University). Gaussian is a federally registered
 trademark of Gaussian, Inc.
  
 This software contains proprietary and confidential information,
 including trade secrets, belonging to Gaussian, Inc.
  
 This software is provided under written license and may be
 used, copied, transmitted, or stored only in accord with that
 written license.
  
 The following legend is applicable only to US Government
 contracts under FAR:
  
                    RESTRICTED RIGHTS LEGEND
  
 Use, reproduction and disclosure by the US Government is
 subject to restrictions as set forth in subparagraphs (a)
 and (c) of the Commercial Computer Software - Restricted
 Rights clause in FAR 52.227-19.
  
 Gaussian, Inc.
 340 Quinnipiac St., Bldg. 40, Wallingford CT 06492
  
  
 ---------------------------------------------------------------
 Warning -- This program may not be used in any manner that
 competes with the business of Gaussian, Inc. or will provide
 assistance to any competitor of Gaussian, Inc.  The licensee
 of this program is prohibited from giving any competitor of
 Gaussian, Inc. access to this program.  By using this program,
 the user acknowledges that Gaussian, Inc. is engaged in the
 business of creating and licensing software in the field of
 computational chemistry and represents and warrants to the
 licensee that it is not a competitor of Gaussian, Inc. and that
 it will not use this program in any manner prohibited above.
 ---------------------------------------------------------------
  

 Cite this work as:
 Gaussian 16, Revision B.01,
 M. J. Frisch, G. W. Trucks, H. B. Schlegel, G. E. Scuseria, 
 M. A. Robb, J. R. Cheeseman, G. Scalmani, V. Barone, 
 G. A. Petersson, H. Nakatsuji, X. Li, M. Caricato, A. V. Marenich, 
 J. Bloino, B. G. Janesko, R. Gomperts, B. Mennucci, H. P. Hratchian, 
 J. V. Ortiz, A. F. Izmaylov, J. L. Sonnenberg, D. Williams-Young, 
 F. Ding, F. Lipparini, F. Egidi, J. Goings, B. Peng, A. Petrone, 
 T. Henderson, D. Ranasinghe, V. G. Zakrzewski, J. Gao, N. Rega, 
 G. Zheng, W. Liang, M. Hada, M. Ehara, K. Toyota, R. Fukuda, 
 J. Hasegawa, M. Ishida, T. Nakajima, Y. Honda, O. Kitao, H. Nakai, 
 T. Vreven, K. Throssell, J. A. Montgomery, Jr., J. E. Peralta, 
 F. Ogliaro, M. J. Bearpark, J. J. Heyd, E. N. Brothers, K. N. Kudin, 
 V. N. Staroverov, T. A. Keith, R. Kobayashi, J. Normand, 
 K. Raghavachari, A. P. Rendell, J. C. Burant, S. S. Iyengar, 
 J. Tomasi, M. Cossi, J. M. Millam, M. Klene, C. Adamo, R. Cammi, 
 J. W. Ochterski, R. L. Martin, K. Morokuma, O. Farkas, 
 J. B. Foresman, and D. J. Fox, Gaussian, Inc., Wallingford CT, 2016.
 
 ******************************************
 Gaussian 16:  ES64L-G16RevB.01 20-Dec-2017
                 6-Oct-2023 
 ******************************************
 %NProcShared=16
 Will use up to   16 processors via shared memory.
 %mem=12GB
 %Chk=checkpoint.chk
 -------------------------
 #p B3LYP/6-311+g(d) force
 -------------------------
 1/10=7,30=1,38=1/1,3;
 2/12=2,17=6,18=5,40=1/2;
 3/5=4,6=6,7=11,11=2,25=1,30=1,71=1,74=-5/1,2,3;
 4//1;
 5/5=2,38=5/2;
 6/7=2,8=2,9=2,10=2,28=1/1;
 7/29=1/1,2,3,16;
 1/10=7,30=1/3;
 99//99;
 Leave Link    1 at Fri Oct  6 21:59:35 2023, MaxMem=  1610612736 cpu:               0.5 elap:               0.3
 (Enter /home/sekinelabo/g16/l101.exe)


 Symbolic Z-matrix:
 Charge =  0 Multiplicity = 1
 Na                    0.        0.        0. 
 Na                   -2.81822   0.       -1.20924 
 Na                    0.        0.        5.41703 
 Na                   -3.81939  -2.88582   7.89399 
 
 ITRead=  0  0  0  0
 MicOpt= -1 -1 -1 -1
 NAtoms=      4 NQM=        4 NQMF=       0 NMMI=      0 NMMIF=      0
                NMic=       0 NMicF=      0.
                    Isotopes and Nuclear Properties:
 (Nuclear quadrupole moments (NQMom) in fm**2, nuclear magnetic moments (NMagM)
  in nuclear magnetons)

  Atom         1           2           3           4
 IAtWgt=          23          23          23          23
 AtmWgt=  22.9897697  22.9897697  22.9897697  22.9897697
 NucSpn=           3           3           3           3
 AtZEff=  -0.0000000  -0.0000000  -0.0000000  -0.0000000
 NQMom=   10.4000000  10.4000000  10.4000000  10.4000000
 NMagM=    2.2175200   2.2175200   2.2175200   2.2175200
 AtZNuc=  11.0000000  11.0000000  11.0000000  11.0000000
 Leave Link  101 at Fri Oct  6 21:59:36 2023, MaxMem=  1610612736 cpu:               2.2 elap:               1.2
 (Enter /home/sekinelabo/g16/l103.exe)

 GradGradGradGradGradGradGradGradGradGradGradGradGradGradGradGradGradGrad
 Berny optimization.
 Initialization pass.
 Trust Radius=3.00D-01 FncErr=1.00D-07 GrdErr=1.00D-07 EigMax=2.50D+02 EigMin=1.00D-04
 Number of steps in this run=      2 maximum allowed number of steps=      2.
 GradGradGradGradGradGradGradGradGradGradGradGradGradGradGradGradGradGrad

 Leave Link  103 at Fri Oct  6 21:59:36 2023, MaxMem=  1610612736 cpu:               0.5 elap:               0.3
 (Enter /home/sekinelabo/g16/l202.exe)
                          Input orientation:                          
 ---------------------------------------------------------------------
 Center     Atomic      Atomic             Coordinates (Angstroms)
 Number     Number       Type             X           Y           Z
 ---------------------------------------------------------------------
      1         11           0        0.000000    0.000000    0.000000
      2         11           0       -2.818216    0.000000   -1.209243
      3         11           0        0.000000    0.000000    5.417029
      4         11           0       -3.819385   -2.885824    7.893986
 ---------------------------------------------------------------------
                    Distance matrix (angstroms):
                    1          2          3          4
     1  Na   0.000000
     2  Na   3.066694   0.000000
     3  Na   5.417029   7.200683   0.000000
     4  Na   9.232047   9.602036   5.389898   0.000000
 Stoichiometry    Na4
 Framework group  C1[X(Na4)]
 Deg. of freedom     6
 Full point group                 C1      NOp   1
 Largest Abelian subgroup         C1      NOp   1
 Largest concise Abelian subgroup C1      NOp   1
                         Standard orientation:                         
 ---------------------------------------------------------------------
 Center     Atomic      Atomic             Coordinates (Angstroms)
 Number     Number       Type             X           Y           Z
 ---------------------------------------------------------------------
      1         11           0        3.333448    0.999630    0.562384
      2         11           0        4.035557   -1.837263   -0.366966
      3         11           0       -1.825017    2.346346   -0.397197
      4         11           0       -5.543988   -1.508713    0.201779
 ---------------------------------------------------------------------
 Rotational constants (GHZ):           1.7166306           0.3539130           0.2985961
 Leave Link  202 at Fri Oct  6 21:59:37 2023, MaxMem=  1610612736 cpu:               1.0 elap:               0.7
 (Enter /home/sekinelabo/g16/l301.exe)
 Standard basis: 6-311+G(d) (5D, 7F)
 Ernie: Thresh=  0.10000D-02 Tol=  0.10000D-05 Strict=F.
 There are   124 symmetry adapted cartesian basis functions of A   symmetry.
 There are   120 symmetry adapted basis functions of A   symmetry.
   120 basis functions,   200 primitive gaussians,   124 cartesian basis functions
    22 alpha electrons       22 beta electrons
       nuclear repulsion energy        67.0756030790 Hartrees.
 IExCor=  402 DFT=T Ex+Corr=B3LYP ExCW=0 ScaHFX=  0.200000
 ScaDFX=  0.800000  0.720000  1.000000  0.810000 ScalE2=  1.000000  1.000000
 IRadAn=      5 IRanWt=     -1 IRanGd=            0 ICorTp=0 IEmpDi=  4
 NAtoms=    4 NActive=    4 NUniq=    4 SFac= 1.00D+00 NAtFMM=   60 NAOKFM=F Big=F
 Integral buffers will be    131072 words long.
 Raffenetti 2 integral format.
 Two-electron integral symmetry is turned on.
 Leave Link  301 at Fri Oct  6 21:59:38 2023, MaxMem=  1610612736 cpu:               0.6 elap:               0.4
 (Enter /home/sekinelabo/g16/l302.exe)
 NPDir=0 NMtPBC=     1 NCelOv=     1 NCel=       1 NClECP=     1 NCelD=      1
         NCelK=      1 NCelE2=     1 NClLst=     1 CellRange=     0.0.
 One-electron integrals computed using PRISM.
 One-electron integral symmetry used in STVInt
 NBasis=   120 RedAO= T EigKep=  1.19D-04  NBF=   120
 NBsUse=   120 1.00D-06 EigRej= -1.00D+00 NBFU=   120
 Precomputing XC quadrature grid using
 IXCGrd= 4 IRadAn=           5 IRanWt=          -1 IRanGd=           0 AccXCQ= 0.00D+00.
 Generated NRdTot=       0 NPtTot=           0 NUsed=           0 NTot=          32
 NSgBfM=   113   113   113   113   113 MxSgAt=     4 MxSgA2=     4.
 Leave Link  302 at Fri Oct  6 21:59:50 2023, MaxMem=  1610612736 cpu:              19.4 elap:              12.1
 (Enter /home/sekinelabo/g16/l303.exe)
 DipDrv:  MaxL=1.
 Leave Link  303 at Fri Oct  6 21:59:51 2023, MaxMem=  1610612736 cpu:               2.9 elap:               1.8
 (Enter /home/sekinelabo/g16/l401.exe)
 ExpMin= 7.60D-03 ExpMax= 3.62D+04 ExpMxC= 1.21D+03 IAcc=3 IRadAn=         5 AccDes= 0.00D+00
 Harris functional with IExCor=  402 and IRadAn=       5 diagonalized for initial guess.
 HarFok:  IExCor=  402 AccDes= 0.00D+00 IRadAn=         5 IDoV= 1 UseB2=F ITyADJ=14
 ICtDFT=  3500011 ScaDFX=  1.000000  1.000000  1.000000  1.000000
 FoFCou: FMM=F IPFlag=           0 FMFlag=      100000 FMFlg1=           0
         NFxFlg=           0 DoJE=T BraDBF=F KetDBF=T FulRan=T
         wScrn=  0.000000 ICntrl=       500 IOpCl=  0 I1Cent=   200000004 NGrid=           0
         NMat0=    1 NMatS0=      1 NMatT0=    0 NMatD0=    1 NMtDS0=    0 NMtDT0=    0
 Petite list used in FoFCou.
 Harris En= -649.047705296544    
 JPrj=0 DoOrth=F DoCkMO=F.
 Leave Link  401 at Fri Oct  6 22:00:00 2023, MaxMem=  1610612736 cpu:              13.9 elap:               8.8
 (Enter /home/sekinelabo/g16/l502.exe)
 Keep R1 ints in memory in canonical form, NReq=41581754.
 FoFCou: FMM=F IPFlag=           0 FMFlag=           0 FMFlg1=           0
         NFxFlg=           0 DoJE=F BraDBF=F KetDBF=F FulRan=T
         wScrn=  0.000000 ICntrl=       600 IOpCl=  0 I1Cent=           0 NGrid=           0
         NMat0=    1 NMatS0=   7260 NMatT0=    0 NMatD0=    1 NMtDS0=    0 NMtDT0=    0
 Symmetry not used in FoFCou.
 Two-electron integral symmetry not used.
 Closed shell SCF:
 Using DIIS extrapolation, IDIIS=  1040.
 NGot=  1610612736 LenX=  1584221388 LenY=  1584205571
 Requested convergence on RMS density matrix=1.00D-08 within 128 cycles.
 Requested convergence on MAX density matrix=1.00D-06.
 Requested convergence on             energy=1.00D-06.
 No special actions if energy rises.

 Cycle   1  Pass 1  IDiag  1:
 E= -649.159316216021    
 DIIS: error= 1.21D-02 at cycle   1 NSaved=   1.
 NSaved= 1 IEnMin= 1 EnMin= -649.159316216021     IErMin= 1 ErrMin= 1.21D-02
 ErrMax= 1.21D-02  0.00D+00 EMaxC= 1.00D-01 BMatC= 2.65D-02 BMatP= 2.65D-02
 IDIUse=3 WtCom= 8.79D-01 WtEn= 1.21D-01
 Coeff-Com:  0.100D+01
 Coeff-En:   0.100D+01
 Coeff:      0.100D+01
 Gap=     0.032 Goal=   None    Shift=    0.000
 GapD=    0.032 DampG=0.250 DampE=0.500 DampFc=0.2500 IDamp=-1.
 Damping current iteration by 2.50D-01
 RMSDP=2.15D-03 MaxDP=7.30D-02              OVMax= 1.36D-01

 Cycle   2  Pass 1  IDiag  1:
 E= -649.163405876807     Delta-E=       -0.004089660785 Rises=F Damp=T
 DIIS: error= 8.49D-03 at cycle   2 NSaved=   2.
 NSaved= 2 IEnMin= 2 EnMin= -649.163405876807     IErMin= 2 ErrMin= 8.49D-03
 ErrMax= 8.49D-03  0.00D+00 EMaxC= 1.00D-01 BMatC= 1.02D-02 BMatP= 2.65D-02
 IDIUse=3 WtCom= 9.15D-01 WtEn= 8.49D-02
 Coeff-Com: -0.129D+01 0.229D+01
 Coeff-En:   0.000D+00 0.100D+01
 Coeff:     -0.118D+01 0.218D+01
 Gap=     0.030 Goal=   None    Shift=    0.000
 RMSDP=2.10D-03 MaxDP=1.21D-01 DE=-4.09D-03 OVMax= 2.68D-01

 Cycle   3  Pass 1  IDiag  1:
 E= -649.160111601792     Delta-E=        0.003294275015 Rises=F Damp=F
 DIIS: error= 3.24D-03 at cycle   3 NSaved=   3.
 NSaved= 3 IEnMin= 2 EnMin= -649.163405876807     IErMin= 3 ErrMin= 3.24D-03
 ErrMax= 3.24D-03  0.00D+00 EMaxC= 1.00D-01 BMatC= 1.44D-03 BMatP= 1.02D-02
 IDIUse=3 WtCom= 9.68D-01 WtEn= 3.24D-02
 Coeff-Com: -0.488D+00 0.859D+00 0.629D+00
 Coeff-En:   0.000D+00 0.635D+00 0.365D+00
 Coeff:     -0.472D+00 0.852D+00 0.620D+00
 Gap=     0.021 Goal=   None    Shift=    0.000
 RMSDP=4.70D-03 MaxDP=3.29D-01 DE= 3.29D-03 OVMax= 5.02D-01

 Cycle   4  Pass 1  IDiag  1:
 E= -649.125838725694     Delta-E=        0.034272876098 Rises=F Damp=F
 DIIS: error= 6.07D-03 at cycle   4 NSaved=   4.
 NSaved= 4 IEnMin= 2 EnMin= -649.163405876807     IErMin= 3 ErrMin= 3.24D-03
 ErrMax= 6.07D-03  0.00D+00 EMaxC= 1.00D-01 BMatC= 4.63D-03 BMatP= 1.44D-03
 IDIUse=3 WtCom= 1.14D-01 WtEn= 8.86D-01
 Coeff-Com: -0.394D-01 0.815D-01 0.625D+00 0.333D+00
 Coeff-En:   0.000D+00 0.000D+00 0.701D+00 0.299D+00
 Coeff:     -0.449D-02 0.927D-02 0.692D+00 0.303D+00
 Gap=     0.027 Goal=   None    Shift=    0.000
 RMSDP=2.57D-03 MaxDP=1.92D-01 DE= 3.43D-02 OVMax= 2.74D-01

 Cycle   5  Pass 1  IDiag  1:
 E= -649.169198751701     Delta-E=       -0.043360026007 Rises=F Damp=F
 DIIS: error= 1.66D-03 at cycle   5 NSaved=   5.
 NSaved= 5 IEnMin= 5 EnMin= -649.169198751701     IErMin= 5 ErrMin= 1.66D-03
 ErrMax= 1.66D-03  0.00D+00 EMaxC= 1.00D-01 BMatC= 3.62D-04 BMatP= 1.44D-03
 IDIUse=3 WtCom= 9.83D-01 WtEn= 1.66D-02
 Coeff-Com: -0.657D-02 0.780D-02 0.303D+00-0.384D-01 0.734D+00
 Coeff-En:   0.000D+00 0.000D+00 0.295D+00 0.000D+00 0.705D+00
 Coeff:     -0.646D-02 0.767D-02 0.303D+00-0.378D-01 0.734D+00
 Gap=     0.031 Goal=   None    Shift=    0.000
 RMSDP=6.95D-04 MaxDP=4.58D-02 DE=-4.34D-02 OVMax= 7.98D-02

 Cycle   6  Pass 1  IDiag  1:
 E= -649.172166267548     Delta-E=       -0.002967515847 Rises=F Damp=F
 DIIS: error= 2.15D-04 at cycle   6 NSaved=   6.
 NSaved= 6 IEnMin= 6 EnMin= -649.172166267548     IErMin= 6 ErrMin= 2.15D-04
 ErrMax= 2.15D-04  0.00D+00 EMaxC= 1.00D-01 BMatC= 6.01D-06 BMatP= 3.62D-04
 IDIUse=3 WtCom= 9.98D-01 WtEn= 2.15D-03
 Coeff-Com: -0.102D-02 0.103D-02 0.877D-01-0.262D-01 0.173D+00 0.765D+00
 Coeff-En:   0.000D+00 0.000D+00 0.000D+00 0.000D+00 0.000D+00 0.100D+01
 Coeff:     -0.102D-02 0.102D-02 0.876D-01-0.261D-01 0.173D+00 0.766D+00
 Gap=     0.032 Goal=   None    Shift=    0.000
 RMSDP=4.57D-05 MaxDP=1.69D-03 DE=-2.97D-03 OVMax= 2.99D-03

 Cycle   7  Pass 1  IDiag  1:
 E= -649.172154587342     Delta-E=        0.000011680205 Rises=F Damp=F
 DIIS: error= 2.01D-04 at cycle   7 NSaved=   7.
 NSaved= 7 IEnMin= 6 EnMin= -649.172166267548     IErMin= 7 ErrMin= 2.01D-04
 ErrMax= 2.01D-04  0.00D+00 EMaxC= 1.00D-01 BMatC= 5.51D-06 BMatP= 6.01D-06
 IDIUse=3 WtCom= 9.98D-01 WtEn= 2.01D-03
 Rare condition: small coef for last iteration:  0.000D+00
 Coeff-Com:  0.138D-02-0.180D-02 0.475D-01-0.152D-01 0.340D-01 0.368D+00
 Coeff-Com:  0.566D+00
 Coeff-En:   0.000D+00 0.000D+00 0.000D+00 0.000D+00 0.000D+00 0.000D+00
 Coeff-En:   0.100D+01
 Coeff:      0.138D-02-0.180D-02 0.475D-01-0.152D-01 0.340D-01 0.368D+00
 Coeff:      0.566D+00
 Gap=     0.032 Goal=   None    Shift=    0.000
 RMSDP=4.76D-05 MaxDP=3.03D-03 DE= 1.17D-05 OVMax= 5.23D-03

 Cycle   8  Pass 1  IDiag  1:
 E= -649.172187096323     Delta-E=       -0.000032508981 Rises=F Damp=F
 DIIS: error= 1.12D-04 at cycle   8 NSaved=   8.
 NSaved= 8 IEnMin= 8 EnMin= -649.172187096323     IErMin= 8 ErrMin= 1.12D-04
 ErrMax= 1.12D-04  0.00D+00 EMaxC= 1.00D-01 BMatC= 1.52D-06 BMatP= 5.51D-06
 IDIUse=3 WtCom= 9.99D-01 WtEn= 1.12D-03
 Coeff-Com:  0.171D-02-0.221D-02 0.137D-01-0.320D-02-0.206D-01-0.228D-01
 Coeff-Com: -0.944D-01 0.113D+01
 Coeff-En:   0.000D+00 0.000D+00 0.000D+00 0.000D+00 0.000D+00 0.000D+00
 Coeff-En:   0.000D+00 0.100D+01
 Coeff:      0.170D-02-0.221D-02 0.137D-01-0.320D-02-0.206D-01-0.227D-01
 Coeff:     -0.943D-01 0.113D+01
 Gap=     0.032 Goal=   None    Shift=    0.000
 RMSDP=4.05D-05 MaxDP=2.60D-03 DE=-3.25D-05 OVMax= 4.50D-03

 Cycle   9  Pass 1  IDiag  1:
 E= -649.172198855173     Delta-E=       -0.000011758850 Rises=F Damp=F
 DIIS: error= 1.92D-05 at cycle   9 NSaved=   9.
 NSaved= 9 IEnMin= 9 EnMin= -649.172198855173     IErMin= 9 ErrMin= 1.92D-05
 ErrMax= 1.92D-05  0.00D+00 EMaxC= 1.00D-01 BMatC= 6.26D-08 BMatP= 1.52D-06
 IDIUse=1 WtCom= 1.00D+00 WtEn= 0.00D+00
 Coeff-Com:  0.688D-03-0.920D-03 0.475D-02-0.855D-03-0.940D-02-0.237D-01
 Coeff-Com: -0.112D+00 0.455D+00 0.686D+00
 Coeff:      0.688D-03-0.920D-03 0.475D-02-0.855D-03-0.940D-02-0.237D-01
 Coeff:     -0.112D+00 0.455D+00 0.686D+00
 Gap=     0.032 Goal=   None    Shift=    0.000
 RMSDP=5.65D-06 MaxDP=3.29D-04 DE=-1.18D-05 OVMax= 5.30D-04

 Cycle  10  Pass 1  IDiag  1:
 E= -649.172199176311     Delta-E=       -0.000000321138 Rises=F Damp=F
 DIIS: error= 1.03D-05 at cycle  10 NSaved=  10.
 NSaved=10 IEnMin=10 EnMin= -649.172199176311     IErMin=10 ErrMin= 1.03D-05
 ErrMax= 1.03D-05  0.00D+00 EMaxC= 1.00D-01 BMatC= 1.27D-08 BMatP= 6.26D-08
 IDIUse=1 WtCom= 1.00D+00 WtEn= 0.00D+00
 Coeff-Com: -0.375D-05 0.106D-06 0.539D-03-0.571D-04-0.108D-02 0.261D-02
 Coeff-Com: -0.106D-01-0.569D-01 0.104D+00 0.961D+00
 Coeff:     -0.375D-05 0.106D-06 0.539D-03-0.571D-04-0.108D-02 0.261D-02
 Coeff:     -0.106D-01-0.569D-01 0.104D+00 0.961D+00
 Gap=     0.032 Goal=   None    Shift=    0.000
 RMSDP=4.56D-06 MaxDP=2.82D-04 DE=-3.21D-07 OVMax= 4.82D-04

 Cycle  11  Pass 1  IDiag  1:
 E= -649.172199281458     Delta-E=       -0.000000105147 Rises=F Damp=F
 DIIS: error= 7.40D-07 at cycle  11 NSaved=  11.
 NSaved=11 IEnMin=11 EnMin= -649.172199281458     IErMin=11 ErrMin= 7.40D-07
 ErrMax= 7.40D-07  0.00D+00 EMaxC= 1.00D-01 BMatC= 7.40D-11 BMatP= 1.27D-08
 IDIUse=1 WtCom= 1.00D+00 WtEn= 0.00D+00
 Coeff-Com: -0.195D-04 0.257D-04 0.708D-04-0.201D-04 0.906D-04 0.299D-02
 Coeff-Com:  0.504D-02-0.373D-01-0.243D-02 0.210D+00 0.821D+00
 Coeff:     -0.195D-04 0.257D-04 0.708D-04-0.201D-04 0.906D-04 0.299D-02
 Coeff:      0.504D-02-0.373D-01-0.243D-02 0.210D+00 0.821D+00
 Gap=     0.032 Goal=   None    Shift=    0.000
 RMSDP=3.03D-07 MaxDP=1.67D-05 DE=-1.05D-07 OVMax= 2.60D-05

 Cycle  12  Pass 1  IDiag  1:
 E= -649.172199281948     Delta-E=       -0.000000000490 Rises=F Damp=F
 DIIS: error= 2.04D-07 at cycle  12 NSaved=  12.
 NSaved=12 IEnMin=12 EnMin= -649.172199281948     IErMin=12 ErrMin= 2.04D-07
 ErrMax= 2.04D-07  0.00D+00 EMaxC= 1.00D-01 BMatC= 5.76D-12 BMatP= 7.40D-11
 IDIUse=1 WtCom= 1.00D+00 WtEn= 0.00D+00
 Coeff-Com:  0.540D-05-0.715D-05 0.666D-05-0.133D-05 0.144D-04 0.279D-03
 Coeff-Com:  0.609D-03-0.209D-02-0.335D-02-0.135D-01 0.987D-01 0.919D+00
 Coeff:      0.540D-05-0.715D-05 0.666D-05-0.133D-05 0.144D-04 0.279D-03
 Coeff:      0.609D-03-0.209D-02-0.335D-02-0.135D-01 0.987D-01 0.919D+00
 Gap=     0.032 Goal=   None    Shift=    0.000
 RMSDP=1.09D-07 MaxDP=6.77D-06 DE=-4.90D-10 OVMax= 1.06D-05

 Cycle  13  Pass 1  IDiag  1:
 E= -649.172199281994     Delta-E=       -0.000000000046 Rises=F Damp=F
 DIIS: error= 1.74D-08 at cycle  13 NSaved=  13.
 NSaved=13 IEnMin=13 EnMin= -649.172199281994     IErMin=13 ErrMin= 1.74D-08
 ErrMax= 1.74D-08  0.00D+00 EMaxC= 1.00D-01 BMatC= 3.14D-14 BMatP= 5.76D-12
 IDIUse=1 WtCom= 1.00D+00 WtEn= 0.00D+00
 Coeff-Com:  0.177D-06-0.227D-06 0.211D-05-0.965D-06 0.123D-04 0.401D-05
 Coeff-Com:  0.560D-04 0.908D-04-0.156D-03-0.548D-02-0.107D-01 0.114D+00
 Coeff-Com:  0.902D+00
 Coeff:      0.177D-06-0.227D-06 0.211D-05-0.965D-06 0.123D-04 0.401D-05
 Coeff:      0.560D-04 0.908D-04-0.156D-03-0.548D-02-0.107D-01 0.114D+00
 Coeff:      0.902D+00
 Gap=     0.032 Goal=   None    Shift=    0.000
 RMSDP=9.46D-09 MaxDP=3.77D-07 DE=-4.59D-11 OVMax= 4.70D-07

 SCF Done:  E(RB3LYP) =  -649.172199282     A.U. after   13 cycles
            NFock= 13  Conv=0.95D-08     -V/T= 2.0029
 KE= 6.472637178339D+02 PE=-1.693114072858D+03 EE= 3.296025526634D+02
 Leave Link  502 at Fri Oct  6 22:01:29 2023, MaxMem=  1610612736 cpu:             139.1 elap:              88.1
 (Enter /home/sekinelabo/g16/l601.exe)
 Copying SCF densities to generalized density rwf, IOpCl= 0 IROHF=0.

 **********************************************************************

            Population analysis using the SCF Density.

 **********************************************************************

 Orbital symmetries:
       Occupied  (A) (A) (A) (A) (A) (A) (A) (A) (A) (A) (A) (A)
                 (A) (A) (A) (A) (A) (A) (A) (A) (A) (A)
       Virtual   (A) (A) (A) (A) (A) (A) (A) (A) (A) (A) (A) (A)
                 (A) (A) (A) (A) (A) (A) (A) (A) (A) (A) (A) (A)
                 (A) (A) (A) (A) (A) (A) (A) (A) (A) (A) (A) (A)
                 (A) (A) (A) (A) (A) (A) (A) (A) (A) (A) (A) (A)
                 (A) (A) (A) (A) (A) (A) (A) (A) (A) (A) (A) (A)
                 (A) (A) (A) (A) (A) (A) (A) (A) (A) (A) (A) (A)
                 (A) (A) (A) (A) (A) (A) (A) (A) (A) (A) (A) (A)
                 (A) (A) (A) (A) (A) (A) (A) (A) (A) (A) (A) (A)
                 (A) (A)
 The electronic state is 1-A.
 Alpha  occ. eigenvalues --  -38.46301 -38.46274 -38.44485 -38.44332  -2.21969
 Alpha  occ. eigenvalues --   -2.21944  -2.20268  -2.20115  -1.15648  -1.15641
 Alpha  occ. eigenvalues --   -1.15621  -1.15621  -1.15611  -1.15586  -1.13985
 Alpha  occ. eigenvalues --   -1.13924  -1.13923  -1.13771  -1.13765  -1.13725
 Alpha  occ. eigenvalues --   -0.13307  -0.11504
 Alpha virt. eigenvalues --   -0.08342  -0.05598  -0.02710  -0.02635  -0.02157
 Alpha virt. eigenvalues --   -0.01797  -0.01453  -0.00933  -0.00470  -0.00359
 Alpha virt. eigenvalues --    0.00075   0.00672   0.00746   0.00846   0.01125
 Alpha virt. eigenvalues --    0.01296   0.01576   0.01673   0.01713   0.01767
 Alpha virt. eigenvalues --    0.01985   0.02094   0.02203   0.02283   0.02479
 Alpha virt. eigenvalues --    0.02683   0.02786   0.03014   0.03481   0.04637
 Alpha virt. eigenvalues --    0.07083   0.07291   0.07453   0.07678   0.08050
 Alpha virt. eigenvalues --    0.08085   0.08176   0.08492   0.08589   0.09227
 Alpha virt. eigenvalues --    0.09752   0.10006   0.10858   0.11206   0.11782
 Alpha virt. eigenvalues --    0.15220   0.29645   0.29713   0.31698   0.32912
 Alpha virt. eigenvalues --    0.33109   0.33258   0.34255   0.34357   0.34363
 Alpha virt. eigenvalues --    0.34394   0.34619   0.34801   0.34843   0.35511
 Alpha virt. eigenvalues --    0.36189   0.37734   0.37866   0.41800   0.42229
 Alpha virt. eigenvalues --    0.42542   0.43011   0.43406   0.43448   0.43616
 Alpha virt. eigenvalues --    0.43952   0.44237   0.45476   0.46569   0.48254
 Alpha virt. eigenvalues --    0.48391   0.48949   0.69700   2.00184   2.01532
 Alpha virt. eigenvalues --    2.03199   2.12941   4.40844   4.42209   4.42465
 Alpha virt. eigenvalues --    4.42718   4.43082   4.43290   4.43659   4.43997
 Alpha virt. eigenvalues --    4.44406   4.45660   4.46631   4.62439  96.19113
 Alpha virt. eigenvalues --   96.20683  96.22567  96.35232
          Condensed to atoms (all electrons):
               1          2          3          4
     1  Na  10.703786   0.350592  -0.002069  -0.007683
     2  Na   0.350592  10.649194  -0.040210  -0.013097
     3  Na  -0.002069  -0.040210  10.895640   0.152319
     4  Na  -0.007683  -0.013097   0.152319  10.871676
 Mulliken charges:
               1
     1  Na  -0.044626
     2  Na   0.053521
     3  Na  -0.005680
     4  Na  -0.003215
 Sum of Mulliken charges =  -0.00000
 Mulliken charges with hydrogens summed into heavy atoms:
               1
     1  Na  -0.044626
     2  Na   0.053521
     3  Na  -0.005680
     4  Na  -0.003215
 Electronic spatial extent (au):  <R**2>=           3003.0257
 Charge=             -0.0000 electrons
 Dipole moment (field-independent basis, Debye):
    X=              0.3212    Y=             -0.4291    Z=             -0.0641  Tot=              0.5398
 Quadrupole moment (field-independent basis, Debye-Ang):
   XX=            -39.3925   YY=            -30.6429   ZZ=            -45.0705
   XY=              3.2565   XZ=             -1.4212   YZ=              1.9259
 Traceless Quadrupole moment (field-independent basis, Debye-Ang):
   XX=             -1.0239   YY=              7.7257   ZZ=             -6.7018
   XY=              3.2565   XZ=             -1.4212   YZ=              1.9259
 Octapole moment (field-independent basis, Debye-Ang**2):
  XXX=            -31.8097  YYY=             -9.7095  ZZZ=              0.3452  XYY=             24.7419
  XXY=            -63.2438  XXZ=              1.7751  XZZ=             10.5354  YZZ=             -0.7082
  YYZ=             -3.7011  XYZ=             15.2292
 Hexadecapole moment (field-independent basis, Debye-Ang**3):
 XXXX=          -3890.0903 YYYY=           -828.0364 ZZZZ=           -242.7980 XXXY=            172.2508
 XXXZ=            -73.2528 YYYX=            -36.2459 YYYZ=             11.3523 ZZZX=             -5.3182
 ZZZY=             11.5427 XXYY=           -660.1356 XXZZ=           -765.4865 YYZZ=           -186.5240
 XXYZ=             35.6788 YYXZ=             -9.9868 ZZXY=              3.9595
 N-N= 6.707560307902D+01 E-N=-1.693114073683D+03  KE= 6.472637178339D+02
 No NMR shielding tensors so no spin-rotation constants.
 Leave Link  601 at Fri Oct  6 22:01:34 2023, MaxMem=  1610612736 cpu:               8.2 elap:               5.2
 (Enter /home/sekinelabo/g16/l701.exe)
 ... and contract with generalized density number  0.
 Compute integral first derivatives.
 Leave Link  701 at Fri Oct  6 22:01:38 2023, MaxMem=  1610612736 cpu:               7.0 elap:               4.5
 (Enter /home/sekinelabo/g16/l702.exe)
 L702 exits ... SP integral derivatives will be done elsewhere.
 Leave Link  702 at Fri Oct  6 22:01:39 2023, MaxMem=  1610612736 cpu:               0.7 elap:               0.5
 (Enter /home/sekinelabo/g16/l703.exe)
 Integral derivatives from FoFJK, PRISM(SPDF).
 Compute integral first derivatives, UseDBF=F ICtDFT=           0.
 Calling FoFJK, ICntrl=      2127 FMM=F ISym2X=0 I1Cent= 0 IOpClX= 0 NMat=1 NMatS=1 NMatT=0.
 FoFJK:  IHMeth= 1 ICntrl=    2127 DoSepK=F KAlg= 0 I1Cent=           0 FoldK=F
 IRaf=         0 NMat=       1 IRICut=       1 DoRegI=T DoRafI=F ISym2E= 0 IDoP0=0 IntGTp=1.
 FoFCou: FMM=F IPFlag=           0 FMFlag=      100000 FMFlg1=         800
         NFxFlg=           0 DoJE=F BraDBF=F KetDBF=F FulRan=T
         wScrn=  0.000000 ICntrl=      2127 IOpCl=  0 I1Cent=           0 NGrid=           0
         NMat0=    1 NMatS0=      1 NMatT0=    0 NMatD0=    1 NMtDS0=    0 NMtDT0=    0
 Symmetry not used in FoFCou.
 Leave Link  703 at Fri Oct  6 22:01:46 2023, MaxMem=  1610612736 cpu:              11.8 elap:               7.2
 (Enter /home/sekinelabo/g16/l716.exe)
 Dipole        = 1.26356095D-01-1.68815520D-01-2.52255286D-02
 ***** Axes restored to original set *****
 -------------------------------------------------------------------
 Center     Atomic                   Forces (Hartrees/Bohr)
 Number     Number              X              Y              Z
 -------------------------------------------------------------------
      1       11          -0.000045778   -0.000025575    0.000693033
      2       11           0.000110552    0.000044865    0.000058612
      3       11          -0.004115278   -0.003046670    0.001791490
      4       11           0.004050504    0.003027381   -0.002543136
 -------------------------------------------------------------------
 Cartesian Forces:  Max     0.004115278 RMS     0.002272426
 Z-matrix is all fixed cartesians, so copy forces.
 Force constants in Cartesian coordinates: 
                1             2             3             4             5 
      1  0.282817D-01
      2  0.000000D+00  0.000000D+00
      3  0.121351D-01  0.000000D+00  0.520695D-02
      4 -0.282817D-01  0.000000D+00 -0.121351D-01  0.282817D-01
      5  0.000000D+00  0.000000D+00  0.000000D+00  0.000000D+00  0.000000D+00
      6 -0.121351D-01  0.000000D+00 -0.520695D-02  0.121351D-01  0.000000D+00
      7  0.000000D+00  0.000000D+00  0.000000D+00  0.000000D+00  0.000000D+00
      8  0.000000D+00  0.000000D+00  0.000000D+00  0.000000D+00  0.000000D+00
      9  0.000000D+00  0.000000D+00  0.000000D+00  0.000000D+00  0.000000D+00
     10  0.000000D+00  0.000000D+00  0.000000D+00  0.000000D+00  0.000000D+00
     11  0.000000D+00  0.000000D+00  0.000000D+00  0.000000D+00  0.000000D+00
     12  0.000000D+00  0.000000D+00  0.000000D+00  0.000000D+00  0.000000D+00
                6             7             8             9            10 
      6  0.520695D-02
      7  0.000000D+00  0.100000D+01
      8  0.000000D+00  0.000000D+00  0.100000D+01
      9  0.000000D+00  0.000000D+00  0.000000D+00  0.100000D+01
     10  0.000000D+00  0.000000D+00  0.000000D+00  0.000000D+00  0.100000D+01
     11  0.000000D+00  0.000000D+00  0.000000D+00  0.000000D+00  0.000000D+00
     12  0.000000D+00  0.000000D+00  0.000000D+00  0.000000D+00  0.000000D+00
               11            12 
     11  0.100000D+01
     12  0.000000D+00  0.100000D+01
 Leave Link  716 at Fri Oct  6 22:01:47 2023, MaxMem=  1610612736 cpu:               0.6 elap:               0.5
 (Enter /home/sekinelabo/g16/l103.exe)

 GradGradGradGradGradGradGradGradGradGradGradGradGradGradGradGradGradGrad
 Berny optimization.
 Search for a local minimum.
 Step number   1 out of a maximum of    2
 All quantities printed in internal units (Hartrees-Bohrs-Radians)
 Second derivative matrix not updated -- first step.
 The second derivative matrix:
                          X1        Y1        Z1        X2        Y2
           X1           0.02828
           Y1          -0.00000   0.00000
           Z1           0.01214  -0.00000   0.00521
           X2          -0.02828   0.00000  -0.01214   0.02828
           Y2           0.00000  -0.00000   0.00000  -0.00000   0.00000
           Z2          -0.01214   0.00000  -0.00521   0.01214  -0.00000
           X3           0.00000   0.00000   0.00000   0.00000   0.00000
           Y3           0.00000   0.00000   0.00000   0.00000   0.00000
           Z3           0.00000   0.00000   0.00000   0.00000   0.00000
           X4           0.00000   0.00000   0.00000   0.00000   0.00000
           Y4           0.00000   0.00000   0.00000   0.00000   0.00000
           Z4           0.00000   0.00000   0.00000   0.00000   0.00000
                          Z2        X3        Y3        Z3        X4
           Z2           0.00521
           X3           0.00000   1.00000
           Y3           0.00000  -0.00000   1.00000
           Z3           0.00000   0.00000   0.00000   1.00000
           X4           0.00000   0.00000   0.00000   0.00000   1.00000
           Y4           0.00000   0.00000   0.00000   0.00000  -0.00000
           Z4           0.00000   0.00000   0.00000   0.00000   0.00000
                          Y4        Z4
           Y4           1.00000
           Z4           0.00000   1.00000
 ITU=  0
     Eigenvalues ---    0.03575   0.06698   0.32297   0.50000   0.89804
     Eigenvalues ---    1.00000
 Angle between quadratic step and forces=  54.05 degrees.
 Linear search not attempted -- first point.
 B after Tr=     0.000000    0.000000    0.000000
         Rot=    1.000000   -0.000000    0.000000    0.000000 Ang=   0.00 deg.
 Variable       Old X    -DE/DX   Delta X   Delta X   Delta X     New X
                                 (Linear)    (Quad)   (Total)
    X1        0.00000  -0.00005   0.00000  -0.00399  -0.00399  -0.00399
    Y1       -0.00000  -0.00003   0.00000  -0.00196  -0.00196  -0.00196
    Z1       -0.00000   0.00069   0.00000   0.00846   0.00846   0.00846
    X2       -5.32566   0.00011   0.00000   0.00102   0.00102  -5.32464
    Y2        0.00000   0.00004   0.00000   0.00175   0.00175   0.00175
    Z2       -2.28514   0.00006   0.00000  -0.00723  -0.00723  -2.29236
    X3        0.00000  -0.00412   0.00000  -0.00288  -0.00288  -0.00288
    Y3        0.00000  -0.00305   0.00000  -0.00292  -0.00292  -0.00292
    Z3       10.23670   0.00179   0.00000   0.00112   0.00112  10.23782
    X4       -7.21759   0.00405   0.00000   0.00585   0.00585  -7.21174
    Y4       -5.45342   0.00303   0.00000   0.00313   0.00313  -5.45028
    Z4       14.91747  -0.00254   0.00000  -0.00236  -0.00236  14.91511
         Item               Value     Threshold  Converged?
 Maximum Force            0.004115     0.000450     NO 
 RMS     Force            0.002272     0.000300     NO 
 Maximum Displacement     0.008465     0.001800     NO 
 RMS     Displacement     0.004237     0.001200     NO 
 Predicted change in Energy=-3.391372D-05
 GradGradGradGradGradGradGradGradGradGradGradGradGradGradGradGradGradGrad

 Leave Link  103 at Fri Oct  6 22:01:49 2023, MaxMem=  1610612736 cpu:               3.4 elap:               2.3
 (Enter /home/sekinelabo/g16/l9999.exe)
 1\1\GINC-SEKINELABO-XA7R-R37\Force\RB3LYP\6-311+G(d)\Na4\SEKINELABO\06
 -Oct-2023\0\\#p B3LYP/6-311+g(d) force\\\0,1\Na,0.,0.,0.\Na,-2.8182161
 104,0.,-1.2092431612\Na,0.,0.,5.4170292938\Na,-3.8193852914,-2.8858238
 909,7.8939858163\\Version=ES64L-G16RevB.01\State=1-A\HF=-649.1721993\R
 MSD=9.456e-09\RMSF=2.272e-03\Dipole=-0.1420124,-0.0049539,-0.1578253\Q
 uadrupole=5.4162344,-3.295636,-2.1205984,3.4302679,0.134281,-2.0238466
 \PG=C01 [X(Na4)]\\@


 THE 2ND LAW OF THERMODYNAMICS HAS THE SAME
 DEGREE OF TRUTH AS THE STATEMENT THAT IF YOU THROW
 A TUMBLERFULL OF WATER INTO THE SEA, YOU CANNOT GET
 THE SAME TUMBLERFULL OF WATER OUT AGAIN.
          - J.C. MAXWELL, LETTER TO LORD RAYLEIGH, DECEMBER 6,1870
 Job cpu time:       0 days  0 hours  3 minutes 33.1 seconds.
 Elapsed time:       0 days  0 hours  2 minutes 14.7 seconds.
 File lengths (MBytes):  RWF=     10 Int=      0 D2E=      0 Chk=      2 Scr=      1
 Normal termination of Gaussian 16 at Fri Oct  6 22:01:50 2023.
 Initial command:
 /home/sekinelabo/g16/l1.exe "/home/sekinelabo/g16temp/Gau-709019.inp" -scrdir="/home/sekinelabo/g16temp/"
 Entering Link 1 = /home/sekinelabo/g16/l1.exe PID=    710972.
  
 Copyright (c) 1988-2017, Gaussian, Inc.  All Rights Reserved.
  
 This is part of the Gaussian(R) 16 program.  It is based on
 the Gaussian(R) 09 system (copyright 2009, Gaussian, Inc.),
 the Gaussian(R) 03 system (copyright 2003, Gaussian, Inc.),
 the Gaussian(R) 98 system (copyright 1998, Gaussian, Inc.),
 the Gaussian(R) 94 system (copyright 1995, Gaussian, Inc.),
 the Gaussian 92(TM) system (copyright 1992, Gaussian, Inc.),
 the Gaussian 90(TM) system (copyright 1990, Gaussian, Inc.),
 the Gaussian 88(TM) system (copyright 1988, Gaussian, Inc.),
 the Gaussian 86(TM) system (copyright 1986, Carnegie Mellon
 University), and the Gaussian 82(TM) system (copyright 1983,
 Carnegie Mellon University). Gaussian is a federally registered
 trademark of Gaussian, Inc.
  
 This software contains proprietary and confidential information,
 including trade secrets, belonging to Gaussian, Inc.
  
 This software is provided under written license and may be
 used, copied, transmitted, or stored only in accord with that
 written license.
  
 The following legend is applicable only to US Government
 contracts under FAR:
  
                    RESTRICTED RIGHTS LEGEND
  
 Use, reproduction and disclosure by the US Government is
 subject to restrictions as set forth in subparagraphs (a)
 and (c) of the Commercial Computer Software - Restricted
 Rights clause in FAR 52.227-19.
  
 Gaussian, Inc.
 340 Quinnipiac St., Bldg. 40, Wallingford CT 06492
  
  
 ---------------------------------------------------------------
 Warning -- This program may not be used in any manner that
 competes with the business of Gaussian, Inc. or will provide
 assistance to any competitor of Gaussian, Inc.  The licensee
 of this program is prohibited from giving any competitor of
 Gaussian, Inc. access to this program.  By using this program,
 the user acknowledges that Gaussian, Inc. is engaged in the
 business of creating and licensing software in the field of
 computational chemistry and represents and warrants to the
 licensee that it is not a competitor of Gaussian, Inc. and that
 it will not use this program in any manner prohibited above.
 ---------------------------------------------------------------
  

 Cite this work as:
 Gaussian 16, Revision B.01,
 M. J. Frisch, G. W. Trucks, H. B. Schlegel, G. E. Scuseria, 
 M. A. Robb, J. R. Cheeseman, G. Scalmani, V. Barone, 
 G. A. Petersson, H. Nakatsuji, X. Li, M. Caricato, A. V. Marenich, 
 J. Bloino, B. G. Janesko, R. Gomperts, B. Mennucci, H. P. Hratchian, 
 J. V. Ortiz, A. F. Izmaylov, J. L. Sonnenberg, D. Williams-Young, 
 F. Ding, F. Lipparini, F. Egidi, J. Goings, B. Peng, A. Petrone, 
 T. Henderson, D. Ranasinghe, V. G. Zakrzewski, J. Gao, N. Rega, 
 G. Zheng, W. Liang, M. Hada, M. Ehara, K. Toyota, R. Fukuda, 
 J. Hasegawa, M. Ishida, T. Nakajima, Y. Honda, O. Kitao, H. Nakai, 
 T. Vreven, K. Throssell, J. A. Montgomery, Jr., J. E. Peralta, 
 F. Ogliaro, M. J. Bearpark, J. J. Heyd, E. N. Brothers, K. N. Kudin, 
 V. N. Staroverov, T. A. Keith, R. Kobayashi, J. Normand, 
 K. Raghavachari, A. P. Rendell, J. C. Burant, S. S. Iyengar, 
 J. Tomasi, M. Cossi, J. M. Millam, M. Klene, C. Adamo, R. Cammi, 
 J. W. Ochterski, R. L. Martin, K. Morokuma, O. Farkas, 
 J. B. Foresman, and D. J. Fox, Gaussian, Inc., Wallingford CT, 2016.
 
 ******************************************
 Gaussian 16:  ES64L-G16RevB.01 20-Dec-2017
                 6-Oct-2023 
 ******************************************
 %NProcShared=16
 Will use up to   16 processors via shared memory.
 %mem=12GB
 %Chk=checkpoint.chk
 -------------------------
 #p B3LYP/6-311+g(d) force
 -------------------------
 1/10=7,30=1,38=1/1,3;
 2/12=2,17=6,18=5,40=1/2;
 3/5=4,6=6,7=11,11=2,25=1,30=1,71=1,74=-5/1,2,3;
 4//1;
 5/5=2,38=5/2;
 6/7=2,8=2,9=2,10=2,28=1/1;
 7/29=1/1,2,3,16;
 1/10=7,30=1/3;
 99//99;
 Leave Link    1 at Fri Oct  6 22:01:50 2023, MaxMem=  1610612736 cpu:               0.5 elap:               0.4
 (Enter /home/sekinelabo/g16/l101.exe)


 Symbolic Z-matrix:
 Charge =  0 Multiplicity = 1
 Na                    0.        0.        0. 
 Na                   -5.44966   0.       -0.2857 
 Na                    0.        0.        3.8162 
 Na                   -0.23993  -0.16409   6.15682 
 
 ITRead=  0  0  0  0
 MicOpt= -1 -1 -1 -1
 NAtoms=      4 NQM=        4 NQMF=       0 NMMI=      0 NMMIF=      0
                NMic=       0 NMicF=      0.
                    Isotopes and Nuclear Properties:
 (Nuclear quadrupole moments (NQMom) in fm**2, nuclear magnetic moments (NMagM)
  in nuclear magnetons)

  Atom         1           2           3           4
 IAtWgt=          23          23          23          23
 AtmWgt=  22.9897697  22.9897697  22.9897697  22.9897697
 NucSpn=           3           3           3           3
 AtZEff=  -0.0000000  -0.0000000  -0.0000000  -0.0000000
 NQMom=   10.4000000  10.4000000  10.4000000  10.4000000
 NMagM=    2.2175200   2.2175200   2.2175200   2.2175200
 AtZNuc=  11.0000000  11.0000000  11.0000000  11.0000000
 Leave Link  101 at Fri Oct  6 22:01:52 2023, MaxMem=  1610612736 cpu:               1.9 elap:               1.3
 (Enter /home/sekinelabo/g16/l103.exe)

 GradGradGradGradGradGradGradGradGradGradGradGradGradGradGradGradGradGrad
 Berny optimization.
 Initialization pass.
 Trust Radius=3.00D-01 FncErr=1.00D-07 GrdErr=1.00D-07 EigMax=2.50D+02 EigMin=1.00D-04
 Number of steps in this run=      2 maximum allowed number of steps=      2.
 GradGradGradGradGradGradGradGradGradGradGradGradGradGradGradGradGradGrad

 Leave Link  103 at Fri Oct  6 22:01:52 2023, MaxMem=  1610612736 cpu:               0.5 elap:               0.4
 (Enter /home/sekinelabo/g16/l202.exe)
                          Input orientation:                          
 ---------------------------------------------------------------------
 Center     Atomic      Atomic             Coordinates (Angstroms)
 Number     Number       Type             X           Y           Z
 ---------------------------------------------------------------------
      1         11           0        0.000000    0.000000    0.000000
      2         11           0       -5.449661    0.000000   -0.285703
      3         11           0        0.000000    0.000000    3.816204
      4         11           0       -0.239932   -0.164087    6.156824
 ---------------------------------------------------------------------
                    Distance matrix (angstroms):
                    1          2          3          4
     1  Na   0.000000
     2  Na   5.457145   0.000000
     3  Na   3.816204   6.820883   0.000000
     4  Na   6.163682   8.287000   2.358601   0.000000
 Stoichiometry    Na4
 Framework group  C1[X(Na4)]
 Deg. of freedom     6
 Full point group                 C1      NOp   1
 Largest Abelian subgroup         C1      NOp   1
 Largest concise Abelian subgroup C1      NOp   1
                         Standard orientation:                         
 ---------------------------------------------------------------------
 Center     Atomic      Atomic             Coordinates (Angstroms)
 Number     Number       Type             X           Y           Z
 ---------------------------------------------------------------------
      1         11           0       -1.056268    2.602642   -0.026780
      2         11           0       -4.599587   -1.547599    0.001789
      3         11           0        1.971246    0.281208    0.065449
      4         11           0        3.684609   -1.336250   -0.040458
 ---------------------------------------------------------------------
 Rotational constants (GHZ):           1.9911768           0.5531553           0.4330088
 Leave Link  202 at Fri Oct  6 22:01:53 2023, MaxMem=  1610612736 cpu:               1.0 elap:               0.7
 (Enter /home/sekinelabo/g16/l301.exe)
 Standard basis: 6-311+G(d) (5D, 7F)
 Ernie: Thresh=  0.10000D-02 Tol=  0.10000D-05 Strict=F.
 There are   124 symmetry adapted cartesian basis functions of A   symmetry.
 There are   120 symmetry adapted basis functions of A   symmetry.
   120 basis functions,   200 primitive gaussians,   124 cartesian basis functions
    22 alpha electrons       22 beta electrons
       nuclear repulsion energy        83.1619013572 Hartrees.
 IExCor=  402 DFT=T Ex+Corr=B3LYP ExCW=0 ScaHFX=  0.200000
 ScaDFX=  0.800000  0.720000  1.000000  0.810000 ScalE2=  1.000000  1.000000
 IRadAn=      5 IRanWt=     -1 IRanGd=            0 ICorTp=0 IEmpDi=  4
 NAtoms=    4 NActive=    4 NUniq=    4 SFac= 1.00D+00 NAtFMM=   60 NAOKFM=F Big=F
 Integral buffers will be    131072 words long.
 Raffenetti 2 integral format.
 Two-electron integral symmetry is turned on.
 Leave Link  301 at Fri Oct  6 22:01:53 2023, MaxMem=  1610612736 cpu:               0.8 elap:               0.6
 (Enter /home/sekinelabo/g16/l302.exe)
 NPDir=0 NMtPBC=     1 NCelOv=     1 NCel=       1 NClECP=     1 NCelD=      1
         NCelK=      1 NCelE2=     1 NClLst=     1 CellRange=     0.0.
 One-electron integrals computed using PRISM.
 One-electron integral symmetry used in STVInt
 NBasis=   120 RedAO= T EigKep=  7.46D-05  NBF=   120
 NBsUse=   119 1.00D-06 EigRej=  9.79D-07 NBFU=   119
 Precomputing XC quadrature grid using
 IXCGrd= 4 IRadAn=           5 IRanWt=          -1 IRanGd=           0 AccXCQ= 0.00D+00.
 Generated NRdTot=       0 NPtTot=           0 NUsed=           0 NTot=          32
 NSgBfM=   113   113   113   113   113 MxSgAt=     4 MxSgA2=     4.
 Leave Link  302 at Fri Oct  6 22:02:06 2023, MaxMem=  1610612736 cpu:              20.8 elap:              12.5
 (Enter /home/sekinelabo/g16/l303.exe)
 DipDrv:  MaxL=1.
 Leave Link  303 at Fri Oct  6 22:02:08 2023, MaxMem=  1610612736 cpu:               2.7 elap:               1.7
 (Enter /home/sekinelabo/g16/l401.exe)
 ExpMin= 7.60D-03 ExpMax= 3.62D+04 ExpMxC= 1.21D+03 IAcc=3 IRadAn=         5 AccDes= 0.00D+00
 Harris functional with IExCor=  402 and IRadAn=       5 diagonalized for initial guess.
 HarFok:  IExCor=  402 AccDes= 0.00D+00 IRadAn=         5 IDoV= 1 UseB2=F ITyADJ=14
 ICtDFT=  3500011 ScaDFX=  1.000000  1.000000  1.000000  1.000000
 FoFCou: FMM=F IPFlag=           0 FMFlag=      100000 FMFlg1=           0
         NFxFlg=           0 DoJE=T BraDBF=F KetDBF=T FulRan=T
         wScrn=  0.000000 ICntrl=       500 IOpCl=  0 I1Cent=   200000004 NGrid=           0
         NMat0=    1 NMatS0=      1 NMatT0=    0 NMatD0=    1 NMtDS0=    0 NMtDT0=    0
 Petite list used in FoFCou.
 Harris En= -649.035728970494    
 JPrj=0 DoOrth=F DoCkMO=F.
 Leave Link  401 at Fri Oct  6 22:02:17 2023, MaxMem=  1610612736 cpu:              14.7 elap:               9.1
 (Enter /home/sekinelabo/g16/l502.exe)
 Keep R1 ints in memory in canonical form, NReq=41581762.
 FoFCou: FMM=F IPFlag=           0 FMFlag=           0 FMFlg1=           0
         NFxFlg=           0 DoJE=F BraDBF=F KetDBF=F FulRan=T
         wScrn=  0.000000 ICntrl=       600 IOpCl=  0 I1Cent=           0 NGrid=           0
         NMat0=    1 NMatS0=   7260 NMatT0=    0 NMatD0=    1 NMtDS0=    0 NMtDT0=    0
 Symmetry not used in FoFCou.
 Two-electron integral symmetry not used.
 Closed shell SCF:
 Using DIIS extrapolation, IDIIS=  1040.
 NGot=  1610612736 LenX=  1584221380 LenY=  1584205563
 Requested convergence on RMS density matrix=1.00D-08 within 128 cycles.
 Requested convergence on MAX density matrix=1.00D-06.
 Requested convergence on             energy=1.00D-06.
 No special actions if energy rises.

 Cycle   1  Pass 1  IDiag  1:
 E= -649.134642155860    
 DIIS: error= 1.50D-02 at cycle   1 NSaved=   1.
 NSaved= 1 IEnMin= 1 EnMin= -649.134642155860     IErMin= 1 ErrMin= 1.50D-02
 ErrMax= 1.50D-02  0.00D+00 EMaxC= 1.00D-01 BMatC= 2.78D-02 BMatP= 2.78D-02
 IDIUse=3 WtCom= 8.50D-01 WtEn= 1.50D-01
 Coeff-Com:  0.100D+01
 Coeff-En:   0.100D+01
 Coeff:      0.100D+01
 Gap=     0.004 Goal=   None    Shift=    0.000
 GapD=    0.004 DampG=0.250 DampE=0.500 DampFc=0.2500 IDamp=-1.
 Damping current iteration by 2.50D-01
 RMSDP=8.48D-03 MaxDP=5.67D-01              OVMax= 6.71D-01

 Cycle   2  Pass 1  IDiag  1:
 E= -649.145204849356     Delta-E=       -0.010562693495 Rises=F Damp=T
 DIIS: error= 1.04D-02 at cycle   2 NSaved=   2.
 NSaved= 2 IEnMin= 2 EnMin= -649.145204849356     IErMin= 2 ErrMin= 1.04D-02
 ErrMax= 1.04D-02  0.00D+00 EMaxC= 1.00D-01 BMatC= 1.02D-02 BMatP= 2.78D-02
 IDIUse=3 WtCom= 8.96D-01 WtEn= 1.04D-01
 Coeff-Com: -0.103D+01 0.203D+01
 Coeff-En:   0.000D+00 0.100D+01
 Coeff:     -0.922D+00 0.192D+01
 Gap=     0.053 Goal=   None    Shift=    0.000
 RMSDP=4.41D-03 MaxDP=2.67D-01 DE=-1.06D-02 OVMax= 8.95D-01

 Cycle   3  Pass 1  IDiag  1:
 E= -649.089320256834     Delta-E=        0.055884592521 Rises=F Damp=F
 DIIS: error= 7.05D-03 at cycle   3 NSaved=   3.
 NSaved= 3 IEnMin= 2 EnMin= -649.145204849356     IErMin= 3 ErrMin= 7.05D-03
 ErrMax= 7.05D-03  0.00D+00 EMaxC= 1.00D-01 BMatC= 6.02D-03 BMatP= 1.02D-02
 IDIUse=3 WtCom= 9.30D-01 WtEn= 7.05D-02
 Rare condition: small coef for last iteration:  0.000D+00
 Coeff-Com: -0.661D+00 0.122D+01 0.442D+00
 Coeff-En:   0.000D+00 0.000D+00 0.100D+01
 Coeff:     -0.661D+00 0.122D+01 0.442D+00
 Gap=    -0.003 Goal=   None    Shift=    0.000
 RMSDP=8.04D-03 MaxDP=4.76D-01 DE= 5.59D-02 OVMax= 7.69D-01

 Cycle   4  Pass 1  IDiag  1:
 E= -649.110341173659     Delta-E=       -0.021020916825 Rises=F Damp=F
 DIIS: error= 8.12D-03 at cycle   4 NSaved=   4.
 NSaved= 4 IEnMin= 2 EnMin= -649.145204849356     IErMin= 3 ErrMin= 7.05D-03
 ErrMax= 8.12D-03  0.00D+00 EMaxC= 1.00D-01 BMatC= 5.01D-03 BMatP= 6.02D-03
 IDIUse=3 WtCom= 9.19D-01 WtEn= 8.12D-02
 EnCoef did    28 forward-backward iterations
 Coeff-Com: -0.790D-01 0.203D+00 0.438D+00 0.438D+00
 Coeff-En:   0.337D+00 0.000D+00 0.209D+00 0.454D+00
 Coeff:     -0.452D-01 0.186D+00 0.419D+00 0.440D+00
 Gap=     0.018 Goal=   None    Shift=    0.000
 RMSDP=3.41D-03 MaxDP=2.47D-01 DE=-2.10D-02 OVMax= 3.47D-01

 Cycle   5  Pass 1  IDiag  1:
 E= -649.159802431928     Delta-E=       -0.049461258268 Rises=F Damp=F
 DIIS: error= 1.01D-03 at cycle   5 NSaved=   5.
 NSaved= 5 IEnMin= 5 EnMin= -649.159802431928     IErMin= 5 ErrMin= 1.01D-03
 ErrMax= 1.01D-03  0.00D+00 EMaxC= 1.00D-01 BMatC= 1.47D-04 BMatP= 5.01D-03
 IDIUse=3 WtCom= 9.90D-01 WtEn= 1.01D-02
 Coeff-Com:  0.787D-01-0.104D+00 0.107D+00 0.254D-01 0.893D+00
 Coeff-En:   0.000D+00 0.000D+00 0.000D+00 0.000D+00 0.100D+01
 Coeff:      0.779D-01-0.103D+00 0.106D+00 0.252D-01 0.894D+00
 Gap=     0.028 Goal=   None    Shift=    0.000
 RMSDP=6.50D-04 MaxDP=3.04D-02 DE=-4.95D-02 OVMax= 6.41D-02

 Cycle   6  Pass 1  IDiag  1:
 E= -649.157397512478     Delta-E=        0.002404919450 Rises=F Damp=F
 DIIS: error= 2.53D-03 at cycle   6 NSaved=   6.
 NSaved= 6 IEnMin= 5 EnMin= -649.159802431928     IErMin= 5 ErrMin= 1.01D-03
 ErrMax= 2.53D-03  0.00D+00 EMaxC= 1.00D-01 BMatC= 3.85D-04 BMatP= 1.47D-04
 IDIUse=3 WtCom= 9.90D-01 WtEn= 1.01D-02
 Rare condition: small coef for last iteration:  0.000D+00
 Coeff-Com:  0.777D-01-0.104D+00 0.624D-01-0.119D+00 0.536D+00 0.547D+00
 Coeff-En:   0.000D+00 0.000D+00 0.731D-01 0.000D+00 0.000D+00 0.927D+00
 Coeff:      0.777D-01-0.104D+00 0.624D-01-0.119D+00 0.536D+00 0.547D+00
 Gap=     0.028 Goal=   None    Shift=    0.000
 RMSDP=2.36D-04 MaxDP=1.30D-02 DE= 2.40D-03 OVMax= 1.70D-02

 Cycle   7  Pass 1  IDiag  1:
 E= -649.158592494554     Delta-E=       -0.001194982076 Rises=F Damp=F
 DIIS: error= 1.99D-03 at cycle   7 NSaved=   7.
 NSaved= 7 IEnMin= 5 EnMin= -649.159802431928     IErMin= 5 ErrMin= 1.01D-03
 ErrMax= 1.99D-03  0.00D+00 EMaxC= 1.00D-01 BMatC= 2.38D-04 BMatP= 1.47D-04
 IDIUse=3 WtCom= 9.90D-01 WtEn= 1.01D-02
 Coeff-Com:  0.743D-01-0.100D+00 0.597D-01-0.115D+00 0.351D+00 0.823D-01
 Coeff-Com:  0.648D+00
 Coeff-En:   0.000D+00 0.000D+00 0.315D-01 0.000D+00 0.000D+00 0.000D+00
 Coeff-En:   0.968D+00
 Coeff:      0.736D-01-0.994D-01 0.594D-01-0.114D+00 0.347D+00 0.815D-01
 Coeff:      0.652D+00
 Gap=     0.029 Goal=   None    Shift=    0.000
 RMSDP=1.21D-04 MaxDP=7.75D-03 DE=-1.19D-03 OVMax= 1.17D-02

 Cycle   8  Pass 1  IDiag  1:
 E= -649.159097772883     Delta-E=       -0.000505278329 Rises=F Damp=F
 DIIS: error= 1.71D-03 at cycle   8 NSaved=   8.
 NSaved= 8 IEnMin= 5 EnMin= -649.159802431928     IErMin= 5 ErrMin= 1.01D-03
 ErrMax= 1.71D-03  0.00D+00 EMaxC= 1.00D-01 BMatC= 1.78D-04 BMatP= 1.47D-04
 IDIUse=3 WtCom= 9.90D-01 WtEn= 1.01D-02
 Coeff-Com:  0.390D-01-0.519D-01 0.388D-01-0.385D-01-0.403D-02-0.934D+00
 Coeff-Com: -0.695D+00 0.265D+01
 Coeff-En:   0.000D+00 0.000D+00 0.733D-02 0.000D+00 0.000D+00 0.000D+00
 Coeff-En:   0.000D+00 0.993D+00
 Coeff:      0.386D-01-0.514D-01 0.385D-01-0.381D-01-0.399D-02-0.925D+00
 Coeff:     -0.688D+00 0.263D+01
 Gap=     0.028 Goal=   None    Shift=    0.000
 RMSDP=2.38D-04 MaxDP=1.58D-02 DE=-5.05D-04 OVMax= 2.28D-02

 Cycle   9  Pass 1  IDiag  1:
 E= -649.159987365401     Delta-E=       -0.000889592518 Rises=F Damp=F
 DIIS: error= 1.02D-03 at cycle   9 NSaved=   9.
 NSaved= 9 IEnMin= 9 EnMin= -649.159987365401     IErMin= 5 ErrMin= 1.01D-03
 ErrMax= 1.02D-03  0.00D+00 EMaxC= 1.00D-01 BMatC= 6.21D-05 BMatP= 1.47D-04
 IDIUse=3 WtCom= 9.90D-01 WtEn= 1.01D-02
 Coeff-Com:  0.971D-03-0.108D-02 0.113D-01 0.157D-01-0.103D+00-0.628D+00
 Coeff-Com: -0.117D+01 0.150D+01 0.138D+01
 Coeff-En:   0.000D+00 0.000D+00 0.000D+00 0.000D+00 0.000D+00 0.000D+00
 Coeff-En:   0.000D+00 0.000D+00 0.100D+01
 Coeff:      0.962D-03-0.107D-02 0.112D-01 0.155D-01-0.102D+00-0.622D+00
 Coeff:     -0.116D+01 0.148D+01 0.137D+01
 Gap=     0.028 Goal=   None    Shift=    0.000
 RMSDP=3.94D-04 MaxDP=2.48D-02 DE=-8.90D-04 OVMax= 4.09D-02

 Cycle  10  Pass 1  IDiag  1:
 E= -649.160504232784     Delta-E=       -0.000516867384 Rises=F Damp=F
 DIIS: error= 7.87D-05 at cycle  10 NSaved=  10.
 NSaved=10 IEnMin=10 EnMin= -649.160504232784     IErMin=10 ErrMin= 7.87D-05
 ErrMax= 7.87D-05  0.00D+00 EMaxC= 1.00D-01 BMatC= 4.54D-07 BMatP= 6.21D-05
 IDIUse=1 WtCom= 1.00D+00 WtEn= 0.00D+00
 Coeff-Com: -0.190D-03 0.701D-04 0.216D-02 0.386D-02-0.885D-02-0.625D-01
 Coeff-Com: -0.228D+00 0.154D+00 0.386D+00 0.753D+00
 Coeff:     -0.190D-03 0.701D-04 0.216D-02 0.386D-02-0.885D-02-0.625D-01
 Coeff:     -0.228D+00 0.154D+00 0.386D+00 0.753D+00
 Gap=     0.028 Goal=   None    Shift=    0.000
 RMSDP=3.25D-05 MaxDP=2.05D-03 DE=-5.17D-04 OVMax= 3.00D-03

 Cycle  11  Pass 1  IDiag  1:
 E= -649.160507507472     Delta-E=       -0.000003274688 Rises=F Damp=F
 DIIS: error= 6.37D-06 at cycle  11 NSaved=  11.
 NSaved=11 IEnMin=11 EnMin= -649.160507507472     IErMin=11 ErrMin= 6.37D-06
 ErrMax= 6.37D-06  0.00D+00 EMaxC= 1.00D-01 BMatC= 1.07D-08 BMatP= 4.54D-07
 IDIUse=1 WtCom= 1.00D+00 WtEn= 0.00D+00
 Coeff-Com:  0.417D-03-0.588D-03 0.986D-04-0.860D-03 0.703D-02 0.293D-01
 Coeff-Com:  0.392D-01-0.678D-01-0.215D-01 0.178D+00 0.836D+00
 Coeff:      0.417D-03-0.588D-03 0.986D-04-0.860D-03 0.703D-02 0.293D-01
 Coeff:      0.392D-01-0.678D-01-0.215D-01 0.178D+00 0.836D+00
 Gap=     0.028 Goal=   None    Shift=    0.000
 RMSDP=6.91D-06 MaxDP=2.68D-04 DE=-3.27D-06 OVMax= 2.84D-04

 Cycle  12  Pass 1  IDiag  1:
 E= -649.160507492880     Delta-E=        0.000000014592 Rises=F Damp=F
 DIIS: error= 9.40D-06 at cycle  12 NSaved=  12.
 NSaved=12 IEnMin=11 EnMin= -649.160507507472     IErMin=11 ErrMin= 6.37D-06
 ErrMax= 9.40D-06  0.00D+00 EMaxC= 1.00D-01 BMatC= 5.86D-09 BMatP= 1.07D-08
 IDIUse=1 WtCom= 1.00D+00 WtEn= 0.00D+00
 Coeff-Com:  0.138D-03-0.183D-03-0.208D-04 0.179D-05 0.924D-03 0.358D-02
 Coeff-Com:  0.814D-02-0.994D-02-0.175D-01-0.124D-02 0.114D+00 0.902D+00
 Coeff:      0.138D-03-0.183D-03-0.208D-04 0.179D-05 0.924D-03 0.358D-02
 Coeff:      0.814D-02-0.994D-02-0.175D-01-0.124D-02 0.114D+00 0.902D+00
 Gap=     0.028 Goal=   None    Shift=    0.000
 RMSDP=3.78D-06 MaxDP=2.25D-04 DE= 1.46D-08 OVMax= 3.87D-04

 Cycle  13  Pass 1  IDiag  1:
 E= -649.160507541713     Delta-E=       -0.000000048833 Rises=F Damp=F
 DIIS: error= 8.25D-07 at cycle  13 NSaved=  13.
 NSaved=13 IEnMin=13 EnMin= -649.160507541713     IErMin=13 ErrMin= 8.25D-07
 ErrMax= 8.25D-07  0.00D+00 EMaxC= 1.00D-01 BMatC= 4.77D-11 BMatP= 5.86D-09
 IDIUse=1 WtCom= 1.00D+00 WtEn= 0.00D+00
 Coeff-Com:  0.373D-04-0.495D-04 0.804D-05 0.261D-04 0.153D-03-0.666D-05
 Coeff-Com: -0.136D-02 0.167D-02-0.193D-02-0.430D-02-0.292D-02 0.194D+00
 Coeff-Com:  0.815D+00
 Coeff:      0.373D-04-0.495D-04 0.804D-05 0.261D-04 0.153D-03-0.666D-05
 Coeff:     -0.136D-02 0.167D-02-0.193D-02-0.430D-02-0.292D-02 0.194D+00
 Coeff:      0.815D+00
 Gap=     0.028 Goal=   None    Shift=    0.000
 RMSDP=4.33D-07 MaxDP=1.65D-05 DE=-4.88D-08 OVMax= 2.22D-05

 Cycle  14  Pass 1  IDiag  1:
 E= -649.160507542029     Delta-E=       -0.000000000316 Rises=F Damp=F
 DIIS: error= 1.02D-07 at cycle  14 NSaved=  14.
 NSaved=14 IEnMin=14 EnMin= -649.160507542029     IErMin=14 ErrMin= 1.02D-07
 ErrMax= 1.02D-07  0.00D+00 EMaxC= 1.00D-01 BMatC= 2.21D-12 BMatP= 4.77D-11
 IDIUse=1 WtCom= 1.00D+00 WtEn= 0.00D+00
 Coeff-Com: -0.471D-05 0.612D-05 0.181D-05 0.142D-04 0.512D-05-0.241D-03
 Coeff-Com: -0.123D-02 0.122D-02 0.119D-02-0.153D-02-0.122D-01-0.309D-01
 Coeff-Com:  0.276D+00 0.768D+00
 Coeff:     -0.471D-05 0.612D-05 0.181D-05 0.142D-04 0.512D-05-0.241D-03
 Coeff:     -0.123D-02 0.122D-02 0.119D-02-0.153D-02-0.122D-01-0.309D-01
 Coeff:      0.276D+00 0.768D+00
 Gap=     0.028 Goal=   None    Shift=    0.000
 RMSDP=9.63D-08 MaxDP=2.33D-06 DE=-3.16D-10 OVMax= 4.43D-06

 Cycle  15  Pass 1  IDiag  1:
 E= -649.160507542037     Delta-E=       -0.000000000008 Rises=F Damp=F
 DIIS: error= 8.59D-08 at cycle  15 NSaved=  15.
 NSaved=15 IEnMin=15 EnMin= -649.160507542037     IErMin=15 ErrMin= 8.59D-08
 ErrMax= 8.59D-08  0.00D+00 EMaxC= 1.00D-01 BMatC= 4.20D-13 BMatP= 2.21D-12
 IDIUse=1 WtCom= 1.00D+00 WtEn= 0.00D+00
 Coeff-Com:  0.356D-06-0.586D-06 0.155D-05-0.205D-05 0.135D-04-0.243D-04
 Coeff-Com: -0.143D-03 0.151D-03 0.282D-03 0.264D-05-0.138D-02-0.993D-02
 Coeff-Com:  0.211D-01 0.101D+00 0.889D+00
 Coeff:      0.356D-06-0.586D-06 0.155D-05-0.205D-05 0.135D-04-0.243D-04
 Coeff:     -0.143D-03 0.151D-03 0.282D-03 0.264D-05-0.138D-02-0.993D-02
 Coeff:      0.211D-01 0.101D+00 0.889D+00
 Gap=     0.028 Goal=   None    Shift=    0.000
 RMSDP=6.82D-08 MaxDP=3.40D-06 DE=-8.19D-12 OVMax= 6.19D-06

 Cycle  16  Pass 1  IDiag  1:
 E= -649.160507542034     Delta-E=        0.000000000003 Rises=F Damp=F
 DIIS: error= 7.43D-08 at cycle  16 NSaved=  16.
 NSaved=16 IEnMin=15 EnMin= -649.160507542037     IErMin=16 ErrMin= 7.43D-08
 ErrMax= 7.43D-08  0.00D+00 EMaxC= 1.00D-01 BMatC= 3.30D-13 BMatP= 4.20D-13
 IDIUse=1 WtCom= 1.00D+00 WtEn= 0.00D+00
 Coeff-Com: -0.242D-06 0.298D-06 0.841D-07 0.290D-06-0.254D-05-0.356D-05
 Coeff-Com:  0.398D-05-0.988D-05-0.111D-04 0.679D-04 0.236D-03-0.241D-03
 Coeff-Com: -0.116D-01-0.206D-01 0.309D+00 0.723D+00
 Coeff:     -0.242D-06 0.298D-06 0.841D-07 0.290D-06-0.254D-05-0.356D-05
 Coeff:      0.398D-05-0.988D-05-0.111D-04 0.679D-04 0.236D-03-0.241D-03
 Coeff:     -0.116D-01-0.206D-01 0.309D+00 0.723D+00
 Gap=     0.028 Goal=   None    Shift=    0.000
 RMSDP=2.78D-08 MaxDP=1.80D-06 DE= 3.18D-12 OVMax= 2.98D-06

 Cycle  17  Pass 1  IDiag  1:
 E= -649.160507542035     Delta-E=       -0.000000000002 Rises=F Damp=F
 DIIS: error= 2.25D-09 at cycle  17 NSaved=  17.
 NSaved=17 IEnMin=15 EnMin= -649.160507542037     IErMin=17 ErrMin= 2.25D-09
 ErrMax= 2.25D-09  0.00D+00 EMaxC= 1.00D-01 BMatC= 3.29D-16 BMatP= 3.30D-13
 IDIUse=1 WtCom= 1.00D+00 WtEn= 0.00D+00
 Large coefficients: NSaved= 17 BigCof=    0.00 CofMax=   10.00 Det=-1.03D-15
 Inversion failed.  Reducing to 16 matrices.
 Large coefficients: NSaved= 16 BigCof=    0.00 CofMax=   10.00 Det=-1.03D-15
 Inversion failed.  Reducing to 15 matrices.
 Coeff-Com: -0.188D-07 0.210D-07-0.275D-06 0.102D-05 0.648D-05-0.961D-05
 Coeff-Com: -0.285D-05 0.130D-04 0.662D-04 0.566D-04-0.187D-02-0.389D-02
 Coeff-Com:  0.210D-01 0.908D-01 0.894D+00
 Coeff:     -0.188D-07 0.210D-07-0.275D-06 0.102D-05 0.648D-05-0.961D-05
 Coeff:     -0.285D-05 0.130D-04 0.662D-04 0.566D-04-0.187D-02-0.389D-02
 Coeff:      0.210D-01 0.908D-01 0.894D+00
 Gap=     0.028 Goal=   None    Shift=    0.000
 RMSDP=1.60D-09 MaxDP=4.48D-08 DE=-1.59D-12 OVMax= 9.97D-08

 SCF Done:  E(RB3LYP) =  -649.160507542     A.U. after   17 cycles
            NFock= 17  Conv=0.16D-08     -V/T= 2.0027
 KE= 6.473809247794D+02 PE=-1.725185880014D+03 EE= 3.454825463349D+02
 Leave Link  502 at Fri Oct  6 22:04:15 2023, MaxMem=  1610612736 cpu:             190.0 elap:             118.4
 (Enter /home/sekinelabo/g16/l601.exe)
 Copying SCF densities to generalized density rwf, IOpCl= 0 IROHF=0.

 **********************************************************************

            Population analysis using the SCF Density.

 **********************************************************************

 Orbital symmetries:
       Occupied  (A) (A) (A) (A) (A) (A) (A) (A) (A) (A) (A) (A)
                 (A) (A) (A) (A) (A) (A) (A) (A) (A) (A)
       Virtual   (A) (A) (A) (A) (A) (A) (A) (A) (A) (A) (A) (A)
                 (A) (A) (A) (A) (A) (A) (A) (A) (A) (A) (A) (A)
                 (A) (A) (A) (A) (A) (A) (A) (A) (A) (A) (A) (A)
                 (A) (A) (A) (A) (A) (A) (A) (A) (A) (A) (A) (A)
                 (A) (A) (A) (A) (A) (A) (A) (A) (A) (A) (A) (A)
                 (A) (A) (A) (A) (A) (A) (A) (A) (A) (A) (A) (A)
                 (A) (A) (A) (A) (A) (A) (A) (A) (A) (A) (A) (A)
                 (A) (A) (A) (A) (A) (A) (A) (A) (A) (A) (A) (A)
                 (A)
 The electronic state is 1-A.
 Alpha  occ. eigenvalues --  -38.46663 -38.46170 -38.45152 -38.44682  -2.22332
 Alpha  occ. eigenvalues --   -2.21866  -2.21117  -2.20586  -1.16009  -1.16008
 Alpha  occ. eigenvalues --   -1.15976  -1.15626  -1.15543  -1.15527  -1.15511
 Alpha  occ. eigenvalues --   -1.14653  -1.14653  -1.14148  -1.14146  -1.13863
 Alpha  occ. eigenvalues --   -0.14382  -0.11560
 Alpha virt. eigenvalues --   -0.08737  -0.04228  -0.03164  -0.03120  -0.01938
 Alpha virt. eigenvalues --   -0.01734  -0.01314  -0.00666  -0.00552   0.00035
 Alpha virt. eigenvalues --    0.00232   0.01041   0.01044   0.01144   0.01305
 Alpha virt. eigenvalues --    0.01526   0.01622   0.01830   0.01936   0.02004
 Alpha virt. eigenvalues --    0.02037   0.02196   0.02473   0.02555   0.03489
 Alpha virt. eigenvalues --    0.03802   0.03841   0.04469   0.05824   0.06954
 Alpha virt. eigenvalues --    0.07178   0.07322   0.07407   0.07983   0.08107
 Alpha virt. eigenvalues --    0.08185   0.08315   0.08778   0.10322   0.10738
 Alpha virt. eigenvalues --    0.11123   0.11425   0.13659   0.14679   0.19381
 Alpha virt. eigenvalues --    0.29087   0.29176   0.30142   0.30354   0.33166
 Alpha virt. eigenvalues --    0.34010   0.34034   0.34058   0.34209   0.34640
 Alpha virt. eigenvalues --    0.35309   0.35738   0.36548   0.36731   0.40180
 Alpha virt. eigenvalues --    0.40822   0.40892   0.41888   0.42378   0.42599
 Alpha virt. eigenvalues --    0.42723   0.43393   0.43710   0.44511   0.44612
 Alpha virt. eigenvalues --    0.44823   0.46364   0.47081   0.52634   0.59436
 Alpha virt. eigenvalues --    0.59818   0.92570   2.00162   2.03063   2.05119
 Alpha virt. eigenvalues --    2.15473   4.42044   4.42276   4.42455   4.42733
 Alpha virt. eigenvalues --    4.42978   4.43178   4.44469   4.44770   4.48728
 Alpha virt. eigenvalues --    4.48864   4.54400   4.80898  96.19115  96.22864
 Alpha virt. eigenvalues --   96.26570  96.37543
          Condensed to atoms (all electrons):
               1          2          3          4
     1  Na  10.793713   0.155020  -0.105976  -0.074160
     2  Na   0.155020  10.905777  -0.061644  -0.018078
     3  Na  -0.105976  -0.061644  10.910950   0.474598
     4  Na  -0.074160  -0.018078   0.474598  10.650038
 Mulliken charges:
               1
     1  Na   0.231403
     2  Na   0.018925
     3  Na  -0.217929
     4  Na  -0.032399
 Sum of Mulliken charges =  -0.00000
 Mulliken charges with hydrogens summed into heavy atoms:
               1
     1  Na   0.231403
     2  Na   0.018925
     3  Na  -0.217929
     4  Na  -0.032399
 Electronic spatial extent (au):  <R**2>=           2079.8179
 Charge=             -0.0000 electrons
 Dipole moment (field-independent basis, Debye):
    X=             -0.6874    Y=             -0.2851    Z=             -0.0357  Tot=              0.7450
 Quadrupole moment (field-independent basis, Debye-Ang):
   XX=            -36.3663   YY=            -33.1070   ZZ=            -45.2878
   XY=              1.2491   XZ=             -0.2090   YZ=              0.0639
 Traceless Quadrupole moment (field-independent basis, Debye-Ang):
   XX=              1.8874   YY=              5.1467   ZZ=             -7.0341
   XY=              1.2491   XZ=             -0.2090   YZ=              0.0639
 Octapole moment (field-independent basis, Debye-Ang**2):
  XXX=             -4.2523  YYY=             12.4645  ZZZ=             -0.0738  XYY=             -3.4506
  XXY=            -51.0728  XXZ=             -1.2065  XZZ=              3.8019  YZZ=             -0.1428
  YYZ=             -0.6655  XYZ=              0.8836
 Hexadecapole moment (field-independent basis, Debye-Ang**3):
 XXXX=          -2461.6320 YYYY=           -743.0379 ZZZZ=           -195.8179 XXXY=             53.0003
 XXXZ=             -7.2295 YYYX=            -20.6850 YYYZ=             -0.4656 ZZZX=             -0.8680
 ZZZY=              0.3749 XXYY=           -509.2612 XXZZ=           -511.5896 YYZZ=           -170.9596
 XXYZ=              2.5970 YYXZ=             -0.8419 ZZXY=              1.4683
 N-N= 8.316190135725D+01 E-N=-1.725185879748D+03  KE= 6.473809247794D+02
 No NMR shielding tensors so no spin-rotation constants.
 Leave Link  601 at Fri Oct  6 22:04:21 2023, MaxMem=  1610612736 cpu:               8.8 elap:               5.6
 (Enter /home/sekinelabo/g16/l701.exe)
 ... and contract with generalized density number  0.
 Compute integral first derivatives.
 Leave Link  701 at Fri Oct  6 22:04:26 2023, MaxMem=  1610612736 cpu:               7.1 elap:               4.6
 (Enter /home/sekinelabo/g16/l702.exe)
 L702 exits ... SP integral derivatives will be done elsewhere.
 Leave Link  702 at Fri Oct  6 22:04:26 2023, MaxMem=  1610612736 cpu:               0.7 elap:               0.5
 (Enter /home/sekinelabo/g16/l703.exe)
 Integral derivatives from FoFJK, PRISM(SPDF).
 Compute integral first derivatives, UseDBF=F ICtDFT=           0.
 Calling FoFJK, ICntrl=      2127 FMM=F ISym2X=0 I1Cent= 0 IOpClX= 0 NMat=1 NMatS=1 NMatT=0.
 FoFJK:  IHMeth= 1 ICntrl=    2127 DoSepK=F KAlg= 0 I1Cent=           0 FoldK=F
 IRaf=         0 NMat=       1 IRICut=       1 DoRegI=T DoRafI=F ISym2E= 0 IDoP0=0 IntGTp=1.
 FoFCou: FMM=F IPFlag=           0 FMFlag=      100000 FMFlg1=         800
         NFxFlg=           0 DoJE=F BraDBF=F KetDBF=F FulRan=T
         wScrn=  0.000000 ICntrl=      2127 IOpCl=  0 I1Cent=           0 NGrid=           0
         NMat0=    1 NMatS0=      1 NMatT0=    0 NMatD0=    1 NMtDS0=    0 NMtDT0=    0
 Symmetry not used in FoFCou.
 Leave Link  703 at Fri Oct  6 22:04:33 2023, MaxMem=  1610612736 cpu:              12.0 elap:               7.2
 (Enter /home/sekinelabo/g16/l716.exe)
 Dipole        =-2.70451575D-01-1.12159117D-01-1.40435338D-02
 ***** Axes restored to original set *****
 -------------------------------------------------------------------
 Center     Atomic                   Forces (Hartrees/Bohr)
 Number     Number              X              Y              Z
 -------------------------------------------------------------------
      1       11          -0.005005299   -0.000005563    0.001125043
      2       11           0.005049267    0.000010708    0.000136644
      3       11           0.002480005    0.001965455   -0.029489244
      4       11          -0.002523972   -0.001970600    0.028227557
 -------------------------------------------------------------------
 Cartesian Forces:  Max     0.029489244 RMS     0.012036439
 Z-matrix is all fixed cartesians, so copy forces.
 Force constants in Cartesian coordinates: 
                1             2             3             4             5 
      1  0.327522D-02
      2  0.223989D-02  0.153183D-02
      3  0.000000D+00  0.000000D+00  0.127424D-01
      4  0.000000D+00  0.000000D+00  0.000000D+00  0.100000D+01
      5  0.000000D+00  0.000000D+00  0.000000D+00  0.000000D+00  0.100000D+01
      6  0.000000D+00  0.000000D+00  0.000000D+00  0.000000D+00  0.000000D+00
      7 -0.853412D-02 -0.583639D-02  0.000000D+00  0.000000D+00  0.000000D+00
      8 -0.583639D-02 -0.399144D-02  0.000000D+00  0.000000D+00  0.000000D+00
      9 -0.791207D-03 -0.541098D-03 -0.127424D-01  0.000000D+00  0.000000D+00
     10  0.525890D-02  0.359650D-02  0.000000D+00  0.000000D+00  0.000000D+00
     11  0.359650D-02  0.245960D-02  0.000000D+00  0.000000D+00  0.000000D+00
     12  0.791207D-03  0.541098D-03  0.000000D+00  0.000000D+00  0.000000D+00
                6             7             8             9            10 
      6  0.100000D+01
      7  0.000000D+00  0.235529D-01
      8  0.000000D+00  0.161075D-01  0.110158D-01
      9  0.000000D+00 -0.107750D-01 -0.736892D-02  0.138159D+00
     10  0.000000D+00 -0.150188D-01 -0.102712D-01  0.115662D-01  0.975986D-02
     11  0.000000D+00 -0.102712D-01 -0.702433D-02  0.791002D-02  0.667466D-02
     12  0.000000D+00  0.107750D-01  0.736892D-02 -0.125417D+00 -0.115662D-01
               11            12 
     11  0.456472D-02
     12 -0.791002D-02  0.125417D+00
 Leave Link  716 at Fri Oct  6 22:04:34 2023, MaxMem=  1610612736 cpu:               0.7 elap:               0.6
 (Enter /home/sekinelabo/g16/l103.exe)

 GradGradGradGradGradGradGradGradGradGradGradGradGradGradGradGradGradGrad
 Berny optimization.
 Search for a local minimum.
 Step number   1 out of a maximum of    2
 All quantities printed in internal units (Hartrees-Bohrs-Radians)
 Second derivative matrix not updated -- first step.
 The second derivative matrix:
                          X1        Y1        Z1        X2        Y2
           X1           0.00328
           Y1           0.00224   0.00153
           Z1          -0.00000  -0.00000   0.01274
           X2           0.00000   0.00000   0.00000   1.00000
           Y2           0.00000   0.00000   0.00000   0.00000   1.00000
           Z2           0.00000   0.00000   0.00000  -0.00000   0.00000
           X3          -0.00853  -0.00584   0.00000   0.00000   0.00000
           Y3          -0.00584  -0.00399   0.00000   0.00000   0.00000
           Z3          -0.00079  -0.00054  -0.01274   0.00000   0.00000
           X4           0.00526   0.00360  -0.00000   0.00000   0.00000
           Y4           0.00360   0.00246  -0.00000   0.00000   0.00000
           Z4           0.00079   0.00054  -0.00000   0.00000   0.00000
                          Z2        X3        Y3        Z3        X4
           Z2           1.00000
           X3           0.00000   0.02355
           Y3           0.00000   0.01611   0.01102
           Z3           0.00000  -0.01078  -0.00737   0.13816
           X4           0.00000  -0.01502  -0.01027   0.01157   0.00976
           Y4           0.00000  -0.01027  -0.00702   0.00791   0.00667
           Z4           0.00000   0.01078   0.00737  -0.12542  -0.01157
                          Y4        Z4
           Y4           0.00456
           Z4          -0.00791   0.12542
 ITU=  0
     Eigenvalues ---    0.00070   0.01858   0.05032   0.26112   0.28610
     Eigenvalues ---    0.75000
 Quadratic step=8.562D-01 exceeds max=3.000D-01 adjusted using Lamda=-1.616D-03.
 Angle between NR and scaled steps=  21.18 degrees.
 Angle between quadratic step and forces=  57.57 degrees.
 Linear search not attempted -- first point.
 B after Tr=    -0.000000    0.000000    0.000000
         Rot=    1.000000   -0.000000   -0.000000    0.000000 Ang=   0.00 deg.
 Variable       Old X    -DE/DX   Delta X   Delta X   Delta X     New X
                                 (Linear)    (Quad)   (Total)
    X1        0.00000  -0.00501   0.00000  -0.06109  -0.06109  -0.06109
    Y1       -0.00000  -0.00001   0.00000   0.06887   0.06887   0.06887
    Z1        0.00000   0.00113   0.00000  -0.00569  -0.00569  -0.00569
    X2      -10.29837   0.00505   0.00000   0.00999   0.00999 -10.28837
    Y2       -0.00000   0.00001   0.00000  -0.00657  -0.00657  -0.00657
    Z2       -0.53990   0.00014   0.00000  -0.00479  -0.00479  -0.54469
    X3        0.00000   0.00248   0.00000   0.13378   0.13378   0.13378
    Y3        0.00000   0.00197   0.00000  -0.15503  -0.15503  -0.15503
    Z3        7.21158  -0.02949   0.00000  -0.10414  -0.10414   7.10744
    X4       -0.45341  -0.00252   0.00000  -0.08268  -0.08268  -0.53609
    Y4       -0.31008  -0.00197   0.00000   0.09273   0.09273  -0.21734
    Z4       11.63471   0.02823   0.00000   0.11462   0.11462  11.74933
         Item               Value     Threshold  Converged?
 Maximum Force            0.029489     0.000450     NO 
 RMS     Force            0.012036     0.000300     NO 
 Maximum Displacement     0.155032     0.001800     NO 
 RMS     Displacement     0.086614     0.001200     NO 
 Predicted change in Energy=-3.426745D-03
 GradGradGradGradGradGradGradGradGradGradGradGradGradGradGradGradGradGrad

 Leave Link  103 at Fri Oct  6 22:04:37 2023, MaxMem=  1610612736 cpu:               5.6 elap:               3.5
 (Enter /home/sekinelabo/g16/l9999.exe)
 1\1\GINC-SEKINELABO-XA7R-R37\Force\RB3LYP\6-311+G(d)\Na4\SEKINELABO\06
 -Oct-2023\0\\#p B3LYP/6-311+g(d) force\\\0,1\Na,0.,0.,0.\Na,-5.4496609
 406,0.,-0.2857033097\Na,0.,0.,3.8162035326\Na,-0.2399321772,-0.1640868
 974,6.1568243487\\Version=ES64L-G16RevB.01\State=1-A\HF=-649.1605075\R
 MSD=1.597e-09\RMSF=1.204e-02\Dipole=-0.253498,-0.0121528,-0.1466697\Qu
 adrupole=3.8261384,-5.2184817,1.3923433,0.0245028,-0.9281811,-0.318345
 6\PG=C01 [X(Na4)]\\@


 A warm smile is the universal language of kindness.
                             -- William Arthur Ward
 Job cpu time:       0 days  0 hours  4 minutes 29.0 seconds.
 Elapsed time:       0 days  0 hours  2 minutes 47.4 seconds.
 File lengths (MBytes):  RWF=     10 Int=      0 D2E=      0 Chk=      2 Scr=      1
 Normal termination of Gaussian 16 at Fri Oct  6 22:04:38 2023.
 Initial command:
 /home/sekinelabo/g16/l1.exe "/home/sekinelabo/g16temp/Gau-709019.inp" -scrdir="/home/sekinelabo/g16temp/"
 Entering Link 1 = /home/sekinelabo/g16/l1.exe PID=    713681.
  
 Copyright (c) 1988-2017, Gaussian, Inc.  All Rights Reserved.
  
 This is part of the Gaussian(R) 16 program.  It is based on
 the Gaussian(R) 09 system (copyright 2009, Gaussian, Inc.),
 the Gaussian(R) 03 system (copyright 2003, Gaussian, Inc.),
 the Gaussian(R) 98 system (copyright 1998, Gaussian, Inc.),
 the Gaussian(R) 94 system (copyright 1995, Gaussian, Inc.),
 the Gaussian 92(TM) system (copyright 1992, Gaussian, Inc.),
 the Gaussian 90(TM) system (copyright 1990, Gaussian, Inc.),
 the Gaussian 88(TM) system (copyright 1988, Gaussian, Inc.),
 the Gaussian 86(TM) system (copyright 1986, Carnegie Mellon
 University), and the Gaussian 82(TM) system (copyright 1983,
 Carnegie Mellon University). Gaussian is a federally registered
 trademark of Gaussian, Inc.
  
 This software contains proprietary and confidential information,
 including trade secrets, belonging to Gaussian, Inc.
  
 This software is provided under written license and may be
 used, copied, transmitted, or stored only in accord with that
 written license.
  
 The following legend is applicable only to US Government
 contracts under FAR:
  
                    RESTRICTED RIGHTS LEGEND
  
 Use, reproduction and disclosure by the US Government is
 subject to restrictions as set forth in subparagraphs (a)
 and (c) of the Commercial Computer Software - Restricted
 Rights clause in FAR 52.227-19.
  
 Gaussian, Inc.
 340 Quinnipiac St., Bldg. 40, Wallingford CT 06492
  
  
 ---------------------------------------------------------------
 Warning -- This program may not be used in any manner that
 competes with the business of Gaussian, Inc. or will provide
 assistance to any competitor of Gaussian, Inc.  The licensee
 of this program is prohibited from giving any competitor of
 Gaussian, Inc. access to this program.  By using this program,
 the user acknowledges that Gaussian, Inc. is engaged in the
 business of creating and licensing software in the field of
 computational chemistry and represents and warrants to the
 licensee that it is not a competitor of Gaussian, Inc. and that
 it will not use this program in any manner prohibited above.
 ---------------------------------------------------------------
  

 Cite this work as:
 Gaussian 16, Revision B.01,
 M. J. Frisch, G. W. Trucks, H. B. Schlegel, G. E. Scuseria, 
 M. A. Robb, J. R. Cheeseman, G. Scalmani, V. Barone, 
 G. A. Petersson, H. Nakatsuji, X. Li, M. Caricato, A. V. Marenich, 
 J. Bloino, B. G. Janesko, R. Gomperts, B. Mennucci, H. P. Hratchian, 
 J. V. Ortiz, A. F. Izmaylov, J. L. Sonnenberg, D. Williams-Young, 
 F. Ding, F. Lipparini, F. Egidi, J. Goings, B. Peng, A. Petrone, 
 T. Henderson, D. Ranasinghe, V. G. Zakrzewski, J. Gao, N. Rega, 
 G. Zheng, W. Liang, M. Hada, M. Ehara, K. Toyota, R. Fukuda, 
 J. Hasegawa, M. Ishida, T. Nakajima, Y. Honda, O. Kitao, H. Nakai, 
 T. Vreven, K. Throssell, J. A. Montgomery, Jr., J. E. Peralta, 
 F. Ogliaro, M. J. Bearpark, J. J. Heyd, E. N. Brothers, K. N. Kudin, 
 V. N. Staroverov, T. A. Keith, R. Kobayashi, J. Normand, 
 K. Raghavachari, A. P. Rendell, J. C. Burant, S. S. Iyengar, 
 J. Tomasi, M. Cossi, J. M. Millam, M. Klene, C. Adamo, R. Cammi, 
 J. W. Ochterski, R. L. Martin, K. Morokuma, O. Farkas, 
 J. B. Foresman, and D. J. Fox, Gaussian, Inc., Wallingford CT, 2016.
 
 ******************************************
 Gaussian 16:  ES64L-G16RevB.01 20-Dec-2017
                 6-Oct-2023 
 ******************************************
 %NProcShared=16
 Will use up to   16 processors via shared memory.
 %mem=12GB
 %Chk=checkpoint.chk
 -------------------------
 #p B3LYP/6-311+g(d) force
 -------------------------
 1/10=7,30=1,38=1/1,3;
 2/12=2,17=6,18=5,40=1/2;
 3/5=4,6=6,7=11,11=2,25=1,30=1,71=1,74=-5/1,2,3;
 4//1;
 5/5=2,38=5/2;
 6/7=2,8=2,9=2,10=2,28=1/1;
 7/29=1/1,2,3,16;
 1/10=7,30=1/3;
 99//99;
 Leave Link    1 at Fri Oct  6 22:04:38 2023, MaxMem=  1610612736 cpu:               0.6 elap:               0.4
 (Enter /home/sekinelabo/g16/l101.exe)


 Symbolic Z-matrix:
 Charge =  0 Multiplicity = 1
 Na                    0.        0.        0. 
 Na                   -1.13683   0.       -5.66651 
 Na                    0.        0.        4.82677 
 Na                   -1.47877  -0.5888    2.70846 
 
 ITRead=  0  0  0  0
 MicOpt= -1 -1 -1 -1
 NAtoms=      4 NQM=        4 NQMF=       0 NMMI=      0 NMMIF=      0
                NMic=       0 NMicF=      0.
                    Isotopes and Nuclear Properties:
 (Nuclear quadrupole moments (NQMom) in fm**2, nuclear magnetic moments (NMagM)
  in nuclear magnetons)

  Atom         1           2           3           4
 IAtWgt=          23          23          23          23
 AtmWgt=  22.9897697  22.9897697  22.9897697  22.9897697
 NucSpn=           3           3           3           3
 AtZEff=  -0.0000000  -0.0000000  -0.0000000  -0.0000000
 NQMom=   10.4000000  10.4000000  10.4000000  10.4000000
 NMagM=    2.2175200   2.2175200   2.2175200   2.2175200
 AtZNuc=  11.0000000  11.0000000  11.0000000  11.0000000
 Leave Link  101 at Fri Oct  6 22:04:40 2023, MaxMem=  1610612736 cpu:               2.0 elap:               1.2
 (Enter /home/sekinelabo/g16/l103.exe)

 GradGradGradGradGradGradGradGradGradGradGradGradGradGradGradGradGradGrad
 Berny optimization.
 Initialization pass.
 Trust Radius=3.00D-01 FncErr=1.00D-07 GrdErr=1.00D-07 EigMax=2.50D+02 EigMin=1.00D-04
 Number of steps in this run=      2 maximum allowed number of steps=      2.
 GradGradGradGradGradGradGradGradGradGradGradGradGradGradGradGradGradGrad

 Leave Link  103 at Fri Oct  6 22:04:40 2023, MaxMem=  1610612736 cpu:               0.4 elap:               0.3
 (Enter /home/sekinelabo/g16/l202.exe)
                          Input orientation:                          
 ---------------------------------------------------------------------
 Center     Atomic      Atomic             Coordinates (Angstroms)
 Number     Number       Type             X           Y           Z
 ---------------------------------------------------------------------
      1         11           0        0.000000    0.000000    0.000000
      2         11           0       -1.136834    0.000000   -5.666506
      3         11           0        0.000000    0.000000    4.826770
      4         11           0       -1.478766   -0.588801    2.708459
 ---------------------------------------------------------------------
                    Distance matrix (angstroms):
                    1          2          3          4
     1  Na   0.000000
     2  Na   5.779418   0.000000
     3  Na   4.826770  10.554678   0.000000
     4  Na   3.141526   8.402597   2.649656   0.000000
 Stoichiometry    Na4
 Framework group  C1[X(Na4)]
 Deg. of freedom     6
 Full point group                 C1      NOp   1
 Largest Abelian subgroup         C1      NOp   1
[...]
 Gap=     0.054 Goal=   None    Shift=    0.000
 RMSDP=4.00D-04 MaxDP=2.12D-02 DE=-6.57D-03 OVMax= 3.09D-02

 Cycle   4  Pass 1  IDiag  1:
 E= -649.204066563316     Delta-E=       -0.000000254363 Rises=F Damp=F
 DIIS: error= 5.27D-04 at cycle   4 NSaved=   4.
 NSaved= 4 IEnMin= 4 EnMin= -649.204066563316     IErMin= 4 ErrMin= 5.27D-04
 ErrMax= 5.27D-04  0.00D+00 EMaxC= 1.00D-01 BMatC= 3.10D-05 BMatP= 5.30D-05
 IDIUse=3 WtCom= 9.95D-01 WtEn= 5.27D-03
 Coeff-Com: -0.207D-01 0.422D-01 0.509D+00 0.470D+00
 Coeff-En:   0.000D+00 0.000D+00 0.499D+00 0.501D+00
 Coeff:     -0.206D-01 0.419D-01 0.509D+00 0.470D+00
 Gap=     0.054 Goal=   None    Shift=    0.000
 RMSDP=2.04D-04 MaxDP=1.16D-02 DE=-2.54D-07 OVMax= 1.92D-02

 Cycle   5  Pass 1  IDiag  1:
 E= -649.204176834913     Delta-E=       -0.000110271597 Rises=F Damp=F
 DIIS: error= 4.67D-05 at cycle   5 NSaved=   5.
 NSaved= 5 IEnMin= 5 EnMin= -649.204176834913     IErMin= 5 ErrMin= 4.67D-05
 ErrMax= 4.67D-05  0.00D+00 EMaxC= 1.00D-01 BMatC= 6.33D-07 BMatP= 3.10D-05
 IDIUse=1 WtCom= 1.00D+00 WtEn= 0.00D+00
 Coeff-Com: -0.653D-02 0.126D-01 0.160D+00 0.184D+00 0.650D+00
 Coeff:     -0.653D-02 0.126D-01 0.160D+00 0.184D+00 0.650D+00
 Gap=     0.054 Goal=   None    Shift=    0.000
 RMSDP=3.73D-05 MaxDP=2.47D-03 DE=-1.10D-04 OVMax= 2.78D-03

 Cycle   6  Pass 1  IDiag  1:
 E= -649.204178983266     Delta-E=       -0.000002148353 Rises=F Damp=F
 DIIS: error= 1.91D-05 at cycle   6 NSaved=   6.
 NSaved= 6 IEnMin= 6 EnMin= -649.204178983266     IErMin= 6 ErrMin= 1.91D-05
 ErrMax= 1.91D-05  0.00D+00 EMaxC= 1.00D-01 BMatC= 9.72D-08 BMatP= 6.33D-07
 IDIUse=1 WtCom= 1.00D+00 WtEn= 0.00D+00
 Coeff-Com: -0.102D-02 0.157D-02 0.209D-01 0.352D-01 0.288D+00 0.655D+00
 Coeff:     -0.102D-02 0.157D-02 0.209D-01 0.352D-01 0.288D+00 0.655D+00
 Gap=     0.054 Goal=   None    Shift=    0.000
 RMSDP=1.48D-05 MaxDP=5.16D-04 DE=-2.15D-06 OVMax= 7.05D-04

 Cycle   7  Pass 1  IDiag  1:
 E= -649.204179210969     Delta-E=       -0.000000227703 Rises=F Damp=F
 DIIS: error= 5.74D-06 at cycle   7 NSaved=   7.
 NSaved= 7 IEnMin= 7 EnMin= -649.204179210969     IErMin= 7 ErrMin= 5.74D-06
 ErrMax= 5.74D-06  0.00D+00 EMaxC= 1.00D-01 BMatC= 2.16D-09 BMatP= 9.72D-08
 IDIUse=1 WtCom= 1.00D+00 WtEn= 0.00D+00
 Coeff-Com:  0.193D-03-0.443D-03-0.857D-02-0.897D-02-0.243D-01 0.466D-01
 Coeff-Com:  0.996D+00
 Coeff:      0.193D-03-0.443D-03-0.857D-02-0.897D-02-0.243D-01 0.466D-01
 Coeff:      0.996D+00
 Gap=     0.054 Goal=   None    Shift=    0.000
 RMSDP=5.65D-06 MaxDP=1.45D-04 DE=-2.28D-07 OVMax= 2.46D-04

 Cycle   8  Pass 1  IDiag  1:
 E= -649.204179225402     Delta-E=       -0.000000014433 Rises=F Damp=F
 DIIS: error= 2.60D-06 at cycle   8 NSaved=   8.
 NSaved= 8 IEnMin= 8 EnMin= -649.204179225402     IErMin= 8 ErrMin= 2.60D-06
 ErrMax= 2.60D-06  0.00D+00 EMaxC= 1.00D-01 BMatC= 3.68D-10 BMatP= 2.16D-09
 IDIUse=1 WtCom= 1.00D+00 WtEn= 0.00D+00
 Coeff-Com:  0.130D-03-0.260D-03-0.301D-02-0.410D-02-0.250D-01-0.369D-01
 Coeff-Com:  0.295D+00 0.774D+00
 Coeff:      0.130D-03-0.260D-03-0.301D-02-0.410D-02-0.250D-01-0.369D-01
 Coeff:      0.295D+00 0.774D+00
 Gap=     0.054 Goal=   None    Shift=    0.000
 RMSDP=1.49D-06 MaxDP=3.82D-05 DE=-1.44D-08 OVMax= 7.30D-05

 Cycle   9  Pass 1  IDiag  1:
 E= -649.204179227169     Delta-E=       -0.000000001766 Rises=F Damp=F
 DIIS: error= 6.29D-07 at cycle   9 NSaved=   9.
 NSaved= 9 IEnMin= 9 EnMin= -649.204179227169     IErMin= 9 ErrMin= 6.29D-07
 ErrMax= 6.29D-07  0.00D+00 EMaxC= 1.00D-01 BMatC= 1.83D-11 BMatP= 3.68D-10
 IDIUse=1 WtCom= 1.00D+00 WtEn= 0.00D+00
 Coeff-Com:  0.199D-04-0.355D-04-0.302D-05-0.228D-03-0.437D-02-0.707D-02
 Coeff-Com: -0.196D-01 0.160D+00 0.871D+00
 Coeff:      0.199D-04-0.355D-04-0.302D-05-0.228D-03-0.437D-02-0.707D-02
 Coeff:     -0.196D-01 0.160D+00 0.871D+00
 Gap=     0.054 Goal=   None    Shift=    0.000
 RMSDP=4.42D-07 MaxDP=1.29D-05 DE=-1.77D-09 OVMax= 2.21D-05

 Cycle  10  Pass 1  IDiag  1:
 E= -649.204179227308     Delta-E=       -0.000000000139 Rises=F Damp=F
 DIIS: error= 8.75D-08 at cycle  10 NSaved=  10.
 NSaved=10 IEnMin=10 EnMin= -649.204179227308     IErMin=10 ErrMin= 8.75D-08
 ErrMax= 8.75D-08  0.00D+00 EMaxC= 1.00D-01 BMatC= 1.12D-12 BMatP= 1.83D-11
 IDIUse=1 WtCom= 1.00D+00 WtEn= 0.00D+00
 Coeff-Com: -0.662D-06 0.256D-05 0.142D-03 0.138D-03 0.157D-03-0.602D-03
 Coeff-Com: -0.222D-01 0.107D-01 0.255D+00 0.757D+00
 Coeff:     -0.662D-06 0.256D-05 0.142D-03 0.138D-03 0.157D-03-0.602D-03
 Coeff:     -0.222D-01 0.107D-01 0.255D+00 0.757D+00
 Gap=     0.054 Goal=   None    Shift=    0.000
 RMSDP=1.20D-07 MaxDP=2.63D-06 DE=-1.39D-10 OVMax= 5.67D-06

 Cycle  11  Pass 1  IDiag  1:
 E= -649.204179227316     Delta-E=       -0.000000000008 Rises=F Damp=F
 DIIS: error= 2.43D-08 at cycle  11 NSaved=  11.
 NSaved=11 IEnMin=11 EnMin= -649.204179227316     IErMin=11 ErrMin= 2.43D-08
 ErrMax= 2.43D-08  0.00D+00 EMaxC= 1.00D-01 BMatC= 1.53D-13 BMatP= 1.12D-12
 IDIUse=1 WtCom= 1.00D+00 WtEn= 0.00D+00
 Coeff-Com: -0.447D-05 0.852D-05 0.411D-04 0.915D-04 0.101D-02 0.139D-02
 Coeff-Com: -0.496D-02-0.276D-01-0.787D-01 0.204D+00 0.905D+00
 Coeff:     -0.447D-05 0.852D-05 0.411D-04 0.915D-04 0.101D-02 0.139D-02
 Coeff:     -0.496D-02-0.276D-01-0.787D-01 0.204D+00 0.905D+00
 Gap=     0.054 Goal=   None    Shift=    0.000
 RMSDP=5.19D-08 MaxDP=1.17D-06 DE=-7.73D-12 OVMax= 2.28D-06

 Cycle  12  Pass 1  IDiag  1:
 E= -649.204179227316     Delta-E=       -0.000000000000 Rises=F Damp=F
 DIIS: error= 6.11D-09 at cycle  12 NSaved=  12.
 NSaved=12 IEnMin=12 EnMin= -649.204179227316     IErMin=12 ErrMin= 6.11D-09
 ErrMax= 6.11D-09  0.00D+00 EMaxC= 1.00D-01 BMatC= 9.30D-15 BMatP= 1.53D-13
 IDIUse=1 WtCom= 1.00D+00 WtEn= 0.00D+00
 Coeff-Com: -0.125D-05 0.230D-05 0.573D-05 0.209D-04 0.268D-03 0.382D-03
 Coeff-Com: -0.115D-03-0.713D-02-0.306D-01 0.226D-01 0.286D+00 0.729D+00
 Coeff:     -0.125D-05 0.230D-05 0.573D-05 0.209D-04 0.268D-03 0.382D-03
 Coeff:     -0.115D-03-0.713D-02-0.306D-01 0.226D-01 0.286D+00 0.729D+00
 Gap=     0.054 Goal=   None    Shift=    0.000
 RMSDP=3.92D-09 MaxDP=1.25D-07 DE=-3.41D-13 OVMax= 2.18D-07

 SCF Done:  E(RB3LYP) =  -649.204179227     A.U. after   12 cycles
            NFock= 12  Conv=0.39D-08     -V/T= 2.0028
 KE= 6.473669276487D+02 PE=-1.756685429620D+03 EE= 3.615415443402D+02
 Leave Link  502 at Sat Oct  7 02:11:39 2023, MaxMem=  1610612736 cpu:             117.4 elap:              36.7
 (Enter /home/sekinelabo/g16/l601.exe)
 Copying SCF densities to generalized density rwf, IOpCl= 0 IROHF=0.

 **********************************************************************

            Population analysis using the SCF Density.

 **********************************************************************

 Orbital symmetries:
       Occupied  (A) (A) (A) (A) (A) (A) (A) (A) (A) (A) (A) (A)
                 (A) (A) (A) (A) (A) (A) (A) (A) (A) (A)
       Virtual   (A) (A) (A) (A) (A) (A) (A) (A) (A) (A) (A) (A)
                 (A) (A) (A) (A) (A) (A) (A) (A) (A) (A) (A) (A)
                 (A) (A) (A) (A) (A) (A) (A) (A) (A) (A) (A) (A)
                 (A) (A) (A) (A) (A) (A) (A) (A) (A) (A) (A) (A)
                 (A) (A) (A) (A) (A) (A) (A) (A) (A) (A) (A) (A)
                 (A) (A) (A) (A) (A) (A) (A) (A) (A) (A) (A) (A)
                 (A) (A) (A) (A) (A) (A) (A) (A) (A) (A) (A) (A)
                 (A) (A) (A) (A) (A) (A) (A) (A) (A) (A) (A) (A)
                 (A) (A)
 The electronic state is 1-A.
 Alpha  occ. eigenvalues --  -38.45053 -38.44156 -38.44009 -38.43126  -2.20907
 Alpha  occ. eigenvalues --   -2.19970  -2.19838  -2.18889  -1.14609  -1.14572
 Alpha  occ. eigenvalues --   -1.14535  -1.13670  -1.13644  -1.13570  -1.13512
 Alpha  occ. eigenvalues --   -1.13484  -1.13474  -1.12560  -1.12558  -1.12523
 Alpha  occ. eigenvalues --   -0.15432  -0.11221
 Alpha virt. eigenvalues --   -0.05811  -0.05623  -0.03239  -0.02088  -0.01713
 Alpha virt. eigenvalues --   -0.00953  -0.00608   0.00093   0.00271   0.00514
 Alpha virt. eigenvalues --    0.00750   0.00969   0.01037   0.01414   0.01545
 Alpha virt. eigenvalues --    0.01714   0.01779   0.01969   0.02090   0.02209
 Alpha virt. eigenvalues --    0.02363   0.02484   0.02578   0.03048   0.03315
 Alpha virt. eigenvalues --    0.03362   0.03936   0.04141   0.04778   0.04957
 Alpha virt. eigenvalues --    0.06528   0.06941   0.07163   0.07717   0.08064
 Alpha virt. eigenvalues --    0.08623   0.08863   0.09998   0.10062   0.10758
 Alpha virt. eigenvalues --    0.10860   0.11714   0.12222   0.13041   0.14455
 Alpha virt. eigenvalues --    0.15908   0.26569   0.28493   0.29638   0.30061
 Alpha virt. eigenvalues --    0.31272   0.32401   0.33368   0.34816   0.36318
 Alpha virt. eigenvalues --    0.36962   0.37103   0.38858   0.41798   0.42758
 Alpha virt. eigenvalues --    0.43172   0.43783   0.44024   0.44036   0.44361
 Alpha virt. eigenvalues --    0.44744   0.45648   0.45861   0.46636   0.47437
 Alpha virt. eigenvalues --    0.49546   0.50246   0.50628   0.51368   0.53315
 Alpha virt. eigenvalues --    0.58515   0.65058   0.74372   2.02923   2.09171
 Alpha virt. eigenvalues --    2.13554   2.17025   4.41251   4.42642   4.43596
 Alpha virt. eigenvalues --    4.43996   4.45152   4.45834   4.46199   4.46381
 Alpha virt. eigenvalues --    4.46997   4.53349   4.54581   4.68005  96.22157
 Alpha virt. eigenvalues --   96.29728  96.35871  96.40004
          Condensed to atoms (all electrons):
               1          2          3          4
     1  Na  10.583374   0.306626  -0.081547   0.213185
     2  Na   0.306626  10.761277  -0.141590  -0.088943
     3  Na  -0.081547  -0.141590  10.853596   0.301882
     4  Na   0.213185  -0.088943   0.301882  10.782526
 Mulliken charges:
               1
     1  Na  -0.021638
     2  Na   0.162630
     3  Na   0.067658
     4  Na  -0.208650
 Sum of Mulliken charges =  -0.00000
 Mulliken charges with hydrogens summed into heavy atoms:
               1
     1  Na  -0.021638
     2  Na   0.162630
     3  Na   0.067658
     4  Na  -0.208650
 Electronic spatial extent (au):  <R**2>=           1214.0537
 Charge=             -0.0000 electrons
 Dipole moment (field-independent basis, Debye):
    X=              1.1941    Y=              0.2421    Z=             -0.0429  Tot=              1.2191
 Quadrupole moment (field-independent basis, Debye-Ang):
   XX=            -43.4005   YY=            -33.4413   ZZ=            -40.5211
   XY=             -4.6644   XZ=              0.5927   YZ=              0.5685
 Traceless Quadrupole moment (field-independent basis, Debye-Ang):
   XX=             -4.2795   YY=              5.6797   ZZ=             -1.4001
   XY=             -4.6644   XZ=              0.5927   YZ=              0.5685
 Octapole moment (field-independent basis, Debye-Ang**2):
  XXX=              0.3196  YYY=              6.7394  ZZZ=              1.9835  XYY=             11.3179
  XXY=             -2.2349  XXZ=            -21.5336  XZZ=              5.6632  YZZ=             -0.7856
  YYZ=              6.5040  XYZ=              7.3032
 Hexadecapole moment (field-independent basis, Debye-Ang**3):
 XXXX=          -1585.2923 YYYY=           -324.0048 ZZZZ=           -243.8518 XXXY=           -104.6139
 XXXZ=             14.0428 YYYX=            -10.7326 YYYZ=              4.6615 ZZZX=              1.9729
 ZZZY=              2.3958 XXYY=           -350.0404 XXZZ=           -323.1166 YYZZ=            -94.1819
 XXYZ=              9.3765 YYXZ=              2.1461 ZZXY=             -7.5038
 N-N= 9.857277840387D+01 E-N=-1.756685430404D+03  KE= 6.473669276487D+02
 No NMR shielding tensors so no spin-rotation constants.
 Leave Link  601 at Sat Oct  7 02:11:41 2023, MaxMem=  1610612736 cpu:               7.5 elap:               2.3
 (Enter /home/sekinelabo/g16/l701.exe)
 ... and contract with generalized density number  0.
 Compute integral first derivatives.
 Leave Link  701 at Sat Oct  7 02:11:43 2023, MaxMem=  1610612736 cpu:               7.1 elap:               2.1
 (Enter /home/sekinelabo/g16/l702.exe)
 L702 exits ... SP integral derivatives will be done elsewhere.
 Leave Link  702 at Sat Oct  7 02:11:43 2023, MaxMem=  1610612736 cpu:               0.6 elap:               0.2
 (Enter /home/sekinelabo/g16/l703.exe)
 Integral derivatives from FoFJK, PRISM(SPDF).
 Compute integral first derivatives, UseDBF=F ICtDFT=           0.
 Calling FoFJK, ICntrl=      2127 FMM=F ISym2X=0 I1Cent= 0 IOpClX= 0 NMat=1 NMatS=1 NMatT=0.
 FoFJK:  IHMeth= 1 ICntrl=    2127 DoSepK=F KAlg= 0 I1Cent=           0 FoldK=F
 IRaf=         0 NMat=       1 IRICut=       1 DoRegI=T DoRafI=F ISym2E= 0 IDoP0=0 IntGTp=1.
 FoFCou: FMM=F IPFlag=           0 FMFlag=      100000 FMFlg1=         800
         NFxFlg=           0 DoJE=F BraDBF=F KetDBF=F FulRan=T
         wScrn=  0.000000 ICntrl=      2127 IOpCl=  0 I1Cent=           0 NGrid=           0
         NMat0=    1 NMatS0=      1 NMatT0=    0 NMatD0=    1 NMtDS0=    0 NMtDT0=    0
 Symmetry not used in FoFCou.
 Leave Link  703 at Sat Oct  7 02:11:46 2023, MaxMem=  1610612736 cpu:              12.2 elap:               3.0
 (Enter /home/sekinelabo/g16/l716.exe)
 Dipole        = 4.69784914D-01 9.52448812D-02-1.68801682D-02
 ***** Axes restored to original set *****
 -------------------------------------------------------------------
 Center     Atomic                   Forces (Hartrees/Bohr)
 Number     Number              X              Y              Z
 -------------------------------------------------------------------
      1       11           0.003849041    0.000727541    0.001416503
      2       11          -0.003910684   -0.000415795   -0.002472110
      3       11          -0.001041385   -0.002382422   -0.002623507
      4       11           0.001103028    0.002070676    0.003679114
 -------------------------------------------------------------------
 Cartesian Forces:  Max     0.003910684 RMS     0.002442881
 Z-matrix is all fixed cartesians, so copy forces.
 Force constants in Cartesian coordinates: 
                1             2             3             4             5 
      1  0.572523D-01
      2  0.115561D-01  0.125595D-01
      3  0.497458D-02 -0.113395D-01  0.279996D-01
      4 -0.422960D-01  0.115086D-02 -0.169580D-01  0.435251D-01
      5 -0.673260D-02 -0.295843D-02  0.289871D-02  0.131066D-02  0.893168D-02
      6 -0.376814D-02  0.565570D-02 -0.109786D-01  0.156738D-01 -0.752968D-02
      7  0.142519D-02  0.170238D-02  0.207945D-02 -0.115278D-03 -0.588810D-03
      8  0.159840D-02  0.214461D-02  0.249979D-02  0.136147D-02  0.410444D-02
      9 -0.192724D-02 -0.246315D-02 -0.292671D-02 -0.864501D-03 -0.246516D-02
     10 -0.163814D-01 -0.144093D-01  0.990402D-02 -0.111377D-02  0.601075D-02
     11 -0.642190D-02 -0.117456D-01  0.594098D-02 -0.382299D-02 -0.100777D-01
     12  0.720802D-03  0.814694D-02 -0.140942D-01  0.214879D-02  0.709613D-02
                6             7             8             9            10 
      6  0.213310D-01
      7 -0.253938D-03  0.559471D-02
      8  0.155947D-02  0.574227D-02  0.120524D-01
      9 -0.918963D-03  0.519266D-02  0.290448D-02  0.161765D-01
     10 -0.116517D-01 -0.690461D-02 -0.870215D-02 -0.240091D-02  0.243998D-01
     11  0.314512D-03 -0.685584D-02 -0.183014D-01  0.202383D-02  0.171007D-01
     12 -0.943337D-02 -0.701817D-02 -0.696374D-02 -0.123308D-01  0.414858D-02
               11            12 
     11  0.401248D-01
     12 -0.827933D-02  0.358584D-01
 Leave Link  716 at Sat Oct  7 02:11:46 2023, MaxMem=  1610612736 cpu:               0.7 elap:               0.2
 (Enter /home/sekinelabo/g16/l103.exe)

 GradGradGradGradGradGradGradGradGradGradGradGradGradGradGradGradGradGrad
 Berny optimization.
 Search for a local minimum.
 Step number   1 out of a maximum of    2
 All quantities printed in internal units (Hartrees-Bohrs-Radians)
 Second derivative matrix not updated -- first step.
 The second derivative matrix:
                          X1        Y1        Z1        X2        Y2
           X1           0.05725
           Y1           0.01156   0.01256
           Z1           0.00497  -0.01134   0.02800
           X2          -0.04230   0.00115  -0.01696   0.04353
           Y2          -0.00673  -0.00296   0.00290   0.00131   0.00893
           Z2          -0.00377   0.00566  -0.01098   0.01567  -0.00753
           X3           0.00143   0.00170   0.00208  -0.00012  -0.00059
           Y3           0.00160   0.00214   0.00250   0.00136   0.00410
           Z3          -0.00193  -0.00246  -0.00293  -0.00086  -0.00247
           X4          -0.01638  -0.01441   0.00990  -0.00111   0.00601
           Y4          -0.00642  -0.01175   0.00594  -0.00382  -0.01008
           Z4           0.00072   0.00815  -0.01409   0.00215   0.00710
                          Z2        X3        Y3        Z3        X4
           Z2           0.02133
           X3          -0.00025   0.00559
           Y3           0.00156   0.00574   0.01205
           Z3          -0.00092   0.00519   0.00290   0.01618
           X4          -0.01165  -0.00690  -0.00870  -0.00240   0.02440
           Y4           0.00031  -0.00686  -0.01830   0.00202   0.01710
           Z4          -0.00943  -0.00702  -0.00696  -0.01233   0.00415
                          Y4        Z4
           Y4           0.04012
           Z4          -0.00828   0.03586
 ITU=  0
     Eigenvalues ---    0.00656   0.01860   0.04449   0.05540   0.07891
     Eigenvalues ---    0.10122
 Angle between quadratic step and forces=  50.26 degrees.
 Linear search not attempted -- first point.
 B after Tr=     0.000000    0.000000    0.000000
         Rot=    1.000000    0.000000   -0.000000    0.000000 Ang=   0.00 deg.
 Variable       Old X    -DE/DX   Delta X   Delta X   Delta X     New X
                                 (Linear)    (Quad)   (Total)
    X1       -0.00000   0.00385   0.00000   0.01298   0.01298   0.01298
    Y1       -0.00000   0.00073   0.00000   0.07947   0.07947   0.07947
    Z1        0.00000   0.00142   0.00000   0.09136   0.09136   0.09136
    X2       -5.22153  -0.00391   0.00000  -0.00821  -0.00821  -5.22974
    Y2       -0.00000  -0.00042   0.00000  -0.06683  -0.06683  -0.06683
    Z2       -1.87592  -0.00247   0.00000  -0.09086  -0.09086  -1.96677
    X3       -0.00000  -0.00104   0.00000   0.04637   0.04637   0.04637
    Y3        0.00000  -0.00238   0.00000  -0.07808  -0.07808  -0.07808
    Z3        9.34089  -0.00262   0.00000  -0.09387  -0.09387   9.24702
    X4       -2.78464   0.00110   0.00000  -0.05114  -0.05114  -2.83578
    Y4       -3.26033   0.00207   0.00000   0.06544   0.06544  -3.19489
    Z4        4.57762   0.00368   0.00000   0.09337   0.09337   4.67099
         Item               Value     Threshold  Converged?
 Maximum Force            0.003911     0.000450     NO 
 RMS     Force            0.002443     0.000300     NO 
 Maximum Displacement     0.093868     0.001800     NO 
 RMS     Displacement     0.070883     0.001200     NO 
 Predicted change in Energy=-6.641553D-04
 GradGradGradGradGradGradGradGradGradGradGradGradGradGradGradGradGradGrad

 Leave Link  103 at Sat Oct  7 02:11:47 2023, MaxMem=  1610612736 cpu:               3.3 elap:               0.8
 (Enter /home/sekinelabo/g16/l9999.exe)
 1\1\GINC-SEKINELABO-XA7R-R37\Force\RB3LYP\6-311+G(d)\Na4\SEKINELABO\07
 -Oct-2023\0\\#p B3LYP/6-311+g(d) force\\\0,1\Na,0.,0.,0.\Na,-2.7631140
 5,0.,-0.9926920881\Na,0.,0.,4.9429854508\Na,-1.4735694486,-1.725294727
 3,2.4223742185\\Version=ES64L-G16RevB.01\State=1-A\HF=-649.2041792\RMS
 D=3.919e-09\RMSF=2.443e-03\Dipole=-0.076723,0.0891693,-0.4649912\Quadr
 upole=4.2755746,-0.2443972,-4.0311774,2.6184516,0.4711183,1.5951758\PG
 =C01 [X(Na4)]\\@


 AN OPTIMIST IS A GUY
 THAT HAS NEVER HAD
 MUCH EXPERIENCE
   (CERTAIN MAXIMS OF ARCHY  -- DON MARQUIS)
 Job cpu time:       0 days  0 hours  3 minutes  8.4 seconds.
 Elapsed time:       0 days  0 hours  0 minutes 57.8 seconds.
 File lengths (MBytes):  RWF=     10 Int=      0 D2E=      0 Chk=      2 Scr=      1
 Normal termination of Gaussian 16 at Sat Oct  7 02:11:48 2023.
