 Entering Gaussian System, Link 0=g16
 Initial command:
 /home/sekinelabo/g16/l1.exe "/home/sekinelabo/g16temp/Gau-8194.inp" -scrdir="/home/sekinelabo/g16temp/"
 Entering Link 1 = /home/sekinelabo/g16/l1.exe PID=      8233.
  
 Copyright (c) 1988-2017, Gaussian, Inc.  All Rights Reserved.
  
 This is part of the Gaussian(R) 16 program.  It is based on
 the Gaussian(R) 09 system (copyright 2009, Gaussian, Inc.),
 the Gaussian(R) 03 system (copyright 2003, Gaussian, Inc.),
 the Gaussian(R) 98 system (copyright 1998, Gaussian, Inc.),
 the Gaussian(R) 94 system (copyright 1995, Gaussian, Inc.),
 the Gaussian 92(TM) system (copyright 1992, Gaussian, Inc.),
 the Gaussian 90(TM) system (copyright 1990, Gaussian, Inc.),
 the Gaussian 88(TM) system (copyright 1988, Gaussian, Inc.),
 the Gaussian 86(TM) system (copyright 1986, Carnegie Mellon
 University), and the Gaussian 82(TM) system (copyright 1983,
 Carnegie Mellon University). Gaussian is a federally registered
 trademark of Gaussian, Inc.
  
 This software contains proprietary and confidential information,
 including trade secrets, belonging to Gaussian, Inc.
  
 This software is provided under written license and may be
 used, copied, transmitted, or stored only in accord with that
 written license.
  
 The following legend is applicable only to US Government
 contracts under FAR:
  
                    RESTRICTED RIGHTS LEGEND
  
 Use, reproduction and disclosure by the US Government is
 subject to restrictions as set forth in subparagraphs (a)
 and (c) of the Commercial Computer Software - Restricted
 Rights clause in FAR 52.227-19.
  
 Gaussian, Inc.
 340 Quinnipiac St., Bldg. 40, Wallingford CT 06492
  
  
 ---------------------------------------------------------------
 Warning -- This program may not be used in any manner that
 competes with the business of Gaussian, Inc. or will provide
 assistance to any competitor of Gaussian, Inc.  The licensee
 of this program is prohibited from giving any competitor of
 Gaussian, Inc. access to this program.  By using this program,
 the user acknowledges that Gaussian, Inc. is engaged in the
 business of creating and licensing software in the field of
 computational chemistry and represents and warrants to the
 licensee that it is not a competitor of Gaussian, Inc. and that
 it will not use this program in any manner prohibited above.
 ---------------------------------------------------------------
  

 Cite this work as:
 Gaussian 16, Revision B.01,
 M. J. Frisch, G. W. Trucks, H. B. Schlegel, G. E. Scuseria, 
 M. A. Robb, J. R. Cheeseman, G. Scalmani, V. Barone, 
 G. A. Petersson, H. Nakatsuji, X. Li, M. Caricato, A. V. Marenich, 
 J. Bloino, B. G. Janesko, R. Gomperts, B. Mennucci, H. P. Hratchian, 
 J. V. Ortiz, A. F. Izmaylov, J. L. Sonnenberg, D. Williams-Young, 
 F. Ding, F. Lipparini, F. Egidi, J. Goings, B. Peng, A. Petrone, 
 T. Henderson, D. Ranasinghe, V. G. Zakrzewski, J. Gao, N. Rega, 
 G. Zheng, W. Liang, M. Hada, M. Ehara, K. Toyota, R. Fukuda, 
 J. Hasegawa, M. Ishida, T. Nakajima, Y. Honda, O. Kitao, H. Nakai, 
 T. Vreven, K. Throssell, J. A. Montgomery, Jr., J. E. Peralta, 
 F. Ogliaro, M. J. Bearpark, J. J. Heyd, E. N. Brothers, K. N. Kudin, 
 V. N. Staroverov, T. A. Keith, R. Kobayashi, J. Normand, 
 K. Raghavachari, A. P. Rendell, J. C. Burant, S. S. Iyengar, 
 J. Tomasi, M. Cossi, J. M. Millam, M. Klene, C. Adamo, R. Cammi, 
 J. W. Ochterski, R. L. Martin, K. Morokuma, O. Farkas, 
 J. B. Foresman, and D. J. Fox, Gaussian, Inc., Wallingford CT, 2016.
 
 ******************************************
 Gaussian 16:  ES64L-G16RevB.01 20-Dec-2017
                 4-Oct-2023 
 ******************************************
 %NProcShared=16
 Will use up to   16 processors via shared memory.
 %mem=12GB
 %Chk=checkpoint.chk
 -------------------------
 #p B3LYP/6-311+g(d) force
 -------------------------
 1/10=7,30=1,38=1/1,3;
 2/12=2,17=6,18=5,40=1/2;
 3/5=4,6=6,7=11,11=2,25=1,30=1,71=1,74=-5/1,2,3;
 4//1;
 5/5=2,38=5/2;
 6/7=2,8=2,9=2,10=2,28=1/1;
 7/29=1/1,2,3,16;
 1/10=7,30=1/3;
 99//99;
 Leave Link    1 at Wed Oct  4 14:11:22 2023, MaxMem=  1610612736 cpu:               0.5 elap:               0.3
 (Enter /home/sekinelabo/g16/l101.exe)


 Symbolic Z-matrix:
 Charge =  0 Multiplicity = 1
 Na                    0.        0.        0. 
 Na                   -3.53096   0.        3.0134 
 Na                    0.        0.        2.96163 
 Na                    1.36984  -1.33849   6.19957 
 
 ITRead=  0  0  0  0
 MicOpt= -1 -1 -1 -1
 NAtoms=      4 NQM=        4 NQMF=       0 NMMI=      0 NMMIF=      0
                NMic=       0 NMicF=      0.
                    Isotopes and Nuclear Properties:
 (Nuclear quadrupole moments (NQMom) in fm**2, nuclear magnetic moments (NMagM)
  in nuclear magnetons)

  Atom         1           2           3           4
 IAtWgt=          23          23          23          23
 AtmWgt=  22.9897697  22.9897697  22.9897697  22.9897697
 NucSpn=           3           3           3           3
 AtZEff=  -0.0000000  -0.0000000  -0.0000000  -0.0000000
 NQMom=   10.4000000  10.4000000  10.4000000  10.4000000
 NMagM=    2.2175200   2.2175200   2.2175200   2.2175200
 AtZNuc=  11.0000000  11.0000000  11.0000000  11.0000000
 Leave Link  101 at Wed Oct  4 14:11:23 2023, MaxMem=  1610612736 cpu:               2.0 elap:               1.1
 (Enter /home/sekinelabo/g16/l103.exe)

 GradGradGradGradGradGradGradGradGradGradGradGradGradGradGradGradGradGrad
 Berny optimization.
 Initialization pass.
 Trust Radius=3.00D-01 FncErr=1.00D-07 GrdErr=1.00D-07 EigMax=2.50D+02 EigMin=1.00D-04
 Number of steps in this run=      2 maximum allowed number of steps=      2.
 GradGradGradGradGradGradGradGradGradGradGradGradGradGradGradGradGradGrad

 Leave Link  103 at Wed Oct  4 14:11:23 2023, MaxMem=  1610612736 cpu:               0.5 elap:               0.3
 (Enter /home/sekinelabo/g16/l202.exe)
                          Input orientation:                          
 ---------------------------------------------------------------------
 Center     Atomic      Atomic             Coordinates (Angstroms)
 Number     Number       Type             X           Y           Z
 ---------------------------------------------------------------------
      1         11           0        0.000000    0.000000    0.000000
      2         11           0       -3.530956    0.000000    3.013397
      3         11           0        0.000000    0.000000    2.961631
      4         11           0        1.369837   -1.338490    6.199571
 ---------------------------------------------------------------------
                    Distance matrix (angstroms):
                    1          2          3          4
     1  Na   0.000000
     2  Na   4.642005   0.000000
     3  Na   2.961631   3.531335   0.000000
     4  Na   6.488658   5.996752   3.761949   0.000000
 Stoichiometry    Na4
 Framework group  C1[X(Na4)]
 Deg. of freedom     6
 Full point group                 C1      NOp   1
 Largest Abelian subgroup         C1      NOp   1
 Largest concise Abelian subgroup C1      NOp   1
                         Standard orientation:                         
 ---------------------------------------------------------------------
 Center     Atomic      Atomic             Coordinates (Angstroms)
 Number     Number       Type             X           Y           Z
 ---------------------------------------------------------------------
      1         11           0        2.441843   -1.917170   -0.171863
      2         11           0        1.475959    2.621938   -0.063378
      3         11           0       -0.102630   -0.505652    0.379980
      4         11           0       -3.815172   -0.199116   -0.144739
 ---------------------------------------------------------------------
 Rotational constants (GHZ):           1.9904144           0.9596948           0.6551745
 Leave Link  202 at Wed Oct  4 14:11:24 2023, MaxMem=  1610612736 cpu:               0.9 elap:               0.6
 (Enter /home/sekinelabo/g16/l301.exe)
 Standard basis: 6-311+G(d) (5D, 7F)
 Ernie: Thresh=  0.10000D-02 Tol=  0.10000D-05 Strict=F.
 There are   124 symmetry adapted cartesian basis functions of A   symmetry.
 There are   120 symmetry adapted basis functions of A   symmetry.
   120 basis functions,   200 primitive gaussians,   124 cartesian basis functions
    22 alpha electrons       22 beta electrons
       nuclear repulsion energy        91.1118987410 Hartrees.
 IExCor=  402 DFT=T Ex+Corr=B3LYP ExCW=0 ScaHFX=  0.200000
 ScaDFX=  0.800000  0.720000  1.000000  0.810000 ScalE2=  1.000000  1.000000
 IRadAn=      5 IRanWt=     -1 IRanGd=            0 ICorTp=0 IEmpDi=  4
 NAtoms=    4 NActive=    4 NUniq=    4 SFac= 1.00D+00 NAtFMM=   60 NAOKFM=F Big=F
 Integral buffers will be    131072 words long.
 Raffenetti 2 integral format.
 Two-electron integral symmetry is turned on.
 Leave Link  301 at Wed Oct  4 14:11:24 2023, MaxMem=  1610612736 cpu:               0.7 elap:               0.4
 (Enter /home/sekinelabo/g16/l302.exe)
 NPDir=0 NMtPBC=     1 NCelOv=     1 NCel=       1 NClECP=     1 NCelD=      1
         NCelK=      1 NCelE2=     1 NClLst=     1 CellRange=     0.0.
 One-electron integrals computed using PRISM.
 One-electron integral symmetry used in STVInt
 NBasis=   120 RedAO= T EigKep=  3.10D-05  NBF=   120
 NBsUse=   120 1.00D-06 EigRej= -1.00D+00 NBFU=   120
 Precomputing XC quadrature grid using
 IXCGrd= 4 IRadAn=           5 IRanWt=          -1 IRanGd=           0 AccXCQ= 0.00D+00.
 Generated NRdTot=       0 NPtTot=           0 NUsed=           0 NTot=          32
 NSgBfM=   118   118   118   118   118 MxSgAt=     4 MxSgA2=     4.
 Leave Link  302 at Wed Oct  4 14:11:36 2023, MaxMem=  1610612736 cpu:              20.0 elap:              11.4
 (Enter /home/sekinelabo/g16/l303.exe)
 DipDrv:  MaxL=1.
 Leave Link  303 at Wed Oct  4 14:11:37 2023, MaxMem=  1610612736 cpu:               2.6 elap:               1.5
 (Enter /home/sekinelabo/g16/l401.exe)
 ExpMin= 7.60D-03 ExpMax= 3.62D+04 ExpMxC= 1.21D+03 IAcc=3 IRadAn=         5 AccDes= 0.00D+00
 Harris functional with IExCor=  402 and IRadAn=       5 diagonalized for initial guess.
 HarFok:  IExCor=  402 AccDes= 0.00D+00 IRadAn=         5 IDoV= 1 UseB2=F ITyADJ=14
 ICtDFT=  3500011 ScaDFX=  1.000000  1.000000  1.000000  1.000000
 FoFCou: FMM=F IPFlag=           0 FMFlag=      100000 FMFlg1=           0
         NFxFlg=           0 DoJE=T BraDBF=F KetDBF=T FulRan=T
         wScrn=  0.000000 ICntrl=       500 IOpCl=  0 I1Cent=   200000004 NGrid=           0
         NMat0=    1 NMatS0=      1 NMatT0=    0 NMatD0=    1 NMtDS0=    0 NMtDT0=    0
 Petite list used in FoFCou.
 Harris En= -649.058174073433    
 JPrj=0 DoOrth=F DoCkMO=F.
 Leave Link  401 at Wed Oct  4 14:11:45 2023, MaxMem=  1610612736 cpu:              14.7 elap:               8.1
 (Enter /home/sekinelabo/g16/l502.exe)
 Keep R1 ints in memory in canonical form, NReq=41581770.
 FoFCou: FMM=F IPFlag=           0 FMFlag=           0 FMFlg1=           0
         NFxFlg=           0 DoJE=F BraDBF=F KetDBF=F FulRan=T
         wScrn=  0.000000 ICntrl=       600 IOpCl=  0 I1Cent=           0 NGrid=           0
         NMat0=    1 NMatS0=   7260 NMatT0=    0 NMatD0=    1 NMtDS0=    0 NMtDT0=    0
 Symmetry not used in FoFCou.
 Two-electron integral symmetry not used.
 Closed shell SCF:
 Using DIIS extrapolation, IDIIS=  1040.
 NGot=  1610612736 LenX=  1584221372 LenY=  1584205555
 Requested convergence on RMS density matrix=1.00D-08 within 128 cycles.
 Requested convergence on MAX density matrix=1.00D-06.
 Requested convergence on             energy=1.00D-06.
 No special actions if energy rises.

 Cycle   1  Pass 1  IDiag  1:
 E= -649.146242871871    
 DIIS: error= 1.23D-02 at cycle   1 NSaved=   1.
 NSaved= 1 IEnMin= 1 EnMin= -649.146242871871     IErMin= 1 ErrMin= 1.23D-02
 ErrMax= 1.23D-02  0.00D+00 EMaxC= 1.00D-01 BMatC= 2.80D-02 BMatP= 2.80D-02
 IDIUse=3 WtCom= 8.77D-01 WtEn= 1.23D-01
 Coeff-Com:  0.100D+01
 Coeff-En:   0.100D+01
 Coeff:      0.100D+01
 Gap=    -0.035 Goal=   None    Shift=    0.000
 GapD=   -0.035 DampG=0.250 DampE=0.500 DampFc=0.2500 IDamp=-1.
 Damping current iteration by 2.50D-01
 RMSDP=1.43D-02 MaxDP=7.05D-01              OVMax= 9.60D-01

 Cycle   2  Pass 1  IDiag  1:
 E= -649.159297195159     Delta-E=       -0.013054323288 Rises=F Damp=T
 DIIS: error= 8.50D-03 at cycle   2 NSaved=   2.
 NSaved= 2 IEnMin= 2 EnMin= -649.159297195159     IErMin= 2 ErrMin= 8.50D-03
 ErrMax= 8.50D-03  0.00D+00 EMaxC= 1.00D-01 BMatC= 1.00D-02 BMatP= 2.80D-02
 IDIUse=3 WtCom= 9.15D-01 WtEn= 8.50D-02
 Coeff-Com: -0.890D+00 0.189D+01
 Coeff-En:   0.141D+00 0.859D+00
 Coeff:     -0.803D+00 0.180D+01
 Gap=    -0.019 Goal=   None    Shift=    0.000
 RMSDP=4.70D-03 MaxDP=2.46D-01 DE=-1.31D-02 OVMax= 7.37D-01

 Cycle   3  Pass 1  IDiag  1:
 E= -649.114939648231     Delta-E=        0.044357546928 Rises=F Damp=F
 DIIS: error= 1.15D-02 at cycle   3 NSaved=   3.
 NSaved= 3 IEnMin= 2 EnMin= -649.159297195159     IErMin= 2 ErrMin= 8.50D-03
 ErrMax= 1.15D-02  0.00D+00 EMaxC= 1.00D-01 BMatC= 8.59D-03 BMatP= 1.00D-02
 IDIUse=3 WtCom= 8.85D-01 WtEn= 1.15D-01
 Rare condition: small coef for last iteration:  0.000D+00
 Coeff-Com: -0.673D+00 0.125D+01 0.427D+00
 Coeff-En:   0.581D-01 0.885D+00 0.570D-01
 Coeff:     -0.673D+00 0.125D+01 0.427D+00
 Gap=     0.021 Goal=   None    Shift=    0.000
 RMSDP=4.06D-03 MaxDP=2.82D-01 DE= 4.44D-02 OVMax= 2.76D-01

 Cycle   4  Pass 1  IDiag  1:
 E= -649.168557138623     Delta-E=       -0.053617490392 Rises=F Damp=F
 DIIS: error= 3.34D-03 at cycle   4 NSaved=   4.
 NSaved= 4 IEnMin= 4 EnMin= -649.168557138623     IErMin= 4 ErrMin= 3.34D-03
 ErrMax= 3.34D-03  0.00D+00 EMaxC= 1.00D-01 BMatC= 9.57D-04 BMatP= 8.59D-03
 IDIUse=3 WtCom= 9.67D-01 WtEn= 3.34D-02
 Coeff-Com: -0.385D+00 0.577D+00 0.196D-02 0.806D+00
 Coeff-En:   0.000D+00 0.000D+00 0.000D+00 0.100D+01
 Coeff:     -0.372D+00 0.558D+00 0.189D-02 0.812D+00
 Gap=     0.003 Goal=   None    Shift=    0.000
 RMSDP=2.79D-03 MaxDP=7.99D-02 DE=-5.36D-02 OVMax= 2.31D-01

 Cycle   5  Pass 1  IDiag  1:
 E= -649.176890094174     Delta-E=       -0.008332955551 Rises=F Damp=F
 DIIS: error= 8.38D-04 at cycle   5 NSaved=   5.
 NSaved= 5 IEnMin= 5 EnMin= -649.176890094174     IErMin= 5 ErrMin= 8.38D-04
 ErrMax= 8.38D-04  0.00D+00 EMaxC= 1.00D-01 BMatC= 1.08D-04 BMatP= 9.57D-04
 IDIUse=3 WtCom= 9.92D-01 WtEn= 8.38D-03
 Coeff-Com: -0.120D+00 0.166D+00 0.228D-01 0.263D+00 0.668D+00
 Coeff-En:   0.000D+00 0.000D+00 0.000D+00 0.000D+00 0.100D+01
 Coeff:     -0.119D+00 0.164D+00 0.226D-01 0.261D+00 0.671D+00
 Gap=     0.010 Goal=   None    Shift=    0.000
 RMSDP=8.62D-04 MaxDP=2.90D-02 DE=-8.33D-03 OVMax= 7.31D-02

 Cycle   6  Pass 1  IDiag  1:
 E= -649.176950194787     Delta-E=       -0.000060100613 Rises=F Damp=F
 DIIS: error= 6.09D-04 at cycle   6 NSaved=   6.
 NSaved= 6 IEnMin= 6 EnMin= -649.176950194787     IErMin= 6 ErrMin= 6.09D-04
 ErrMax= 6.09D-04  0.00D+00 EMaxC= 1.00D-01 BMatC= 3.98D-05 BMatP= 1.08D-04
 IDIUse=3 WtCom= 9.94D-01 WtEn= 6.09D-03
 Coeff-Com: -0.430D-01 0.592D-01-0.398D-02 0.357D-01 0.295D+00 0.657D+00
 Coeff-En:   0.000D+00 0.000D+00 0.000D+00 0.000D+00 0.470D+00 0.530D+00
 Coeff:     -0.428D-01 0.589D-01-0.396D-02 0.354D-01 0.296D+00 0.656D+00
 Gap=     0.012 Goal=   None    Shift=    0.000
 RMSDP=9.02D-04 MaxDP=3.65D-02 DE=-6.01D-05 OVMax= 1.04D-01

 Cycle   7  Pass 1  IDiag  1:
 E= -649.176880365684     Delta-E=        0.000069829103 Rises=F Damp=F
 DIIS: error= 7.05D-04 at cycle   7 NSaved=   7.
 NSaved= 7 IEnMin= 6 EnMin= -649.176950194787     IErMin= 6 ErrMin= 6.09D-04
 ErrMax= 7.05D-04  0.00D+00 EMaxC= 1.00D-01 BMatC= 7.36D-05 BMatP= 3.98D-05
 IDIUse=3 WtCom= 9.94D-01 WtEn= 6.09D-03
 Coeff-Com:  0.246D-02-0.296D-02 0.199D-02-0.409D-01 0.736D-01 0.613D+00
 Coeff-Com:  0.353D+00
 Coeff-En:   0.000D+00 0.000D+00 0.000D+00 0.000D+00 0.000D+00 0.525D+00
 Coeff-En:   0.475D+00
 Coeff:      0.245D-02-0.294D-02 0.198D-02-0.407D-01 0.732D-01 0.613D+00
 Coeff:      0.353D+00
 Gap=     0.013 Goal=   None    Shift=    0.000
 RMSDP=3.28D-04 MaxDP=1.66D-02 DE= 6.98D-05 OVMax= 2.85D-02

 Cycle   8  Pass 1  IDiag  1:
 E= -649.177335290756     Delta-E=       -0.000454925071 Rises=F Damp=F
 DIIS: error= 2.69D-04 at cycle   8 NSaved=   8.
 NSaved= 8 IEnMin= 8 EnMin= -649.177335290756     IErMin= 8 ErrMin= 2.69D-04
 ErrMax= 2.69D-04  0.00D+00 EMaxC= 1.00D-01 BMatC= 8.88D-06 BMatP= 3.98D-05
 IDIUse=3 WtCom= 9.97D-01 WtEn= 2.69D-03
 Coeff-Com:  0.175D-02-0.303D-02 0.298D-02 0.140D-01-0.240D-01 0.216D+00
 Coeff-Com: -0.660D-01 0.859D+00
 Coeff-En:   0.000D+00 0.000D+00 0.000D+00 0.000D+00 0.000D+00 0.177D+00
 Coeff-En:   0.000D+00 0.823D+00
 Coeff:      0.175D-02-0.303D-02 0.297D-02 0.140D-01-0.239D-01 0.216D+00
 Coeff:     -0.658D-01 0.858D+00
 Gap=     0.013 Goal=   None    Shift=    0.000
 RMSDP=6.80D-05 MaxDP=1.94D-03 DE=-4.55D-04 OVMax= 4.57D-03

 Cycle   9  Pass 1  IDiag  1:
 E= -649.177359358507     Delta-E=       -0.000024067751 Rises=F Damp=F
 DIIS: error= 2.14D-04 at cycle   9 NSaved=   9.
 NSaved= 9 IEnMin= 9 EnMin= -649.177359358507     IErMin= 9 ErrMin= 2.14D-04
 ErrMax= 2.14D-04  0.00D+00 EMaxC= 1.00D-01 BMatC= 5.43D-06 BMatP= 8.88D-06
 IDIUse=3 WtCom= 9.98D-01 WtEn= 2.14D-03
 Coeff-Com: -0.452D-03 0.901D-04 0.206D-02 0.230D-01-0.339D-01 0.755D-01
 Coeff-Com: -0.192D+00 0.235D+00 0.891D+00
 Coeff-En:   0.000D+00 0.000D+00 0.000D+00 0.000D+00 0.000D+00 0.113D+00
 Coeff-En:   0.000D+00 0.000D+00 0.887D+00
 Coeff:     -0.451D-03 0.899D-04 0.206D-02 0.230D-01-0.339D-01 0.756D-01
 Coeff:     -0.191D+00 0.235D+00 0.891D+00
 Gap=     0.013 Goal=   None    Shift=    0.000
 RMSDP=7.32D-05 MaxDP=3.47D-03 DE=-2.41D-05 OVMax= 5.78D-03

 Cycle  10  Pass 1  IDiag  1:
 E= -649.177392808677     Delta-E=       -0.000033450171 Rises=F Damp=F
 DIIS: error= 1.02D-04 at cycle  10 NSaved=  10.
 NSaved=10 IEnMin=10 EnMin= -649.177392808677     IErMin=10 ErrMin= 1.02D-04
 ErrMax= 1.02D-04  0.00D+00 EMaxC= 1.00D-01 BMatC= 1.22D-06 BMatP= 5.43D-06
 IDIUse=3 WtCom= 9.99D-01 WtEn= 1.02D-03
 Coeff-Com: -0.212D-04-0.144D-04-0.109D-03 0.462D-02-0.160D-01 0.219D-01
 Coeff-Com: -0.101D+00-0.136D+00 0.127D+00 0.110D+01
 Coeff-En:   0.000D+00 0.000D+00 0.000D+00 0.000D+00 0.000D+00 0.000D+00
 Coeff-En:   0.000D+00 0.000D+00 0.000D+00 0.100D+01
 Coeff:     -0.212D-04-0.143D-04-0.109D-03 0.461D-02-0.160D-01 0.219D-01
 Coeff:     -0.101D+00-0.135D+00 0.127D+00 0.110D+01
 Gap=     0.013 Goal=   None    Shift=    0.000
 RMSDP=4.87D-05 MaxDP=2.26D-03 DE=-3.35D-05 OVMax= 3.35D-03

 Cycle  11  Pass 1  IDiag  1:
 E= -649.177400809620     Delta-E=       -0.000008000943 Rises=F Damp=F
 DIIS: error= 3.63D-05 at cycle  11 NSaved=  11.
 NSaved=11 IEnMin=11 EnMin= -649.177400809620     IErMin=11 ErrMin= 3.63D-05
 ErrMax= 3.63D-05  0.00D+00 EMaxC= 1.00D-01 BMatC= 1.58D-07 BMatP= 1.22D-06
 IDIUse=1 WtCom= 1.00D+00 WtEn= 0.00D+00
 Coeff-Com:  0.304D-03-0.389D-03 0.311D-03-0.630D-03-0.168D-02 0.428D-02
 Coeff-Com: -0.111D-01-0.594D-01-0.145D+00 0.247D+00 0.967D+00
 Coeff:      0.304D-03-0.389D-03 0.311D-03-0.630D-03-0.168D-02 0.428D-02
 Coeff:     -0.111D-01-0.594D-01-0.145D+00 0.247D+00 0.967D+00
 Gap=     0.013 Goal=   None    Shift=    0.000
 RMSDP=1.90D-05 MaxDP=8.94D-04 DE=-8.00D-06 OVMax= 1.41D-03

 Cycle  12  Pass 1  IDiag  1:
 E= -649.177401949918     Delta-E=       -0.000001140298 Rises=F Damp=F
 DIIS: error= 9.50D-06 at cycle  12 NSaved=  12.
 NSaved=12 IEnMin=12 EnMin= -649.177401949918     IErMin=12 ErrMin= 9.50D-06
 ErrMax= 9.50D-06  0.00D+00 EMaxC= 1.00D-01 BMatC= 1.09D-08 BMatP= 1.58D-07
 IDIUse=1 WtCom= 1.00D+00 WtEn= 0.00D+00
 Coeff-Com: -0.424D-04 0.516D-04 0.458D-04 0.586D-04 0.540D-03 0.486D-02
 Coeff-Com:  0.399D-02-0.485D-02-0.348D-01 0.618D-02-0.668D-01 0.109D+01
 Coeff:     -0.424D-04 0.516D-04 0.458D-04 0.586D-04 0.540D-03 0.486D-02
 Coeff:      0.399D-02-0.485D-02-0.348D-01 0.618D-02-0.668D-01 0.109D+01
 Gap=     0.013 Goal=   None    Shift=    0.000
 RMSDP=6.00D-06 MaxDP=2.20D-04 DE=-1.14D-06 OVMax= 3.81D-04

 Cycle  13  Pass 1  IDiag  1:
 E= -649.177402033101     Delta-E=       -0.000000083183 Rises=F Damp=F
 DIIS: error= 1.75D-06 at cycle  13 NSaved=  13.
 NSaved=13 IEnMin=13 EnMin= -649.177402033101     IErMin=13 ErrMin= 1.75D-06
 ErrMax= 1.75D-06  0.00D+00 EMaxC= 1.00D-01 BMatC= 3.65D-10 BMatP= 1.09D-08
 IDIUse=1 WtCom= 1.00D+00 WtEn= 0.00D+00
 Coeff-Com: -0.914D-05 0.113D-04-0.929D-06 0.340D-04 0.929D-04 0.175D-02
 Coeff-Com:  0.829D-03 0.160D-02-0.852D-02-0.147D-02-0.756D-01 0.361D+00
 Coeff-Com:  0.720D+00
 Coeff:     -0.914D-05 0.113D-04-0.929D-06 0.340D-04 0.929D-04 0.175D-02
 Coeff:      0.829D-03 0.160D-02-0.852D-02-0.147D-02-0.756D-01 0.361D+00
 Coeff:      0.720D+00
 Gap=     0.013 Goal=   None    Shift=    0.000
 RMSDP=9.89D-07 MaxDP=4.32D-05 DE=-8.32D-08 OVMax= 7.90D-05

 Cycle  14  Pass 1  IDiag  1:
 E= -649.177402035990     Delta-E=       -0.000000002889 Rises=F Damp=F
 DIIS: error= 3.36D-07 at cycle  14 NSaved=  14.
 NSaved=14 IEnMin=14 EnMin= -649.177402035990     IErMin=14 ErrMin= 3.36D-07
 ErrMax= 3.36D-07  0.00D+00 EMaxC= 1.00D-01 BMatC= 1.26D-11 BMatP= 3.65D-10
 IDIUse=1 WtCom= 1.00D+00 WtEn= 0.00D+00
 Coeff-Com:  0.431D-05-0.541D-05 0.208D-06 0.259D-07-0.468D-04-0.397D-04
 Coeff-Com: -0.144D-03 0.620D-03 0.628D-03-0.123D-02-0.979D-02-0.219D-01
 Coeff-Com:  0.131D+00 0.900D+00
 Coeff:      0.431D-05-0.541D-05 0.208D-06 0.259D-07-0.468D-04-0.397D-04
 Coeff:     -0.144D-03 0.620D-03 0.628D-03-0.123D-02-0.979D-02-0.219D-01
 Coeff:      0.131D+00 0.900D+00
 Gap=     0.013 Goal=   None    Shift=    0.000
 RMSDP=2.94D-07 MaxDP=7.35D-06 DE=-2.89D-09 OVMax= 1.58D-05

 Cycle  15  Pass 1  IDiag  1:
 E= -649.177402036073     Delta-E=       -0.000000000083 Rises=F Damp=F
 DIIS: error= 8.56D-08 at cycle  15 NSaved=  15.
 NSaved=15 IEnMin=15 EnMin= -649.177402036073     IErMin=15 ErrMin= 8.56D-08
 ErrMax= 8.56D-08  0.00D+00 EMaxC= 1.00D-01 BMatC= 1.00D-12 BMatP= 1.26D-11
 IDIUse=1 WtCom= 1.00D+00 WtEn= 0.00D+00
 Coeff-Com: -0.554D-06 0.645D-06 0.291D-07 0.500D-05-0.101D-04-0.439D-04
 Coeff-Com: -0.950D-04-0.137D-03 0.390D-03 0.105D-02-0.103D-02-0.153D-01
 Coeff-Com: -0.144D-01 0.988D-01 0.931D+00
 Coeff:     -0.554D-06 0.645D-06 0.291D-07 0.500D-05-0.101D-04-0.439D-04
 Coeff:     -0.950D-04-0.137D-03 0.390D-03 0.105D-02-0.103D-02-0.153D-01
 Coeff:     -0.144D-01 0.988D-01 0.931D+00
 Gap=     0.013 Goal=   None    Shift=    0.000
 RMSDP=6.92D-08 MaxDP=2.68D-06 DE=-8.30D-11 OVMax= 4.87D-06

 Cycle  16  Pass 1  IDiag  1:
 E= -649.177402036079     Delta-E=       -0.000000000006 Rises=F Damp=F
 DIIS: error= 2.14D-09 at cycle  16 NSaved=  16.
 NSaved=16 IEnMin=16 EnMin= -649.177402036079     IErMin=16 ErrMin= 2.14D-09
 ErrMax= 2.14D-09  0.00D+00 EMaxC= 1.00D-01 BMatC= 9.01D-16 BMatP= 1.00D-12
 IDIUse=1 WtCom= 1.00D+00 WtEn= 0.00D+00
 Coeff-Com:  0.595D-07-0.883D-07-0.124D-06 0.407D-06-0.279D-05-0.165D-05
 Coeff-Com: -0.137D-04-0.288D-04 0.566D-04 0.137D-03 0.351D-03-0.616D-03
 Coeff-Com: -0.383D-02-0.243D-01-0.852D-02 0.104D+01
 Coeff:      0.595D-07-0.883D-07-0.124D-06 0.407D-06-0.279D-05-0.165D-05
 Coeff:     -0.137D-04-0.288D-04 0.566D-04 0.137D-03 0.351D-03-0.616D-03
 Coeff:     -0.383D-02-0.243D-01-0.852D-02 0.104D+01
 Gap=     0.013 Goal=   None    Shift=    0.000
 RMSDP=6.88D-09 MaxDP=2.10D-07 DE=-6.37D-12 OVMax= 2.22D-07

 SCF Done:  E(RB3LYP) =  -649.177402036     A.U. after   16 cycles
            NFock= 16  Conv=0.69D-08     -V/T= 2.0029
 KE= 6.473058114574D+02 PE=-1.741327495905D+03 EE= 3.537323836709D+02
 Leave Link  502 at Wed Oct  4 14:13:21 2023, MaxMem=  1610612736 cpu:             171.7 elap:              95.5
 (Enter /home/sekinelabo/g16/l601.exe)
 Copying SCF densities to generalized density rwf, IOpCl= 0 IROHF=0.

 **********************************************************************

            Population analysis using the SCF Density.

 **********************************************************************

 Orbital symmetries:
       Occupied  (A) (A) (A) (A) (A) (A) (A) (A) (A) (A) (A) (A)
                 (A) (A) (A) (A) (A) (A) (A) (A) (A) (A)
       Virtual   (A) (A) (A) (A) (A) (A) (A) (A) (A) (A) (A) (A)
                 (A) (A) (A) (A) (A) (A) (A) (A) (A) (A) (A) (A)
                 (A) (A) (A) (A) (A) (A) (A) (A) (A) (A) (A) (A)
                 (A) (A) (A) (A) (A) (A) (A) (A) (A) (A) (A) (A)
                 (A) (A) (A) (A) (A) (A) (A) (A) (A) (A) (A) (A)
                 (A) (A) (A) (A) (A) (A) (A) (A) (A) (A) (A) (A)
                 (A) (A) (A) (A) (A) (A) (A) (A) (A) (A) (A) (A)
                 (A) (A) (A) (A) (A) (A) (A) (A) (A) (A) (A) (A)
                 (A) (A)
 The electronic state is 1-A.
 Alpha  occ. eigenvalues --  -38.48968 -38.44301 -38.43886 -38.42921  -2.24646
 Alpha  occ. eigenvalues --   -2.20171  -2.19698  -2.18661  -1.18330  -1.18300
 Alpha  occ. eigenvalues --   -1.18269  -1.13902  -1.13857  -1.13808  -1.13389
 Alpha  occ. eigenvalues --   -1.13341  -1.13305  -1.12339  -1.12331  -1.12301
 Alpha  occ. eigenvalues --   -0.15201  -0.10282
 Alpha virt. eigenvalues --   -0.08946  -0.04565  -0.03443  -0.02823  -0.02114
 Alpha virt. eigenvalues --   -0.00958  -0.00804  -0.00548  -0.00352   0.00245
 Alpha virt. eigenvalues --    0.00637   0.00780   0.00952   0.01149   0.01330
 Alpha virt. eigenvalues --    0.01524   0.01838   0.01911   0.01990   0.02203
 Alpha virt. eigenvalues --    0.02268   0.02405   0.02456   0.02745   0.02829
 Alpha virt. eigenvalues --    0.03189   0.03456   0.04156   0.04556   0.05480
 Alpha virt. eigenvalues --    0.06436   0.07088   0.07291   0.07532   0.08052
 Alpha virt. eigenvalues --    0.08611   0.08673   0.08751   0.09235   0.09972
 Alpha virt. eigenvalues --    0.10482   0.11389   0.12073   0.13096   0.13930
 Alpha virt. eigenvalues --    0.17004   0.27228   0.28375   0.29182   0.29656
 Alpha virt. eigenvalues --    0.32893   0.33251   0.33602   0.34532   0.35804
 Alpha virt. eigenvalues --    0.36540   0.36659   0.36810   0.38925   0.39248
 Alpha virt. eigenvalues --    0.41024   0.41133   0.42406   0.42751   0.43432
 Alpha virt. eigenvalues --    0.43860   0.44397   0.44991   0.45353   0.45591
 Alpha virt. eigenvalues --    0.46289   0.47957   0.49625   0.50411   0.52257
 Alpha virt. eigenvalues --    0.55503   0.56970   0.73959   1.99807   2.06646
 Alpha virt. eigenvalues --    2.10812   2.16594   4.40261   4.40721   4.41428
 Alpha virt. eigenvalues --    4.43167   4.44177   4.45757   4.46059   4.46310
 Alpha virt. eigenvalues --    4.46874   4.48044   4.49319   4.67403  96.18616
 Alpha virt. eigenvalues --   96.26721  96.31829  96.39610
          Condensed to atoms (all electrons):
               1          2          3          4
     1  Na  10.922610  -0.026082  -0.009853  -0.157559
     2  Na  -0.026082  10.492694   0.320280  -0.013456
     3  Na  -0.009853   0.320280  11.076750   0.168376
     4  Na  -0.157559  -0.013456   0.168376  10.944536
 Mulliken charges:
               1
     1  Na   0.270885
     2  Na   0.226564
     3  Na  -0.555553
     4  Na   0.058104
 Sum of Mulliken charges =  -0.00000
 Mulliken charges with hydrogens summed into heavy atoms:
               1
     1  Na   0.270885
     2  Na   0.226564
     3  Na  -0.555553
     4  Na   0.058104
 Electronic spatial extent (au):  <R**2>=           1413.5174
 Charge=             -0.0000 electrons
 Dipole moment (field-independent basis, Debye):
    X=              3.0336    Y=              2.7298    Z=             -0.2190  Tot=              4.0869
 Quadrupole moment (field-independent basis, Debye-Ang):
   XX=            -46.3713   YY=            -27.3587   ZZ=            -44.2334
   XY=              9.7191   XZ=             -0.3579   YZ=             -0.6725
 Traceless Quadrupole moment (field-independent basis, Debye-Ang):
   XX=             -7.0502   YY=             11.9624   ZZ=             -4.9123
   XY=              9.7191   XZ=             -0.3579   YZ=             -0.6725
 Octapole moment (field-independent basis, Debye-Ang**2):
  XXX=             24.2862  YYY=             56.4872  ZZZ=              0.2650  XYY=             42.9710
  XXY=             15.3486  XXZ=             -5.6143  XZZ=              9.3587  YZZ=              5.0736
  YYZ=             -2.9717  XYZ=              0.4723
 Hexadecapole moment (field-independent basis, Debye-Ang**3):
 XXXX=          -1734.0761 YYYY=           -610.6825 ZZZZ=           -201.3066 XXXY=             66.8680
 XXXZ=              4.4616 YYYX=            132.1615 YYYZ=             -6.8025 ZZZX=             -1.7846
 ZZZY=             -4.3794 XXYY=           -372.7288 XXZZ=           -343.4384 YYZZ=           -157.8161
 XXYZ=              1.0043 YYXZ=             -5.9102 ZZXY=             21.4735
 N-N= 9.111189874099D+01 E-N=-1.741327495952D+03  KE= 6.473058114574D+02
 No NMR shielding tensors so no spin-rotation constants.
 Leave Link  601 at Wed Oct  4 14:13:26 2023, MaxMem=  1610612736 cpu:               8.6 elap:               4.9
 (Enter /home/sekinelabo/g16/l701.exe)
 ... and contract with generalized density number  0.
 Compute integral first derivatives.
 Leave Link  701 at Wed Oct  4 14:13:30 2023, MaxMem=  1610612736 cpu:               6.9 elap:               3.9
 (Enter /home/sekinelabo/g16/l702.exe)
 L702 exits ... SP integral derivatives will be done elsewhere.
 Leave Link  702 at Wed Oct  4 14:13:30 2023, MaxMem=  1610612736 cpu:               0.7 elap:               0.4
 (Enter /home/sekinelabo/g16/l703.exe)
 Integral derivatives from FoFJK, PRISM(SPDF).
 Compute integral first derivatives, UseDBF=F ICtDFT=           0.
 Calling FoFJK, ICntrl=      2127 FMM=F ISym2X=0 I1Cent= 0 IOpClX= 0 NMat=1 NMatS=1 NMatT=0.
 FoFJK:  IHMeth= 1 ICntrl=    2127 DoSepK=F KAlg= 0 I1Cent=           0 FoldK=F
 IRaf=         0 NMat=       1 IRICut=       1 DoRegI=T DoRafI=F ISym2E= 0 IDoP0=0 IntGTp=1.
 FoFCou: FMM=F IPFlag=           0 FMFlag=      100000 FMFlg1=         800
         NFxFlg=           0 DoJE=F BraDBF=F KetDBF=F FulRan=T
         wScrn=  0.000000 ICntrl=      2127 IOpCl=  0 I1Cent=           0 NGrid=           0
         NMat0=    1 NMatS0=      1 NMatT0=    0 NMatD0=    1 NMtDS0=    0 NMtDT0=    0
 Symmetry not used in FoFCou.
 Leave Link  703 at Wed Oct  4 14:13:37 2023, MaxMem=  1610612736 cpu:              13.1 elap:               7.2
 (Enter /home/sekinelabo/g16/l716.exe)
 Dipole        = 1.19351529D+00 1.07399188D+00-8.61540016D-02
 ***** Axes restored to original set *****
 -------------------------------------------------------------------
 Center     Atomic                   Forces (Hartrees/Bohr)
 Number     Number              X              Y              Z
 -------------------------------------------------------------------
      1       11          -0.003875431    0.000767140   -0.007621257
      2       11           0.007941835   -0.000622585   -0.001193821
      3       11          -0.001151555   -0.001387703    0.010102260
      4       11          -0.002914848    0.001243149   -0.001287182
 -------------------------------------------------------------------
 Cartesian Forces:  Max     0.010102260 RMS     0.004615036
 Z-matrix is all fixed cartesians, so copy forces.
 Force constants in Cartesian coordinates: 
                1             2             3             4             5 
      1  0.120841D-01
      2 -0.386306D-02  0.471486D-02
      3  0.000000D+00  0.000000D+00  0.394653D-01
      4  0.984090D-04  0.183728D-05  0.000000D+00  0.177521D-01
      5  0.105653D-03  0.681538D-03  0.000000D+00 -0.273952D-04  0.137971D-02
      6  0.671250D-02  0.125321D-03  0.000000D+00 -0.107255D-03 -0.186863D-02
      7 -0.149697D-01  0.643230D-02  0.000000D+00 -0.177842D-01 -0.205392D-02
      8  0.636679D-02 -0.864431D-02  0.000000D+00  0.337378D-04 -0.283492D-02
      9 -0.445469D-02 -0.255565D-02 -0.394653D-01  0.826091D-04  0.238463D-02
     10  0.278721D-02 -0.257107D-02  0.000000D+00 -0.662488D-04  0.197566D-02
     11 -0.260938D-02  0.324792D-02  0.000000D+00 -0.817989D-05  0.773674D-03
     12 -0.225781D-02  0.243033D-02  0.000000D+00  0.246457D-04 -0.515999D-03
                6             7             8             9            10 
      6  0.104378D-01
      7 -0.208640D-02  0.434565D-01
      8  0.230126D-02 -0.986776D-02  0.195429D-01
      9 -0.121189D-01  0.101588D-02 -0.309651D-02  0.651891D-01
     10 -0.451885D-02 -0.107025D-01  0.346723D-02  0.335620D-02  0.798155D-02
     11 -0.557953D-03  0.548938D-02 -0.806362D-02  0.326753D-02 -0.287182D-02
     12  0.168109D-02  0.107052D-02  0.795248D-03 -0.136050D-01  0.116265D-02
               11            12 
     11  0.404203D-02
     12 -0.270958D-02  0.119239D-01
 Leave Link  716 at Wed Oct  4 14:13:38 2023, MaxMem=  1610612736 cpu:               0.8 elap:               0.5
 (Enter /home/sekinelabo/g16/l103.exe)

 GradGradGradGradGradGradGradGradGradGradGradGradGradGradGradGradGradGrad
 Berny optimization.
 Search for a local minimum.
 Step number   1 out of a maximum of    2
 All quantities printed in internal units (Hartrees-Bohrs-Radians)
 Second derivative matrix not updated -- first step.
 The second derivative matrix:
                          X1        Y1        Z1        X2        Y2
           X1           0.01208
           Y1          -0.00386   0.00471
           Z1          -0.00000  -0.00000   0.03947
           X2           0.00010   0.00000   0.00000   0.01775
           Y2           0.00011   0.00068  -0.00000  -0.00003   0.00138
           Z2           0.00671   0.00013   0.00000  -0.00011  -0.00187
           X3          -0.01497   0.00643   0.00000  -0.01778  -0.00205
           Y3           0.00637  -0.00864   0.00000   0.00003  -0.00283
           Z3          -0.00445  -0.00256  -0.03947   0.00008   0.00238
           X4           0.00279  -0.00257   0.00000  -0.00007   0.00198
           Y4          -0.00261   0.00325  -0.00000  -0.00001   0.00077
           Z4          -0.00226   0.00243  -0.00000   0.00002  -0.00052
                          Z2        X3        Y3        Z3        X4
           Z2           0.01044
           X3          -0.00209   0.04346
           Y3           0.00230  -0.00987   0.01954
           Z3          -0.01212   0.00102  -0.00310   0.06519
           X4          -0.00452  -0.01070   0.00347   0.00336   0.00798
           Y4          -0.00056   0.00549  -0.00806   0.00327  -0.00287
           Z4           0.00168   0.00107   0.00080  -0.01360   0.00116
                          Y4        Z4
           Y4           0.00404
           Z4          -0.00271   0.01192
 ITU=  0
     Eigenvalues ---    0.01190   0.01568   0.02169   0.02685   0.06447
     Eigenvalues ---    0.09720
 Quadratic step=6.258D-01 exceeds max=3.000D-01 adjusted using Lamda=-1.702D-02.
 Angle between NR and scaled steps=  13.15 degrees.
 Angle between quadratic step and forces=  32.63 degrees.
 Linear search not attempted -- first point.
 B after Tr=     0.000000   -0.000000    0.000000
         Rot=    1.000000    0.000000    0.000000   -0.000000 Ang=   0.00 deg.
 Variable       Old X    -DE/DX   Delta X   Delta X   Delta X     New X
                                 (Linear)    (Quad)   (Total)
    X1        0.00000  -0.00388   0.00000  -0.11073  -0.11073  -0.11073
    Y1        0.00000   0.00077   0.00000   0.01466   0.01466   0.01466
    Z1       -0.00000  -0.00762   0.00000  -0.07608  -0.07608  -0.07608
    X2       -6.67254   0.00794   0.00000   0.22576   0.22576  -6.44678
    Y2       -0.00000  -0.00062   0.00000  -0.03486  -0.03486  -0.03486
    Z2        5.69450  -0.00119   0.00000   0.00126   0.00126   5.69576
    X3        0.00000  -0.00115   0.00000  -0.00480  -0.00480  -0.00480
    Y3        0.00000  -0.00139   0.00000   0.00235   0.00235   0.00235
    Z3        5.59667   0.01010   0.00000   0.08419   0.08419   5.68086
    X4        2.58862  -0.00291   0.00000  -0.11023  -0.11023   2.47839
    Y4       -2.52938   0.00124   0.00000   0.01785   0.01785  -2.51153
    Z4       11.71549  -0.00129   0.00000  -0.00938  -0.00938  11.70611
         Item               Value     Threshold  Converged?
 Maximum Force            0.010102     0.000450     NO 
 RMS     Force            0.004615     0.000300     NO 
 Maximum Displacement     0.225756     0.001800     NO 
 RMS     Displacement     0.086661     0.001200     NO 
 Predicted change in Energy=-2.787737D-03
 GradGradGradGradGradGradGradGradGradGradGradGradGradGradGradGradGradGrad

 Leave Link  103 at Wed Oct  4 14:13:40 2023, MaxMem=  1610612736 cpu:               3.9 elap:               2.1
 (Enter /home/sekinelabo/g16/l9999.exe)
 1\1\GINC-SEKINELABO-XA7R-R37\Force\RB3LYP\6-311+G(d)\Na4\SEKINELABO\04
 -Oct-2023\0\\#p B3LYP/6-311+g(d) force\\\0,1\Na,0.,0.,0.\Na,-3.5309558
 667,0.,3.0133971348\Na,0.,0.,2.9616313641\Na,1.3698372685,-1.338489564
 ,6.1995707315\\Version=ES64L-G16RevB.01\State=1-A\HF=-649.177402\RMSD=
 6.876e-09\RMSF=4.615e-03\Dipole=-1.5034705,0.2108795,-0.5295905\Quadru
 pole=11.6823872,-3.7856086,-7.8967786,-1.0784109,-1.9063832,1.0531304\
 PG=C01 [X(Na4)]\\@


 ...THOSE SCIENCES ARE VAIN AND FULL OF ERRORS WHICH 
 ARE NOT BORN FROM EXPERIMENT, THE MOTHER OF CERTAINTY...

                          -- LEONARDO DA VINCI, 1452-1519
 Job cpu time:       0 days  0 hours  4 minutes  8.5 seconds.
 Elapsed time:       0 days  0 hours  2 minutes 18.5 seconds.
 File lengths (MBytes):  RWF=     10 Int=      0 D2E=      0 Chk=      2 Scr=      1
 Normal termination of Gaussian 16 at Wed Oct  4 14:13:40 2023.
 Initial command:
 /home/sekinelabo/g16/l1.exe "/home/sekinelabo/g16temp/Gau-8194.inp" -scrdir="/home/sekinelabo/g16temp/"
 Entering Link 1 = /home/sekinelabo/g16/l1.exe PID=     10950.
  
 Copyright (c) 1988-2017, Gaussian, Inc.  All Rights Reserved.
  
 This is part of the Gaussian(R) 16 program.  It is based on
 the Gaussian(R) 09 system (copyright 2009, Gaussian, Inc.),
 the Gaussian(R) 03 system (copyright 2003, Gaussian, Inc.),
 the Gaussian(R) 98 system (copyright 1998, Gaussian, Inc.),
 the Gaussian(R) 94 system (copyright 1995, Gaussian, Inc.),
 the Gaussian 92(TM) system (copyright 1992, Gaussian, Inc.),
 the Gaussian 90(TM) system (copyright 1990, Gaussian, Inc.),
 the Gaussian 88(TM) system (copyright 1988, Gaussian, Inc.),
 the Gaussian 86(TM) system (copyright 1986, Carnegie Mellon
 University), and the Gaussian 82(TM) system (copyright 1983,
 Carnegie Mellon University). Gaussian is a federally registered
 trademark of Gaussian, Inc.
  
 This software contains proprietary and confidential information,
 including trade secrets, belonging to Gaussian, Inc.
  
 This software is provided under written license and may be
 used, copied, transmitted, or stored only in accord with that
 written license.
  
 The following legend is applicable only to US Government
 contracts under FAR:
  
                    RESTRICTED RIGHTS LEGEND
  
 Use, reproduction and disclosure by the US Government is
 subject to restrictions as set forth in subparagraphs (a)
 and (c) of the Commercial Computer Software - Restricted
 Rights clause in FAR 52.227-19.
  
 Gaussian, Inc.
 340 Quinnipiac St., Bldg. 40, Wallingford CT 06492
  
  
 ---------------------------------------------------------------
 Warning -- This program may not be used in any manner that
 competes with the business of Gaussian, Inc. or will provide
 assistance to any competitor of Gaussian, Inc.  The licensee
 of this program is prohibited from giving any competitor of
 Gaussian, Inc. access to this program.  By using this program,
 the user acknowledges that Gaussian, Inc. is engaged in the
 business of creating and licensing software in the field of
 computational chemistry and represents and warrants to the
 licensee that it is not a competitor of Gaussian, Inc. and that
 it will not use this program in any manner prohibited above.
 ---------------------------------------------------------------
  

 Cite this work as:
 Gaussian 16, Revision B.01,
 M. J. Frisch, G. W. Trucks, H. B. Schlegel, G. E. Scuseria, 
 M. A. Robb, J. R. Cheeseman, G. Scalmani, V. Barone, 
 G. A. Petersson, H. Nakatsuji, X. Li, M. Caricato, A. V. Marenich, 
 J. Bloino, B. G. Janesko, R. Gomperts, B. Mennucci, H. P. Hratchian, 
 J. V. Ortiz, A. F. Izmaylov, J. L. Sonnenberg, D. Williams-Young, 
 F. Ding, F. Lipparini, F. Egidi, J. Goings, B. Peng, A. Petrone, 
 T. Henderson, D. Ranasinghe, V. G. Zakrzewski, J. Gao, N. Rega, 
 G. Zheng, W. Liang, M. Hada, M. Ehara, K. Toyota, R. Fukuda, 
 J. Hasegawa, M. Ishida, T. Nakajima, Y. Honda, O. Kitao, H. Nakai, 
 T. Vreven, K. Throssell, J. A. Montgomery, Jr., J. E. Peralta, 
 F. Ogliaro, M. J. Bearpark, J. J. Heyd, E. N. Brothers, K. N. Kudin, 
 V. N. Staroverov, T. A. Keith, R. Kobayashi, J. Normand, 
 K. Raghavachari, A. P. Rendell, J. C. Burant, S. S. Iyengar, 
 J. Tomasi, M. Cossi, J. M. Millam, M. Klene, C. Adamo, R. Cammi, 
 J. W. Ochterski, R. L. Martin, K. Morokuma, O. Farkas, 
 J. B. Foresman, and D. J. Fox, Gaussian, Inc., Wallingford CT, 2016.
 
 ******************************************
 Gaussian 16:  ES64L-G16RevB.01 20-Dec-2017
                 4-Oct-2023 
 ******************************************
 %NProcShared=16
 Will use up to   16 processors via shared memory.
 %mem=12GB
 %Chk=checkpoint.chk
 -------------------------
 #p B3LYP/6-311+g(d) force
 -------------------------
 1/10=7,30=1,38=1/1,3;
 2/12=2,17=6,18=5,40=1/2;
 3/5=4,6=6,7=11,11=2,25=1,30=1,71=1,74=-5/1,2,3;
 4//1;
 5/5=2,38=5/2;
 6/7=2,8=2,9=2,10=2,28=1/1;
 7/29=1/1,2,3,16;
 1/10=7,30=1/3;
 99//99;
 Leave Link    1 at Wed Oct  4 14:13:41 2023, MaxMem=  1610612736 cpu:               0.5 elap:               0.3
 (Enter /home/sekinelabo/g16/l101.exe)


 Symbolic Z-matrix:
 Charge =  0 Multiplicity = 1
 Na                    0.        0.        0. 
 Na                   -1.04101   0.       -4.21281 
 Na                    0.        0.        3.80797 
 Na                    3.49163  -2.57678   4.02215 
 
 ITRead=  0  0  0  0
 MicOpt= -1 -1 -1 -1
 NAtoms=      4 NQM=        4 NQMF=       0 NMMI=      0 NMMIF=      0
                NMic=       0 NMicF=      0.
                    Isotopes and Nuclear Properties:
 (Nuclear quadrupole moments (NQMom) in fm**2, nuclear magnetic moments (NMagM)
  in nuclear magnetons)

  Atom         1           2           3           4
 IAtWgt=          23          23          23          23
 AtmWgt=  22.9897697  22.9897697  22.9897697  22.9897697
 NucSpn=           3           3           3           3
 AtZEff=  -0.0000000  -0.0000000  -0.0000000  -0.0000000
 NQMom=   10.4000000  10.4000000  10.4000000  10.4000000
 NMagM=    2.2175200   2.2175200   2.2175200   2.2175200
 AtZNuc=  11.0000000  11.0000000  11.0000000  11.0000000
 Leave Link  101 at Wed Oct  4 14:13:42 2023, MaxMem=  1610612736 cpu:               2.0 elap:               1.1
 (Enter /home/sekinelabo/g16/l103.exe)

 GradGradGradGradGradGradGradGradGradGradGradGradGradGradGradGradGradGrad
 Berny optimization.
 Initialization pass.
 Trust Radius=3.00D-01 FncErr=1.00D-07 GrdErr=1.00D-07 EigMax=2.50D+02 EigMin=1.00D-04
 Number of steps in this run=      2 maximum allowed number of steps=      2.
 GradGradGradGradGradGradGradGradGradGradGradGradGradGradGradGradGradGrad

 Leave Link  103 at Wed Oct  4 14:13:42 2023, MaxMem=  1610612736 cpu:               0.6 elap:               0.3
 (Enter /home/sekinelabo/g16/l202.exe)
                          Input orientation:                          
 ---------------------------------------------------------------------
 Center     Atomic      Atomic             Coordinates (Angstroms)
 Number     Number       Type             X           Y           Z
 ---------------------------------------------------------------------
      1         11           0        0.000000    0.000000    0.000000
      2         11           0       -1.041014    0.000000   -4.212812
      3         11           0        0.000000    0.000000    3.807974
      4         11           0        3.491629   -2.576776    4.022147
 ---------------------------------------------------------------------
                    Distance matrix (angstroms):
                    1          2          3          4
     1  Na   0.000000
     2  Na   4.339527   0.000000
     3  Na   3.807974   8.088060   0.000000
     4  Na   5.916833   9.746751   4.344780   0.000000
 Stoichiometry    Na4
 Framework group  C1[X(Na4)]
 Deg. of freedom     6
 Full point group                 C1      NOp   1
 Largest Abelian subgroup         C1      NOp   1
 Largest concise Abelian subgroup C1      NOp   1
                         Standard orientation:                         
 ---------------------------------------------------------------------
 Center     Atomic      Atomic             Coordinates (Angstroms)
 Number     Number       Type             X           Y           Z
 ---------------------------------------------------------------------
      1         11           0        1.181681    0.411127    0.206745
      2         11           0        5.373983   -0.667382   -0.098062
      3         11           0       -2.247394    2.040247   -0.090040
      4         11           0       -4.308270   -1.783992   -0.018644
 ---------------------------------------------------------------------
 Rotational constants (GHZ):           2.7408329           0.4074744           0.3554341
 Leave Link  202 at Wed Oct  4 14:13:43 2023, MaxMem=  1610612736 cpu:               1.3 elap:               0.7
 (Enter /home/sekinelabo/g16/l301.exe)
 Standard basis: 6-311+G(d) (5D, 7F)
 Ernie: Thresh=  0.10000D-02 Tol=  0.10000D-05 Strict=F.
 There are   124 symmetry adapted cartesian basis functions of A   symmetry.
 There are   120 symmetry adapted basis functions of A   symmetry.
   120 basis functions,   200 primitive gaussians,   124 cartesian basis functions
    22 alpha electrons       22 beta electrons
       nuclear repulsion energy        71.6151467236 Hartrees.
 IExCor=  402 DFT=T Ex+Corr=B3LYP ExCW=0 ScaHFX=  0.200000
 ScaDFX=  0.800000  0.720000  1.000000  0.810000 ScalE2=  1.000000  1.000000
 IRadAn=      5 IRanWt=     -1 IRanGd=            0 ICorTp=0 IEmpDi=  4
 NAtoms=    4 NActive=    4 NUniq=    4 SFac= 1.00D+00 NAtFMM=   60 NAOKFM=F Big=F
 Integral buffers will be    131072 words long.
 Raffenetti 2 integral format.
 Two-electron integral symmetry is turned on.
 Leave Link  301 at Wed Oct  4 14:13:43 2023, MaxMem=  1610612736 cpu:               0.8 elap:               0.5
 (Enter /home/sekinelabo/g16/l302.exe)
 NPDir=0 NMtPBC=     1 NCelOv=     1 NCel=       1 NClECP=     1 NCelD=      1
         NCelK=      1 NCelE2=     1 NClLst=     1 CellRange=     0.0.
 One-electron integrals computed using PRISM.
 One-electron integral symmetry used in STVInt
 NBasis=   120 RedAO= T EigKep=  3.58D-05  NBF=   120
 NBsUse=   120 1.00D-06 EigRej= -1.00D+00 NBFU=   120
 Precomputing XC quadrature grid using
 IXCGrd= 4 IRadAn=           5 IRanWt=          -1 IRanGd=           0 AccXCQ= 0.00D+00.
 Generated NRdTot=       0 NPtTot=           0 NUsed=           0 NTot=          32
 NSgBfM=   116   116   116   116   116 MxSgAt=     4 MxSgA2=     4.
 Leave Link  302 at Wed Oct  4 14:13:55 2023, MaxMem=  1610612736 cpu:              20.7 elap:              11.3
 (Enter /home/sekinelabo/g16/l303.exe)
 DipDrv:  MaxL=1.
 Leave Link  303 at Wed Oct  4 14:13:56 2023, MaxMem=  1610612736 cpu:               2.5 elap:               1.5
 (Enter /home/sekinelabo/g16/l401.exe)
 ExpMin= 7.60D-03 ExpMax= 3.62D+04 ExpMxC= 1.21D+03 IAcc=3 IRadAn=         5 AccDes= 0.00D+00
 Harris functional with IExCor=  402 and IRadAn=       5 diagonalized for initial guess.
 HarFok:  IExCor=  402 AccDes= 0.00D+00 IRadAn=         5 IDoV= 1 UseB2=F ITyADJ=14
 ICtDFT=  3500011 ScaDFX=  1.000000  1.000000  1.000000  1.000000
 FoFCou: FMM=F IPFlag=           0 FMFlag=      100000 FMFlg1=           0
         NFxFlg=           0 DoJE=T BraDBF=F KetDBF=T FulRan=T
         wScrn=  0.000000 ICntrl=       500 IOpCl=  0 I1Cent=   200000004 NGrid=           0
         NMat0=    1 NMatS0=      1 NMatT0=    0 NMatD0=    1 NMtDS0=    0 NMtDT0=    0
 Petite list used in FoFCou.
 Harris En= -649.052906565520    
 JPrj=0 DoOrth=F DoCkMO=F.
 Leave Link  401 at Wed Oct  4 14:14:05 2023, MaxMem=  1610612736 cpu:              14.9 elap:               8.4
 (Enter /home/sekinelabo/g16/l502.exe)
 Keep R1 ints in memory in canonical form, NReq=41581754.
 FoFCou: FMM=F IPFlag=           0 FMFlag=           0 FMFlg1=           0
         NFxFlg=           0 DoJE=F BraDBF=F KetDBF=F FulRan=T
         wScrn=  0.000000 ICntrl=       600 IOpCl=  0 I1Cent=           0 NGrid=           0
         NMat0=    1 NMatS0=   7260 NMatT0=    0 NMatD0=    1 NMtDS0=    0 NMtDT0=    0
 Symmetry not used in FoFCou.
 Two-electron integral symmetry not used.
 Closed shell SCF:
 Using DIIS extrapolation, IDIIS=  1040.
 NGot=  1610612736 LenX=  1584221388 LenY=  1584205571
 Requested convergence on RMS density matrix=1.00D-08 within 128 cycles.
 Requested convergence on MAX density matrix=1.00D-06.
 Requested convergence on             energy=1.00D-06.
 No special actions if energy rises.

 Cycle   1  Pass 1  IDiag  1:
 E= -649.161917103706    
 DIIS: error= 1.48D-02 at cycle   1 NSaved=   1.
 NSaved= 1 IEnMin= 1 EnMin= -649.161917103706     IErMin= 1 ErrMin= 1.48D-02
 ErrMax= 1.48D-02  0.00D+00 EMaxC= 1.00D-01 BMatC= 2.72D-02 BMatP= 2.72D-02
 IDIUse=3 WtCom= 8.52D-01 WtEn= 1.48D-01
 Coeff-Com:  0.100D+01
 Coeff-En:   0.100D+01
 Coeff:      0.100D+01
 Gap=     0.017 Goal=   None    Shift=    0.000
 GapD=    0.017 DampG=0.250 DampE=0.500 DampFc=0.2500 IDamp=-1.
 Damping current iteration by 2.50D-01
 RMSDP=5.76D-03 MaxDP=3.35D-01              OVMax= 5.19D-01

 Cycle   2  Pass 1  IDiag  1:
 E= -649.165253043222     Delta-E=       -0.003335939516 Rises=F Damp=T
 DIIS: error= 1.07D-02 at cycle   2 NSaved=   2.
 NSaved= 2 IEnMin= 2 EnMin= -649.165253043222     IErMin= 2 ErrMin= 1.07D-02
 ErrMax= 1.07D-02  0.00D+00 EMaxC= 1.00D-01 BMatC= 1.02D-02 BMatP= 2.72D-02
 IDIUse=3 WtCom= 8.93D-01 WtEn= 1.07D-01
 Coeff-Com: -0.107D+01 0.207D+01
 Coeff-En:   0.258D+00 0.742D+00
 Coeff:     -0.931D+00 0.193D+01
 Gap=     0.014 Goal=   None    Shift=    0.000
 RMSDP=5.08D-03 MaxDP=2.85D-01 DE=-3.34D-03 OVMax= 6.47D-01

 Cycle   3  Pass 1  IDiag  1:
 E= -649.090849065266     Delta-E=        0.074403977955 Rises=F Damp=F
 DIIS: error= 1.14D-02 at cycle   3 NSaved=   3.
 NSaved= 3 IEnMin= 2 EnMin= -649.165253043222     IErMin= 2 ErrMin= 1.07D-02
 ErrMax= 1.14D-02  0.00D+00 EMaxC= 1.00D-01 BMatC= 8.14D-03 BMatP= 1.02D-02
 IDIUse=3 WtCom= 8.86D-01 WtEn= 1.14D-01
 Rare condition: small coef for last iteration:  0.000D+00
 Coeff-Com: -0.726D+00 0.135D+01 0.379D+00
 Coeff-En:   0.207D+00 0.771D+00 0.220D-01
 Coeff:     -0.726D+00 0.135D+01 0.379D+00
 Gap=     0.039 Goal=   None    Shift=    0.000
 RMSDP=6.46D-03 MaxDP=4.01D-01 DE= 7.44D-02 OVMax= 6.32D-01

 Cycle   4  Pass 1  IDiag  1:
 E= -649.156404788112     Delta-E=       -0.065555722845 Rises=F Damp=F
 DIIS: error= 9.25D-03 at cycle   4 NSaved=   4.
 NSaved= 4 IEnMin= 2 EnMin= -649.165253043222     IErMin= 4 ErrMin= 9.25D-03
 ErrMax= 9.25D-03  0.00D+00 EMaxC= 1.00D-01 BMatC= 2.56D-03 BMatP= 8.14D-03
 IDIUse=3 WtCom= 9.07D-01 WtEn= 9.25D-02
 EnCoef did    19 forward-backward iterations
 Coeff-Com: -0.703D-01 0.179D+00 0.315D+00 0.576D+00
 Coeff-En:   0.393D+00 0.000D+00 0.944D-01 0.512D+00
 Coeff:     -0.275D-01 0.163D+00 0.295D+00 0.570D+00
 Gap=     0.024 Goal=   None    Shift=    0.000
 RMSDP=2.75D-03 MaxDP=1.48D-01 DE=-6.56D-02 OVMax= 3.16D-01

 Cycle   5  Pass 1  IDiag  1:
 E= -649.177503341217     Delta-E=       -0.021098553106 Rises=F Damp=F
 DIIS: error= 1.98D-03 at cycle   5 NSaved=   5.
 NSaved= 5 IEnMin= 5 EnMin= -649.177503341217     IErMin= 5 ErrMin= 1.98D-03
 ErrMax= 1.98D-03  0.00D+00 EMaxC= 1.00D-01 BMatC= 2.02D-04 BMatP= 2.56D-03
 IDIUse=3 WtCom= 9.80D-01 WtEn= 1.98D-02
 Coeff-Com:  0.569D-01-0.677D-01-0.152D-01 0.189D+00 0.837D+00
 Coeff-En:   0.000D+00 0.000D+00 0.000D+00 0.104D+00 0.896D+00
 Coeff:      0.558D-01-0.663D-01-0.149D-01 0.187D+00 0.838D+00
 Gap=     0.029 Goal=   None    Shift=    0.000
 RMSDP=1.33D-03 MaxDP=4.60D-02 DE=-2.11D-02 OVMax= 6.84D-02

 Cycle   6  Pass 1  IDiag  1:
 E= -649.178665763346     Delta-E=       -0.001162422129 Rises=F Damp=F
 DIIS: error= 9.82D-04 at cycle   6 NSaved=   6.
 NSaved= 6 IEnMin= 6 EnMin= -649.178665763346     IErMin= 6 ErrMin= 9.82D-04
 ErrMax= 9.82D-04  0.00D+00 EMaxC= 1.00D-01 BMatC= 4.10D-05 BMatP= 2.02D-04
 IDIUse=3 WtCom= 9.90D-01 WtEn= 9.82D-03
 Coeff-Com:  0.157D-01-0.184D-01-0.265D-01 0.507D-01 0.385D+00 0.593D+00
 Coeff-En:   0.000D+00 0.000D+00 0.000D+00 0.000D+00 0.438D-01 0.956D+00
 Coeff:      0.156D-01-0.182D-01-0.263D-01 0.502D-01 0.382D+00 0.597D+00
 Gap=     0.029 Goal=   None    Shift=    0.000
 RMSDP=4.55D-04 MaxDP=1.88D-02 DE=-1.16D-03 OVMax= 3.14D-02

 Cycle   7  Pass 1  IDiag  1:
 E= -649.178731771731     Delta-E=       -0.000066008385 Rises=F Damp=F
 DIIS: error= 5.87D-04 at cycle   7 NSaved=   7.
 NSaved= 7 IEnMin= 7 EnMin= -649.178731771731     IErMin= 7 ErrMin= 5.87D-04
 ErrMax= 5.87D-04  0.00D+00 EMaxC= 1.00D-01 BMatC= 1.92D-05 BMatP= 4.10D-05
 IDIUse=3 WtCom= 9.94D-01 WtEn= 5.87D-03
 Coeff-Com: -0.183D-02 0.290D-02-0.140D-01 0.227D-01 0.999D-01 0.391D+00
 Coeff-Com:  0.500D+00
 Coeff-En:   0.000D+00 0.000D+00 0.000D+00 0.000D+00 0.000D+00 0.416D+00
 Coeff-En:   0.584D+00
 Coeff:     -0.182D-02 0.288D-02-0.140D-01 0.225D-01 0.993D-01 0.391D+00
 Coeff:      0.500D+00
 Gap=     0.029 Goal=   None    Shift=    0.000
 RMSDP=2.13D-04 MaxDP=8.15D-03 DE=-6.60D-05 OVMax= 1.32D-02

 Cycle   8  Pass 1  IDiag  1:
 E= -649.178839732059     Delta-E=       -0.000107960328 Rises=F Damp=F
 DIIS: error= 3.15D-04 at cycle   8 NSaved=   8.
 NSaved= 8 IEnMin= 8 EnMin= -649.178839732059     IErMin= 8 ErrMin= 3.15D-04
 ErrMax= 3.15D-04  0.00D+00 EMaxC= 1.00D-01 BMatC= 3.79D-06 BMatP= 1.92D-05
 IDIUse=3 WtCom= 9.97D-01 WtEn= 3.15D-03
 Coeff-Com: -0.765D-02 0.104D-01-0.696D-02 0.167D-01-0.156D-02 0.159D+00
 Coeff-Com:  0.286D+00 0.543D+00
 Coeff-En:   0.000D+00 0.000D+00 0.000D+00 0.000D+00 0.000D+00 0.000D+00
 Coeff-En:   0.000D+00 0.100D+01
 Coeff:     -0.763D-02 0.104D-01-0.694D-02 0.167D-01-0.155D-02 0.159D+00
 Coeff:      0.285D+00 0.545D+00
 Gap=     0.029 Goal=   None    Shift=    0.000
 RMSDP=5.26D-05 MaxDP=3.24D-03 DE=-1.08D-04 OVMax= 4.16D-03

 Cycle   9  Pass 1  IDiag  1:
 E= -649.178862982624     Delta-E=       -0.000023250564 Rises=F Damp=F
 DIIS: error= 1.83D-04 at cycle   9 NSaved=   9.
 NSaved= 9 IEnMin= 9 EnMin= -649.178862982624     IErMin= 9 ErrMin= 1.83D-04
 ErrMax= 1.83D-04  0.00D+00 EMaxC= 1.00D-01 BMatC= 7.57D-07 BMatP= 3.79D-06
 IDIUse=3 WtCom= 9.98D-01 WtEn= 1.83D-03
 Coeff-Com: -0.636D-02 0.862D-02 0.102D-03 0.571D-02-0.450D-01-0.396D-01
 Coeff-Com: -0.231D-01 0.613D-01 0.104D+01
 Coeff-En:   0.000D+00 0.000D+00 0.000D+00 0.000D+00 0.000D+00 0.000D+00
 Coeff-En:   0.000D+00 0.000D+00 0.100D+01
 Coeff:     -0.635D-02 0.861D-02 0.102D-03 0.570D-02-0.449D-01-0.396D-01
 Coeff:     -0.231D-01 0.612D-01 0.104D+01
 Gap=     0.029 Goal=   None    Shift=    0.000
 RMSDP=5.63D-05 MaxDP=2.29D-03 DE=-2.33D-05 OVMax= 5.11D-03

 Cycle  10  Pass 1  IDiag  1:
 E= -649.178870285741     Delta-E=       -0.000007303117 Rises=F Damp=F
 DIIS: error= 8.94D-06 at cycle  10 NSaved=  10.
 NSaved=10 IEnMin=10 EnMin= -649.178870285741     IErMin=10 ErrMin= 8.94D-06
 ErrMax= 8.94D-06  0.00D+00 EMaxC= 1.00D-01 BMatC= 4.75D-09 BMatP= 7.57D-07
 IDIUse=1 WtCom= 1.00D+00 WtEn= 0.00D+00
 Coeff-Com: -0.127D-02 0.172D-02 0.198D-03 0.342D-03-0.870D-02-0.934D-02
 Coeff-Com: -0.374D-02 0.473D-02 0.196D+00 0.820D+00
 Coeff:     -0.127D-02 0.172D-02 0.198D-03 0.342D-03-0.870D-02-0.934D-02
 Coeff:     -0.374D-02 0.473D-02 0.196D+00 0.820D+00
 Gap=     0.029 Goal=   None    Shift=    0.000
 RMSDP=4.96D-06 MaxDP=2.39D-04 DE=-7.30D-06 OVMax= 3.85D-04

 Cycle  11  Pass 1  IDiag  1:
 E= -649.178870319332     Delta-E=       -0.000000033591 Rises=F Damp=F
 DIIS: error= 1.85D-06 at cycle  11 NSaved=  11.
 NSaved=11 IEnMin=11 EnMin= -649.178870319332     IErMin=11 ErrMin= 1.85D-06
 ErrMax= 1.85D-06  0.00D+00 EMaxC= 1.00D-01 BMatC= 4.20D-10 BMatP= 4.75D-09
 IDIUse=1 WtCom= 1.00D+00 WtEn= 0.00D+00
 Coeff-Com:  0.680D-04-0.863D-04 0.811D-04-0.283D-03 0.840D-03 0.154D-02
 Coeff-Com:  0.237D-02-0.858D-02-0.193D-01 0.199D+00 0.825D+00
 Coeff:      0.680D-04-0.863D-04 0.811D-04-0.283D-03 0.840D-03 0.154D-02
 Coeff:      0.237D-02-0.858D-02-0.193D-01 0.199D+00 0.825D+00
 Gap=     0.029 Goal=   None    Shift=    0.000
 RMSDP=1.76D-06 MaxDP=9.12D-05 DE=-3.36D-08 OVMax= 1.44D-04

 Cycle  12  Pass 1  IDiag  1:
 E= -649.178870320076     Delta-E=       -0.000000000744 Rises=F Damp=F
 DIIS: error= 2.64D-06 at cycle  12 NSaved=  12.
 NSaved=12 IEnMin=12 EnMin= -649.178870320076     IErMin=11 ErrMin= 1.85D-06
 ErrMax= 2.64D-06  0.00D+00 EMaxC= 1.00D-01 BMatC= 2.24D-10 BMatP= 4.20D-10
 IDIUse=1 WtCom= 1.00D+00 WtEn= 0.00D+00
 Coeff-Com:  0.713D-04-0.937D-04 0.756D-05-0.113D-03 0.468D-03 0.708D-03
 Coeff-Com:  0.944D-03 0.117D-02-0.709D-02-0.207D-01 0.149D+00 0.875D+00
 Coeff:      0.713D-04-0.937D-04 0.756D-05-0.113D-03 0.468D-03 0.708D-03
 Coeff:      0.944D-03 0.117D-02-0.709D-02-0.207D-01 0.149D+00 0.875D+00
 Gap=     0.029 Goal=   None    Shift=    0.000
 RMSDP=7.07D-07 MaxDP=3.52D-05 DE=-7.44D-10 OVMax= 6.90D-05

 Cycle  13  Pass 1  IDiag  1:
 E= -649.178870322160     Delta-E=       -0.000000002085 Rises=F Damp=F
 DIIS: error= 5.90D-07 at cycle  13 NSaved=  13.
 NSaved=13 IEnMin=13 EnMin= -649.178870322160     IErMin=13 ErrMin= 5.90D-07
 ErrMax= 5.90D-07  0.00D+00 EMaxC= 1.00D-01 BMatC= 7.46D-12 BMatP= 2.24D-10
 IDIUse=1 WtCom= 1.00D+00 WtEn= 0.00D+00
 Coeff-Com:  0.663D-05-0.808D-05-0.159D-06-0.248D-04-0.207D-04 0.443D-05
 Coeff-Com: -0.560D-04 0.945D-03 0.237D-02-0.233D-01-0.193D-02 0.262D+00
 Coeff-Com:  0.760D+00
 Coeff:      0.663D-05-0.808D-05-0.159D-06-0.248D-04-0.207D-04 0.443D-05
 Coeff:     -0.560D-04 0.945D-03 0.237D-02-0.233D-01-0.193D-02 0.262D+00
 Coeff:      0.760D+00
 Gap=     0.029 Goal=   None    Shift=    0.000
 RMSDP=1.79D-07 MaxDP=7.50D-06 DE=-2.08D-09 OVMax= 1.82D-05

 Cycle  14  Pass 1  IDiag  1:
 E= -649.178870322240     Delta-E=       -0.000000000080 Rises=F Damp=F
 DIIS: error= 5.79D-08 at cycle  14 NSaved=  14.
 NSaved=14 IEnMin=14 EnMin= -649.178870322240     IErMin=14 ErrMin= 5.79D-08
 ErrMax= 5.79D-08  0.00D+00 EMaxC= 1.00D-01 BMatC= 9.10D-14 BMatP= 7.46D-12
 IDIUse=1 WtCom= 1.00D+00 WtEn= 0.00D+00
 Coeff-Com: -0.286D-05 0.385D-05-0.642D-07-0.798D-06-0.168D-04-0.279D-04
 Coeff-Com: -0.276D-04 0.165D-04-0.260D-03-0.122D-03-0.786D-02-0.323D-01
 Coeff-Com:  0.569D-01 0.984D+00
 Coeff:     -0.286D-05 0.385D-05-0.642D-07-0.798D-06-0.168D-04-0.279D-04
 Coeff:     -0.276D-04 0.165D-04-0.260D-03-0.122D-03-0.786D-02-0.323D-01
 Coeff:      0.569D-01 0.984D+00
 Gap=     0.029 Goal=   None    Shift=    0.000
 RMSDP=3.84D-08 MaxDP=8.63D-07 DE=-8.01D-11 OVMax= 1.43D-06

 Cycle  15  Pass 1  IDiag  1:
 E= -649.178870322247     Delta-E=       -0.000000000006 Rises=F Damp=F
 DIIS: error= 2.15D-08 at cycle  15 NSaved=  15.
 NSaved=15 IEnMin=15 EnMin= -649.178870322247     IErMin=15 ErrMin= 2.15D-08
 ErrMax= 2.15D-08  0.00D+00 EMaxC= 1.00D-01 BMatC= 1.23D-14 BMatP= 9.10D-14
 IDIUse=1 WtCom= 1.00D+00 WtEn= 0.00D+00
 Coeff-Com: -0.311D-06 0.403D-06-0.128D-06 0.335D-06-0.413D-06 0.239D-05
 Coeff-Com:  0.708D-05-0.186D-04-0.190D-03 0.263D-03-0.246D-03-0.701D-02
 Coeff-Com: -0.494D-02 0.109D+00 0.903D+00
 Coeff:     -0.311D-06 0.403D-06-0.128D-06 0.335D-06-0.413D-06 0.239D-05
 Coeff:      0.708D-05-0.186D-04-0.190D-03 0.263D-03-0.246D-03-0.701D-02
 Coeff:     -0.494D-02 0.109D+00 0.903D+00
 Gap=     0.029 Goal=   None    Shift=    0.000
 RMSDP=5.62D-09 MaxDP=2.42D-07 DE=-6.48D-12 OVMax= 4.03D-07

 SCF Done:  E(RB3LYP) =  -649.178870322     A.U. after   15 cycles
            NFock= 15  Conv=0.56D-08     -V/T= 2.0030
 KE= 6.472063070584D+02 PE=-1.702103030581D+03 EE= 3.341027064772D+02
 Leave Link  502 at Wed Oct  4 14:15:36 2023, MaxMem=  1610612736 cpu:             161.4 elap:              90.9
 (Enter /home/sekinelabo/g16/l601.exe)
 Copying SCF densities to generalized density rwf, IOpCl= 0 IROHF=0.

 **********************************************************************

            Population analysis using the SCF Density.

 **********************************************************************

 Orbital symmetries:
       Occupied  (A) (A) (A) (A) (A) (A) (A) (A) (A) (A) (A) (A)
                 (A) (A) (A) (A) (A) (A) (A) (A) (A) (A)
       Virtual   (A) (A) (A) (A) (A) (A) (A) (A) (A) (A) (A) (A)
                 (A) (A) (A) (A) (A) (A) (A) (A) (A) (A) (A) (A)
                 (A) (A) (A) (A) (A) (A) (A) (A) (A) (A) (A) (A)
                 (A) (A) (A) (A) (A) (A) (A) (A) (A) (A) (A) (A)
                 (A) (A) (A) (A) (A) (A) (A) (A) (A) (A) (A) (A)
                 (A) (A) (A) (A) (A) (A) (A) (A) (A) (A) (A) (A)
                 (A) (A) (A) (A) (A) (A) (A) (A) (A) (A) (A) (A)
                 (A) (A) (A) (A) (A) (A) (A) (A) (A) (A) (A) (A)
                 (A) (A)
 The electronic state is 1-A.
 Alpha  occ. eigenvalues --  -38.46382 -38.45800 -38.44981 -38.44841  -2.22061
 Alpha  occ. eigenvalues --   -2.21507  -2.20674  -2.20540  -1.15742  -1.15741
 Alpha  occ. eigenvalues --   -1.15687  -1.15193  -1.15168  -1.15138  -1.14352
 Alpha  occ. eigenvalues --   -1.14352  -1.14302  -1.14239  -1.14239  -1.14139
 Alpha  occ. eigenvalues --   -0.13654  -0.11250
 Alpha virt. eigenvalues --   -0.08332  -0.05712  -0.02858  -0.02698  -0.02144
 Alpha virt. eigenvalues --   -0.01517  -0.01494  -0.00776  -0.00439   0.00018
 Alpha virt. eigenvalues --    0.00195   0.00666   0.00871   0.00949   0.01298
 Alpha virt. eigenvalues --    0.01329   0.01517   0.01688   0.01828   0.01914
 Alpha virt. eigenvalues --    0.02118   0.02279   0.02365   0.02784   0.02868
 Alpha virt. eigenvalues --    0.03133   0.03398   0.03564   0.03806   0.04860
 Alpha virt. eigenvalues --    0.06617   0.07506   0.07599   0.07679   0.08231
 Alpha virt. eigenvalues --    0.08260   0.08373   0.08659   0.09067   0.09579
 Alpha virt. eigenvalues --    0.09810   0.10544   0.11553   0.12756   0.12912
 Alpha virt. eigenvalues --    0.14351   0.29954   0.30164   0.30767   0.32066
 Alpha virt. eigenvalues --    0.32591   0.34265   0.34310   0.34781   0.35131
 Alpha virt. eigenvalues --    0.35180   0.35384   0.35601   0.36252   0.36557
 Alpha virt. eigenvalues --    0.37134   0.38752   0.39425   0.40427   0.40748
 Alpha virt. eigenvalues --    0.42631   0.42923   0.43502   0.43926   0.44503
 Alpha virt. eigenvalues --    0.44873   0.45077   0.45422   0.46496   0.48020
 Alpha virt. eigenvalues --    0.48555   0.50947   0.53168   1.99067   2.02762
 Alpha virt. eigenvalues --    2.05351   2.09088   4.42074   4.42512   4.42676
 Alpha virt. eigenvalues --    4.43520   4.43837   4.43958   4.44502   4.44836
 Alpha virt. eigenvalues --    4.45029   4.45500   4.46953   4.49679  96.17756
 Alpha virt. eigenvalues --   96.22111  96.25172  96.29501
          Condensed to atoms (all electrons):
               1          2          3          4
     1  Na  10.992805   0.286285   0.090449   0.011141
     2  Na   0.286285  10.806320  -0.038487  -0.012016
     3  Na   0.090449  -0.038487  10.474755   0.096711
     4  Na   0.011141  -0.012016   0.096711  10.857955
 Mulliken charges:
               1
     1  Na  -0.380680
     2  Na  -0.042101
     3  Na   0.376572
     4  Na   0.046209
 Sum of Mulliken charges =  -0.00000
 Mulliken charges with hydrogens summed into heavy atoms:
               1
     1  Na  -0.380680
     2  Na  -0.042101
     3  Na   0.376572
     4  Na   0.046209
 Electronic spatial extent (au):  <R**2>=           2514.9478
 Charge=              0.0000 electrons
 Dipole moment (field-independent basis, Debye):
    X=             -1.7618    Y=             -0.2162    Z=             -0.0541  Tot=              1.7758
 Quadrupole moment (field-independent basis, Debye-Ang):
   XX=            -32.1238   YY=            -33.9734   ZZ=            -45.6419
   XY=              0.5082   XZ=             -0.4219   YZ=             -0.2863
 Traceless Quadrupole moment (field-independent basis, Debye-Ang):
   XX=              5.1226   YY=              3.2729   ZZ=             -8.3955
   XY=              0.5082   XZ=             -0.4219   YZ=             -0.2863
 Octapole moment (field-independent basis, Debye-Ang**2):
  XXX=             29.4206  YYY=              9.9060  ZZZ=             -0.1113  XYY=            -41.3427
  XXY=            -40.4874  XXZ=             -4.4772  XZZ=             -5.4693  YZZ=              0.9295
  YYZ=             -1.2163  XYZ=              1.4539
 Hexadecapole moment (field-independent basis, Debye-Ang**3):
 XXXX=          -3032.6760 YYYY=           -565.7222 ZZZZ=           -208.2626 XXXY=             45.5310
 XXXZ=            -26.5002 YYYX=             -5.3094 YYYZ=             -3.5680 ZZZX=             -1.9314
 ZZZY=             -1.4972 XXYY=           -605.0232 XXZZ=           -676.9486 YYZZ=           -138.5543
 XXYZ=              0.7321 YYXZ=              1.4461 ZZXY=             -0.1456
 N-N= 7.161514672364D+01 E-N=-1.702103030233D+03  KE= 6.472063070584D+02
 No NMR shielding tensors so no spin-rotation constants.
 Leave Link  601 at Wed Oct  4 14:15:41 2023, MaxMem=  1610612736 cpu:               8.2 elap:               4.8
 (Enter /home/sekinelabo/g16/l701.exe)
 ... and contract with generalized density number  0.
 Compute integral first derivatives.
 Leave Link  701 at Wed Oct  4 14:15:44 2023, MaxMem=  1610612736 cpu:               6.6 elap:               3.6
 (Enter /home/sekinelabo/g16/l702.exe)
 L702 exits ... SP integral derivatives will be done elsewhere.
 Leave Link  702 at Wed Oct  4 14:15:45 2023, MaxMem=  1610612736 cpu:               0.6 elap:               0.4
 (Enter /home/sekinelabo/g16/l703.exe)
 Integral derivatives from FoFJK, PRISM(SPDF).
 Compute integral first derivatives, UseDBF=F ICtDFT=           0.
 Calling FoFJK, ICntrl=      2127 FMM=F ISym2X=0 I1Cent= 0 IOpClX= 0 NMat=1 NMatS=1 NMatT=0.
 FoFJK:  IHMeth= 1 ICntrl=    2127 DoSepK=F KAlg= 0 I1Cent=           0 FoldK=F
 IRaf=         0 NMat=       1 IRICut=       1 DoRegI=T DoRafI=F ISym2E= 0 IDoP0=0 IntGTp=1.
 FoFCou: FMM=F IPFlag=           0 FMFlag=      100000 FMFlg1=         800
         NFxFlg=           0 DoJE=F BraDBF=F KetDBF=F FulRan=T
         wScrn=  0.000000 ICntrl=      2127 IOpCl=  0 I1Cent=           0 NGrid=           0
         NMat0=    1 NMatS0=      1 NMatT0=    0 NMatD0=    1 NMtDS0=    0 NMtDT0=    0
 Symmetry not used in FoFCou.
 Leave Link  703 at Wed Oct  4 14:15:52 2023, MaxMem=  1610612736 cpu:              12.3 elap:               6.9
 (Enter /home/sekinelabo/g16/l716.exe)
 Dipole        =-6.93147812D-01-8.50405168D-02-2.12958490D-02
 ***** Axes restored to original set *****
 -------------------------------------------------------------------
 Center     Atomic                   Forces (Hartrees/Bohr)
 Number     Number              X              Y              Z
 -------------------------------------------------------------------
      1       11          -0.001317004   -0.000319092   -0.003771719
      2       11           0.001561223    0.000093452    0.006597950
      3       11           0.005320671   -0.003908988   -0.002302300
      4       11          -0.005564890    0.004134628   -0.000523931
 -------------------------------------------------------------------
 Cartesian Forces:  Max     0.006597950 RMS     0.003643136
 Z-matrix is all fixed cartesians, so copy forces.
 Force constants in Cartesian coordinates: 
                1             2             3             4             5 
      1  0.369878D+00
      2  0.480409D+00  0.623970D+00
      3 -0.473981D-01 -0.615620D-01  0.189326D-01
      4  0.000000D+00  0.000000D+00  0.000000D+00  0.100000D+01
      5  0.000000D+00  0.000000D+00  0.000000D+00  0.000000D+00  0.100000D+01
      6  0.000000D+00  0.000000D+00  0.000000D+00  0.000000D+00  0.000000D+00
      7  0.000000D+00  0.000000D+00  0.000000D+00  0.000000D+00  0.000000D+00
      8  0.000000D+00  0.000000D+00  0.000000D+00  0.000000D+00  0.000000D+00
      9  0.000000D+00  0.000000D+00 -0.128587D-01  0.000000D+00  0.000000D+00
     10  0.000000D+00  0.000000D+00  0.000000D+00  0.000000D+00  0.000000D+00
     11  0.000000D+00  0.000000D+00  0.000000D+00  0.000000D+00  0.000000D+00
     12  0.000000D+00  0.000000D+00  0.000000D+00  0.000000D+00  0.000000D+00
                6             7             8             9            10 
      6  0.100000D+01
      7  0.000000D+00  0.369878D+00
      8  0.000000D+00  0.480409D+00  0.623970D+00
      9  0.000000D+00 -0.473981D-01 -0.615620D-01  0.189326D-01
     10  0.000000D+00  0.000000D+00  0.000000D+00  0.000000D+00  0.100000D+01
     11  0.000000D+00  0.000000D+00  0.000000D+00  0.000000D+00  0.000000D+00
     12  0.000000D+00  0.000000D+00  0.000000D+00  0.000000D+00  0.000000D+00
               11            12 
     11  0.100000D+01
     12  0.000000D+00  0.100000D+01
 Leave Link  716 at Wed Oct  4 14:15:52 2023, MaxMem=  1610612736 cpu:               0.7 elap:               0.5
 (Enter /home/sekinelabo/g16/l103.exe)

 GradGradGradGradGradGradGradGradGradGradGradGradGradGradGradGradGradGrad
 Berny optimization.
 Search for a local minimum.
 Step number   1 out of a maximum of    2
 All quantities printed in internal units (Hartrees-Bohrs-Radians)
 Second derivative matrix not updated -- first step.
 The second derivative matrix:
                          X1        Y1        Z1        X2        Y2
           X1           0.36988
           Y1           0.48041   0.62397
           Z1          -0.04740  -0.06156   0.01893
           X2           0.00000   0.00000   0.00000   1.00000
           Y2           0.00000   0.00000   0.00000   0.00000   1.00000
           Z2           0.00000   0.00000   0.00000  -0.00000   0.00000
           X3          -0.00000   0.00000   0.00000   0.00000   0.00000
           Y3           0.00000  -0.00000  -0.00000   0.00000   0.00000
           Z3           0.00000  -0.00000  -0.01286   0.00000   0.00000
           X4           0.00000   0.00000   0.00000   0.00000   0.00000
           Y4           0.00000   0.00000   0.00000   0.00000   0.00000
           Z4           0.00000   0.00000   0.00000   0.00000   0.00000
                          Z2        X3        Y3        Z3        X4
           Z2           1.00000
           X3           0.00000   0.36988
           Y3           0.00000   0.48041   0.62397
           Z3           0.00000  -0.04740  -0.06156   0.01893
           X4           0.00000   0.00000   0.00000   0.00000   1.00000
           Y4           0.00000   0.00000   0.00000   0.00000   0.00000
           Z4           0.00000   0.00000   0.00000   0.00000  -0.00000
                          Y4        Z4
           Y4           1.00000
           Z4           0.00000   1.00000
 ITU=  0
     Eigenvalues ---    0.02723   0.10660   0.50074   0.57259   1.00000
     Eigenvalues ---    1.00005
 Angle between quadratic step and forces=  53.09 degrees.
 Linear search not attempted -- first point.
 B after Tr=     0.000000   -0.000000   -0.000000
         Rot=    1.000000    0.000000   -0.000000   -0.000000 Ang=   0.00 deg.
 Variable       Old X    -DE/DX   Delta X   Delta X   Delta X     New X
                                 (Linear)    (Quad)   (Total)
    X1        0.00000  -0.00132   0.00000  -0.02786  -0.02786  -0.02786
    Y1       -0.00000  -0.00032   0.00000   0.01714   0.01714   0.01714
    Z1        0.00000  -0.00377   0.00000  -0.04002  -0.04002  -0.04002
    X2       -1.96723   0.00156   0.00000   0.00918   0.00918  -1.95806
    Y2       -0.00000   0.00009   0.00000  -0.00442  -0.00442  -0.00442
    Z2       -7.96106   0.00660   0.00000   0.00801   0.00801  -7.95305
    X3       -0.00000   0.00532   0.00000   0.03053   0.03053   0.03053
    Y3        0.00000  -0.00391   0.00000  -0.02015  -0.02015  -0.02015
    Z3        7.19603  -0.00230   0.00000   0.02104   0.02104   7.21707
    X4        6.59822  -0.00556   0.00000  -0.01184  -0.01184   6.58638
    Y4       -4.86940   0.00413   0.00000   0.00742   0.00742  -4.86198
    Z4        7.60076  -0.00052   0.00000   0.01097   0.01097   7.61173
         Item               Value     Threshold  Converged?
 Maximum Force            0.006598     0.000450     NO 
 RMS     Force            0.003643     0.000300     NO 
 Maximum Displacement     0.040022     0.001800     NO 
 RMS     Displacement     0.020281     0.001200     NO 
 Predicted change in Energy=-2.662392D-04
 GradGradGradGradGradGradGradGradGradGradGradGradGradGradGradGradGradGrad

 Leave Link  103 at Wed Oct  4 14:15:54 2023, MaxMem=  1610612736 cpu:               3.5 elap:               2.0
 (Enter /home/sekinelabo/g16/l9999.exe)
 1\1\GINC-SEKINELABO-XA7R-R37\Force\RB3LYP\6-311+G(d)\Na4\SEKINELABO\04
 -Oct-2023\0\\#p B3LYP/6-311+g(d) force\\\0,1\Na,0.,0.,0.\Na,-1.0410139
 228,0.,-4.21281166\Na,0.,0.,3.8079737128\Na,3.4916287263,-2.5767755496
 ,4.022146908\\Version=ES64L-G16RevB.01\State=1-A\HF=-649.1788703\RMSD=
 5.617e-09\RMSF=3.643e-03\Dipole=0.3116277,-0.2087311,0.5894564\Quadrup
 ole=-0.0466502,-3.1281738,3.174824,-4.3164297,1.1556183,0.2815953\PG=C
 01 [X(Na4)]\\@


 YOU CAN WIPE THE SLATE CLEAN, BUT YOU'LL STILL
 HAVE TO EAT A LITTLE CHALK DUST.
 Job cpu time:       0 days  0 hours  3 minutes 57.8 seconds.
 Elapsed time:       0 days  0 hours  2 minutes 14.0 seconds.
 File lengths (MBytes):  RWF=     10 Int=      0 D2E=      0 Chk=      2 Scr=      1
 Normal termination of Gaussian 16 at Wed Oct  4 14:15:55 2023.
 Initial command:
 /home/sekinelabo/g16/l1.exe "/home/sekinelabo/g16temp/Gau-8194.inp" -scrdir="/home/sekinelabo/g16temp/"
 Entering Link 1 = /home/sekinelabo/g16/l1.exe PID=     12927.
  
 Copyright (c) 1988-2017, Gaussian, Inc.  All Rights Reserved.
  
 This is part of the Gaussian(R) 16 program.  It is based on
 the Gaussian(R) 09 system (copyright 2009, Gaussian, Inc.),
 the Gaussian(R) 03 system (copyright 2003, Gaussian, Inc.),
 the Gaussian(R) 98 system (copyright 1998, Gaussian, Inc.),
 the Gaussian(R) 94 system (copyright 1995, Gaussian, Inc.),
 the Gaussian 92(TM) system (copyright 1992, Gaussian, Inc.),
 the Gaussian 90(TM) system (copyright 1990, Gaussian, Inc.),
 the Gaussian 88(TM) system (copyright 1988, Gaussian, Inc.),
 the Gaussian 86(TM) system (copyright 1986, Carnegie Mellon
 University), and the Gaussian 82(TM) system (copyright 1983,
 Carnegie Mellon University). Gaussian is a federally registered
 trademark of Gaussian, Inc.
  
 This software contains proprietary and confidential information,
 including trade secrets, belonging to Gaussian, Inc.
  
 This software is provided under written license and may be
 used, copied, transmitted, or stored only in accord with that
 written license.
  
 The following legend is applicable only to US Government
 contracts under FAR:
  
                    RESTRICTED RIGHTS LEGEND
  
 Use, reproduction and disclosure by the US Government is
 subject to restrictions as set forth in subparagraphs (a)
 and (c) of the Commercial Computer Software - Restricted
 Rights clause in FAR 52.227-19.
  
 Gaussian, Inc.
 340 Quinnipiac St., Bldg. 40, Wallingford CT 06492
  
  
 ---------------------------------------------------------------
 Warning -- This program may not be used in any manner that
 competes with the business of Gaussian, Inc. or will provide
 assistance to any competitor of Gaussian, Inc.  The licensee
 of this program is prohibited from giving any competitor of
 Gaussian, Inc. access to this program.  By using this program,
 the user acknowledges that Gaussian, Inc. is engaged in the
 business of creating and licensing software in the field of
 computational chemistry and represents and warrants to the
 licensee that it is not a competitor of Gaussian, Inc. and that
 it will not use this program in any manner prohibited above.
 ---------------------------------------------------------------
  

 Cite this work as:
 Gaussian 16, Revision B.01,
 M. J. Frisch, G. W. Trucks, H. B. Schlegel, G. E. Scuseria, 
 M. A. Robb, J. R. Cheeseman, G. Scalmani, V. Barone, 
 G. A. Petersson, H. Nakatsuji, X. Li, M. Caricato, A. V. Marenich, 
 J. Bloino, B. G. Janesko, R. Gomperts, B. Mennucci, H. P. Hratchian, 
 J. V. Ortiz, A. F. Izmaylov, J. L. Sonnenberg, D. Williams-Young, 
 F. Ding, F. Lipparini, F. Egidi, J. Goings, B. Peng, A. Petrone, 
 T. Henderson, D. Ranasinghe, V. G. Zakrzewski, J. Gao, N. Rega, 
 G. Zheng, W. Liang, M. Hada, M. Ehara, K. Toyota, R. Fukuda, 
 J. Hasegawa, M. Ishida, T. Nakajima, Y. Honda, O. Kitao, H. Nakai, 
 T. Vreven, K. Throssell, J. A. Montgomery, Jr., J. E. Peralta, 
 F. Ogliaro, M. J. Bearpark, J. J. Heyd, E. N. Brothers, K. N. Kudin, 
 V. N. Staroverov, T. A. Keith, R. Kobayashi, J. Normand, 
 K. Raghavachari, A. P. Rendell, J. C. Burant, S. S. Iyengar, 
 J. Tomasi, M. Cossi, J. M. Millam, M. Klene, C. Adamo, R. Cammi, 
 J. W. Ochterski, R. L. Martin, K. Morokuma, O. Farkas, 
 J. B. Foresman, and D. J. Fox, Gaussian, Inc., Wallingford CT, 2016.
 
 ******************************************
 Gaussian 16:  ES64L-G16RevB.01 20-Dec-2017
                 4-Oct-2023 
 ******************************************
 %NProcShared=16
 Will use up to   16 processors via shared memory.
 %mem=12GB
 %Chk=checkpoint.chk
 -------------------------
 #p B3LYP/6-311+g(d) force
 -------------------------
 1/10=7,30=1,38=1/1,3;
 2/12=2,17=6,18=5,40=1/2;
 3/5=4,6=6,7=11,11=2,25=1,30=1,71=1,74=-5/1,2,3;
 4//1;
 5/5=2,38=5/2;
 6/7=2,8=2,9=2,10=2,28=1/1;
 7/29=1/1,2,3,16;
 1/10=7,30=1/3;
 99//99;
 Leave Link    1 at Wed Oct  4 14:15:55 2023, MaxMem=  1610612736 cpu:               0.5 elap:               0.3
 (Enter /home/sekinelabo/g16/l101.exe)


 Symbolic Z-matrix:
 Charge =  0 Multiplicity = 1
 Na                    0.        0.        0. 
 Na                   -0.12727   0.        3.0939 
 Na                    0.        0.        5.75257 
 Na                   -1.89569  -4.84907   6.82152 
 
 ITRead=  0  0  0  0
 MicOpt= -1 -1 -1 -1
 NAtoms=      4 NQM=        4 NQMF=       0 NMMI=      0 NMMIF=      0
                NMic=       0 NMicF=      0.
                    Isotopes and Nuclear Properties:
 (Nuclear quadrupole moments (NQMom) in fm**2, nuclear magnetic moments (NMagM)
  in nuclear magnetons)

  Atom         1           2           3           4
 IAtWgt=          23          23          23          23
 AtmWgt=  22.9897697  22.9897697  22.9897697  22.9897697
 NucSpn=           3           3           3           3
 AtZEff=  -0.0000000  -0.0000000  -0.0000000  -0.0000000
 NQMom=   10.4000000  10.4000000  10.4000000  10.4000000
 NMagM=    2.2175200   2.2175200   2.2175200   2.2175200
 AtZNuc=  11.0000000  11.0000000  11.0000000  11.0000000
 Leave Link  101 at Wed Oct  4 14:15:56 2023, MaxMem=  1610612736 cpu:               2.0 elap:               1.1
 (Enter /home/sekinelabo/g16/l103.exe)

 GradGradGradGradGradGradGradGradGradGradGradGradGradGradGradGradGradGrad
 Berny optimization.
 Initialization pass.
 Trust Radius=3.00D-01 FncErr=1.00D-07 GrdErr=1.00D-07 EigMax=2.50D+02 EigMin=1.00D-04
 Number of steps in this run=      2 maximum allowed number of steps=      2.
 GradGradGradGradGradGradGradGradGradGradGradGradGradGradGradGradGradGrad

 Leave Link  103 at Wed Oct  4 14:15:57 2023, MaxMem=  1610612736 cpu:               0.6 elap:               0.4
 (Enter /home/sekinelabo/g16/l202.exe)
                          Input orientation:                          
 ---------------------------------------------------------------------
 Center     Atomic      Atomic             Coordinates (Angstroms)
 Number     Number       Type             X           Y           Z
 ---------------------------------------------------------------------
      1         11           0        0.000000    0.000000    0.000000
      2         11           0       -0.127265    0.000000    3.093900
[...]
 ErrMax= 2.78D-03  0.00D+00 EMaxC= 1.00D-01 BMatC= 8.92D-04 BMatP= 4.54D-04
 IDIUse=3 WtCom= 1.59D-01 WtEn= 8.41D-01
 Coeff-Com:  0.102D-01-0.116D-01 0.585D+00 0.416D+00
 Coeff-En:   0.000D+00 0.000D+00 0.623D+00 0.377D+00
 Coeff:      0.163D-02-0.186D-02 0.617D+00 0.383D+00
 Gap=     0.046 Goal=   None    Shift=    0.000
 RMSDP=1.28D-03 MaxDP=8.21D-02 DE= 2.56D-03 OVMax= 1.02D-01

 Cycle   5  Pass 1  IDiag  1:
 E= -649.194613228195     Delta-E=       -0.005260850853 Rises=F Damp=F
 DIIS: error= 3.14D-04 at cycle   5 NSaved=   5.
 NSaved= 5 IEnMin= 5 EnMin= -649.194613228195     IErMin= 5 ErrMin= 3.14D-04
 ErrMax= 3.14D-04  0.00D+00 EMaxC= 1.00D-01 BMatC= 1.27D-05 BMatP= 4.54D-04
 IDIUse=3 WtCom= 9.97D-01 WtEn= 3.14D-03
 Coeff-Com: -0.630D-03-0.347D-03 0.186D+00 0.462D-01 0.769D+00
 Coeff-En:   0.000D+00 0.000D+00 0.000D+00 0.000D+00 0.100D+01
 Coeff:     -0.628D-03-0.346D-03 0.185D+00 0.460D-01 0.770D+00
 Gap=     0.046 Goal=   None    Shift=    0.000
 RMSDP=1.65D-04 MaxDP=9.87D-03 DE=-5.26D-03 OVMax= 1.37D-02

 Cycle   6  Pass 1  IDiag  1:
 E= -649.194684104186     Delta-E=       -0.000070875991 Rises=F Damp=F
 DIIS: error= 4.26D-05 at cycle   6 NSaved=   6.
 NSaved= 6 IEnMin= 6 EnMin= -649.194684104186     IErMin= 6 ErrMin= 4.26D-05
 ErrMax= 4.26D-05  0.00D+00 EMaxC= 1.00D-01 BMatC= 2.14D-07 BMatP= 1.27D-05
 IDIUse=1 WtCom= 1.00D+00 WtEn= 0.00D+00
 Coeff-Com: -0.219D-02 0.249D-02 0.287D-01-0.755D-02 0.214D+00 0.765D+00
 Coeff:     -0.219D-02 0.249D-02 0.287D-01-0.755D-02 0.214D+00 0.765D+00
 Gap=     0.046 Goal=   None    Shift=    0.000
 RMSDP=3.96D-05 MaxDP=1.63D-03 DE=-7.09D-05 OVMax= 1.99D-03

 Cycle   7  Pass 1  IDiag  1:
 E= -649.194684731950     Delta-E=       -0.000000627765 Rises=F Damp=F
 DIIS: error= 2.23D-05 at cycle   7 NSaved=   7.
 NSaved= 7 IEnMin= 7 EnMin= -649.194684731950     IErMin= 7 ErrMin= 2.23D-05
 ErrMax= 2.23D-05  0.00D+00 EMaxC= 1.00D-01 BMatC= 7.71D-08 BMatP= 2.14D-07
 IDIUse=1 WtCom= 1.00D+00 WtEn= 0.00D+00
 Coeff-Com: -0.106D-02 0.133D-02-0.111D-02-0.672D-02 0.218D-01 0.395D+00
 Coeff-Com:  0.591D+00
 Coeff:     -0.106D-02 0.133D-02-0.111D-02-0.672D-02 0.218D-01 0.395D+00
 Coeff:      0.591D+00
 Gap=     0.046 Goal=   None    Shift=    0.000
 RMSDP=1.27D-05 MaxDP=6.60D-04 DE=-6.28D-07 OVMax= 7.76D-04

 Cycle   8  Pass 1  IDiag  1:
 E= -649.194685038722     Delta-E=       -0.000000306772 Rises=F Damp=F
 DIIS: error= 2.97D-06 at cycle   8 NSaved=   8.
 NSaved= 8 IEnMin= 8 EnMin= -649.194685038722     IErMin= 8 ErrMin= 2.97D-06
 ErrMax= 2.97D-06  0.00D+00 EMaxC= 1.00D-01 BMatC= 1.49D-09 BMatP= 7.71D-08
 IDIUse=1 WtCom= 1.00D+00 WtEn= 0.00D+00
 Coeff-Com:  0.425D-04-0.557D-04-0.144D-02-0.119D-02-0.827D-02 0.606D-01
 Coeff-Com:  0.143D+00 0.807D+00
 Coeff:      0.425D-04-0.557D-04-0.144D-02-0.119D-02-0.827D-02 0.606D-01
 Coeff:      0.143D+00 0.807D+00
 Gap=     0.046 Goal=   None    Shift=    0.000
 RMSDP=2.61D-06 MaxDP=1.15D-04 DE=-3.07D-07 OVMax= 1.62D-04

 Cycle   9  Pass 1  IDiag  1:
 E= -649.194685044280     Delta-E=       -0.000000005557 Rises=F Damp=F
 DIIS: error= 1.39D-06 at cycle   9 NSaved=   9.
 NSaved= 9 IEnMin= 9 EnMin= -649.194685044280     IErMin= 9 ErrMin= 1.39D-06
 ErrMax= 1.39D-06  0.00D+00 EMaxC= 1.00D-01 BMatC= 1.78D-10 BMatP= 1.49D-09
 IDIUse=1 WtCom= 1.00D+00 WtEn= 0.00D+00
 Coeff-Com:  0.124D-03-0.159D-03-0.792D-03 0.248D-05-0.481D-02-0.175D-01
 Coeff-Com:  0.109D-01 0.237D+00 0.775D+00
 Coeff:      0.124D-03-0.159D-03-0.792D-03 0.248D-05-0.481D-02-0.175D-01
 Coeff:      0.109D-01 0.237D+00 0.775D+00
 Gap=     0.046 Goal=   None    Shift=    0.000
 RMSDP=1.32D-06 MaxDP=4.34D-05 DE=-5.56D-09 OVMax= 5.83D-05

 Cycle  10  Pass 1  IDiag  1:
 E= -649.194685045252     Delta-E=       -0.000000000972 Rises=F Damp=F
 DIIS: error= 1.39D-07 at cycle  10 NSaved=  10.
 NSaved=10 IEnMin=10 EnMin= -649.194685045252     IErMin=10 ErrMin= 1.39D-07
 ErrMax= 1.39D-07  0.00D+00 EMaxC= 1.00D-01 BMatC= 3.59D-12 BMatP= 1.78D-10
 IDIUse=1 WtCom= 1.00D+00 WtEn= 0.00D+00
 Coeff-Com:  0.207D-04-0.262D-04-0.100D-03 0.652D-04-0.885D-03-0.824D-02
 Coeff-Com: -0.569D-02 0.175D-01 0.109D+00 0.888D+00
 Coeff:      0.207D-04-0.262D-04-0.100D-03 0.652D-04-0.885D-03-0.824D-02
 Coeff:     -0.569D-02 0.175D-01 0.109D+00 0.888D+00
 Gap=     0.046 Goal=   None    Shift=    0.000
 RMSDP=2.26D-07 MaxDP=7.67D-06 DE=-9.72D-10 OVMax= 8.95D-06

 Cycle  11  Pass 1  IDiag  1:
 E= -649.194685045275     Delta-E=       -0.000000000023 Rises=F Damp=F
 DIIS: error= 5.87D-08 at cycle  11 NSaved=  11.
 NSaved=11 IEnMin=11 EnMin= -649.194685045275     IErMin=11 ErrMin= 5.87D-08
 ErrMax= 5.87D-08  0.00D+00 EMaxC= 1.00D-01 BMatC= 3.88D-13 BMatP= 3.59D-12
 IDIUse=1 WtCom= 1.00D+00 WtEn= 0.00D+00
 Coeff-Com: -0.568D-05 0.748D-05-0.729D-05 0.554D-05-0.259D-04-0.791D-04
 Coeff-Com: -0.223D-03-0.239D-02-0.186D-01 0.163D+00 0.858D+00
 Coeff:     -0.568D-05 0.748D-05-0.729D-05 0.554D-05-0.259D-04-0.791D-04
 Coeff:     -0.223D-03-0.239D-02-0.186D-01 0.163D+00 0.858D+00
 Gap=     0.046 Goal=   None    Shift=    0.000
 RMSDP=6.09D-08 MaxDP=1.86D-06 DE=-2.33D-11 OVMax= 2.62D-06

 Cycle  12  Pass 1  IDiag  1:
 E= -649.194685045270     Delta-E=        0.000000000005 Rises=F Damp=F
 DIIS: error= 1.04D-08 at cycle  12 NSaved=  12.
 NSaved=12 IEnMin=11 EnMin= -649.194685045275     IErMin=12 ErrMin= 1.04D-08
 ErrMax= 1.04D-08  0.00D+00 EMaxC= 1.00D-01 BMatC= 1.75D-14 BMatP= 3.88D-13
 IDIUse=1 WtCom= 1.00D+00 WtEn= 0.00D+00
 Coeff-Com: -0.204D-05 0.267D-05-0.243D-06 0.141D-05 0.113D-05 0.286D-03
 Coeff-Com:  0.270D-03-0.156D-02-0.700D-02 0.493D-02 0.260D+00 0.744D+00
 Coeff:     -0.204D-05 0.267D-05-0.243D-06 0.141D-05 0.113D-05 0.286D-03
 Coeff:      0.270D-03-0.156D-02-0.700D-02 0.493D-02 0.260D+00 0.744D+00
 Gap=     0.046 Goal=   None    Shift=    0.000
 RMSDP=7.40D-09 MaxDP=2.87D-07 DE= 4.89D-12 OVMax= 3.12D-07

 SCF Done:  E(RB3LYP) =  -649.194685045     A.U. after   12 cycles
            NFock= 12  Conv=0.74D-08     -V/T= 2.0029
 KE= 6.473325299915D+02 PE=-1.729792030272D+03 EE= 3.480198380420D+02
 Leave Link  502 at Wed Oct  4 16:59:26 2023, MaxMem=  1610612736 cpu:              92.5 elap:              15.6
 (Enter /home/sekinelabo/g16/l601.exe)
 Copying SCF densities to generalized density rwf, IOpCl= 0 IROHF=0.

 **********************************************************************

            Population analysis using the SCF Density.

 **********************************************************************

 Orbital symmetries:
       Occupied  (A) (A) (A) (A) (A) (A) (A) (A) (A) (A) (A) (A)
                 (A) (A) (A) (A) (A) (A) (A) (A) (A) (A)
       Virtual   (A) (A) (A) (A) (A) (A) (A) (A) (A) (A) (A) (A)
                 (A) (A) (A) (A) (A) (A) (A) (A) (A) (A) (A) (A)
                 (A) (A) (A) (A) (A) (A) (A) (A) (A) (A) (A) (A)
                 (A) (A) (A) (A) (A) (A) (A) (A) (A) (A) (A) (A)
                 (A) (A) (A) (A) (A) (A) (A) (A) (A) (A) (A) (A)
                 (A) (A) (A) (A) (A) (A) (A) (A) (A) (A) (A) (A)
                 (A) (A) (A) (A) (A) (A) (A) (A) (A) (A) (A) (A)
                 (A) (A) (A) (A) (A) (A) (A) (A) (A) (A) (A) (A)
                 (A) (A)
 The electronic state is 1-A.
 Alpha  occ. eigenvalues --  -38.45761 -38.45337 -38.43835 -38.43572  -2.21460
 Alpha  occ. eigenvalues --   -2.21060  -2.19674  -2.19419  -1.15139  -1.15138
 Alpha  occ. eigenvalues --   -1.15077  -1.14742  -1.14733  -1.14679  -1.13556
 Alpha  occ. eigenvalues --   -1.13301  -1.13301  -1.13061  -1.13058  -1.12981
 Alpha  occ. eigenvalues --   -0.14158  -0.12036
 Alpha virt. eigenvalues --   -0.07441  -0.04413  -0.02954  -0.02648  -0.01740
 Alpha virt. eigenvalues --   -0.01402  -0.01337  -0.00137   0.00091   0.00283
 Alpha virt. eigenvalues --    0.00565   0.00922   0.01082   0.01225   0.01349
 Alpha virt. eigenvalues --    0.01507   0.01683   0.01902   0.02005   0.02231
 Alpha virt. eigenvalues --    0.02359   0.02491   0.02676   0.03222   0.03273
 Alpha virt. eigenvalues --    0.03432   0.03756   0.03930   0.04644   0.05449
 Alpha virt. eigenvalues --    0.06823   0.07377   0.07451   0.07972   0.08085
 Alpha virt. eigenvalues --    0.08429   0.08628   0.08899   0.09489   0.10150
 Alpha virt. eigenvalues --    0.10942   0.11383   0.12336   0.13386   0.13841
 Alpha virt. eigenvalues --    0.17617   0.28471   0.29214   0.30922   0.31645
 Alpha virt. eigenvalues --    0.32345   0.32525   0.33242   0.33800   0.34800
 Alpha virt. eigenvalues --    0.35178   0.36969   0.38705   0.39188   0.39657
 Alpha virt. eigenvalues --    0.40269   0.41048   0.41957   0.43186   0.43400
 Alpha virt. eigenvalues --    0.43536   0.43931   0.44292   0.44786   0.45259
 Alpha virt. eigenvalues --    0.45534   0.47194   0.48084   0.50061   0.52290
 Alpha virt. eigenvalues --    0.53789   0.57024   0.82171   2.00661   2.06200
 Alpha virt. eigenvalues --    2.10900   2.13720   4.43203   4.43259   4.43570
 Alpha virt. eigenvalues --    4.43871   4.44076   4.44133   4.44718   4.45958
 Alpha virt. eigenvalues --    4.46240   4.48074   4.48223   4.75740  96.19608
 Alpha virt. eigenvalues --   96.26131  96.31977  96.36666
          Condensed to atoms (all electrons):
               1          2          3          4
     1  Na  11.503482   0.264056  -0.050060  -0.122469
     2  Na   0.264056  10.451380  -0.015093   0.012615
     3  Na  -0.050060  -0.015093  10.586439   0.244044
     4  Na  -0.122469   0.012615   0.244044  10.792513
 Mulliken charges:
               1
     1  Na  -0.595009
     2  Na   0.287042
     3  Na   0.234669
     4  Na   0.073297
 Sum of Mulliken charges =  -0.00000
 Mulliken charges with hydrogens summed into heavy atoms:
               1
     1  Na  -0.595009
     2  Na   0.287042
     3  Na   0.234669
     4  Na   0.073297
 Electronic spatial extent (au):  <R**2>=           1848.5717
 Charge=             -0.0000 electrons
 Dipole moment (field-independent basis, Debye):
    X=             -1.1756    Y=             -0.2557    Z=             -0.1602  Tot=              1.2137
 Quadrupole moment (field-independent basis, Debye-Ang):
   XX=            -31.9815   YY=            -34.1018   ZZ=            -44.0020
   XY=              2.9627   XZ=             -1.4038   YZ=             -0.1349
 Traceless Quadrupole moment (field-independent basis, Debye-Ang):
   XX=              4.7136   YY=              2.5933   ZZ=             -7.3069
   XY=              2.9627   XZ=             -1.4038   YZ=             -0.1349
 Octapole moment (field-independent basis, Debye-Ang**2):
  XXX=             16.8141  YYY=              8.6011  ZZZ=             -0.3280  XYY=            -24.8542
  XXY=            -45.7049  XXZ=             -9.6773  XZZ=             -0.3460  YZZ=              0.1529
  YYZ=             -1.5886  XYZ=              1.9078
 Hexadecapole moment (field-independent basis, Debye-Ang**3):
 XXXX=          -2133.1834 YYYY=           -417.8442 ZZZZ=           -193.7507 XXXY=             98.4062
 XXXZ=            -49.8707 YYYX=              9.2977 YYYZ=             -2.3770 ZZZX=             -6.3959
 ZZZY=             -0.6806 XXYY=           -446.1028 XXZZ=           -486.6939 YYZZ=           -107.8827
 XXYZ=              5.9971 YYXZ=             -0.9556 ZZXY=              4.2577
 N-N= 8.524497719340D+01 E-N=-1.729792031119D+03  KE= 6.473325299915D+02
 No NMR shielding tensors so no spin-rotation constants.
 Leave Link  601 at Wed Oct  4 16:59:27 2023, MaxMem=  1610612736 cpu:               3.9 elap:               0.4
 (Enter /home/sekinelabo/g16/l701.exe)
 ... and contract with generalized density number  0.
 Compute integral first derivatives.
 Leave Link  701 at Wed Oct  4 16:59:27 2023, MaxMem=  1610612736 cpu:               4.4 elap:               0.3
 (Enter /home/sekinelabo/g16/l702.exe)
 L702 exits ... SP integral derivatives will be done elsewhere.
 Leave Link  702 at Wed Oct  4 16:59:27 2023, MaxMem=  1610612736 cpu:               0.5 elap:               0.0
 (Enter /home/sekinelabo/g16/l703.exe)
 Integral derivatives from FoFJK, PRISM(SPDF).
 Compute integral first derivatives, UseDBF=F ICtDFT=           0.
 Calling FoFJK, ICntrl=      2127 FMM=F ISym2X=0 I1Cent= 0 IOpClX= 0 NMat=1 NMatS=1 NMatT=0.
 FoFJK:  IHMeth= 1 ICntrl=    2127 DoSepK=F KAlg= 0 I1Cent=           0 FoldK=F
 IRaf=         0 NMat=       1 IRICut=       1 DoRegI=T DoRafI=F ISym2E= 0 IDoP0=0 IntGTp=1.
 FoFCou: FMM=F IPFlag=           0 FMFlag=      100000 FMFlg1=         800
         NFxFlg=           0 DoJE=F BraDBF=F KetDBF=F FulRan=T
         wScrn=  0.000000 ICntrl=      2127 IOpCl=  0 I1Cent=           0 NGrid=           0
         NMat0=    1 NMatS0=      1 NMatT0=    0 NMatD0=    1 NMtDS0=    0 NMtDT0=    0
 Symmetry not used in FoFCou.
 Leave Link  703 at Wed Oct  4 16:59:28 2023, MaxMem=  1610612736 cpu:               7.6 elap:               0.5
 (Enter /home/sekinelabo/g16/l716.exe)
 Dipole        =-4.62501568D-01-1.00603862D-01-6.30433090D-02
 ***** Axes restored to original set *****
 -------------------------------------------------------------------
 Center     Atomic                   Forces (Hartrees/Bohr)
 Number     Number              X              Y              Z
 -------------------------------------------------------------------
      1       11           0.003733272   -0.000582220    0.008827641
      2       11          -0.003534270    0.000281301   -0.007938994
      3       11           0.004348969   -0.005718078    0.000244654
      4       11          -0.004547971    0.006018997   -0.001133301
 -------------------------------------------------------------------
 Cartesian Forces:  Max     0.008827641 RMS     0.004810301
 Z-matrix is all fixed cartesians, so copy forces.
 Force constants in Cartesian coordinates: 
                1             2             3             4             5 
      1  0.351761D-01
      2 -0.240545D-02  0.456747D-02
      3  0.137542D-01  0.000000D+00  0.608752D-01
      4 -0.222640D-01  0.000000D+00 -0.163817D-01  0.161059D-01
      5  0.162900D-04 -0.899854D-03  0.000000D+00  0.000000D+00  0.544573D-03
      6 -0.137542D-01  0.000000D+00 -0.475104D-01  0.163817D-01  0.000000D+00
      7 -0.131458D-01  0.290291D-02  0.262748D-02  0.615807D-02 -0.137021D-03
      8  0.268434D-02 -0.389950D-02  0.000000D+00  0.000000D+00  0.262062D-03
      9  0.287095D-02 -0.371832D-02 -0.133648D-01  0.000000D+00  0.000000D+00
     10  0.233677D-03 -0.497466D-03  0.000000D+00  0.000000D+00  0.120731D-03
     11 -0.295181D-03  0.231882D-03  0.000000D+00  0.000000D+00  0.932181D-04
     12 -0.287095D-02  0.371832D-02  0.000000D+00  0.000000D+00  0.000000D+00
                6             7             8             9            10 
      6  0.475104D-01
      7 -0.262748D-02  0.114769D-01
      8  0.000000D+00 -0.851726D-02  0.110718D-01
      9  0.000000D+00 -0.232949D-02  0.301704D-02  0.180463D-01
     10  0.000000D+00 -0.448919D-02  0.583292D-02 -0.541461D-03  0.425551D-02
     11  0.000000D+00  0.575137D-02 -0.743440D-02  0.701274D-03 -0.545619D-02
     12  0.000000D+00  0.232949D-02 -0.301704D-02 -0.468146D-02  0.541461D-03
               11            12 
     11  0.710930D-02
     12 -0.701274D-03  0.468146D-02
 Leave Link  716 at Wed Oct  4 16:59:28 2023, MaxMem=  1610612736 cpu:               0.3 elap:               0.0
 (Enter /home/sekinelabo/g16/l103.exe)

 GradGradGradGradGradGradGradGradGradGradGradGradGradGradGradGradGradGrad
 Berny optimization.
 Search for a local minimum.
 Step number   1 out of a maximum of    2
 All quantities printed in internal units (Hartrees-Bohrs-Radians)
 Second derivative matrix not updated -- first step.
 The second derivative matrix:
                          X1        Y1        Z1        X2        Y2
           X1           0.03518
           Y1          -0.00241   0.00457
           Z1           0.01375  -0.00000   0.06088
           X2          -0.02226  -0.00000  -0.01638   0.01611
           Y2           0.00002  -0.00090  -0.00000   0.00000   0.00054
           Z2          -0.01375   0.00000  -0.04751   0.01638  -0.00000
           X3          -0.01315   0.00290   0.00263   0.00616  -0.00014
           Y3           0.00268  -0.00390   0.00000   0.00000   0.00026
           Z3           0.00287  -0.00372  -0.01336   0.00000  -0.00000
           X4           0.00023  -0.00050   0.00000  -0.00000   0.00012
           Y4          -0.00030   0.00023  -0.00000  -0.00000   0.00009
           Z4          -0.00287   0.00372  -0.00000   0.00000   0.00000
                          Z2        X3        Y3        Z3        X4
           Z2           0.04751
           X3          -0.00263   0.01148
           Y3          -0.00000  -0.00852   0.01107
           Z3          -0.00000  -0.00233   0.00302   0.01805
           X4          -0.00000  -0.00449   0.00583  -0.00054   0.00426
           Y4          -0.00000   0.00575  -0.00743   0.00070  -0.00546
           Z4           0.00000   0.00233  -0.00302  -0.00468   0.00054
                          Y4        Z4
           Y4           0.00711
           Z4          -0.00070   0.00468
 ITU=  0
     Eigenvalues ---    0.00152   0.00882   0.02179   0.02413   0.04885
     Eigenvalues ---    0.11632
 Quadratic step=6.026D-01 exceeds max=3.000D-01 adjusted using Lamda=-1.510D-02.
 Angle between NR and scaled steps=  25.12 degrees.
 Angle between quadratic step and forces=  32.65 degrees.
 Linear search not attempted -- first point.
 B after Tr=     0.000000    0.000000    0.000000
         Rot=    1.000000   -0.000000    0.000000   -0.000000 Ang=   0.00 deg.
 Variable       Old X    -DE/DX   Delta X   Delta X   Delta X     New X
                                 (Linear)    (Quad)   (Total)
    X1       -0.00000   0.00373   0.00000   0.05517   0.05517   0.05517
    Y1        0.00000  -0.00058   0.00000  -0.05210  -0.05210  -0.05210
    Z1       -0.00000   0.00883   0.00000   0.07158   0.07158   0.07158
    X2       -2.05511  -0.00353   0.00000  -0.03059  -0.03059  -2.08570
    Y2        0.00000   0.00028   0.00000   0.01799   0.01799   0.01799
    Z2       -4.81661  -0.00794   0.00000  -0.04820  -0.04820  -4.86482
    X3        0.00000   0.00435   0.00000   0.09912   0.09912   0.09912
    Y3       -0.00000  -0.00572   0.00000  -0.13436  -0.13436  -0.13436
    Z3        7.13047   0.00024   0.00000   0.03148   0.03148   7.16195
    X4        4.48411  -0.00455   0.00000  -0.12370  -0.12370   4.36041
    Y4       -5.80760   0.00602   0.00000   0.16846   0.16846  -5.63914
    Z4        8.09256  -0.00113   0.00000  -0.05486  -0.05486   8.03771
         Item               Value     Threshold  Converged?
 Maximum Force            0.008828     0.000450     NO 
 RMS     Force            0.004810     0.000300     NO 
 Maximum Displacement     0.168459     0.001800     NO 
 RMS     Displacement     0.086613     0.001200     NO 
 Predicted change in Energy=-2.784504D-03
 GradGradGradGradGradGradGradGradGradGradGradGradGradGradGradGradGradGrad

 Leave Link  103 at Wed Oct  4 16:59:28 2023, MaxMem=  1610612736 cpu:               0.1 elap:               0.0
 (Enter /home/sekinelabo/g16/l9999.exe)
 1\1\GINC-SEKINELABO-XA7R-R37\Force\RB3LYP\6-311+G(d)\Na4\SEKINELABO\04
 -Oct-2023\0\\#p B3LYP/6-311+g(d) force\\\0,1\Na,0.,0.,0.\Na,-1.0875190
 61,0.,-2.5488425438\Na,0.,0.,3.7732807867\Na,2.3728910838,-3.073249465
 8,4.2823996203\\Version=ES64L-G16RevB.01\State=1-A\HF=-649.194685\RMSD
 =7.398e-09\RMSF=4.810e-03\Dipole=0.1624301,-0.2575916,0.3677858\Quadru
 pole=-1.2349689,0.1994807,1.0354882,-4.6129079,2.4209228,-0.4983039\PG
 =C01 [X(Na4)]\\@


 IT CANNOT BE MY BEAUTY, FOR I HAVE NONE; AND IT CANNOT BE MY WIT,
 FOR HE HAS NOT ENOUGH TO KNOW THAT I HAVE ANY.
 -- CATHARINE SEDLEY, PUZZLED ABOUT WHY SHE WAS MISTRESS TO JAMES II
 Job cpu time:       0 days  0 hours  2 minutes 23.6 seconds.
 Elapsed time:       0 days  0 hours  0 minutes 23.3 seconds.
 File lengths (MBytes):  RWF=     10 Int=      0 D2E=      0 Chk=      2 Scr=      1
 Normal termination of Gaussian 16 at Wed Oct  4 16:59:28 2023.
