 Entering Gaussian System, Link 0=g16
 Initial command:
 /home/sekinelabo/g16/l1.exe "/home/sekinelabo/g16temp/Gau-8096.inp" -scrdir="/home/sekinelabo/g16temp/"
 Entering Link 1 = /home/sekinelabo/g16/l1.exe PID=      8105.
  
 Copyright (c) 1988-2017, Gaussian, Inc.  All Rights Reserved.
  
 This is part of the Gaussian(R) 16 program.  It is based on
 the Gaussian(R) 09 system (copyright 2009, Gaussian, Inc.),
 the Gaussian(R) 03 system (copyright 2003, Gaussian, Inc.),
 the Gaussian(R) 98 system (copyright 1998, Gaussian, Inc.),
 the Gaussian(R) 94 system (copyright 1995, Gaussian, Inc.),
 the Gaussian 92(TM) system (copyright 1992, Gaussian, Inc.),
 the Gaussian 90(TM) system (copyright 1990, Gaussian, Inc.),
 the Gaussian 88(TM) system (copyright 1988, Gaussian, Inc.),
 the Gaussian 86(TM) system (copyright 1986, Carnegie Mellon
 University), and the Gaussian 82(TM) system (copyright 1983,
 Carnegie Mellon University). Gaussian is a federally registered
 trademark of Gaussian, Inc.
  
 This software contains proprietary and confidential information,
 including trade secrets, belonging to Gaussian, Inc.
  
 This software is provided under written license and may be
 used, copied, transmitted, or stored only in accord with that
 written license.
  
 The following legend is applicable only to US Government
 contracts under FAR:
  
                    RESTRICTED RIGHTS LEGEND
  
 Use, reproduction and disclosure by the US Government is
 subject to restrictions as set forth in subparagraphs (a)
 and (c) of the Commercial Computer Software - Restricted
 Rights clause in FAR 52.227-19.
  
 Gaussian, Inc.
 340 Quinnipiac St., Bldg. 40, Wallingford CT 06492
  
  
 ---------------------------------------------------------------
 Warning -- This program may not be used in any manner that
 competes with the business of Gaussian, Inc. or will provide
 assistance to any competitor of Gaussian, Inc.  The licensee
 of this program is prohibited from giving any competitor of
 Gaussian, Inc. access to this program.  By using this program,
 the user acknowledges that Gaussian, Inc. is engaged in the
 business of creating and licensing software in the field of
 computational chemistry and represents and warrants to the
 licensee that it is not a competitor of Gaussian, Inc. and that
 it will not use this program in any manner prohibited above.
 ---------------------------------------------------------------
  

 Cite this work as:
 Gaussian 16, Revision B.01,
 M. J. Frisch, G. W. Trucks, H. B. Schlegel, G. E. Scuseria, 
 M. A. Robb, J. R. Cheeseman, G. Scalmani, V. Barone, 
 G. A. Petersson, H. Nakatsuji, X. Li, M. Caricato, A. V. Marenich, 
 J. Bloino, B. G. Janesko, R. Gomperts, B. Mennucci, H. P. Hratchian, 
 J. V. Ortiz, A. F. Izmaylov, J. L. Sonnenberg, D. Williams-Young, 
 F. Ding, F. Lipparini, F. Egidi, J. Goings, B. Peng, A. Petrone, 
 T. Henderson, D. Ranasinghe, V. G. Zakrzewski, J. Gao, N. Rega, 
 G. Zheng, W. Liang, M. Hada, M. Ehara, K. Toyota, R. Fukuda, 
 J. Hasegawa, M. Ishida, T. Nakajima, Y. Honda, O. Kitao, H. Nakai, 
 T. Vreven, K. Throssell, J. A. Montgomery, Jr., J. E. Peralta, 
 F. Ogliaro, M. J. Bearpark, J. J. Heyd, E. N. Brothers, K. N. Kudin, 
 V. N. Staroverov, T. A. Keith, R. Kobayashi, J. Normand, 
 K. Raghavachari, A. P. Rendell, J. C. Burant, S. S. Iyengar, 
 J. Tomasi, M. Cossi, J. M. Millam, M. Klene, C. Adamo, R. Cammi, 
 J. W. Ochterski, R. L. Martin, K. Morokuma, O. Farkas, 
 J. B. Foresman, and D. J. Fox, Gaussian, Inc., Wallingford CT, 2016.
 
 ******************************************
 Gaussian 16:  ES64L-G16RevB.01 20-Dec-2017
                 4-Oct-2023 
 ******************************************
 %NProcShared=16
 Will use up to   16 processors via shared memory.
 %mem=12GB
 %Chk=checkpoint.chk
 -------------------------
 #p B3LYP/6-311+g(d) force
 -------------------------
 1/10=7,30=1,38=1/1,3;
 2/12=2,17=6,18=5,40=1/2;
 3/5=4,6=6,7=11,11=2,25=1,30=1,71=1,74=-5/1,2,3;
 4//1;
 5/5=2,38=5/2;
 6/7=2,8=2,9=2,10=2,28=1/1;
 7/29=1/1,2,3,16;
 1/10=7,30=1/3;
 99//99;
 Leave Link    1 at Wed Oct  4 14:11:22 2023, MaxMem=  1610612736 cpu:               0.7 elap:               0.2
 (Enter /home/sekinelabo/g16/l101.exe)


 Symbolic Z-matrix:
 Charge =  0 Multiplicity = 1
 Na                    0.        0.        0. 
 Na                   -1.62523   0.       -1.56246 
 Na                    0.        0.        3.83604 
 Na                    0.54936  -0.74925   6.6831 
 
 ITRead=  0  0  0  0
 MicOpt= -1 -1 -1 -1
 NAtoms=      4 NQM=        4 NQMF=       0 NMMI=      0 NMMIF=      0
                NMic=       0 NMicF=      0.
                    Isotopes and Nuclear Properties:
 (Nuclear quadrupole moments (NQMom) in fm**2, nuclear magnetic moments (NMagM)
  in nuclear magnetons)

  Atom         1           2           3           4
 IAtWgt=          23          23          23          23
 AtmWgt=  22.9897697  22.9897697  22.9897697  22.9897697
 NucSpn=           3           3           3           3
 AtZEff=  -0.0000000  -0.0000000  -0.0000000  -0.0000000
 NQMom=   10.4000000  10.4000000  10.4000000  10.4000000
 NMagM=    2.2175200   2.2175200   2.2175200   2.2175200
 AtZNuc=  11.0000000  11.0000000  11.0000000  11.0000000
 Leave Link  101 at Wed Oct  4 14:11:23 2023, MaxMem=  1610612736 cpu:               2.0 elap:               1.2
 (Enter /home/sekinelabo/g16/l103.exe)

 GradGradGradGradGradGradGradGradGradGradGradGradGradGradGradGradGradGrad
 Berny optimization.
 Initialization pass.
 Trust Radius=3.00D-01 FncErr=1.00D-07 GrdErr=1.00D-07 EigMax=2.50D+02 EigMin=1.00D-04
 Number of steps in this run=      2 maximum allowed number of steps=      2.
 GradGradGradGradGradGradGradGradGradGradGradGradGradGradGradGradGradGrad

 Leave Link  103 at Wed Oct  4 14:11:23 2023, MaxMem=  1610612736 cpu:               0.5 elap:               0.3
 (Enter /home/sekinelabo/g16/l202.exe)
                          Input orientation:                          
 ---------------------------------------------------------------------
 Center     Atomic      Atomic             Coordinates (Angstroms)
 Number     Number       Type             X           Y           Z
 ---------------------------------------------------------------------
      1         11           0        0.000000    0.000000    0.000000
      2         11           0       -1.625227    0.000000   -1.562461
      3         11           0        0.000000    0.000000    3.836037
      4         11           0        0.549359   -0.749248    6.683103
 ---------------------------------------------------------------------
                    Distance matrix (angstroms):
                    1          2          3          4
     1  Na   0.000000
     2  Na   2.254473   0.000000
     3  Na   3.836037   5.637832   0.000000
     4  Na   6.747372   8.560347   2.994821   0.000000
 Stoichiometry    Na4
 Framework group  C1[X(Na4)]
 Deg. of freedom     6
 Full point group                 C1      NOp   1
 Largest Abelian subgroup         C1      NOp   1
 Largest concise Abelian subgroup C1      NOp   1
                         Standard orientation:                         
 ---------------------------------------------------------------------
 Center     Atomic      Atomic             Coordinates (Angstroms)
 Number     Number       Type             X           Y           Z
 ---------------------------------------------------------------------
      1         11           0       -2.143877    0.721374   -0.068723
      2         11           0       -4.001914   -0.555413   -0.055958
      3         11           0        1.598581   -0.026617    0.318191
      4         11           0        4.547209   -0.139344   -0.193509
 ---------------------------------------------------------------------
 Rotational constants (GHZ):          22.0813841           0.4997149           0.4918609
 Leave Link  202 at Wed Oct  4 14:11:24 2023, MaxMem=  1610612736 cpu:               1.0 elap:               0.5
 (Enter /home/sekinelabo/g16/l301.exe)
 Standard basis: 6-311+G(d) (5D, 7F)
 Ernie: Thresh=  0.10000D-02 Tol=  0.10000D-05 Strict=F.
 There are   124 symmetry adapted cartesian basis functions of A   symmetry.
 There are   120 symmetry adapted basis functions of A   symmetry.
   120 basis functions,   200 primitive gaussians,   124 cartesian basis functions
    22 alpha electrons       22 beta electrons
       nuclear repulsion energy        94.8005762205 Hartrees.
 IExCor=  402 DFT=T Ex+Corr=B3LYP ExCW=0 ScaHFX=  0.200000
 ScaDFX=  0.800000  0.720000  1.000000  0.810000 ScalE2=  1.000000  1.000000
 IRadAn=      5 IRanWt=     -1 IRanGd=            0 ICorTp=0 IEmpDi=  4
 NAtoms=    4 NActive=    4 NUniq=    4 SFac= 1.00D+00 NAtFMM=   60 NAOKFM=F Big=F
 Integral buffers will be    131072 words long.
 Raffenetti 2 integral format.
 Two-electron integral symmetry is turned on.
 Leave Link  301 at Wed Oct  4 14:11:24 2023, MaxMem=  1610612736 cpu:               0.7 elap:               0.4
 (Enter /home/sekinelabo/g16/l302.exe)
 NPDir=0 NMtPBC=     1 NCelOv=     1 NCel=       1 NClECP=     1 NCelD=      1
         NCelK=      1 NCelE2=     1 NClLst=     1 CellRange=     0.0.
 One-electron integrals computed using PRISM.
 One-electron integral symmetry used in STVInt
 NBasis=   120 RedAO= T EigKep=  1.14D-05  NBF=   120
 NBsUse=   120 1.00D-06 EigRej= -1.00D+00 NBFU=   120
 Precomputing XC quadrature grid using
 IXCGrd= 4 IRadAn=           5 IRanWt=          -1 IRanGd=           0 AccXCQ= 0.00D+00.
 Generated NRdTot=       0 NPtTot=           0 NUsed=           0 NTot=          32
 NSgBfM=   116   116   116   116   116 MxSgAt=     4 MxSgA2=     4.
 Leave Link  302 at Wed Oct  4 14:11:35 2023, MaxMem=  1610612736 cpu:              19.7 elap:              10.8
 (Enter /home/sekinelabo/g16/l303.exe)
 DipDrv:  MaxL=1.
 Leave Link  303 at Wed Oct  4 14:11:37 2023, MaxMem=  1610612736 cpu:               2.8 elap:               1.6
 (Enter /home/sekinelabo/g16/l401.exe)
 ExpMin= 7.60D-03 ExpMax= 3.62D+04 ExpMxC= 1.21D+03 IAcc=3 IRadAn=         5 AccDes= 0.00D+00
 Harris functional with IExCor=  402 and IRadAn=       5 diagonalized for initial guess.
 HarFok:  IExCor=  402 AccDes= 0.00D+00 IRadAn=         5 IDoV= 1 UseB2=F ITyADJ=14
 ICtDFT=  3500011 ScaDFX=  1.000000  1.000000  1.000000  1.000000
 FoFCou: FMM=F IPFlag=           0 FMFlag=      100000 FMFlg1=           0
         NFxFlg=           0 DoJE=T BraDBF=F KetDBF=T FulRan=T
         wScrn=  0.000000 ICntrl=       500 IOpCl=  0 I1Cent=   200000004 NGrid=           0
         NMat0=    1 NMatS0=      1 NMatT0=    0 NMatD0=    1 NMtDS0=    0 NMtDT0=    0
 Petite list used in FoFCou.
 Harris En= -649.053592883862    
 JPrj=0 DoOrth=F DoCkMO=F.
 Leave Link  401 at Wed Oct  4 14:11:44 2023, MaxMem=  1610612736 cpu:              13.8 elap:               7.8
 (Enter /home/sekinelabo/g16/l502.exe)
 Keep R1 ints in memory in canonical form, NReq=41581754.
 FoFCou: FMM=F IPFlag=           0 FMFlag=           0 FMFlg1=           0
         NFxFlg=           0 DoJE=F BraDBF=F KetDBF=F FulRan=T
         wScrn=  0.000000 ICntrl=       600 IOpCl=  0 I1Cent=           0 NGrid=           0
         NMat0=    1 NMatS0=   7260 NMatT0=    0 NMatD0=    1 NMtDS0=    0 NMtDT0=    0
 Symmetry not used in FoFCou.
 Two-electron integral symmetry not used.
 Closed shell SCF:
 Using DIIS extrapolation, IDIIS=  1040.
 NGot=  1610612736 LenX=  1584221388 LenY=  1584205571
 Requested convergence on RMS density matrix=1.00D-08 within 128 cycles.
 Requested convergence on MAX density matrix=1.00D-06.
 Requested convergence on             energy=1.00D-06.
 No special actions if energy rises.

 Cycle   1  Pass 1  IDiag  1:
 E= -649.170189681962    
 DIIS: error= 1.12D-02 at cycle   1 NSaved=   1.
 NSaved= 1 IEnMin= 1 EnMin= -649.170189681962     IErMin= 1 ErrMin= 1.12D-02
 ErrMax= 1.12D-02  0.00D+00 EMaxC= 1.00D-01 BMatC= 2.63D-02 BMatP= 2.63D-02
 IDIUse=3 WtCom= 8.88D-01 WtEn= 1.12D-01
 Coeff-Com:  0.100D+01
 Coeff-En:   0.100D+01
 Coeff:      0.100D+01
 Gap=     0.059 Goal=   None    Shift=    0.000
 GapD=    0.059 DampG=0.500 DampE=0.500 DampFc=0.2500 IDamp=-1.
 Damping current iteration by 2.50D-01
 RMSDP=9.25D-03 MaxDP=2.75D-01              OVMax= 8.69D-02

 Cycle   2  Pass 1  IDiag  1:
 E= -649.174208066109     Delta-E=       -0.004018384147 Rises=F Damp=T
 DIIS: error= 7.87D-03 at cycle   2 NSaved=   2.
 NSaved= 2 IEnMin= 2 EnMin= -649.174208066109     IErMin= 2 ErrMin= 7.87D-03
 ErrMax= 7.87D-03  0.00D+00 EMaxC= 1.00D-01 BMatC= 1.02D-02 BMatP= 2.63D-02
 IDIUse=3 WtCom= 9.21D-01 WtEn= 7.87D-02
 Coeff-Com: -0.132D+01 0.232D+01
 Coeff-En:   0.000D+00 0.100D+01
 Coeff:     -0.121D+01 0.221D+01
 Gap=     0.061 Goal=   None    Shift=    0.000
 RMSDP=7.03D-03 MaxDP=2.35D-01 DE=-4.02D-03 OVMax= 2.92D-02

 Cycle   3  Pass 1  IDiag  1:
 E= -649.182591147653     Delta-E=       -0.008383081544 Rises=F Damp=F
 DIIS: error= 2.95D-04 at cycle   3 NSaved=   3.
 NSaved= 3 IEnMin= 3 EnMin= -649.182591147653     IErMin= 3 ErrMin= 2.95D-04
 ErrMax= 2.95D-04  0.00D+00 EMaxC= 1.00D-01 BMatC= 1.41D-05 BMatP= 1.02D-02
 IDIUse=3 WtCom= 9.97D-01 WtEn= 2.95D-03
 Coeff-Com: -0.159D-01 0.277D-01 0.988D+00
 Coeff-En:   0.000D+00 0.000D+00 0.100D+01
 Coeff:     -0.159D-01 0.277D-01 0.988D+00
 Gap=     0.062 Goal=   None    Shift=    0.000
 RMSDP=3.16D-04 MaxDP=1.08D-02 DE=-8.38D-03 OVMax= 1.08D-02

 Cycle   4  Pass 1  IDiag  1:
 E= -649.182604223421     Delta-E=       -0.000013075767 Rises=F Damp=F
 DIIS: error= 2.70D-04 at cycle   4 NSaved=   4.
 NSaved= 4 IEnMin= 4 EnMin= -649.182604223421     IErMin= 4 ErrMin= 2.70D-04
 ErrMax= 2.70D-04  0.00D+00 EMaxC= 1.00D-01 BMatC= 8.32D-06 BMatP= 1.41D-05
 IDIUse=3 WtCom= 9.97D-01 WtEn= 2.70D-03
 Coeff-Com:  0.193D-02-0.212D-02 0.428D+00 0.572D+00
 Coeff-En:   0.000D+00 0.000D+00 0.288D+00 0.712D+00
 Coeff:      0.192D-02-0.211D-02 0.428D+00 0.572D+00
 Gap=     0.062 Goal=   None    Shift=    0.000
 RMSDP=1.74D-04 MaxDP=5.68D-03 DE=-1.31D-05 OVMax= 5.45D-03

 Cycle   5  Pass 1  IDiag  1:
 E= -649.182617917465     Delta-E=       -0.000013694044 Rises=F Damp=F
 DIIS: error= 6.12D-05 at cycle   5 NSaved=   5.
 NSaved= 5 IEnMin= 5 EnMin= -649.182617917465     IErMin= 5 ErrMin= 6.12D-05
 ErrMax= 6.12D-05  0.00D+00 EMaxC= 1.00D-01 BMatC= 3.59D-07 BMatP= 8.32D-06
 IDIUse=1 WtCom= 1.00D+00 WtEn= 0.00D+00
 Coeff-Com:  0.188D-02-0.271D-02 0.106D+00 0.226D+00 0.669D+00
 Coeff:      0.188D-02-0.271D-02 0.106D+00 0.226D+00 0.669D+00
 Gap=     0.062 Goal=   None    Shift=    0.000
 RMSDP=6.72D-05 MaxDP=2.09D-03 DE=-1.37D-05 OVMax= 1.49D-03

 Cycle   6  Pass 1  IDiag  1:
 E= -649.182618836293     Delta-E=       -0.000000918828 Rises=F Damp=F
 DIIS: error= 1.35D-05 at cycle   6 NSaved=   6.
 NSaved= 6 IEnMin= 6 EnMin= -649.182618836293     IErMin= 6 ErrMin= 1.35D-05
 ErrMax= 1.35D-05  0.00D+00 EMaxC= 1.00D-01 BMatC= 2.44D-08 BMatP= 3.59D-07
 IDIUse=1 WtCom= 1.00D+00 WtEn= 0.00D+00
 Coeff-Com:  0.143D-04-0.144D-03 0.259D-01 0.624D-01 0.264D+00 0.647D+00
 Coeff:      0.143D-04-0.144D-03 0.259D-01 0.624D-01 0.264D+00 0.647D+00
 Gap=     0.061 Goal=   None    Shift=    0.000
 RMSDP=1.27D-05 MaxDP=4.38D-04 DE=-9.19D-07 OVMax= 4.57D-04

 Cycle   7  Pass 1  IDiag  1:
 E= -649.182618897371     Delta-E=       -0.000000061077 Rises=F Damp=F
 DIIS: error= 3.49D-06 at cycle   7 NSaved=   7.
 NSaved= 7 IEnMin= 7 EnMin= -649.182618897371     IErMin= 7 ErrMin= 3.49D-06
 ErrMax= 3.49D-06  0.00D+00 EMaxC= 1.00D-01 BMatC= 2.31D-09 BMatP= 2.44D-08
 IDIUse=1 WtCom= 1.00D+00 WtEn= 0.00D+00
 Coeff-Com: -0.416D-03 0.524D-03-0.244D-02-0.381D-02 0.162D-01 0.245D+00
 Coeff-Com:  0.745D+00
 Coeff:     -0.416D-03 0.524D-03-0.244D-02-0.381D-02 0.162D-01 0.245D+00
 Coeff:      0.745D+00
 Gap=     0.062 Goal=   None    Shift=    0.000
 RMSDP=4.36D-06 MaxDP=1.51D-04 DE=-6.11D-08 OVMax= 1.06D-04

 Cycle   8  Pass 1  IDiag  1:
 E= -649.182618902039     Delta-E=       -0.000000004669 Rises=F Damp=F
 DIIS: error= 4.98D-07 at cycle   8 NSaved=   8.
 NSaved= 8 IEnMin= 8 EnMin= -649.182618902039     IErMin= 8 ErrMin= 4.98D-07
 ErrMax= 4.98D-07  0.00D+00 EMaxC= 1.00D-01 BMatC= 6.75D-11 BMatP= 2.31D-09
 IDIUse=1 WtCom= 1.00D+00 WtEn= 0.00D+00
 Coeff-Com: -0.409D-04 0.518D-04-0.154D-02-0.415D-02-0.143D-01 0.176D-01
 Coeff-Com:  0.158D+00 0.844D+00
 Coeff:     -0.409D-04 0.518D-04-0.154D-02-0.415D-02-0.143D-01 0.176D-01
 Coeff:      0.158D+00 0.844D+00
 Gap=     0.062 Goal=   None    Shift=    0.000
 RMSDP=2.09D-06 MaxDP=5.53D-05 DE=-4.67D-09 OVMax= 1.41D-05

 Cycle   9  Pass 1  IDiag  1:
 E= -649.182618902178     Delta-E=       -0.000000000139 Rises=F Damp=F
 DIIS: error= 1.33D-07 at cycle   9 NSaved=   9.
 NSaved= 9 IEnMin= 9 EnMin= -649.182618902178     IErMin= 9 ErrMin= 1.33D-07
 ErrMax= 1.33D-07  0.00D+00 EMaxC= 1.00D-01 BMatC= 4.86D-12 BMatP= 6.75D-11
 IDIUse=1 WtCom= 1.00D+00 WtEn= 0.00D+00
 Coeff-Com:  0.383D-04-0.497D-04-0.155D-03-0.890D-03-0.547D-02-0.133D-01
 Coeff-Com: -0.114D-01 0.211D+00 0.820D+00
 Coeff:      0.383D-04-0.497D-04-0.155D-03-0.890D-03-0.547D-02-0.133D-01
 Coeff:     -0.114D-01 0.211D+00 0.820D+00
 Gap=     0.062 Goal=   None    Shift=    0.000
 RMSDP=4.19D-07 MaxDP=1.49D-05 DE=-1.39D-10 OVMax= 4.13D-06

 Cycle  10  Pass 1  IDiag  1:
 E= -649.182618902192     Delta-E=       -0.000000000014 Rises=F Damp=F
 DIIS: error= 2.38D-08 at cycle  10 NSaved=  10.
 NSaved=10 IEnMin=10 EnMin= -649.182618902192     IErMin=10 ErrMin= 2.38D-08
 ErrMax= 2.38D-08  0.00D+00 EMaxC= 1.00D-01 BMatC= 1.41D-13 BMatP= 4.86D-12
 IDIUse=1 WtCom= 1.00D+00 WtEn= 0.00D+00
 Coeff-Com:  0.101D-04-0.130D-04-0.805D-05-0.149D-03-0.104D-02-0.379D-02
 Coeff-Com: -0.596D-02 0.257D-01 0.239D+00 0.746D+00
 Coeff:      0.101D-04-0.130D-04-0.805D-05-0.149D-03-0.104D-02-0.379D-02
 Coeff:     -0.596D-02 0.257D-01 0.239D+00 0.746D+00
 Gap=     0.062 Goal=   None    Shift=    0.000
 RMSDP=4.01D-08 MaxDP=1.28D-06 DE=-1.38D-11 OVMax= 8.47D-07

 Cycle  11  Pass 1  IDiag  1:
 E= -649.182618902189     Delta-E=        0.000000000003 Rises=F Damp=F
 DIIS: error= 4.00D-09 at cycle  11 NSaved=  11.
 NSaved=11 IEnMin=10 EnMin= -649.182618902192     IErMin=11 ErrMin= 4.00D-09
 ErrMax= 4.00D-09  0.00D+00 EMaxC= 1.00D-01 BMatC= 4.98D-15 BMatP= 1.41D-13
 IDIUse=1 WtCom= 1.00D+00 WtEn= 0.00D+00
 Coeff-Com: -0.135D-05 0.179D-05 0.751D-05 0.317D-04 0.162D-03 0.157D-03
 Coeff-Com: -0.373D-03-0.585D-02-0.190D-01 0.108D+00 0.917D+00
 Coeff:     -0.135D-05 0.179D-05 0.751D-05 0.317D-04 0.162D-03 0.157D-03
 Coeff:     -0.373D-03-0.585D-02-0.190D-01 0.108D+00 0.917D+00
 Gap=     0.062 Goal=   None    Shift=    0.000
 RMSDP=1.16D-08 MaxDP=3.47D-07 DE= 2.73D-12 OVMax= 1.40D-07

 Cycle  12  Pass 1  IDiag  1:
 E= -649.182618902191     Delta-E=       -0.000000000003 Rises=F Damp=F
 DIIS: error= 1.44D-09 at cycle  12 NSaved=  12.
 NSaved=12 IEnMin=10 EnMin= -649.182618902192     IErMin=12 ErrMin= 1.44D-09
 ErrMax= 1.44D-09  0.00D+00 EMaxC= 1.00D-01 BMatC= 2.27D-16 BMatP= 4.98D-15
 IDIUse=1 WtCom= 1.00D+00 WtEn= 0.00D+00
 Coeff-Com: -0.707D-06 0.925D-06 0.252D-05 0.139D-04 0.810D-04 0.175D-03
 Coeff-Com:  0.557D-04-0.254D-02-0.119D-01 0.104D-01 0.276D+00 0.728D+00
 Coeff:     -0.707D-06 0.925D-06 0.252D-05 0.139D-04 0.810D-04 0.175D-03
 Coeff:      0.557D-04-0.254D-02-0.119D-01 0.104D-01 0.276D+00 0.728D+00
 Gap=     0.062 Goal=   None    Shift=    0.000
 RMSDP=2.65D-09 MaxDP=6.67D-08 DE=-2.50D-12 OVMax= 4.45D-08

 SCF Done:  E(RB3LYP) =  -649.182618902     A.U. after   12 cycles
            NFock= 12  Conv=0.26D-08     -V/T= 2.0026
 KE= 6.474885676170D+02 PE=-1.748773478082D+03 EE= 3.573017153425D+02
 Leave Link  502 at Wed Oct  4 14:12:58 2023, MaxMem=  1610612736 cpu:             129.2 elap:              73.2
 (Enter /home/sekinelabo/g16/l601.exe)
 Copying SCF densities to generalized density rwf, IOpCl= 0 IROHF=0.

 **********************************************************************

            Population analysis using the SCF Density.

 **********************************************************************

 Orbital symmetries:
       Occupied  (A) (A) (A) (A) (A) (A) (A) (A) (A) (A) (A) (A)
                 (A) (A) (A) (A) (A) (A) (A) (A) (A) (A)
       Virtual   (A) (A) (A) (A) (A) (A) (A) (A) (A) (A) (A) (A)
                 (A) (A) (A) (A) (A) (A) (A) (A) (A) (A) (A) (A)
                 (A) (A) (A) (A) (A) (A) (A) (A) (A) (A) (A) (A)
                 (A) (A) (A) (A) (A) (A) (A) (A) (A) (A) (A) (A)
                 (A) (A) (A) (A) (A) (A) (A) (A) (A) (A) (A) (A)
                 (A) (A) (A) (A) (A) (A) (A) (A) (A) (A) (A) (A)
                 (A) (A) (A) (A) (A) (A) (A) (A) (A) (A) (A) (A)
                 (A) (A) (A) (A) (A) (A) (A) (A) (A) (A) (A) (A)
                 (A) (A)
 The electronic state is 1-A.
 Alpha  occ. eigenvalues --  -38.46283 -38.45786 -38.44242 -38.43889  -2.22322
 Alpha  occ. eigenvalues --   -2.21694  -2.20040  -2.19697  -1.17137  -1.15810
 Alpha  occ. eigenvalues --   -1.15806  -1.15220  -1.15215  -1.14802  -1.13760
 Alpha  occ. eigenvalues --   -1.13688  -1.13688  -1.13356  -1.13353  -1.13321
 Alpha  occ. eigenvalues --   -0.15095  -0.12771
 Alpha virt. eigenvalues --   -0.06621  -0.04063  -0.03514  -0.02738  -0.02079
 Alpha virt. eigenvalues --   -0.01901  -0.00497   0.00326   0.00469   0.00657
 Alpha virt. eigenvalues --    0.00694   0.01140   0.01219   0.01315   0.01406
 Alpha virt. eigenvalues --    0.01476   0.01742   0.01865   0.01945   0.02511
 Alpha virt. eigenvalues --    0.02781   0.02829   0.02907   0.03170   0.03457
 Alpha virt. eigenvalues --    0.03544   0.03896   0.04665   0.05070   0.05673
 Alpha virt. eigenvalues --    0.06827   0.06984   0.07779   0.07923   0.08181
 Alpha virt. eigenvalues --    0.08390   0.08856   0.09536   0.09783   0.10246
 Alpha virt. eigenvalues --    0.11223   0.12274   0.13442   0.14270   0.16367
 Alpha virt. eigenvalues --    0.17772   0.27887   0.29304   0.29723   0.30422
 Alpha virt. eigenvalues --    0.31420   0.32219   0.33225   0.33307   0.36564
 Alpha virt. eigenvalues --    0.37049   0.38333   0.38552   0.40684   0.40966
 Alpha virt. eigenvalues --    0.41333   0.41998   0.42267   0.43279   0.43693
 Alpha virt. eigenvalues --    0.43827   0.44495   0.45038   0.45087   0.45274
 Alpha virt. eigenvalues --    0.48344   0.49231   0.50578   0.51602   0.59990
 Alpha virt. eigenvalues --    0.62939   0.73731   0.86699   2.04681   2.05734
 Alpha virt. eigenvalues --    2.14318   2.16410   4.42018   4.42202   4.43002
 Alpha virt. eigenvalues --    4.43907   4.43939   4.46645   4.46748   4.48052
 Alpha virt. eigenvalues --    4.48967   4.56298   4.66663   4.74406  96.24403
 Alpha virt. eigenvalues --   96.26089  96.37224  96.39474
          Condensed to atoms (all electrons):
               1          2          3          4
     1  Na  11.134259   0.130996   0.149241  -0.130802
     2  Na   0.130996  10.826446  -0.371894   0.022730
     3  Na   0.149241  -0.371894  11.485039   0.240714
     4  Na  -0.130802   0.022730   0.240714  10.472286
 Mulliken charges:
               1
     1  Na  -0.283695
     2  Na   0.391722
     3  Na  -0.503099
     4  Na   0.395072
 Sum of Mulliken charges =  -0.00000
 Mulliken charges with hydrogens summed into heavy atoms:
               1
     1  Na  -0.283695
     2  Na   0.391722
     3  Na  -0.503099
     4  Na   0.395072
 Electronic spatial extent (au):  <R**2>=           1843.6632
 Charge=              0.0000 electrons
 Dipole moment (field-independent basis, Debye):
    X=             -0.5189    Y=             -0.2510    Z=             -0.1023  Tot=              0.5854
 Quadrupole moment (field-independent basis, Debye-Ang):
   XX=            -25.9785   YY=            -41.2749   ZZ=            -43.4239
   XY=              2.6635   XZ=             -1.4491   YZ=             -0.0476
 Traceless Quadrupole moment (field-independent basis, Debye-Ang):
   XX=             10.9139   YY=             -4.3824   ZZ=             -6.5315
   XY=              2.6635   XZ=             -1.4491   YZ=             -0.0476
 Octapole moment (field-independent basis, Debye-Ang**2):
  XXX=             33.0482  YYY=             -0.1243  ZZZ=             -0.2310  XYY=             -9.3485
  XXY=            -25.3899  XXZ=            -10.6586  XZZ=             -1.7182  YZZ=             -0.2533
  YYZ=             -0.2893  XYZ=              0.0881
 Hexadecapole moment (field-independent basis, Debye-Ang**3):
 XXXX=          -2030.6739 YYYY=           -205.9399 ZZZZ=           -180.1714 XXXY=             92.8616
 XXXZ=            -52.6146 YYYX=             11.5899 YYYZ=             -0.2944 ZZZX=             -6.7694
 ZZZY=             -0.4087 XXYY=           -500.3679 XXZZ=           -516.7506 YYZZ=            -64.5053
 XXYZ=              2.5786 YYXZ=             -1.9256 ZZXY=              3.8116
 N-N= 9.480057622045D+01 E-N=-1.748773478119D+03  KE= 6.474885676170D+02
 No NMR shielding tensors so no spin-rotation constants.
 Leave Link  601 at Wed Oct  4 14:13:02 2023, MaxMem=  1610612736 cpu:               8.2 elap:               4.6
 (Enter /home/sekinelabo/g16/l701.exe)
 ... and contract with generalized density number  0.
 Compute integral first derivatives.
 Leave Link  701 at Wed Oct  4 14:13:07 2023, MaxMem=  1610612736 cpu:               7.4 elap:               4.3
 (Enter /home/sekinelabo/g16/l702.exe)
 L702 exits ... SP integral derivatives will be done elsewhere.
 Leave Link  702 at Wed Oct  4 14:13:07 2023, MaxMem=  1610612736 cpu:               0.6 elap:               0.4
 (Enter /home/sekinelabo/g16/l703.exe)
 Integral derivatives from FoFJK, PRISM(SPDF).
 Compute integral first derivatives, UseDBF=F ICtDFT=           0.
 Calling FoFJK, ICntrl=      2127 FMM=F ISym2X=0 I1Cent= 0 IOpClX= 0 NMat=1 NMatS=1 NMatT=0.
 FoFJK:  IHMeth= 1 ICntrl=    2127 DoSepK=F KAlg= 0 I1Cent=           0 FoldK=F
 IRaf=         0 NMat=       1 IRICut=       1 DoRegI=T DoRafI=F ISym2E= 0 IDoP0=0 IntGTp=1.
 FoFCou: FMM=F IPFlag=           0 FMFlag=      100000 FMFlg1=         800
         NFxFlg=           0 DoJE=F BraDBF=F KetDBF=F FulRan=T
         wScrn=  0.000000 ICntrl=      2127 IOpCl=  0 I1Cent=           0 NGrid=           0
         NMat0=    1 NMatS0=      1 NMatT0=    0 NMatD0=    1 NMtDS0=    0 NMtDT0=    0
 Symmetry not used in FoFCou.
 Leave Link  703 at Wed Oct  4 14:13:14 2023, MaxMem=  1610612736 cpu:              12.4 elap:               6.9
 (Enter /home/sekinelabo/g16/l716.exe)
 Dipole        =-2.04158748D-01-9.87491526D-02-4.02354115D-02
 ***** Axes restored to original set *****
 -------------------------------------------------------------------
 Center     Atomic                   Forces (Hartrees/Bohr)
 Number     Number              X              Y              Z
 -------------------------------------------------------------------
      1       11           0.025524628   -0.000077292    0.024380849
      2       11          -0.025260056    0.000068373   -0.023886924
      3       11          -0.000731546    0.000441583   -0.002236306
      4       11           0.000466974   -0.000432665    0.001742381
 -------------------------------------------------------------------
 Cartesian Forces:  Max     0.025524628 RMS     0.014328791
 Z-matrix is all fixed cartesians, so copy forces.
 Force constants in Cartesian coordinates: 
                1             2             3             4             5 
      1  0.110044D+00
      2 -0.243193D-02  0.319384D-02
      3  0.694997D-01  0.000000D+00  0.986675D-01
      4 -0.977455D-01  0.000000D+00 -0.753352D-01  0.921353D-01
      5  0.255306D-03 -0.155963D-03  0.000000D+00  0.000000D+00  0.243838D-03
      6 -0.694997D-01  0.000000D+00 -0.861996D-01  0.753352D-01  0.000000D+00
      7 -0.146841D-01  0.541444D-02  0.583557D-02  0.561020D-02 -0.599296D-03
      8  0.467504D-02 -0.664421D-02  0.000000D+00  0.000000D+00 -0.340094D-03
      9  0.111783D-02 -0.152456D-02 -0.124679D-01  0.000000D+00  0.000000D+00
     10  0.238567D-02 -0.298252D-02  0.000000D+00  0.000000D+00  0.343990D-03
     11 -0.249842D-02  0.360633D-02  0.000000D+00  0.000000D+00  0.252218D-03
     12 -0.111783D-02  0.152456D-02  0.000000D+00  0.000000D+00  0.000000D+00
                6             7             8             9            10 
      6  0.861996D-01
      7 -0.583557D-02  0.156708D-01
      8  0.000000D+00 -0.120395D-01  0.180346D-01
      9  0.000000D+00  0.404890D-02 -0.552212D-02  0.470500D-01
     10  0.000000D+00 -0.659699D-02  0.736451D-02 -0.516672D-02  0.421132D-02
     11  0.000000D+00  0.722440D-02 -0.110503D-01  0.704668D-02 -0.472598D-02
     12  0.000000D+00 -0.404890D-02  0.552212D-02 -0.345821D-01  0.516672D-02
               11            12 
     11  0.719173D-02
     12 -0.704668D-02  0.345821D-01
 Leave Link  716 at Wed Oct  4 14:13:15 2023, MaxMem=  1610612736 cpu:               0.9 elap:               0.5
 (Enter /home/sekinelabo/g16/l103.exe)

 GradGradGradGradGradGradGradGradGradGradGradGradGradGradGradGradGradGrad
 Berny optimization.
 Search for a local minimum.
 Step number   1 out of a maximum of    2
 All quantities printed in internal units (Hartrees-Bohrs-Radians)
 Second derivative matrix not updated -- first step.
 The second derivative matrix:
                          X1        Y1        Z1        X2        Y2
           X1           0.11004
           Y1          -0.00243   0.00319
           Z1           0.06950   0.00000   0.09867
           X2          -0.09775   0.00000  -0.07534   0.09214
           Y2           0.00026  -0.00016   0.00000  -0.00000   0.00024
           Z2          -0.06950   0.00000  -0.08620   0.07534  -0.00000
           X3          -0.01468   0.00541   0.00584   0.00561  -0.00060
           Y3           0.00468  -0.00664  -0.00000  -0.00000  -0.00034
           Z3           0.00112  -0.00152  -0.01247  -0.00000   0.00000
           X4           0.00239  -0.00298  -0.00000   0.00000   0.00034
           Y4          -0.00250   0.00361   0.00000   0.00000   0.00025
           Z4          -0.00112   0.00152   0.00000   0.00000   0.00000
                          Z2        X3        Y3        Z3        X4
           Z2           0.08620
           X3          -0.00584   0.01567
           Y3           0.00000  -0.01204   0.01803
           Z3           0.00000   0.00405  -0.00552   0.04705
           X4          -0.00000  -0.00660   0.00736  -0.00517   0.00421
           Y4          -0.00000   0.00722  -0.01105   0.00705  -0.00473
           Z4           0.00000  -0.00405   0.00552  -0.03458   0.00517
                          Y4        Z4
           Y4           0.00719
           Z4          -0.00705   0.03458
 ITU=  0
     Eigenvalues ---    0.00264   0.01106   0.02886   0.05848   0.08196
     Eigenvalues ---    0.33423
 Angle between quadratic step and forces=  34.79 degrees.
 Linear search not attempted -- first point.
 B after Tr=    -0.000000    0.000000    0.000000
         Rot=    1.000000   -0.000000    0.000000   -0.000000 Ang=   0.00 deg.
 Variable       Old X    -DE/DX   Delta X   Delta X   Delta X     New X
                                 (Linear)    (Quad)   (Total)
    X1        0.00000   0.02552   0.00000   0.06168   0.06168   0.06168
    Y1        0.00000  -0.00008   0.00000  -0.00656  -0.00656  -0.00656
    Z1       -0.00000   0.02438   0.00000   0.04922   0.04922   0.04922
    X2       -3.07123  -0.02526   0.00000  -0.06758  -0.06758  -3.13882
    Y2        0.00000   0.00007   0.00000   0.02264   0.02264   0.02264
    Z2       -2.95262  -0.02389   0.00000  -0.12115  -0.12115  -3.07377
    X3        0.00000  -0.00073   0.00000  -0.03024  -0.03024  -0.03024
    Y3        0.00000   0.00044   0.00000  -0.03376  -0.03376  -0.03376
    Z3        7.24906  -0.00224   0.00000   0.00961   0.00961   7.25867
    X4        1.03814   0.00047   0.00000   0.03614   0.03614   1.07428
    Y4       -1.41587  -0.00043   0.00000   0.01768   0.01768  -1.39819
    Z4       12.62923   0.00174   0.00000   0.06233   0.06233  12.69156
         Item               Value     Threshold  Converged?
 Maximum Force            0.025525     0.000450     NO 
 RMS     Force            0.014329     0.000300     NO 
 Maximum Displacement     0.121150     0.001800     NO 
 RMS     Displacement     0.052976     0.001200     NO 
 Predicted change in Energy=-3.740458D-03
 GradGradGradGradGradGradGradGradGradGradGradGradGradGradGradGradGradGrad

 Leave Link  103 at Wed Oct  4 14:13:17 2023, MaxMem=  1610612736 cpu:               3.7 elap:               2.1
 (Enter /home/sekinelabo/g16/l9999.exe)
 1\1\GINC-SEKINELABO-XA7R-R37\Force\RB3LYP\6-311+G(d)\Na4\SEKINELABO\04
 -Oct-2023\0\\#p B3LYP/6-311+g(d) force\\\0,1\Na,0.,0.,0.\Na,-1.6252271
 785,0.,-1.5624614967\Na,0.,0.,3.836037237\Na,0.5493593114,-0.749248248
 6,6.6831030384\\Version=ES64L-G16RevB.01\State=1-A\HF=-649.1826189\RMS
 D=2.646e-09\RMSF=1.433e-02\Dipole=-0.1337897,-0.0360864,-0.1839814\Qua
 drupole=-1.9515201,-4.6343295,6.5858497,-0.376725,4.1791806,-1.7790649
 \PG=C01 [X(Na4)]\\@


 THAT'S WHAT MAKES US A GREAT COUNTRY.
 THE LITTLE THINGS ARE SERIOUS AND THE BIG ONES ARE NOT.
           WILL ROGERS
 Job cpu time:       0 days  0 hours  3 minutes 24.5 seconds.
 Elapsed time:       0 days  0 hours  1 minutes 55.2 seconds.
 File lengths (MBytes):  RWF=     10 Int=      0 D2E=      0 Chk=      2 Scr=      1
 Normal termination of Gaussian 16 at Wed Oct  4 14:13:17 2023.
 Initial command:
 /home/sekinelabo/g16/l1.exe "/home/sekinelabo/g16temp/Gau-8096.inp" -scrdir="/home/sekinelabo/g16temp/"
 Entering Link 1 = /home/sekinelabo/g16/l1.exe PID=      9980.
  
 Copyright (c) 1988-2017, Gaussian, Inc.  All Rights Reserved.
  
 This is part of the Gaussian(R) 16 program.  It is based on
 the Gaussian(R) 09 system (copyright 2009, Gaussian, Inc.),
 the Gaussian(R) 03 system (copyright 2003, Gaussian, Inc.),
 the Gaussian(R) 98 system (copyright 1998, Gaussian, Inc.),
 the Gaussian(R) 94 system (copyright 1995, Gaussian, Inc.),
 the Gaussian 92(TM) system (copyright 1992, Gaussian, Inc.),
 the Gaussian 90(TM) system (copyright 1990, Gaussian, Inc.),
 the Gaussian 88(TM) system (copyright 1988, Gaussian, Inc.),
 the Gaussian 86(TM) system (copyright 1986, Carnegie Mellon
 University), and the Gaussian 82(TM) system (copyright 1983,
 Carnegie Mellon University). Gaussian is a federally registered
 trademark of Gaussian, Inc.
  
 This software contains proprietary and confidential information,
 including trade secrets, belonging to Gaussian, Inc.
  
 This software is provided under written license and may be
 used, copied, transmitted, or stored only in accord with that
 written license.
  
 The following legend is applicable only to US Government
 contracts under FAR:
  
                    RESTRICTED RIGHTS LEGEND
  
 Use, reproduction and disclosure by the US Government is
 subject to restrictions as set forth in subparagraphs (a)
 and (c) of the Commercial Computer Software - Restricted
 Rights clause in FAR 52.227-19.
  
 Gaussian, Inc.
 340 Quinnipiac St., Bldg. 40, Wallingford CT 06492
  
  
 ---------------------------------------------------------------
 Warning -- This program may not be used in any manner that
 competes with the business of Gaussian, Inc. or will provide
 assistance to any competitor of Gaussian, Inc.  The licensee
 of this program is prohibited from giving any competitor of
 Gaussian, Inc. access to this program.  By using this program,
 the user acknowledges that Gaussian, Inc. is engaged in the
 business of creating and licensing software in the field of
 computational chemistry and represents and warrants to the
 licensee that it is not a competitor of Gaussian, Inc. and that
 it will not use this program in any manner prohibited above.
 ---------------------------------------------------------------
  

 Cite this work as:
 Gaussian 16, Revision B.01,
 M. J. Frisch, G. W. Trucks, H. B. Schlegel, G. E. Scuseria, 
 M. A. Robb, J. R. Cheeseman, G. Scalmani, V. Barone, 
 G. A. Petersson, H. Nakatsuji, X. Li, M. Caricato, A. V. Marenich, 
 J. Bloino, B. G. Janesko, R. Gomperts, B. Mennucci, H. P. Hratchian, 
 J. V. Ortiz, A. F. Izmaylov, J. L. Sonnenberg, D. Williams-Young, 
 F. Ding, F. Lipparini, F. Egidi, J. Goings, B. Peng, A. Petrone, 
 T. Henderson, D. Ranasinghe, V. G. Zakrzewski, J. Gao, N. Rega, 
 G. Zheng, W. Liang, M. Hada, M. Ehara, K. Toyota, R. Fukuda, 
 J. Hasegawa, M. Ishida, T. Nakajima, Y. Honda, O. Kitao, H. Nakai, 
 T. Vreven, K. Throssell, J. A. Montgomery, Jr., J. E. Peralta, 
 F. Ogliaro, M. J. Bearpark, J. J. Heyd, E. N. Brothers, K. N. Kudin, 
 V. N. Staroverov, T. A. Keith, R. Kobayashi, J. Normand, 
 K. Raghavachari, A. P. Rendell, J. C. Burant, S. S. Iyengar, 
 J. Tomasi, M. Cossi, J. M. Millam, M. Klene, C. Adamo, R. Cammi, 
 J. W. Ochterski, R. L. Martin, K. Morokuma, O. Farkas, 
 J. B. Foresman, and D. J. Fox, Gaussian, Inc., Wallingford CT, 2016.
 
 ******************************************
 Gaussian 16:  ES64L-G16RevB.01 20-Dec-2017
                 4-Oct-2023 
 ******************************************
 %NProcShared=16
 Will use up to   16 processors via shared memory.
 %mem=12GB
 %Chk=checkpoint.chk
 -------------------------
 #p B3LYP/6-311+g(d) force
 -------------------------
 1/10=7,30=1,38=1/1,3;
 2/12=2,17=6,18=5,40=1/2;
 3/5=4,6=6,7=11,11=2,25=1,30=1,71=1,74=-5/1,2,3;
 4//1;
 5/5=2,38=5/2;
 6/7=2,8=2,9=2,10=2,28=1/1;
 7/29=1/1,2,3,16;
 1/10=7,30=1/3;
 99//99;
 Leave Link    1 at Wed Oct  4 14:13:18 2023, MaxMem=  1610612736 cpu:               0.4 elap:               0.3
 (Enter /home/sekinelabo/g16/l101.exe)


 Symbolic Z-matrix:
 Charge =  0 Multiplicity = 1
 Na                    0.        0.        0. 
 Na                   -2.22975   0.       -5.19065 
 Na                    0.        0.        5.29018 
 Na                   -2.64946  -0.15153   6.66806 
 
 ITRead=  0  0  0  0
 MicOpt= -1 -1 -1 -1
 NAtoms=      4 NQM=        4 NQMF=       0 NMMI=      0 NMMIF=      0
                NMic=       0 NMicF=      0.
                    Isotopes and Nuclear Properties:
 (Nuclear quadrupole moments (NQMom) in fm**2, nuclear magnetic moments (NMagM)
  in nuclear magnetons)

  Atom         1           2           3           4
 IAtWgt=          23          23          23          23
 AtmWgt=  22.9897697  22.9897697  22.9897697  22.9897697
 NucSpn=           3           3           3           3
 AtZEff=  -0.0000000  -0.0000000  -0.0000000  -0.0000000
 NQMom=   10.4000000  10.4000000  10.4000000  10.4000000
 NMagM=    2.2175200   2.2175200   2.2175200   2.2175200
 AtZNuc=  11.0000000  11.0000000  11.0000000  11.0000000
 Leave Link  101 at Wed Oct  4 14:13:19 2023, MaxMem=  1610612736 cpu:               2.0 elap:               1.2
 (Enter /home/sekinelabo/g16/l103.exe)

 GradGradGradGradGradGradGradGradGradGradGradGradGradGradGradGradGradGrad
 Berny optimization.
 Initialization pass.
 Trust Radius=3.00D-01 FncErr=1.00D-07 GrdErr=1.00D-07 EigMax=2.50D+02 EigMin=1.00D-04
 Number of steps in this run=      2 maximum allowed number of steps=      2.
 GradGradGradGradGradGradGradGradGradGradGradGradGradGradGradGradGradGrad

 Leave Link  103 at Wed Oct  4 14:13:19 2023, MaxMem=  1610612736 cpu:               0.7 elap:               0.5
 (Enter /home/sekinelabo/g16/l202.exe)
                          Input orientation:                          
 ---------------------------------------------------------------------
 Center     Atomic      Atomic             Coordinates (Angstroms)
 Number     Number       Type             X           Y           Z
 ---------------------------------------------------------------------
      1         11           0        0.000000    0.000000    0.000000
      2         11           0       -2.229747    0.000000   -5.190648
      3         11           0        0.000000    0.000000    5.290180
      4         11           0       -2.649458   -0.151534    6.668056
 ---------------------------------------------------------------------
                    Distance matrix (angstroms):
                    1          2          3          4
     1  Na   0.000000
     2  Na   5.649301   0.000000
     3  Na   5.290180  10.715387   0.000000
     4  Na   7.176738  11.867097   2.990173   0.000000
 Stoichiometry    Na4
 Framework group  C1[X(Na4)]
 Deg. of freedom     6
 Full point group                 C1      NOp   1
 Largest Abelian subgroup         C1      NOp   1
 Largest concise Abelian subgroup C1      NOp   1
                         Standard orientation:                         
 ---------------------------------------------------------------------
 Center     Atomic      Atomic             Coordinates (Angstroms)
 Number     Number       Type             X           Y           Z
 ---------------------------------------------------------------------
      1         11           0       -1.659433   -1.263909    0.026169
      2         11           0       -6.906838    0.828431   -0.011894
      3         11           0        3.628720   -1.126408   -0.024262
      4         11           0        4.937551    1.561885    0.009988
 ---------------------------------------------------------------------
 Rotational constants (GHZ):           3.6677342           0.2497854           0.2338663
 Leave Link  202 at Wed Oct  4 14:13:20 2023, MaxMem=  1610612736 cpu:               1.0 elap:               0.6
 (Enter /home/sekinelabo/g16/l301.exe)
 Standard basis: 6-311+G(d) (5D, 7F)
 Ernie: Thresh=  0.10000D-02 Tol=  0.10000D-05 Strict=F.
 There are   124 symmetry adapted cartesian basis functions of A   symmetry.
 There are   120 symmetry adapted basis functions of A   symmetry.
   120 basis functions,   200 primitive gaussians,   124 cartesian basis functions
    22 alpha electrons       22 beta electrons
       nuclear repulsion energy        65.1446250740 Hartrees.
 IExCor=  402 DFT=T Ex+Corr=B3LYP ExCW=0 ScaHFX=  0.200000
 ScaDFX=  0.800000  0.720000  1.000000  0.810000 ScalE2=  1.000000  1.000000
 IRadAn=      5 IRanWt=     -1 IRanGd=            0 ICorTp=0 IEmpDi=  4
 NAtoms=    4 NActive=    4 NUniq=    4 SFac= 1.00D+00 NAtFMM=   60 NAOKFM=F Big=F
 Integral buffers will be    131072 words long.
 Raffenetti 2 integral format.
 Two-electron integral symmetry is turned on.
 Leave Link  301 at Wed Oct  4 14:13:21 2023, MaxMem=  1610612736 cpu:               0.7 elap:               0.4
 (Enter /home/sekinelabo/g16/l302.exe)
 NPDir=0 NMtPBC=     1 NCelOv=     1 NCel=       1 NClECP=     1 NCelD=      1
         NCelK=      1 NCelE2=     1 NClLst=     1 CellRange=     0.0.
 One-electron integrals computed using PRISM.
 One-electron integral symmetry used in STVInt
 NBasis=   120 RedAO= T EigKep=  1.00D-04  NBF=   120
 NBsUse=   120 1.00D-06 EigRej= -1.00D+00 NBFU=   120
 Precomputing XC quadrature grid using
 IXCGrd= 4 IRadAn=           5 IRanWt=          -1 IRanGd=           0 AccXCQ= 0.00D+00.
 Generated NRdTot=       0 NPtTot=           0 NUsed=           0 NTot=          32
 NSgBfM=   113   113   113   113   113 MxSgAt=     4 MxSgA2=     4.
 Leave Link  302 at Wed Oct  4 14:13:31 2023, MaxMem=  1610612736 cpu:              19.8 elap:              10.8
 (Enter /home/sekinelabo/g16/l303.exe)
 DipDrv:  MaxL=1.
 Leave Link  303 at Wed Oct  4 14:13:33 2023, MaxMem=  1610612736 cpu:               2.9 elap:               1.7
 (Enter /home/sekinelabo/g16/l401.exe)
 ExpMin= 7.60D-03 ExpMax= 3.62D+04 ExpMxC= 1.21D+03 IAcc=3 IRadAn=         5 AccDes= 0.00D+00
 Harris functional with IExCor=  402 and IRadAn=       5 diagonalized for initial guess.
 HarFok:  IExCor=  402 AccDes= 0.00D+00 IRadAn=         5 IDoV= 1 UseB2=F ITyADJ=14
 ICtDFT=  3500011 ScaDFX=  1.000000  1.000000  1.000000  1.000000
 FoFCou: FMM=F IPFlag=           0 FMFlag=      100000 FMFlg1=           0
         NFxFlg=           0 DoJE=T BraDBF=F KetDBF=T FulRan=T
         wScrn=  0.000000 ICntrl=       500 IOpCl=  0 I1Cent=   200000004 NGrid=           0
         NMat0=    1 NMatS0=      1 NMatT0=    0 NMatD0=    1 NMtDS0=    0 NMtDT0=    0
 Petite list used in FoFCou.
 Harris En= -649.045615574412    
 JPrj=0 DoOrth=F DoCkMO=F.
 Leave Link  401 at Wed Oct  4 14:13:42 2023, MaxMem=  1610612736 cpu:              14.9 elap:               8.4
 (Enter /home/sekinelabo/g16/l502.exe)
 Keep R1 ints in memory in canonical form, NReq=41581754.
 FoFCou: FMM=F IPFlag=           0 FMFlag=           0 FMFlg1=           0
         NFxFlg=           0 DoJE=F BraDBF=F KetDBF=F FulRan=T
         wScrn=  0.000000 ICntrl=       600 IOpCl=  0 I1Cent=           0 NGrid=           0
         NMat0=    1 NMatS0=   7260 NMatT0=    0 NMatD0=    1 NMtDS0=    0 NMtDT0=    0
 Symmetry not used in FoFCou.
 Two-electron integral symmetry not used.
 Closed shell SCF:
 Using DIIS extrapolation, IDIIS=  1040.
 NGot=  1610612736 LenX=  1584221388 LenY=  1584205571
 Requested convergence on RMS density matrix=1.00D-08 within 128 cycles.
 Requested convergence on MAX density matrix=1.00D-06.
 Requested convergence on             energy=1.00D-06.
 No special actions if energy rises.

 Cycle   1  Pass 1  IDiag  1:
 E= -649.156892814958    
 DIIS: error= 1.23D-02 at cycle   1 NSaved=   1.
 NSaved= 1 IEnMin= 1 EnMin= -649.156892814958     IErMin= 1 ErrMin= 1.23D-02
 ErrMax= 1.23D-02  0.00D+00 EMaxC= 1.00D-01 BMatC= 2.65D-02 BMatP= 2.65D-02
 IDIUse=3 WtCom= 8.77D-01 WtEn= 1.23D-01
 Coeff-Com:  0.100D+01
 Coeff-En:   0.100D+01
 Coeff:      0.100D+01
 Gap=     0.029 Goal=   None    Shift=    0.000
 GapD=    0.029 DampG=0.250 DampE=0.500 DampFc=0.2500 IDamp=-1.
 Damping current iteration by 2.50D-01
 RMSDP=2.81D-03 MaxDP=1.12D-01              OVMax= 2.22D-01

 Cycle   2  Pass 1  IDiag  1:
 E= -649.160813754042     Delta-E=       -0.003920939084 Rises=F Damp=T
 DIIS: error= 8.57D-03 at cycle   2 NSaved=   2.
 NSaved= 2 IEnMin= 2 EnMin= -649.160813754042     IErMin= 2 ErrMin= 8.57D-03
 ErrMax= 8.57D-03  0.00D+00 EMaxC= 1.00D-01 BMatC= 1.02D-02 BMatP= 2.65D-02
 IDIUse=3 WtCom= 9.14D-01 WtEn= 8.57D-02
 Coeff-Com: -0.126D+01 0.226D+01
 Coeff-En:   0.000D+00 0.100D+01
 Coeff:     -0.115D+01 0.215D+01
 Gap=     0.021 Goal=   None    Shift=    0.000
 RMSDP=3.47D-03 MaxDP=1.91D-01 DE=-3.92D-03 OVMax= 4.97D-01

 Cycle   3  Pass 1  IDiag  1:
 E= -649.128328418694     Delta-E=        0.032485335348 Rises=F Damp=F
 DIIS: error= 8.05D-03 at cycle   3 NSaved=   3.
 NSaved= 3 IEnMin= 2 EnMin= -649.160813754042     IErMin= 3 ErrMin= 8.05D-03
 ErrMax= 8.05D-03  0.00D+00 EMaxC= 1.00D-01 BMatC= 4.08D-03 BMatP= 1.02D-02
 IDIUse=3 WtCom= 9.19D-01 WtEn= 8.05D-02
 Coeff-Com: -0.748D+00 0.131D+01 0.433D+00
 Coeff-En:   0.000D+00 0.913D+00 0.870D-01
 Coeff:     -0.688D+00 0.128D+01 0.406D+00
 Gap=     0.008 Goal=   None    Shift=    0.000
 RMSDP=6.08D-03 MaxDP=4.00D-01 DE= 3.25D-02 OVMax= 6.58D-01

 Cycle   4  Pass 1  IDiag  1:
 E= -649.119898956695     Delta-E=        0.008429461999 Rises=F Damp=F
 DIIS: error= 7.46D-03 at cycle   4 NSaved=   4.
 NSaved= 4 IEnMin= 2 EnMin= -649.160813754042     IErMin= 4 ErrMin= 7.46D-03
 ErrMax= 7.46D-03  0.00D+00 EMaxC= 1.00D-01 BMatC= 4.73D-03 BMatP= 4.08D-03
 IDIUse=3 WtCom= 1.04D-01 WtEn= 8.96D-01
 EnCoef did     2 forward-backward iterations
 Coeff-Com: -0.903D-01 0.187D+00 0.480D+00 0.423D+00
 Coeff-En:   0.000D+00 0.409D-01 0.508D+00 0.451D+00
 Coeff:     -0.937D-02 0.560D-01 0.505D+00 0.448D+00
 Gap=     0.020 Goal=   None    Shift=    0.000
 RMSDP=3.31D-03 MaxDP=2.40D-01 DE= 8.43D-03 OVMax= 3.60D-01

 Cycle   5  Pass 1  IDiag  1:
 E= -649.169705989108     Delta-E=       -0.049807032413 Rises=F Damp=F
 DIIS: error= 6.95D-04 at cycle   5 NSaved=   5.
 NSaved= 5 IEnMin= 5 EnMin= -649.169705989108     IErMin= 5 ErrMin= 6.95D-04
 ErrMax= 6.95D-04  0.00D+00 EMaxC= 1.00D-01 BMatC= 3.42D-05 BMatP= 4.08D-03
 IDIUse=3 WtCom= 9.93D-01 WtEn= 6.95D-03
 Coeff-Com:  0.306D-02-0.506D-02 0.941D-01 0.439D-01 0.864D+00
 Coeff-En:   0.000D+00 0.000D+00 0.000D+00 0.000D+00 0.100D+01
 Coeff:      0.304D-02-0.503D-02 0.934D-01 0.436D-01 0.865D+00
 Gap=     0.028 Goal=   None    Shift=    0.000
 RMSDP=2.60D-04 MaxDP=6.30D-03 DE=-4.98D-02 OVMax= 2.55D-02

 Cycle   6  Pass 1  IDiag  1:
 E= -649.169921618181     Delta-E=       -0.000215629073 Rises=F Damp=F
 DIIS: error= 1.41D-04 at cycle   6 NSaved=   6.
 NSaved= 6 IEnMin= 6 EnMin= -649.169921618181     IErMin= 6 ErrMin= 1.41D-04
 ErrMax= 1.41D-04  0.00D+00 EMaxC= 1.00D-01 BMatC= 3.83D-06 BMatP= 3.42D-05
 IDIUse=3 WtCom= 9.99D-01 WtEn= 1.41D-03
 Coeff-Com:  0.868D-03-0.165D-02 0.204D-01-0.775D-02 0.217D+00 0.771D+00
 Coeff-En:   0.000D+00 0.000D+00 0.000D+00 0.000D+00 0.000D+00 0.100D+01
 Coeff:      0.866D-03-0.165D-02 0.204D-01-0.773D-02 0.217D+00 0.771D+00
 Gap=     0.029 Goal=   None    Shift=    0.000
 RMSDP=1.04D-04 MaxDP=3.06D-03 DE=-2.16D-04 OVMax= 6.30D-03

 Cycle   7  Pass 1  IDiag  1:
 E= -649.169898703318     Delta-E=        0.000022914863 Rises=F Damp=F
 DIIS: error= 2.64D-04 at cycle   7 NSaved=   7.
 NSaved= 7 IEnMin= 6 EnMin= -649.169921618181     IErMin= 6 ErrMin= 1.41D-04
 ErrMax= 2.64D-04  0.00D+00 EMaxC= 1.00D-01 BMatC= 4.75D-06 BMatP= 3.83D-06
 IDIUse=3 WtCom= 9.99D-01 WtEn= 1.41D-03
 Rare condition: small coef for last iteration:  0.000D+00
 Coeff-Com:  0.176D-02-0.256D-02 0.181D-01-0.126D-01 0.835D-01 0.326D+00
 Coeff-Com:  0.586D+00
 Coeff-En:   0.000D+00 0.000D+00 0.000D+00 0.000D+00 0.000D+00 0.000D+00
 Coeff-En:   0.100D+01
 Coeff:      0.176D-02-0.256D-02 0.181D-01-0.126D-01 0.835D-01 0.326D+00
 Coeff:      0.586D+00
 Gap=     0.029 Goal=   None    Shift=    0.000
 RMSDP=2.51D-05 MaxDP=1.31D-03 DE= 2.29D-05 OVMax= 2.14D-03

 Cycle   8  Pass 1  IDiag  1:
 E= -649.169913843073     Delta-E=       -0.000015139755 Rises=F Damp=F
 DIIS: error= 2.08D-04 at cycle   8 NSaved=   8.
 NSaved= 8 IEnMin= 6 EnMin= -649.169921618181     IErMin= 6 ErrMin= 1.41D-04
 ErrMax= 2.08D-04  0.00D+00 EMaxC= 1.00D-01 BMatC= 3.07D-06 BMatP= 3.83D-06
 IDIUse=3 WtCom= 9.99D-01 WtEn= 1.41D-03
 Coeff-Com:  0.213D-02-0.293D-02 0.135D-01-0.108D-01-0.822D-02-0.610D-01
 Coeff-Com: -0.467D+00 0.153D+01
 Coeff-En:   0.000D+00 0.000D+00 0.000D+00 0.000D+00 0.000D+00 0.000D+00
 Coeff-En:   0.000D+00 0.100D+01
 Coeff:      0.213D-02-0.292D-02 0.135D-01-0.108D-01-0.821D-02-0.609D-01
 Coeff:     -0.466D+00 0.153D+01
 Gap=     0.029 Goal=   None    Shift=    0.000
 RMSDP=1.40D-05 MaxDP=4.05D-04 DE=-1.51D-05 OVMax= 4.37D-04

 Cycle   9  Pass 1  IDiag  1:
 E= -649.169916382571     Delta-E=       -0.000002539498 Rises=F Damp=F
 DIIS: error= 1.95D-04 at cycle   9 NSaved=   9.
 NSaved= 9 IEnMin= 6 EnMin= -649.169921618181     IErMin= 6 ErrMin= 1.41D-04
 ErrMax= 1.95D-04  0.00D+00 EMaxC= 1.00D-01 BMatC= 2.63D-06 BMatP= 3.07D-06
 IDIUse=3 WtCom= 9.99D-01 WtEn= 1.41D-03
 Coeff-Com:  0.195D-02-0.271D-02 0.129D-01-0.102D-01-0.118D-01-0.646D-01
 Coeff-Com: -0.535D+00 0.122D+01 0.393D+00
 Coeff-En:   0.000D+00 0.000D+00 0.000D+00 0.000D+00 0.000D+00 0.000D+00
 Coeff-En:   0.000D+00 0.000D+00 0.100D+01
 Coeff:      0.195D-02-0.271D-02 0.129D-01-0.101D-01-0.118D-01-0.645D-01
 Coeff:     -0.535D+00 0.122D+01 0.393D+00
 Gap=     0.029 Goal=   None    Shift=    0.000
 RMSDP=5.46D-06 MaxDP=3.49D-04 DE=-2.54D-06 OVMax= 6.00D-04

 Cycle  10  Pass 1  IDiag  1:
 E= -649.169919747228     Delta-E=       -0.000003364657 Rises=F Damp=F
 DIIS: error= 1.79D-04 at cycle  10 NSaved=  10.
 NSaved=10 IEnMin= 6 EnMin= -649.169921618181     IErMin= 6 ErrMin= 1.41D-04
 ErrMax= 1.79D-04  0.00D+00 EMaxC= 1.00D-01 BMatC= 2.23D-06 BMatP= 2.63D-06
 IDIUse=3 WtCom= 9.99D-01 WtEn= 1.41D-03
 Coeff-Com: -0.152D-03 0.187D-03 0.460D-02-0.301D-02 0.787D-02 0.103D+00
 Coeff-Com: -0.755D-01-0.701D+00-0.602D+01 0.769D+01
 Coeff-En:   0.000D+00 0.000D+00 0.000D+00 0.000D+00 0.000D+00 0.932D+00
 Coeff-En:   0.000D+00 0.000D+00 0.000D+00 0.682D-01
 Coeff:     -0.152D-03 0.187D-03 0.459D-02-0.300D-02 0.786D-02 0.104D+00
 Coeff:     -0.754D-01-0.700D+00-0.601D+01 0.768D+01
 Gap=     0.029 Goal=   None    Shift=    0.000
 RMSDP=3.74D-05 MaxDP=2.33D-03 DE=-3.36D-06 OVMax= 4.15D-03

 Cycle  11  Pass 1  IDiag  1:
 E= -649.169935052417     Delta-E=       -0.000015305189 Rises=F Damp=F
 DIIS: error= 6.83D-05 at cycle  11 NSaved=  11.
 NSaved=11 IEnMin=11 EnMin= -649.169935052417     IErMin=11 ErrMin= 6.83D-05
 ErrMax= 6.83D-05  0.00D+00 EMaxC= 1.00D-01 BMatC= 3.15D-07 BMatP= 2.23D-06
 IDIUse=1 WtCom= 1.00D+00 WtEn= 0.00D+00
 Coeff-Com:  0.103D-03-0.108D-03 0.382D-03-0.640D-04 0.543D-03 0.312D-01
 Coeff-Com:  0.362D-01-0.207D+00-0.244D+01 0.239D+01 0.119D+01
 Coeff:      0.103D-03-0.108D-03 0.382D-03-0.640D-04 0.543D-03 0.312D-01
 Coeff:      0.362D-01-0.207D+00-0.244D+01 0.239D+01 0.119D+01
 Gap=     0.029 Goal=   None    Shift=    0.000
 RMSDP=2.21D-05 MaxDP=1.39D-03 DE=-1.53D-05 OVMax= 2.49D-03

 Cycle  12  Pass 1  IDiag  1:
 E= -649.169937646364     Delta-E=       -0.000002593948 Rises=F Damp=F
 DIIS: error= 2.25D-06 at cycle  12 NSaved=  12.
 NSaved=12 IEnMin=12 EnMin= -649.169937646364     IErMin=12 ErrMin= 2.25D-06
 ErrMax= 2.25D-06  0.00D+00 EMaxC= 1.00D-01 BMatC= 6.43D-10 BMatP= 3.15D-07
 IDIUse=1 WtCom= 1.00D+00 WtEn= 0.00D+00
 Coeff-Com:  0.118D-03-0.155D-03 0.155D-03-0.567D-04 0.155D-03 0.368D-02
 Coeff-Com:  0.118D-01 0.124D-01-0.272D+00 0.143D+00 0.308D+00 0.793D+00
 Coeff:      0.118D-03-0.155D-03 0.155D-03-0.567D-04 0.155D-03 0.368D-02
 Coeff:      0.118D-01 0.124D-01-0.272D+00 0.143D+00 0.308D+00 0.793D+00
 Gap=     0.029 Goal=   None    Shift=    0.000
 RMSDP=7.94D-07 MaxDP=2.10D-05 DE=-2.59D-06 OVMax= 3.15D-05

 Cycle  13  Pass 1  IDiag  1:
 E= -649.169937647389     Delta-E=       -0.000000001025 Rises=F Damp=F
 DIIS: error= 1.86D-06 at cycle  13 NSaved=  13.
 NSaved=13 IEnMin=13 EnMin= -649.169937647389     IErMin=13 ErrMin= 1.86D-06
 ErrMax= 1.86D-06  0.00D+00 EMaxC= 1.00D-01 BMatC= 3.18D-10 BMatP= 6.43D-10
 IDIUse=1 WtCom= 1.00D+00 WtEn= 0.00D+00
 Coeff-Com: -0.166D-04 0.218D-04-0.295D-04 0.184D-04-0.115D-03-0.183D-02
 Coeff-Com: -0.769D-03 0.117D-01 0.137D+00-0.161D+00-0.365D-01 0.731D-01
 Coeff-Com:  0.978D+00
 Coeff:     -0.166D-04 0.218D-04-0.295D-04 0.184D-04-0.115D-03-0.183D-02
 Coeff:     -0.769D-03 0.117D-01 0.137D+00-0.161D+00-0.365D-01 0.731D-01
 Coeff:      0.978D+00
 Gap=     0.029 Goal=   None    Shift=    0.000
 RMSDP=9.42D-07 MaxDP=5.68D-05 DE=-1.03D-09 OVMax= 1.03D-04

 Cycle  14  Pass 1  IDiag  1:
 E= -649.169937649817     Delta-E=       -0.000000002427 Rises=F Damp=F
 DIIS: error= 4.11D-07 at cycle  14 NSaved=  14.
 NSaved=14 IEnMin=14 EnMin= -649.169937649817     IErMin=14 ErrMin= 4.11D-07
 ErrMax= 4.11D-07  0.00D+00 EMaxC= 1.00D-01 BMatC= 1.91D-11 BMatP= 3.18D-10
 IDIUse=1 WtCom= 1.00D+00 WtEn= 0.00D+00
 Coeff-Com: -0.131D-04 0.172D-04 0.116D-05-0.344D-05-0.392D-05-0.719D-03
 Coeff-Com: -0.586D-04 0.473D-02 0.571D-01-0.584D-01-0.326D-01 0.250D-02
 Coeff-Com:  0.455D+00 0.573D+00
 Coeff:     -0.131D-04 0.172D-04 0.116D-05-0.344D-05-0.392D-05-0.719D-03
 Coeff:     -0.586D-04 0.473D-02 0.571D-01-0.584D-01-0.326D-01 0.250D-02
 Coeff:      0.455D+00 0.573D+00
 Gap=     0.029 Goal=   None    Shift=    0.000
 RMSDP=2.20D-07 MaxDP=1.31D-05 DE=-2.43D-09 OVMax= 2.25D-05

 Cycle  15  Pass 1  IDiag  1:
 E= -649.169937649973     Delta-E=       -0.000000000156 Rises=F Damp=F
 DIIS: error= 5.30D-08 at cycle  15 NSaved=  15.
 NSaved=15 IEnMin=15 EnMin= -649.169937649973     IErMin=15 ErrMin= 5.30D-08
 ErrMax= 5.30D-08  0.00D+00 EMaxC= 1.00D-01 BMatC= 2.98D-13 BMatP= 1.91D-11
 IDIUse=1 WtCom= 1.00D+00 WtEn= 0.00D+00
 Coeff-Com: -0.178D-05 0.234D-05 0.114D-05-0.109D-05-0.643D-06-0.550D-05
 Coeff-Com: -0.423D-04-0.104D-03 0.822D-03 0.147D-02-0.537D-02-0.160D-01
 Coeff-Com:  0.257D-01 0.151D+00 0.842D+00
 Coeff:     -0.178D-05 0.234D-05 0.114D-05-0.109D-05-0.643D-06-0.550D-05
 Coeff:     -0.423D-04-0.104D-03 0.822D-03 0.147D-02-0.537D-02-0.160D-01
 Coeff:      0.257D-01 0.151D+00 0.842D+00
 Gap=     0.029 Goal=   None    Shift=    0.000
 RMSDP=2.07D-08 MaxDP=6.62D-07 DE=-1.56D-10 OVMax= 1.51D-06

 Cycle  16  Pass 1  IDiag  1:
 E= -649.169937649974     Delta-E=       -0.000000000001 Rises=F Damp=F
 DIIS: error= 2.13D-08 at cycle  16 NSaved=  16.
 NSaved=16 IEnMin=16 EnMin= -649.169937649974     IErMin=16 ErrMin= 2.13D-08
 ErrMax= 2.13D-08  0.00D+00 EMaxC= 1.00D-01 BMatC= 4.48D-14 BMatP= 2.98D-13
 IDIUse=1 WtCom= 1.00D+00 WtEn= 0.00D+00
 Coeff-Com:  0.320D-06-0.422D-06-0.550D-07 0.178D-06-0.159D-05 0.345D-04
 Coeff-Com:  0.159D-05-0.376D-03-0.293D-02 0.370D-02 0.102D-04-0.416D-02
 Coeff-Com: -0.183D-01 0.202D-02 0.187D+00 0.833D+00
 Coeff:      0.320D-06-0.422D-06-0.550D-07 0.178D-06-0.159D-05 0.345D-04
 Coeff:      0.159D-05-0.376D-03-0.293D-02 0.370D-02 0.102D-04-0.416D-02
 Coeff:     -0.183D-01 0.202D-02 0.187D+00 0.833D+00
 Gap=     0.029 Goal=   None    Shift=    0.000
 RMSDP=9.88D-09 MaxDP=5.73D-07 DE=-9.09D-13 OVMax= 1.09D-06

 SCF Done:  E(RB3LYP) =  -649.169937650     A.U. after   16 cycles
            NFock= 16  Conv=0.99D-08     -V/T= 2.0029
 KE= 6.472724712916D+02 PE=-1.689195950103D+03 EE= 3.276089160875D+02
 Leave Link  502 at Wed Oct  4 14:15:21 2023, MaxMem=  1610612736 cpu:             177.4 elap:              99.0
 (Enter /home/sekinelabo/g16/l601.exe)
 Copying SCF densities to generalized density rwf, IOpCl= 0 IROHF=0.

 **********************************************************************

            Population analysis using the SCF Density.

 **********************************************************************

 Orbital symmetries:
       Occupied  (A) (A) (A) (A) (A) (A) (A) (A) (A) (A) (A) (A)
                 (A) (A) (A) (A) (A) (A) (A) (A) (A) (A)
       Virtual   (A) (A) (A) (A) (A) (A) (A) (A) (A) (A) (A) (A)
                 (A) (A) (A) (A) (A) (A) (A) (A) (A) (A) (A) (A)
                 (A) (A) (A) (A) (A) (A) (A) (A) (A) (A) (A) (A)
                 (A) (A) (A) (A) (A) (A) (A) (A) (A) (A) (A) (A)
                 (A) (A) (A) (A) (A) (A) (A) (A) (A) (A) (A) (A)
                 (A) (A) (A) (A) (A) (A) (A) (A) (A) (A) (A) (A)
                 (A) (A) (A) (A) (A) (A) (A) (A) (A) (A) (A) (A)
                 (A) (A) (A) (A) (A) (A) (A) (A) (A) (A) (A) (A)
                 (A) (A)
 The electronic state is 1-A.
 Alpha  occ. eigenvalues --  -38.46406 -38.46367 -38.44682 -38.44474  -2.22072
 Alpha  occ. eigenvalues --   -2.22037  -2.20476  -2.20268  -1.15752  -1.15750
 Alpha  occ. eigenvalues --   -1.15713  -1.15713  -1.15713  -1.15682  -1.14216
 Alpha  occ. eigenvalues --   -1.14126  -1.14125  -1.13920  -1.13914  -1.13881
 Alpha  occ. eigenvalues --   -0.13580  -0.11443
 Alpha virt. eigenvalues --   -0.08552  -0.05607  -0.02851  -0.02763  -0.02157
 Alpha virt. eigenvalues --   -0.01861  -0.01616  -0.00823  -0.00617  -0.00432
 Alpha virt. eigenvalues --    0.00020   0.00666   0.00806   0.00856   0.01032
 Alpha virt. eigenvalues --    0.01245   0.01340   0.01597   0.01652   0.01774
 Alpha virt. eigenvalues --    0.01864   0.02191   0.02332   0.02410   0.02588
 Alpha virt. eigenvalues --    0.02897   0.02908   0.03523   0.03805   0.04714
 Alpha virt. eigenvalues --    0.07107   0.07329   0.07361   0.07618   0.07978
 Alpha virt. eigenvalues --    0.08044   0.08613   0.08656   0.08755   0.09288
 Alpha virt. eigenvalues --    0.09671   0.09889   0.10881   0.11329   0.11674
 Alpha virt. eigenvalues --    0.15338   0.29466   0.29495   0.31628   0.32632
 Alpha virt. eigenvalues --    0.32739   0.33555   0.34246   0.34249   0.34292
 Alpha virt. eigenvalues --    0.34365   0.34414   0.34508   0.34600   0.35362
 Alpha virt. eigenvalues --    0.35776   0.37911   0.37938   0.41635   0.41895
 Alpha virt. eigenvalues --    0.42289   0.42773   0.43130   0.43224   0.43296
 Alpha virt. eigenvalues --    0.43454   0.44217   0.45338   0.46617   0.48905
 Alpha virt. eigenvalues --    0.48991   0.49584   0.72137   2.00234   2.00824
 Alpha virt. eigenvalues --    2.03759   2.12715   4.40817   4.42116   4.42273
 Alpha virt. eigenvalues --    4.42484   4.42841   4.43139   4.43436   4.43535
 Alpha virt. eigenvalues --    4.44872   4.45729   4.46753   4.65220  96.19152
 Alpha virt. eigenvalues --   96.19876  96.23276  96.35265
          Condensed to atoms (all electrons):
               1          2          3          4
     1  Na  10.922042   0.131899  -0.022903  -0.067041
     2  Na   0.131899  10.942988  -0.014575  -0.008748
     3  Na  -0.022903  -0.014575  10.730130   0.359403
     4  Na  -0.067041  -0.008748   0.359403  10.648770
 Mulliken charges:
               1
     1  Na   0.036003
     2  Na  -0.051565
     3  Na  -0.052054
     4  Na   0.067616
 Sum of Mulliken charges =  -0.00000
 Mulliken charges with hydrogens summed into heavy atoms:
               1
     1  Na   0.036003
     2  Na  -0.051565
     3  Na  -0.052054
     4  Na   0.067616
 Electronic spatial extent (au):  <R**2>=           3776.9868
 Charge=             -0.0000 electrons
 Dipole moment (field-independent basis, Debye):
    X=              0.6348    Y=              0.3990    Z=              0.0019  Tot=              0.7498
 Quadrupole moment (field-independent basis, Debye-Ang):
   XX=            -31.3089   YY=            -36.0724   ZZ=            -46.3505
   XY=              0.5088   XZ=              0.1104   YZ=              0.0820
 Traceless Quadrupole moment (field-independent basis, Debye-Ang):
   XX=              6.6017   YY=              1.8382   ZZ=             -8.4399
   XY=              0.5088   XZ=              0.1104   YZ=              0.0820
 Octapole moment (field-independent basis, Debye-Ang**2):
  XXX=            -61.9613  YYY=              8.5953  ZZZ=             -0.0207  XYY=             44.8153
  XXY=             73.6865  XXZ=             -0.2153  XZZ=              9.4335  YZZ=              0.9081
  YYZ=              0.0044  XYZ=              0.5871
 Hexadecapole moment (field-independent basis, Debye-Ang**3):
 XXXX=          -4681.4601 YYYY=           -495.6480 ZZZZ=           -210.7871 XXXY=              8.3989
 XXXZ=              7.2912 YYYX=             39.9613 YYYZ=              0.6155 ZZZX=              0.4958
 ZZZY=              0.4674 XXYY=           -902.7680 XXZZ=          -1071.3311 YYZZ=           -121.4855
 XXYZ=              1.7050 YYXZ=              0.2242 ZZXY=              2.1277
 N-N= 6.514462507396D+01 E-N=-1.689195951755D+03  KE= 6.472724712916D+02
 No NMR shielding tensors so no spin-rotation constants.
 Leave Link  601 at Wed Oct  4 14:15:25 2023, MaxMem=  1610612736 cpu:               8.2 elap:               4.7
 (Enter /home/sekinelabo/g16/l701.exe)
 ... and contract with generalized density number  0.
 Compute integral first derivatives.
 Leave Link  701 at Wed Oct  4 14:15:29 2023, MaxMem=  1610612736 cpu:               6.7 elap:               3.8
 (Enter /home/sekinelabo/g16/l702.exe)
 L702 exits ... SP integral derivatives will be done elsewhere.
 Leave Link  702 at Wed Oct  4 14:15:30 2023, MaxMem=  1610612736 cpu:               0.7 elap:               0.5
 (Enter /home/sekinelabo/g16/l703.exe)
 Integral derivatives from FoFJK, PRISM(SPDF).
 Compute integral first derivatives, UseDBF=F ICtDFT=           0.
 Calling FoFJK, ICntrl=      2127 FMM=F ISym2X=0 I1Cent= 0 IOpClX= 0 NMat=1 NMatS=1 NMatT=0.
 FoFJK:  IHMeth= 1 ICntrl=    2127 DoSepK=F KAlg= 0 I1Cent=           0 FoldK=F
 IRaf=         0 NMat=       1 IRICut=       1 DoRegI=T DoRafI=F ISym2E= 0 IDoP0=0 IntGTp=1.
 FoFCou: FMM=F IPFlag=           0 FMFlag=      100000 FMFlg1=         800
         NFxFlg=           0 DoJE=F BraDBF=F KetDBF=F FulRan=T
         wScrn=  0.000000 ICntrl=      2127 IOpCl=  0 I1Cent=           0 NGrid=           0
         NMat0=    1 NMatS0=      1 NMatT0=    0 NMatD0=    1 NMtDS0=    0 NMtDT0=    0
 Symmetry not used in FoFCou.
 Leave Link  703 at Wed Oct  4 14:15:37 2023, MaxMem=  1610612736 cpu:              12.4 elap:               6.9
 (Enter /home/sekinelabo/g16/l716.exe)
 Dipole        = 2.49756795D-01 1.56990127D-01 7.61190614D-04
 ***** Axes restored to original set *****
 -------------------------------------------------------------------
 Center     Atomic                   Forces (Hartrees/Bohr)
 Number     Number              X              Y              Z
 -------------------------------------------------------------------
      1       11          -0.002096837   -0.000005218   -0.003573950
      2       11           0.002018273    0.000001231    0.004615901
      3       11           0.001579162    0.000091125   -0.001736306
      4       11          -0.001500598   -0.000087138    0.000694355
 -------------------------------------------------------------------
 Cartesian Forces:  Max     0.004615901 RMS     0.002057672
 Z-matrix is all fixed cartesians, so copy forces.
 Force constants in Cartesian coordinates: 
                1             2             3             4             5 
      1  0.100000D+01
      2  0.000000D+00  0.100000D+01
      3  0.000000D+00  0.000000D+00  0.100000D+01
      4  0.000000D+00  0.000000D+00  0.000000D+00  0.100000D+01
      5  0.000000D+00  0.000000D+00  0.000000D+00  0.000000D+00  0.100000D+01
      6  0.000000D+00  0.000000D+00  0.000000D+00  0.000000D+00  0.000000D+00
      7  0.000000D+00  0.000000D+00  0.000000D+00  0.000000D+00  0.000000D+00
      8  0.000000D+00  0.000000D+00  0.000000D+00  0.000000D+00  0.000000D+00
      9  0.000000D+00  0.000000D+00  0.000000D+00  0.000000D+00  0.000000D+00
     10  0.000000D+00  0.000000D+00  0.000000D+00  0.000000D+00  0.000000D+00
     11  0.000000D+00  0.000000D+00  0.000000D+00  0.000000D+00  0.000000D+00
     12  0.000000D+00  0.000000D+00  0.000000D+00  0.000000D+00  0.000000D+00
                6             7             8             9            10 
      6  0.100000D+01
      7  0.000000D+00  0.311471D-01
      8  0.000000D+00 -0.375371D-01  0.998459D+00
      9  0.000000D+00 -0.157709D-01  0.864456D-02  0.809805D-02
     10  0.000000D+00 -0.296055D-01 -0.169326D-02  0.153966D-01  0.311471D-01
     11  0.000000D+00 -0.169326D-02 -0.968448D-04  0.880598D-03 -0.375371D-01
     12  0.000000D+00  0.153966D-01  0.880598D-03 -0.800717D-02 -0.157709D-01
               11            12 
     11  0.998459D+00
     12  0.864456D-02  0.809805D-02
 Leave Link  716 at Wed Oct  4 14:15:37 2023, MaxMem=  1610612736 cpu:               0.7 elap:               0.4
 (Enter /home/sekinelabo/g16/l103.exe)

 GradGradGradGradGradGradGradGradGradGradGradGradGradGradGradGradGradGrad
 Berny optimization.
 Search for a local minimum.
 Step number   1 out of a maximum of    2
 All quantities printed in internal units (Hartrees-Bohrs-Radians)
 Second derivative matrix not updated -- first step.
 The second derivative matrix:
                          X1        Y1        Z1        X2        Y2
           X1           1.00000
           Y1          -0.00000   1.00000
           Z1          -0.00000   0.00000   1.00000
           X2           0.00000   0.00000   0.00000   1.00000
           Y2           0.00000   0.00000   0.00000  -0.00000   1.00000
           Z2           0.00000   0.00000   0.00000  -0.00000   0.00000
           X3           0.00000   0.00000   0.00000   0.00000   0.00000
           Y3           0.00000   0.00000   0.00000   0.00000   0.00000
           Z3           0.00000   0.00000   0.00000   0.00000   0.00000
           X4           0.00000   0.00000   0.00000   0.00000   0.00000
           Y4           0.00000   0.00000   0.00000   0.00000   0.00000
           Z4           0.00000   0.00000   0.00000   0.00000   0.00000
                          Z2        X3        Y3        Z3        X4
           Z2           1.00000
           X3           0.00000   0.03115
           Y3           0.00000  -0.03754   0.99846
           Z3           0.00000  -0.01577   0.00864   0.00810
           X4           0.00000  -0.02961  -0.00169   0.01540   0.03115
           Y4           0.00000  -0.00169  -0.00010   0.00088  -0.03754
           Z4           0.00000   0.01540   0.00088  -0.00801  -0.01577
                          Y4        Z4
           Y4           0.99846
           Z4           0.00864   0.00810
 ITU=  0
     Eigenvalues ---    0.02608   0.07550   0.50000   0.91286   1.00000
     Eigenvalues ---    1.00000
 Angle between quadratic step and forces=  59.08 degrees.
 Linear search not attempted -- first point.
 B after Tr=     0.000000   -0.000000    0.000000
         Rot=    1.000000    0.000000    0.000000    0.000000 Ang=   0.00 deg.
 Variable       Old X    -DE/DX   Delta X   Delta X   Delta X     New X
                                 (Linear)    (Quad)   (Total)
    X1       -0.00000  -0.00210   0.00000  -0.00067  -0.00067  -0.00067
    Y1       -0.00000  -0.00001   0.00000   0.00018   0.00018   0.00018
    Z1       -0.00000  -0.00357   0.00000  -0.00273  -0.00273  -0.00273
    X2       -4.21361   0.00202   0.00000   0.00473   0.00473  -4.20888
    Y2        0.00000   0.00000   0.00000   0.00009   0.00009   0.00009
    Z2       -9.80890   0.00462   0.00000   0.00491   0.00491  -9.80399
    X3       -0.00000   0.00158   0.00000   0.01433   0.01433   0.01433
    Y3       -0.00000   0.00009   0.00000   0.00086   0.00086   0.00086
    Z3        9.99699  -0.00174   0.00000  -0.02500  -0.02500   9.97200
    X4       -5.00675  -0.00150   0.00000  -0.01839  -0.01839  -5.02514
    Y4       -0.28636  -0.00009   0.00000  -0.00113  -0.00113  -0.28749
    Z4       12.60080   0.00069   0.00000   0.02281   0.02281  12.62361
         Item               Value     Threshold  Converged?
 Maximum Force            0.004616     0.000450     NO 
 RMS     Force            0.002058     0.000300     NO 
 Maximum Displacement     0.024996     0.001800     NO 
 RMS     Displacement     0.012058     0.001200     NO 
 Predicted change in Energy=-7.649797D-05
 GradGradGradGradGradGradGradGradGradGradGradGradGradGradGradGradGradGrad

 Leave Link  103 at Wed Oct  4 14:15:39 2023, MaxMem=  1610612736 cpu:               4.0 elap:               2.2
 (Enter /home/sekinelabo/g16/l9999.exe)
 1\1\GINC-SEKINELABO-XA7R-R37\Force\RB3LYP\6-311+G(d)\Na4\SEKINELABO\04
 -Oct-2023\0\\#p B3LYP/6-311+g(d) force\\\0,1\Na,0.,0.,0.\Na,-2.2297472
 175,0.,-5.1906477538\Na,0.,0.,5.2901800985\Na,-2.6494578993,-0.1515335
 318,6.6680562322\\Version=ES64L-G16RevB.01\State=1-A\HF=-649.1699376\R
 MSD=9.879e-09\RMSF=2.058e-03\Dipole=-0.1502043,-0.0090849,0.2537342\Qu
 adrupole=1.3327864,-6.2556667,4.9228803,0.3603844,-0.2774982,-0.201468
 3\PG=C01 [X(Na4)]\\@


 HONESTY IN A LAWYER IS LIKE A HEN'S HIND LEGS.
  -- MAGNUS OLESON, LAKE WOBEGON PATRIARCH, C.1875
 Job cpu time:       0 days  0 hours  4 minutes 13.5 seconds.
 Elapsed time:       0 days  0 hours  2 minutes 22.1 seconds.
 File lengths (MBytes):  RWF=     10 Int=      0 D2E=      0 Chk=      2 Scr=      1
 Normal termination of Gaussian 16 at Wed Oct  4 14:15:40 2023.
 Initial command:
 /home/sekinelabo/g16/l1.exe "/home/sekinelabo/g16temp/Gau-8096.inp" -scrdir="/home/sekinelabo/g16temp/"
 Entering Link 1 = /home/sekinelabo/g16/l1.exe PID=     12318.
  
 Copyright (c) 1988-2017, Gaussian, Inc.  All Rights Reserved.
  
 This is part of the Gaussian(R) 16 program.  It is based on
 the Gaussian(R) 09 system (copyright 2009, Gaussian, Inc.),
 the Gaussian(R) 03 system (copyright 2003, Gaussian, Inc.),
 the Gaussian(R) 98 system (copyright 1998, Gaussian, Inc.),
 the Gaussian(R) 94 system (copyright 1995, Gaussian, Inc.),
 the Gaussian 92(TM) system (copyright 1992, Gaussian, Inc.),
 the Gaussian 90(TM) system (copyright 1990, Gaussian, Inc.),
 the Gaussian 88(TM) system (copyright 1988, Gaussian, Inc.),
 the Gaussian 86(TM) system (copyright 1986, Carnegie Mellon
 University), and the Gaussian 82(TM) system (copyright 1983,
 Carnegie Mellon University). Gaussian is a federally registered
 trademark of Gaussian, Inc.
  
 This software contains proprietary and confidential information,
 including trade secrets, belonging to Gaussian, Inc.
  
 This software is provided under written license and may be
 used, copied, transmitted, or stored only in accord with that
 written license.
  
 The following legend is applicable only to US Government
 contracts under FAR:
  
                    RESTRICTED RIGHTS LEGEND
  
 Use, reproduction and disclosure by the US Government is
 subject to restrictions as set forth in subparagraphs (a)
 and (c) of the Commercial Computer Software - Restricted
 Rights clause in FAR 52.227-19.
  
 Gaussian, Inc.
 340 Quinnipiac St., Bldg. 40, Wallingford CT 06492
  
  
 ---------------------------------------------------------------
 Warning -- This program may not be used in any manner that
 competes with the business of Gaussian, Inc. or will provide
 assistance to any competitor of Gaussian, Inc.  The licensee
 of this program is prohibited from giving any competitor of
 Gaussian, Inc. access to this program.  By using this program,
 the user acknowledges that Gaussian, Inc. is engaged in the
 business of creating and licensing software in the field of
 computational chemistry and represents and warrants to the
 licensee that it is not a competitor of Gaussian, Inc. and that
 it will not use this program in any manner prohibited above.
 ---------------------------------------------------------------
  

 Cite this work as:
 Gaussian 16, Revision B.01,
 M. J. Frisch, G. W. Trucks, H. B. Schlegel, G. E. Scuseria, 
 M. A. Robb, J. R. Cheeseman, G. Scalmani, V. Barone, 
 G. A. Petersson, H. Nakatsuji, X. Li, M. Caricato, A. V. Marenich, 
 J. Bloino, B. G. Janesko, R. Gomperts, B. Mennucci, H. P. Hratchian, 
 J. V. Ortiz, A. F. Izmaylov, J. L. Sonnenberg, D. Williams-Young, 
 F. Ding, F. Lipparini, F. Egidi, J. Goings, B. Peng, A. Petrone, 
 T. Henderson, D. Ranasinghe, V. G. Zakrzewski, J. Gao, N. Rega, 
 G. Zheng, W. Liang, M. Hada, M. Ehara, K. Toyota, R. Fukuda, 
 J. Hasegawa, M. Ishida, T. Nakajima, Y. Honda, O. Kitao, H. Nakai, 
 T. Vreven, K. Throssell, J. A. Montgomery, Jr., J. E. Peralta, 
 F. Ogliaro, M. J. Bearpark, J. J. Heyd, E. N. Brothers, K. N. Kudin, 
 V. N. Staroverov, T. A. Keith, R. Kobayashi, J. Normand, 
 K. Raghavachari, A. P. Rendell, J. C. Burant, S. S. Iyengar, 
 J. Tomasi, M. Cossi, J. M. Millam, M. Klene, C. Adamo, R. Cammi, 
 J. W. Ochterski, R. L. Martin, K. Morokuma, O. Farkas, 
 J. B. Foresman, and D. J. Fox, Gaussian, Inc., Wallingford CT, 2016.
 
 ******************************************
 Gaussian 16:  ES64L-G16RevB.01 20-Dec-2017
                 4-Oct-2023 
 ******************************************
 %NProcShared=16
 Will use up to   16 processors via shared memory.
 %mem=12GB
 %Chk=checkpoint.chk
 -------------------------
 #p B3LYP/6-311+g(d) force
 -------------------------
 1/10=7,30=1,38=1/1,3;
 2/12=2,17=6,18=5,40=1/2;
 3/5=4,6=6,7=11,11=2,25=1,30=1,71=1,74=-5/1,2,3;
 4//1;
 5/5=2,38=5/2;
 6/7=2,8=2,9=2,10=2,28=1/1;
 7/29=1/1,2,3,16;
 1/10=7,30=1/3;
 99//99;
 Leave Link    1 at Wed Oct  4 14:15:40 2023, MaxMem=  1610612736 cpu:               0.5 elap:               0.3
 (Enter /home/sekinelabo/g16/l101.exe)


 Symbolic Z-matrix:
 Charge =  0 Multiplicity = 1
 Na                    0.        0.        0. 
 Na                   -1.77996   0.       -3.82081 
 Na                    0.        0.        4.04191 
 Na                    2.1578   -1.95767   8.02223 
 
 ITRead=  0  0  0  0
 MicOpt= -1 -1 -1 -1
 NAtoms=      4 NQM=        4 NQMF=       0 NMMI=      0 NMMIF=      0
                NMic=       0 NMicF=      0.
                    Isotopes and Nuclear Properties:
 (Nuclear quadrupole moments (NQMom) in fm**2, nuclear magnetic moments (NMagM)
  in nuclear magnetons)

  Atom         1           2           3           4
 IAtWgt=          23          23          23          23
 AtmWgt=  22.9897697  22.9897697  22.9897697  22.9897697
 NucSpn=           3           3           3           3
 AtZEff=  -0.0000000  -0.0000000  -0.0000000  -0.0000000
 NQMom=   10.4000000  10.4000000  10.4000000  10.4000000
 NMagM=    2.2175200   2.2175200   2.2175200   2.2175200
 AtZNuc=  11.0000000  11.0000000  11.0000000  11.0000000
 Leave Link  101 at Wed Oct  4 14:15:41 2023, MaxMem=  1610612736 cpu:               2.1 elap:               1.2
 (Enter /home/sekinelabo/g16/l103.exe)

 GradGradGradGradGradGradGradGradGradGradGradGradGradGradGradGradGradGrad
 Berny optimization.
 Initialization pass.
 Trust Radius=3.00D-01 FncErr=1.00D-07 GrdErr=1.00D-07 EigMax=2.50D+02 EigMin=1.00D-04
 Number of steps in this run=      2 maximum allowed number of steps=      2.
 GradGradGradGradGradGradGradGradGradGradGradGradGradGradGradGradGradGrad

 Leave Link  103 at Wed Oct  4 14:15:42 2023, MaxMem=  1610612736 cpu:               0.6 elap:               0.3
 (Enter /home/sekinelabo/g16/l202.exe)
                          Input orientation:                          
 ---------------------------------------------------------------------
 Center     Atomic      Atomic             Coordinates (Angstroms)
 Number     Number       Type             X           Y           Z
 ---------------------------------------------------------------------
      1         11           0        0.000000    0.000000    0.000000
      2         11           0       -1.779958    0.000000   -3.820808
      3         11           0        0.000000    0.000000    4.041908
      4         11           0        2.157797   -1.957671    8.022232
 ---------------------------------------------------------------------
                    Distance matrix (angstroms):
                    1          2          3          4
     1  Na   0.000000
     2  Na   4.215071   0.000000
     3  Na   4.041908   8.061672   0.000000
     4  Na   8.534915  12.633131   4.932702   0.000000
 Stoichiometry    Na4
 Framework group  C1[X(Na4)]
 Deg. of freedom     6
 Full point group                 C1      NOp   1
 Largest Abelian subgroup         C1      NOp   1
 Largest concise Abelian subgroup C1      NOp   1
                         Standard orientation:                         
 ---------------------------------------------------------------------
 Center     Atomic      Atomic             Coordinates (Angstroms)
 Number     Number       Type             X           Y           Z
 ---------------------------------------------------------------------
      1         11           0        2.050013   -0.145562    0.521288
      2         11           0        6.178143   -0.272494   -0.320888
      3         11           0       -1.778606    1.001548   -0.081066
      4         11           0       -6.449551   -0.583493   -0.119335
 ---------------------------------------------------------------------
 Rotational constants (GHZ):          11.9828029           0.2511523           0.2481934
 Leave Link  202 at Wed Oct  4 14:15:42 2023, MaxMem=  1610612736 cpu:               1.2 elap:               0.6
 (Enter /home/sekinelabo/g16/l301.exe)
 Standard basis: 6-311+G(d) (5D, 7F)
 Ernie: Thresh=  0.10000D-02 Tol=  0.10000D-05 Strict=F.
 There are   124 symmetry adapted cartesian basis functions of A   symmetry.
 There are   120 symmetry adapted basis functions of A   symmetry.
   120 basis functions,   200 primitive gaussians,   124 cartesian basis functions
    22 alpha electrons       22 beta electrons
       nuclear repulsion energy        64.5264855192 Hartrees.
 IExCor=  402 DFT=T Ex+Corr=B3LYP ExCW=0 ScaHFX=  0.200000
 ScaDFX=  0.800000  0.720000  1.000000  0.810000 ScalE2=  1.000000  1.000000
 IRadAn=      5 IRanWt=     -1 IRanGd=            0 ICorTp=0 IEmpDi=  4
 NAtoms=    4 NActive=    4 NUniq=    4 SFac= 1.00D+00 NAtFMM=   60 NAOKFM=F Big=F
 Integral buffers will be    131072 words long.
 Raffenetti 2 integral format.
 Two-electron integral symmetry is turned on.
 Leave Link  301 at Wed Oct  4 14:15:43 2023, MaxMem=  1610612736 cpu:               0.8 elap:               0.4
 (Enter /home/sekinelabo/g16/l302.exe)
 NPDir=0 NMtPBC=     1 NCelOv=     1 NCel=       1 NClECP=     1 NCelD=      1
         NCelK=      1 NCelE2=     1 NClLst=     1 CellRange=     0.0.
 One-electron integrals computed using PRISM.
 One-electron integral symmetry used in STVInt
 NBasis=   120 RedAO= T EigKep=  1.16D-04  NBF=   120
 NBsUse=   120 1.00D-06 EigRej= -1.00D+00 NBFU=   120
 Precomputing XC quadrature grid using
 IXCGrd= 4 IRadAn=           5 IRanWt=          -1 IRanGd=           0 AccXCQ= 0.00D+00.
[...]
 Gap=     0.041 Goal=   None    Shift=    0.000
 RMSDP=3.03D-03 MaxDP=1.66D-01 DE=-5.92D-03 OVMax= 2.28D-01

 Cycle   4  Pass 1  IDiag  1:
 E= -649.175546028354     Delta-E=        0.006989237047 Rises=F Damp=F
 DIIS: error= 3.55D-03 at cycle   4 NSaved=   4.
 NSaved= 4 IEnMin= 3 EnMin= -649.182535265401     IErMin= 3 ErrMin= 2.16D-03
 ErrMax= 3.55D-03  0.00D+00 EMaxC= 1.00D-01 BMatC= 1.43D-03 BMatP= 4.33D-04
 IDIUse=3 WtCom= 1.44D-01 WtEn= 8.56D-01
 Coeff-Com:  0.336D-02-0.821D-03 0.646D+00 0.352D+00
 Coeff-En:   0.000D+00 0.000D+00 0.705D+00 0.295D+00
 Coeff:      0.483D-03-0.118D-03 0.696D+00 0.303D+00
 Gap=     0.044 Goal=   None    Shift=    0.000
 RMSDP=1.68D-03 MaxDP=9.61D-02 DE= 6.99D-03 OVMax= 1.30D-01

 Cycle   5  Pass 1  IDiag  1:
 E= -649.185185609576     Delta-E=       -0.009639581222 Rises=F Damp=F
 DIIS: error= 7.17D-04 at cycle   5 NSaved=   5.
 NSaved= 5 IEnMin= 5 EnMin= -649.185185609576     IErMin= 5 ErrMin= 7.17D-04
 ErrMax= 7.17D-04  0.00D+00 EMaxC= 1.00D-01 BMatC= 5.49D-05 BMatP= 4.33D-04
 IDIUse=3 WtCom= 9.93D-01 WtEn= 7.17D-03
 Coeff-Com:  0.170D-02-0.340D-02 0.238D+00-0.229D-01 0.787D+00
 Coeff-En:   0.000D+00 0.000D+00 0.163D+00 0.000D+00 0.837D+00
 Coeff:      0.169D-02-0.337D-02 0.237D+00-0.227D-01 0.787D+00
 Gap=     0.044 Goal=   None    Shift=    0.000
 RMSDP=3.98D-04 MaxDP=2.08D-02 DE=-9.64D-03 OVMax= 3.07D-02

 Cycle   6  Pass 1  IDiag  1:
 E= -649.185565126620     Delta-E=       -0.000379517045 Rises=F Damp=F
 DIIS: error= 2.48D-05 at cycle   6 NSaved=   6.
 NSaved= 6 IEnMin= 6 EnMin= -649.185565126620     IErMin= 6 ErrMin= 2.48D-05
 ErrMax= 2.48D-05  0.00D+00 EMaxC= 1.00D-01 BMatC= 1.01D-07 BMatP= 5.49D-05
 IDIUse=1 WtCom= 1.00D+00 WtEn= 0.00D+00
 Coeff-Com: -0.860D-03 0.765D-03 0.381D-01-0.125D-01 0.157D+00 0.818D+00
 Coeff:     -0.860D-03 0.765D-03 0.381D-01-0.125D-01 0.157D+00 0.818D+00
 Gap=     0.044 Goal=   None    Shift=    0.000
 RMSDP=2.08D-05 MaxDP=1.25D-03 DE=-3.80D-04 OVMax= 1.34D-03

 Cycle   7  Pass 1  IDiag  1:
 E= -649.185565425765     Delta-E=       -0.000000299145 Rises=F Damp=F
 DIIS: error= 1.62D-05 at cycle   7 NSaved=   7.
 NSaved= 7 IEnMin= 7 EnMin= -649.185565425765     IErMin= 7 ErrMin= 1.62D-05
 ErrMax= 1.62D-05  0.00D+00 EMaxC= 1.00D-01 BMatC= 3.92D-08 BMatP= 1.01D-07
 IDIUse=1 WtCom= 1.00D+00 WtEn= 0.00D+00
 Coeff-Com: -0.506D-03 0.547D-03 0.878D-02-0.537D-02 0.378D-01 0.388D+00
 Coeff-Com:  0.571D+00
 Coeff:     -0.506D-03 0.547D-03 0.878D-02-0.537D-02 0.378D-01 0.388D+00
 Coeff:      0.571D+00
 Gap=     0.044 Goal=   None    Shift=    0.000
 RMSDP=1.18D-05 MaxDP=4.50D-04 DE=-2.99D-07 OVMax= 5.94D-04

 Cycle   8  Pass 1  IDiag  1:
 E= -649.185565627132     Delta-E=       -0.000000201367 Rises=F Damp=F
 DIIS: error= 3.01D-06 at cycle   8 NSaved=   8.
 NSaved= 8 IEnMin= 8 EnMin= -649.185565627132     IErMin= 8 ErrMin= 3.01D-06
 ErrMax= 3.01D-06  0.00D+00 EMaxC= 1.00D-01 BMatC= 2.06D-09 BMatP= 3.92D-08
 IDIUse=1 WtCom= 1.00D+00 WtEn= 0.00D+00
 Coeff-Com: -0.144D-04 0.536D-05-0.416D-03-0.101D-02-0.209D-02 0.627D-01
 Coeff-Com:  0.187D+00 0.754D+00
 Coeff:     -0.144D-04 0.536D-05-0.416D-03-0.101D-02-0.209D-02 0.627D-01
 Coeff:      0.187D+00 0.754D+00
 Gap=     0.044 Goal=   None    Shift=    0.000
 RMSDP=3.23D-06 MaxDP=1.01D-04 DE=-2.01D-07 OVMax= 1.19D-04

 Cycle   9  Pass 1  IDiag  1:
 E= -649.185565633385     Delta-E=       -0.000000006253 Rises=F Damp=F
 DIIS: error= 6.76D-07 at cycle   9 NSaved=   9.
 NSaved= 9 IEnMin= 9 EnMin= -649.185565633385     IErMin= 9 ErrMin= 6.76D-07
 ErrMax= 6.76D-07  0.00D+00 EMaxC= 1.00D-01 BMatC= 1.02D-10 BMatP= 2.06D-09
 IDIUse=1 WtCom= 1.00D+00 WtEn= 0.00D+00
 Coeff-Com:  0.908D-04-0.119D-03-0.691D-03 0.132D-03-0.293D-02-0.232D-01
 Coeff-Com:  0.176D-01 0.130D+00 0.879D+00
 Coeff:      0.908D-04-0.119D-03-0.691D-03 0.132D-03-0.293D-02-0.232D-01
 Coeff:      0.176D-01 0.130D+00 0.879D+00
 Gap=     0.044 Goal=   None    Shift=    0.000
 RMSDP=1.09D-06 MaxDP=4.04D-05 DE=-6.25D-09 OVMax= 4.26D-05

 Cycle  10  Pass 1  IDiag  1:
 E= -649.185565633946     Delta-E=       -0.000000000561 Rises=F Damp=F
 DIIS: error= 2.40D-07 at cycle  10 NSaved=  10.
 NSaved=10 IEnMin=10 EnMin= -649.185565633946     IErMin=10 ErrMin= 2.40D-07
 ErrMax= 2.40D-07  0.00D+00 EMaxC= 1.00D-01 BMatC= 4.52D-12 BMatP= 1.02D-10
 IDIUse=1 WtCom= 1.00D+00 WtEn= 0.00D+00
 Coeff-Com:  0.154D-04-0.195D-04-0.188D-03 0.814D-04-0.903D-03-0.834D-02
 Coeff-Com: -0.540D-02 0.477D-02 0.149D+00 0.861D+00
 Coeff:      0.154D-04-0.195D-04-0.188D-03 0.814D-04-0.903D-03-0.834D-02
 Coeff:     -0.540D-02 0.477D-02 0.149D+00 0.861D+00
 Gap=     0.044 Goal=   None    Shift=    0.000
 RMSDP=2.81D-07 MaxDP=1.01D-05 DE=-5.61D-10 OVMax= 1.25D-05

 Cycle  11  Pass 1  IDiag  1:
 E= -649.185565633971     Delta-E=       -0.000000000025 Rises=F Damp=F
 DIIS: error= 9.61D-08 at cycle  11 NSaved=  11.
 NSaved=11 IEnMin=11 EnMin= -649.185565633971     IErMin=11 ErrMin= 9.61D-08
 ErrMax= 9.61D-08  0.00D+00 EMaxC= 1.00D-01 BMatC= 7.30D-13 BMatP= 4.52D-12
 IDIUse=1 WtCom= 1.00D+00 WtEn= 0.00D+00
 Coeff-Com: -0.594D-05 0.777D-05-0.258D-04 0.758D-05-0.553D-04 0.457D-03
 Coeff-Com:  0.193D-03-0.252D-02-0.221D-01 0.152D+00 0.872D+00
 Coeff:     -0.594D-05 0.777D-05-0.258D-04 0.758D-05-0.553D-04 0.457D-03
 Coeff:      0.193D-03-0.252D-02-0.221D-01 0.152D+00 0.872D+00
 Gap=     0.044 Goal=   None    Shift=    0.000
 RMSDP=5.99D-08 MaxDP=2.74D-06 DE=-2.47D-11 OVMax= 4.55D-06

 Cycle  12  Pass 1  IDiag  1:
 E= -649.185565633977     Delta-E=       -0.000000000006 Rises=F Damp=F
 DIIS: error= 5.39D-09 at cycle  12 NSaved=  12.
 NSaved=12 IEnMin=12 EnMin= -649.185565633977     IErMin=12 ErrMin= 5.39D-09
 ErrMax= 5.39D-09  0.00D+00 EMaxC= 1.00D-01 BMatC= 6.67D-15 BMatP= 7.30D-13
 IDIUse=1 WtCom= 1.00D+00 WtEn= 0.00D+00
 Coeff-Com: -0.805D-06 0.105D-05-0.460D-05 0.199D-05-0.139D-04 0.238D-03
 Coeff-Com:  0.213D-03-0.434D-03-0.643D-02 0.227D-02 0.169D+00 0.835D+00
 Coeff:     -0.805D-06 0.105D-05-0.460D-05 0.199D-05-0.139D-04 0.238D-03
 Coeff:      0.213D-03-0.434D-03-0.643D-02 0.227D-02 0.169D+00 0.835D+00
 Gap=     0.044 Goal=   None    Shift=    0.000
 RMSDP=6.88D-09 MaxDP=1.76D-07 DE=-5.57D-12 OVMax= 2.13D-07

 SCF Done:  E(RB3LYP) =  -649.185565634     A.U. after   12 cycles
            NFock= 12  Conv=0.69D-08     -V/T= 2.0029
 KE= 6.473086929906D+02 PE=-1.715778449918D+03 EE= 3.409657384601D+02
 Leave Link  502 at Wed Oct  4 16:59:17 2023, MaxMem=  1610612736 cpu:              99.4 elap:              18.6
 (Enter /home/sekinelabo/g16/l601.exe)
 Copying SCF densities to generalized density rwf, IOpCl= 0 IROHF=0.

 **********************************************************************

            Population analysis using the SCF Density.

 **********************************************************************

 Orbital symmetries:
       Occupied  (A) (A) (A) (A) (A) (A) (A) (A) (A) (A) (A) (A)
                 (A) (A) (A) (A) (A) (A) (A) (A) (A) (A)
       Virtual   (A) (A) (A) (A) (A) (A) (A) (A) (A) (A) (A) (A)
                 (A) (A) (A) (A) (A) (A) (A) (A) (A) (A) (A) (A)
                 (A) (A) (A) (A) (A) (A) (A) (A) (A) (A) (A) (A)
                 (A) (A) (A) (A) (A) (A) (A) (A) (A) (A) (A) (A)
                 (A) (A) (A) (A) (A) (A) (A) (A) (A) (A) (A) (A)
                 (A) (A) (A) (A) (A) (A) (A) (A) (A) (A) (A) (A)
                 (A) (A) (A) (A) (A) (A) (A) (A) (A) (A) (A) (A)
                 (A) (A) (A) (A) (A) (A) (A) (A) (A) (A) (A) (A)
                 (A) (A)
 The electronic state is 1-A.
 Alpha  occ. eigenvalues --  -38.45840 -38.45781 -38.44156 -38.44131  -2.21522
 Alpha  occ. eigenvalues --   -2.21463  -2.20011  -2.19955  -1.15207  -1.15195
 Alpha  occ. eigenvalues --   -1.15144  -1.15144  -1.15143  -1.15085  -1.13991
 Alpha  occ. eigenvalues --   -1.13648  -1.13644  -1.13575  -1.13570  -1.13443
 Alpha  occ. eigenvalues --   -0.13782  -0.11942
 Alpha virt. eigenvalues --   -0.07520  -0.04878  -0.02830  -0.02704  -0.02006
 Alpha virt. eigenvalues --   -0.01707  -0.01327  -0.00174  -0.00037   0.00022
 Alpha virt. eigenvalues --    0.00402   0.00895   0.01004   0.01119   0.01388
 Alpha virt. eigenvalues --    0.01425   0.01633   0.01679   0.01714   0.02101
 Alpha virt. eigenvalues --    0.02196   0.02395   0.02516   0.02704   0.03004
 Alpha virt. eigenvalues --    0.03288   0.03399   0.03506   0.04106   0.05180
 Alpha virt. eigenvalues --    0.06978   0.07244   0.07397   0.07736   0.08136
 Alpha virt. eigenvalues --    0.08151   0.08543   0.08777   0.09218   0.09788
 Alpha virt. eigenvalues --    0.10417   0.11004   0.11306   0.12270   0.12614
 Alpha virt. eigenvalues --    0.16715   0.29779   0.29935   0.31846   0.31929
 Alpha virt. eigenvalues --    0.32419   0.32650   0.33168   0.33511   0.34756
 Alpha virt. eigenvalues --    0.35046   0.35168   0.36957   0.37140   0.37420
 Alpha virt. eigenvalues --    0.39230   0.39766   0.39783   0.42737   0.42945
 Alpha virt. eigenvalues --    0.43136   0.43302   0.43607   0.43907   0.44866
 Alpha virt. eigenvalues --    0.46146   0.46610   0.47793   0.48838   0.50392
 Alpha virt. eigenvalues --    0.52756   0.53818   0.81966   2.00639   2.04628
 Alpha virt. eigenvalues --    2.06896   2.11420   4.42466   4.42855   4.42928
 Alpha virt. eigenvalues --    4.43321   4.43486   4.43626   4.43866   4.45337
 Alpha virt. eigenvalues --    4.46914   4.47250   4.48862   4.75660  96.19645
 Alpha virt. eigenvalues --   96.24252  96.26985  96.34562
          Condensed to atoms (all electrons):
               1          2          3          4
     1  Na  10.813251   0.256132  -0.031219  -0.056704
     2  Na   0.256132  10.802779  -0.021532  -0.022728
     3  Na  -0.031219  -0.021532  11.026378   0.294084
     4  Na  -0.056704  -0.022728   0.294084  10.521528
 Mulliken charges:
               1
     1  Na   0.018541
     2  Na  -0.014650
     3  Na  -0.267710
     4  Na   0.263820
 Sum of Mulliken charges =  -0.00000
 Mulliken charges with hydrogens summed into heavy atoms:
               1
     1  Na   0.018541
     2  Na  -0.014650
     3  Na  -0.267710
     4  Na   0.263820
 Electronic spatial extent (au):  <R**2>=           2266.6277
 Charge=              0.0000 electrons
 Dipole moment (field-independent basis, Debye):
    X=             -0.2563    Y=              0.1143    Z=             -0.0946  Tot=              0.2962
 Quadrupole moment (field-independent basis, Debye-Ang):
   XX=            -30.4423   YY=            -36.3318   ZZ=            -44.8844
   XY=              7.4428   XZ=             -1.2073   YZ=             -0.3384
 Traceless Quadrupole moment (field-independent basis, Debye-Ang):
   XX=              6.7772   YY=              0.8877   ZZ=             -7.6649
   XY=              7.4428   XZ=             -1.2073   YZ=             -0.3384
 Octapole moment (field-independent basis, Debye-Ang**2):
  XXX=             17.2069  YYY=             11.1885  ZZZ=             -0.1555  XYY=            -13.2903
  XXY=            -27.8540  XXZ=            -14.8759  XZZ=              4.1786  YZZ=             -0.2533
  YYZ=              0.5419  XYZ=             -2.1561
 Hexadecapole moment (field-independent basis, Debye-Ang**3):
 XXXX=          -2493.6575 YYYY=           -456.4144 ZZZZ=           -204.5778 XXXY=            276.5439
 XXXZ=            -46.6681 YYYX=             24.1308 YYYZ=             -1.3198 ZZZX=             -6.1476
 ZZZY=             -1.9934 XXYY=           -612.5481 XXZZ=           -608.8255 YYZZ=           -115.6858
 XXYZ=              4.1022 YYXZ=             -0.2288 ZZXY=             11.3898
 N-N= 7.831845283285D+01 E-N=-1.715778450165D+03  KE= 6.473086929906D+02
 No NMR shielding tensors so no spin-rotation constants.
 Leave Link  601 at Wed Oct  4 16:59:19 2023, MaxMem=  1610612736 cpu:               7.1 elap:               1.4
 (Enter /home/sekinelabo/g16/l701.exe)
 ... and contract with generalized density number  0.
 Compute integral first derivatives.
 Leave Link  701 at Wed Oct  4 16:59:20 2023, MaxMem=  1610612736 cpu:               5.8 elap:               1.1
 (Enter /home/sekinelabo/g16/l702.exe)
 L702 exits ... SP integral derivatives will be done elsewhere.
 Leave Link  702 at Wed Oct  4 16:59:20 2023, MaxMem=  1610612736 cpu:               0.6 elap:               0.1
 (Enter /home/sekinelabo/g16/l703.exe)
 Integral derivatives from FoFJK, PRISM(SPDF).
 Compute integral first derivatives, UseDBF=F ICtDFT=           0.
 Calling FoFJK, ICntrl=      2127 FMM=F ISym2X=0 I1Cent= 0 IOpClX= 0 NMat=1 NMatS=1 NMatT=0.
 FoFJK:  IHMeth= 1 ICntrl=    2127 DoSepK=F KAlg= 0 I1Cent=           0 FoldK=F
 IRaf=         0 NMat=       1 IRICut=       1 DoRegI=T DoRafI=F ISym2E= 0 IDoP0=0 IntGTp=1.
 FoFCou: FMM=F IPFlag=           0 FMFlag=      100000 FMFlg1=         800
         NFxFlg=           0 DoJE=F BraDBF=F KetDBF=F FulRan=T
         wScrn=  0.000000 ICntrl=      2127 IOpCl=  0 I1Cent=           0 NGrid=           0
         NMat0=    1 NMatS0=      1 NMatT0=    0 NMatD0=    1 NMtDS0=    0 NMtDT0=    0
 Symmetry not used in FoFCou.
 Leave Link  703 at Wed Oct  4 16:59:22 2023, MaxMem=  1610612736 cpu:              10.5 elap:               2.0
 (Enter /home/sekinelabo/g16/l716.exe)
 Dipole        =-1.00847859D-01 4.49808642D-02-3.72124099D-02
 ***** Axes restored to original set *****
 -------------------------------------------------------------------
 Center     Atomic                   Forces (Hartrees/Bohr)
 Number     Number              X              Y              Z
 -------------------------------------------------------------------
      1       11          -0.007629177   -0.000043487    0.000420841
      2       11           0.007793259    0.000038483    0.001257743
      3       11          -0.007418703    0.002395185   -0.006770018
      4       11           0.007254621   -0.002390180    0.005091435
 -------------------------------------------------------------------
 Cartesian Forces:  Max     0.007793259 RMS     0.005095538
 Z-matrix is all fixed cartesians, so copy forces.
 Force constants in Cartesian coordinates: 
                1             2             3             4             5 
      1  0.100000D+01
      2  0.000000D+00  0.100000D+01
      3  0.000000D+00  0.000000D+00  0.100000D+01
      4  0.000000D+00  0.000000D+00  0.000000D+00  0.100000D+01
      5  0.000000D+00  0.000000D+00  0.000000D+00  0.000000D+00  0.100000D+01
      6  0.000000D+00  0.000000D+00  0.000000D+00  0.000000D+00  0.000000D+00
      7  0.000000D+00  0.000000D+00  0.000000D+00  0.000000D+00  0.000000D+00
      8  0.000000D+00  0.000000D+00  0.000000D+00  0.000000D+00  0.000000D+00
      9  0.000000D+00  0.000000D+00  0.000000D+00  0.000000D+00  0.000000D+00
     10  0.000000D+00  0.000000D+00  0.000000D+00  0.000000D+00  0.000000D+00
     11  0.000000D+00  0.000000D+00  0.000000D+00  0.000000D+00  0.000000D+00
     12  0.000000D+00  0.000000D+00  0.000000D+00  0.000000D+00  0.000000D+00
                6             7             8             9            10 
      6  0.100000D+01
      7  0.000000D+00  0.349555D-01
      8  0.000000D+00 -0.118929D-01  0.404630D-02
      9  0.000000D+00  0.253132D-01 -0.861226D-02  0.183306D-01
     10  0.000000D+00 -0.349555D-01  0.118929D-01 -0.253132D-01  0.349555D-01
     11  0.000000D+00  0.118929D-01 -0.404630D-02  0.861226D-02 -0.118929D-01
     12  0.000000D+00 -0.253132D-01  0.861226D-02 -0.183306D-01  0.253132D-01
               11            12 
     11  0.404630D-02
     12 -0.861226D-02  0.183306D-01
 Leave Link  716 at Wed Oct  4 16:59:22 2023, MaxMem=  1610612736 cpu:               0.8 elap:               0.2
 (Enter /home/sekinelabo/g16/l103.exe)

 GradGradGradGradGradGradGradGradGradGradGradGradGradGradGradGradGradGrad
 Berny optimization.
 Search for a local minimum.
 Step number   1 out of a maximum of    2
 All quantities printed in internal units (Hartrees-Bohrs-Radians)
 Second derivative matrix not updated -- first step.
 The second derivative matrix:
                          X1        Y1        Z1        X2        Y2
           X1           1.00000
           Y1          -0.00000   1.00000
           Z1           0.00000  -0.00000   1.00000
           X2           0.00000   0.00000   0.00000   1.00000
           Y2           0.00000   0.00000   0.00000  -0.00000   1.00000
           Z2           0.00000   0.00000   0.00000   0.00000  -0.00000
           X3           0.00000   0.00000   0.00000   0.00000   0.00000
           Y3           0.00000   0.00000   0.00000   0.00000   0.00000
           Z3           0.00000   0.00000   0.00000   0.00000   0.00000
           X4           0.00000   0.00000   0.00000   0.00000   0.00000
           Y4           0.00000   0.00000   0.00000   0.00000   0.00000
           Z4           0.00000   0.00000   0.00000   0.00000   0.00000
                          Z2        X3        Y3        Z3        X4
           Z2           1.00000
           X3           0.00000   0.03496
           Y3           0.00000  -0.01189   0.00405
           Z3           0.00000   0.02531  -0.00861   0.01833
           X4           0.00000  -0.03496   0.01189  -0.02531   0.03496
           Y4           0.00000   0.01189  -0.00405   0.00861  -0.01189
           Z4           0.00000  -0.02531   0.00861  -0.01833   0.02531
                          Y4        Z4
           Y4           0.00405
           Z4          -0.00861   0.01833
 ITU=  0
     Eigenvalues ---    0.03789   0.11466   0.12430   0.50000   0.90959
     Eigenvalues ---    1.00000
 Angle between quadratic step and forces=  34.05 degrees.
 Linear search not attempted -- first point.
 B after Tr=    -0.000000    0.000000    0.000000
         Rot=    1.000000   -0.000000    0.000000   -0.000000 Ang=   0.00 deg.
 Variable       Old X    -DE/DX   Delta X   Delta X   Delta X     New X
                                 (Linear)    (Quad)   (Total)
    X1       -0.00000  -0.00763   0.00000  -0.00921  -0.00921  -0.00921
    Y1        0.00000  -0.00004   0.00000   0.00138   0.00138   0.00138
    Z1        0.00000   0.00042   0.00000   0.00170   0.00170   0.00170
    X2       -8.21490   0.00779   0.00000   0.00601   0.00601  -8.20890
    Y2        0.00000   0.00004   0.00000   0.00155   0.00155   0.00155
    Z2       -1.23008   0.00126   0.00000   0.00390   0.00390  -1.22618
    X3        0.00000  -0.00742   0.00000  -0.05800  -0.05800  -0.05800
    Y3       -0.00000   0.00240   0.00000   0.01476   0.01476   0.01476
    Z3        8.52651  -0.00677   0.00000  -0.06275  -0.06275   8.46376
    X4        4.04757   0.00725   0.00000   0.06121   0.06121   4.10877
    Y4       -1.37710  -0.00239   0.00000  -0.01769  -0.01769  -1.39478
    Z4       11.45757   0.00509   0.00000   0.05716   0.05716  11.51473
         Item               Value     Threshold  Converged?
 Maximum Force            0.007793     0.000450     NO 
 RMS     Force            0.005096     0.000300     NO 
 Maximum Displacement     0.062751     0.001800     NO 
 RMS     Displacement     0.035342     0.001200     NO 
 Predicted change in Energy=-8.952331D-04
 GradGradGradGradGradGradGradGradGradGradGradGradGradGradGradGradGradGrad

 Leave Link  103 at Wed Oct  4 16:59:23 2023, MaxMem=  1610612736 cpu:               2.8 elap:               0.6
 (Enter /home/sekinelabo/g16/l9999.exe)
 1\1\GINC-SEKINELABO-XA7R-R37\Force\RB3LYP\6-311+G(d)\Na4\SEKINELABO\04
 -Oct-2023\0\\#p B3LYP/6-311+g(d) force\\\0,1\Na,0.,0.,0.\Na,-4.3471390
 707,0.,-0.6509306098\Na,0.,0.,4.5120333584\Na,2.1418797026,-0.72872869
 31,6.0630824601\\Version=ES64L-G16RevB.01\State=1-A\HF=-649.1855656\RM
 SD=6.882e-09\RMSF=5.096e-03\Dipole=-0.027632,-0.0299872,-0.1091585\Qua
 drupole=7.6144954,-5.5461858,-2.0683096,-1.3786778,3.3856101,-0.875089
 1\PG=C01 [X(Na4)]\\@


 ON A CLEAR DISK YOU CAN SEEK FOREVER.
 Job cpu time:       0 days  0 hours  2 minutes 41.7 seconds.
 Elapsed time:       0 days  0 hours  0 minutes 30.5 seconds.
 File lengths (MBytes):  RWF=     10 Int=      0 D2E=      0 Chk=      2 Scr=      1
 Normal termination of Gaussian 16 at Wed Oct  4 16:59:23 2023.
