 Entering Gaussian System, Link 0=g16
 Initial command:
 /home/sekinelabo/g16/l1.exe "/home/sekinelabo/g16temp/Gau-210009.inp" -scrdir="/home/sekinelabo/g16temp/"
 Entering Link 1 = /home/sekinelabo/g16/l1.exe PID=    210011.
  
 Copyright (c) 1988-2017, Gaussian, Inc.  All Rights Reserved.
  
 This is part of the Gaussian(R) 16 program.  It is based on
 the Gaussian(R) 09 system (copyright 2009, Gaussian, Inc.),
 the Gaussian(R) 03 system (copyright 2003, Gaussian, Inc.),
 the Gaussian(R) 98 system (copyright 1998, Gaussian, Inc.),
 the Gaussian(R) 94 system (copyright 1995, Gaussian, Inc.),
 the Gaussian 92(TM) system (copyright 1992, Gaussian, Inc.),
 the Gaussian 90(TM) system (copyright 1990, Gaussian, Inc.),
 the Gaussian 88(TM) system (copyright 1988, Gaussian, Inc.),
 the Gaussian 86(TM) system (copyright 1986, Carnegie Mellon
 University), and the Gaussian 82(TM) system (copyright 1983,
 Carnegie Mellon University). Gaussian is a federally registered
 trademark of Gaussian, Inc.
  
 This software contains proprietary and confidential information,
 including trade secrets, belonging to Gaussian, Inc.
  
 This software is provided under written license and may be
 used, copied, transmitted, or stored only in accord with that
 written license.
  
 The following legend is applicable only to US Government
 contracts under FAR:
  
                    RESTRICTED RIGHTS LEGEND
  
 Use, reproduction and disclosure by the US Government is
 subject to restrictions as set forth in subparagraphs (a)
 and (c) of the Commercial Computer Software - Restricted
 Rights clause in FAR 52.227-19.
  
 Gaussian, Inc.
 340 Quinnipiac St., Bldg. 40, Wallingford CT 06492
  
  
 ---------------------------------------------------------------
 Warning -- This program may not be used in any manner that
 competes with the business of Gaussian, Inc. or will provide
 assistance to any competitor of Gaussian, Inc.  The licensee
 of this program is prohibited from giving any competitor of
 Gaussian, Inc. access to this program.  By using this program,
 the user acknowledges that Gaussian, Inc. is engaged in the
 business of creating and licensing software in the field of
 computational chemistry and represents and warrants to the
 licensee that it is not a competitor of Gaussian, Inc. and that
 it will not use this program in any manner prohibited above.
 ---------------------------------------------------------------
  

 Cite this work as:
 Gaussian 16, Revision B.01,
 M. J. Frisch, G. W. Trucks, H. B. Schlegel, G. E. Scuseria, 
 M. A. Robb, J. R. Cheeseman, G. Scalmani, V. Barone, 
 G. A. Petersson, H. Nakatsuji, X. Li, M. Caricato, A. V. Marenich, 
 J. Bloino, B. G. Janesko, R. Gomperts, B. Mennucci, H. P. Hratchian, 
 J. V. Ortiz, A. F. Izmaylov, J. L. Sonnenberg, D. Williams-Young, 
 F. Ding, F. Lipparini, F. Egidi, J. Goings, B. Peng, A. Petrone, 
 T. Henderson, D. Ranasinghe, V. G. Zakrzewski, J. Gao, N. Rega, 
 G. Zheng, W. Liang, M. Hada, M. Ehara, K. Toyota, R. Fukuda, 
 J. Hasegawa, M. Ishida, T. Nakajima, Y. Honda, O. Kitao, H. Nakai, 
 T. Vreven, K. Throssell, J. A. Montgomery, Jr., J. E. Peralta, 
 F. Ogliaro, M. J. Bearpark, J. J. Heyd, E. N. Brothers, K. N. Kudin, 
 V. N. Staroverov, T. A. Keith, R. Kobayashi, J. Normand, 
 K. Raghavachari, A. P. Rendell, J. C. Burant, S. S. Iyengar, 
 J. Tomasi, M. Cossi, J. M. Millam, M. Klene, C. Adamo, R. Cammi, 
 J. W. Ochterski, R. L. Martin, K. Morokuma, O. Farkas, 
 J. B. Foresman, and D. J. Fox, Gaussian, Inc., Wallingford CT, 2016.
 
 ******************************************
 Gaussian 16:  ES64L-G16RevB.01 20-Dec-2017
                 5-Oct-2023 
 ******************************************
 %NProcShared=16
 Will use up to   16 processors via shared memory.
 %mem=12GB
 %Chk=checkpoint.chk
 -------------------------
 #p B3LYP/6-311+g(d) force
 -------------------------
 1/10=7,30=1,38=1/1,3;
 2/12=2,17=6,18=5,40=1/2;
 3/5=4,6=6,7=11,11=2,25=1,30=1,71=1,74=-5/1,2,3;
 4//1;
 5/5=2,38=5/2;
 6/7=2,8=2,9=2,10=2,28=1/1;
 7/29=1/1,2,3,16;
 1/10=7,30=1/3;
 99//99;
 Leave Link    1 at Thu Oct  5 15:32:37 2023, MaxMem=  1610612736 cpu:               0.2 elap:               0.0
 (Enter /home/sekinelabo/g16/l101.exe)


 Symbolic Z-matrix:
 Charge =  0 Multiplicity = 1
 Na                    0.        0.        0. 
 Na                   -2.68438   0.       -0.22548 
 Na                    0.        0.        2.83245 
 Na                   -4.11836  -0.23863   2.63807 
 
 ITRead=  0  0  0  0
 MicOpt= -1 -1 -1 -1
 NAtoms=      4 NQM=        4 NQMF=       0 NMMI=      0 NMMIF=      0
                NMic=       0 NMicF=      0.
                    Isotopes and Nuclear Properties:
 (Nuclear quadrupole moments (NQMom) in fm**2, nuclear magnetic moments (NMagM)
  in nuclear magnetons)

  Atom         1           2           3           4
 IAtWgt=          23          23          23          23
 AtmWgt=  22.9897697  22.9897697  22.9897697  22.9897697
 NucSpn=           3           3           3           3
 AtZEff=  -0.0000000  -0.0000000  -0.0000000  -0.0000000
 NQMom=   10.4000000  10.4000000  10.4000000  10.4000000
 NMagM=    2.2175200   2.2175200   2.2175200   2.2175200
 AtZNuc=  11.0000000  11.0000000  11.0000000  11.0000000
 Leave Link  101 at Thu Oct  5 15:32:37 2023, MaxMem=  1610612736 cpu:               1.6 elap:               0.1
 (Enter /home/sekinelabo/g16/l103.exe)

 GradGradGradGradGradGradGradGradGradGradGradGradGradGradGradGradGradGrad
 Berny optimization.
 Initialization pass.
 Trust Radius=3.00D-01 FncErr=1.00D-07 GrdErr=1.00D-07 EigMax=2.50D+02 EigMin=1.00D-04
 Number of steps in this run=      2 maximum allowed number of steps=      2.
 GradGradGradGradGradGradGradGradGradGradGradGradGradGradGradGradGradGrad

 Leave Link  103 at Thu Oct  5 15:32:37 2023, MaxMem=  1610612736 cpu:               0.2 elap:               0.0
 (Enter /home/sekinelabo/g16/l202.exe)
                          Input orientation:                          
 ---------------------------------------------------------------------
 Center     Atomic      Atomic             Coordinates (Angstroms)
 Number     Number       Type             X           Y           Z
 ---------------------------------------------------------------------
      1         11           0        0.000000    0.000000    0.000000
      2         11           0       -2.684385    0.000000   -0.225482
      3         11           0        0.000000    0.000000    2.832449
      4         11           0       -4.118362   -0.238629    2.638069
 ---------------------------------------------------------------------
                    Distance matrix (angstroms):
                    1          2          3          4
     1  Na   0.000000
     2  Na   2.693838   0.000000
     3  Na   2.832449   4.069012   0.000000
     4  Na   4.896658   3.211411   4.129847   0.000000
 Stoichiometry    Na4
 Framework group  C1[X(Na4)]
 Deg. of freedom     6
 Full point group                 C1      NOp   1
 Largest Abelian subgroup         C1      NOp   1
 Largest concise Abelian subgroup C1      NOp   1
                         Standard orientation:                         
 ---------------------------------------------------------------------
 Center     Atomic      Atomic             Coordinates (Angstroms)
 Number     Number       Type             X           Y           Z
 ---------------------------------------------------------------------
      1         11           0        1.991526   -0.803852    0.054247
      2         11           0       -0.529849   -1.746229   -0.052325
      3         11           0        1.229576    1.922697   -0.035944
      4         11           0       -2.691253    0.627384    0.034022
 ---------------------------------------------------------------------
 Rotational constants (GHZ):           2.8204758           1.6897164           1.0575008
 Leave Link  202 at Thu Oct  5 15:32:37 2023, MaxMem=  1610612736 cpu:               0.1 elap:               0.0
 (Enter /home/sekinelabo/g16/l301.exe)
 Standard basis: 6-311+G(d) (5D, 7F)
 Ernie: Thresh=  0.10000D-02 Tol=  0.10000D-05 Strict=F.
 There are   124 symmetry adapted cartesian basis functions of A   symmetry.
 There are   120 symmetry adapted basis functions of A   symmetry.
   120 basis functions,   200 primitive gaussians,   124 cartesian basis functions
    22 alpha electrons       22 beta electrons
       nuclear repulsion energy       110.6304613065 Hartrees.
 IExCor=  402 DFT=T Ex+Corr=B3LYP ExCW=0 ScaHFX=  0.200000
 ScaDFX=  0.800000  0.720000  1.000000  0.810000 ScalE2=  1.000000  1.000000
 IRadAn=      5 IRanWt=     -1 IRanGd=            0 ICorTp=0 IEmpDi=  4
 NAtoms=    4 NActive=    4 NUniq=    4 SFac= 1.00D+00 NAtFMM=   60 NAOKFM=F Big=F
 Integral buffers will be    131072 words long.
 Raffenetti 2 integral format.
 Two-electron integral symmetry is turned on.
 Leave Link  301 at Thu Oct  5 15:32:37 2023, MaxMem=  1610612736 cpu:               0.4 elap:               0.0
 (Enter /home/sekinelabo/g16/l302.exe)
 NPDir=0 NMtPBC=     1 NCelOv=     1 NCel=       1 NClECP=     1 NCelD=      1
         NCelK=      1 NCelE2=     1 NClLst=     1 CellRange=     0.0.
 One-electron integrals computed using PRISM.
 One-electron integral symmetry used in STVInt
 NBasis=   120 RedAO= T EigKep=  7.03D-06  NBF=   120
 NBsUse=   120 1.00D-06 EigRej= -1.00D+00 NBFU=   120
 Precomputing XC quadrature grid using
 IXCGrd= 4 IRadAn=           5 IRanWt=          -1 IRanGd=           0 AccXCQ= 0.00D+00.
 Generated NRdTot=       0 NPtTot=           0 NUsed=           0 NTot=          32
 NSgBfM=   117   117   117   117   117 MxSgAt=     4 MxSgA2=     4.
 Leave Link  302 at Thu Oct  5 15:32:37 2023, MaxMem=  1610612736 cpu:               1.3 elap:               0.1
 (Enter /home/sekinelabo/g16/l303.exe)
 DipDrv:  MaxL=1.
 Leave Link  303 at Thu Oct  5 15:32:37 2023, MaxMem=  1610612736 cpu:               0.3 elap:               0.0
 (Enter /home/sekinelabo/g16/l401.exe)
 ExpMin= 7.60D-03 ExpMax= 3.62D+04 ExpMxC= 1.21D+03 IAcc=3 IRadAn=         5 AccDes= 0.00D+00
 Harris functional with IExCor=  402 and IRadAn=       5 diagonalized for initial guess.
 HarFok:  IExCor=  402 AccDes= 0.00D+00 IRadAn=         5 IDoV= 1 UseB2=F ITyADJ=14
 ICtDFT=  3500011 ScaDFX=  1.000000  1.000000  1.000000  1.000000
 FoFCou: FMM=F IPFlag=           0 FMFlag=      100000 FMFlg1=           0
         NFxFlg=           0 DoJE=T BraDBF=F KetDBF=T FulRan=T
         wScrn=  0.000000 ICntrl=       500 IOpCl=  0 I1Cent=   200000004 NGrid=           0
         NMat0=    1 NMatS0=      1 NMatT0=    0 NMatD0=    1 NMtDS0=    0 NMtDT0=    0
 Petite list used in FoFCou.
 Harris En= -649.055667967874    
 JPrj=0 DoOrth=F DoCkMO=F.
 Leave Link  401 at Thu Oct  5 15:32:37 2023, MaxMem=  1610612736 cpu:               2.1 elap:               0.1
 (Enter /home/sekinelabo/g16/l502.exe)
 Keep R1 ints in memory in canonical form, NReq=41581762.
 FoFCou: FMM=F IPFlag=           0 FMFlag=           0 FMFlg1=           0
         NFxFlg=           0 DoJE=F BraDBF=F KetDBF=F FulRan=T
         wScrn=  0.000000 ICntrl=       600 IOpCl=  0 I1Cent=           0 NGrid=           0
         NMat0=    1 NMatS0=   7260 NMatT0=    0 NMatD0=    1 NMtDS0=    0 NMtDT0=    0
 Symmetry not used in FoFCou.
 Two-electron integral symmetry not used.
 Closed shell SCF:
 Using DIIS extrapolation, IDIIS=  1040.
 NGot=  1610612736 LenX=  1584221380 LenY=  1584205563
 Requested convergence on RMS density matrix=1.00D-08 within 128 cycles.
 Requested convergence on MAX density matrix=1.00D-06.
 Requested convergence on             energy=1.00D-06.
 No special actions if energy rises.

 Cycle   1  Pass 1  IDiag  1:
 E= -649.165284986680    
 DIIS: error= 1.27D-02 at cycle   1 NSaved=   1.
 NSaved= 1 IEnMin= 1 EnMin= -649.165284986680     IErMin= 1 ErrMin= 1.27D-02
 ErrMax= 1.27D-02  0.00D+00 EMaxC= 1.00D-01 BMatC= 2.68D-02 BMatP= 2.68D-02
 IDIUse=3 WtCom= 8.73D-01 WtEn= 1.27D-01
 Coeff-Com:  0.100D+01
 Coeff-En:   0.100D+01
 Coeff:      0.100D+01
 Gap=     0.018 Goal=   None    Shift=    0.000
 GapD=    0.018 DampG=0.250 DampE=0.500 DampFc=0.2500 IDamp=-1.
 Damping current iteration by 2.50D-01
 RMSDP=5.38D-03 MaxDP=1.52D-01              OVMax= 1.71D-01

 Cycle   2  Pass 1  IDiag  1:
 E= -649.170344376170     Delta-E=       -0.005059389490 Rises=F Damp=T
 DIIS: error= 8.90D-03 at cycle   2 NSaved=   2.
 NSaved= 2 IEnMin= 2 EnMin= -649.170344376170     IErMin= 2 ErrMin= 8.90D-03
 ErrMax= 8.90D-03  0.00D+00 EMaxC= 1.00D-01 BMatC= 1.04D-02 BMatP= 2.68D-02
 IDIUse=3 WtCom= 9.11D-01 WtEn= 8.90D-02
 Coeff-Com: -0.133D+01 0.233D+01
 Coeff-En:   0.000D+00 0.100D+01
 Coeff:     -0.121D+01 0.221D+01
 Gap=     0.025 Goal=   None    Shift=    0.000
 RMSDP=3.35D-03 MaxDP=9.72D-02 DE=-5.06D-03 OVMax= 1.02D-01

 Cycle   3  Pass 1  IDiag  1:
 E= -649.180641111902     Delta-E=       -0.010296735732 Rises=F Damp=F
 DIIS: error= 7.06D-04 at cycle   3 NSaved=   3.
 NSaved= 3 IEnMin= 3 EnMin= -649.180641111902     IErMin= 3 ErrMin= 7.06D-04
 ErrMax= 7.06D-04  0.00D+00 EMaxC= 1.00D-01 BMatC= 5.76D-05 BMatP= 1.04D-02
 IDIUse=3 WtCom= 9.93D-01 WtEn= 7.06D-03
 Coeff-Com: -0.296D-01 0.618D-01 0.968D+00
 Coeff-En:   0.000D+00 0.000D+00 0.100D+01
 Coeff:     -0.294D-01 0.614D-01 0.968D+00
 Gap=     0.024 Goal=   None    Shift=    0.000
 RMSDP=7.85D-04 MaxDP=3.70D-02 DE=-1.03D-02 OVMax= 6.11D-02

 Cycle   4  Pass 1  IDiag  1:
 E= -649.180471553654     Delta-E=        0.000169558249 Rises=F Damp=F
 DIIS: error= 9.66D-04 at cycle   4 NSaved=   4.
 NSaved= 4 IEnMin= 3 EnMin= -649.180641111902     IErMin= 3 ErrMin= 7.06D-04
 ErrMax= 9.66D-04  0.00D+00 EMaxC= 1.00D-01 BMatC= 8.85D-05 BMatP= 5.76D-05
 IDIUse=3 WtCom= 2.43D-01 WtEn= 7.57D-01
 Coeff-Com:  0.152D-01-0.183D-01 0.557D+00 0.446D+00
 Coeff-En:   0.000D+00 0.000D+00 0.621D+00 0.379D+00
 Coeff:      0.370D-02-0.446D-02 0.606D+00 0.395D+00
 Gap=     0.026 Goal=   None    Shift=    0.000
 RMSDP=4.44D-04 MaxDP=1.96D-02 DE= 1.70D-04 OVMax= 3.44D-02

 Cycle   5  Pass 1  IDiag  1:
 E= -649.180866532174     Delta-E=       -0.000394978520 Rises=F Damp=F
 DIIS: error= 9.04D-05 at cycle   5 NSaved=   5.
 NSaved= 5 IEnMin= 5 EnMin= -649.180866532174     IErMin= 5 ErrMin= 9.04D-05
 ErrMax= 9.04D-05  0.00D+00 EMaxC= 1.00D-01 BMatC= 9.59D-07 BMatP= 5.76D-05
 IDIUse=1 WtCom= 1.00D+00 WtEn= 0.00D+00
 Coeff-Com: -0.338D-02 0.436D-02 0.172D+00 0.926D-01 0.735D+00
 Coeff:     -0.338D-02 0.436D-02 0.172D+00 0.926D-01 0.735D+00
 Gap=     0.025 Goal=   None    Shift=    0.000
 RMSDP=7.88D-05 MaxDP=2.05D-03 DE=-3.95D-04 OVMax= 4.50D-03

 Cycle   6  Pass 1  IDiag  1:
 E= -649.180869227340     Delta-E=       -0.000002695166 Rises=F Damp=F
 DIIS: error= 4.76D-05 at cycle   6 NSaved=   6.
 NSaved= 6 IEnMin= 6 EnMin= -649.180869227340     IErMin= 6 ErrMin= 4.76D-05
 ErrMax= 4.76D-05  0.00D+00 EMaxC= 1.00D-01 BMatC= 1.98D-07 BMatP= 9.59D-07
 IDIUse=1 WtCom= 1.00D+00 WtEn= 0.00D+00
 Coeff-Com: -0.433D-02 0.553D-02 0.365D-01 0.150D-01 0.383D+00 0.564D+00
 Coeff:     -0.433D-02 0.553D-02 0.365D-01 0.150D-01 0.383D+00 0.564D+00
 Gap=     0.025 Goal=   None    Shift=    0.000
 RMSDP=3.11D-05 MaxDP=9.56D-04 DE=-2.70D-06 OVMax= 1.07D-03

 Cycle   7  Pass 1  IDiag  1:
 E= -649.180870007559     Delta-E=       -0.000000780218 Rises=F Damp=F
 DIIS: error= 1.59D-05 at cycle   7 NSaved=   7.
 NSaved= 7 IEnMin= 7 EnMin= -649.180870007559     IErMin= 7 ErrMin= 1.59D-05
 ErrMax= 1.59D-05  0.00D+00 EMaxC= 1.00D-01 BMatC= 2.04D-08 BMatP= 1.98D-07
 IDIUse=1 WtCom= 1.00D+00 WtEn= 0.00D+00
 Coeff-Com: -0.159D-02 0.202D-02-0.337D-02 0.257D-02 0.462D-01 0.220D+00
 Coeff-Com:  0.734D+00
 Coeff:     -0.159D-02 0.202D-02-0.337D-02 0.257D-02 0.462D-01 0.220D+00
 Coeff:      0.734D+00
 Gap=     0.025 Goal=   None    Shift=    0.000
 RMSDP=1.33D-05 MaxDP=3.52D-04 DE=-7.80D-07 OVMax= 8.22D-04

 Cycle   8  Pass 1  IDiag  1:
 E= -649.180870160006     Delta-E=       -0.000000152447 Rises=F Damp=F
 DIIS: error= 5.20D-06 at cycle   8 NSaved=   8.
 NSaved= 8 IEnMin= 8 EnMin= -649.180870160006     IErMin= 8 ErrMin= 5.20D-06
 ErrMax= 5.20D-06  0.00D+00 EMaxC= 1.00D-01 BMatC= 3.70D-09 BMatP= 2.04D-08
 IDIUse=1 WtCom= 1.00D+00 WtEn= 0.00D+00
 Coeff-Com:  0.858D-03-0.113D-02-0.902D-02-0.793D-03-0.792D-01-0.130D+00
 Coeff-Com:  0.183D+00 0.104D+01
 Coeff:      0.858D-03-0.113D-02-0.902D-02-0.793D-03-0.792D-01-0.130D+00
 Coeff:      0.183D+00 0.104D+01
 Gap=     0.025 Goal=   None    Shift=    0.000
 RMSDP=1.43D-05 MaxDP=3.79D-04 DE=-1.52D-07 OVMax= 7.48D-04

 Cycle   9  Pass 1  IDiag  1:
 E= -649.180870211821     Delta-E=       -0.000000051815 Rises=F Damp=F
 DIIS: error= 3.01D-06 at cycle   9 NSaved=   9.
 NSaved= 9 IEnMin= 9 EnMin= -649.180870211821     IErMin= 9 ErrMin= 3.01D-06
 ErrMax= 3.01D-06  0.00D+00 EMaxC= 1.00D-01 BMatC= 7.00D-10 BMatP= 3.70D-09
 IDIUse=1 WtCom= 1.00D+00 WtEn= 0.00D+00
 Coeff-Com:  0.273D-03-0.356D-03 0.171D-02 0.229D-02-0.255D-02-0.511D-01
 Coeff-Com: -0.120D+00-0.189D+00 0.136D+01
 Coeff:      0.273D-03-0.356D-03 0.171D-02 0.229D-02-0.255D-02-0.511D-01
 Coeff:     -0.120D+00-0.189D+00 0.136D+01
 Gap=     0.025 Goal=   None    Shift=    0.000
 RMSDP=7.70D-06 MaxDP=2.05D-04 DE=-5.18D-08 OVMax= 4.26D-04

 Cycle  10  Pass 1  IDiag  1:
 E= -649.180870222846     Delta-E=       -0.000000011025 Rises=F Damp=F
 DIIS: error= 2.36D-07 at cycle  10 NSaved=  10.
 NSaved=10 IEnMin=10 EnMin= -649.180870222846     IErMin=10 ErrMin= 2.36D-07
 ErrMax= 2.36D-07  0.00D+00 EMaxC= 1.00D-01 BMatC= 1.24D-11 BMatP= 7.00D-10
 IDIUse=1 WtCom= 1.00D+00 WtEn= 0.00D+00
 Coeff-Com: -0.166D-04 0.226D-04 0.629D-03 0.404D-03 0.249D-02-0.349D-02
 Coeff-Com: -0.220D-01-0.433D-01 0.116D+00 0.949D+00
 Coeff:     -0.166D-04 0.226D-04 0.629D-03 0.404D-03 0.249D-02-0.349D-02
 Coeff:     -0.220D-01-0.433D-01 0.116D+00 0.949D+00
 Gap=     0.025 Goal=   None    Shift=    0.000
 RMSDP=7.22D-07 MaxDP=1.54D-05 DE=-1.10D-08 OVMax= 5.04D-05

 Cycle  11  Pass 1  IDiag  1:
 E= -649.180870223002     Delta-E=       -0.000000000156 Rises=F Damp=F
 DIIS: error= 1.24D-07 at cycle  11 NSaved=  11.
 NSaved=11 IEnMin=11 EnMin= -649.180870223002     IErMin=11 ErrMin= 1.24D-07
 ErrMax= 1.24D-07  0.00D+00 EMaxC= 1.00D-01 BMatC= 4.74D-12 BMatP= 1.24D-11
 IDIUse=1 WtCom= 1.00D+00 WtEn= 0.00D+00
 Coeff-Com: -0.611D-04 0.803D-04 0.751D-04-0.114D-03 0.233D-02 0.637D-02
 Coeff-Com:  0.552D-02-0.699D-02-0.125D+00 0.412D+00 0.707D+00
 Coeff:     -0.611D-04 0.803D-04 0.751D-04-0.114D-03 0.233D-02 0.637D-02
 Coeff:      0.552D-02-0.699D-02-0.125D+00 0.412D+00 0.707D+00
 Gap=     0.025 Goal=   None    Shift=    0.000
 RMSDP=2.75D-07 MaxDP=5.40D-06 DE=-1.56D-10 OVMax= 1.51D-05

 Cycle  12  Pass 1  IDiag  1:
 E= -649.180870223018     Delta-E=       -0.000000000016 Rises=F Damp=F
 DIIS: error= 1.38D-08 at cycle  12 NSaved=  12.
 NSaved=12 IEnMin=12 EnMin= -649.180870223018     IErMin=12 ErrMin= 1.38D-08
 ErrMax= 1.38D-08  0.00D+00 EMaxC= 1.00D-01 BMatC= 3.01D-14 BMatP= 4.74D-12
 IDIUse=1 WtCom= 1.00D+00 WtEn= 0.00D+00
 Coeff-Com:  0.141D-05-0.193D-05-0.437D-05-0.304D-06-0.733D-04 0.146D-03
 Coeff-Com:  0.959D-03 0.101D-02-0.102D-01-0.422D-02 0.187D-01 0.994D+00
 Coeff:      0.141D-05-0.193D-05-0.437D-05-0.304D-06-0.733D-04 0.146D-03
 Coeff:      0.959D-03 0.101D-02-0.102D-01-0.422D-02 0.187D-01 0.994D+00
 Gap=     0.025 Goal=   None    Shift=    0.000
 RMSDP=4.00D-08 MaxDP=8.49D-07 DE=-1.64D-11 OVMax= 1.38D-06

 Cycle  13  Pass 1  IDiag  1:
 E= -649.180870223023     Delta-E=       -0.000000000005 Rises=F Damp=F
 DIIS: error= 8.25D-09 at cycle  13 NSaved=  13.
 NSaved=13 IEnMin=13 EnMin= -649.180870223023     IErMin=13 ErrMin= 8.25D-09
 ErrMax= 8.25D-09  0.00D+00 EMaxC= 1.00D-01 BMatC= 4.69D-15 BMatP= 3.01D-14
 IDIUse=1 WtCom= 1.00D+00 WtEn= 0.00D+00
 Coeff-Com:  0.284D-05-0.377D-05-0.502D-05 0.468D-05-0.129D-03-0.183D-03
 Coeff-Com:  0.680D-04 0.846D-03 0.254D-02-0.154D-01-0.180D-01 0.240D+00
 Coeff-Com:  0.790D+00
 Coeff:      0.284D-05-0.377D-05-0.502D-05 0.468D-05-0.129D-03-0.183D-03
 Coeff:      0.680D-04 0.846D-03 0.254D-02-0.154D-01-0.180D-01 0.240D+00
 Coeff:      0.790D+00
 Gap=     0.025 Goal=   None    Shift=    0.000
 RMSDP=1.08D-08 MaxDP=2.83D-07 DE=-4.55D-12 OVMax= 4.46D-07

 Cycle  14  Pass 1  IDiag  1:
 E= -649.180870223015     Delta-E=        0.000000000008 Rises=F Damp=F
 DIIS: error= 1.82D-09 at cycle  14 NSaved=  14.
 NSaved=14 IEnMin=13 EnMin= -649.180870223023     IErMin=14 ErrMin= 1.82D-09
 ErrMax= 1.82D-09  0.00D+00 EMaxC= 1.00D-01 BMatC= 1.30D-16 BMatP= 4.69D-15
 IDIUse=1 WtCom= 1.00D+00 WtEn= 0.00D+00
 Coeff-Com:  0.232D-06-0.304D-06-0.813D-06 0.104D-06-0.166D-04-0.265D-04
 Coeff-Com: -0.698D-05 0.623D-04 0.635D-03-0.152D-02-0.388D-02-0.269D-01
 Coeff-Com:  0.136D+00 0.896D+00
 Coeff:      0.232D-06-0.304D-06-0.813D-06 0.104D-06-0.166D-04-0.265D-04
 Coeff:     -0.698D-05 0.623D-04 0.635D-03-0.152D-02-0.388D-02-0.269D-01
 Coeff:      0.136D+00 0.896D+00
 Gap=     0.025 Goal=   None    Shift=    0.000
 RMSDP=1.69D-09 MaxDP=4.26D-08 DE= 7.84D-12 OVMax= 4.63D-08

 SCF Done:  E(RB3LYP) =  -649.180870223     A.U. after   14 cycles
            NFock= 14  Conv=0.17D-08     -V/T= 2.0027
 KE= 6.474563440008D+02 PE=-1.780544938997D+03 EE= 3.732772634667D+02
 Leave Link  502 at Thu Oct  5 15:32:39 2023, MaxMem=  1610612736 cpu:              21.9 elap:               1.6
 (Enter /home/sekinelabo/g16/l601.exe)
 Copying SCF densities to generalized density rwf, IOpCl= 0 IROHF=0.

 **********************************************************************

            Population analysis using the SCF Density.

 **********************************************************************

 Orbital symmetries:
       Occupied  (A) (A) (A) (A) (A) (A) (A) (A) (A) (A) (A) (A)
                 (A) (A) (A) (A) (A) (A) (A) (A) (A) (A)
       Virtual   (A) (A) (A) (A) (A) (A) (A) (A) (A) (A) (A) (A)
                 (A) (A) (A) (A) (A) (A) (A) (A) (A) (A) (A) (A)
                 (A) (A) (A) (A) (A) (A) (A) (A) (A) (A) (A) (A)
                 (A) (A) (A) (A) (A) (A) (A) (A) (A) (A) (A) (A)
                 (A) (A) (A) (A) (A) (A) (A) (A) (A) (A) (A) (A)
                 (A) (A) (A) (A) (A) (A) (A) (A) (A) (A) (A) (A)
                 (A) (A) (A) (A) (A) (A) (A) (A) (A) (A) (A) (A)
                 (A) (A) (A) (A) (A) (A) (A) (A) (A) (A) (A) (A)
                 (A) (A)
 The electronic state is 1-A.
 Alpha  occ. eigenvalues --  -38.46209 -38.45457 -38.44550 -38.42691  -2.22036
 Alpha  occ. eigenvalues --   -2.21359  -2.20501  -2.18496  -1.15772  -1.15688
 Alpha  occ. eigenvalues --   -1.15646  -1.15210  -1.14989  -1.14959  -1.14153
 Alpha  occ. eigenvalues --   -1.14120  -1.14079  -1.12174  -1.12154  -1.12143
 Alpha  occ. eigenvalues --   -0.16615  -0.10674
 Alpha virt. eigenvalues --   -0.08134  -0.04110  -0.03455  -0.02951  -0.02140
 Alpha virt. eigenvalues --   -0.00603  -0.00223  -0.00151   0.00064   0.00604
 Alpha virt. eigenvalues --    0.00892   0.01161   0.01258   0.01324   0.01391
 Alpha virt. eigenvalues --    0.01649   0.01826   0.01982   0.02140   0.02294
 Alpha virt. eigenvalues --    0.02394   0.02582   0.02945   0.02966   0.03342
 Alpha virt. eigenvalues --    0.03413   0.04083   0.04128   0.05347   0.05723
 Alpha virt. eigenvalues --    0.06173   0.06491   0.07072   0.07965   0.08150
 Alpha virt. eigenvalues --    0.08466   0.08558   0.09090   0.10159   0.10526
 Alpha virt. eigenvalues --    0.11051   0.11161   0.13149   0.13729   0.15408
 Alpha virt. eigenvalues --    0.17269   0.26174   0.27280   0.27952   0.29755
 Alpha virt. eigenvalues --    0.31123   0.32309   0.32699   0.33653   0.34539
 Alpha virt. eigenvalues --    0.37455   0.37901   0.39235   0.40114   0.42610
 Alpha virt. eigenvalues --    0.43425   0.43768   0.44101   0.44181   0.45161
 Alpha virt. eigenvalues --    0.45185   0.46538   0.48260   0.49191   0.49985
 Alpha virt. eigenvalues --    0.50508   0.50999   0.51106   0.53601   0.59569
 Alpha virt. eigenvalues --    0.64980   0.76738   0.84225   2.02914   2.10451
 Alpha virt. eigenvalues --    2.13485   2.17793   4.40766   4.41807   4.42444
 Alpha virt. eigenvalues --    4.43345   4.43993   4.44901   4.46308   4.47589
 Alpha virt. eigenvalues --    4.48713   4.57564   4.72417   4.78078  96.22340
 Alpha virt. eigenvalues --   96.31923  96.36125  96.42545
          Condensed to atoms (all electrons):
               1          2          3          4
     1  Na  10.905397  -0.294366   0.278612  -0.146008
     2  Na  -0.294366  11.011563   0.171402   0.303629
     3  Na   0.278612   0.171402  10.953401  -0.335425
     4  Na  -0.146008   0.303629  -0.335425  11.173949
 Mulliken charges:
               1
     1  Na   0.256365
     2  Na  -0.192228
     3  Na  -0.067991
     4  Na   0.003854
 Sum of Mulliken charges =   0.00000
 Mulliken charges with hydrogens summed into heavy atoms:
               1
     1  Na   0.256365
     2  Na  -0.192228
     3  Na  -0.067991
     4  Na   0.003854
 Electronic spatial extent (au):  <R**2>=            908.6001
 Charge=             -0.0000 electrons
 Dipole moment (field-independent basis, Debye):
    X=              0.8958    Y=              0.5234    Z=             -0.0214  Tot=              1.0377
 Quadrupole moment (field-independent basis, Debye-Ang):
   XX=            -53.5362   YY=            -26.6963   ZZ=            -43.1245
   XY=             -5.4318   XZ=             -0.0152   YZ=             -0.0592
 Traceless Quadrupole moment (field-independent basis, Debye-Ang):
   XX=            -12.4172   YY=             14.4227   ZZ=             -2.0055
   XY=             -5.4318   XZ=             -0.0152   YZ=             -0.0592
 Octapole moment (field-independent basis, Debye-Ang**2):
  XXX=             -0.7355  YYY=              6.4008  ZZZ=             -0.2194  XYY=             10.3504
  XXY=              0.0661  XXZ=              0.8151  XZZ=              3.9870  YZZ=              0.1050
  YYZ=             -0.8344  XYZ=             -0.6402
 Hexadecapole moment (field-independent basis, Debye-Ang**3):
 XXXX=          -1208.4268 YYYY=           -461.1152 ZZZZ=           -171.3244 XXXY=            -78.9136
 XXXZ=             -0.7755 YYYX=            -11.0447 YYYZ=             -0.3398 ZZZX=             -0.1041
 ZZZY=             -0.3188 XXYY=           -288.6139 XXZZ=           -229.7143 YYZZ=           -115.2817
 XXYZ=             -0.6838 YYXZ=             -0.1372 ZZXY=             -9.5119
 N-N= 1.106304613065D+02 E-N=-1.780544938933D+03  KE= 6.474563440008D+02
 No NMR shielding tensors so no spin-rotation constants.
 Leave Link  601 at Thu Oct  5 15:32:39 2023, MaxMem=  1610612736 cpu:               1.0 elap:               0.1
 (Enter /home/sekinelabo/g16/l701.exe)
 ... and contract with generalized density number  0.
 Compute integral first derivatives.
 Leave Link  701 at Thu Oct  5 15:32:39 2023, MaxMem=  1610612736 cpu:               1.3 elap:               0.1
 (Enter /home/sekinelabo/g16/l702.exe)
 L702 exits ... SP integral derivatives will be done elsewhere.
 Leave Link  702 at Thu Oct  5 15:32:39 2023, MaxMem=  1610612736 cpu:               0.3 elap:               0.0
 (Enter /home/sekinelabo/g16/l703.exe)
 Integral derivatives from FoFJK, PRISM(SPDF).
 Compute integral first derivatives, UseDBF=F ICtDFT=           0.
 Calling FoFJK, ICntrl=      2127 FMM=F ISym2X=0 I1Cent= 0 IOpClX= 0 NMat=1 NMatS=1 NMatT=0.
 FoFJK:  IHMeth= 1 ICntrl=    2127 DoSepK=F KAlg= 0 I1Cent=           0 FoldK=F
 IRaf=         0 NMat=       1 IRICut=       1 DoRegI=T DoRafI=F ISym2E= 0 IDoP0=0 IntGTp=1.
 FoFCou: FMM=F IPFlag=           0 FMFlag=      100000 FMFlg1=         800
         NFxFlg=           0 DoJE=F BraDBF=F KetDBF=F FulRan=T
         wScrn=  0.000000 ICntrl=      2127 IOpCl=  0 I1Cent=           0 NGrid=           0
         NMat0=    1 NMatS0=      1 NMatT0=    0 NMatD0=    1 NMtDS0=    0 NMtDT0=    0
 Symmetry not used in FoFCou.
 Leave Link  703 at Thu Oct  5 15:32:39 2023, MaxMem=  1610612736 cpu:               6.6 elap:               0.4
 (Enter /home/sekinelabo/g16/l716.exe)
 Dipole        = 3.52439531D-01 2.05922038D-01-8.41349010D-03
 ***** Axes restored to original set *****
 -------------------------------------------------------------------
 Center     Atomic                   Forces (Hartrees/Bohr)
 Number     Number              X              Y              Z
 -------------------------------------------------------------------
      1       11           0.019395570    0.000077354   -0.005081056
      2       11          -0.017183461   -0.000208221    0.003398263
      3       11           0.001458711    0.000207815    0.003490648
      4       11          -0.003670820   -0.000076949   -0.001807855
 -------------------------------------------------------------------
 Cartesian Forces:  Max     0.019395570 RMS     0.007852701
 Z-matrix is all fixed cartesians, so copy forces.
 Force constants in Cartesian coordinates: 
                1             2             3             4             5 
      1  0.902391D-01
      2  0.547995D-03  0.836111D-02
      3 -0.631452D-02 -0.674474D-03  0.780548D-01
      4 -0.668809D-01  0.654149D-03 -0.148024D-01  0.888160D-01
      5 -0.811597D-04 -0.809206D-02  0.903324D-03  0.146043D-03  0.163906D-01
      6  0.102703D-01  0.724854D-03 -0.285071D-01  0.100386D-01 -0.298151D-02
      7 -0.224740D-01 -0.355615D-03  0.139259D-01 -0.411589D-02 -0.231256D-03
      8 -0.457114D-03 -0.591722D-02 -0.501792D-04  0.501340D-03 -0.224058D-02
      9 -0.962192D-02 -0.443217D-03 -0.531339D-01 -0.778603D-02 -0.313978D-03
     10 -0.884246D-03 -0.846528D-03  0.719102D-02 -0.178192D-01  0.166373D-03
     11 -0.972125D-05  0.564818D-02 -0.178671D-03 -0.130153D-02 -0.605796D-02
     12  0.566616D-02  0.392837D-03  0.358615D-02  0.125499D-01  0.239216D-02
                6             7             8             9            10 
      6  0.695507D-01
      7 -0.126215D-01  0.391266D-01
      8  0.630311D-03  0.992941D-03  0.118777D-01
      9 -0.987514D-02  0.955863D-02  0.264704D-03  0.686151D-01
     10 -0.768738D-02 -0.125367D-01 -0.103717D-02  0.784932D-02  0.312401D-01
     11  0.162635D-02 -0.406070D-03 -0.371987D-02  0.492491D-03  0.171732D-02
     12 -0.311685D-01 -0.108631D-01 -0.844836D-03 -0.560608D-02 -0.735296D-02
               11            12 
     11  0.412965D-02
     12 -0.194017D-02  0.331884D-01
 Leave Link  716 at Thu Oct  5 15:32:39 2023, MaxMem=  1610612736 cpu:               0.3 elap:               0.0
 (Enter /home/sekinelabo/g16/l103.exe)

 GradGradGradGradGradGradGradGradGradGradGradGradGradGradGradGradGradGrad
 Berny optimization.
 Search for a local minimum.
 Step number   1 out of a maximum of    2
 All quantities printed in internal units (Hartrees-Bohrs-Radians)
 Second derivative matrix not updated -- first step.
 The second derivative matrix:
                          X1        Y1        Z1        X2        Y2
           X1           0.09024
           Y1           0.00055   0.00836
           Z1          -0.00631  -0.00067   0.07805
           X2          -0.06688   0.00065  -0.01480   0.08882
           Y2          -0.00008  -0.00809   0.00090   0.00015   0.01639
           Z2           0.01027   0.00072  -0.02851   0.01004  -0.00298
           X3          -0.02247  -0.00036   0.01393  -0.00412  -0.00023
           Y3          -0.00046  -0.00592  -0.00005   0.00050  -0.00224
           Z3          -0.00962  -0.00044  -0.05313  -0.00779  -0.00031
           X4          -0.00088  -0.00085   0.00719  -0.01782   0.00017
           Y4          -0.00001   0.00565  -0.00018  -0.00130  -0.00606
           Z4           0.00567   0.00039   0.00359   0.01255   0.00239
                          Z2        X3        Y3        Z3        X4
           Z2           0.06955
           X3          -0.01262   0.03913
           Y3           0.00063   0.00099   0.01188
           Z3          -0.00988   0.00956   0.00026   0.06862
           X4          -0.00769  -0.01254  -0.00104   0.00785   0.03124
           Y4           0.00163  -0.00041  -0.00372   0.00049   0.00172
           Z4          -0.03117  -0.01086  -0.00084  -0.00561  -0.00735
                          Y4        Z4
           Y4           0.00413
           Z4          -0.00194   0.03319
 ITU=  0
     Eigenvalues ---    0.02464   0.04286   0.06700   0.09565   0.13378
     Eigenvalues ---    0.16007
 Angle between quadratic step and forces=  31.17 degrees.
 Linear search not attempted -- first point.
 B after Tr=    -0.000000   -0.000000   -0.000000
         Rot=    1.000000   -0.000000    0.000000    0.000000 Ang=   0.00 deg.
 Variable       Old X    -DE/DX   Delta X   Delta X   Delta X     New X
                                 (Linear)    (Quad)   (Total)
    X1       -0.00000   0.01940   0.00000   0.15020   0.15020   0.15020
    Y1        0.00000   0.00008   0.00000   0.00162   0.00162   0.00162
    Z1       -0.00000  -0.00508   0.00000  -0.05036  -0.05036  -0.05036
    X2       -5.07275  -0.01718   0.00000  -0.11097  -0.11097  -5.18372
    Y2        0.00000  -0.00021   0.00000  -0.00128  -0.00128  -0.00128
    Z2       -0.42610   0.00340   0.00000   0.02668   0.02668  -0.39942
    X3        0.00000   0.00146   0.00000   0.08973   0.08973   0.08973
    Y3        0.00000   0.00021   0.00000   0.00630   0.00630   0.00630
    Z3        5.35255   0.00349   0.00000   0.02626   0.02626   5.37881
    X4       -7.78258  -0.00367   0.00000  -0.12895  -0.12895  -7.91153
    Y4       -0.45094  -0.00008   0.00000  -0.00664  -0.00664  -0.45758
    Z4        4.98523  -0.00181   0.00000  -0.00257  -0.00257   4.98266
         Item               Value     Threshold  Converged?
 Maximum Force            0.019396     0.000450     NO 
 RMS     Force            0.007853     0.000300     NO 
 Maximum Displacement     0.150196     0.001800     NO 
 RMS     Displacement     0.072793     0.001200     NO 
 Predicted change in Energy=-2.934647D-03
 GradGradGradGradGradGradGradGradGradGradGradGradGradGradGradGradGradGrad

 Leave Link  103 at Thu Oct  5 15:32:39 2023, MaxMem=  1610612736 cpu:               0.2 elap:               0.0
 (Enter /home/sekinelabo/g16/l9999.exe)
 1\1\GINC-SEKINELABO-XA7R-R37\Force\RB3LYP\6-311+G(d)\Na4\SEKINELABO\05
 -Oct-2023\0\\#p B3LYP/6-311+g(d) force\\\0,1\Na,0.,0.,0.\Na,-2.6843845
 431,0.,-0.2254816739\Na,0.,0.,2.8324491016\Na,-4.1183619135,-0.2386294
 269,2.6380694734\\Version=ES64L-G16RevB.01\State=1-A\HF=-649.1808702\R
 MSD=1.695e-09\RMSF=7.853e-03\Dipole=0.3942853,0.0218507,0.1036821\Quad
 rupole=-9.8621643,-1.4983388,11.3605031,-0.387692,1.733221,-0.2968516\
 PG=C01 [X(Na4)]\\@


 EDUCATION DOESN'T COST 
           ... IT PAYS!

 -- POSTMARK, UNIV. OF MISSISSIPPI, DEC 78
 Job cpu time:       0 days  0 hours  0 minutes 38.0 seconds.
 Elapsed time:       0 days  0 hours  0 minutes  2.6 seconds.
 File lengths (MBytes):  RWF=     10 Int=      0 D2E=      0 Chk=      2 Scr=      1
 Normal termination of Gaussian 16 at Thu Oct  5 15:32:39 2023.
 Initial command:
 /home/sekinelabo/g16/l1.exe "/home/sekinelabo/g16temp/Gau-210009.inp" -scrdir="/home/sekinelabo/g16temp/"
 Entering Link 1 = /home/sekinelabo/g16/l1.exe PID=    210253.
  
 Copyright (c) 1988-2017, Gaussian, Inc.  All Rights Reserved.
  
 This is part of the Gaussian(R) 16 program.  It is based on
 the Gaussian(R) 09 system (copyright 2009, Gaussian, Inc.),
 the Gaussian(R) 03 system (copyright 2003, Gaussian, Inc.),
 the Gaussian(R) 98 system (copyright 1998, Gaussian, Inc.),
 the Gaussian(R) 94 system (copyright 1995, Gaussian, Inc.),
 the Gaussian 92(TM) system (copyright 1992, Gaussian, Inc.),
 the Gaussian 90(TM) system (copyright 1990, Gaussian, Inc.),
 the Gaussian 88(TM) system (copyright 1988, Gaussian, Inc.),
 the Gaussian 86(TM) system (copyright 1986, Carnegie Mellon
 University), and the Gaussian 82(TM) system (copyright 1983,
 Carnegie Mellon University). Gaussian is a federally registered
 trademark of Gaussian, Inc.
  
 This software contains proprietary and confidential information,
 including trade secrets, belonging to Gaussian, Inc.
  
 This software is provided under written license and may be
 used, copied, transmitted, or stored only in accord with that
 written license.
  
 The following legend is applicable only to US Government
 contracts under FAR:
  
                    RESTRICTED RIGHTS LEGEND
  
 Use, reproduction and disclosure by the US Government is
 subject to restrictions as set forth in subparagraphs (a)
 and (c) of the Commercial Computer Software - Restricted
 Rights clause in FAR 52.227-19.
  
 Gaussian, Inc.
 340 Quinnipiac St., Bldg. 40, Wallingford CT 06492
  
  
 ---------------------------------------------------------------
 Warning -- This program may not be used in any manner that
 competes with the business of Gaussian, Inc. or will provide
 assistance to any competitor of Gaussian, Inc.  The licensee
 of this program is prohibited from giving any competitor of
 Gaussian, Inc. access to this program.  By using this program,
 the user acknowledges that Gaussian, Inc. is engaged in the
 business of creating and licensing software in the field of
 computational chemistry and represents and warrants to the
 licensee that it is not a competitor of Gaussian, Inc. and that
 it will not use this program in any manner prohibited above.
 ---------------------------------------------------------------
  

 Cite this work as:
 Gaussian 16, Revision B.01,
 M. J. Frisch, G. W. Trucks, H. B. Schlegel, G. E. Scuseria, 
 M. A. Robb, J. R. Cheeseman, G. Scalmani, V. Barone, 
 G. A. Petersson, H. Nakatsuji, X. Li, M. Caricato, A. V. Marenich, 
 J. Bloino, B. G. Janesko, R. Gomperts, B. Mennucci, H. P. Hratchian, 
 J. V. Ortiz, A. F. Izmaylov, J. L. Sonnenberg, D. Williams-Young, 
 F. Ding, F. Lipparini, F. Egidi, J. Goings, B. Peng, A. Petrone, 
 T. Henderson, D. Ranasinghe, V. G. Zakrzewski, J. Gao, N. Rega, 
 G. Zheng, W. Liang, M. Hada, M. Ehara, K. Toyota, R. Fukuda, 
 J. Hasegawa, M. Ishida, T. Nakajima, Y. Honda, O. Kitao, H. Nakai, 
 T. Vreven, K. Throssell, J. A. Montgomery, Jr., J. E. Peralta, 
 F. Ogliaro, M. J. Bearpark, J. J. Heyd, E. N. Brothers, K. N. Kudin, 
 V. N. Staroverov, T. A. Keith, R. Kobayashi, J. Normand, 
 K. Raghavachari, A. P. Rendell, J. C. Burant, S. S. Iyengar, 
 J. Tomasi, M. Cossi, J. M. Millam, M. Klene, C. Adamo, R. Cammi, 
 J. W. Ochterski, R. L. Martin, K. Morokuma, O. Farkas, 
 J. B. Foresman, and D. J. Fox, Gaussian, Inc., Wallingford CT, 2016.
 
 ******************************************
 Gaussian 16:  ES64L-G16RevB.01 20-Dec-2017
                 5-Oct-2023 
 ******************************************
 %NProcShared=16
 Will use up to   16 processors via shared memory.
 %mem=12GB
 %Chk=checkpoint.chk
 -------------------------
 #p B3LYP/6-311+g(d) force
 -------------------------
 1/10=7,30=1,38=1/1,3;
 2/12=2,17=6,18=5,40=1/2;
 3/5=4,6=6,7=11,11=2,25=1,30=1,71=1,74=-5/1,2,3;
 4//1;
 5/5=2,38=5/2;
 6/7=2,8=2,9=2,10=2,28=1/1;
 7/29=1/1,2,3,16;
 1/10=7,30=1/3;
 99//99;
 Leave Link    1 at Thu Oct  5 15:32:39 2023, MaxMem=  1610612736 cpu:               0.2 elap:               0.0
 (Enter /home/sekinelabo/g16/l101.exe)


 Symbolic Z-matrix:
 Charge =  0 Multiplicity = 1
 Na                    0.        0.        0. 
 Na                   -2.09935   0.       -3.44281 
 Na                    0.        0.        2.47165 
 Na                   -0.14833  -2.06821   5.58216 
 
 ITRead=  0  0  0  0
 MicOpt= -1 -1 -1 -1
 NAtoms=      4 NQM=        4 NQMF=       0 NMMI=      0 NMMIF=      0
                NMic=       0 NMicF=      0.
                    Isotopes and Nuclear Properties:
 (Nuclear quadrupole moments (NQMom) in fm**2, nuclear magnetic moments (NMagM)
  in nuclear magnetons)

  Atom         1           2           3           4
 IAtWgt=          23          23          23          23
 AtmWgt=  22.9897697  22.9897697  22.9897697  22.9897697
 NucSpn=           3           3           3           3
 AtZEff=  -0.0000000  -0.0000000  -0.0000000  -0.0000000
 NQMom=   10.4000000  10.4000000  10.4000000  10.4000000
 NMagM=    2.2175200   2.2175200   2.2175200   2.2175200
 AtZNuc=  11.0000000  11.0000000  11.0000000  11.0000000
 Leave Link  101 at Thu Oct  5 15:32:40 2023, MaxMem=  1610612736 cpu:               1.7 elap:               0.1
 (Enter /home/sekinelabo/g16/l103.exe)

 GradGradGradGradGradGradGradGradGradGradGradGradGradGradGradGradGradGrad
 Berny optimization.
 Initialization pass.
 Trust Radius=3.00D-01 FncErr=1.00D-07 GrdErr=1.00D-07 EigMax=2.50D+02 EigMin=1.00D-04
 Number of steps in this run=      2 maximum allowed number of steps=      2.
 GradGradGradGradGradGradGradGradGradGradGradGradGradGradGradGradGradGrad

 Leave Link  103 at Thu Oct  5 15:32:40 2023, MaxMem=  1610612736 cpu:               0.2 elap:               0.0
 (Enter /home/sekinelabo/g16/l202.exe)
                          Input orientation:                          
 ---------------------------------------------------------------------
 Center     Atomic      Atomic             Coordinates (Angstroms)
 Number     Number       Type             X           Y           Z
 ---------------------------------------------------------------------
      1         11           0        0.000000    0.000000    0.000000
      2         11           0       -2.099347    0.000000   -3.442814
      3         11           0        0.000000    0.000000    2.471653
      4         11           0       -0.148326   -2.068208    5.582156
 ---------------------------------------------------------------------
                    Distance matrix (angstroms):
                    1          2          3          4
     1  Na   0.000000
     2  Na   4.032397   0.000000
     3  Na   2.471653   6.275999   0.000000
     4  Na   5.954826   9.462243   3.738278   0.000000
 Stoichiometry    Na4
 Framework group  C1[X(Na4)]
 Deg. of freedom     6
 Full point group                 C1      NOp   1
 Largest Abelian subgroup         C1      NOp   1
 Largest concise Abelian subgroup C1      NOp   1
                         Standard orientation:                         
 ---------------------------------------------------------------------
 Center     Atomic      Atomic             Coordinates (Angstroms)
 Number     Number       Type             X           Y           Z
 ---------------------------------------------------------------------
      1         11           0       -1.098795   -0.762386    0.351201
      2         11           0       -4.816840    0.735056   -0.089297
      3         11           0        1.272017   -0.764038   -0.347595
      4         11           0        4.643618    0.791367    0.085691
 ---------------------------------------------------------------------
 Rotational constants (GHZ):           8.4841661           0.4594103           0.4403419
 Leave Link  202 at Thu Oct  5 15:32:40 2023, MaxMem=  1610612736 cpu:               0.0 elap:               0.0
 (Enter /home/sekinelabo/g16/l301.exe)
 Standard basis: 6-311+G(d) (5D, 7F)
 Ernie: Thresh=  0.10000D-02 Tol=  0.10000D-05 Strict=F.
 There are   124 symmetry adapted cartesian basis functions of A   symmetry.
 There are   120 symmetry adapted basis functions of A   symmetry.
   120 basis functions,   200 primitive gaussians,   124 cartesian basis functions
    22 alpha electrons       22 beta electrons
       nuclear repulsion energy        86.6353227934 Hartrees.
 IExCor=  402 DFT=T Ex+Corr=B3LYP ExCW=0 ScaHFX=  0.200000
 ScaDFX=  0.800000  0.720000  1.000000  0.810000 ScalE2=  1.000000  1.000000
 IRadAn=      5 IRanWt=     -1 IRanGd=            0 ICorTp=0 IEmpDi=  4
 NAtoms=    4 NActive=    4 NUniq=    4 SFac= 1.00D+00 NAtFMM=   60 NAOKFM=F Big=F
 Integral buffers will be    131072 words long.
 Raffenetti 2 integral format.
 Two-electron integral symmetry is turned on.
 Leave Link  301 at Thu Oct  5 15:32:40 2023, MaxMem=  1610612736 cpu:               0.4 elap:               0.0
 (Enter /home/sekinelabo/g16/l302.exe)
 NPDir=0 NMtPBC=     1 NCelOv=     1 NCel=       1 NClECP=     1 NCelD=      1
         NCelK=      1 NCelE2=     1 NClLst=     1 CellRange=     0.0.
 One-electron integrals computed using PRISM.
 One-electron integral symmetry used in STVInt
 NBasis=   120 RedAO= T EigKep=  4.47D-06  NBF=   120
 NBsUse=   120 1.00D-06 EigRej= -1.00D+00 NBFU=   120
 Precomputing XC quadrature grid using
 IXCGrd= 4 IRadAn=           5 IRanWt=          -1 IRanGd=           0 AccXCQ= 0.00D+00.
 Generated NRdTot=       0 NPtTot=           0 NUsed=           0 NTot=          32
 NSgBfM=   114   114   114   114   114 MxSgAt=     4 MxSgA2=     4.
 Leave Link  302 at Thu Oct  5 15:32:40 2023, MaxMem=  1610612736 cpu:               1.3 elap:               0.1
 (Enter /home/sekinelabo/g16/l303.exe)
 DipDrv:  MaxL=1.
 Leave Link  303 at Thu Oct  5 15:32:40 2023, MaxMem=  1610612736 cpu:               0.3 elap:               0.0
 (Enter /home/sekinelabo/g16/l401.exe)
 ExpMin= 7.60D-03 ExpMax= 3.62D+04 ExpMxC= 1.21D+03 IAcc=3 IRadAn=         5 AccDes= 0.00D+00
 Harris functional with IExCor=  402 and IRadAn=       5 diagonalized for initial guess.
 HarFok:  IExCor=  402 AccDes= 0.00D+00 IRadAn=         5 IDoV= 1 UseB2=F ITyADJ=14
 ICtDFT=  3500011 ScaDFX=  1.000000  1.000000  1.000000  1.000000
 FoFCou: FMM=F IPFlag=           0 FMFlag=      100000 FMFlg1=           0
         NFxFlg=           0 DoJE=T BraDBF=F KetDBF=T FulRan=T
         wScrn=  0.000000 ICntrl=       500 IOpCl=  0 I1Cent=   200000004 NGrid=           0
         NMat0=    1 NMatS0=      1 NMatT0=    0 NMatD0=    1 NMtDS0=    0 NMtDT0=    0
 Petite list used in FoFCou.
 Harris En= -649.049449928149    
 JPrj=0 DoOrth=F DoCkMO=F.
 Leave Link  401 at Thu Oct  5 15:32:40 2023, MaxMem=  1610612736 cpu:               1.9 elap:               0.1
 (Enter /home/sekinelabo/g16/l502.exe)
 Keep R1 ints in memory in canonical form, NReq=41581762.
 FoFCou: FMM=F IPFlag=           0 FMFlag=           0 FMFlg1=           0
         NFxFlg=           0 DoJE=F BraDBF=F KetDBF=F FulRan=T
         wScrn=  0.000000 ICntrl=       600 IOpCl=  0 I1Cent=           0 NGrid=           0
         NMat0=    1 NMatS0=   7260 NMatT0=    0 NMatD0=    1 NMtDS0=    0 NMtDT0=    0
 Symmetry not used in FoFCou.
 Two-electron integral symmetry not used.
 Closed shell SCF:
 Using DIIS extrapolation, IDIIS=  1040.
 NGot=  1610612736 LenX=  1584221380 LenY=  1584205563
 Requested convergence on RMS density matrix=1.00D-08 within 128 cycles.
 Requested convergence on MAX density matrix=1.00D-06.
 Requested convergence on             energy=1.00D-06.
 No special actions if energy rises.

 Cycle   1  Pass 1  IDiag  1:
 E= -649.161273307346    
 DIIS: error= 1.46D-02 at cycle   1 NSaved=   1.
 NSaved= 1 IEnMin= 1 EnMin= -649.161273307346     IErMin= 1 ErrMin= 1.46D-02
 ErrMax= 1.46D-02  0.00D+00 EMaxC= 1.00D-01 BMatC= 2.69D-02 BMatP= 2.69D-02
 IDIUse=3 WtCom= 8.54D-01 WtEn= 1.46D-01
 Coeff-Com:  0.100D+01
 Coeff-En:   0.100D+01
 Coeff:      0.100D+01
 Gap=     0.031 Goal=   None    Shift=    0.000
 GapD=    0.031 DampG=0.250 DampE=0.500 DampFc=0.2500 IDamp=-1.
 Damping current iteration by 2.50D-01
 RMSDP=5.31D-03 MaxDP=1.31D-01              OVMax= 2.10D-01

 Cycle   2  Pass 1  IDiag  1:
 E= -649.166059191861     Delta-E=       -0.004785884515 Rises=F Damp=T
 DIIS: error= 1.02D-02 at cycle   2 NSaved=   2.
 NSaved= 2 IEnMin= 2 EnMin= -649.166059191861     IErMin= 2 ErrMin= 1.02D-02
 ErrMax= 1.02D-02  0.00D+00 EMaxC= 1.00D-01 BMatC= 1.03D-02 BMatP= 2.69D-02
 IDIUse=3 WtCom= 8.98D-01 WtEn= 1.02D-01
 Coeff-Com: -0.126D+01 0.226D+01
 Coeff-En:   0.000D+00 0.100D+01
 Coeff:     -0.113D+01 0.213D+01
 Gap=     0.030 Goal=   None    Shift=    0.000
 RMSDP=5.07D-03 MaxDP=1.61D-01 DE=-4.79D-03 OVMax= 2.84D-01

 Cycle   3  Pass 1  IDiag  1:
 E= -649.165603722495     Delta-E=        0.000455469366 Rises=F Damp=F
 DIIS: error= 6.45D-03 at cycle   3 NSaved=   3.
 NSaved= 3 IEnMin= 2 EnMin= -649.166059191861     IErMin= 3 ErrMin= 6.45D-03
 ErrMax= 6.45D-03  0.00D+00 EMaxC= 1.00D-01 BMatC= 1.40D-03 BMatP= 1.03D-02
 IDIUse=3 WtCom= 9.35D-01 WtEn= 6.45D-02
 Coeff-Com: -0.449D+00 0.809D+00 0.640D+00
 Coeff-En:   0.000D+00 0.525D+00 0.475D+00
 Coeff:     -0.420D+00 0.791D+00 0.629D+00
 Gap=     0.028 Goal=   None    Shift=    0.000
 RMSDP=5.22D-03 MaxDP=2.74D-01 DE= 4.55D-04 OVMax= 4.10D-01

 Cycle   4  Pass 1  IDiag  1:
 E= -649.143133009702     Delta-E=        0.022470712793 Rises=F Damp=F
 DIIS: error= 1.10D-02 at cycle   4 NSaved=   4.
 NSaved= 4 IEnMin= 2 EnMin= -649.166059191861     IErMin= 3 ErrMin= 6.45D-03
 ErrMax= 1.10D-02  0.00D+00 EMaxC= 1.00D-01 BMatC= 3.71D-03 BMatP= 1.40D-03
 IDIUse=2 WtCom= 0.00D+00 WtEn= 1.00D+00
 Coeff-En:   0.000D+00 0.000D+00 0.684D+00 0.316D+00
 Coeff:      0.000D+00 0.000D+00 0.684D+00 0.316D+00
 Gap=     0.032 Goal=   None    Shift=    0.000
 RMSDP=2.96D-03 MaxDP=1.45D-01 DE= 2.25D-02 OVMax= 2.61D-01

 Cycle   5  Pass 1  IDiag  1:
 E= -649.173836902008     Delta-E=       -0.030703892306 Rises=F Damp=F
 DIIS: error= 2.59D-03 at cycle   5 NSaved=   5.
 NSaved= 5 IEnMin= 5 EnMin= -649.173836902008     IErMin= 5 ErrMin= 2.59D-03
 ErrMax= 2.59D-03  0.00D+00 EMaxC= 1.00D-01 BMatC= 4.10D-04 BMatP= 1.40D-03
 IDIUse=3 WtCom= 9.74D-01 WtEn= 2.59D-02
 Coeff-Com:  0.243D-02-0.280D-02 0.395D+00 0.116D+00 0.489D+00
 Coeff-En:   0.000D+00 0.000D+00 0.222D+00 0.000D+00 0.778D+00
 Coeff:      0.237D-02-0.273D-02 0.390D+00 0.113D+00 0.497D+00
 Gap=     0.032 Goal=   None    Shift=    0.000
 RMSDP=1.31D-03 MaxDP=3.83D-02 DE=-3.07D-02 OVMax= 5.78D-02

 Cycle   6  Pass 1  IDiag  1:
 E= -649.175616653718     Delta-E=       -0.001779751711 Rises=F Damp=F
 DIIS: error= 8.74D-04 at cycle   6 NSaved=   6.
 NSaved= 6 IEnMin= 6 EnMin= -649.175616653718     IErMin= 6 ErrMin= 8.74D-04
 ErrMax= 8.74D-04  0.00D+00 EMaxC= 1.00D-01 BMatC= 2.77D-05 BMatP= 4.10D-04
 IDIUse=3 WtCom= 9.91D-01 WtEn= 8.74D-03
 Coeff-Com: -0.693D-02 0.794D-02 0.116D+00-0.221D-01 0.250D+00 0.655D+00
 Coeff-En:   0.000D+00 0.000D+00 0.000D+00 0.000D+00 0.000D+00 0.100D+01
 Coeff:     -0.687D-02 0.787D-02 0.115D+00-0.219D-01 0.248D+00 0.658D+00
 Gap=     0.033 Goal=   None    Shift=    0.000
 RMSDP=2.60D-04 MaxDP=1.16D-02 DE=-1.78D-03 OVMax= 1.71D-02

 Cycle   7  Pass 1  IDiag  1:
 E= -649.175799765045     Delta-E=       -0.000183111327 Rises=F Damp=F
 DIIS: error= 1.39D-04 at cycle   7 NSaved=   7.
 NSaved= 7 IEnMin= 7 EnMin= -649.175799765045     IErMin= 7 ErrMin= 1.39D-04
 ErrMax= 1.39D-04  0.00D+00 EMaxC= 1.00D-01 BMatC= 9.31D-07 BMatP= 2.77D-05
 IDIUse=3 WtCom= 9.99D-01 WtEn= 1.39D-03
 Coeff-Com:  0.374D-04-0.198D-03 0.249D-01-0.113D-01 0.329D-01 0.134D+00
 Coeff-Com:  0.820D+00
 Coeff-En:   0.000D+00 0.000D+00 0.000D+00 0.000D+00 0.000D+00 0.000D+00
 Coeff-En:   0.100D+01
 Coeff:      0.373D-04-0.198D-03 0.249D-01-0.113D-01 0.329D-01 0.134D+00
 Coeff:      0.820D+00
 Gap=     0.033 Goal=   None    Shift=    0.000
 RMSDP=6.65D-05 MaxDP=1.70D-03 DE=-1.83D-04 OVMax= 2.38D-03

 Cycle   8  Pass 1  IDiag  1:
 E= -649.175804390428     Delta-E=       -0.000004625383 Rises=F Damp=F
 DIIS: error= 7.59D-05 at cycle   8 NSaved=   8.
 NSaved= 8 IEnMin= 8 EnMin= -649.175804390428     IErMin= 8 ErrMin= 7.59D-05
 ErrMax= 7.59D-05  0.00D+00 EMaxC= 1.00D-01 BMatC= 1.44D-07 BMatP= 9.31D-07
 IDIUse=1 WtCom= 1.00D+00 WtEn= 0.00D+00
 Coeff-Com:  0.121D-02-0.162D-02 0.672D-02-0.239D-02-0.136D-02-0.102D-01
 Coeff-Com:  0.125D+00 0.883D+00
 Coeff:      0.121D-02-0.162D-02 0.672D-02-0.239D-02-0.136D-02-0.102D-01
 Coeff:      0.125D+00 0.883D+00
 Gap=     0.033 Goal=   None    Shift=    0.000
 RMSDP=1.94D-05 MaxDP=1.02D-03 DE=-4.63D-06 OVMax= 1.62D-03

 Cycle   9  Pass 1  IDiag  1:
 E= -649.175805578900     Delta-E=       -0.000001188472 Rises=F Damp=F
 DIIS: error= 7.99D-06 at cycle   9 NSaved=   9.
 NSaved= 9 IEnMin= 9 EnMin= -649.175805578900     IErMin= 9 ErrMin= 7.99D-06
 ErrMax= 7.99D-06  0.00D+00 EMaxC= 1.00D-01 BMatC= 3.03D-09 BMatP= 1.44D-07
 IDIUse=1 WtCom= 1.00D+00 WtEn= 0.00D+00
 Coeff-Com:  0.434D-03-0.578D-03 0.140D-02-0.442D-03-0.205D-02-0.127D-01
 Coeff-Com:  0.177D-02 0.297D+00 0.715D+00
 Coeff:      0.434D-03-0.578D-03 0.140D-02-0.442D-03-0.205D-02-0.127D-01
 Coeff:      0.177D-02 0.297D+00 0.715D+00
 Gap=     0.033 Goal=   None    Shift=    0.000
 RMSDP=2.34D-06 MaxDP=6.00D-05 DE=-1.19D-06 OVMax= 8.76D-05

 Cycle  10  Pass 1  IDiag  1:
 E= -649.175805589460     Delta-E=       -0.000000010560 Rises=F Damp=F
 DIIS: error= 4.49D-06 at cycle  10 NSaved=  10.
 NSaved=10 IEnMin=10 EnMin= -649.175805589460     IErMin=10 ErrMin= 4.49D-06
 ErrMax= 4.49D-06  0.00D+00 EMaxC= 1.00D-01 BMatC= 4.67D-10 BMatP= 3.03D-09
 IDIUse=1 WtCom= 1.00D+00 WtEn= 0.00D+00
 Coeff-Com:  0.533D-04-0.703D-04-0.369D-04 0.823D-04-0.838D-03-0.500D-02
 Coeff-Com: -0.145D-01 0.229D-01 0.157D+00 0.841D+00
 Coeff:      0.533D-04-0.703D-04-0.369D-04 0.823D-04-0.838D-03-0.500D-02
 Coeff:     -0.145D-01 0.229D-01 0.157D+00 0.841D+00
 Gap=     0.033 Goal=   None    Shift=    0.000
 RMSDP=1.49D-06 MaxDP=7.64D-05 DE=-1.06D-08 OVMax= 1.27D-04

 Cycle  11  Pass 1  IDiag  1:
 E= -649.175805593370     Delta-E=       -0.000000003910 Rises=F Damp=F
 DIIS: error= 8.32D-07 at cycle  11 NSaved=  11.
 NSaved=11 IEnMin=11 EnMin= -649.175805593370     IErMin=11 ErrMin= 8.32D-07
 ErrMax= 8.32D-07  0.00D+00 EMaxC= 1.00D-01 BMatC= 1.76D-11 BMatP= 4.67D-10
 IDIUse=1 WtCom= 1.00D+00 WtEn= 0.00D+00
 Coeff-Com: -0.157D-04 0.203D-04-0.324D-04 0.139D-04 0.830D-05 0.305D-04
 Coeff-Com: -0.596D-05-0.523D-02-0.119D-01 0.172D+00 0.845D+00
 Coeff:     -0.157D-04 0.203D-04-0.324D-04 0.139D-04 0.830D-05 0.305D-04
 Coeff:     -0.596D-05-0.523D-02-0.119D-01 0.172D+00 0.845D+00
 Gap=     0.033 Goal=   None    Shift=    0.000
 RMSDP=3.12D-07 MaxDP=1.19D-05 DE=-3.91D-09 OVMax= 1.97D-05

 Cycle  12  Pass 1  IDiag  1:
 E= -649.175805593530     Delta-E=       -0.000000000160 Rises=F Damp=F
 DIIS: error= 5.16D-08 at cycle  12 NSaved=  12.
 NSaved=12 IEnMin=12 EnMin= -649.175805593530     IErMin=12 ErrMin= 5.16D-08
 ErrMax= 5.16D-08  0.00D+00 EMaxC= 1.00D-01 BMatC= 9.98D-14 BMatP= 1.76D-11
 IDIUse=1 WtCom= 1.00D+00 WtEn= 0.00D+00
 Coeff-Com: -0.137D-05 0.182D-05-0.107D-04 0.321D-05 0.585D-05 0.700D-04
 Coeff-Com:  0.201D-03-0.767D-03-0.373D-02-0.416D-02 0.571D-01 0.951D+00
 Coeff:     -0.137D-05 0.182D-05-0.107D-04 0.321D-05 0.585D-05 0.700D-04
 Coeff:      0.201D-03-0.767D-03-0.373D-02-0.416D-02 0.571D-01 0.951D+00
 Gap=     0.033 Goal=   None    Shift=    0.000
 RMSDP=1.98D-08 MaxDP=4.31D-07 DE=-1.60D-10 OVMax= 7.24D-07

 Cycle  13  Pass 1  IDiag  1:
 E= -649.175805593527     Delta-E=        0.000000000003 Rises=F Damp=F
 DIIS: error= 2.74D-08 at cycle  13 NSaved=  13.
 NSaved=13 IEnMin=12 EnMin= -649.175805593530     IErMin=13 ErrMin= 2.74D-08
 ErrMax= 2.74D-08  0.00D+00 EMaxC= 1.00D-01 BMatC= 2.41D-14 BMatP= 9.98D-14
 IDIUse=1 WtCom= 1.00D+00 WtEn= 0.00D+00
 Coeff-Com:  0.437D-06-0.555D-06-0.273D-05 0.532D-06 0.156D-05 0.256D-04
 Coeff-Com:  0.922D-04 0.167D-03-0.510D-03-0.110D-01-0.208D-01 0.363D+00
 Coeff-Com:  0.669D+00
 Coeff:      0.437D-06-0.555D-06-0.273D-05 0.532D-06 0.156D-05 0.256D-04
 Coeff:      0.922D-04 0.167D-03-0.510D-03-0.110D-01-0.208D-01 0.363D+00
 Coeff:      0.669D+00
 Gap=     0.033 Goal=   None    Shift=    0.000
 RMSDP=9.05D-09 MaxDP=3.73D-07 DE= 3.07D-12 OVMax= 6.42D-07

 SCF Done:  E(RB3LYP) =  -649.175805594     A.U. after   13 cycles
            NFock= 13  Conv=0.91D-08     -V/T= 2.0028
 KE= 6.473507433263D+02 PE=-1.732209370891D+03 EE= 3.490474991774D+02
 Leave Link  502 at Thu Oct  5 15:32:41 2023, MaxMem=  1610612736 cpu:              19.0 elap:               1.4
 (Enter /home/sekinelabo/g16/l601.exe)
 Copying SCF densities to generalized density rwf, IOpCl= 0 IROHF=0.

 **********************************************************************

            Population analysis using the SCF Density.

 **********************************************************************

 Orbital symmetries:
       Occupied  (A) (A) (A) (A) (A) (A) (A) (A) (A) (A) (A) (A)
                 (A) (A) (A) (A) (A) (A) (A) (A) (A) (A)
       Virtual   (A) (A) (A) (A) (A) (A) (A) (A) (A) (A) (A) (A)
                 (A) (A) (A) (A) (A) (A) (A) (A) (A) (A) (A) (A)
                 (A) (A) (A) (A) (A) (A) (A) (A) (A) (A) (A) (A)
                 (A) (A) (A) (A) (A) (A) (A) (A) (A) (A) (A) (A)
                 (A) (A) (A) (A) (A) (A) (A) (A) (A) (A) (A) (A)
                 (A) (A) (A) (A) (A) (A) (A) (A) (A) (A) (A) (A)
                 (A) (A) (A) (A) (A) (A) (A) (A) (A) (A) (A) (A)
                 (A) (A) (A) (A) (A) (A) (A) (A) (A) (A) (A) (A)
                 (A) (A)
 The electronic state is 1-A.
 Alpha  occ. eigenvalues --  -38.45722 -38.45614 -38.45354 -38.45171  -2.21419
 Alpha  occ. eigenvalues --   -2.21326  -2.21262  -2.21019  -1.15588  -1.15096
 Alpha  occ. eigenvalues --   -1.15096  -1.15046  -1.15001  -1.15000  -1.14954
 Alpha  occ. eigenvalues --   -1.14849  -1.14840  -1.14606  -1.14595  -1.14334
 Alpha  occ. eigenvalues --   -0.14775  -0.11642
 Alpha virt. eigenvalues --   -0.08326  -0.04110  -0.03212  -0.03179  -0.01747
 Alpha virt. eigenvalues --   -0.01534  -0.01269  -0.00369  -0.00147   0.00118
 Alpha virt. eigenvalues --    0.00285   0.01118   0.01174   0.01397   0.01424
 Alpha virt. eigenvalues --    0.01512   0.01529   0.01879   0.01982   0.02124
 Alpha virt. eigenvalues --    0.02235   0.02566   0.02736   0.02974   0.03028
 Alpha virt. eigenvalues --    0.03296   0.03940   0.04413   0.05111   0.05625
 Alpha virt. eigenvalues --    0.07076   0.07306   0.07663   0.07994   0.08152
 Alpha virt. eigenvalues --    0.08234   0.08320   0.08668   0.08998   0.09883
 Alpha virt. eigenvalues --    0.11389   0.11618   0.12289   0.13216   0.14488
 Alpha virt. eigenvalues --    0.18387   0.28490   0.28943   0.30206   0.30321
 Alpha virt. eigenvalues --    0.33173   0.34417   0.34587   0.34742   0.34778
 Alpha virt. eigenvalues --    0.35053   0.35906   0.37044   0.37924   0.38500
 Alpha virt. eigenvalues --    0.39965   0.41268   0.41990   0.42547   0.42900
 Alpha virt. eigenvalues --    0.43292   0.43450   0.43727   0.44295   0.44653
 Alpha virt. eigenvalues --    0.45425   0.45912   0.47335   0.49156   0.51841
 Alpha virt. eigenvalues --    0.59498   0.61162   0.91077   2.02066   2.05703
 Alpha virt. eigenvalues --    2.06914   2.13769   4.42313   4.42448   4.43243
 Alpha virt. eigenvalues --    4.43321   4.43441   4.43600   4.44712   4.45340
 Alpha virt. eigenvalues --    4.48258   4.48962   4.50979   4.82046  96.21369
 Alpha virt. eigenvalues --   96.25696  96.29312  96.35327
          Condensed to atoms (all electrons):
               1          2          3          4
     1  Na  11.121885   0.153721   0.334414  -0.293484
     2  Na   0.153721  10.862168  -0.252321  -0.021616
     3  Na   0.334414  -0.252321  11.084410   0.116127
     4  Na  -0.293484  -0.021616   0.116127  10.857855
 Mulliken charges:
               1
     1  Na  -0.316536
     2  Na   0.258048
     3  Na  -0.282630
     4  Na   0.341118
 Sum of Mulliken charges =  -0.00000
 Mulliken charges with hydrogens summed into heavy atoms:
               1
     1  Na  -0.316536
     2  Na   0.258048
     3  Na  -0.282630
     4  Na   0.341118
 Electronic spatial extent (au):  <R**2>=           2051.2298
 Charge=              0.0000 electrons
 Dipole moment (field-independent basis, Debye):
    X=              0.1710    Y=              0.6498    Z=              0.0141  Tot=              0.6721
 Quadrupole moment (field-independent basis, Debye-Ang):
   XX=            -22.6521   YY=            -41.3423   ZZ=            -43.6254
   XY=              0.2579   XZ=              1.1495   YZ=              0.0618
 Traceless Quadrupole moment (field-independent basis, Debye-Ang):
   XX=             13.2211   YY=             -5.4690   ZZ=             -7.7521
   XY=              0.2579   XZ=              1.1495   YZ=              0.0618
 Octapole moment (field-independent basis, Debye-Ang**2):
  XXX=             -0.5909  YYY=              0.6453  ZZZ=              0.0355  XYY=              2.6097
  XXY=             46.2414  XXZ=             -0.0451  XZZ=              1.3565  YZZ=             -0.5581
  YYZ=              0.0060  XYZ=              2.8292
 Hexadecapole moment (field-independent basis, Debye-Ang**3):
 XXXX=          -2239.5028 YYYY=           -308.4067 ZZZZ=           -194.9766 XXXY=              7.3912
 XXXZ=             55.4439 YYYX=              2.1656 YYYZ=              0.3618 ZZZX=              5.4048
 ZZZY=              0.3219 XXYY=           -549.0032 XXZZ=           -574.5695 YYZZ=            -83.7496
 XXYZ=              0.7815 YYXZ=              1.2373 ZZXY=              0.4059
 N-N= 8.663532279340D+01 E-N=-1.732209369748D+03  KE= 6.473507433263D+02
 No NMR shielding tensors so no spin-rotation constants.
 Leave Link  601 at Thu Oct  5 15:32:41 2023, MaxMem=  1610612736 cpu:               0.9 elap:               0.1
 (Enter /home/sekinelabo/g16/l701.exe)
 ... and contract with generalized density number  0.
 Compute integral first derivatives.
 Leave Link  701 at Thu Oct  5 15:32:41 2023, MaxMem=  1610612736 cpu:               1.2 elap:               0.1
 (Enter /home/sekinelabo/g16/l702.exe)
 L702 exits ... SP integral derivatives will be done elsewhere.
 Leave Link  702 at Thu Oct  5 15:32:41 2023, MaxMem=  1610612736 cpu:               0.3 elap:               0.0
 (Enter /home/sekinelabo/g16/l703.exe)
 Integral derivatives from FoFJK, PRISM(SPDF).
 Compute integral first derivatives, UseDBF=F ICtDFT=           0.
 Calling FoFJK, ICntrl=      2127 FMM=F ISym2X=0 I1Cent= 0 IOpClX= 0 NMat=1 NMatS=1 NMatT=0.
 FoFJK:  IHMeth= 1 ICntrl=    2127 DoSepK=F KAlg= 0 I1Cent=           0 FoldK=F
 IRaf=         0 NMat=       1 IRICut=       1 DoRegI=T DoRafI=F ISym2E= 0 IDoP0=0 IntGTp=1.
 FoFCou: FMM=F IPFlag=           0 FMFlag=      100000 FMFlg1=         800
         NFxFlg=           0 DoJE=F BraDBF=F KetDBF=F FulRan=T
         wScrn=  0.000000 ICntrl=      2127 IOpCl=  0 I1Cent=           0 NGrid=           0
         NMat0=    1 NMatS0=      1 NMatT0=    0 NMatD0=    1 NMtDS0=    0 NMtDT0=    0
 Symmetry not used in FoFCou.
 Leave Link  703 at Thu Oct  5 15:32:42 2023, MaxMem=  1610612736 cpu:               5.9 elap:               0.4
 (Enter /home/sekinelabo/g16/l716.exe)
 Dipole        = 6.72935030D-02 2.55645171D-01 5.52937401D-03
 ***** Axes restored to original set *****
 -------------------------------------------------------------------
 Center     Atomic                   Forces (Hartrees/Bohr)
 Number     Number              X              Y              Z
 -------------------------------------------------------------------
      1       11          -0.003063823   -0.000419129   -0.028212266
      2       11           0.003253874    0.000147188    0.005344488
      3       11          -0.000553370   -0.002711120    0.027434396
      4       11           0.000363319    0.002983061   -0.004566619
 -------------------------------------------------------------------
 Cartesian Forces:  Max     0.028212266 RMS     0.011672099
 Z-matrix is all fixed cartesians, so copy forces.
 Force constants in Cartesian coordinates: 
                1             2             3             4             5 
      1  0.368190D-01
      2 -0.136894D-01  0.397564D-01
      3 -0.106723D-02  0.000000D+00  0.106898D+00
      4 -0.118816D-01  0.000000D+00 -0.258966D-02  0.588454D-02
      5  0.584005D-02 -0.114149D-01  0.000000D+00  0.000000D+00  0.459527D-02
      6  0.106723D-02  0.000000D+00 -0.855233D-02  0.258966D-02  0.000000D+00
      7 -0.308672D-01  0.247671D-01  0.365690D-02  0.599711D-02 -0.104806D-01
      8  0.782251D-02 -0.354403D-01  0.000000D+00  0.000000D+00  0.715249D-02
      9 -0.300627D-03 -0.419185D-02 -0.983453D-01  0.000000D+00  0.000000D+00
     10  0.592990D-02 -0.110777D-01  0.000000D+00  0.000000D+00  0.464059D-02
     11  0.268564D-04  0.709884D-02  0.000000D+00  0.000000D+00 -0.332809D-03
     12  0.300627D-03  0.419185D-02  0.000000D+00  0.000000D+00  0.000000D+00
                6             7             8             9            10 
      6  0.855233D-02
      7 -0.365690D-02  0.355260D-01
      8  0.000000D+00 -0.140431D-01  0.427839D-01
      9  0.000000D+00  0.702589D-05  0.979669D-04  0.109512D+00
     10  0.000000D+00 -0.106559D-01  0.622056D-02  0.293601D-03  0.472599D-02
     11  0.000000D+00 -0.243415D-03 -0.144961D-01  0.409389D-02  0.216559D-03
     12  0.000000D+00 -0.702589D-05 -0.979669D-04 -0.111666D-01 -0.293601D-03
               11            12 
     11  0.773009D-02
     12 -0.409389D-02  0.111666D-01
 Leave Link  716 at Thu Oct  5 15:32:42 2023, MaxMem=  1610612736 cpu:               0.3 elap:               0.0
 (Enter /home/sekinelabo/g16/l103.exe)

 GradGradGradGradGradGradGradGradGradGradGradGradGradGradGradGradGradGrad
 Berny optimization.
 Search for a local minimum.
 Step number   1 out of a maximum of    2
 All quantities printed in internal units (Hartrees-Bohrs-Radians)
 Second derivative matrix not updated -- first step.
 The second derivative matrix:
                          X1        Y1        Z1        X2        Y2
           X1           0.03682
           Y1          -0.01369   0.03976
           Z1          -0.00107   0.00000   0.10690
           X2          -0.01188  -0.00000  -0.00259   0.00588
           Y2           0.00584  -0.01141   0.00000   0.00000   0.00460
           Z2           0.00107   0.00000  -0.00855   0.00259   0.00000
           X3          -0.03087   0.02477   0.00366   0.00600  -0.01048
           Y3           0.00782  -0.03544   0.00000   0.00000   0.00715
           Z3          -0.00030  -0.00419  -0.09835   0.00000  -0.00000
           X4           0.00593  -0.01108   0.00000  -0.00000   0.00464
           Y4           0.00003   0.00710  -0.00000   0.00000  -0.00033
           Z4           0.00030   0.00419  -0.00000   0.00000   0.00000
                          Z2        X3        Y3        Z3        X4
           Z2           0.00855
           X3          -0.00366   0.03553
           Y3          -0.00000  -0.01404   0.04278
           Z3          -0.00000   0.00001   0.00010   0.10951
           X4          -0.00000  -0.01066   0.00622   0.00029   0.00473
           Y4           0.00000  -0.00024  -0.01450   0.00409   0.00022
           Z4           0.00000  -0.00001  -0.00010  -0.01117  -0.00029
                          Y4        Z4
           Y4           0.00773
           Z4          -0.00409   0.01117
 ITU=  0
     Eigenvalues ---    0.00844   0.01558   0.02296   0.04886   0.11084
     Eigenvalues ---    0.20726
 Quadratic step=5.722D-01 exceeds max=3.000D-01 adjusted using Lamda=-1.533D-02.
 Angle between NR and scaled steps=  19.05 degrees.
 Angle between quadratic step and forces=  43.29 degrees.
 Linear search not attempted -- first point.
 B after Tr=    -0.000000    0.000000    0.000000
         Rot=    1.000000   -0.000000    0.000000   -0.000000 Ang=   0.00 deg.
 Variable       Old X    -DE/DX   Delta X   Delta X   Delta X     New X
                                 (Linear)    (Quad)   (Total)
    X1        0.00000  -0.00306   0.00000  -0.06678  -0.06678  -0.06678
    Y1        0.00000  -0.00042   0.00000  -0.02846  -0.02846  -0.02846
    Z1       -0.00000  -0.02821   0.00000  -0.14048  -0.14048  -0.14048
    X2       -3.96719   0.00325   0.00000   0.08908   0.08908  -3.87811
    Y2        0.00000   0.00015   0.00000   0.00782   0.00782   0.00782
    Z2       -6.50597   0.00534   0.00000   0.16140   0.16140  -6.34458
    X3        0.00000  -0.00055   0.00000  -0.03523  -0.03523  -0.03523
    Y3        0.00000  -0.00271   0.00000  -0.04889  -0.04889  -0.04889
    Z3        4.67075   0.02743   0.00000   0.09530   0.09530   4.76605
    X4       -0.28029   0.00036   0.00000   0.01293   0.01293  -0.26737
    Y4       -3.90835   0.00298   0.00000   0.06953   0.06953  -3.83882
    Z4       10.54875  -0.00457   0.00000  -0.11622  -0.11622  10.43253
         Item               Value     Threshold  Converged?
 Maximum Force            0.028212     0.000450     NO 
 RMS     Force            0.011672     0.000300     NO 
 Maximum Displacement     0.161396     0.001800     NO 
 RMS     Displacement     0.086734     0.001200     NO 
 Predicted change in Energy=-5.113477D-03
 GradGradGradGradGradGradGradGradGradGradGradGradGradGradGradGradGradGrad

 Leave Link  103 at Thu Oct  5 15:32:42 2023, MaxMem=  1610612736 cpu:               0.1 elap:               0.0
 (Enter /home/sekinelabo/g16/l9999.exe)
 1\1\GINC-SEKINELABO-XA7R-R37\Force\RB3LYP\6-311+G(d)\Na4\SEKINELABO\05
 -Oct-2023\0\\#p B3LYP/6-311+g(d) force\\\0,1\Na,0.,0.,0.\Na,-2.0993469
 246,0.,-3.4428135478\Na,0.,0.,2.4716526021\Na,-0.1483256015,-2.0682080
 065,5.5821564255\\Version=ES64L-G16RevB.01\State=1-A\HF=-649.1758056\R
 MSD=9.053e-09\RMSF=1.167e-02\Dipole=-0.1650199,-0.1968154,0.0628138\Qu
 adrupole=-4.1614023,-3.9580346,8.1194369,-0.0046448,3.3448859,-3.64864
 68\PG=C01 [X(Na4)]\\@


 I WANT TO KNOW HOW GOD CREATED THE WORLD.  I AM NOT INTERESTED IN
 THIS OR THAT PHENOMENON, IN THE SPECTRUM OF THIS OR THAT ELEMENT.
 I WANT TO KNOW HIS THOUGHTS, THE REST ARE DETAILS.
     -- ALBERT EINSTEIN
 Job cpu time:       0 days  0 hours  0 minutes 34.2 seconds.
 Elapsed time:       0 days  0 hours  0 minutes  2.3 seconds.
 File lengths (MBytes):  RWF=     10 Int=      0 D2E=      0 Chk=      2 Scr=      1
 Normal termination of Gaussian 16 at Thu Oct  5 15:32:42 2023.
 Initial command:
 /home/sekinelabo/g16/l1.exe "/home/sekinelabo/g16temp/Gau-210009.inp" -scrdir="/home/sekinelabo/g16temp/"
 Entering Link 1 = /home/sekinelabo/g16/l1.exe PID=    210495.
  
 Copyright (c) 1988-2017, Gaussian, Inc.  All Rights Reserved.
  
 This is part of the Gaussian(R) 16 program.  It is based on
 the Gaussian(R) 09 system (copyright 2009, Gaussian, Inc.),
 the Gaussian(R) 03 system (copyright 2003, Gaussian, Inc.),
 the Gaussian(R) 98 system (copyright 1998, Gaussian, Inc.),
 the Gaussian(R) 94 system (copyright 1995, Gaussian, Inc.),
 the Gaussian 92(TM) system (copyright 1992, Gaussian, Inc.),
 the Gaussian 90(TM) system (copyright 1990, Gaussian, Inc.),
 the Gaussian 88(TM) system (copyright 1988, Gaussian, Inc.),
 the Gaussian 86(TM) system (copyright 1986, Carnegie Mellon
 University), and the Gaussian 82(TM) system (copyright 1983,
 Carnegie Mellon University). Gaussian is a federally registered
 trademark of Gaussian, Inc.
  
 This software contains proprietary and confidential information,
 including trade secrets, belonging to Gaussian, Inc.
  
 This software is provided under written license and may be
 used, copied, transmitted, or stored only in accord with that
 written license.
  
 The following legend is applicable only to US Government
 contracts under FAR:
  
                    RESTRICTED RIGHTS LEGEND
  
 Use, reproduction and disclosure by the US Government is
 subject to restrictions as set forth in subparagraphs (a)
 and (c) of the Commercial Computer Software - Restricted
 Rights clause in FAR 52.227-19.
  
 Gaussian, Inc.
 340 Quinnipiac St., Bldg. 40, Wallingford CT 06492
  
  
 ---------------------------------------------------------------
 Warning -- This program may not be used in any manner that
 competes with the business of Gaussian, Inc. or will provide
 assistance to any competitor of Gaussian, Inc.  The licensee
 of this program is prohibited from giving any competitor of
 Gaussian, Inc. access to this program.  By using this program,
 the user acknowledges that Gaussian, Inc. is engaged in the
 business of creating and licensing software in the field of
 computational chemistry and represents and warrants to the
 licensee that it is not a competitor of Gaussian, Inc. and that
 it will not use this program in any manner prohibited above.
 ---------------------------------------------------------------
  

 Cite this work as:
 Gaussian 16, Revision B.01,
 M. J. Frisch, G. W. Trucks, H. B. Schlegel, G. E. Scuseria, 
 M. A. Robb, J. R. Cheeseman, G. Scalmani, V. Barone, 
 G. A. Petersson, H. Nakatsuji, X. Li, M. Caricato, A. V. Marenich, 
 J. Bloino, B. G. Janesko, R. Gomperts, B. Mennucci, H. P. Hratchian, 
 J. V. Ortiz, A. F. Izmaylov, J. L. Sonnenberg, D. Williams-Young, 
 F. Ding, F. Lipparini, F. Egidi, J. Goings, B. Peng, A. Petrone, 
 T. Henderson, D. Ranasinghe, V. G. Zakrzewski, J. Gao, N. Rega, 
 G. Zheng, W. Liang, M. Hada, M. Ehara, K. Toyota, R. Fukuda, 
 J. Hasegawa, M. Ishida, T. Nakajima, Y. Honda, O. Kitao, H. Nakai, 
 T. Vreven, K. Throssell, J. A. Montgomery, Jr., J. E. Peralta, 
 F. Ogliaro, M. J. Bearpark, J. J. Heyd, E. N. Brothers, K. N. Kudin, 
 V. N. Staroverov, T. A. Keith, R. Kobayashi, J. Normand, 
 K. Raghavachari, A. P. Rendell, J. C. Burant, S. S. Iyengar, 
 J. Tomasi, M. Cossi, J. M. Millam, M. Klene, C. Adamo, R. Cammi, 
 J. W. Ochterski, R. L. Martin, K. Morokuma, O. Farkas, 
 J. B. Foresman, and D. J. Fox, Gaussian, Inc., Wallingford CT, 2016.
 
 ******************************************
 Gaussian 16:  ES64L-G16RevB.01 20-Dec-2017
                 5-Oct-2023 
 ******************************************
 %NProcShared=16
 Will use up to   16 processors via shared memory.
 %mem=12GB
 %Chk=checkpoint.chk
 -------------------------
 #p B3LYP/6-311+g(d) force
 -------------------------
 1/10=7,30=1,38=1/1,3;
 2/12=2,17=6,18=5,40=1/2;
 3/5=4,6=6,7=11,11=2,25=1,30=1,71=1,74=-5/1,2,3;
 4//1;
 5/5=2,38=5/2;
 6/7=2,8=2,9=2,10=2,28=1/1;
 7/29=1/1,2,3,16;
 1/10=7,30=1/3;
 99//99;
 Leave Link    1 at Thu Oct  5 15:32:42 2023, MaxMem=  1610612736 cpu:               0.2 elap:               0.0
 (Enter /home/sekinelabo/g16/l101.exe)


 Symbolic Z-matrix:
 Charge =  0 Multiplicity = 1
 Na                    0.        0.        0. 
 Na                   -0.61878   0.       -2.79407 
 Na                    0.        0.        4.30037 
 Na                   -0.27277  -2.13579   3.72593 
 
 ITRead=  0  0  0  0
 MicOpt= -1 -1 -1 -1
 NAtoms=      4 NQM=        4 NQMF=       0 NMMI=      0 NMMIF=      0
                NMic=       0 NMicF=      0.
                    Isotopes and Nuclear Properties:
 (Nuclear quadrupole moments (NQMom) in fm**2, nuclear magnetic moments (NMagM)
  in nuclear magnetons)

  Atom         1           2           3           4
 IAtWgt=          23          23          23          23
 AtmWgt=  22.9897697  22.9897697  22.9897697  22.9897697
 NucSpn=           3           3           3           3
 AtZEff=  -0.0000000  -0.0000000  -0.0000000  -0.0000000
 NQMom=   10.4000000  10.4000000  10.4000000  10.4000000
 NMagM=    2.2175200   2.2175200   2.2175200   2.2175200
 AtZNuc=  11.0000000  11.0000000  11.0000000  11.0000000
 Leave Link  101 at Thu Oct  5 15:32:42 2023, MaxMem=  1610612736 cpu:               1.7 elap:               0.1
 (Enter /home/sekinelabo/g16/l103.exe)

 GradGradGradGradGradGradGradGradGradGradGradGradGradGradGradGradGradGrad
 Berny optimization.
 Initialization pass.
 Trust Radius=3.00D-01 FncErr=1.00D-07 GrdErr=1.00D-07 EigMax=2.50D+02 EigMin=1.00D-04
 Number of steps in this run=      2 maximum allowed number of steps=      2.
 GradGradGradGradGradGradGradGradGradGradGradGradGradGradGradGradGradGrad

 Leave Link  103 at Thu Oct  5 15:32:42 2023, MaxMem=  1610612736 cpu:               0.2 elap:               0.0
 (Enter /home/sekinelabo/g16/l202.exe)
                          Input orientation:                          
 ---------------------------------------------------------------------
 Center     Atomic      Atomic             Coordinates (Angstroms)
 Number     Number       Type             X           Y           Z
 ---------------------------------------------------------------------
      1         11           0        0.000000    0.000000    0.000000
      2         11           0       -0.618780    0.000000   -2.794069
      3         11           0        0.000000    0.000000    4.300365
      4         11           0       -0.272766   -2.135790    3.725929
 ---------------------------------------------------------------------
                    Distance matrix (angstroms):
                    1          2          3          4
     1  Na   0.000000
     2  Na   2.861767   0.000000
     3  Na   4.300365   7.121368   0.000000
     4  Na   4.303318   6.869621   2.228447   0.000000
 Stoichiometry    Na4
 Framework group  C1[X(Na4)]
 Deg. of freedom     6
 Full point group                 C1      NOp   1
 Largest Abelian subgroup         C1      NOp   1
 Largest concise Abelian subgroup C1      NOp   1
                         Standard orientation:                         
 ---------------------------------------------------------------------
 Center     Atomic      Atomic             Coordinates (Angstroms)
 Number     Number       Type             X           Y           Z
 ---------------------------------------------------------------------
      1         11           0       -1.364150   -0.356120    0.240961
      2         11           0       -4.149358    0.175776   -0.145580
      3         11           0        2.871303   -1.016821   -0.101892
      4         11           0        2.642205    1.197166    0.006511
 ---------------------------------------------------------------------
 Rotational constants (GHZ):           8.0981899           0.6391571           0.5952786
 Leave Link  202 at Thu Oct  5 15:32:42 2023, MaxMem=  1610612736 cpu:               0.0 elap:               0.0
 (Enter /home/sekinelabo/g16/l301.exe)
 Standard basis: 6-311+G(d) (5D, 7F)
 Ernie: Thresh=  0.10000D-02 Tol=  0.10000D-05 Strict=F.
 There are   124 symmetry adapted cartesian basis functions of A   symmetry.
 There are   120 symmetry adapted basis functions of A   symmetry.
   120 basis functions,   200 primitive gaussians,   124 cartesian basis functions
    22 alpha electrons       22 beta electrons
       nuclear repulsion energy        99.1886391767 Hartrees.
 IExCor=  402 DFT=T Ex+Corr=B3LYP ExCW=0 ScaHFX=  0.200000
 ScaDFX=  0.800000  0.720000  1.000000  0.810000 ScalE2=  1.000000  1.000000
 IRadAn=      5 IRanWt=     -1 IRanGd=            0 ICorTp=0 IEmpDi=  4
 NAtoms=    4 NActive=    4 NUniq=    4 SFac= 1.00D+00 NAtFMM=   60 NAOKFM=F Big=F
 Integral buffers will be    131072 words long.
 Raffenetti 2 integral format.
 Two-electron integral symmetry is turned on.
 Leave Link  301 at Thu Oct  5 15:32:42 2023, MaxMem=  1610612736 cpu:               0.4 elap:               0.0
 (Enter /home/sekinelabo/g16/l302.exe)
 NPDir=0 NMtPBC=     1 NCelOv=     1 NCel=       1 NClECP=     1 NCelD=      1
         NCelK=      1 NCelE2=     1 NClLst=     1 CellRange=     0.0.
 One-electron integrals computed using PRISM.
 One-electron integral symmetry used in STVInt
 NBasis=   120 RedAO= T EigKep=  7.45D-06  NBF=   120
 NBsUse=   120 1.00D-06 EigRej= -1.00D+00 NBFU=   120
 Precomputing XC quadrature grid using
 IXCGrd= 4 IRadAn=           5 IRanWt=          -1 IRanGd=           0 AccXCQ= 0.00D+00.
 Generated NRdTot=       0 NPtTot=           0 NUsed=           0 NTot=          32
 NSgBfM=   117   117   117   117   117 MxSgAt=     4 MxSgA2=     4.
 Leave Link  302 at Thu Oct  5 15:32:42 2023, MaxMem=  1610612736 cpu:               1.3 elap:               0.1
 (Enter /home/sekinelabo/g16/l303.exe)
 DipDrv:  MaxL=1.
 Leave Link  303 at Thu Oct  5 15:32:42 2023, MaxMem=  1610612736 cpu:               0.3 elap:               0.0
 (Enter /home/sekinelabo/g16/l401.exe)
 ExpMin= 7.60D-03 ExpMax= 3.62D+04 ExpMxC= 1.21D+03 IAcc=3 IRadAn=         5 AccDes= 0.00D+00
 Harris functional with IExCor=  402 and IRadAn=       5 diagonalized for initial guess.
 HarFok:  IExCor=  402 AccDes= 0.00D+00 IRadAn=         5 IDoV= 1 UseB2=F ITyADJ=14
 ICtDFT=  3500011 ScaDFX=  1.000000  1.000000  1.000000  1.000000
 FoFCou: FMM=F IPFlag=           0 FMFlag=      100000 FMFlg1=           0
         NFxFlg=           0 DoJE=T BraDBF=F KetDBF=T FulRan=T
         wScrn=  0.000000 ICntrl=       500 IOpCl=  0 I1Cent=   200000004 NGrid=           0
         NMat0=    1 NMatS0=      1 NMatT0=    0 NMatD0=    1 NMtDS0=    0 NMtDT0=    0
 Petite list used in FoFCou.
 Harris En= -649.052602198290    
[...]
 DIIS: error= 2.77D-05 at cycle   6 NSaved=   6.
 NSaved= 6 IEnMin= 6 EnMin= -649.178150799775     IErMin= 6 ErrMin= 2.77D-05
 ErrMax= 2.77D-05  0.00D+00 EMaxC= 1.00D-01 BMatC= 1.06D-07 BMatP= 3.73D-06
 IDIUse=1 WtCom= 1.00D+00 WtEn= 0.00D+00
 Coeff-Com: -0.263D-02 0.326D-02 0.349D-01-0.110D-01 0.293D+00 0.683D+00
 Coeff:     -0.263D-02 0.326D-02 0.349D-01-0.110D-01 0.293D+00 0.683D+00
 Gap=     0.043 Goal=   None    Shift=    0.000
 RMSDP=2.73D-05 MaxDP=9.18D-04 DE=-1.40D-05 OVMax= 8.57D-04

 Cycle   7  Pass 1  IDiag  1:
 E= -649.178151138917     Delta-E=       -0.000000339142 Rises=F Damp=F
 DIIS: error= 7.56D-06 at cycle   7 NSaved=   7.
 NSaved= 7 IEnMin= 7 EnMin= -649.178151138917     IErMin= 7 ErrMin= 7.56D-06
 ErrMax= 7.56D-06  0.00D+00 EMaxC= 1.00D-01 BMatC= 1.16D-08 BMatP= 1.06D-07
 IDIUse=1 WtCom= 1.00D+00 WtEn= 0.00D+00
 Coeff-Com: -0.103D-02 0.131D-02-0.454D-02-0.743D-02 0.234D-01 0.266D+00
 Coeff-Com:  0.723D+00
 Coeff:     -0.103D-02 0.131D-02-0.454D-02-0.743D-02 0.234D-01 0.266D+00
 Coeff:      0.723D+00
 Gap=     0.043 Goal=   None    Shift=    0.000
 RMSDP=9.95D-06 MaxDP=3.09D-04 DE=-3.39D-07 OVMax= 2.09D-04

 Cycle   8  Pass 1  IDiag  1:
 E= -649.178151166982     Delta-E=       -0.000000028065 Rises=F Damp=F
 DIIS: error= 3.18D-06 at cycle   8 NSaved=   8.
 NSaved= 8 IEnMin= 8 EnMin= -649.178151166982     IErMin= 8 ErrMin= 3.18D-06
 ErrMax= 3.18D-06  0.00D+00 EMaxC= 1.00D-01 BMatC= 5.21D-10 BMatP= 1.16D-08
 IDIUse=1 WtCom= 1.00D+00 WtEn= 0.00D+00
 Coeff-Com:  0.797D-04-0.106D-03-0.382D-02-0.443D-03-0.212D-01 0.247D-01
 Coeff-Com:  0.185D+00 0.816D+00
 Coeff:      0.797D-04-0.106D-03-0.382D-02-0.443D-03-0.212D-01 0.247D-01
 Coeff:      0.185D+00 0.816D+00
 Gap=     0.043 Goal=   None    Shift=    0.000
 RMSDP=3.57D-06 MaxDP=1.93D-04 DE=-2.81D-08 OVMax= 5.76D-05

 Cycle   9  Pass 1  IDiag  1:
 E= -649.178151168911     Delta-E=       -0.000000001930 Rises=F Damp=F
 DIIS: error= 3.83D-07 at cycle   9 NSaved=   9.
 NSaved= 9 IEnMin= 9 EnMin= -649.178151168911     IErMin= 9 ErrMin= 3.83D-07
 ErrMax= 3.83D-07  0.00D+00 EMaxC= 1.00D-01 BMatC= 1.61D-11 BMatP= 5.21D-10
 IDIUse=1 WtCom= 1.00D+00 WtEn= 0.00D+00
 Coeff-Com:  0.103D-03-0.135D-03-0.396D-03 0.438D-03-0.560D-02-0.142D-01
 Coeff-Com: -0.533D-02 0.108D+00 0.917D+00
 Coeff:      0.103D-03-0.135D-03-0.396D-03 0.438D-03-0.560D-02-0.142D-01
 Coeff:     -0.533D-02 0.108D+00 0.917D+00
 Gap=     0.043 Goal=   None    Shift=    0.000
 RMSDP=4.85D-07 MaxDP=2.27D-05 DE=-1.93D-09 OVMax= 1.91D-05

 Cycle  10  Pass 1  IDiag  1:
 E= -649.178151168994     Delta-E=       -0.000000000082 Rises=F Damp=F
 DIIS: error= 1.29D-07 at cycle  10 NSaved=  10.
 NSaved=10 IEnMin=10 EnMin= -649.178151168994     IErMin=10 ErrMin= 1.29D-07
 ErrMax= 1.29D-07  0.00D+00 EMaxC= 1.00D-01 BMatC= 3.13D-12 BMatP= 1.61D-11
 IDIUse=1 WtCom= 1.00D+00 WtEn= 0.00D+00
 Coeff-Com:  0.429D-04-0.558D-04-0.230D-04 0.163D-03-0.142D-02-0.785D-02
 Coeff-Com: -0.130D-01 0.113D-01 0.380D+00 0.631D+00
 Coeff:      0.429D-04-0.558D-04-0.230D-04 0.163D-03-0.142D-02-0.785D-02
 Coeff:     -0.130D-01 0.113D-01 0.380D+00 0.631D+00
 Gap=     0.043 Goal=   None    Shift=    0.000
 RMSDP=2.55D-07 MaxDP=1.63D-05 DE=-8.23D-11 OVMax= 4.49D-06

 Cycle  11  Pass 1  IDiag  1:
 E= -649.178151169007     Delta-E=       -0.000000000013 Rises=F Damp=F
 DIIS: error= 1.42D-08 at cycle  11 NSaved=  11.
 NSaved=11 IEnMin=11 EnMin= -649.178151169007     IErMin=11 ErrMin= 1.42D-08
 ErrMax= 1.42D-08  0.00D+00 EMaxC= 1.00D-01 BMatC= 6.94D-14 BMatP= 3.13D-12
 IDIUse=1 WtCom= 1.00D+00 WtEn= 0.00D+00
 Coeff-Com: -0.654D-05 0.863D-05 0.387D-04-0.185D-04 0.317D-03 0.412D-03
 Coeff-Com: -0.919D-03-0.600D-02-0.300D-01 0.396D-01 0.997D+00
 Coeff:     -0.654D-05 0.863D-05 0.387D-04-0.185D-04 0.317D-03 0.412D-03
 Coeff:     -0.919D-03-0.600D-02-0.300D-01 0.396D-01 0.997D+00
 Gap=     0.043 Goal=   None    Shift=    0.000
 RMSDP=9.15D-08 MaxDP=4.57D-06 DE=-1.33D-11 OVMax= 1.05D-06

 Cycle  12  Pass 1  IDiag  1:
 E= -649.178151169010     Delta-E=       -0.000000000003 Rises=F Damp=F
 DIIS: error= 6.37D-09 at cycle  12 NSaved=  12.
 NSaved=12 IEnMin=12 EnMin= -649.178151169010     IErMin=12 ErrMin= 6.37D-09
 ErrMax= 6.37D-09  0.00D+00 EMaxC= 1.00D-01 BMatC= 2.41D-15 BMatP= 6.94D-14
 IDIUse=1 WtCom= 1.00D+00 WtEn= 0.00D+00
 Coeff-Com: -0.230D-05 0.300D-05 0.588D-05-0.894D-05 0.105D-03 0.390D-03
 Coeff-Com:  0.336D-03-0.138D-02-0.184D-01-0.211D-01 0.105D+00 0.935D+00
 Coeff:     -0.230D-05 0.300D-05 0.588D-05-0.894D-05 0.105D-03 0.390D-03
 Coeff:      0.336D-03-0.138D-02-0.184D-01-0.211D-01 0.105D+00 0.935D+00
 Gap=     0.043 Goal=   None    Shift=    0.000
 RMSDP=1.30D-08 MaxDP=3.23D-07 DE=-3.07D-12 OVMax= 5.41D-07

 Cycle  13  Pass 1  IDiag  1:
 E= -649.178151169007     Delta-E=        0.000000000003 Rises=F Damp=F
 DIIS: error= 5.68D-09 at cycle  13 NSaved=  13.
 NSaved=13 IEnMin=12 EnMin= -649.178151169010     IErMin=13 ErrMin= 5.68D-09
 ErrMax= 5.68D-09  0.00D+00 EMaxC= 1.00D-01 BMatC= 1.21D-15 BMatP= 2.41D-15
 IDIUse=1 WtCom= 1.00D+00 WtEn= 0.00D+00
 Coeff-Com:  0.231D-06-0.311D-06-0.115D-05-0.883D-06-0.470D-05 0.414D-04
 Coeff-Com:  0.971D-04 0.198D-03-0.882D-03-0.756D-02-0.621D-01 0.276D+00
 Coeff-Com:  0.794D+00
 Coeff:      0.231D-06-0.311D-06-0.115D-05-0.883D-06-0.470D-05 0.414D-04
 Coeff:      0.971D-04 0.198D-03-0.882D-03-0.756D-02-0.621D-01 0.276D+00
 Coeff:      0.794D+00
 Gap=     0.043 Goal=   None    Shift=    0.000
 RMSDP=8.03D-09 MaxDP=2.32D-07 DE= 2.73D-12 OVMax= 1.43D-07

 SCF Done:  E(RB3LYP) =  -649.178151169     A.U. after   13 cycles
            NFock= 13  Conv=0.80D-08     -V/T= 2.0026
 KE= 6.474839609970D+02 PE=-1.773738636774D+03 EE= 3.698415231944D+02
 Leave Link  502 at Thu Oct  5 15:33:03 2023, MaxMem=  1610612736 cpu:              20.7 elap:               1.5
 (Enter /home/sekinelabo/g16/l601.exe)
 Copying SCF densities to generalized density rwf, IOpCl= 0 IROHF=0.

 **********************************************************************

            Population analysis using the SCF Density.

 **********************************************************************

 Orbital symmetries:
       Occupied  (A) (A) (A) (A) (A) (A) (A) (A) (A) (A) (A) (A)
                 (A) (A) (A) (A) (A) (A) (A) (A) (A) (A)
       Virtual   (A) (A) (A) (A) (A) (A) (A) (A) (A) (A) (A) (A)
                 (A) (A) (A) (A) (A) (A) (A) (A) (A) (A) (A) (A)
                 (A) (A) (A) (A) (A) (A) (A) (A) (A) (A) (A) (A)
                 (A) (A) (A) (A) (A) (A) (A) (A) (A) (A) (A) (A)
                 (A) (A) (A) (A) (A) (A) (A) (A) (A) (A) (A) (A)
                 (A) (A) (A) (A) (A) (A) (A) (A) (A) (A) (A) (A)
                 (A) (A) (A) (A) (A) (A) (A) (A) (A) (A) (A) (A)
                 (A) (A) (A) (A) (A) (A) (A) (A) (A) (A) (A) (A)
                 (A) (A)
 The electronic state is 1-A.
 Alpha  occ. eigenvalues --  -38.45394 -38.45124 -38.44532 -38.44154  -2.21212
 Alpha  occ. eigenvalues --   -2.20870  -2.20629  -2.20060  -1.15278  -1.14923
 Alpha  occ. eigenvalues --   -1.14864  -1.14811  -1.14545  -1.14544  -1.14484
 Alpha  occ. eigenvalues --   -1.14172  -1.14127  -1.13597  -1.13592  -1.13284
 Alpha  occ. eigenvalues --   -0.15836  -0.11411
 Alpha virt. eigenvalues --   -0.07141  -0.04309  -0.03366  -0.02661  -0.01428
 Alpha virt. eigenvalues --   -0.01298  -0.00297  -0.00010   0.00227   0.00355
 Alpha virt. eigenvalues --    0.00854   0.01066   0.01253   0.01443   0.01653
 Alpha virt. eigenvalues --    0.01674   0.01950   0.02075   0.02257   0.02271
 Alpha virt. eigenvalues --    0.02359   0.02577   0.02671   0.02922   0.03358
 Alpha virt. eigenvalues --    0.03677   0.04097   0.04244   0.04896   0.05734
 Alpha virt. eigenvalues --    0.06511   0.06978   0.07535   0.07659   0.08119
 Alpha virt. eigenvalues --    0.08548   0.09016   0.09858   0.10093   0.10655
 Alpha virt. eigenvalues --    0.11399   0.12389   0.12881   0.13866   0.15705
 Alpha virt. eigenvalues --    0.17495   0.26584   0.28780   0.29986   0.30534
 Alpha virt. eigenvalues --    0.31685   0.31742   0.34237   0.35183   0.35876
 Alpha virt. eigenvalues --    0.36149   0.37892   0.38613   0.40399   0.41688
 Alpha virt. eigenvalues --    0.42616   0.42945   0.43138   0.43977   0.44208
 Alpha virt. eigenvalues --    0.44982   0.45444   0.46318   0.46463   0.47637
 Alpha virt. eigenvalues --    0.48849   0.50512   0.53949   0.57489   0.60461
 Alpha virt. eigenvalues --    0.62136   0.74856   0.90560   2.03636   2.08400
 Alpha virt. eigenvalues --    2.12530   2.19575   4.41434   4.42795   4.43744
 Alpha virt. eigenvalues --    4.44212   4.44291   4.44819   4.48868   4.49514
 Alpha virt. eigenvalues --    4.51239   4.52305   4.64569   4.80562  96.23389
 Alpha virt. eigenvalues --   96.29849  96.34188  96.43540
          Condensed to atoms (all electrons):
               1          2          3          4
     1  Na  12.511301  -0.356285  -0.048182  -0.172971
     2  Na  -0.356285  10.972740  -0.055339  -0.095149
     3  Na  -0.048182  -0.055339  10.518145   0.304629
     4  Na  -0.172971  -0.095149   0.304629  10.844407
 Mulliken charges:
               1
     1  Na  -0.933864
     2  Na   0.534032
     3  Na   0.280747
     4  Na   0.119084
 Sum of Mulliken charges =  -0.00000
 Mulliken charges with hydrogens summed into heavy atoms:
               1
     1  Na  -0.933864
     2  Na   0.534032
     3  Na   0.280747
     4  Na   0.119084
 Electronic spatial extent (au):  <R**2>=           1059.9840
 Charge=              0.0000 electrons
 Dipole moment (field-independent basis, Debye):
    X=             -1.4809    Y=             -0.1466    Z=             -0.3504  Tot=              1.5288
 Quadrupole moment (field-independent basis, Debye-Ang):
   XX=            -47.0673   YY=            -30.1877   ZZ=            -41.7454
   XY=              0.4812   XZ=             -1.4576   YZ=             -0.2482
 Traceless Quadrupole moment (field-independent basis, Debye-Ang):
   XX=             -7.4005   YY=              9.4791   ZZ=             -2.0786
   XY=              0.4812   XZ=             -1.4576   YZ=             -0.2482
 Octapole moment (field-independent basis, Debye-Ang**2):
  XXX=             -1.9740  YYY=              7.8823  ZZZ=             -0.2769  XYY=            -23.0126
  XXY=            -18.1759  XXZ=             -8.5432  XZZ=             -1.3492  YZZ=              1.5293
  YYZ=             -3.4214  XYZ=              4.6967
 Hexadecapole moment (field-independent basis, Debye-Ang**3):
 XXXX=          -1420.2910 YYYY=           -398.5554 ZZZZ=           -198.5591 XXXY=             10.6821
 XXXZ=            -37.0186 YYYX=             -0.2760 YYYZ=             -6.5273 ZZZX=             -6.2550
 ZZZY=             -1.1736 XXYY=           -270.2315 XXZZ=           -274.4984 YYZZ=           -105.5096
 XXYZ=              3.0444 YYXZ=              0.3102 ZZXY=              0.5969
 N-N= 1.072350014134D+02 E-N=-1.773738637101D+03  KE= 6.474839609970D+02
 No NMR shielding tensors so no spin-rotation constants.
 Leave Link  601 at Thu Oct  5 15:33:03 2023, MaxMem=  1610612736 cpu:               0.9 elap:               0.1
 (Enter /home/sekinelabo/g16/l701.exe)
 ... and contract with generalized density number  0.
 Compute integral first derivatives.
 Leave Link  701 at Thu Oct  5 15:33:03 2023, MaxMem=  1610612736 cpu:               1.2 elap:               0.1
 (Enter /home/sekinelabo/g16/l702.exe)
 L702 exits ... SP integral derivatives will be done elsewhere.
 Leave Link  702 at Thu Oct  5 15:33:03 2023, MaxMem=  1610612736 cpu:               0.5 elap:               0.0
 (Enter /home/sekinelabo/g16/l703.exe)
 Integral derivatives from FoFJK, PRISM(SPDF).
 Compute integral first derivatives, UseDBF=F ICtDFT=           0.
 Calling FoFJK, ICntrl=      2127 FMM=F ISym2X=0 I1Cent= 0 IOpClX= 0 NMat=1 NMatS=1 NMatT=0.
 FoFJK:  IHMeth= 1 ICntrl=    2127 DoSepK=F KAlg= 0 I1Cent=           0 FoldK=F
 IRaf=         0 NMat=       1 IRICut=       1 DoRegI=T DoRafI=F ISym2E= 0 IDoP0=0 IntGTp=1.
 FoFCou: FMM=F IPFlag=           0 FMFlag=      100000 FMFlg1=         800
         NFxFlg=           0 DoJE=F BraDBF=F KetDBF=F FulRan=T
         wScrn=  0.000000 ICntrl=      2127 IOpCl=  0 I1Cent=           0 NGrid=           0
         NMat0=    1 NMatS0=      1 NMatT0=    0 NMatD0=    1 NMtDS0=    0 NMtDT0=    0
 Symmetry not used in FoFCou.
 Leave Link  703 at Thu Oct  5 15:33:03 2023, MaxMem=  1610612736 cpu:               6.5 elap:               0.4
 (Enter /home/sekinelabo/g16/l716.exe)
 Dipole        =-5.82613662D-01-5.76745937D-02-1.37850165D-01
 ***** Axes restored to original set *****
 -------------------------------------------------------------------
 Center     Atomic                   Forces (Hartrees/Bohr)
 Number     Number              X              Y              Z
 -------------------------------------------------------------------
      1       11           0.021095774   -0.001060876    0.014390240
      2       11          -0.021637325    0.001677664   -0.023263888
      3       11          -0.000410011   -0.005671887    0.006636890
      4       11           0.000951562    0.005055099    0.002236757
 -------------------------------------------------------------------
 Cartesian Forces:  Max     0.023263888 RMS     0.012156213
 Z-matrix is all fixed cartesians, so copy forces.
 Force constants in Cartesian coordinates: 
                1             2             3             4             5 
      1  0.970191D-01
      2  0.295168D-03  0.845194D-02
      3  0.569763D-01  0.000000D+00  0.116636D+00
      4 -0.819644D-01  0.000000D+00 -0.639721D-01  0.747049D-01
      5 -0.261657D-04 -0.435173D-03  0.000000D+00  0.000000D+00  0.280226D-03
      6 -0.569763D-01  0.000000D+00 -0.794405D-01  0.639721D-01  0.000000D+00
      7 -0.150413D-01 -0.538803D-04  0.699576D-02  0.725948D-02 -0.104971D-03
      8 -0.231763D-03 -0.687351D-02  0.000000D+00  0.000000D+00  0.159239D-03
      9 -0.215985D-03 -0.659846D-02 -0.371958D-01  0.000000D+00  0.000000D+00
     10 -0.134768D-04 -0.241287D-03  0.000000D+00  0.000000D+00  0.131137D-03
     11 -0.372393D-04 -0.114326D-02  0.000000D+00  0.000000D+00 -0.429247D-05
     12  0.215985D-03  0.659846D-02  0.000000D+00  0.000000D+00  0.000000D+00
                6             7             8             9            10 
      6  0.794405D-01
      7 -0.699576D-02  0.784942D-02
      8  0.000000D+00  0.723118D-03  0.240044D-01
      9  0.000000D+00  0.288363D-03  0.880963D-02  0.433509D-01
     10  0.000000D+00 -0.676459D-04 -0.491355D-03 -0.723774D-04  0.811227D-04
     11  0.000000D+00 -0.564266D-03 -0.172902D-01 -0.221117D-02  0.601505D-03
     12  0.000000D+00 -0.288363D-03 -0.880963D-02 -0.615512D-02  0.723774D-04
               11            12 
     11  0.184377D-01
     12  0.221117D-02  0.615512D-02
 Leave Link  716 at Thu Oct  5 15:33:03 2023, MaxMem=  1610612736 cpu:               0.3 elap:               0.0
 (Enter /home/sekinelabo/g16/l103.exe)

 GradGradGradGradGradGradGradGradGradGradGradGradGradGradGradGradGradGrad
 Berny optimization.
 Search for a local minimum.
 Step number   1 out of a maximum of    2
 All quantities printed in internal units (Hartrees-Bohrs-Radians)
 Second derivative matrix not updated -- first step.
 The second derivative matrix:
                          X1        Y1        Z1        X2        Y2
           X1           0.09702
           Y1           0.00030   0.00845
           Z1           0.05698   0.00000   0.11664
           X2          -0.08196   0.00000  -0.06397   0.07470
           Y2          -0.00003  -0.00044  -0.00000  -0.00000   0.00028
           Z2          -0.05698   0.00000  -0.07944   0.06397  -0.00000
           X3          -0.01504  -0.00005   0.00700   0.00726  -0.00010
           Y3          -0.00023  -0.00687   0.00000  -0.00000   0.00016
           Z3          -0.00022  -0.00660  -0.03720  -0.00000   0.00000
           X4          -0.00001  -0.00024  -0.00000   0.00000   0.00013
           Y4          -0.00004  -0.00114   0.00000  -0.00000  -0.00000
           Z4           0.00022   0.00660  -0.00000  -0.00000  -0.00000
                          Z2        X3        Y3        Z3        X4
           Z2           0.07944
           X3          -0.00700   0.00785
           Y3           0.00000   0.00072   0.02400
           Z3           0.00000   0.00029   0.00881   0.04335
           X4          -0.00000  -0.00007  -0.00049  -0.00007   0.00008
           Y4           0.00000  -0.00056  -0.01729  -0.00221   0.00060
           Z4          -0.00000  -0.00029  -0.00881  -0.00616   0.00007
                          Y4        Z4
           Y4           0.01844
           Z4           0.00221   0.00616
 ITU=  0
     Eigenvalues ---    0.00069   0.01510   0.03472   0.04824   0.08157
     Eigenvalues ---    0.29610
 Quadratic step=3.988D+00 exceeds max=3.000D-01 adjusted using Lamda=-1.946D-02.
 Angle between NR and scaled steps=  57.75 degrees.
 Angle between quadratic step and forces=  46.20 degrees.
 Linear search not attempted -- first point.
 B after Tr=    -0.000000    0.000000    0.000000
         Rot=    1.000000    0.000000   -0.000000    0.000000 Ang=   0.00 deg.
 Variable       Old X    -DE/DX   Delta X   Delta X   Delta X     New X
                                 (Linear)    (Quad)   (Total)
    X1        0.00000   0.02110   0.00000   0.04658   0.04658   0.04658
    Y1        0.00000  -0.00106   0.00000  -0.05402  -0.05402  -0.05402
    Z1        0.00000   0.01439   0.00000  -0.02502  -0.02502  -0.02502
    X2       -3.03635  -0.02164   0.00000  -0.09159  -0.09159  -3.12794
    Y2        0.00000   0.00168   0.00000   0.08453   0.08453   0.08453
    Z2       -3.15081  -0.02326   0.00000  -0.16906  -0.16906  -3.31987
    X3        0.00000  -0.00041   0.00000   0.00274   0.00274   0.00274
    Y3        0.00000  -0.00567   0.00000  -0.11225  -0.11225  -0.11225
    Z3        5.66703   0.00664   0.00000   0.11204   0.11204   5.77907
    X4       -0.21215   0.00095   0.00000   0.04228   0.04228  -0.16988
    Y4       -6.48142   0.00506   0.00000   0.08173   0.08173  -6.39968
    Z4        4.53629   0.00224   0.00000   0.08203   0.08203   4.61832
         Item               Value     Threshold  Converged?
 Maximum Force            0.023264     0.000450     NO 
 RMS     Force            0.012156     0.000300     NO 
 Maximum Displacement     0.169056     0.001800     NO 
 RMS     Displacement     0.086691     0.001200     NO 
 Predicted change in Energy=-5.253542D-03
 GradGradGradGradGradGradGradGradGradGradGradGradGradGradGradGradGradGrad

 Leave Link  103 at Thu Oct  5 15:33:03 2023, MaxMem=  1610612736 cpu:               0.2 elap:               0.0
 (Enter /home/sekinelabo/g16/l9999.exe)
 1\1\GINC-SEKINELABO-XA7R-R37\Force\RB3LYP\6-311+G(d)\Na4\SEKINELABO\05
 -Oct-2023\0\\#p B3LYP/6-311+g(d) force\\\0,1\Na,0.,0.,0.\Na,-1.6067671
 313,0.,-1.6673389364\Na,0.,0.,2.9988616383\Na,-0.1122671548,-3.4298175
 456,2.4005015373\\Version=ES64L-G16RevB.01\State=1-A\HF=-649.1781512\R
 MSD=8.026e-09\RMSF=1.216e-02\Dipole=-0.0025217,-0.3240013,0.5067391\Qu
 adrupole=-1.035531,4.4557015,-3.4201705,1.2663651,0.5911441,4.9230208\
 PG=C01 [X(Na4)]\\@


 CHARLIE BROWN.."I CAN'T GET THAT STUPID KITE IN THE
 AIR... I CAN'T... I C A N N O T..."
 LUCY.."OH COME NOW CHARLIE BROWN...THAT'S NO WAY TO TALK...
 THE TROUBLE WITH YOU IS YOU DON'T BELIEVE IN YOURSELF... YOU
 DON'T BELIEVE IN YOUR OWN ABILITIES...  YOU'VE GOT TO SAY TO
 YOURSELF...'I BELIEVE I CAN FLY THIS KITE.'... GO AHEAD SAY
 IT...."
 CHARLIE BROWN.."I BELIEVE THAT I CAN FLY THIS STUPID
 KITE.....I BELIEVE THAT I CAN FLY THIS KITE........
 I  A C T U A L L Y  B E L I E V E  T H A T  I  C A N ******"
 LUCY.."I'LL BET YOU TEN-TO-ONE YOU'RE WRONG......."    SCHULZ
 Job cpu time:       0 days  0 hours  0 minutes 37.0 seconds.
 Elapsed time:       0 days  0 hours  0 minutes  2.5 seconds.
 File lengths (MBytes):  RWF=     10 Int=      0 D2E=      0 Chk=      2 Scr=      1
 Normal termination of Gaussian 16 at Thu Oct  5 15:33:03 2023.
