 Entering Gaussian System, Link 0=g16
 Initial command:
 /home/sekinelabo/g16/l1.exe "/home/sekinelabo/g16temp/Gau-3246447.inp" -scrdir="/home/sekinelabo/g16temp/"
 Entering Link 1 = /home/sekinelabo/g16/l1.exe PID=   3246449.
  
 Copyright (c) 1988-2017, Gaussian, Inc.  All Rights Reserved.
  
 This is part of the Gaussian(R) 16 program.  It is based on
 the Gaussian(R) 09 system (copyright 2009, Gaussian, Inc.),
 the Gaussian(R) 03 system (copyright 2003, Gaussian, Inc.),
 the Gaussian(R) 98 system (copyright 1998, Gaussian, Inc.),
 the Gaussian(R) 94 system (copyright 1995, Gaussian, Inc.),
 the Gaussian 92(TM) system (copyright 1992, Gaussian, Inc.),
 the Gaussian 90(TM) system (copyright 1990, Gaussian, Inc.),
 the Gaussian 88(TM) system (copyright 1988, Gaussian, Inc.),
 the Gaussian 86(TM) system (copyright 1986, Carnegie Mellon
 University), and the Gaussian 82(TM) system (copyright 1983,
 Carnegie Mellon University). Gaussian is a federally registered
 trademark of Gaussian, Inc.
  
 This software contains proprietary and confidential information,
 including trade secrets, belonging to Gaussian, Inc.
  
 This software is provided under written license and may be
 used, copied, transmitted, or stored only in accord with that
 written license.
  
 The following legend is applicable only to US Government
 contracts under FAR:
  
                    RESTRICTED RIGHTS LEGEND
  
 Use, reproduction and disclosure by the US Government is
 subject to restrictions as set forth in subparagraphs (a)
 and (c) of the Commercial Computer Software - Restricted
 Rights clause in FAR 52.227-19.
  
 Gaussian, Inc.
 340 Quinnipiac St., Bldg. 40, Wallingford CT 06492
  
  
 ---------------------------------------------------------------
 Warning -- This program may not be used in any manner that
 competes with the business of Gaussian, Inc. or will provide
 assistance to any competitor of Gaussian, Inc.  The licensee
 of this program is prohibited from giving any competitor of
 Gaussian, Inc. access to this program.  By using this program,
 the user acknowledges that Gaussian, Inc. is engaged in the
 business of creating and licensing software in the field of
 computational chemistry and represents and warrants to the
 licensee that it is not a competitor of Gaussian, Inc. and that
 it will not use this program in any manner prohibited above.
 ---------------------------------------------------------------
  

 Cite this work as:
 Gaussian 16, Revision B.01,
 M. J. Frisch, G. W. Trucks, H. B. Schlegel, G. E. Scuseria, 
 M. A. Robb, J. R. Cheeseman, G. Scalmani, V. Barone, 
 G. A. Petersson, H. Nakatsuji, X. Li, M. Caricato, A. V. Marenich, 
 J. Bloino, B. G. Janesko, R. Gomperts, B. Mennucci, H. P. Hratchian, 
 J. V. Ortiz, A. F. Izmaylov, J. L. Sonnenberg, D. Williams-Young, 
 F. Ding, F. Lipparini, F. Egidi, J. Goings, B. Peng, A. Petrone, 
 T. Henderson, D. Ranasinghe, V. G. Zakrzewski, J. Gao, N. Rega, 
 G. Zheng, W. Liang, M. Hada, M. Ehara, K. Toyota, R. Fukuda, 
 J. Hasegawa, M. Ishida, T. Nakajima, Y. Honda, O. Kitao, H. Nakai, 
 T. Vreven, K. Throssell, J. A. Montgomery, Jr., J. E. Peralta, 
 F. Ogliaro, M. J. Bearpark, J. J. Heyd, E. N. Brothers, K. N. Kudin, 
 V. N. Staroverov, T. A. Keith, R. Kobayashi, J. Normand, 
 K. Raghavachari, A. P. Rendell, J. C. Burant, S. S. Iyengar, 
 J. Tomasi, M. Cossi, J. M. Millam, M. Klene, C. Adamo, R. Cammi, 
 J. W. Ochterski, R. L. Martin, K. Morokuma, O. Farkas, 
 J. B. Foresman, and D. J. Fox, Gaussian, Inc., Wallingford CT, 2016.
 
 ******************************************
 Gaussian 16:  ES64L-G16RevB.01 20-Dec-2017
                23-Sep-2023 
 ******************************************
 %NProcShared=16
 Will use up to   16 processors via shared memory.
 %mem=12GB
 %Chk=checkpoint.chk
 -------------------------
 #p B3LYP/6-311+g(d) force
 -------------------------
 1/10=7,30=1,38=1/1,3;
 2/12=2,17=6,18=5,40=1/2;
 3/5=4,6=6,7=11,11=2,25=1,30=1,71=1,74=-5/1,2,3;
 4//1;
 5/5=2,38=5/2;
 6/7=2,8=2,9=2,10=2,28=1/1;
 7/29=1/1,2,3,16;
 1/10=7,30=1/3;
 99//99;
 Leave Link    1 at Sat Sep 23 10:10:58 2023, MaxMem=  1610612736 cpu:               0.5 elap:               0.0
 (Enter /home/sekinelabo/g16/l101.exe)


 Symbolic Z-matrix:
 Charge =  0 Multiplicity = 1
 Na                    0.        0.        0. 
 Na                   -1.53129   0.       -2.29657 
 Na                    0.        0.        5.13869 
 Na                   -4.04459  -1.33954   7.77905 
 
 ITRead=  0  0  0  0
 MicOpt= -1 -1 -1 -1
 NAtoms=      4 NQM=        4 NQMF=       0 NMMI=      0 NMMIF=      0
                NMic=       0 NMicF=      0.
                    Isotopes and Nuclear Properties:
 (Nuclear quadrupole moments (NQMom) in fm**2, nuclear magnetic moments (NMagM)
  in nuclear magnetons)

  Atom         1           2           3           4
 IAtWgt=          23          23          23          23
 AtmWgt=  22.9897697  22.9897697  22.9897697  22.9897697
 NucSpn=           3           3           3           3
 AtZEff=  -0.0000000  -0.0000000  -0.0000000  -0.0000000
 NQMom=   10.4000000  10.4000000  10.4000000  10.4000000
 NMagM=    2.2175200   2.2175200   2.2175200   2.2175200
 AtZNuc=  11.0000000  11.0000000  11.0000000  11.0000000
 Leave Link  101 at Sat Sep 23 10:10:58 2023, MaxMem=  1610612736 cpu:               1.6 elap:               0.1
 (Enter /home/sekinelabo/g16/l103.exe)

 GradGradGradGradGradGradGradGradGradGradGradGradGradGradGradGradGradGrad
 Berny optimization.
 Initialization pass.
 Trust Radius=3.00D-01 FncErr=1.00D-07 GrdErr=1.00D-07 EigMax=2.50D+02 EigMin=1.00D-04
 Number of steps in this run=      2 maximum allowed number of steps=      2.
 GradGradGradGradGradGradGradGradGradGradGradGradGradGradGradGradGradGrad

 Leave Link  103 at Sat Sep 23 10:10:58 2023, MaxMem=  1610612736 cpu:               0.2 elap:               0.0
 (Enter /home/sekinelabo/g16/l202.exe)
                          Input orientation:                          
 ---------------------------------------------------------------------
 Center     Atomic      Atomic             Coordinates (Angstroms)
 Number     Number       Type             X           Y           Z
 ---------------------------------------------------------------------
      1         11           0        0.000000    0.000000    0.000000
      2         11           0       -1.531291    0.000000   -2.296567
      3         11           0        0.000000    0.000000    5.138686
      4         11           0       -4.044593   -1.339540    7.779051
 ---------------------------------------------------------------------
                    Distance matrix (angstroms):
                    1          2          3          4
     1  Na   0.000000
     2  Na   2.760267   0.000000
     3  Na   5.138686   7.591300   0.000000
     4  Na   8.869427  10.470393   5.012447   0.000000
 Stoichiometry    Na4
 Framework group  C1[X(Na4)]
 Deg. of freedom     6
 Full point group                 C1      NOp   1
 Largest Abelian subgroup         C1      NOp   1
 Largest concise Abelian subgroup C1      NOp   1
                         Standard orientation:                         
 ---------------------------------------------------------------------
 Center     Atomic      Atomic             Coordinates (Angstroms)
 Number     Number       Type             X           Y           Z
 ---------------------------------------------------------------------
      1         11           0        2.924998    0.722942    0.166208
      2         11           0        4.793119   -1.291334   -0.101918
      3         11           0       -2.042820    2.009844   -0.099800
      4         11           0       -5.675296   -1.441451    0.035510
 ---------------------------------------------------------------------
 Rotational constants (GHZ):           2.6305652           0.3234620           0.2884154
 Leave Link  202 at Sat Sep 23 10:10:58 2023, MaxMem=  1610612736 cpu:               0.0 elap:               0.0
 (Enter /home/sekinelabo/g16/l301.exe)
 Standard basis: 6-311+G(d) (5D, 7F)
 Ernie: Thresh=  0.10000D-02 Tol=  0.10000D-05 Strict=F.
 There are   124 symmetry adapted cartesian basis functions of A   symmetry.
 There are   120 symmetry adapted basis functions of A   symmetry.
   120 basis functions,   200 primitive gaussians,   124 cartesian basis functions
    22 alpha electrons       22 beta electrons
       nuclear repulsion energy        70.2012740867 Hartrees.
 IExCor=  402 DFT=T Ex+Corr=B3LYP ExCW=0 ScaHFX=  0.200000
 ScaDFX=  0.800000  0.720000  1.000000  0.810000 ScalE2=  1.000000  1.000000
 IRadAn=      5 IRanWt=     -1 IRanGd=            0 ICorTp=0 IEmpDi=  4
 NAtoms=    4 NActive=    4 NUniq=    4 SFac= 1.00D+00 NAtFMM=   60 NAOKFM=F Big=F
 Integral buffers will be    131072 words long.
 Raffenetti 2 integral format.
 Two-electron integral symmetry is turned on.
 Leave Link  301 at Sat Sep 23 10:10:58 2023, MaxMem=  1610612736 cpu:               0.4 elap:               0.0
 (Enter /home/sekinelabo/g16/l302.exe)
 NPDir=0 NMtPBC=     1 NCelOv=     1 NCel=       1 NClECP=     1 NCelD=      1
         NCelK=      1 NCelE2=     1 NClLst=     1 CellRange=     0.0.
 One-electron integrals computed using PRISM.
 One-electron integral symmetry used in STVInt
 NBasis=   120 RedAO= T EigKep=  1.93D-05  NBF=   120
 NBsUse=   120 1.00D-06 EigRej= -1.00D+00 NBFU=   120
 Precomputing XC quadrature grid using
 IXCGrd= 4 IRadAn=           5 IRanWt=          -1 IRanGd=           0 AccXCQ= 0.00D+00.
 Generated NRdTot=       0 NPtTot=           0 NUsed=           0 NTot=          32
 NSgBfM=   111   111   111   111   111 MxSgAt=     4 MxSgA2=     4.
 Leave Link  302 at Sat Sep 23 10:10:58 2023, MaxMem=  1610612736 cpu:               1.3 elap:               0.1
 (Enter /home/sekinelabo/g16/l303.exe)
 DipDrv:  MaxL=1.
 Leave Link  303 at Sat Sep 23 10:10:58 2023, MaxMem=  1610612736 cpu:               0.3 elap:               0.0
 (Enter /home/sekinelabo/g16/l401.exe)
 ExpMin= 7.60D-03 ExpMax= 3.62D+04 ExpMxC= 1.21D+03 IAcc=3 IRadAn=         5 AccDes= 0.00D+00
 Harris functional with IExCor=  402 and IRadAn=       5 diagonalized for initial guess.
 HarFok:  IExCor=  402 AccDes= 0.00D+00 IRadAn=         5 IDoV= 1 UseB2=F ITyADJ=14
 ICtDFT=  3500011 ScaDFX=  1.000000  1.000000  1.000000  1.000000
 FoFCou: FMM=F IPFlag=           0 FMFlag=      100000 FMFlg1=           0
         NFxFlg=           0 DoJE=T BraDBF=F KetDBF=T FulRan=T
         wScrn=  0.000000 ICntrl=       500 IOpCl=  0 I1Cent=   200000004 NGrid=           0
         NMat0=    1 NMatS0=      1 NMatT0=    0 NMatD0=    1 NMtDS0=    0 NMtDT0=    0
 Petite list used in FoFCou.
 Harris En= -649.049581074841    
 JPrj=0 DoOrth=F DoCkMO=F.
 Leave Link  401 at Sat Sep 23 10:10:58 2023, MaxMem=  1610612736 cpu:               1.9 elap:               0.1
 (Enter /home/sekinelabo/g16/l502.exe)
 Keep R1 ints in memory in canonical form, NReq=41581754.
 FoFCou: FMM=F IPFlag=           0 FMFlag=           0 FMFlg1=           0
         NFxFlg=           0 DoJE=F BraDBF=F KetDBF=F FulRan=T
         wScrn=  0.000000 ICntrl=       600 IOpCl=  0 I1Cent=           0 NGrid=           0
         NMat0=    1 NMatS0=   7260 NMatT0=    0 NMatD0=    1 NMtDS0=    0 NMtDT0=    0
 Symmetry not used in FoFCou.
 Two-electron integral symmetry not used.
 Closed shell SCF:
 Using DIIS extrapolation, IDIIS=  1040.
 NGot=  1610612736 LenX=  1584221388 LenY=  1584205571
 Requested convergence on RMS density matrix=1.00D-08 within 128 cycles.
 Requested convergence on MAX density matrix=1.00D-06.
 Requested convergence on             energy=1.00D-06.
 No special actions if energy rises.

 Cycle   1  Pass 1  IDiag  1:
 E= -649.161941988469    
 DIIS: error= 1.30D-02 at cycle   1 NSaved=   1.
 NSaved= 1 IEnMin= 1 EnMin= -649.161941988469     IErMin= 1 ErrMin= 1.30D-02
 ErrMax= 1.30D-02  0.00D+00 EMaxC= 1.00D-01 BMatC= 2.65D-02 BMatP= 2.65D-02
 IDIUse=3 WtCom= 8.70D-01 WtEn= 1.30D-01
 Coeff-Com:  0.100D+01
 Coeff-En:   0.100D+01
 Coeff:      0.100D+01
 Gap=     0.035 Goal=   None    Shift=    0.000
 GapD=    0.035 DampG=0.250 DampE=0.500 DampFc=0.2500 IDamp=-1.
 Damping current iteration by 2.50D-01
 RMSDP=3.37D-03 MaxDP=9.23D-02              OVMax= 1.65D-01

 Cycle   2  Pass 1  IDiag  1:
 E= -649.166052581741     Delta-E=       -0.004110593272 Rises=F Damp=T
 DIIS: error= 9.02D-03 at cycle   2 NSaved=   2.
 NSaved= 2 IEnMin= 2 EnMin= -649.166052581741     IErMin= 2 ErrMin= 9.02D-03
 ErrMax= 9.02D-03  0.00D+00 EMaxC= 1.00D-01 BMatC= 1.02D-02 BMatP= 2.65D-02
 IDIUse=3 WtCom= 9.10D-01 WtEn= 9.02D-02
 Coeff-Com: -0.129D+01 0.229D+01
 Coeff-En:   0.000D+00 0.100D+01
 Coeff:     -0.117D+01 0.217D+01
 Gap=     0.034 Goal=   None    Shift=    0.000
 RMSDP=2.39D-03 MaxDP=1.17D-01 DE=-4.11D-03 OVMax= 2.84D-01

 Cycle   3  Pass 1  IDiag  1:
 E= -649.163840437241     Delta-E=        0.002212144499 Rises=F Damp=F
 DIIS: error= 3.75D-03 at cycle   3 NSaved=   3.
 NSaved= 3 IEnMin= 2 EnMin= -649.166052581741     IErMin= 3 ErrMin= 3.75D-03
 ErrMax= 3.75D-03  0.00D+00 EMaxC= 1.00D-01 BMatC= 1.37D-03 BMatP= 1.02D-02
 IDIUse=3 WtCom= 9.63D-01 WtEn= 3.75D-02
 Coeff-Com: -0.476D+00 0.837D+00 0.639D+00
 Coeff-En:   0.000D+00 0.603D+00 0.397D+00
 Coeff:     -0.458D+00 0.829D+00 0.630D+00
 Gap=     0.027 Goal=   None    Shift=    0.000
 RMSDP=4.52D-03 MaxDP=2.96D-01 DE= 2.21D-03 OVMax= 4.42D-01

 Cycle   4  Pass 1  IDiag  1:
 E= -649.141588864247     Delta-E=        0.022251572994 Rises=F Damp=F
 DIIS: error= 5.54D-03 at cycle   4 NSaved=   4.
 NSaved= 4 IEnMin= 2 EnMin= -649.166052581741     IErMin= 3 ErrMin= 3.75D-03
 ErrMax= 5.54D-03  0.00D+00 EMaxC= 1.00D-01 BMatC= 3.76D-03 BMatP= 1.37D-03
 IDIUse=3 WtCom= 1.18D-01 WtEn= 8.82D-01
 Coeff-Com: -0.181D-01 0.460D-01 0.614D+00 0.358D+00
 Coeff-En:   0.000D+00 0.000D+00 0.672D+00 0.328D+00
 Coeff:     -0.214D-02 0.544D-02 0.665D+00 0.332D+00
 Gap=     0.032 Goal=   None    Shift=    0.000
 RMSDP=2.56D-03 MaxDP=1.74D-01 DE= 2.23D-02 OVMax= 2.42D-01

 Cycle   5  Pass 1  IDiag  1:
 E= -649.173510073295     Delta-E=       -0.031921209048 Rises=F Damp=F
 DIIS: error= 1.37D-03 at cycle   5 NSaved=   5.
 NSaved= 5 IEnMin= 5 EnMin= -649.173510073295     IErMin= 5 ErrMin= 1.37D-03
 ErrMax= 1.37D-03  0.00D+00 EMaxC= 1.00D-01 BMatC= 1.80D-04 BMatP= 1.37D-03
 IDIUse=3 WtCom= 9.86D-01 WtEn= 1.37D-02
 Coeff-Com: -0.774D-02 0.905D-02 0.251D+00-0.155D-01 0.763D+00
 Coeff-En:   0.000D+00 0.000D+00 0.198D+00 0.000D+00 0.802D+00
 Coeff:     -0.763D-02 0.893D-02 0.250D+00-0.153D-01 0.764D+00
 Gap=     0.035 Goal=   None    Shift=    0.000
 RMSDP=5.30D-04 MaxDP=3.49D-02 DE=-3.19D-02 OVMax= 5.88D-02

 Cycle   6  Pass 1  IDiag  1:
 E= -649.174930117191     Delta-E=       -0.001420043895 Rises=F Damp=F
 DIIS: error= 7.24D-05 at cycle   6 NSaved=   6.
 NSaved= 6 IEnMin= 6 EnMin= -649.174930117191     IErMin= 6 ErrMin= 7.24D-05
 ErrMax= 7.24D-05  0.00D+00 EMaxC= 1.00D-01 BMatC= 1.20D-06 BMatP= 1.80D-04
 IDIUse=1 WtCom= 1.00D+00 WtEn= 0.00D+00
 Coeff-Com: -0.284D-02 0.343D-02 0.536D-01-0.169D-01 0.176D+00 0.787D+00
 Coeff:     -0.284D-02 0.343D-02 0.536D-01-0.169D-01 0.176D+00 0.787D+00
 Gap=     0.036 Goal=   None    Shift=    0.000
 RMSDP=5.55D-05 MaxDP=1.76D-03 DE=-1.42D-03 OVMax= 2.84D-03

 Cycle   7  Pass 1  IDiag  1:
 E= -649.174926680820     Delta-E=        0.000003436371 Rises=F Damp=F
 DIIS: error= 9.10D-05 at cycle   7 NSaved=   7.
 NSaved= 7 IEnMin= 6 EnMin= -649.174930117191     IErMin= 6 ErrMin= 7.24D-05
 ErrMax= 9.10D-05  0.00D+00 EMaxC= 1.00D-01 BMatC= 9.50D-07 BMatP= 1.20D-06
 IDIUse=1 WtCom= 1.00D+00 WtEn= 0.00D+00
 Coeff-Com: -0.360D-03 0.453D-03 0.259D-01-0.101D-01 0.551D-01 0.341D+00
 Coeff-Com:  0.588D+00
 Coeff:     -0.360D-03 0.453D-03 0.259D-01-0.101D-01 0.551D-01 0.341D+00
 Coeff:      0.588D+00
 Gap=     0.036 Goal=   None    Shift=    0.000
 RMSDP=3.04D-05 MaxDP=1.76D-03 DE= 3.44D-06 OVMax= 2.91D-03

 Cycle   8  Pass 1  IDiag  1:
 E= -649.174933379985     Delta-E=       -0.000006699165 Rises=F Damp=F
 DIIS: error= 3.77D-05 at cycle   8 NSaved=   8.
 NSaved= 8 IEnMin= 8 EnMin= -649.174933379985     IErMin= 8 ErrMin= 3.77D-05
 ErrMax= 3.77D-05  0.00D+00 EMaxC= 1.00D-01 BMatC= 1.40D-07 BMatP= 9.50D-07
 IDIUse=1 WtCom= 1.00D+00 WtEn= 0.00D+00
 Coeff-Com:  0.742D-03-0.957D-03 0.507D-02-0.203D-02-0.246D-02-0.218D-01
 Coeff-Com: -0.333D-01 0.105D+01
 Coeff:      0.742D-03-0.957D-03 0.507D-02-0.203D-02-0.246D-02-0.218D-01
 Coeff:     -0.333D-01 0.105D+01
 Gap=     0.036 Goal=   None    Shift=    0.000
 RMSDP=1.56D-05 MaxDP=8.66D-04 DE=-6.70D-06 OVMax= 1.39D-03

 Cycle   9  Pass 1  IDiag  1:
 E= -649.174934433224     Delta-E=       -0.000001053239 Rises=F Damp=F
 DIIS: error= 5.77D-06 at cycle   9 NSaved=   9.
 NSaved= 9 IEnMin= 9 EnMin= -649.174934433224     IErMin= 9 ErrMin= 5.77D-06
 ErrMax= 5.77D-06  0.00D+00 EMaxC= 1.00D-01 BMatC= 4.52D-09 BMatP= 1.40D-07
 IDIUse=1 WtCom= 1.00D+00 WtEn= 0.00D+00
 Coeff-Com:  0.318D-03-0.424D-03 0.163D-02-0.590D-03-0.179D-02-0.187D-01
 Coeff-Com: -0.601D-01 0.405D+00 0.675D+00
 Coeff:      0.318D-03-0.424D-03 0.163D-02-0.590D-03-0.179D-02-0.187D-01
 Coeff:     -0.601D-01 0.405D+00 0.675D+00
 Gap=     0.036 Goal=   None    Shift=    0.000
 RMSDP=2.07D-06 MaxDP=8.26D-05 DE=-1.05D-06 OVMax= 1.15D-04

 Cycle  10  Pass 1  IDiag  1:
 E= -649.174934451986     Delta-E=       -0.000000018762 Rises=F Damp=F
 DIIS: error= 3.19D-06 at cycle  10 NSaved=  10.
 NSaved=10 IEnMin=10 EnMin= -649.174934451986     IErMin=10 ErrMin= 3.19D-06
 ErrMax= 3.19D-06  0.00D+00 EMaxC= 1.00D-01 BMatC= 9.32D-10 BMatP= 4.52D-09
 IDIUse=1 WtCom= 1.00D+00 WtEn= 0.00D+00
 Coeff-Com:  0.492D-04-0.683D-04 0.312D-03-0.972D-04-0.801D-03-0.537D-02
 Coeff-Com: -0.225D-01 0.486D-01 0.189D+00 0.790D+00
 Coeff:      0.492D-04-0.683D-04 0.312D-03-0.972D-04-0.801D-03-0.537D-02
 Coeff:     -0.225D-01 0.486D-01 0.189D+00 0.790D+00
 Gap=     0.036 Goal=   None    Shift=    0.000
 RMSDP=1.34D-06 MaxDP=8.05D-05 DE=-1.88D-08 OVMax= 1.30D-04

 Cycle  11  Pass 1  IDiag  1:
 E= -649.174934459837     Delta-E=       -0.000000007851 Rises=F Damp=F
 DIIS: error= 2.58D-07 at cycle  11 NSaved=  11.
 NSaved=11 IEnMin=11 EnMin= -649.174934459837     IErMin=11 ErrMin= 2.58D-07
 ErrMax= 2.58D-07  0.00D+00 EMaxC= 1.00D-01 BMatC= 9.67D-12 BMatP= 9.32D-10
 IDIUse=1 WtCom= 1.00D+00 WtEn= 0.00D+00
 Coeff-Com: -0.165D-04 0.213D-04 0.223D-04-0.126D-04 0.286D-04 0.134D-02
 Coeff-Com:  0.593D-03-0.197D-01-0.527D-02 0.155D+00 0.867D+00
 Coeff:     -0.165D-04 0.213D-04 0.223D-04-0.126D-04 0.286D-04 0.134D-02
 Coeff:      0.593D-03-0.197D-01-0.527D-02 0.155D+00 0.867D+00
 Gap=     0.036 Goal=   None    Shift=    0.000
 RMSDP=1.50D-07 MaxDP=6.29D-06 DE=-7.85D-09 OVMax= 9.05D-06

 Cycle  12  Pass 1  IDiag  1:
 E= -649.174934459890     Delta-E=       -0.000000000053 Rises=F Damp=F
 DIIS: error= 7.73D-08 at cycle  12 NSaved=  12.
 NSaved=12 IEnMin=12 EnMin= -649.174934459890     IErMin=12 ErrMin= 7.73D-08
 ErrMax= 7.73D-08  0.00D+00 EMaxC= 1.00D-01 BMatC= 4.51D-13 BMatP= 9.67D-12
 IDIUse=1 WtCom= 1.00D+00 WtEn= 0.00D+00
 Coeff-Com:  0.207D-05-0.274D-05-0.744D-05 0.263D-05 0.821D-05 0.262D-03
 Coeff-Com:  0.597D-03-0.238D-02-0.529D-02-0.282D-01 0.583D-01 0.977D+00
 Coeff:      0.207D-05-0.274D-05-0.744D-05 0.263D-05 0.821D-05 0.262D-03
 Coeff:      0.597D-03-0.238D-02-0.529D-02-0.282D-01 0.583D-01 0.977D+00
 Gap=     0.036 Goal=   None    Shift=    0.000
 RMSDP=4.70D-08 MaxDP=2.59D-06 DE=-5.32D-11 OVMax= 3.76D-06

 Cycle  13  Pass 1  IDiag  1:
 E= -649.174934459895     Delta-E=       -0.000000000005 Rises=F Damp=F
 DIIS: error= 1.31D-08 at cycle  13 NSaved=  13.
 NSaved=13 IEnMin=13 EnMin= -649.174934459895     IErMin=13 ErrMin= 1.31D-08
 ErrMax= 1.31D-08  0.00D+00 EMaxC= 1.00D-01 BMatC= 1.69D-14 BMatP= 4.51D-13
 IDIUse=1 WtCom= 1.00D+00 WtEn= 0.00D+00
 Coeff-Com: -0.213D-06 0.295D-06-0.313D-05 0.969D-06 0.538D-05-0.672D-05
 Coeff-Com:  0.516D-04-0.160D-03-0.373D-03-0.151D-02-0.228D-01 0.410D-01
 Coeff-Com:  0.984D+00
 Coeff:     -0.213D-06 0.295D-06-0.313D-05 0.969D-06 0.538D-05-0.672D-05
 Coeff:      0.516D-04-0.160D-03-0.373D-03-0.151D-02-0.228D-01 0.410D-01
 Coeff:      0.984D+00
 Gap=     0.036 Goal=   None    Shift=    0.000
 RMSDP=5.52D-09 MaxDP=1.46D-07 DE=-5.23D-12 OVMax= 3.90D-07

 SCF Done:  E(RB3LYP) =  -649.174934460     A.U. after   13 cycles
            NFock= 13  Conv=0.55D-08     -V/T= 2.0029
 KE= 6.473032052379D+02 PE=-1.699399364720D+03 EE= 3.327199509358D+02
 Leave Link  502 at Sat Sep 23 10:11:00 2023, MaxMem=  1610612736 cpu:              18.4 elap:               1.3
 (Enter /home/sekinelabo/g16/l601.exe)
 Copying SCF densities to generalized density rwf, IOpCl= 0 IROHF=0.

 **********************************************************************

            Population analysis using the SCF Density.

 **********************************************************************

 Orbital symmetries:
       Occupied  (A) (A) (A) (A) (A) (A) (A) (A) (A) (A) (A) (A)
                 (A) (A) (A) (A) (A) (A) (A) (A) (A) (A)
       Virtual   (A) (A) (A) (A) (A) (A) (A) (A) (A) (A) (A) (A)
                 (A) (A) (A) (A) (A) (A) (A) (A) (A) (A) (A) (A)
                 (A) (A) (A) (A) (A) (A) (A) (A) (A) (A) (A) (A)
                 (A) (A) (A) (A) (A) (A) (A) (A) (A) (A) (A) (A)
                 (A) (A) (A) (A) (A) (A) (A) (A) (A) (A) (A) (A)
                 (A) (A) (A) (A) (A) (A) (A) (A) (A) (A) (A) (A)
                 (A) (A) (A) (A) (A) (A) (A) (A) (A) (A) (A) (A)
                 (A) (A) (A) (A) (A) (A) (A) (A) (A) (A) (A) (A)
                 (A) (A)
 The electronic state is 1-A.
 Alpha  occ. eigenvalues --  -38.46432 -38.46216 -38.44370 -38.44201  -2.22101
 Alpha  occ. eigenvalues --   -2.21888  -2.20207  -2.20030  -1.15780  -1.15779
 Alpha  occ. eigenvalues --   -1.15736  -1.15568  -1.15563  -1.15523  -1.14123
 Alpha  occ. eigenvalues --   -1.13836  -1.13836  -1.13658  -1.13654  -1.13574
 Alpha  occ. eigenvalues --   -0.13577  -0.11855
 Alpha virt. eigenvalues --   -0.08291  -0.05075  -0.02742  -0.02725  -0.02126
 Alpha virt. eigenvalues --   -0.01939  -0.01695  -0.00662  -0.00496  -0.00193
 Alpha virt. eigenvalues --    0.00175   0.00869   0.00962   0.01069   0.01127
 Alpha virt. eigenvalues --    0.01379   0.01582   0.01722   0.01806   0.02006
 Alpha virt. eigenvalues --    0.02062   0.02076   0.02241   0.02447   0.02971
 Alpha virt. eigenvalues --    0.03214   0.03345   0.03484   0.03709   0.05352
 Alpha virt. eigenvalues --    0.07114   0.07327   0.07390   0.07867   0.08020
 Alpha virt. eigenvalues --    0.08127   0.08399   0.08615   0.08663   0.09182
 Alpha virt. eigenvalues --    0.09965   0.10161   0.11199   0.11651   0.12165
 Alpha virt. eigenvalues --    0.16513   0.29815   0.29823   0.31980   0.32023
 Alpha virt. eigenvalues --    0.32364   0.32535   0.33770   0.34110   0.34241
 Alpha virt. eigenvalues --    0.34294   0.34641   0.35163   0.35195   0.36472
 Alpha virt. eigenvalues --    0.36940   0.38970   0.39014   0.41985   0.42370
 Alpha virt. eigenvalues --    0.42917   0.42964   0.43033   0.43277   0.44231
 Alpha virt. eigenvalues --    0.44562   0.45331   0.45470   0.46659   0.49339
 Alpha virt. eigenvalues --    0.52314   0.53090   0.81116   2.00282   2.02172
 Alpha virt. eigenvalues --    2.05718   2.11705   4.42095   4.42346   4.42926
 Alpha virt. eigenvalues --    4.42977   4.43216   4.43381   4.43613   4.43815
 Alpha virt. eigenvalues --    4.45023   4.46990   4.47390   4.74858  96.19277
 Alpha virt. eigenvalues --   96.21456  96.25562  96.34843
          Condensed to atoms (all electrons):
               1          2          3          4
     1  Na  11.289569   0.153018  -0.028068  -0.013940
     2  Na   0.153018  10.466142  -0.036867  -0.010082
     3  Na  -0.028068  -0.036867  10.908707   0.189042
     4  Na  -0.013940  -0.010082   0.189042  10.829379
 Mulliken charges:
               1
     1  Na  -0.400578
     2  Na   0.427789
     3  Na  -0.032813
     4  Na   0.005601
 Sum of Mulliken charges =  -0.00000
 Mulliken charges with hydrogens summed into heavy atoms:
               1
     1  Na  -0.400578
     2  Na   0.427789
     3  Na  -0.032813
     4  Na   0.005601
 Electronic spatial extent (au):  <R**2>=           3078.6700
 Charge=              0.0000 electrons
 Dipole moment (field-independent basis, Debye):
    X=             -0.2848    Y=             -0.4747    Z=             -0.0327  Tot=              0.5546
 Quadrupole moment (field-independent basis, Debye-Ang):
   XX=            -31.1633   YY=            -34.3042   ZZ=            -45.7903
   XY=              1.5790   XZ=             -0.7841   YZ=              0.3703
 Traceless Quadrupole moment (field-independent basis, Debye-Ang):
   XX=              5.9226   YY=              2.7817   ZZ=             -8.7043
   XY=              1.5790   XZ=             -0.7841   YZ=              0.3703
 Octapole moment (field-independent basis, Debye-Ang**2):
  XXX=            -19.8908  YYY=             -3.0150  ZZZ=             -0.0177  XYY=              5.5066
  XXY=            -92.5363  XXZ=             -3.0469  XZZ=              5.8779  YZZ=             -1.0108
  YYZ=             -0.7779  XYZ=              3.7056
 Hexadecapole moment (field-independent basis, Debye-Ang**3):
 XXXX=          -3631.5255 YYYY=           -622.6349 ZZZZ=           -206.9905 XXXY=             87.1575
 XXXZ=            -41.2959 YYYX=            -13.8076 YYYZ=              1.3114 ZZZX=             -3.6192
 ZZZY=              2.1469 XXYY=           -693.5392 XXZZ=           -825.6724 YYZZ=           -144.2450
 XXYZ=              9.3172 YYXZ=             -2.4468 ZZXY=              1.6296
 N-N= 7.020127408666D+01 E-N=-1.699399364218D+03  KE= 6.473032052379D+02
 No NMR shielding tensors so no spin-rotation constants.
 Leave Link  601 at Sat Sep 23 10:11:00 2023, MaxMem=  1610612736 cpu:               0.9 elap:               0.1
 (Enter /home/sekinelabo/g16/l701.exe)
 ... and contract with generalized density number  0.
 Compute integral first derivatives.
 Leave Link  701 at Sat Sep 23 10:11:00 2023, MaxMem=  1610612736 cpu:               1.2 elap:               0.1
 (Enter /home/sekinelabo/g16/l702.exe)
 L702 exits ... SP integral derivatives will be done elsewhere.
 Leave Link  702 at Sat Sep 23 10:11:00 2023, MaxMem=  1610612736 cpu:               0.3 elap:               0.0
 (Enter /home/sekinelabo/g16/l703.exe)
 Integral derivatives from FoFJK, PRISM(SPDF).
 Compute integral first derivatives, UseDBF=F ICtDFT=           0.
 Calling FoFJK, ICntrl=      2127 FMM=F ISym2X=0 I1Cent= 0 IOpClX= 0 NMat=1 NMatS=1 NMatT=0.
 FoFJK:  IHMeth= 1 ICntrl=    2127 DoSepK=F KAlg= 0 I1Cent=           0 FoldK=F
 IRaf=         0 NMat=       1 IRICut=       1 DoRegI=T DoRafI=F ISym2E= 0 IDoP0=0 IntGTp=1.
 FoFCou: FMM=F IPFlag=           0 FMFlag=      100000 FMFlg1=         800
         NFxFlg=           0 DoJE=F BraDBF=F KetDBF=F FulRan=T
         wScrn=  0.000000 ICntrl=      2127 IOpCl=  0 I1Cent=           0 NGrid=           0
         NMat0=    1 NMatS0=      1 NMatT0=    0 NMatD0=    1 NMtDS0=    0 NMtDT0=    0
 Symmetry not used in FoFCou.
 Leave Link  703 at Sat Sep 23 10:11:00 2023, MaxMem=  1610612736 cpu:               5.4 elap:               0.3
 (Enter /home/sekinelabo/g16/l716.exe)
 Dipole        =-1.12059428D-01-1.86768230D-01-1.28554309D-02
 ***** Axes restored to original set *****
 -------------------------------------------------------------------
 Center     Atomic                   Forces (Hartrees/Bohr)
 Number     Number              X              Y              Z
 -------------------------------------------------------------------
      1       11           0.004573394   -0.000028213    0.007908073
      2       11          -0.004590660    0.000021142   -0.007005554
      3       11          -0.005338715   -0.001758723    0.002569162
      4       11           0.005355981    0.001765793   -0.003471680
 -------------------------------------------------------------------
 Cartesian Forces:  Max     0.007908073 RMS     0.004431511
 Z-matrix is all fixed cartesians, so copy forces.
 Force constants in Cartesian coordinates: 
                1             2             3             4             5 
      1  0.171040D-01
      2  0.000000D+00  0.000000D+00
      3  0.256518D-01  0.000000D+00  0.384715D-01
      4 -0.171040D-01  0.000000D+00 -0.256518D-01  0.171040D-01
      5  0.000000D+00  0.000000D+00  0.000000D+00  0.000000D+00  0.000000D+00
      6 -0.256518D-01  0.000000D+00 -0.384715D-01  0.256518D-01  0.000000D+00
      7  0.000000D+00  0.000000D+00  0.000000D+00  0.000000D+00  0.000000D+00
      8  0.000000D+00  0.000000D+00  0.000000D+00  0.000000D+00  0.000000D+00
      9  0.000000D+00  0.000000D+00  0.000000D+00  0.000000D+00  0.000000D+00
     10  0.000000D+00  0.000000D+00  0.000000D+00  0.000000D+00  0.000000D+00
     11  0.000000D+00  0.000000D+00  0.000000D+00  0.000000D+00  0.000000D+00
     12  0.000000D+00  0.000000D+00  0.000000D+00  0.000000D+00  0.000000D+00
                6             7             8             9            10 
      6  0.384715D-01
      7  0.000000D+00  0.100000D+01
      8  0.000000D+00  0.000000D+00  0.100000D+01
      9  0.000000D+00  0.000000D+00  0.000000D+00  0.100000D+01
     10  0.000000D+00  0.000000D+00  0.000000D+00  0.000000D+00  0.100000D+01
     11  0.000000D+00  0.000000D+00  0.000000D+00  0.000000D+00  0.000000D+00
     12  0.000000D+00  0.000000D+00  0.000000D+00  0.000000D+00  0.000000D+00
               11            12 
     11  0.100000D+01
     12  0.000000D+00  0.100000D+01
 Leave Link  716 at Sat Sep 23 10:11:00 2023, MaxMem=  1610612736 cpu:               0.3 elap:               0.0
 (Enter /home/sekinelabo/g16/l103.exe)

 GradGradGradGradGradGradGradGradGradGradGradGradGradGradGradGradGradGrad
 Berny optimization.
 Search for a local minimum.
 Step number   1 out of a maximum of    2
 All quantities printed in internal units (Hartrees-Bohrs-Radians)
 Second derivative matrix not updated -- first step.
 The second derivative matrix:
                          X1        Y1        Z1        X2        Y2
           X1           0.01710
           Y1           0.00000   0.00000
           Z1           0.02565   0.00000   0.03847
           X2          -0.01710  -0.00000  -0.02565   0.01710
           Y2          -0.00000  -0.00000  -0.00000   0.00000   0.00000
           Z2          -0.02565  -0.00000  -0.03847   0.02565   0.00000
           X3           0.00000   0.00000   0.00000   0.00000   0.00000
           Y3           0.00000   0.00000   0.00000   0.00000   0.00000
           Z3           0.00000   0.00000   0.00000   0.00000   0.00000
           X4           0.00000   0.00000   0.00000   0.00000   0.00000
           Y4           0.00000   0.00000   0.00000   0.00000   0.00000
           Z4           0.00000   0.00000   0.00000   0.00000   0.00000
                          Z2        X3        Y3        Z3        X4
           Z2           0.03847
           X3           0.00000   1.00000
           Y3           0.00000   0.00000   1.00000
           Z3           0.00000  -0.00000  -0.00000   1.00000
           X4           0.00000   0.00000   0.00000   0.00000   1.00000
           Y4           0.00000   0.00000   0.00000   0.00000   0.00000
           Z4           0.00000   0.00000   0.00000   0.00000  -0.00000
                          Y4        Z4
           Y4           1.00000
           Z4          -0.00000   1.00000
 ITU=  0
     Eigenvalues ---    0.02733   0.11115   0.23091   0.50000   0.91530
     Eigenvalues ---    1.00000
 Angle between quadratic step and forces=  32.13 degrees.
 Linear search not attempted -- first point.
 B after Tr=     0.000000   -0.000000    0.000000
         Rot=    1.000000    0.000000   -0.000000    0.000000 Ang=   0.00 deg.
 Variable       Old X    -DE/DX   Delta X   Delta X   Delta X     New X
                                 (Linear)    (Quad)   (Total)
    X1        0.00000   0.00457   0.00000   0.03260   0.03260   0.03260
    Y1        0.00000  -0.00003   0.00000  -0.00166  -0.00166  -0.00166
    Z1        0.00000   0.00791   0.00000   0.07222   0.07222   0.07222
    X2       -2.89372  -0.00459   0.00000  -0.03621  -0.03621  -2.92993
    Y2        0.00000   0.00002   0.00000   0.00129   0.00129   0.00129
    Z2       -4.33988  -0.00701   0.00000  -0.07104  -0.07104  -4.41092
    X3        0.00000  -0.00534   0.00000  -0.00385  -0.00385  -0.00385
    Y3        0.00000  -0.00176   0.00000  -0.00161  -0.00161  -0.00161
    Z3        9.71071   0.00257   0.00000   0.00194   0.00194   9.71265
    X4       -7.64317   0.00536   0.00000   0.00746   0.00746  -7.63571
    Y4       -2.53136   0.00177   0.00000   0.00198   0.00198  -2.52938
    Z4       14.70028  -0.00347   0.00000  -0.00312  -0.00312  14.69715
         Item               Value     Threshold  Converged?
 Maximum Force            0.007908     0.000450     NO 
 RMS     Force            0.004432     0.000300     NO 
 Maximum Displacement     0.072223     0.001800     NO 
 RMS     Displacement     0.032573     0.001200     NO 
 Predicted change in Energy=-7.334575D-04
 GradGradGradGradGradGradGradGradGradGradGradGradGradGradGradGradGradGrad

 Leave Link  103 at Sat Sep 23 10:11:00 2023, MaxMem=  1610612736 cpu:               0.2 elap:               0.0
 (Enter /home/sekinelabo/g16/l9999.exe)
 1\1\GINC-SEKINELABO-XA7R-R37\Force\RB3LYP\6-311+G(d)\Na4\SEKINELABO\23
 -Sep-2023\0\\#p B3LYP/6-311+g(d) force\\\0,1\Na,0.,0.,0.\Na,-1.5312912
 617,0.,-2.2965672458\Na,0.,0.,5.1386858405\Na,-4.0445929805,-1.3395401
 203,7.7790510869\\Version=ES64L-G16RevB.01\State=1-A\HF=-649.1749345\R
 MSD=5.517e-09\RMSF=4.432e-03\Dipole=-0.2045426,-0.0435342,0.0622257\Qu
 adrupole=2.2165468,-5.810324,3.5937772,2.2107121,-1.2529583,-1.5217492
 \PG=C01 [X(Na4)]\\@


 ALL THINGS ARE POSSIBLE EXCEPT SKIING THROUGH A REVOLVING DOOR.
 Job cpu time:       0 days  0 hours  0 minutes 33.3 seconds.
 Elapsed time:       0 days  0 hours  0 minutes  2.3 seconds.
 File lengths (MBytes):  RWF=     10 Int=      0 D2E=      0 Chk=      2 Scr=      1
 Normal termination of Gaussian 16 at Sat Sep 23 10:11:00 2023.
 Initial command:
 /home/sekinelabo/g16/l1.exe "/home/sekinelabo/g16temp/Gau-3246447.inp" -scrdir="/home/sekinelabo/g16temp/"
 Entering Link 1 = /home/sekinelabo/g16/l1.exe PID=   3246712.
  
 Copyright (c) 1988-2017, Gaussian, Inc.  All Rights Reserved.
  
 This is part of the Gaussian(R) 16 program.  It is based on
 the Gaussian(R) 09 system (copyright 2009, Gaussian, Inc.),
 the Gaussian(R) 03 system (copyright 2003, Gaussian, Inc.),
 the Gaussian(R) 98 system (copyright 1998, Gaussian, Inc.),
 the Gaussian(R) 94 system (copyright 1995, Gaussian, Inc.),
 the Gaussian 92(TM) system (copyright 1992, Gaussian, Inc.),
 the Gaussian 90(TM) system (copyright 1990, Gaussian, Inc.),
 the Gaussian 88(TM) system (copyright 1988, Gaussian, Inc.),
 the Gaussian 86(TM) system (copyright 1986, Carnegie Mellon
 University), and the Gaussian 82(TM) system (copyright 1983,
 Carnegie Mellon University). Gaussian is a federally registered
 trademark of Gaussian, Inc.
  
 This software contains proprietary and confidential information,
 including trade secrets, belonging to Gaussian, Inc.
  
 This software is provided under written license and may be
 used, copied, transmitted, or stored only in accord with that
 written license.
  
 The following legend is applicable only to US Government
 contracts under FAR:
  
                    RESTRICTED RIGHTS LEGEND
  
 Use, reproduction and disclosure by the US Government is
 subject to restrictions as set forth in subparagraphs (a)
 and (c) of the Commercial Computer Software - Restricted
 Rights clause in FAR 52.227-19.
  
 Gaussian, Inc.
 340 Quinnipiac St., Bldg. 40, Wallingford CT 06492
  
  
 ---------------------------------------------------------------
 Warning -- This program may not be used in any manner that
 competes with the business of Gaussian, Inc. or will provide
 assistance to any competitor of Gaussian, Inc.  The licensee
 of this program is prohibited from giving any competitor of
 Gaussian, Inc. access to this program.  By using this program,
 the user acknowledges that Gaussian, Inc. is engaged in the
 business of creating and licensing software in the field of
 computational chemistry and represents and warrants to the
 licensee that it is not a competitor of Gaussian, Inc. and that
 it will not use this program in any manner prohibited above.
 ---------------------------------------------------------------
  

 Cite this work as:
 Gaussian 16, Revision B.01,
 M. J. Frisch, G. W. Trucks, H. B. Schlegel, G. E. Scuseria, 
 M. A. Robb, J. R. Cheeseman, G. Scalmani, V. Barone, 
 G. A. Petersson, H. Nakatsuji, X. Li, M. Caricato, A. V. Marenich, 
 J. Bloino, B. G. Janesko, R. Gomperts, B. Mennucci, H. P. Hratchian, 
 J. V. Ortiz, A. F. Izmaylov, J. L. Sonnenberg, D. Williams-Young, 
 F. Ding, F. Lipparini, F. Egidi, J. Goings, B. Peng, A. Petrone, 
 T. Henderson, D. Ranasinghe, V. G. Zakrzewski, J. Gao, N. Rega, 
 G. Zheng, W. Liang, M. Hada, M. Ehara, K. Toyota, R. Fukuda, 
 J. Hasegawa, M. Ishida, T. Nakajima, Y. Honda, O. Kitao, H. Nakai, 
 T. Vreven, K. Throssell, J. A. Montgomery, Jr., J. E. Peralta, 
 F. Ogliaro, M. J. Bearpark, J. J. Heyd, E. N. Brothers, K. N. Kudin, 
 V. N. Staroverov, T. A. Keith, R. Kobayashi, J. Normand, 
 K. Raghavachari, A. P. Rendell, J. C. Burant, S. S. Iyengar, 
 J. Tomasi, M. Cossi, J. M. Millam, M. Klene, C. Adamo, R. Cammi, 
 J. W. Ochterski, R. L. Martin, K. Morokuma, O. Farkas, 
 J. B. Foresman, and D. J. Fox, Gaussian, Inc., Wallingford CT, 2016.
 
 ******************************************
 Gaussian 16:  ES64L-G16RevB.01 20-Dec-2017
                23-Sep-2023 
 ******************************************
 %NProcShared=16
 Will use up to   16 processors via shared memory.
 %mem=12GB
 %Chk=checkpoint.chk
 -------------------------
 #p B3LYP/6-311+g(d) force
 -------------------------
 1/10=7,30=1,38=1/1,3;
 2/12=2,17=6,18=5,40=1/2;
 3/5=4,6=6,7=11,11=2,25=1,30=1,71=1,74=-5/1,2,3;
 4//1;
 5/5=2,38=5/2;
 6/7=2,8=2,9=2,10=2,28=1/1;
 7/29=1/1,2,3,16;
 1/10=7,30=1/3;
 99//99;
 Leave Link    1 at Sat Sep 23 10:11:00 2023, MaxMem=  1610612736 cpu:               0.2 elap:               0.0
 (Enter /home/sekinelabo/g16/l101.exe)


 Symbolic Z-matrix:
 Charge =  0 Multiplicity = 1
 Na                    0.        0.        0. 
 Na                   -4.96108   0.       -1.74893 
 Na                    0.        0.        5.28372 
 Na                   -3.85779  -1.07363   2.23059 
 
 ITRead=  0  0  0  0
 MicOpt= -1 -1 -1 -1
 NAtoms=      4 NQM=        4 NQMF=       0 NMMI=      0 NMMIF=      0
                NMic=       0 NMicF=      0.
                    Isotopes and Nuclear Properties:
 (Nuclear quadrupole moments (NQMom) in fm**2, nuclear magnetic moments (NMagM)
  in nuclear magnetons)

  Atom         1           2           3           4
 IAtWgt=          23          23          23          23
 AtmWgt=  22.9897697  22.9897697  22.9897697  22.9897697
 NucSpn=           3           3           3           3
 AtZEff=  -0.0000000  -0.0000000  -0.0000000  -0.0000000
 NQMom=   10.4000000  10.4000000  10.4000000  10.4000000
 NMagM=    2.2175200   2.2175200   2.2175200   2.2175200
 AtZNuc=  11.0000000  11.0000000  11.0000000  11.0000000
 Leave Link  101 at Sat Sep 23 10:11:00 2023, MaxMem=  1610612736 cpu:               1.6 elap:               0.1
 (Enter /home/sekinelabo/g16/l103.exe)

 GradGradGradGradGradGradGradGradGradGradGradGradGradGradGradGradGradGrad
 Berny optimization.
 Initialization pass.
 Trust Radius=3.00D-01 FncErr=1.00D-07 GrdErr=1.00D-07 EigMax=2.50D+02 EigMin=1.00D-04
 Number of steps in this run=      2 maximum allowed number of steps=      2.
 GradGradGradGradGradGradGradGradGradGradGradGradGradGradGradGradGradGrad

 Leave Link  103 at Sat Sep 23 10:11:00 2023, MaxMem=  1610612736 cpu:               0.2 elap:               0.0
 (Enter /home/sekinelabo/g16/l202.exe)
                          Input orientation:                          
 ---------------------------------------------------------------------
 Center     Atomic      Atomic             Coordinates (Angstroms)
 Number     Number       Type             X           Y           Z
 ---------------------------------------------------------------------
      1         11           0        0.000000    0.000000    0.000000
      2         11           0       -4.961078    0.000000   -1.748929
      3         11           0        0.000000    0.000000    5.283717
      4         11           0       -3.857788   -1.073631    2.230587
 ---------------------------------------------------------------------
                    Distance matrix (angstroms):
                    1          2          3          4
     1  Na   0.000000
     2  Na   5.260327   0.000000
     3  Na   5.283717   8.606416   0.000000
     4  Na   4.583747   4.266905   5.035555   0.000000
 Stoichiometry    Na4
 Framework group  C1[X(Na4)]
 Deg. of freedom     6
 Full point group                 C1      NOp   1
 Largest Abelian subgroup         C1      NOp   1
 Largest concise Abelian subgroup C1      NOp   1
                         Standard orientation:                         
 ---------------------------------------------------------------------
 Center     Atomic      Atomic             Coordinates (Angstroms)
 Number     Number       Type             X           Y           Z
 ---------------------------------------------------------------------
      1         11           0       -0.168256    2.631878    0.234948
      2         11           0        4.202479   -0.233362   -0.363481
      3         11           0       -4.400205   -0.482847   -0.318916
      4         11           0        0.365981   -1.915668    0.447450
 ---------------------------------------------------------------------
 Rotational constants (GHZ):           1.9328238           0.5834980           0.4573167
 Leave Link  202 at Sat Sep 23 10:11:00 2023, MaxMem=  1610612736 cpu:               0.0 elap:               0.0
 (Enter /home/sekinelabo/g16/l301.exe)
 Standard basis: 6-311+G(d) (5D, 7F)
 Ernie: Thresh=  0.10000D-02 Tol=  0.10000D-05 Strict=F.
 There are   124 symmetry adapted cartesian basis functions of A   symmetry.
 There are   120 symmetry adapted basis functions of A   symmetry.
   120 basis functions,   200 primitive gaussians,   124 cartesian basis functions
    22 alpha electrons       22 beta electrons
       nuclear repulsion energy        73.4216068553 Hartrees.
 IExCor=  402 DFT=T Ex+Corr=B3LYP ExCW=0 ScaHFX=  0.200000
 ScaDFX=  0.800000  0.720000  1.000000  0.810000 ScalE2=  1.000000  1.000000
 IRadAn=      5 IRanWt=     -1 IRanGd=            0 ICorTp=0 IEmpDi=  4
 NAtoms=    4 NActive=    4 NUniq=    4 SFac= 1.00D+00 NAtFMM=   60 NAOKFM=F Big=F
 Integral buffers will be    131072 words long.
 Raffenetti 2 integral format.
 Two-electron integral symmetry is turned on.
 Leave Link  301 at Sat Sep 23 10:11:00 2023, MaxMem=  1610612736 cpu:               0.4 elap:               0.0
 (Enter /home/sekinelabo/g16/l302.exe)
 NPDir=0 NMtPBC=     1 NCelOv=     1 NCel=       1 NClECP=     1 NCelD=      1
         NCelK=      1 NCelE2=     1 NClLst=     1 CellRange=     0.0.
 One-electron integrals computed using PRISM.
 One-electron integral symmetry used in STVInt
 NBasis=   120 RedAO= T EigKep=  4.65D-04  NBF=   120
 NBsUse=   120 1.00D-06 EigRej= -1.00D+00 NBFU=   120
 Precomputing XC quadrature grid using
 IXCGrd= 4 IRadAn=           5 IRanWt=          -1 IRanGd=           0 AccXCQ= 0.00D+00.
 Generated NRdTot=       0 NPtTot=           0 NUsed=           0 NTot=          32
 NSgBfM=   117   117   117   117   117 MxSgAt=     4 MxSgA2=     4.
 Leave Link  302 at Sat Sep 23 10:11:00 2023, MaxMem=  1610612736 cpu:               1.3 elap:               0.1
 (Enter /home/sekinelabo/g16/l303.exe)
 DipDrv:  MaxL=1.
 Leave Link  303 at Sat Sep 23 10:11:00 2023, MaxMem=  1610612736 cpu:               0.3 elap:               0.0
 (Enter /home/sekinelabo/g16/l401.exe)
 ExpMin= 7.60D-03 ExpMax= 3.62D+04 ExpMxC= 1.21D+03 IAcc=3 IRadAn=         5 AccDes= 0.00D+00
 Harris functional with IExCor=  402 and IRadAn=       5 diagonalized for initial guess.
 HarFok:  IExCor=  402 AccDes= 0.00D+00 IRadAn=         5 IDoV= 1 UseB2=F ITyADJ=14
 ICtDFT=  3500011 ScaDFX=  1.000000  1.000000  1.000000  1.000000
 FoFCou: FMM=F IPFlag=           0 FMFlag=      100000 FMFlg1=           0
         NFxFlg=           0 DoJE=T BraDBF=F KetDBF=T FulRan=T
         wScrn=  0.000000 ICntrl=       500 IOpCl=  0 I1Cent=   200000004 NGrid=           0
         NMat0=    1 NMatS0=      1 NMatT0=    0 NMatD0=    1 NMtDS0=    0 NMtDT0=    0
 Petite list used in FoFCou.
 Harris En= -649.041174416743    
 JPrj=0 DoOrth=F DoCkMO=F.
 Leave Link  401 at Sat Sep 23 10:11:01 2023, MaxMem=  1610612736 cpu:               2.1 elap:               0.1
 (Enter /home/sekinelabo/g16/l502.exe)
 Keep R1 ints in memory in canonical form, NReq=41581754.
 FoFCou: FMM=F IPFlag=           0 FMFlag=           0 FMFlg1=           0
         NFxFlg=           0 DoJE=F BraDBF=F KetDBF=F FulRan=T
         wScrn=  0.000000 ICntrl=       600 IOpCl=  0 I1Cent=           0 NGrid=           0
         NMat0=    1 NMatS0=   7260 NMatT0=    0 NMatD0=    1 NMtDS0=    0 NMtDT0=    0
 Symmetry not used in FoFCou.
 Two-electron integral symmetry not used.
 Closed shell SCF:
 Using DIIS extrapolation, IDIIS=  1040.
 NGot=  1610612736 LenX=  1584221388 LenY=  1584205571
 Requested convergence on RMS density matrix=1.00D-08 within 128 cycles.
 Requested convergence on MAX density matrix=1.00D-06.
 Requested convergence on             energy=1.00D-06.
 No special actions if energy rises.

 Cycle   1  Pass 1  IDiag  1:
 E= -649.147913892897    
 DIIS: error= 1.81D-02 at cycle   1 NSaved=   1.
 NSaved= 1 IEnMin= 1 EnMin= -649.147913892897     IErMin= 1 ErrMin= 1.81D-02
 ErrMax= 1.81D-02  0.00D+00 EMaxC= 1.00D-01 BMatC= 2.77D-02 BMatP= 2.77D-02
 IDIUse=3 WtCom= 8.19D-01 WtEn= 1.81D-01
 Coeff-Com:  0.100D+01
 Coeff-En:   0.100D+01
 Coeff:      0.100D+01
 Gap=     0.004 Goal=   None    Shift=    0.000
 GapD=    0.004 DampG=0.250 DampE=0.500 DampFc=0.2500 IDamp=-1.
 Damping current iteration by 2.50D-01
 RMSDP=6.53D-03 MaxDP=3.81D-01              OVMax= 5.13D-01

 Cycle   2  Pass 1  IDiag  1:
 E= -649.152237234005     Delta-E=       -0.004323341108 Rises=F Damp=T
 DIIS: error= 1.26D-02 at cycle   2 NSaved=   2.
 NSaved= 2 IEnMin= 2 EnMin= -649.152237234005     IErMin= 2 ErrMin= 1.26D-02
 ErrMax= 1.26D-02  0.00D+00 EMaxC= 1.00D-01 BMatC= 1.04D-02 BMatP= 2.77D-02
 IDIUse=3 WtCom= 8.74D-01 WtEn= 1.26D-01
 Coeff-Com: -0.109D+01 0.209D+01
 Coeff-En:   0.948D-01 0.905D+00
 Coeff:     -0.943D+00 0.194D+01
 Gap=     0.003 Goal=   None    Shift=    0.000
 RMSDP=4.46D-03 MaxDP=2.34D-01 DE=-4.32D-03 OVMax= 5.80D-01

 Cycle   3  Pass 1  IDiag  1:
 E= -649.096996872217     Delta-E=        0.055240361788 Rises=F Damp=F
 DIIS: error= 1.13D-02 at cycle   3 NSaved=   3.
 NSaved= 3 IEnMin= 2 EnMin= -649.152237234005     IErMin= 3 ErrMin= 1.13D-02
 ErrMax= 1.13D-02  0.00D+00 EMaxC= 1.00D-01 BMatC= 7.74D-03 BMatP= 1.04D-02
 IDIUse=3 WtCom= 8.87D-01 WtEn= 1.13D-01
 Coeff-Com: -0.734D+00 0.135D+01 0.384D+00
 Coeff-En:   0.000D+00 0.935D+00 0.651D-01
 Coeff:     -0.651D+00 0.130D+01 0.348D+00
 Gap=     0.022 Goal=   None    Shift=    0.000
 RMSDP=6.17D-03 MaxDP=3.83D-01 DE= 5.52D-02 OVMax= 6.16D-01

 Cycle   4  Pass 1  IDiag  1:
 E= -649.144269944134     Delta-E=       -0.047273071918 Rises=F Damp=F
 DIIS: error= 6.09D-03 at cycle   4 NSaved=   4.
 NSaved= 4 IEnMin= 2 EnMin= -649.152237234005     IErMin= 4 ErrMin= 6.09D-03
 ErrMax= 6.09D-03  0.00D+00 EMaxC= 1.00D-01 BMatC= 2.53D-03 BMatP= 7.74D-03
 IDIUse=3 WtCom= 9.39D-01 WtEn= 6.09D-02
 Coeff-Com: -0.149D-01 0.905D-01 0.330D+00 0.594D+00
 Coeff-En:   0.000D+00 0.000D+00 0.317D+00 0.683D+00
 Coeff:     -0.140D-01 0.850D-01 0.330D+00 0.599D+00
 Gap=     0.019 Goal=   None    Shift=    0.000
 RMSDP=2.62D-03 MaxDP=1.27D-01 DE=-4.73D-02 OVMax= 2.73D-01

 Cycle   5  Pass 1  IDiag  1:
 E= -649.164684490507     Delta-E=       -0.020414546372 Rises=F Damp=F
 DIIS: error= 1.18D-03 at cycle   5 NSaved=   5.
 NSaved= 5 IEnMin= 5 EnMin= -649.164684490507     IErMin= 5 ErrMin= 1.18D-03
 ErrMax= 1.18D-03  0.00D+00 EMaxC= 1.00D-01 BMatC= 1.56D-04 BMatP= 2.53D-03
 IDIUse=3 WtCom= 9.88D-01 WtEn= 1.18D-02
 Coeff-Com:  0.469D-01-0.711D-01 0.791D-01 0.245D+00 0.700D+00
 Coeff-En:   0.000D+00 0.000D+00 0.000D+00 0.264D-01 0.974D+00
 Coeff:      0.464D-01-0.703D-01 0.782D-01 0.242D+00 0.703D+00
 Gap=     0.024 Goal=   None    Shift=    0.000
 RMSDP=6.70D-04 MaxDP=3.50D-02 DE=-2.04D-02 OVMax= 5.79D-02

 Cycle   6  Pass 1  IDiag  1:
 E= -649.165363553023     Delta-E=       -0.000679062517 Rises=F Damp=F
 DIIS: error= 5.79D-04 at cycle   6 NSaved=   6.
 NSaved= 6 IEnMin= 6 EnMin= -649.165363553023     IErMin= 6 ErrMin= 5.79D-04
 ErrMax= 5.79D-04  0.00D+00 EMaxC= 1.00D-01 BMatC= 3.58D-05 BMatP= 1.56D-04
 IDIUse=3 WtCom= 9.94D-01 WtEn= 5.79D-03
 Coeff-Com: -0.134D-01 0.169D-01-0.125D-01 0.106D-01 0.331D+00 0.667D+00
 Coeff-En:   0.000D+00 0.000D+00 0.000D+00 0.000D+00 0.144D+00 0.856D+00
 Coeff:     -0.134D-01 0.168D-01-0.124D-01 0.105D-01 0.330D+00 0.668D+00
 Gap=     0.023 Goal=   None    Shift=    0.000
 RMSDP=3.27D-04 MaxDP=1.60D-02 DE=-6.79D-04 OVMax= 2.03D-02

 Cycle   7  Pass 1  IDiag  1:
 E= -649.165527158494     Delta-E=       -0.000163605471 Rises=F Damp=F
 DIIS: error= 1.50D-04 at cycle   7 NSaved=   7.
 NSaved= 7 IEnMin= 7 EnMin= -649.165527158494     IErMin= 7 ErrMin= 1.50D-04
 ErrMax= 1.50D-04  0.00D+00 EMaxC= 1.00D-01 BMatC= 1.37D-06 BMatP= 3.58D-05
 IDIUse=3 WtCom= 9.98D-01 WtEn= 1.50D-03
 Coeff-Com: -0.443D-02 0.547D-02-0.713D-02 0.642D-02 0.439D-01 0.146D+00
 Coeff-Com:  0.809D+00
 Coeff-En:   0.000D+00 0.000D+00 0.000D+00 0.000D+00 0.000D+00 0.000D+00
 Coeff-En:   0.100D+01
 Coeff:     -0.443D-02 0.546D-02-0.712D-02 0.641D-02 0.439D-01 0.146D+00
 Coeff:      0.810D+00
 Gap=     0.023 Goal=   None    Shift=    0.000
 RMSDP=4.14D-05 MaxDP=1.23D-03 DE=-1.64D-04 OVMax= 3.86D-03

 Cycle   8  Pass 1  IDiag  1:
 E= -649.165533077188     Delta-E=       -0.000005918694 Rises=F Damp=F
 DIIS: error= 8.76D-05 at cycle   8 NSaved=   8.
 NSaved= 8 IEnMin= 8 EnMin= -649.165533077188     IErMin= 8 ErrMin= 8.76D-05
 ErrMax= 8.76D-05  0.00D+00 EMaxC= 1.00D-01 BMatC= 5.07D-07 BMatP= 1.37D-06
 IDIUse=1 WtCom= 1.00D+00 WtEn= 0.00D+00
 Coeff-Com: -0.850D-03 0.108D-02-0.346D-02 0.682D-02-0.217D-01-0.391D-01
 Coeff-Com:  0.227D+00 0.831D+00
 Coeff:     -0.850D-03 0.108D-02-0.346D-02 0.682D-02-0.217D-01-0.391D-01
 Coeff:      0.227D+00 0.831D+00
 Gap=     0.023 Goal=   None    Shift=    0.000
 RMSDP=2.14D-05 MaxDP=9.63D-04 DE=-5.92D-06 OVMax= 1.94D-03

 Cycle   9  Pass 1  IDiag  1:
 E= -649.165535673157     Delta-E=       -0.000002595969 Rises=F Damp=F
 DIIS: error= 4.41D-05 at cycle   9 NSaved=   9.
 NSaved= 9 IEnMin= 9 EnMin= -649.165535673157     IErMin= 9 ErrMin= 4.41D-05
 ErrMax= 4.41D-05  0.00D+00 EMaxC= 1.00D-01 BMatC= 1.45D-07 BMatP= 5.07D-07
 IDIUse=1 WtCom= 1.00D+00 WtEn= 0.00D+00
 Coeff-Com: -0.309D-03 0.466D-03-0.136D-02 0.472D-02-0.143D-01-0.457D-01
 Coeff-Com: -0.569D-02 0.179D+00 0.883D+00
 Coeff:     -0.309D-03 0.466D-03-0.136D-02 0.472D-02-0.143D-01-0.457D-01
 Coeff:     -0.569D-02 0.179D+00 0.883D+00
 Gap=     0.023 Goal=   None    Shift=    0.000
 RMSDP=1.34D-05 MaxDP=7.14D-04 DE=-2.60D-06 OVMax= 9.13D-04

 Cycle  10  Pass 1  IDiag  1:
 E= -649.165536643896     Delta-E=       -0.000000970739 Rises=F Damp=F
 DIIS: error= 1.89D-05 at cycle  10 NSaved=  10.
 NSaved=10 IEnMin=10 EnMin= -649.165536643896     IErMin=10 ErrMin= 1.89D-05
 ErrMax= 1.89D-05  0.00D+00 EMaxC= 1.00D-01 BMatC= 2.01D-08 BMatP= 1.45D-07
 IDIUse=1 WtCom= 1.00D+00 WtEn= 0.00D+00
 Coeff-Com: -0.237D-03 0.311D-03-0.206D-03 0.960D-03 0.715D-03 0.459D-02
 Coeff-Com:  0.922D-02-0.909D-01-0.153D+00 0.123D+01
 Coeff:     -0.237D-03 0.311D-03-0.206D-03 0.960D-03 0.715D-03 0.459D-02
 Coeff:      0.922D-02-0.909D-01-0.153D+00 0.123D+01
 Gap=     0.023 Goal=   None    Shift=    0.000
 RMSDP=6.04D-06 MaxDP=2.90D-04 DE=-9.71D-07 OVMax= 5.91D-04

 Cycle  11  Pass 1  IDiag  1:
 E= -649.165536799071     Delta-E=       -0.000000155176 Rises=F Damp=F
 DIIS: error= 4.75D-06 at cycle  11 NSaved=  11.
 NSaved=11 IEnMin=11 EnMin= -649.165536799071     IErMin=11 ErrMin= 4.75D-06
 ErrMax= 4.75D-06  0.00D+00 EMaxC= 1.00D-01 BMatC= 1.08D-09 BMatP= 2.01D-08
 IDIUse=1 WtCom= 1.00D+00 WtEn= 0.00D+00
 Coeff-Com: -0.929D-04 0.120D-03-0.449D-04 0.215D-03 0.128D-02 0.464D-02
 Coeff-Com:  0.584D-02-0.371D-01-0.157D+00 0.453D+00 0.729D+00
 Coeff:     -0.929D-04 0.120D-03-0.449D-04 0.215D-03 0.128D-02 0.464D-02
 Coeff:      0.584D-02-0.371D-01-0.157D+00 0.453D+00 0.729D+00
 Gap=     0.023 Goal=   None    Shift=    0.000
 RMSDP=1.44D-06 MaxDP=6.06D-05 DE=-1.55D-07 OVMax= 1.15D-04

 Cycle  12  Pass 1  IDiag  1:
 E= -649.165536806399     Delta-E=       -0.000000007327 Rises=F Damp=F
 DIIS: error= 1.37D-06 at cycle  12 NSaved=  12.
 NSaved=12 IEnMin=12 EnMin= -649.165536806399     IErMin=12 ErrMin= 1.37D-06
 ErrMax= 1.37D-06  0.00D+00 EMaxC= 1.00D-01 BMatC= 1.65D-10 BMatP= 1.08D-09
 IDIUse=1 WtCom= 1.00D+00 WtEn= 0.00D+00
 Coeff-Com:  0.171D-06-0.312D-06 0.283D-04-0.969D-04 0.587D-03 0.144D-02
 Coeff-Com:  0.957D-03-0.800D-02-0.604D-01-0.181D-01 0.395D+00 0.689D+00
 Coeff:      0.171D-06-0.312D-06 0.283D-04-0.969D-04 0.587D-03 0.144D-02
 Coeff:      0.957D-03-0.800D-02-0.604D-01-0.181D-01 0.395D+00 0.689D+00
 Gap=     0.023 Goal=   None    Shift=    0.000
 RMSDP=8.74D-07 MaxDP=4.73D-05 DE=-7.33D-09 OVMax= 7.33D-05

 Cycle  13  Pass 1  IDiag  1:
 E= -649.165536807763     Delta-E=       -0.000000001365 Rises=F Damp=F
 DIIS: error= 3.85D-07 at cycle  13 NSaved=  13.
 NSaved=13 IEnMin=13 EnMin= -649.165536807763     IErMin=13 ErrMin= 3.85D-07
 ErrMax= 3.85D-07  0.00D+00 EMaxC= 1.00D-01 BMatC= 8.11D-12 BMatP= 1.65D-10
 IDIUse=1 WtCom= 1.00D+00 WtEn= 0.00D+00
 Coeff-Com:  0.115D-05-0.167D-05 0.684D-07-0.193D-04 0.461D-04-0.487D-04
 Coeff-Com: -0.152D-03 0.262D-02 0.268D-02-0.183D-01 0.137D-01 0.797D-01
 Coeff-Com:  0.920D+00
 Coeff:      0.115D-05-0.167D-05 0.684D-07-0.193D-04 0.461D-04-0.487D-04
 Coeff:     -0.152D-03 0.262D-02 0.268D-02-0.183D-01 0.137D-01 0.797D-01
 Coeff:      0.920D+00
 Gap=     0.023 Goal=   None    Shift=    0.000
 RMSDP=1.98D-07 MaxDP=1.08D-05 DE=-1.36D-09 OVMax= 2.08D-05

 Cycle  14  Pass 1  IDiag  1:
 E= -649.165536807832     Delta-E=       -0.000000000069 Rises=F Damp=F
 DIIS: error= 1.44D-07 at cycle  14 NSaved=  14.
 NSaved=14 IEnMin=14 EnMin= -649.165536807832     IErMin=14 ErrMin= 1.44D-07
 ErrMax= 1.44D-07  0.00D+00 EMaxC= 1.00D-01 BMatC= 1.30D-12 BMatP= 8.11D-12
 IDIUse=1 WtCom= 1.00D+00 WtEn= 0.00D+00
 Coeff-Com:  0.152D-05-0.194D-05 0.224D-05-0.110D-04-0.452D-05-0.741D-04
 Coeff-Com: -0.292D-03 0.821D-03 0.380D-02-0.924D-02-0.261D-01-0.385D-01
 Coeff-Com:  0.265D+00 0.804D+00
 Coeff:      0.152D-05-0.194D-05 0.224D-05-0.110D-04-0.452D-05-0.741D-04
 Coeff:     -0.292D-03 0.821D-03 0.380D-02-0.924D-02-0.261D-01-0.385D-01
 Coeff:      0.265D+00 0.804D+00
 Gap=     0.023 Goal=   None    Shift=    0.000
 RMSDP=8.96D-08 MaxDP=4.23D-06 DE=-6.89D-11 OVMax= 8.23D-06

 Cycle  15  Pass 1  IDiag  1:
 E= -649.165536807841     Delta-E=       -0.000000000008 Rises=F Damp=F
 DIIS: error= 4.80D-08 at cycle  15 NSaved=  15.
 NSaved=15 IEnMin=15 EnMin= -649.165536807841     IErMin=15 ErrMin= 4.80D-08
 ErrMax= 4.80D-08  0.00D+00 EMaxC= 1.00D-01 BMatC= 1.13D-13 BMatP= 1.30D-12
 IDIUse=1 WtCom= 1.00D+00 WtEn= 0.00D+00
 Coeff-Com: -0.399D-06 0.510D-06 0.397D-06-0.224D-05-0.358D-05-0.253D-05
 Coeff-Com: -0.421D-04-0.236D-03 0.815D-03 0.219D-02-0.103D-01-0.271D-01
 Coeff-Com: -0.335D-01 0.231D+00 0.837D+00
 Coeff:     -0.399D-06 0.510D-06 0.397D-06-0.224D-05-0.358D-05-0.253D-05
 Coeff:     -0.421D-04-0.236D-03 0.815D-03 0.219D-02-0.103D-01-0.271D-01
 Coeff:     -0.335D-01 0.231D+00 0.837D+00
 Gap=     0.023 Goal=   None    Shift=    0.000
 RMSDP=2.18D-08 MaxDP=6.84D-07 DE=-8.41D-12 OVMax= 2.47D-06

 Cycle  16  Pass 1  IDiag  1:
 E= -649.165536807839     Delta-E=        0.000000000002 Rises=F Damp=F
 DIIS: error= 2.68D-09 at cycle  16 NSaved=  16.
 NSaved=16 IEnMin=15 EnMin= -649.165536807841     IErMin=16 ErrMin= 2.68D-09
 ErrMax= 2.68D-09  0.00D+00 EMaxC= 1.00D-01 BMatC= 7.94D-16 BMatP= 1.13D-13
 IDIUse=1 WtCom= 1.00D+00 WtEn= 0.00D+00
 Large coefficients: NSaved= 16 BigCof=    0.00 CofMax=   10.00 Det=-3.19D-15
 Inversion failed.  Reducing to 15 matrices.
 Coeff-Com: -0.962D-07 0.119D-06-0.109D-06 0.490D-06 0.448D-05 0.157D-04
 Coeff-Com: -0.542D-04-0.224D-03 0.476D-03 0.108D-02 0.167D-02-0.116D-01
 Coeff-Com: -0.565D-01-0.613D-01 0.113D+01
 Coeff:     -0.962D-07 0.119D-06-0.109D-06 0.490D-06 0.448D-05 0.157D-04
 Coeff:     -0.542D-04-0.224D-03 0.476D-03 0.108D-02 0.167D-02-0.116D-01
 Coeff:     -0.565D-01-0.613D-01 0.113D+01
 Gap=     0.023 Goal=   None    Shift=    0.000
 RMSDP=5.25D-09 MaxDP=1.57D-07 DE= 1.59D-12 OVMax= 5.81D-07

 SCF Done:  E(RB3LYP) =  -649.165536808     A.U. after   16 cycles
            NFock= 16  Conv=0.53D-08     -V/T= 2.0031
 KE= 6.471716191585D+02 PE=-1.705524641130D+03 EE= 3.357658783088D+02
 Leave Link  502 at Sat Sep 23 10:11:02 2023, MaxMem=  1610612736 cpu:              23.3 elap:               1.7
 (Enter /home/sekinelabo/g16/l601.exe)
 Copying SCF densities to generalized density rwf, IOpCl= 0 IROHF=0.

 **********************************************************************

            Population analysis using the SCF Density.

 **********************************************************************

 Orbital symmetries:
       Occupied  (A) (A) (A) (A) (A) (A) (A) (A) (A) (A) (A) (A)
                 (A) (A) (A) (A) (A) (A) (A) (A) (A) (A)
       Virtual   (A) (A) (A) (A) (A) (A) (A) (A) (A) (A) (A) (A)
                 (A) (A) (A) (A) (A) (A) (A) (A) (A) (A) (A) (A)
                 (A) (A) (A) (A) (A) (A) (A) (A) (A) (A) (A) (A)
                 (A) (A) (A) (A) (A) (A) (A) (A) (A) (A) (A) (A)
                 (A) (A) (A) (A) (A) (A) (A) (A) (A) (A) (A) (A)
                 (A) (A) (A) (A) (A) (A) (A) (A) (A) (A) (A) (A)
                 (A) (A) (A) (A) (A) (A) (A) (A) (A) (A) (A) (A)
                 (A) (A) (A) (A) (A) (A) (A) (A) (A) (A) (A) (A)
                 (A) (A)
 The electronic state is 1-A.
 Alpha  occ. eigenvalues --  -38.47797 -38.46756 -38.44811 -38.44246  -2.23447
 Alpha  occ. eigenvalues --   -2.22426  -2.20502  -2.19950  -1.17138  -1.17093
 Alpha  occ. eigenvalues --   -1.17090  -1.16126  -1.16087  -1.16039  -1.14181
 Alpha  occ. eigenvalues --   -1.14179  -1.14142  -1.13631  -1.13628  -1.13577
 Alpha  occ. eigenvalues --   -0.13505  -0.10596
 Alpha virt. eigenvalues --   -0.08255  -0.06690  -0.02877  -0.02579  -0.02311
 Alpha virt. eigenvalues --   -0.02050  -0.01104  -0.00721  -0.00319  -0.00010
 Alpha virt. eigenvalues --    0.00277   0.00456   0.00479   0.00703   0.01186
 Alpha virt. eigenvalues --    0.01277   0.01518   0.01650   0.01783   0.01955
 Alpha virt. eigenvalues --    0.02156   0.02260   0.02379   0.02566   0.02653
 Alpha virt. eigenvalues --    0.02694   0.02898   0.02988   0.03070   0.04033
 Alpha virt. eigenvalues --    0.06293   0.07102   0.07606   0.07898   0.08036
 Alpha virt. eigenvalues --    0.08218   0.08552   0.08637   0.08963   0.09027
 Alpha virt. eigenvalues --    0.09272   0.10069   0.10511   0.11631   0.11894
 Alpha virt. eigenvalues --    0.12759   0.30823   0.31846   0.32066   0.32829
 Alpha virt. eigenvalues --    0.32964   0.33332   0.33744   0.34331   0.35203
 Alpha virt. eigenvalues --    0.35457   0.35560   0.35646   0.35855   0.36192
 Alpha virt. eigenvalues --    0.36425   0.36651   0.37402   0.38053   0.38569
 Alpha virt. eigenvalues --    0.41361   0.41996   0.43305   0.43883   0.44022
 Alpha virt. eigenvalues --    0.44403   0.45147   0.45682   0.46625   0.47906
 Alpha virt. eigenvalues --    0.48550   0.49724   0.49934   1.99815   2.01841
 Alpha virt. eigenvalues --    2.03090   2.05958   4.41233   4.41585   4.42435
 Alpha virt. eigenvalues --    4.42526   4.43409   4.44212   4.44746   4.44789
 Alpha virt. eigenvalues --    4.45349   4.45542   4.45606   4.48204  96.18840
 Alpha virt. eigenvalues --   96.21015  96.22479  96.25786
          Condensed to atoms (all electrons):
               1          2          3          4
     1  Na  10.707779  -0.036568   0.140586   0.109576
     2  Na  -0.036568  10.930120  -0.061764   0.220196
     3  Na   0.140586  -0.061764  11.014415  -0.017529
     4  Na   0.109576   0.220196  -0.017529  10.638691
 Mulliken charges:
               1
     1  Na   0.078627
     2  Na  -0.051985
     3  Na  -0.075708
     4  Na   0.049066
 Sum of Mulliken charges =   0.00000
 Mulliken charges with hydrogens summed into heavy atoms:
               1
     1  Na   0.078627
     2  Na  -0.051985
     3  Na  -0.075708
     4  Na   0.049066
 Electronic spatial extent (au):  <R**2>=           1999.4891
 Charge=              0.0000 electrons
 Dipole moment (field-independent basis, Debye):
    X=              0.2917    Y=              0.8681    Z=              0.3217  Tot=              0.9707
 Quadrupole moment (field-independent basis, Debye-Ang):
   XX=            -48.0863   YY=            -29.7620   ZZ=            -45.9439
   XY=              6.8616   XZ=             -0.5907   YZ=             -0.6420
 Traceless Quadrupole moment (field-independent basis, Debye-Ang):
   XX=             -6.8222   YY=             11.5021   ZZ=             -4.6799
   XY=              6.8616   XZ=             -0.5907   YZ=             -0.6420
 Octapole moment (field-independent basis, Debye-Ang**2):
  XXX=             17.3469  YYY=             23.6800  ZZZ=              3.3265  XYY=              2.4570
  XXY=              0.7745  XXZ=            -11.1121  XZZ=              2.2293  YZZ=              0.9174
  YYZ=              7.4589  XYZ=             -0.0562
 Hexadecapole moment (field-independent basis, Debye-Ang**3):
 XXXX=          -2553.3875 YYYY=           -661.3476 ZZZZ=           -242.7098 XXXY=             87.1854
 XXXZ=            -12.3019 YYYX=             53.6632 YYYZ=             -3.7792 ZZZX=             -3.6850
 ZZZY=             -4.2793 XXYY=           -650.7526 XXZZ=           -527.6695 YYZZ=           -168.5207
 XXYZ=              4.2505 YYXZ=             -0.3648 ZZXY=             13.5864
 N-N= 7.342160685534D+01 E-N=-1.705524641103D+03  KE= 6.471716191585D+02
 No NMR shielding tensors so no spin-rotation constants.
 Leave Link  601 at Sat Sep 23 10:11:02 2023, MaxMem=  1610612736 cpu:               0.9 elap:               0.1
 (Enter /home/sekinelabo/g16/l701.exe)
 ... and contract with generalized density number  0.
 Compute integral first derivatives.
 Leave Link  701 at Sat Sep 23 10:11:02 2023, MaxMem=  1610612736 cpu:               1.2 elap:               0.1
 (Enter /home/sekinelabo/g16/l702.exe)
 L702 exits ... SP integral derivatives will be done elsewhere.
 Leave Link  702 at Sat Sep 23 10:11:02 2023, MaxMem=  1610612736 cpu:               0.3 elap:               0.0
 (Enter /home/sekinelabo/g16/l703.exe)
 Integral derivatives from FoFJK, PRISM(SPDF).
 Compute integral first derivatives, UseDBF=F ICtDFT=           0.
 Calling FoFJK, ICntrl=      2127 FMM=F ISym2X=0 I1Cent= 0 IOpClX= 0 NMat=1 NMatS=1 NMatT=0.
 FoFJK:  IHMeth= 1 ICntrl=    2127 DoSepK=F KAlg= 0 I1Cent=           0 FoldK=F
 IRaf=         0 NMat=       1 IRICut=       1 DoRegI=T DoRafI=F ISym2E= 0 IDoP0=0 IntGTp=1.
 FoFCou: FMM=F IPFlag=           0 FMFlag=      100000 FMFlg1=         800
         NFxFlg=           0 DoJE=F BraDBF=F KetDBF=F FulRan=T
         wScrn=  0.000000 ICntrl=      2127 IOpCl=  0 I1Cent=           0 NGrid=           0
         NMat0=    1 NMatS0=      1 NMatT0=    0 NMatD0=    1 NMtDS0=    0 NMtDT0=    0
 Symmetry not used in FoFCou.
 Leave Link  703 at Sat Sep 23 10:11:03 2023, MaxMem=  1610612736 cpu:               6.0 elap:               0.4
 (Enter /home/sekinelabo/g16/l716.exe)
 Dipole        = 1.14774881D-01 3.41545144D-01 1.26549941D-01
 ***** Axes restored to original set *****
 -------------------------------------------------------------------
 Center     Atomic                   Forces (Hartrees/Bohr)
 Number     Number              X              Y              Z
 -------------------------------------------------------------------
      1       11          -0.004684332   -0.000999922    0.007015741
      2       11           0.002263239   -0.001818906    0.006137964
      3       11          -0.000565244   -0.000351339   -0.005334033
      4       11           0.002986338    0.003170167   -0.007819672
 -------------------------------------------------------------------
 Cartesian Forces:  Max     0.007819672 RMS     0.004352001
 Z-matrix is all fixed cartesians, so copy forces.
 Force constants in Cartesian coordinates: 
                1             2             3             4             5 
      1  0.100000D+01
      2  0.000000D+00  0.100000D+01
      3  0.000000D+00  0.000000D+00  0.100000D+01
      4  0.000000D+00  0.000000D+00  0.000000D+00  0.100000D+01
      5  0.000000D+00  0.000000D+00  0.000000D+00  0.000000D+00  0.100000D+01
      6  0.000000D+00  0.000000D+00  0.000000D+00  0.000000D+00  0.000000D+00
      7  0.000000D+00  0.000000D+00  0.000000D+00  0.000000D+00  0.000000D+00
      8  0.000000D+00  0.000000D+00  0.000000D+00  0.000000D+00  0.000000D+00
      9  0.000000D+00  0.000000D+00  0.000000D+00  0.000000D+00  0.000000D+00
     10  0.000000D+00  0.000000D+00  0.000000D+00  0.000000D+00  0.000000D+00
     11  0.000000D+00  0.000000D+00  0.000000D+00  0.000000D+00  0.000000D+00
     12  0.000000D+00  0.000000D+00  0.000000D+00  0.000000D+00  0.000000D+00
                6             7             8             9            10 
      6  0.100000D+01
      7  0.000000D+00  0.100000D+01
      8  0.000000D+00  0.000000D+00  0.100000D+01
      9  0.000000D+00  0.000000D+00  0.000000D+00  0.100000D+01
     10  0.000000D+00  0.000000D+00  0.000000D+00  0.000000D+00  0.100000D+01
     11  0.000000D+00  0.000000D+00  0.000000D+00  0.000000D+00  0.000000D+00
     12  0.000000D+00  0.000000D+00  0.000000D+00  0.000000D+00  0.000000D+00
               11            12 
     11  0.100000D+01
     12  0.000000D+00  0.100000D+01
 Leave Link  716 at Sat Sep 23 10:11:03 2023, MaxMem=  1610612736 cpu:               0.3 elap:               0.0
 (Enter /home/sekinelabo/g16/l103.exe)

 GradGradGradGradGradGradGradGradGradGradGradGradGradGradGradGradGradGrad
 Berny optimization.
 Search for a local minimum.
 Step number   1 out of a maximum of    2
 All quantities printed in internal units (Hartrees-Bohrs-Radians)
 Second derivative matrix not updated -- first step.
 The second derivative matrix:
                          X1        Y1        Z1        X2        Y2
           X1           1.00000
           Y1           0.00000   1.00000
           Z1          -0.00000  -0.00000   1.00000
           X2           0.00000   0.00000   0.00000   1.00000
           Y2           0.00000   0.00000   0.00000   0.00000   1.00000
           Z2           0.00000   0.00000   0.00000  -0.00000  -0.00000
           X3           0.00000   0.00000   0.00000   0.00000   0.00000
           Y3           0.00000   0.00000   0.00000   0.00000   0.00000
           Z3           0.00000   0.00000   0.00000   0.00000   0.00000
           X4           0.00000   0.00000   0.00000   0.00000   0.00000
           Y4           0.00000   0.00000   0.00000   0.00000   0.00000
           Z4           0.00000   0.00000   0.00000   0.00000   0.00000
                          Z2        X3        Y3        Z3        X4
           Z2           1.00000
           X3           0.00000   1.00000
           Y3           0.00000   0.00000   1.00000
           Z3           0.00000  -0.00000  -0.00000   1.00000
           X4           0.00000   0.00000   0.00000   0.00000   1.00000
           Y4           0.00000   0.00000   0.00000   0.00000   0.00000
           Z4           0.00000   0.00000   0.00000   0.00000  -0.00000
                          Y4        Z4
           Y4           1.00000
           Z4          -0.00000   1.00000
 ITU=  0
     Eigenvalues ---    1.00000   1.00000   1.00000   1.00000   1.00000
     Eigenvalues ---    1.00000   1.00000   1.00000   1.00000   1.00000
     Eigenvalues ---    1.00000   1.00000
 Angle between quadratic step and forces=   0.00 degrees.
 Linear search not attempted -- first point.
 B after Tr=     0.000000    0.000000    0.000000
         Rot=    1.000000   -0.000000    0.000000   -0.000000 Ang=   0.00 deg.
 Variable       Old X    -DE/DX   Delta X   Delta X   Delta X     New X
                                 (Linear)    (Quad)   (Total)
    X1        0.00000  -0.00468   0.00000  -0.00468  -0.00468  -0.00468
    Y1        0.00000  -0.00100   0.00000  -0.00100  -0.00100  -0.00100
    Z1       -0.00000   0.00702   0.00000   0.00702   0.00702   0.00702
    X2       -9.37508   0.00226   0.00000   0.00226   0.00226  -9.37281
    Y2        0.00000  -0.00182   0.00000  -0.00182  -0.00182  -0.00182
    Z2       -3.30500   0.00614   0.00000   0.00614   0.00614  -3.29886
    X3        0.00000  -0.00057   0.00000  -0.00057  -0.00057  -0.00057
    Y3       -0.00000  -0.00035   0.00000  -0.00035  -0.00035  -0.00035
    Z3        9.98478  -0.00533   0.00000  -0.00533  -0.00533   9.97944
    X4       -7.29016   0.00299   0.00000   0.00299   0.00299  -7.28718
    Y4       -2.02887   0.00317   0.00000   0.00317   0.00317  -2.02570
    Z4        4.21520  -0.00782   0.00000  -0.00782  -0.00782   4.20738
         Item               Value     Threshold  Converged?
 Maximum Force            0.007820     0.000450     NO 
 RMS     Force            0.004352     0.000300     NO 
 Maximum Displacement     0.007820     0.001800     NO 
 RMS     Displacement     0.004352     0.001200     NO 
 Predicted change in Energy=-1.136395D-04
 GradGradGradGradGradGradGradGradGradGradGradGradGradGradGradGradGradGrad

 Leave Link  103 at Sat Sep 23 10:11:03 2023, MaxMem=  1610612736 cpu:               0.1 elap:               0.0
 (Enter /home/sekinelabo/g16/l9999.exe)
 1\1\GINC-SEKINELABO-XA7R-R37\Force\RB3LYP\6-311+G(d)\Na4\SEKINELABO\23
 -Sep-2023\0\\#p B3LYP/6-311+g(d) force\\\0,1\Na,0.,0.,0.\Na,-4.9610776
 884,0.,-1.7489286589\Na,0.,0.,5.2837174822\Na,-3.857788295,-1.07363103
 66,2.2305873849\\Version=ES64L-G16RevB.01\State=1-A\HF=-649.1655368\RM
 SD=5.251e-09\RMSF=4.352e-03\Dipole=0.2194671,-0.0609357,-0.3065327\Qua
 drupole=-1.4618976,-2.9023144,4.364212,1.252378,-7.6307408,-2.7066435\
 PG=C01 [X(Na4)]\\@


 ... THIS SEEMS PLAINLY ABSURD; BUT WHOEVER WISHES TO BECOME A 
 PHILOSOPHER MUST LEARN NOT TO BE FRIGHTENED BY ABSURDITIES.

                          -- BERTRAND RUSSELL
 Job cpu time:       0 days  0 hours  0 minutes 38.6 seconds.
 Elapsed time:       0 days  0 hours  0 minutes  2.7 seconds.
 File lengths (MBytes):  RWF=     10 Int=      0 D2E=      0 Chk=      2 Scr=      1
 Normal termination of Gaussian 16 at Sat Sep 23 10:11:03 2023.
 Initial command:
 /home/sekinelabo/g16/l1.exe "/home/sekinelabo/g16temp/Gau-3246447.inp" -scrdir="/home/sekinelabo/g16temp/"
 Entering Link 1 = /home/sekinelabo/g16/l1.exe PID=   3246954.
  
 Copyright (c) 1988-2017, Gaussian, Inc.  All Rights Reserved.
  
 This is part of the Gaussian(R) 16 program.  It is based on
 the Gaussian(R) 09 system (copyright 2009, Gaussian, Inc.),
 the Gaussian(R) 03 system (copyright 2003, Gaussian, Inc.),
 the Gaussian(R) 98 system (copyright 1998, Gaussian, Inc.),
 the Gaussian(R) 94 system (copyright 1995, Gaussian, Inc.),
 the Gaussian 92(TM) system (copyright 1992, Gaussian, Inc.),
 the Gaussian 90(TM) system (copyright 1990, Gaussian, Inc.),
 the Gaussian 88(TM) system (copyright 1988, Gaussian, Inc.),
 the Gaussian 86(TM) system (copyright 1986, Carnegie Mellon
 University), and the Gaussian 82(TM) system (copyright 1983,
 Carnegie Mellon University). Gaussian is a federally registered
 trademark of Gaussian, Inc.
  
 This software contains proprietary and confidential information,
 including trade secrets, belonging to Gaussian, Inc.
  
 This software is provided under written license and may be
 used, copied, transmitted, or stored only in accord with that
 written license.
  
 The following legend is applicable only to US Government
 contracts under FAR:
  
                    RESTRICTED RIGHTS LEGEND
  
 Use, reproduction and disclosure by the US Government is
 subject to restrictions as set forth in subparagraphs (a)
 and (c) of the Commercial Computer Software - Restricted
 Rights clause in FAR 52.227-19.
  
 Gaussian, Inc.
 340 Quinnipiac St., Bldg. 40, Wallingford CT 06492
  
  
 ---------------------------------------------------------------
 Warning -- This program may not be used in any manner that
 competes with the business of Gaussian, Inc. or will provide
 assistance to any competitor of Gaussian, Inc.  The licensee
 of this program is prohibited from giving any competitor of
 Gaussian, Inc. access to this program.  By using this program,
 the user acknowledges that Gaussian, Inc. is engaged in the
 business of creating and licensing software in the field of
 computational chemistry and represents and warrants to the
 licensee that it is not a competitor of Gaussian, Inc. and that
 it will not use this program in any manner prohibited above.
 ---------------------------------------------------------------
  

 Cite this work as:
 Gaussian 16, Revision B.01,
 M. J. Frisch, G. W. Trucks, H. B. Schlegel, G. E. Scuseria, 
 M. A. Robb, J. R. Cheeseman, G. Scalmani, V. Barone, 
 G. A. Petersson, H. Nakatsuji, X. Li, M. Caricato, A. V. Marenich, 
 J. Bloino, B. G. Janesko, R. Gomperts, B. Mennucci, H. P. Hratchian, 
 J. V. Ortiz, A. F. Izmaylov, J. L. Sonnenberg, D. Williams-Young, 
 F. Ding, F. Lipparini, F. Egidi, J. Goings, B. Peng, A. Petrone, 
 T. Henderson, D. Ranasinghe, V. G. Zakrzewski, J. Gao, N. Rega, 
 G. Zheng, W. Liang, M. Hada, M. Ehara, K. Toyota, R. Fukuda, 
 J. Hasegawa, M. Ishida, T. Nakajima, Y. Honda, O. Kitao, H. Nakai, 
 T. Vreven, K. Throssell, J. A. Montgomery, Jr., J. E. Peralta, 
 F. Ogliaro, M. J. Bearpark, J. J. Heyd, E. N. Brothers, K. N. Kudin, 
 V. N. Staroverov, T. A. Keith, R. Kobayashi, J. Normand, 
 K. Raghavachari, A. P. Rendell, J. C. Burant, S. S. Iyengar, 
 J. Tomasi, M. Cossi, J. M. Millam, M. Klene, C. Adamo, R. Cammi, 
 J. W. Ochterski, R. L. Martin, K. Morokuma, O. Farkas, 
 J. B. Foresman, and D. J. Fox, Gaussian, Inc., Wallingford CT, 2016.
 
 ******************************************
 Gaussian 16:  ES64L-G16RevB.01 20-Dec-2017
                23-Sep-2023 
 ******************************************
 %NProcShared=16
 Will use up to   16 processors via shared memory.
 %mem=12GB
 %Chk=checkpoint.chk
 -------------------------
 #p B3LYP/6-311+g(d) force
 -------------------------
 1/10=7,30=1,38=1/1,3;
 2/12=2,17=6,18=5,40=1/2;
 3/5=4,6=6,7=11,11=2,25=1,30=1,71=1,74=-5/1,2,3;
 4//1;
 5/5=2,38=5/2;
 6/7=2,8=2,9=2,10=2,28=1/1;
 7/29=1/1,2,3,16;
 1/10=7,30=1/3;
 99//99;
 Leave Link    1 at Sat Sep 23 10:11:03 2023, MaxMem=  1610612736 cpu:               0.2 elap:               0.0
 (Enter /home/sekinelabo/g16/l101.exe)


 Symbolic Z-matrix:
 Charge =  0 Multiplicity = 1
 Na                    0.        0.        0. 
 Na                   -2.80963   0.        0.2858 
 Na                    0.        0.        4.90276 
 Na                   -2.12093  -0.40615   5.49415 
 
 ITRead=  0  0  0  0
 MicOpt= -1 -1 -1 -1
 NAtoms=      4 NQM=        4 NQMF=       0 NMMI=      0 NMMIF=      0
                NMic=       0 NMicF=      0.
                    Isotopes and Nuclear Properties:
 (Nuclear quadrupole moments (NQMom) in fm**2, nuclear magnetic moments (NMagM)
  in nuclear magnetons)

  Atom         1           2           3           4
 IAtWgt=          23          23          23          23
 AtmWgt=  22.9897697  22.9897697  22.9897697  22.9897697
 NucSpn=           3           3           3           3
 AtZEff=  -0.0000000  -0.0000000  -0.0000000  -0.0000000
 NQMom=   10.4000000  10.4000000  10.4000000  10.4000000
 NMagM=    2.2175200   2.2175200   2.2175200   2.2175200
 AtZNuc=  11.0000000  11.0000000  11.0000000  11.0000000
 Leave Link  101 at Sat Sep 23 10:11:03 2023, MaxMem=  1610612736 cpu:               1.6 elap:               0.1
 (Enter /home/sekinelabo/g16/l103.exe)

 GradGradGradGradGradGradGradGradGradGradGradGradGradGradGradGradGradGrad
 Berny optimization.
 Initialization pass.
 Trust Radius=3.00D-01 FncErr=1.00D-07 GrdErr=1.00D-07 EigMax=2.50D+02 EigMin=1.00D-04
 Number of steps in this run=      2 maximum allowed number of steps=      2.
 GradGradGradGradGradGradGradGradGradGradGradGradGradGradGradGradGradGrad

 Leave Link  103 at Sat Sep 23 10:11:03 2023, MaxMem=  1610612736 cpu:               0.2 elap:               0.0
 (Enter /home/sekinelabo/g16/l202.exe)
                          Input orientation:                          
 ---------------------------------------------------------------------
 Center     Atomic      Atomic             Coordinates (Angstroms)
 Number     Number       Type             X           Y           Z
 ---------------------------------------------------------------------
      1         11           0        0.000000    0.000000    0.000000
      2         11           0       -2.809631    0.000000    0.285799
      3         11           0        0.000000    0.000000    4.902760
      4         11           0       -2.120933   -0.406148    5.494148
 ---------------------------------------------------------------------
                    Distance matrix (angstroms):
                    1          2          3          4
     1  Na   0.000000
     2  Na   2.824130   0.000000
     3  Na   4.902760   5.404661   0.000000
     4  Na   5.903302   5.269360   2.238985   0.000000
 Stoichiometry    Na4
 Framework group  C1[X(Na4)]
 Deg. of freedom     6
 Full point group                 C1      NOp   1
 Largest Abelian subgroup         C1      NOp   1
 Largest concise Abelian subgroup C1      NOp   1
                         Standard orientation:                         
 ---------------------------------------------------------------------
 Center     Atomic      Atomic             Coordinates (Angstroms)
 Number     Number       Type             X           Y           Z
 ---------------------------------------------------------------------
      1         11           0        2.626998   -1.323347   -0.099302
      2         11           0        2.441645    1.488335    0.089897
      3         11           0       -2.267905   -1.162915    0.127077
      4         11           0       -2.800738    0.997927   -0.117672
 ---------------------------------------------------------------------
 Rotational constants (GHZ):           3.4550230           0.8488146           0.6834402
 Leave Link  202 at Sat Sep 23 10:11:03 2023, MaxMem=  1610612736 cpu:               0.0 elap:               0.0
 (Enter /home/sekinelabo/g16/l301.exe)
 Standard basis: 6-311+G(d) (5D, 7F)
 Ernie: Thresh=  0.10000D-02 Tol=  0.10000D-05 Strict=F.
 There are   124 symmetry adapted cartesian basis functions of A   symmetry.
 There are   120 symmetry adapted basis functions of A   symmetry.
   120 basis functions,   200 primitive gaussians,   124 cartesian basis functions
    22 alpha electrons       22 beta electrons
       nuclear repulsion energy        99.1759650557 Hartrees.
 IExCor=  402 DFT=T Ex+Corr=B3LYP ExCW=0 ScaHFX=  0.200000
 ScaDFX=  0.800000  0.720000  1.000000  0.810000 ScalE2=  1.000000  1.000000
 IRadAn=      5 IRanWt=     -1 IRanGd=            0 ICorTp=0 IEmpDi=  4
 NAtoms=    4 NActive=    4 NUniq=    4 SFac= 1.00D+00 NAtFMM=   60 NAOKFM=F Big=F
 Integral buffers will be    131072 words long.
 Raffenetti 2 integral format.
 Two-electron integral symmetry is turned on.
[...]
 IDIUse=3 WtCom= 9.98D-01 WtEn= 1.80D-03
 Coeff-Com:  0.164D-01-0.217D-01 0.427D+00 0.578D+00
 Coeff-En:   0.000D+00 0.000D+00 0.233D+00 0.767D+00
 Coeff:      0.163D-01-0.217D-01 0.427D+00 0.578D+00
 Gap=     0.044 Goal=   None    Shift=    0.000
 RMSDP=9.67D-05 MaxDP=4.47D-03 DE=-1.69D-05 OVMax= 5.55D-03

 Cycle   5  Pass 1  IDiag  1:
 E= -649.195697786876     Delta-E=       -0.000013497138 Rises=F Damp=F
 DIIS: error= 6.78D-05 at cycle   5 NSaved=   5.
 NSaved= 5 IEnMin= 5 EnMin= -649.195697786876     IErMin= 5 ErrMin= 6.78D-05
 ErrMax= 6.78D-05  0.00D+00 EMaxC= 1.00D-01 BMatC= 5.54D-07 BMatP= 4.87D-06
 IDIUse=1 WtCom= 1.00D+00 WtEn= 0.00D+00
 Coeff-Com:  0.485D-02-0.695D-02 0.127D+00 0.275D+00 0.601D+00
 Coeff:      0.485D-02-0.695D-02 0.127D+00 0.275D+00 0.601D+00
 Gap=     0.044 Goal=   None    Shift=    0.000
 RMSDP=3.76D-05 MaxDP=1.94D-03 DE=-1.35D-05 OVMax= 2.97D-03

 Cycle   6  Pass 1  IDiag  1:
 E= -649.195699405095     Delta-E=       -0.000001618219 Rises=F Damp=F
 DIIS: error= 2.88D-05 at cycle   6 NSaved=   6.
 NSaved= 6 IEnMin= 6 EnMin= -649.195699405095     IErMin= 6 ErrMin= 2.88D-05
 ErrMax= 2.88D-05  0.00D+00 EMaxC= 1.00D-01 BMatC= 8.59D-08 BMatP= 5.54D-07
 IDIUse=1 WtCom= 1.00D+00 WtEn= 0.00D+00
 Coeff-Com:  0.354D-03-0.757D-03 0.287D-01 0.894D-01 0.319D+00 0.563D+00
 Coeff:      0.354D-03-0.757D-03 0.287D-01 0.894D-01 0.319D+00 0.563D+00
 Gap=     0.044 Goal=   None    Shift=    0.000
 RMSDP=1.73D-05 MaxDP=1.12D-03 DE=-1.62D-06 OVMax= 1.67D-03

 Cycle   7  Pass 1  IDiag  1:
 E= -649.195699824125     Delta-E=       -0.000000419029 Rises=F Damp=F
 DIIS: error= 1.10D-05 at cycle   7 NSaved=   7.
 NSaved= 7 IEnMin= 7 EnMin= -649.195699824125     IErMin= 7 ErrMin= 1.10D-05
 ErrMax= 1.10D-05  0.00D+00 EMaxC= 1.00D-01 BMatC= 1.73D-08 BMatP= 8.59D-08
 IDIUse=1 WtCom= 1.00D+00 WtEn= 0.00D+00
 Coeff-Com: -0.804D-03 0.994D-03-0.554D-02-0.479D-02 0.482D-01 0.338D+00
 Coeff-Com:  0.624D+00
 Coeff:     -0.804D-03 0.994D-03-0.554D-02-0.479D-02 0.482D-01 0.338D+00
 Coeff:      0.624D+00
 Gap=     0.044 Goal=   None    Shift=    0.000
 RMSDP=6.24D-06 MaxDP=2.92D-04 DE=-4.19D-07 OVMax= 5.85D-04

 Cycle   8  Pass 1  IDiag  1:
 E= -649.195699921594     Delta-E=       -0.000000097469 Rises=F Damp=F
 DIIS: error= 2.04D-06 at cycle   8 NSaved=   8.
 NSaved= 8 IEnMin= 8 EnMin= -649.195699921594     IErMin= 8 ErrMin= 2.04D-06
 ErrMax= 2.04D-06  0.00D+00 EMaxC= 1.00D-01 BMatC= 4.26D-10 BMatP= 1.73D-08
 IDIUse=1 WtCom= 1.00D+00 WtEn= 0.00D+00
 Coeff-Com: -0.873D-04 0.115D-03-0.335D-02-0.106D-01-0.244D-01 0.336D-01
 Coeff-Com:  0.166D+00 0.839D+00
 Coeff:     -0.873D-04 0.115D-03-0.335D-02-0.106D-01-0.244D-01 0.336D-01
 Coeff:      0.166D+00 0.839D+00
 Gap=     0.044 Goal=   None    Shift=    0.000
 RMSDP=1.60D-06 MaxDP=4.22D-05 DE=-9.75D-08 OVMax= 5.75D-05

 Cycle   9  Pass 1  IDiag  1:
 E= -649.195699923393     Delta-E=       -0.000000001799 Rises=F Damp=F
 DIIS: error= 4.86D-07 at cycle   9 NSaved=   9.
 NSaved= 9 IEnMin= 9 EnMin= -649.195699923393     IErMin= 9 ErrMin= 4.86D-07
 ErrMax= 4.86D-07  0.00D+00 EMaxC= 1.00D-01 BMatC= 1.43D-11 BMatP= 4.26D-10
 IDIUse=1 WtCom= 1.00D+00 WtEn= 0.00D+00
 Coeff-Com:  0.614D-04-0.789D-04-0.131D-03-0.173D-02-0.562D-02-0.151D-01
 Coeff-Com: -0.315D-04 0.119D+00 0.903D+00
 Coeff:      0.614D-04-0.789D-04-0.131D-03-0.173D-02-0.562D-02-0.151D-01
 Coeff:     -0.315D-04 0.119D+00 0.903D+00
 Gap=     0.044 Goal=   None    Shift=    0.000
 RMSDP=2.60D-07 MaxDP=1.11D-05 DE=-1.80D-09 OVMax= 1.41D-05

 Cycle  10  Pass 1  IDiag  1:
 E= -649.195699923480     Delta-E=       -0.000000000088 Rises=F Damp=F
 DIIS: error= 6.87D-08 at cycle  10 NSaved=  10.
 NSaved=10 IEnMin=10 EnMin= -649.195699923480     IErMin=10 ErrMin= 6.87D-08
 ErrMax= 6.87D-08  0.00D+00 EMaxC= 1.00D-01 BMatC= 6.44D-13 BMatP= 1.43D-11
 IDIUse=1 WtCom= 1.00D+00 WtEn= 0.00D+00
 Coeff-Com:  0.184D-04-0.236D-04 0.407D-04-0.179D-03-0.106D-02-0.561D-02
 Coeff-Com: -0.484D-02 0.935D-02 0.278D+00 0.725D+00
 Coeff:      0.184D-04-0.236D-04 0.407D-04-0.179D-03-0.106D-02-0.561D-02
 Coeff:     -0.484D-02 0.935D-02 0.278D+00 0.725D+00
 Gap=     0.044 Goal=   None    Shift=    0.000
 RMSDP=6.39D-08 MaxDP=1.93D-06 DE=-8.77D-11 OVMax= 3.72D-06

 Cycle  11  Pass 1  IDiag  1:
 E= -649.195699923486     Delta-E=       -0.000000000005 Rises=F Damp=F
 DIIS: error= 2.53D-08 at cycle  11 NSaved=  11.
 NSaved=11 IEnMin=11 EnMin= -649.195699923486     IErMin=11 ErrMin= 2.53D-08
 ErrMax= 2.53D-08  0.00D+00 EMaxC= 1.00D-01 BMatC= 6.81D-14 BMatP= 6.44D-13
 IDIUse=1 WtCom= 1.00D+00 WtEn= 0.00D+00
 Coeff-Com: -0.410D-05 0.539D-05 0.294D-04 0.174D-03 0.558D-03 0.202D-03
 Coeff-Com: -0.186D-02-0.126D-01-0.439D-01 0.171D+00 0.887D+00
 Coeff:     -0.410D-05 0.539D-05 0.294D-04 0.174D-03 0.558D-03 0.202D-03
 Coeff:     -0.186D-02-0.126D-01-0.439D-01 0.171D+00 0.887D+00
 Gap=     0.044 Goal=   None    Shift=    0.000
 RMSDP=2.88D-08 MaxDP=6.81D-07 DE=-5.12D-12 OVMax= 9.63D-07

 Cycle  12  Pass 1  IDiag  1:
 E= -649.195699923491     Delta-E=       -0.000000000005 Rises=F Damp=F
 DIIS: error= 2.87D-09 at cycle  12 NSaved=  12.
 NSaved=12 IEnMin=12 EnMin= -649.195699923491     IErMin=12 ErrMin= 2.87D-09
 ErrMax= 2.87D-09  0.00D+00 EMaxC= 1.00D-01 BMatC= 1.93D-15 BMatP= 6.81D-14
 IDIUse=1 WtCom= 1.00D+00 WtEn= 0.00D+00
 Coeff-Com: -0.169D-05 0.219D-05 0.439D-05 0.464D-04 0.167D-03 0.241D-03
 Coeff-Com: -0.146D-03-0.311D-02-0.183D-01 0.137D-01 0.180D+00 0.828D+00
 Coeff:     -0.169D-05 0.219D-05 0.439D-05 0.464D-04 0.167D-03 0.241D-03
 Coeff:     -0.146D-03-0.311D-02-0.183D-01 0.137D-01 0.180D+00 0.828D+00
 Gap=     0.044 Goal=   None    Shift=    0.000
 RMSDP=4.45D-09 MaxDP=1.17D-07 DE=-5.23D-12 OVMax= 1.83D-07

 SCF Done:  E(RB3LYP) =  -649.195699923     A.U. after   12 cycles
            NFock= 12  Conv=0.44D-08     -V/T= 2.0029
 KE= 6.472961609335D+02 PE=-1.737896065297D+03 EE= 3.521310245413D+02
 Leave Link  502 at Sat Sep 23 10:11:10 2023, MaxMem=  1610612736 cpu:              18.8 elap:               1.3
 (Enter /home/sekinelabo/g16/l601.exe)
 Copying SCF densities to generalized density rwf, IOpCl= 0 IROHF=0.

 **********************************************************************

            Population analysis using the SCF Density.

 **********************************************************************

 Orbital symmetries:
       Occupied  (A) (A) (A) (A) (A) (A) (A) (A) (A) (A) (A) (A)
                 (A) (A) (A) (A) (A) (A) (A) (A) (A) (A)
       Virtual   (A) (A) (A) (A) (A) (A) (A) (A) (A) (A) (A) (A)
                 (A) (A) (A) (A) (A) (A) (A) (A) (A) (A) (A) (A)
                 (A) (A) (A) (A) (A) (A) (A) (A) (A) (A) (A) (A)
                 (A) (A) (A) (A) (A) (A) (A) (A) (A) (A) (A) (A)
                 (A) (A) (A) (A) (A) (A) (A) (A) (A) (A) (A) (A)
                 (A) (A) (A) (A) (A) (A) (A) (A) (A) (A) (A) (A)
                 (A) (A) (A) (A) (A) (A) (A) (A) (A) (A) (A) (A)
                 (A) (A) (A) (A) (A) (A) (A) (A) (A) (A) (A) (A)
                 (A) (A)
 The electronic state is 1-A.
 Alpha  occ. eigenvalues --  -38.44956 -38.44512 -38.44269 -38.44176  -2.20682
 Alpha  occ. eigenvalues --   -2.20318  -2.19981  -2.19965  -1.14377  -1.14342
 Alpha  occ. eigenvalues --   -1.14300  -1.14015  -1.13985  -1.13951  -1.13662
 Alpha  occ. eigenvalues --   -1.13661  -1.13625  -1.13617  -1.13600  -1.13599
 Alpha  occ. eigenvalues --   -0.14540  -0.11091
 Alpha virt. eigenvalues --   -0.06691  -0.05568  -0.02867  -0.02380  -0.01847
 Alpha virt. eigenvalues --   -0.01094  -0.00716  -0.00277  -0.00186   0.00425
 Alpha virt. eigenvalues --    0.00563   0.00901   0.01014   0.01399   0.01531
 Alpha virt. eigenvalues --    0.01649   0.01675   0.01850   0.01916   0.02028
 Alpha virt. eigenvalues --    0.02222   0.02248   0.02301   0.02884   0.03122
 Alpha virt. eigenvalues --    0.03279   0.03472   0.03975   0.04111   0.04644
 Alpha virt. eigenvalues --    0.06545   0.06897   0.07256   0.07626   0.08018
 Alpha virt. eigenvalues --    0.08400   0.08707   0.09702   0.09861   0.09941
 Alpha virt. eigenvalues --    0.10190   0.11204   0.12525   0.13100   0.13377
 Alpha virt. eigenvalues --    0.15217   0.28468   0.29291   0.29861   0.30047
 Alpha virt. eigenvalues --    0.31979   0.32161   0.33934   0.35175   0.35416
 Alpha virt. eigenvalues --    0.36024   0.36320   0.37544   0.38244   0.40141
 Alpha virt. eigenvalues --    0.42049   0.42214   0.42824   0.43307   0.43826
 Alpha virt. eigenvalues --    0.44178   0.44321   0.44762   0.45386   0.46475
 Alpha virt. eigenvalues --    0.47082   0.48375   0.49152   0.49360   0.50986
 Alpha virt. eigenvalues --    0.52540   0.55190   0.69623   2.02392   2.05679
 Alpha virt. eigenvalues --    2.09515   2.14554   4.41207   4.43732   4.44503
 Alpha virt. eigenvalues --    4.44669   4.44767   4.44938   4.45303   4.45895
 Alpha virt. eigenvalues --    4.46848   4.47194   4.47998   4.62155  96.21664
 Alpha virt. eigenvalues --   96.25469  96.29931  96.37010
          Condensed to atoms (all electrons):
               1          2          3          4
     1  Na  10.731133   0.342569  -0.092703   0.119659
     2  Na   0.342569  10.845953  -0.170961  -0.178903
     3  Na  -0.092703  -0.170961  10.888851   0.329314
     4  Na   0.119659  -0.178903   0.329314  10.836114
 Mulliken charges:
               1
     1  Na  -0.100657
     2  Na   0.161342
     3  Na   0.045499
     4  Na  -0.106184
 Sum of Mulliken charges =  -0.00000
 Mulliken charges with hydrogens summed into heavy atoms:
               1
     1  Na  -0.100657
     2  Na   0.161342
     3  Na   0.045499
     4  Na  -0.106184
 Electronic spatial extent (au):  <R**2>=           1398.1477
 Charge=             -0.0000 electrons
 Dipole moment (field-independent basis, Debye):
    X=             -0.7310    Y=             -0.0332    Z=             -0.0822  Tot=              0.7364
 Quadrupole moment (field-independent basis, Debye-Ang):
   XX=            -47.0003   YY=            -35.8041   ZZ=            -35.3082
   XY=             -2.9123   XZ=              3.0756   YZ=              0.0649
 Traceless Quadrupole moment (field-independent basis, Debye-Ang):
   XX=             -7.6294   YY=              3.5668   ZZ=              4.0626
   XY=             -2.9123   XZ=              3.0756   YZ=              0.0649
 Octapole moment (field-independent basis, Debye-Ang**2):
  XXX=             -0.3034  YYY=             11.1504  ZZZ=              9.5186  XYY=              5.0768
  XXY=            -25.7592  XXZ=            -11.4143  XZZ=            -19.8989  YZZ=              0.8030
  YYZ=             -6.4645  XYZ=             -8.2312
 Hexadecapole moment (field-independent basis, Debye-Ang**3):
 XXXX=          -1804.4656 YYYY=           -438.2974 ZZZZ=           -331.5753 XXXY=            -68.1325
 XXXZ=             77.0636 YYYX=             -9.0041 YYYZ=             -7.3010 ZZZX=              5.6976
 ZZZY=              3.8506 XXYY=           -363.1551 XXZZ=           -347.0808 YYZZ=           -132.8855
 XXYZ=             18.7165 YYXZ=              6.1793 ZZXY=              0.0244
 N-N= 8.927317989881D+01 E-N=-1.737896066000D+03  KE= 6.472961609335D+02
 No NMR shielding tensors so no spin-rotation constants.
 Leave Link  601 at Sat Sep 23 10:11:10 2023, MaxMem=  1610612736 cpu:               0.9 elap:               0.1
 (Enter /home/sekinelabo/g16/l701.exe)
 ... and contract with generalized density number  0.
 Compute integral first derivatives.
 Leave Link  701 at Sat Sep 23 10:11:10 2023, MaxMem=  1610612736 cpu:               1.3 elap:               0.1
 (Enter /home/sekinelabo/g16/l702.exe)
 L702 exits ... SP integral derivatives will be done elsewhere.
 Leave Link  702 at Sat Sep 23 10:11:10 2023, MaxMem=  1610612736 cpu:               0.3 elap:               0.0
 (Enter /home/sekinelabo/g16/l703.exe)
 Integral derivatives from FoFJK, PRISM(SPDF).
 Compute integral first derivatives, UseDBF=F ICtDFT=           0.
 Calling FoFJK, ICntrl=      2127 FMM=F ISym2X=0 I1Cent= 0 IOpClX= 0 NMat=1 NMatS=1 NMatT=0.
 FoFJK:  IHMeth= 1 ICntrl=    2127 DoSepK=F KAlg= 0 I1Cent=           0 FoldK=F
 IRaf=         0 NMat=       1 IRICut=       1 DoRegI=T DoRafI=F ISym2E= 0 IDoP0=0 IntGTp=1.
 FoFCou: FMM=F IPFlag=           0 FMFlag=      100000 FMFlg1=         800
         NFxFlg=           0 DoJE=F BraDBF=F KetDBF=F FulRan=T
         wScrn=  0.000000 ICntrl=      2127 IOpCl=  0 I1Cent=           0 NGrid=           0
         NMat0=    1 NMatS0=      1 NMatT0=    0 NMatD0=    1 NMtDS0=    0 NMtDT0=    0
 Symmetry not used in FoFCou.
 Leave Link  703 at Sat Sep 23 10:11:10 2023, MaxMem=  1610612736 cpu:               6.4 elap:               0.4
 (Enter /home/sekinelabo/g16/l716.exe)
 Dipole        =-2.87610827D-01-1.30653163D-02-3.23405181D-02
 ***** Axes restored to original set *****
 -------------------------------------------------------------------
 Center     Atomic                   Forces (Hartrees/Bohr)
 Number     Number              X              Y              Z
 -------------------------------------------------------------------
      1       11          -0.000184194   -0.000571198    0.000965636
      2       11          -0.000175366   -0.000465240   -0.000887022
      3       11           0.000008438   -0.005315740   -0.004672441
      4       11           0.000351123    0.006352178    0.004593826
 -------------------------------------------------------------------
 Cartesian Forces:  Max     0.006352178 RMS     0.003082102
 Z-matrix is all fixed cartesians, so copy forces.
 Force constants in Cartesian coordinates: 
                1             2             3             4             5 
      1  0.384880D-01
      2  0.591489D-02  0.131601D-01
      3 -0.115973D-02 -0.743263D-02  0.122003D-01
      4 -0.329407D-01 -0.364708D-03 -0.302304D-02  0.325113D-01
      5 -0.470639D-02 -0.374640D-02  0.310264D-02  0.373547D-03  0.383718D-02
      6  0.120804D-02  0.354883D-02 -0.340061D-02  0.297013D-02 -0.363483D-02
      7  0.412767D-04  0.360185D-03  0.381065D-03  0.387007D-05 -0.366987D-04
      8  0.324879D-03  0.233022D-02  0.247368D-02  0.000000D+00  0.509738D-05
      9 -0.311419D-03 -0.224207D-02 -0.237992D-02  0.000000D+00  0.000000D+00
     10 -0.558866D-02 -0.591037D-02  0.380169D-02  0.425515D-03  0.436955D-02
     11 -0.153338D-02 -0.117439D-01  0.185632D-02 -0.830059D-05 -0.958861D-04
     12  0.263106D-03  0.612587D-02 -0.641981D-02  0.529056D-04  0.532190D-03
                6             7             8             9            10 
      6  0.391541D-02
      7 -0.376581D-04  0.187266D-03
      8  0.523063D-05  0.104799D-02  0.758671D-02
      9  0.000000D+00  0.462851D-03  0.333231D-02  0.807055D-02
     10 -0.414051D-02 -0.232413D-03 -0.137233D-02 -0.151432D-03  0.539556D-02
     11  0.807695D-04 -0.137147D-02 -0.992203D-02 -0.109024D-02  0.291315D-02
     12 -0.514803D-03 -0.806258D-03 -0.581121D-02 -0.569063D-02  0.490246D-03
               11            12 
     11  0.217618D-01
     12 -0.846846D-03  0.126252D-01
 Leave Link  716 at Sat Sep 23 10:11:10 2023, MaxMem=  1610612736 cpu:               0.3 elap:               0.0
 (Enter /home/sekinelabo/g16/l103.exe)

 GradGradGradGradGradGradGradGradGradGradGradGradGradGradGradGradGradGrad
 Berny optimization.
 Search for a local minimum.
 Step number   1 out of a maximum of    2
 All quantities printed in internal units (Hartrees-Bohrs-Radians)
 Second derivative matrix not updated -- first step.
 The second derivative matrix:
                          X1        Y1        Z1        X2        Y2
           X1           0.03849
           Y1           0.00591   0.01316
           Z1          -0.00116  -0.00743   0.01220
           X2          -0.03294  -0.00036  -0.00302   0.03251
           Y2          -0.00471  -0.00375   0.00310   0.00037   0.00384
           Z2           0.00121   0.00355  -0.00340   0.00297  -0.00363
           X3           0.00004   0.00036   0.00038   0.00000  -0.00004
           Y3           0.00032   0.00233   0.00247  -0.00000   0.00001
           Z3          -0.00031  -0.00224  -0.00238   0.00000   0.00000
           X4          -0.00559  -0.00591   0.00380   0.00043   0.00437
           Y4          -0.00153  -0.01174   0.00186  -0.00001  -0.00010
           Z4           0.00026   0.00613  -0.00642   0.00005   0.00053
                          Z2        X3        Y3        Z3        X4
           Z2           0.00392
           X3          -0.00004   0.00019
           Y3           0.00001   0.00105   0.00759
           Z3          -0.00000   0.00046   0.00333   0.00807
           X4          -0.00414  -0.00023  -0.00137  -0.00015   0.00540
           Y4           0.00008  -0.00137  -0.00992  -0.00109   0.00291
           Z4          -0.00051  -0.00081  -0.00581  -0.00569   0.00049
                          Y4        Z4
           Y4           0.02176
           Z4          -0.00085   0.01263
 ITU=  0
     Eigenvalues ---    0.00018   0.00928   0.01651   0.02620   0.03776
     Eigenvalues ---    0.06981
 Quadratic step=8.509D+00 exceeds max=3.000D-01 adjusted using Lamda=-1.374D-02.
 Angle between NR and scaled steps=  65.43 degrees.
 Angle between quadratic step and forces=  18.33 degrees.
 Linear search not attempted -- first point.
 B after Tr=     0.000000    0.000000    0.000000
         Rot=    1.000000    0.000000   -0.000000    0.000000 Ang=   0.00 deg.
 Variable       Old X    -DE/DX   Delta X   Delta X   Delta X     New X
                                 (Linear)    (Quad)   (Total)
    X1        0.00000  -0.00018   0.00000  -0.00729  -0.00729  -0.00729
    Y1       -0.00000  -0.00057   0.00000   0.02968   0.02968   0.02968
    Z1        0.00000   0.00097   0.00000   0.06790   0.06790   0.06790
    X2       -5.78999  -0.00018   0.00000  -0.00037  -0.00037  -5.79036
    Y2        0.00000  -0.00047   0.00000  -0.04159  -0.04159  -0.04159
    Z2       -0.59503  -0.00089   0.00000  -0.05422  -0.05422  -0.64925
    X3        0.00000   0.00001   0.00000   0.03448   0.03448   0.03448
    Y3        0.00000  -0.00532   0.00000  -0.13694  -0.13694  -0.13694
    Z3       10.24916  -0.00467   0.00000  -0.14275  -0.14275  10.10642
    X4       -0.70409   0.00035   0.00000  -0.02683  -0.02683  -0.73092
    Y4       -5.06912   0.00635   0.00000   0.14884   0.14884  -4.92028
    Z4        4.86762   0.00459   0.00000   0.12906   0.12906   4.99669
         Item               Value     Threshold  Converged?
 Maximum Force            0.006352     0.000450     NO 
 RMS     Force            0.003082     0.000300     NO 
 Maximum Displacement     0.148842     0.001800     NO 
 RMS     Displacement     0.086633     0.001200     NO 
 Predicted change in Energy=-2.139579D-03
 GradGradGradGradGradGradGradGradGradGradGradGradGradGradGradGradGradGrad

 Leave Link  103 at Sat Sep 23 10:11:10 2023, MaxMem=  1610612736 cpu:               0.1 elap:               0.0
 (Enter /home/sekinelabo/g16/l9999.exe)
 1\1\GINC-SEKINELABO-XA7R-R37\Force\RB3LYP\6-311+G(d)\Na4\SEKINELABO\23
 -Sep-2023\0\\#p B3LYP/6-311+g(d) force\\\0,1\Na,0.,0.,0.\Na,-3.0639306
 628,0.,-0.3148763683\Na,0.,0.,5.4236243657\Na,-0.3725889354,-2.6824624
 857,2.5758348786\\Version=ES64L-G16RevB.01\State=1-A\HF=-649.1956999\R
 MSD=4.448e-09\RMSF=3.082e-03\Dipole=-0.1352731,0.0312504,-0.2542857\Qu
 adrupole=2.8053455,1.9274546,-4.7328,1.3134236,-1.7373962,3.5140345\PG
 =C01 [X(Na4)]\\@


 I DO NOT KNOW WHAT I MAY APPEAR TO THE WORLD; BUT TO MYSELF
 I SEEM TO HAVE BEEN ONLY LIKE A BOY PLAYING ON THE SEASHORE,
 AND DIVERTING MYSELF IN NOW AND THEN FINDING A SMOOTHER PEBBLE
 OR A PRETTIER SHELL THAN ORDINARY, WHILST THE GREAT OCEAN OF
 TRUTH LAY ALL UNDISCOVERED BEFORE ME.
                                          -- NEWTON (1642-1726)
 Job cpu time:       0 days  0 hours  0 minutes 35.2 seconds.
 Elapsed time:       0 days  0 hours  0 minutes  2.4 seconds.
 File lengths (MBytes):  RWF=     10 Int=      0 D2E=      0 Chk=      2 Scr=      1
 Normal termination of Gaussian 16 at Sat Sep 23 10:11:10 2023.
