 Entering Gaussian System, Link 0=g16
 Initial command:
 /home/sekinelabo/g16/l1.exe "/home/sekinelabo/g16temp/Gau-3232751.inp" -scrdir="/home/sekinelabo/g16temp/"
 Entering Link 1 = /home/sekinelabo/g16/l1.exe PID=   3232753.
  
 Copyright (c) 1988-2017, Gaussian, Inc.  All Rights Reserved.
  
 This is part of the Gaussian(R) 16 program.  It is based on
 the Gaussian(R) 09 system (copyright 2009, Gaussian, Inc.),
 the Gaussian(R) 03 system (copyright 2003, Gaussian, Inc.),
 the Gaussian(R) 98 system (copyright 1998, Gaussian, Inc.),
 the Gaussian(R) 94 system (copyright 1995, Gaussian, Inc.),
 the Gaussian 92(TM) system (copyright 1992, Gaussian, Inc.),
 the Gaussian 90(TM) system (copyright 1990, Gaussian, Inc.),
 the Gaussian 88(TM) system (copyright 1988, Gaussian, Inc.),
 the Gaussian 86(TM) system (copyright 1986, Carnegie Mellon
 University), and the Gaussian 82(TM) system (copyright 1983,
 Carnegie Mellon University). Gaussian is a federally registered
 trademark of Gaussian, Inc.
  
 This software contains proprietary and confidential information,
 including trade secrets, belonging to Gaussian, Inc.
  
 This software is provided under written license and may be
 used, copied, transmitted, or stored only in accord with that
 written license.
  
 The following legend is applicable only to US Government
 contracts under FAR:
  
                    RESTRICTED RIGHTS LEGEND
  
 Use, reproduction and disclosure by the US Government is
 subject to restrictions as set forth in subparagraphs (a)
 and (c) of the Commercial Computer Software - Restricted
 Rights clause in FAR 52.227-19.
  
 Gaussian, Inc.
 340 Quinnipiac St., Bldg. 40, Wallingford CT 06492
  
  
 ---------------------------------------------------------------
 Warning -- This program may not be used in any manner that
 competes with the business of Gaussian, Inc. or will provide
 assistance to any competitor of Gaussian, Inc.  The licensee
 of this program is prohibited from giving any competitor of
 Gaussian, Inc. access to this program.  By using this program,
 the user acknowledges that Gaussian, Inc. is engaged in the
 business of creating and licensing software in the field of
 computational chemistry and represents and warrants to the
 licensee that it is not a competitor of Gaussian, Inc. and that
 it will not use this program in any manner prohibited above.
 ---------------------------------------------------------------
  

 Cite this work as:
 Gaussian 16, Revision B.01,
 M. J. Frisch, G. W. Trucks, H. B. Schlegel, G. E. Scuseria, 
 M. A. Robb, J. R. Cheeseman, G. Scalmani, V. Barone, 
 G. A. Petersson, H. Nakatsuji, X. Li, M. Caricato, A. V. Marenich, 
 J. Bloino, B. G. Janesko, R. Gomperts, B. Mennucci, H. P. Hratchian, 
 J. V. Ortiz, A. F. Izmaylov, J. L. Sonnenberg, D. Williams-Young, 
 F. Ding, F. Lipparini, F. Egidi, J. Goings, B. Peng, A. Petrone, 
 T. Henderson, D. Ranasinghe, V. G. Zakrzewski, J. Gao, N. Rega, 
 G. Zheng, W. Liang, M. Hada, M. Ehara, K. Toyota, R. Fukuda, 
 J. Hasegawa, M. Ishida, T. Nakajima, Y. Honda, O. Kitao, H. Nakai, 
 T. Vreven, K. Throssell, J. A. Montgomery, Jr., J. E. Peralta, 
 F. Ogliaro, M. J. Bearpark, J. J. Heyd, E. N. Brothers, K. N. Kudin, 
 V. N. Staroverov, T. A. Keith, R. Kobayashi, J. Normand, 
 K. Raghavachari, A. P. Rendell, J. C. Burant, S. S. Iyengar, 
 J. Tomasi, M. Cossi, J. M. Millam, M. Klene, C. Adamo, R. Cammi, 
 J. W. Ochterski, R. L. Martin, K. Morokuma, O. Farkas, 
 J. B. Foresman, and D. J. Fox, Gaussian, Inc., Wallingford CT, 2016.
 
 ******************************************
 Gaussian 16:  ES64L-G16RevB.01 20-Dec-2017
                21-Sep-2023 
 ******************************************
 %NProcShared=16
 Will use up to   16 processors via shared memory.
 %mem=12GB
 %Chk=checkpoint.chk
 -------------------------
 #p B3LYP/6-311+g(d) force
 -------------------------
 1/10=7,30=1,38=1/1,3;
 2/12=2,17=6,18=5,40=1/2;
 3/5=4,6=6,7=11,11=2,25=1,30=1,71=1,74=-5/1,2,3;
 4//1;
 5/5=2,38=5/2;
 6/7=2,8=2,9=2,10=2,28=1/1;
 7/29=1/1,2,3,16;
 1/10=7,30=1/3;
 99//99;
 Leave Link    1 at Thu Sep 21 21:11:12 2023, MaxMem=  1610612736 cpu:               0.2 elap:               0.0
 (Enter /home/sekinelabo/g16/l101.exe)


 Symbolic Z-matrix:
 Charge =  0 Multiplicity = 1
 Na                    0.        0.        0. 
 Na                   -1.06335   0.        5.31094 
 Na                    0.        0.        3.20814 
 Na                    1.2316   -0.27198   6.59476 
 
 ITRead=  0  0  0  0
 MicOpt= -1 -1 -1 -1
 NAtoms=      4 NQM=        4 NQMF=       0 NMMI=      0 NMMIF=      0
                NMic=       0 NMicF=      0.
                    Isotopes and Nuclear Properties:
 (Nuclear quadrupole moments (NQMom) in fm**2, nuclear magnetic moments (NMagM)
  in nuclear magnetons)

  Atom         1           2           3           4
 IAtWgt=          23          23          23          23
 AtmWgt=  22.9897697  22.9897697  22.9897697  22.9897697
 NucSpn=           3           3           3           3
 AtZEff=  -0.0000000  -0.0000000  -0.0000000  -0.0000000
 NQMom=   10.4000000  10.4000000  10.4000000  10.4000000
 NMagM=    2.2175200   2.2175200   2.2175200   2.2175200
 AtZNuc=  11.0000000  11.0000000  11.0000000  11.0000000
 Leave Link  101 at Thu Sep 21 21:11:12 2023, MaxMem=  1610612736 cpu:               1.7 elap:               0.1
 (Enter /home/sekinelabo/g16/l103.exe)

 GradGradGradGradGradGradGradGradGradGradGradGradGradGradGradGradGradGrad
 Berny optimization.
 Initialization pass.
 Trust Radius=3.00D-01 FncErr=1.00D-07 GrdErr=1.00D-07 EigMax=2.50D+02 EigMin=1.00D-04
 Number of steps in this run=      2 maximum allowed number of steps=      2.
 GradGradGradGradGradGradGradGradGradGradGradGradGradGradGradGradGradGrad

 Leave Link  103 at Thu Sep 21 21:11:12 2023, MaxMem=  1610612736 cpu:               0.2 elap:               0.0
 (Enter /home/sekinelabo/g16/l202.exe)
                          Input orientation:                          
 ---------------------------------------------------------------------
 Center     Atomic      Atomic             Coordinates (Angstroms)
 Number     Number       Type             X           Y           Z
 ---------------------------------------------------------------------
      1         11           0        0.000000    0.000000    0.000000
      2         11           0       -1.063352    0.000000    5.310944
      3         11           0        0.000000    0.000000    3.208141
      4         11           0        1.231605   -0.271975    6.594763
 ---------------------------------------------------------------------
                    Distance matrix (angstroms):
                    1          2          3          4
     1  Na   0.000000
     2  Na   5.416350   0.000000
     3  Na   3.208141   2.356375   0.000000
     4  Na   6.714292   2.643670   3.613867   0.000000
 Stoichiometry    Na4
 Framework group  C1[X(Na4)]
 Deg. of freedom     6
 Full point group                 C1      NOp   1
 Largest Abelian subgroup         C1      NOp   1
 Largest concise Abelian subgroup C1      NOp   1
                         Standard orientation:                         
 ---------------------------------------------------------------------
 Center     Atomic      Atomic             Coordinates (Angstroms)
 Number     Number       Type             X           Y           Z
 ---------------------------------------------------------------------
      1         11           0        3.769397   -0.272565   -0.022885
      2         11           0       -1.433552    1.232792   -0.014788
      3         11           0        0.573711    0.000243    0.050147
      4         11           0       -2.909555   -0.960470   -0.012474
 ---------------------------------------------------------------------
 Rotational constants (GHZ):           8.7233798           0.8771536           0.7972096
 Leave Link  202 at Thu Sep 21 21:11:12 2023, MaxMem=  1610612736 cpu:               0.0 elap:               0.0
 (Enter /home/sekinelabo/g16/l301.exe)
 Standard basis: 6-311+G(d) (5D, 7F)
 Ernie: Thresh=  0.10000D-02 Tol=  0.10000D-05 Strict=F.
 There are   124 symmetry adapted cartesian basis functions of A   symmetry.
 There are   120 symmetry adapted basis functions of A   symmetry.
   120 basis functions,   200 primitive gaussians,   124 cartesian basis functions
    22 alpha electrons       22 beta electrons
       nuclear repulsion energy       110.4284359953 Hartrees.
 IExCor=  402 DFT=T Ex+Corr=B3LYP ExCW=0 ScaHFX=  0.200000
 ScaDFX=  0.800000  0.720000  1.000000  0.810000 ScalE2=  1.000000  1.000000
 IRadAn=      5 IRanWt=     -1 IRanGd=            0 ICorTp=0 IEmpDi=  4
 NAtoms=    4 NActive=    4 NUniq=    4 SFac= 1.00D+00 NAtFMM=   60 NAOKFM=F Big=F
 Integral buffers will be    131072 words long.
 Raffenetti 2 integral format.
 Two-electron integral symmetry is turned on.
 Leave Link  301 at Thu Sep 21 21:11:12 2023, MaxMem=  1610612736 cpu:               0.4 elap:               0.0
 (Enter /home/sekinelabo/g16/l302.exe)
 NPDir=0 NMtPBC=     1 NCelOv=     1 NCel=       1 NClECP=     1 NCelD=      1
         NCelK=      1 NCelE2=     1 NClLst=     1 CellRange=     0.0.
 One-electron integrals computed using PRISM.
 One-electron integral symmetry used in STVInt
 NBasis=   120 RedAO= T EigKep=  2.69D-06  NBF=   120
 NBsUse=   120 1.00D-06 EigRej= -1.00D+00 NBFU=   120
 Precomputing XC quadrature grid using
 IXCGrd= 4 IRadAn=           5 IRanWt=          -1 IRanGd=           0 AccXCQ= 0.00D+00.
 Generated NRdTot=       0 NPtTot=           0 NUsed=           0 NTot=          32
 NSgBfM=   118   118   118   118   118 MxSgAt=     4 MxSgA2=     4.
 Leave Link  302 at Thu Sep 21 21:11:12 2023, MaxMem=  1610612736 cpu:               1.4 elap:               0.1
 (Enter /home/sekinelabo/g16/l303.exe)
 DipDrv:  MaxL=1.
 Leave Link  303 at Thu Sep 21 21:11:12 2023, MaxMem=  1610612736 cpu:               0.3 elap:               0.0
 (Enter /home/sekinelabo/g16/l401.exe)
 ExpMin= 7.60D-03 ExpMax= 3.62D+04 ExpMxC= 1.21D+03 IAcc=3 IRadAn=         5 AccDes= 0.00D+00
 Harris functional with IExCor=  402 and IRadAn=       5 diagonalized for initial guess.
 HarFok:  IExCor=  402 AccDes= 0.00D+00 IRadAn=         5 IDoV= 1 UseB2=F ITyADJ=14
 ICtDFT=  3500011 ScaDFX=  1.000000  1.000000  1.000000  1.000000
 FoFCou: FMM=F IPFlag=           0 FMFlag=      100000 FMFlg1=           0
         NFxFlg=           0 DoJE=T BraDBF=F KetDBF=T FulRan=T
         wScrn=  0.000000 ICntrl=       500 IOpCl=  0 I1Cent=   200000004 NGrid=           0
         NMat0=    1 NMatS0=      1 NMatT0=    0 NMatD0=    1 NMtDS0=    0 NMtDT0=    0
 Petite list used in FoFCou.
 Harris En= -649.050257596979    
 JPrj=0 DoOrth=F DoCkMO=F.
 Leave Link  401 at Thu Sep 21 21:11:12 2023, MaxMem=  1610612736 cpu:               2.1 elap:               0.1
 (Enter /home/sekinelabo/g16/l502.exe)
 Keep R1 ints in memory in canonical form, NReq=41581770.
 FoFCou: FMM=F IPFlag=           0 FMFlag=           0 FMFlg1=           0
         NFxFlg=           0 DoJE=F BraDBF=F KetDBF=F FulRan=T
         wScrn=  0.000000 ICntrl=       600 IOpCl=  0 I1Cent=           0 NGrid=           0
         NMat0=    1 NMatS0=   7260 NMatT0=    0 NMatD0=    1 NMtDS0=    0 NMtDT0=    0
 Symmetry not used in FoFCou.
 Two-electron integral symmetry not used.
 Closed shell SCF:
 Using DIIS extrapolation, IDIIS=  1040.
 NGot=  1610612736 LenX=  1584221372 LenY=  1584205555
 Requested convergence on RMS density matrix=1.00D-08 within 128 cycles.
 Requested convergence on MAX density matrix=1.00D-06.
 Requested convergence on             energy=1.00D-06.
 No special actions if energy rises.

 Cycle   1  Pass 1  IDiag  1:
 E= -649.162249086552    
 DIIS: error= 1.08D-02 at cycle   1 NSaved=   1.
 NSaved= 1 IEnMin= 1 EnMin= -649.162249086552     IErMin= 1 ErrMin= 1.08D-02
 ErrMax= 1.08D-02  0.00D+00 EMaxC= 1.00D-01 BMatC= 2.69D-02 BMatP= 2.69D-02
 IDIUse=3 WtCom= 8.92D-01 WtEn= 1.08D-01
 Coeff-Com:  0.100D+01
 Coeff-En:   0.100D+01
 Coeff:      0.100D+01
 Gap=     0.040 Goal=   None    Shift=    0.000
 GapD=    0.040 DampG=0.250 DampE=0.500 DampFc=0.2500 IDamp=-1.
 Damping current iteration by 2.50D-01
 RMSDP=3.46D-02 MaxDP=2.30D+00              OVMax= 2.35D-01

 Cycle   2  Pass 1  IDiag  1:
 E= -649.167384052273     Delta-E=       -0.005134965721 Rises=F Damp=T
 DIIS: error= 7.61D-03 at cycle   2 NSaved=   2.
 NSaved= 2 IEnMin= 2 EnMin= -649.167384052273     IErMin= 2 ErrMin= 7.61D-03
 ErrMax= 7.61D-03  0.00D+00 EMaxC= 1.00D-01 BMatC= 1.04D-02 BMatP= 2.69D-02
 IDIUse=3 WtCom= 9.24D-01 WtEn= 7.61D-02
 Coeff-Com: -0.129D+01 0.229D+01
 Coeff-En:   0.000D+00 0.100D+01
 Coeff:     -0.119D+01 0.219D+01
 Gap=     0.055 Goal=   None    Shift=    0.000
 RMSDP=1.95D-02 MaxDP=1.29D+00 DE=-5.13D-03 OVMax= 2.10D-01

 Cycle   3  Pass 1  IDiag  1:
 E= -649.176216835183     Delta-E=       -0.008832782910 Rises=F Damp=F
 DIIS: error= 2.30D-03 at cycle   3 NSaved=   3.
 NSaved= 3 IEnMin= 3 EnMin= -649.176216835183     IErMin= 3 ErrMin= 2.30D-03
 ErrMax= 2.30D-03  0.00D+00 EMaxC= 1.00D-01 BMatC= 3.05D-04 BMatP= 1.04D-02
 IDIUse=3 WtCom= 9.77D-01 WtEn= 2.30D-02
 Coeff-Com: -0.205D+00 0.348D+00 0.857D+00
 Coeff-En:   0.000D+00 0.000D+00 0.100D+01
 Coeff:     -0.201D+00 0.340D+00 0.860D+00
 Gap=     0.046 Goal=   None    Shift=    0.000
 RMSDP=4.40D-03 MaxDP=1.73D-01 DE=-8.83D-03 OVMax= 1.55D-01

 Cycle   4  Pass 1  IDiag  1:
 E= -649.175241983394     Delta-E=        0.000974851789 Rises=F Damp=F
 DIIS: error= 3.14D-03 at cycle   4 NSaved=   4.
 NSaved= 4 IEnMin= 3 EnMin= -649.176216835183     IErMin= 3 ErrMin= 2.30D-03
 ErrMax= 3.14D-03  0.00D+00 EMaxC= 1.00D-01 BMatC= 4.90D-04 BMatP= 3.05D-04
 IDIUse=3 WtCom= 1.51D-01 WtEn= 8.49D-01
 Coeff-Com: -0.500D-02 0.785D-02 0.559D+00 0.438D+00
 Coeff-En:   0.000D+00 0.000D+00 0.592D+00 0.408D+00
 Coeff:     -0.757D-03 0.119D-02 0.587D+00 0.412D+00
 Gap=     0.050 Goal=   None    Shift=    0.000
 RMSDP=2.19D-03 MaxDP=7.61D-02 DE= 9.75D-04 OVMax= 8.14D-02

 Cycle   5  Pass 1  IDiag  1:
 E= -649.177900492206     Delta-E=       -0.002658508812 Rises=F Damp=F
 DIIS: error= 2.34D-04 at cycle   5 NSaved=   5.
 NSaved= 5 IEnMin= 5 EnMin= -649.177900492206     IErMin= 5 ErrMin= 2.34D-04
 ErrMax= 2.34D-04  0.00D+00 EMaxC= 1.00D-01 BMatC= 3.87D-06 BMatP= 3.05D-04
 IDIUse=3 WtCom= 9.98D-01 WtEn= 2.34D-03
 Coeff-Com:  0.161D-02-0.305D-02 0.161D+00 0.710D-01 0.770D+00
 Coeff-En:   0.000D+00 0.000D+00 0.000D+00 0.000D+00 0.100D+01
 Coeff:      0.160D-02-0.304D-02 0.160D+00 0.709D-01 0.770D+00
 Gap=     0.051 Goal=   None    Shift=    0.000
 RMSDP=2.09D-04 MaxDP=5.04D-03 DE=-2.66D-03 OVMax= 7.31D-03

 Cycle   6  Pass 1  IDiag  1:
 E= -649.177917534243     Delta-E=       -0.000017042037 Rises=F Damp=F
 DIIS: error= 2.78D-05 at cycle   6 NSaved=   6.
 NSaved= 6 IEnMin= 6 EnMin= -649.177917534243     IErMin= 6 ErrMin= 2.78D-05
 ErrMax= 2.78D-05  0.00D+00 EMaxC= 1.00D-01 BMatC= 1.75D-07 BMatP= 3.87D-06
 IDIUse=1 WtCom= 1.00D+00 WtEn= 0.00D+00
 Coeff-Com: -0.101D-02 0.100D-02-0.941D-02-0.193D-01 0.201D+00 0.828D+00
 Coeff:     -0.101D-02 0.100D-02-0.941D-02-0.193D-01 0.201D+00 0.828D+00
 Gap=     0.051 Goal=   None    Shift=    0.000
 RMSDP=1.65D-04 MaxDP=9.30D-03 DE=-1.70D-05 OVMax= 6.31D-04

 Cycle   7  Pass 1  IDiag  1:
 E= -649.177917808613     Delta-E=       -0.000000274370 Rises=F Damp=F
 DIIS: error= 8.53D-06 at cycle   7 NSaved=   7.
 NSaved= 7 IEnMin= 7 EnMin= -649.177917808613     IErMin= 7 ErrMin= 8.53D-06
 ErrMax= 8.53D-06  0.00D+00 EMaxC= 1.00D-01 BMatC= 8.89D-09 BMatP= 1.75D-07
 IDIUse=1 WtCom= 1.00D+00 WtEn= 0.00D+00
 Coeff-Com: -0.515D-03 0.658D-03-0.937D-02-0.594D-02-0.381D-03 0.178D+00
 Coeff-Com:  0.837D+00
 Coeff:     -0.515D-03 0.658D-03-0.937D-02-0.594D-02-0.381D-03 0.178D+00
 Coeff:      0.837D+00
 Gap=     0.051 Goal=   None    Shift=    0.000
 RMSDP=2.99D-05 MaxDP=9.03D-04 DE=-2.74D-07 OVMax= 2.80D-04

 Cycle   8  Pass 1  IDiag  1:
 E= -649.177917833872     Delta-E=       -0.000000025258 Rises=F Damp=F
 DIIS: error= 2.31D-06 at cycle   8 NSaved=   8.
 NSaved= 8 IEnMin= 8 EnMin= -649.177917833872     IErMin= 8 ErrMin= 2.31D-06
 ErrMax= 2.31D-06  0.00D+00 EMaxC= 1.00D-01 BMatC= 1.31D-09 BMatP= 8.89D-09
 IDIUse=1 WtCom= 1.00D+00 WtEn= 0.00D+00
 Coeff-Com: -0.432D-04 0.578D-04-0.306D-02-0.141D-02-0.890D-02 0.281D-01
 Coeff-Com:  0.331D+00 0.654D+00
 Coeff:     -0.432D-04 0.578D-04-0.306D-02-0.141D-02-0.890D-02 0.281D-01
 Coeff:      0.331D+00 0.654D+00
 Gap=     0.051 Goal=   None    Shift=    0.000
 RMSDP=4.28D-06 MaxDP=9.50D-05 DE=-2.53D-08 OVMax= 5.89D-05

 Cycle   9  Pass 1  IDiag  1:
 E= -649.177917836304     Delta-E=       -0.000000002432 Rises=F Damp=F
 DIIS: error= 5.02D-07 at cycle   9 NSaved=   9.
 NSaved= 9 IEnMin= 9 EnMin= -649.177917836304     IErMin= 9 ErrMin= 5.02D-07
 ErrMax= 5.02D-07  0.00D+00 EMaxC= 1.00D-01 BMatC= 4.18D-11 BMatP= 1.31D-09
 IDIUse=1 WtCom= 1.00D+00 WtEn= 0.00D+00
 Coeff-Com:  0.470D-04-0.599D-04-0.178D-03 0.169D-03-0.421D-02-0.990D-02
 Coeff-Com:  0.173D-02 0.137D+00 0.875D+00
 Coeff:      0.470D-04-0.599D-04-0.178D-03 0.169D-03-0.421D-02-0.990D-02
 Coeff:      0.173D-02 0.137D+00 0.875D+00
 Gap=     0.051 Goal=   None    Shift=    0.000
 RMSDP=6.89D-06 MaxDP=4.25D-04 DE=-2.43D-09 OVMax= 2.13D-05

 Cycle  10  Pass 1  IDiag  1:
 E= -649.177917836448     Delta-E=       -0.000000000144 Rises=F Damp=F
 DIIS: error= 2.20D-07 at cycle  10 NSaved=  10.
 NSaved=10 IEnMin=10 EnMin= -649.177917836448     IErMin=10 ErrMin= 2.20D-07
 ErrMax= 2.20D-07  0.00D+00 EMaxC= 1.00D-01 BMatC= 2.22D-12 BMatP= 4.18D-11
 IDIUse=1 WtCom= 1.00D+00 WtEn= 0.00D+00
 Coeff-Com:  0.179D-04-0.232D-04 0.111D-04 0.877D-04-0.109D-02-0.426D-02
 Coeff-Com: -0.992D-02 0.252D-01 0.316D+00 0.674D+00
 Coeff:      0.179D-04-0.232D-04 0.111D-04 0.877D-04-0.109D-02-0.426D-02
 Coeff:     -0.992D-02 0.252D-01 0.316D+00 0.674D+00
 Gap=     0.051 Goal=   None    Shift=    0.000
 RMSDP=1.07D-06 MaxDP=6.72D-05 DE=-1.44D-10 OVMax= 5.22D-06

 Cycle  11  Pass 1  IDiag  1:
 E= -649.177917836452     Delta-E=       -0.000000000004 Rises=F Damp=F
 DIIS: error= 5.04D-08 at cycle  11 NSaved=  11.
 NSaved=11 IEnMin=11 EnMin= -649.177917836452     IErMin=11 ErrMin= 5.04D-08
 ErrMax= 5.04D-08  0.00D+00 EMaxC= 1.00D-01 BMatC= 1.98D-13 BMatP= 2.22D-12
 IDIUse=1 WtCom= 1.00D+00 WtEn= 0.00D+00
 Coeff-Com: -0.127D-05 0.162D-05 0.325D-04 0.140D-04 0.532D-04-0.227D-03
 Coeff-Com: -0.392D-02-0.645D-02 0.294D-01 0.199D+00 0.782D+00
 Coeff:     -0.127D-05 0.162D-05 0.325D-04 0.140D-04 0.532D-04-0.227D-03
 Coeff:     -0.392D-02-0.645D-02 0.294D-01 0.199D+00 0.782D+00
 Gap=     0.051 Goal=   None    Shift=    0.000
 RMSDP=7.31D-08 MaxDP=2.62D-06 DE=-4.09D-12 OVMax= 9.97D-07

 Cycle  12  Pass 1  IDiag  1:
 E= -649.177917836455     Delta-E=       -0.000000000003 Rises=F Damp=F
 DIIS: error= 1.18D-08 at cycle  12 NSaved=  12.
 NSaved=12 IEnMin=12 EnMin= -649.177917836455     IErMin=12 ErrMin= 1.18D-08
 ErrMax= 1.18D-08  0.00D+00 EMaxC= 1.00D-01 BMatC= 8.28D-15 BMatP= 1.98D-13
 IDIUse=1 WtCom= 1.00D+00 WtEn= 0.00D+00
 Coeff-Com: -0.483D-06 0.602D-06 0.750D-05-0.253D-05 0.725D-04 0.937D-04
 Coeff-Com: -0.190D-03-0.173D-02-0.788D-02-0.122D-01 0.888D-01 0.933D+00
 Coeff:     -0.483D-06 0.602D-06 0.750D-05-0.253D-05 0.725D-04 0.937D-04
 Coeff:     -0.190D-03-0.173D-02-0.788D-02-0.122D-01 0.888D-01 0.933D+00
 Gap=     0.051 Goal=   None    Shift=    0.000
 RMSDP=6.05D-08 MaxDP=3.03D-06 DE=-3.18D-12 OVMax= 4.74D-07

 Cycle  13  Pass 1  IDiag  1:
 E= -649.177917836459     Delta-E=       -0.000000000004 Rises=F Damp=F
 DIIS: error= 4.16D-09 at cycle  13 NSaved=  13.
 NSaved=13 IEnMin=13 EnMin= -649.177917836459     IErMin=13 ErrMin= 4.16D-09
 ErrMax= 4.16D-09  0.00D+00 EMaxC= 1.00D-01 BMatC= 1.30D-15 BMatP= 8.28D-15
 IDIUse=1 WtCom= 1.00D+00 WtEn= 0.00D+00
 Coeff-Com:  0.851D-08-0.168D-07 0.273D-06-0.119D-05 0.179D-04 0.365D-04
 Coeff-Com:  0.149D-03-0.120D-03-0.366D-02-0.169D-01-0.333D-01 0.355D+00
 Coeff-Com:  0.699D+00
 Coeff:      0.851D-08-0.168D-07 0.273D-06-0.119D-05 0.179D-04 0.365D-04
 Coeff:      0.149D-03-0.120D-03-0.366D-02-0.169D-01-0.333D-01 0.355D+00
 Coeff:      0.699D+00
 Gap=     0.051 Goal=   None    Shift=    0.000
 RMSDP=7.00D-09 MaxDP=2.87D-07 DE=-3.64D-12 OVMax= 1.86D-07

 SCF Done:  E(RB3LYP) =  -649.177917836     A.U. after   13 cycles
            NFock= 13  Conv=0.70D-08     -V/T= 2.0025
 KE= 6.475359033337D+02 PE=-1.780086557783D+03 EE= 3.729443006176D+02
 Leave Link  502 at Thu Sep 21 21:11:14 2023, MaxMem=  1610612736 cpu:              20.3 elap:               1.4
 (Enter /home/sekinelabo/g16/l601.exe)
 Copying SCF densities to generalized density rwf, IOpCl= 0 IROHF=0.

 **********************************************************************

            Population analysis using the SCF Density.

 **********************************************************************

 Orbital symmetries:
       Occupied  (A) (A) (A) (A) (A) (A) (A) (A) (A) (A) (A) (A)
                 (A) (A) (A) (A) (A) (A) (A) (A) (A) (A)
       Virtual   (A) (A) (A) (A) (A) (A) (A) (A) (A) (A) (A) (A)
                 (A) (A) (A) (A) (A) (A) (A) (A) (A) (A) (A) (A)
                 (A) (A) (A) (A) (A) (A) (A) (A) (A) (A) (A) (A)
                 (A) (A) (A) (A) (A) (A) (A) (A) (A) (A) (A) (A)
                 (A) (A) (A) (A) (A) (A) (A) (A) (A) (A) (A) (A)
                 (A) (A) (A) (A) (A) (A) (A) (A) (A) (A) (A) (A)
                 (A) (A) (A) (A) (A) (A) (A) (A) (A) (A) (A) (A)
                 (A) (A) (A) (A) (A) (A) (A) (A) (A) (A) (A) (A)
                 (A) (A)
 The electronic state is 1-A.
 Alpha  occ. eigenvalues --  -38.46863 -38.45173 -38.44584 -38.43056  -2.22939
 Alpha  occ. eigenvalues --   -2.21068  -2.20593  -2.18837  -1.17069  -1.16632
 Alpha  occ. eigenvalues --   -1.16440  -1.14762  -1.14680  -1.14677  -1.14233
 Alpha  occ. eigenvalues --   -1.14158  -1.14084  -1.12501  -1.12496  -1.12482
 Alpha  occ. eigenvalues --   -0.16680  -0.11480
 Alpha virt. eigenvalues --   -0.06381  -0.04726  -0.04212  -0.02103  -0.01166
 Alpha virt. eigenvalues --   -0.01100  -0.00619   0.00292   0.00445   0.00536
 Alpha virt. eigenvalues --    0.00914   0.00948   0.01112   0.01493   0.01594
 Alpha virt. eigenvalues --    0.01748   0.01777   0.02063   0.02136   0.02359
 Alpha virt. eigenvalues --    0.02676   0.02738   0.03091   0.03311   0.03515
 Alpha virt. eigenvalues --    0.03677   0.04096   0.04597   0.05453   0.05657
 Alpha virt. eigenvalues --    0.06584   0.06610   0.07520   0.08211   0.08338
 Alpha virt. eigenvalues --    0.09005   0.09090   0.09120   0.10695   0.10885
 Alpha virt. eigenvalues --    0.11170   0.12146   0.14489   0.14796   0.16426
 Alpha virt. eigenvalues --    0.18218   0.26398   0.27283   0.28186   0.31713
 Alpha virt. eigenvalues --    0.33371   0.34789   0.35076   0.35487   0.36187
 Alpha virt. eigenvalues --    0.37158   0.37460   0.39045   0.40724   0.41543
 Alpha virt. eigenvalues --    0.42219   0.42663   0.43410   0.44626   0.44860
 Alpha virt. eigenvalues --    0.44929   0.45336   0.45552   0.46927   0.48007
 Alpha virt. eigenvalues --    0.49832   0.52482   0.54627   0.60120   0.60935
 Alpha virt. eigenvalues --    0.69772   0.84922   0.93203   2.03785   2.09159
 Alpha virt. eigenvalues --    2.11998   2.20943   4.41268   4.42740   4.44646
 Alpha virt. eigenvalues --    4.44969   4.46093   4.46179   4.48812   4.49143
 Alpha virt. eigenvalues --    4.50736   4.59386   4.78170   4.81681  96.24702
 Alpha virt. eigenvalues --   96.31534  96.33965  96.44973
          Condensed to atoms (all electrons):
               1          2          3          4
     1  Na  11.416538  -1.778789   1.466180   0.110111
     2  Na  -1.778789  15.050275  -3.817291  -0.447959
     3  Na   1.466180  -3.817291  14.666500   0.612100
     4  Na   0.110111  -0.447959   0.612100  10.577984
 Mulliken charges:
               1
     1  Na  -0.214040
     2  Na   1.993764
     3  Na  -1.927488
     4  Na   0.147765
 Sum of Mulliken charges =   0.00000
 Mulliken charges with hydrogens summed into heavy atoms:
               1
     1  Na  -0.214040
     2  Na   1.993764
     3  Na  -1.927488
     4  Na   0.147765
 Electronic spatial extent (au):  <R**2>=           1169.0972
 Charge=              0.0000 electrons
 Dipole moment (field-independent basis, Debye):
    X=             -2.0444    Y=             -0.1482    Z=             -0.0304  Tot=              2.0500
 Quadrupole moment (field-independent basis, Debye-Ang):
   XX=            -36.5521   YY=            -35.7696   ZZ=            -43.0601
   XY=              1.2074   XZ=             -0.1089   YZ=             -0.0453
 Traceless Quadrupole moment (field-independent basis, Debye-Ang):
   XX=              1.9085   YY=              2.6910   ZZ=             -4.5995
   XY=              1.2074   XZ=             -0.1089   YZ=             -0.0453
 Octapole moment (field-independent basis, Debye-Ang**2):
  XXX=             11.7185  YYY=              4.7430  ZZZ=             -0.0838  XYY=            -22.4217
  XXY=            -18.9336  XXZ=             -0.9384  XZZ=             -7.4150  YZZ=              0.3089
  YYZ=             -0.1751  XYZ=              0.0464
 Hexadecapole moment (field-independent basis, Debye-Ang**3):
 XXXX=          -1513.5541 YYYY=           -254.4398 ZZZZ=           -168.8038 XXXY=             39.0066
 XXXZ=             -3.3254 YYYX=              2.3482 YYYZ=             -0.2596 ZZZX=             -0.5123
 ZZZY=             -0.1979 XXYY=           -316.5031 XXZZ=           -331.8476 YYZZ=            -72.2219
 XXYZ=              0.2977 YYXZ=             -0.0011 ZZXY=              1.7707
 N-N= 1.104284359953D+02 E-N=-1.780086558344D+03  KE= 6.475359033337D+02
 No NMR shielding tensors so no spin-rotation constants.
 Leave Link  601 at Thu Sep 21 21:11:14 2023, MaxMem=  1610612736 cpu:               0.9 elap:               0.1
 (Enter /home/sekinelabo/g16/l701.exe)
 ... and contract with generalized density number  0.
 Compute integral first derivatives.
 Leave Link  701 at Thu Sep 21 21:11:14 2023, MaxMem=  1610612736 cpu:               1.3 elap:               0.1
 (Enter /home/sekinelabo/g16/l702.exe)
 L702 exits ... SP integral derivatives will be done elsewhere.
 Leave Link  702 at Thu Sep 21 21:11:14 2023, MaxMem=  1610612736 cpu:               0.3 elap:               0.0
 (Enter /home/sekinelabo/g16/l703.exe)
 Integral derivatives from FoFJK, PRISM(SPDF).
 Compute integral first derivatives, UseDBF=F ICtDFT=           0.
 Calling FoFJK, ICntrl=      2127 FMM=F ISym2X=0 I1Cent= 0 IOpClX= 0 NMat=1 NMatS=1 NMatT=0.
 FoFJK:  IHMeth= 1 ICntrl=    2127 DoSepK=F KAlg= 0 I1Cent=           0 FoldK=F
 IRaf=         0 NMat=       1 IRICut=       1 DoRegI=T DoRafI=F ISym2E= 0 IDoP0=0 IntGTp=1.
 FoFCou: FMM=F IPFlag=           0 FMFlag=      100000 FMFlg1=         800
         NFxFlg=           0 DoJE=F BraDBF=F KetDBF=F FulRan=T
         wScrn=  0.000000 ICntrl=      2127 IOpCl=  0 I1Cent=           0 NGrid=           0
         NMat0=    1 NMatS0=      1 NMatT0=    0 NMatD0=    1 NMtDS0=    0 NMtDT0=    0
 Symmetry not used in FoFCou.
 Leave Link  703 at Thu Sep 21 21:11:14 2023, MaxMem=  1610612736 cpu:               6.5 elap:               0.4
 (Enter /home/sekinelabo/g16/l716.exe)
 Dipole        =-8.04325181D-01-5.83162624D-02-1.19637245D-02
 ***** Axes restored to original set *****
 -------------------------------------------------------------------
 Center     Atomic                   Forces (Hartrees/Bohr)
 Number     Number              X              Y              Z
 -------------------------------------------------------------------
      1       11          -0.000880455    0.000108563    0.001113414
      2       11          -0.026271623    0.001494188    0.018789650
      3       11           0.014318903   -0.000058897   -0.028856331
      4       11           0.012833174   -0.001543853    0.008953268
 -------------------------------------------------------------------
 Cartesian Forces:  Max     0.028856331 RMS     0.013941741
 Z-matrix is all fixed cartesians, so copy forces.
 Force constants in Cartesian coordinates: 
                1             2             3             4             5 
      1  0.133253D-01
      2 -0.119564D-02  0.137114D-01
      3  0.000000D+00  0.000000D+00  0.272057D-01
      4  0.828713D-02 -0.433437D-03  0.000000D+00  0.122560D+00
      5  0.246517D-03  0.950413D-02  0.000000D+00 -0.929290D-02  0.831567D-02
      6  0.419066D-02 -0.219182D-03  0.000000D+00 -0.219785D-01 -0.363908D-02
      7 -0.270377D-01  0.203375D-02  0.000000D+00 -0.656538D-01  0.911975D-03
      8  0.196866D-02 -0.311888D-01  0.000000D+00  0.339396D-02 -0.227648D-01
      9 -0.213577D-02 -0.568302D-03 -0.272057D-01  0.325889D-01  0.130988D-02
     10  0.542533D-02 -0.404672D-03  0.000000D+00 -0.651937D-01  0.813441D-02
     11 -0.101954D-02  0.797321D-02  0.000000D+00  0.633238D-02  0.494499D-02
     12 -0.205489D-02  0.787484D-03  0.000000D+00 -0.106104D-01  0.232921D-02
                6             7             8             9            10 
      6  0.132214D+00
      7  0.502868D-01  0.988610D-01
      8 -0.155826D-03 -0.520308D-02  0.725276D-01
      9 -0.108542D+00 -0.351682D-01 -0.863148D-03  0.155263D+00
     10 -0.324990D-01 -0.616945D-02 -0.159540D-03  0.471513D-02  0.659378D-01
     11  0.401409D-02  0.225736D-02 -0.185740D-01  0.121575D-03 -0.757020D-02
     12 -0.236723D-01 -0.151185D-01  0.101897D-02 -0.195152D-01  0.277838D-01
               11            12 
     11  0.565583D-02
     12 -0.413566D-02  0.431875D-01
 Leave Link  716 at Thu Sep 21 21:11:15 2023, MaxMem=  1610612736 cpu:               0.3 elap:               0.0
 (Enter /home/sekinelabo/g16/l103.exe)

 GradGradGradGradGradGradGradGradGradGradGradGradGradGradGradGradGradGrad
 Berny optimization.
 Search for a local minimum.
 Step number   1 out of a maximum of    2
 All quantities printed in internal units (Hartrees-Bohrs-Radians)
 Second derivative matrix not updated -- first step.
 The second derivative matrix:
                          X1        Y1        Z1        X2        Y2
           X1           0.01333
           Y1          -0.00120   0.01371
           Z1           0.00000   0.00000   0.02721
           X2           0.00829  -0.00043   0.00000   0.12256
           Y2           0.00025   0.00950   0.00000  -0.00929   0.00832
           Z2           0.00419  -0.00022   0.00000  -0.02198  -0.00364
           X3          -0.02704   0.00203  -0.00000  -0.06565   0.00091
           Y3           0.00197  -0.03119  -0.00000   0.00339  -0.02276
           Z3          -0.00214  -0.00057  -0.02721   0.03259   0.00131
           X4           0.00543  -0.00040  -0.00000  -0.06519   0.00813
           Y4          -0.00102   0.00797   0.00000   0.00633   0.00494
           Z4          -0.00205   0.00079   0.00000  -0.01061   0.00233
                          Z2        X3        Y3        Z3        X4
           Z2           0.13221
           X3           0.05029   0.09886
           Y3          -0.00016  -0.00520   0.07253
           Z3          -0.10854  -0.03517  -0.00086   0.15526
           X4          -0.03250  -0.00617  -0.00016   0.00472   0.06594
           Y4           0.00401   0.00226  -0.01857   0.00012  -0.00757
           Z4          -0.02367  -0.01512   0.00102  -0.01952   0.02778
                          Y4        Z4
           Y4           0.00566
           Z4          -0.00414   0.04319
 ITU=  0
     Eigenvalues ---    0.02882   0.04606   0.09577   0.11136   0.18027
     Eigenvalues ---    0.29599
 Angle between quadratic step and forces=  31.61 degrees.
 Linear search not attempted -- first point.
 B after Tr=     0.000000    0.000000    0.000000
         Rot=    1.000000    0.000000    0.000000    0.000000 Ang=   0.00 deg.
 Variable       Old X    -DE/DX   Delta X   Delta X   Delta X     New X
                                 (Linear)    (Quad)   (Total)
    X1       -0.00000  -0.00088   0.00000  -0.00506  -0.00506  -0.00506
    Y1        0.00000   0.00011   0.00000   0.00195   0.00195   0.00195
    Z1       -0.00000   0.00111   0.00000  -0.07220  -0.07220  -0.07220
    X2       -2.00944  -0.02627   0.00000  -0.10313  -0.10313  -2.11258
    Y2       -0.00000   0.00149   0.00000   0.00703   0.00703   0.00703
    Z2       10.03623   0.01879   0.00000   0.06496   0.06496  10.10119
    X3       -0.00000   0.01432   0.00000   0.02558   0.02558   0.02558
    Y3        0.00000  -0.00006   0.00000   0.00320   0.00320   0.00320
    Z3        6.06251  -0.02886   0.00000  -0.11313  -0.11313   5.94938
    X4        2.32740   0.01283   0.00000   0.08262   0.08262   2.41001
    Y4       -0.51396  -0.00154   0.00000  -0.01218  -0.01218  -0.52614
    Z4       12.46230   0.00895   0.00000   0.12036   0.12036  12.58266
         Item               Value     Threshold  Converged?
 Maximum Force            0.028856     0.000450     NO 
 RMS     Force            0.013942     0.000300     NO 
 Maximum Displacement     0.120363     0.001800     NO 
 RMS     Displacement     0.067744     0.001200     NO 
 Predicted change in Energy=-4.826021D-03
 GradGradGradGradGradGradGradGradGradGradGradGradGradGradGradGradGradGrad

 Leave Link  103 at Thu Sep 21 21:11:15 2023, MaxMem=  1610612736 cpu:               0.1 elap:               0.0
 (Enter /home/sekinelabo/g16/l9999.exe)
 1\1\GINC-SEKINELABO-XA7R-R37\Force\RB3LYP\6-311+G(d)\Na4\SEKINELABO\21
 -Sep-2023\0\\#p B3LYP/6-311+g(d) force\\\0,1\Na,0.,0.,0.\Na,-1.0633522
 524,0.,5.3109442324\Na,0.,0.,3.2081405961\Na,1.2316048313,-0.271975139
 5,6.5947632068\\Version=ES64L-G16RevB.01\State=1-A\HF=-649.1779178\RMS
 D=7.005e-09\RMSF=1.394e-02\Dipole=0.122612,-0.0433468,0.7959713\Quadru
 pole=2.0904824,-3.3625473,1.2720649,-0.5667127,0.8283127,-0.117582\PG=
 C01 [X(Na4)]\\@


 Any fool can criticize, condemn, and complain -- and most do.
 -- Dale Carnegie
 Job cpu time:       0 days  0 hours  0 minutes 36.3 seconds.
 Elapsed time:       0 days  0 hours  0 minutes  2.5 seconds.
 File lengths (MBytes):  RWF=     10 Int=      0 D2E=      0 Chk=      2 Scr=      1
 Normal termination of Gaussian 16 at Thu Sep 21 21:11:15 2023.
 Initial command:
 /home/sekinelabo/g16/l1.exe "/home/sekinelabo/g16temp/Gau-3232751.inp" -scrdir="/home/sekinelabo/g16temp/"
 Entering Link 1 = /home/sekinelabo/g16/l1.exe PID=   3232996.
  
 Copyright (c) 1988-2017, Gaussian, Inc.  All Rights Reserved.
  
 This is part of the Gaussian(R) 16 program.  It is based on
 the Gaussian(R) 09 system (copyright 2009, Gaussian, Inc.),
 the Gaussian(R) 03 system (copyright 2003, Gaussian, Inc.),
 the Gaussian(R) 98 system (copyright 1998, Gaussian, Inc.),
 the Gaussian(R) 94 system (copyright 1995, Gaussian, Inc.),
 the Gaussian 92(TM) system (copyright 1992, Gaussian, Inc.),
 the Gaussian 90(TM) system (copyright 1990, Gaussian, Inc.),
 the Gaussian 88(TM) system (copyright 1988, Gaussian, Inc.),
 the Gaussian 86(TM) system (copyright 1986, Carnegie Mellon
 University), and the Gaussian 82(TM) system (copyright 1983,
 Carnegie Mellon University). Gaussian is a federally registered
 trademark of Gaussian, Inc.
  
 This software contains proprietary and confidential information,
 including trade secrets, belonging to Gaussian, Inc.
  
 This software is provided under written license and may be
 used, copied, transmitted, or stored only in accord with that
 written license.
  
 The following legend is applicable only to US Government
 contracts under FAR:
  
                    RESTRICTED RIGHTS LEGEND
  
 Use, reproduction and disclosure by the US Government is
 subject to restrictions as set forth in subparagraphs (a)
 and (c) of the Commercial Computer Software - Restricted
 Rights clause in FAR 52.227-19.
  
 Gaussian, Inc.
 340 Quinnipiac St., Bldg. 40, Wallingford CT 06492
  
  
 ---------------------------------------------------------------
 Warning -- This program may not be used in any manner that
 competes with the business of Gaussian, Inc. or will provide
 assistance to any competitor of Gaussian, Inc.  The licensee
 of this program is prohibited from giving any competitor of
 Gaussian, Inc. access to this program.  By using this program,
 the user acknowledges that Gaussian, Inc. is engaged in the
 business of creating and licensing software in the field of
 computational chemistry and represents and warrants to the
 licensee that it is not a competitor of Gaussian, Inc. and that
 it will not use this program in any manner prohibited above.
 ---------------------------------------------------------------
  

 Cite this work as:
 Gaussian 16, Revision B.01,
 M. J. Frisch, G. W. Trucks, H. B. Schlegel, G. E. Scuseria, 
 M. A. Robb, J. R. Cheeseman, G. Scalmani, V. Barone, 
 G. A. Petersson, H. Nakatsuji, X. Li, M. Caricato, A. V. Marenich, 
 J. Bloino, B. G. Janesko, R. Gomperts, B. Mennucci, H. P. Hratchian, 
 J. V. Ortiz, A. F. Izmaylov, J. L. Sonnenberg, D. Williams-Young, 
 F. Ding, F. Lipparini, F. Egidi, J. Goings, B. Peng, A. Petrone, 
 T. Henderson, D. Ranasinghe, V. G. Zakrzewski, J. Gao, N. Rega, 
 G. Zheng, W. Liang, M. Hada, M. Ehara, K. Toyota, R. Fukuda, 
 J. Hasegawa, M. Ishida, T. Nakajima, Y. Honda, O. Kitao, H. Nakai, 
 T. Vreven, K. Throssell, J. A. Montgomery, Jr., J. E. Peralta, 
 F. Ogliaro, M. J. Bearpark, J. J. Heyd, E. N. Brothers, K. N. Kudin, 
 V. N. Staroverov, T. A. Keith, R. Kobayashi, J. Normand, 
 K. Raghavachari, A. P. Rendell, J. C. Burant, S. S. Iyengar, 
 J. Tomasi, M. Cossi, J. M. Millam, M. Klene, C. Adamo, R. Cammi, 
 J. W. Ochterski, R. L. Martin, K. Morokuma, O. Farkas, 
 J. B. Foresman, and D. J. Fox, Gaussian, Inc., Wallingford CT, 2016.
 
 ******************************************
 Gaussian 16:  ES64L-G16RevB.01 20-Dec-2017
                21-Sep-2023 
 ******************************************
 %NProcShared=16
 Will use up to   16 processors via shared memory.
 %mem=12GB
 %Chk=checkpoint.chk
 -------------------------
 #p B3LYP/6-311+g(d) force
 -------------------------
 1/10=7,30=1,38=1/1,3;
 2/12=2,17=6,18=5,40=1/2;
 3/5=4,6=6,7=11,11=2,25=1,30=1,71=1,74=-5/1,2,3;
 4//1;
 5/5=2,38=5/2;
 6/7=2,8=2,9=2,10=2,28=1/1;
 7/29=1/1,2,3,16;
 1/10=7,30=1/3;
 99//99;
 Leave Link    1 at Thu Sep 21 21:11:15 2023, MaxMem=  1610612736 cpu:               0.2 elap:               0.0
 (Enter /home/sekinelabo/g16/l101.exe)


 Symbolic Z-matrix:
 Charge =  0 Multiplicity = 1
 Na                    0.        0.        0. 
 Na                   -1.67549   0.        3.88777 
 Na                    0.        0.        2.26381 
 Na                   -5.52439  -0.17852   3.79697 
 
 ITRead=  0  0  0  0
 MicOpt= -1 -1 -1 -1
 NAtoms=      4 NQM=        4 NQMF=       0 NMMI=      0 NMMIF=      0
                NMic=       0 NMicF=      0.
                    Isotopes and Nuclear Properties:
 (Nuclear quadrupole moments (NQMom) in fm**2, nuclear magnetic moments (NMagM)
  in nuclear magnetons)

  Atom         1           2           3           4
 IAtWgt=          23          23          23          23
 AtmWgt=  22.9897697  22.9897697  22.9897697  22.9897697
 NucSpn=           3           3           3           3
 AtZEff=  -0.0000000  -0.0000000  -0.0000000  -0.0000000
 NQMom=   10.4000000  10.4000000  10.4000000  10.4000000
 NMagM=    2.2175200   2.2175200   2.2175200   2.2175200
 AtZNuc=  11.0000000  11.0000000  11.0000000  11.0000000
 Leave Link  101 at Thu Sep 21 21:11:15 2023, MaxMem=  1610612736 cpu:               1.7 elap:               0.1
 (Enter /home/sekinelabo/g16/l103.exe)

 GradGradGradGradGradGradGradGradGradGradGradGradGradGradGradGradGradGrad
 Berny optimization.
 Initialization pass.
 Trust Radius=3.00D-01 FncErr=1.00D-07 GrdErr=1.00D-07 EigMax=2.50D+02 EigMin=1.00D-04
 Number of steps in this run=      2 maximum allowed number of steps=      2.
 GradGradGradGradGradGradGradGradGradGradGradGradGradGradGradGradGradGrad

 Leave Link  103 at Thu Sep 21 21:11:15 2023, MaxMem=  1610612736 cpu:               0.2 elap:               0.0
 (Enter /home/sekinelabo/g16/l202.exe)
                          Input orientation:                          
 ---------------------------------------------------------------------
 Center     Atomic      Atomic             Coordinates (Angstroms)
 Number     Number       Type             X           Y           Z
 ---------------------------------------------------------------------
      1         11           0        0.000000    0.000000    0.000000
      2         11           0       -1.675490    0.000000    3.887770
      3         11           0        0.000000    0.000000    2.263806
      4         11           0       -5.524389   -0.178517    3.796966
 ---------------------------------------------------------------------
                    Distance matrix (angstroms):
                    1          2          3          4
     1  Na   0.000000
     2  Na   4.233441   0.000000
     3  Na   2.263806   2.333351   0.000000
     4  Na   6.705796   3.854106   5.735967   0.000000
 Stoichiometry    Na4
 Framework group  C1[X(Na4)]
 Deg. of freedom     6
 Full point group                 C1      NOp   1
 Largest Abelian subgroup         C1      NOp   1
 Largest concise Abelian subgroup C1      NOp   1
                         Standard orientation:                         
 ---------------------------------------------------------------------
 Center     Atomic      Atomic             Coordinates (Angstroms)
 Number     Number       Type             X           Y           Z
 ---------------------------------------------------------------------
      1         11           0        2.817386   -1.220641   -0.009845
      2         11           0       -0.606337    1.269351   -0.019207
      3         11           0        1.662507    0.726146    0.023234
      4         11           0       -3.873557   -0.774856    0.005818
 ---------------------------------------------------------------------
 Rotational constants (GHZ):           5.1969425           0.8430685           0.7254422
 Leave Link  202 at Thu Sep 21 21:11:15 2023, MaxMem=  1610612736 cpu:               0.0 elap:               0.0
 (Enter /home/sekinelabo/g16/l301.exe)
 Standard basis: 6-311+G(d) (5D, 7F)
 Ernie: Thresh=  0.10000D-02 Tol=  0.10000D-05 Strict=F.
 There are   124 symmetry adapted cartesian basis functions of A   symmetry.
 There are   120 symmetry adapted basis functions of A   symmetry.
   120 basis functions,   200 primitive gaussians,   124 cartesian basis functions
    22 alpha electrons       22 beta electrons
       nuclear repulsion energy       108.1758062651 Hartrees.
 IExCor=  402 DFT=T Ex+Corr=B3LYP ExCW=0 ScaHFX=  0.200000
 ScaDFX=  0.800000  0.720000  1.000000  0.810000 ScalE2=  1.000000  1.000000
 IRadAn=      5 IRanWt=     -1 IRanGd=            0 ICorTp=0 IEmpDi=  4
 NAtoms=    4 NActive=    4 NUniq=    4 SFac= 1.00D+00 NAtFMM=   60 NAOKFM=F Big=F
 Integral buffers will be    131072 words long.
 Raffenetti 2 integral format.
 Two-electron integral symmetry is turned on.
 Leave Link  301 at Thu Sep 21 21:11:15 2023, MaxMem=  1610612736 cpu:               0.4 elap:               0.0
 (Enter /home/sekinelabo/g16/l302.exe)
 NPDir=0 NMtPBC=     1 NCelOv=     1 NCel=       1 NClECP=     1 NCelD=      1
         NCelK=      1 NCelE2=     1 NClLst=     1 CellRange=     0.0.
 One-electron integrals computed using PRISM.
 One-electron integral symmetry used in STVInt
 NBasis=   120 RedAO= T EigKep=  3.37D-06  NBF=   120
 NBsUse=   120 1.00D-06 EigRej= -1.00D+00 NBFU=   120
 Precomputing XC quadrature grid using
 IXCGrd= 4 IRadAn=           5 IRanWt=          -1 IRanGd=           0 AccXCQ= 0.00D+00.
 Generated NRdTot=       0 NPtTot=           0 NUsed=           0 NTot=          32
 NSgBfM=   117   117   117   117   117 MxSgAt=     4 MxSgA2=     4.
 Leave Link  302 at Thu Sep 21 21:11:15 2023, MaxMem=  1610612736 cpu:               1.6 elap:               0.1
 (Enter /home/sekinelabo/g16/l303.exe)
 DipDrv:  MaxL=1.
 Leave Link  303 at Thu Sep 21 21:11:15 2023, MaxMem=  1610612736 cpu:               0.3 elap:               0.0
 (Enter /home/sekinelabo/g16/l401.exe)
 ExpMin= 7.60D-03 ExpMax= 3.62D+04 ExpMxC= 1.21D+03 IAcc=3 IRadAn=         5 AccDes= 0.00D+00
 Harris functional with IExCor=  402 and IRadAn=       5 diagonalized for initial guess.
 HarFok:  IExCor=  402 AccDes= 0.00D+00 IRadAn=         5 IDoV= 1 UseB2=F ITyADJ=14
 ICtDFT=  3500011 ScaDFX=  1.000000  1.000000  1.000000  1.000000
 FoFCou: FMM=F IPFlag=           0 FMFlag=      100000 FMFlg1=           0
         NFxFlg=           0 DoJE=T BraDBF=F KetDBF=T FulRan=T
         wScrn=  0.000000 ICntrl=       500 IOpCl=  0 I1Cent=   200000004 NGrid=           0
         NMat0=    1 NMatS0=      1 NMatT0=    0 NMatD0=    1 NMtDS0=    0 NMtDT0=    0
 Petite list used in FoFCou.
 Harris En= -649.021641451865    
 JPrj=0 DoOrth=F DoCkMO=F.
 Leave Link  401 at Thu Sep 21 21:11:15 2023, MaxMem=  1610612736 cpu:               2.5 elap:               0.2
 (Enter /home/sekinelabo/g16/l502.exe)
 Keep R1 ints in memory in canonical form, NReq=41581762.
 FoFCou: FMM=F IPFlag=           0 FMFlag=           0 FMFlg1=           0
         NFxFlg=           0 DoJE=F BraDBF=F KetDBF=F FulRan=T
         wScrn=  0.000000 ICntrl=       600 IOpCl=  0 I1Cent=           0 NGrid=           0
         NMat0=    1 NMatS0=   7260 NMatT0=    0 NMatD0=    1 NMtDS0=    0 NMtDT0=    0
 Symmetry not used in FoFCou.
 Two-electron integral symmetry not used.
 Closed shell SCF:
 Using DIIS extrapolation, IDIIS=  1040.
 NGot=  1610612736 LenX=  1584221380 LenY=  1584205563
 Requested convergence on RMS density matrix=1.00D-08 within 128 cycles.
 Requested convergence on MAX density matrix=1.00D-06.
 Requested convergence on             energy=1.00D-06.
 No special actions if energy rises.

 Cycle   1  Pass 1  IDiag  1:
 E= -649.136599169941    
 DIIS: error= 1.04D-02 at cycle   1 NSaved=   1.
 NSaved= 1 IEnMin= 1 EnMin= -649.136599169941     IErMin= 1 ErrMin= 1.04D-02
 ErrMax= 1.04D-02  0.00D+00 EMaxC= 1.00D-01 BMatC= 2.77D-02 BMatP= 2.77D-02
 IDIUse=3 WtCom= 8.96D-01 WtEn= 1.04D-01
 Coeff-Com:  0.100D+01
 Coeff-En:   0.100D+01
 Coeff:      0.100D+01
 Gap=     0.037 Goal=   None    Shift=    0.000
 GapD=    0.037 DampG=0.250 DampE=0.500 DampFc=0.2500 IDamp=-1.
 Damping current iteration by 2.50D-01
 RMSDP=6.51D-03 MaxDP=2.13D-01              OVMax= 1.64D-01

 Cycle   2  Pass 1  IDiag  1:
 E= -649.140952972552     Delta-E=       -0.004353802611 Rises=F Damp=T
 DIIS: error= 7.43D-03 at cycle   2 NSaved=   2.
 NSaved= 2 IEnMin= 2 EnMin= -649.140952972552     IErMin= 2 ErrMin= 7.43D-03
 ErrMax= 7.43D-03  0.00D+00 EMaxC= 1.00D-01 BMatC= 1.05D-02 BMatP= 2.77D-02
 IDIUse=3 WtCom= 9.26D-01 WtEn= 7.43D-02
 Coeff-Com: -0.126D+01 0.226D+01
 Coeff-En:   0.000D+00 0.100D+01
 Coeff:     -0.117D+01 0.217D+01
 Gap=     0.042 Goal=   None    Shift=    0.000
 RMSDP=7.35D-03 MaxDP=3.30D-01 DE=-4.35D-03 OVMax= 2.05D-01

 Cycle   3  Pass 1  IDiag  1:
 E= -649.146718153474     Delta-E=       -0.005765180922 Rises=F Damp=F
 DIIS: error= 3.15D-03 at cycle   3 NSaved=   3.
 NSaved= 3 IEnMin= 3 EnMin= -649.146718153474     IErMin= 3 ErrMin= 3.15D-03
 ErrMax= 3.15D-03  0.00D+00 EMaxC= 1.00D-01 BMatC= 4.49D-04 BMatP= 1.05D-02
 IDIUse=3 WtCom= 9.68D-01 WtEn= 3.15D-02
 Coeff-Com: -0.245D+00 0.422D+00 0.822D+00
 Coeff-En:   0.000D+00 0.000D+00 0.100D+01
 Coeff:     -0.237D+00 0.409D+00 0.828D+00
 Gap=     0.036 Goal=   None    Shift=    0.000
 RMSDP=6.61D-03 MaxDP=2.84D-01 DE=-5.77D-03 OVMax= 2.82D-01

 Cycle   4  Pass 1  IDiag  1:
 E= -649.138300662138     Delta-E=        0.008417491336 Rises=F Damp=F
 DIIS: error= 6.56D-03 at cycle   4 NSaved=   4.
 NSaved= 4 IEnMin= 3 EnMin= -649.146718153474     IErMin= 3 ErrMin= 3.15D-03
 ErrMax= 6.56D-03  0.00D+00 EMaxC= 1.00D-01 BMatC= 1.62D-03 BMatP= 4.49D-04
 IDIUse=3 WtCom= 1.10D-01 WtEn= 8.90D-01
 Coeff-Com:  0.573D-02-0.262D-02 0.656D+00 0.341D+00
 Coeff-En:   0.000D+00 0.000D+00 0.718D+00 0.282D+00
 Coeff:      0.630D-03-0.288D-03 0.712D+00 0.288D+00
 Gap=     0.039 Goal=   None    Shift=    0.000
 RMSDP=3.24D-03 MaxDP=1.37D-01 DE= 8.42D-03 OVMax= 1.47D-01

 Cycle   5  Pass 1  IDiag  1:
 E= -649.149414297130     Delta-E=       -0.011113634992 Rises=F Damp=F
 DIIS: error= 1.35D-03 at cycle   5 NSaved=   5.
 NSaved= 5 IEnMin= 5 EnMin= -649.149414297130     IErMin= 5 ErrMin= 1.35D-03
 ErrMax= 1.35D-03  0.00D+00 EMaxC= 1.00D-01 BMatC= 7.49D-05 BMatP= 4.49D-04
 IDIUse=3 WtCom= 9.86D-01 WtEn= 1.35D-02
 Coeff-Com:  0.181D-02-0.335D-02 0.262D+00-0.262D-01 0.766D+00
 Coeff-En:   0.000D+00 0.000D+00 0.200D+00 0.000D+00 0.800D+00
 Coeff:      0.178D-02-0.330D-02 0.261D+00-0.259D-01 0.767D+00
 Gap=     0.041 Goal=   None    Shift=    0.000
 RMSDP=1.02D-03 MaxDP=4.36D-02 DE=-1.11D-02 OVMax= 4.14D-02

 Cycle   6  Pass 1  IDiag  1:
 E= -649.149952638181     Delta-E=       -0.000538341052 Rises=F Damp=F
 DIIS: error= 3.31D-05 at cycle   6 NSaved=   6.
 NSaved= 6 IEnMin= 6 EnMin= -649.149952638181     IErMin= 6 ErrMin= 3.31D-05
 ErrMax= 3.31D-05  0.00D+00 EMaxC= 1.00D-01 BMatC= 3.33D-07 BMatP= 7.49D-05
 IDIUse=1 WtCom= 1.00D+00 WtEn= 0.00D+00
 Coeff-Com: -0.256D-02 0.311D-02 0.362D-01-0.221D-01 0.196D+00 0.789D+00
 Coeff:     -0.256D-02 0.311D-02 0.362D-01-0.221D-01 0.196D+00 0.789D+00
 Gap=     0.041 Goal=   None    Shift=    0.000
 RMSDP=1.11D-04 MaxDP=2.14D-03 DE=-5.38D-04 OVMax= 1.49D-03

 Cycle   7  Pass 1  IDiag  1:
 E= -649.149953490614     Delta-E=       -0.000000852432 Rises=F Damp=F
 DIIS: error= 2.55D-05 at cycle   7 NSaved=   7.
 NSaved= 7 IEnMin= 7 EnMin= -649.149953490614     IErMin= 7 ErrMin= 2.55D-05
 ErrMax= 2.55D-05  0.00D+00 EMaxC= 1.00D-01 BMatC= 4.84D-08 BMatP= 3.33D-07
 IDIUse=1 WtCom= 1.00D+00 WtEn= 0.00D+00
 Coeff-Com: -0.108D-02 0.139D-02-0.283D-02-0.617D-02 0.292D-01 0.280D+00
 Coeff-Com:  0.700D+00
 Coeff:     -0.108D-02 0.139D-02-0.283D-02-0.617D-02 0.292D-01 0.280D+00
 Coeff:      0.700D+00
 Gap=     0.041 Goal=   None    Shift=    0.000
 RMSDP=4.34D-05 MaxDP=2.25D-03 DE=-8.52D-07 OVMax= 6.54D-04

 Cycle   8  Pass 1  IDiag  1:
 E= -649.149953669935     Delta-E=       -0.000000179321 Rises=F Damp=F
 DIIS: error= 5.38D-06 at cycle   8 NSaved=   8.
 NSaved= 8 IEnMin= 8 EnMin= -649.149953669935     IErMin= 8 ErrMin= 5.38D-06
 ErrMax= 5.38D-06  0.00D+00 EMaxC= 1.00D-01 BMatC= 2.91D-09 BMatP= 4.84D-08
 IDIUse=1 WtCom= 1.00D+00 WtEn= 0.00D+00
 Coeff-Com: -0.181D-03 0.243D-03-0.348D-02-0.466D-03-0.519D-02 0.572D-01
 Coeff-Com:  0.227D+00 0.724D+00
 Coeff:     -0.181D-03 0.243D-03-0.348D-02-0.466D-03-0.519D-02 0.572D-01
 Coeff:      0.227D+00 0.724D+00
 Gap=     0.041 Goal=   None    Shift=    0.000
 RMSDP=6.34D-06 MaxDP=2.28D-04 DE=-1.79D-07 OVMax= 2.09D-04

 Cycle   9  Pass 1  IDiag  1:
 E= -649.149953678830     Delta-E=       -0.000000008895 Rises=F Damp=F
 DIIS: error= 1.33D-06 at cycle   9 NSaved=   9.
 NSaved= 9 IEnMin= 9 EnMin= -649.149953678830     IErMin= 9 ErrMin= 1.33D-06
 ErrMax= 1.33D-06  0.00D+00 EMaxC= 1.00D-01 BMatC= 3.79D-10 BMatP= 2.91D-09
 IDIUse=1 WtCom= 1.00D+00 WtEn= 0.00D+00
 Coeff-Com:  0.251D-04-0.290D-04-0.167D-02 0.239D-03-0.487D-02 0.553D-03
 Coeff-Com:  0.437D-01 0.306D+00 0.656D+00
 Coeff:      0.251D-04-0.290D-04-0.167D-02 0.239D-03-0.487D-02 0.553D-03
 Coeff:      0.437D-01 0.306D+00 0.656D+00
 Gap=     0.041 Goal=   None    Shift=    0.000
 RMSDP=4.32D-06 MaxDP=2.38D-04 DE=-8.89D-09 OVMax= 4.65D-05

 Cycle  10  Pass 1  IDiag  1:
 E= -649.149953679790     Delta-E=       -0.000000000961 Rises=F Damp=F
 DIIS: error= 6.54D-07 at cycle  10 NSaved=  10.
 NSaved=10 IEnMin=10 EnMin= -649.149953679790     IErMin=10 ErrMin= 6.54D-07
 ErrMax= 6.54D-07  0.00D+00 EMaxC= 1.00D-01 BMatC= 3.93D-11 BMatP= 3.79D-10
 IDIUse=1 WtCom= 1.00D+00 WtEn= 0.00D+00
 Coeff-Com:  0.291D-04-0.379D-04-0.439D-03 0.274D-03-0.200D-02-0.809D-02
 Coeff-Com: -0.110D-01 0.168D-01 0.201D+00 0.803D+00
 Coeff:      0.291D-04-0.379D-04-0.439D-03 0.274D-03-0.200D-02-0.809D-02
 Coeff:     -0.110D-01 0.168D-01 0.201D+00 0.803D+00
 Gap=     0.041 Goal=   None    Shift=    0.000
 RMSDP=1.85D-06 MaxDP=9.82D-05 DE=-9.61D-10 OVMax= 2.34D-05

 Cycle  11  Pass 1  IDiag  1:
 E= -649.149953680010     Delta-E=       -0.000000000220 Rises=F Damp=F
 DIIS: error= 8.43D-08 at cycle  11 NSaved=  11.
 NSaved=11 IEnMin=11 EnMin= -649.149953680010     IErMin=11 ErrMin= 8.43D-08
 ErrMax= 8.43D-08  0.00D+00 EMaxC= 1.00D-01 BMatC= 8.61D-13 BMatP= 3.93D-11
 IDIUse=1 WtCom= 1.00D+00 WtEn= 0.00D+00
 Coeff-Com: -0.312D-05 0.384D-05-0.159D-05 0.256D-04-0.358D-04-0.105D-03
 Coeff-Com: -0.117D-02-0.132D-01-0.266D-01 0.122D+00 0.919D+00
 Coeff:     -0.312D-05 0.384D-05-0.159D-05 0.256D-04-0.358D-04-0.105D-03
 Coeff:     -0.117D-02-0.132D-01-0.266D-01 0.122D+00 0.919D+00
 Gap=     0.041 Goal=   None    Shift=    0.000
 RMSDP=4.35D-07 MaxDP=2.24D-05 DE=-2.20D-10 OVMax= 2.42D-06

 Cycle  12  Pass 1  IDiag  1:
 E= -649.149953680009     Delta-E=        0.000000000001 Rises=F Damp=F
 DIIS: error= 2.28D-08 at cycle  12 NSaved=  12.
 NSaved=12 IEnMin=11 EnMin= -649.149953680010     IErMin=12 ErrMin= 2.28D-08
 ErrMax= 2.28D-08  0.00D+00 EMaxC= 1.00D-01 BMatC= 4.59D-14 BMatP= 8.61D-13
 IDIUse=1 WtCom= 1.00D+00 WtEn= 0.00D+00
 Coeff-Com: -0.233D-05 0.303D-05 0.750D-05-0.355D-05 0.353D-04 0.356D-03
 Coeff-Com:  0.399D-03-0.377D-03-0.889D-02-0.166D-01 0.207D+00 0.818D+00
 Coeff:     -0.233D-05 0.303D-05 0.750D-05-0.355D-05 0.353D-04 0.356D-03
 Coeff:      0.399D-03-0.377D-03-0.889D-02-0.166D-01 0.207D+00 0.818D+00
 Gap=     0.041 Goal=   None    Shift=    0.000
 RMSDP=3.16D-08 MaxDP=7.93D-07 DE= 1.48D-12 OVMax= 6.54D-07

 Cycle  13  Pass 1  IDiag  1:
 E= -649.149953680010     Delta-E=       -0.000000000001 Rises=F Damp=F
 DIIS: error= 1.32D-08 at cycle  13 NSaved=  13.
 NSaved=13 IEnMin=11 EnMin= -649.149953680010     IErMin=13 ErrMin= 1.32D-08
 ErrMax= 1.32D-08  0.00D+00 EMaxC= 1.00D-01 BMatC= 5.99D-15 BMatP= 4.59D-14
 IDIUse=1 WtCom= 1.00D+00 WtEn= 0.00D+00
 Coeff-Com: -0.210D-06 0.284D-06 0.182D-05-0.204D-05 0.137D-04 0.988D-04
 Coeff-Com:  0.171D-03 0.577D-03-0.157D-02-0.127D-01 0.124D-03 0.205D+00
 Coeff-Com:  0.809D+00
 Coeff:     -0.210D-06 0.284D-06 0.182D-05-0.204D-05 0.137D-04 0.988D-04
 Coeff:      0.171D-03 0.577D-03-0.157D-02-0.127D-01 0.124D-03 0.205D+00
 Coeff:      0.809D+00
 Gap=     0.041 Goal=   None    Shift=    0.000
 RMSDP=1.66D-08 MaxDP=6.65D-07 DE=-1.48D-12 OVMax= 4.25D-07

 Cycle  14  Pass 1  IDiag  1:
 E= -649.149953680008     Delta-E=        0.000000000002 Rises=F Damp=F
 DIIS: error= 1.81D-09 at cycle  14 NSaved=  14.
 NSaved=14 IEnMin=11 EnMin= -649.149953680010     IErMin=14 ErrMin= 1.81D-09
 ErrMax= 1.81D-09  0.00D+00 EMaxC= 1.00D-01 BMatC= 3.07D-16 BMatP= 5.99D-15
 IDIUse=1 WtCom= 1.00D+00 WtEn= 0.00D+00
 Coeff-Com:  0.194D-06-0.252D-06 0.379D-06-0.473D-06 0.180D-05-0.332D-06
 Coeff-Com:  0.210D-04 0.293D-03 0.252D-03-0.356D-02-0.184D-01 0.126D-01
 Coeff-Com:  0.250D+00 0.759D+00
 Coeff:      0.194D-06-0.252D-06 0.379D-06-0.473D-06 0.180D-05-0.332D-06
 Coeff:      0.210D-04 0.293D-03 0.252D-03-0.356D-02-0.184D-01 0.126D-01
 Coeff:      0.250D+00 0.759D+00
 Gap=     0.041 Goal=   None    Shift=    0.000
 RMSDP=3.47D-09 MaxDP=1.61D-07 DE= 2.27D-12 OVMax= 9.44D-08

 SCF Done:  E(RB3LYP) =  -649.149953680     A.U. after   14 cycles
            NFock= 14  Conv=0.35D-08     -V/T= 2.0025
 KE= 6.475489591307D+02 PE=-1.775060830669D+03 EE= 3.701861115935D+02
 Leave Link  502 at Thu Sep 21 21:11:17 2023, MaxMem=  1610612736 cpu:              21.4 elap:               1.5
 (Enter /home/sekinelabo/g16/l601.exe)
 Copying SCF densities to generalized density rwf, IOpCl= 0 IROHF=0.

 **********************************************************************

            Population analysis using the SCF Density.

 **********************************************************************

 Orbital symmetries:
       Occupied  (A) (A) (A) (A) (A) (A) (A) (A) (A) (A) (A) (A)
                 (A) (A) (A) (A) (A) (A) (A) (A) (A) (A)
       Virtual   (A) (A) (A) (A) (A) (A) (A) (A) (A) (A) (A) (A)
                 (A) (A) (A) (A) (A) (A) (A) (A) (A) (A) (A) (A)
                 (A) (A) (A) (A) (A) (A) (A) (A) (A) (A) (A) (A)
                 (A) (A) (A) (A) (A) (A) (A) (A) (A) (A) (A) (A)
                 (A) (A) (A) (A) (A) (A) (A) (A) (A) (A) (A) (A)
                 (A) (A) (A) (A) (A) (A) (A) (A) (A) (A) (A) (A)
                 (A) (A) (A) (A) (A) (A) (A) (A) (A) (A) (A) (A)
                 (A) (A) (A) (A) (A) (A) (A) (A) (A) (A) (A) (A)
                 (A) (A)
 The electronic state is 1-A.
 Alpha  occ. eigenvalues --  -38.47353 -38.46541 -38.46035 -38.44604  -2.23573
 Alpha  occ. eigenvalues --   -2.22473  -2.21943  -2.20319  -1.18423  -1.17305
 Alpha  occ. eigenvalues --   -1.16955  -1.16026  -1.15987  -1.15900  -1.15497
 Alpha  occ. eigenvalues --   -1.15472  -1.15291  -1.13997  -1.13995  -1.13941
 Alpha  occ. eigenvalues --   -0.16480  -0.11529
 Alpha virt. eigenvalues --   -0.07416  -0.04275  -0.04200  -0.02897  -0.01352
 Alpha virt. eigenvalues --   -0.01178  -0.00807   0.00092   0.00326   0.00512
 Alpha virt. eigenvalues --    0.00756   0.01042   0.01140   0.01427   0.01541
 Alpha virt. eigenvalues --    0.01675   0.01824   0.01994   0.02128   0.02211
 Alpha virt. eigenvalues --    0.02314   0.02865   0.02876   0.03126   0.03378
 Alpha virt. eigenvalues --    0.03614   0.04309   0.04709   0.05439   0.06209
 Alpha virt. eigenvalues --    0.06280   0.06569   0.07445   0.07923   0.07991
 Alpha virt. eigenvalues --    0.08509   0.08578   0.09221   0.09443   0.10623
 Alpha virt. eigenvalues --    0.11445   0.12063   0.13580   0.14206   0.17164
 Alpha virt. eigenvalues --    0.18045   0.27225   0.27755   0.27820   0.31657
 Alpha virt. eigenvalues --    0.33446   0.33631   0.34693   0.34786   0.35168
 Alpha virt. eigenvalues --    0.35541   0.36057   0.37604   0.38045   0.38785
 Alpha virt. eigenvalues --    0.40097   0.42420   0.43025   0.43094   0.44104
 Alpha virt. eigenvalues --    0.44228   0.44439   0.45217   0.45420   0.48251
 Alpha virt. eigenvalues --    0.49023   0.50732   0.56183   0.59197   0.64125
 Alpha virt. eigenvalues --    0.67910   0.82023   0.96896   2.03408   2.06548
 Alpha virt. eigenvalues --    2.12486   2.18144   4.40668   4.44117   4.44383
 Alpha virt. eigenvalues --    4.44953   4.45106   4.45730   4.46073   4.48340
 Alpha virt. eigenvalues --    4.52291   4.56169   4.70610   4.88416  96.23172
 Alpha virt. eigenvalues --   96.27095  96.34875  96.41903
          Condensed to atoms (all electrons):
               1          2          3          4
     1  Na  11.111301  -0.100875   0.354089  -0.149867
     2  Na  -0.100875  11.236182  -0.599565   0.480120
     3  Na   0.354089  -0.599565  11.569665  -0.398553
     4  Na  -0.149867   0.480120  -0.398553  10.912155
 Mulliken charges:
               1
     1  Na  -0.214648
     2  Na  -0.015862
     3  Na   0.074364
     4  Na   0.156146
 Sum of Mulliken charges =  -0.00000
 Mulliken charges with hydrogens summed into heavy atoms:
               1
     1  Na  -0.214648
     2  Na  -0.015862
     3  Na   0.074364
     4  Na   0.156146
 Electronic spatial extent (au):  <R**2>=           1278.4680
 Charge=             -0.0000 electrons
 Dipole moment (field-independent basis, Debye):
    X=              0.7441    Y=             -0.8287    Z=             -0.0044  Tot=              1.1137
 Quadrupole moment (field-independent basis, Debye-Ang):
   XX=            -39.0762   YY=            -35.8573   ZZ=            -43.5498
   XY=              1.6910   XZ=             -0.0552   YZ=              0.0262
 Traceless Quadrupole moment (field-independent basis, Debye-Ang):
   XX=              0.4182   YY=              3.6371   ZZ=             -4.0554
   XY=              1.6910   XZ=             -0.0552   YZ=              0.0262
 Octapole moment (field-independent basis, Debye-Ang**2):
  XXX=            -23.2869  YYY=             -3.5816  ZZZ=             -0.0174  XYY=             12.6071
  XXY=            -30.9646  XXZ=              0.0306  XZZ=              5.0890  YZZ=             -0.4502
  YYZ=             -0.1053  XYZ=              0.2671
 Hexadecapole moment (field-independent basis, Debye-Ang**3):
 XXXX=          -1693.6991 YYYY=           -369.3088 ZZZZ=           -172.9958 XXXY=             44.6271
 XXXZ=             -1.7085 YYYX=             -2.1719 YYYZ=              0.0206 ZZZX=             -0.2859
 ZZZY=              0.0993 XXYY=           -339.8243 XXZZ=           -349.3989 YYZZ=            -92.0630
 XXYZ=              0.4221 YYXZ=             -0.1137 ZZXY=              3.2152
 N-N= 1.081758062651D+02 E-N=-1.775060830358D+03  KE= 6.475489591307D+02
 No NMR shielding tensors so no spin-rotation constants.
 Leave Link  601 at Thu Sep 21 21:11:17 2023, MaxMem=  1610612736 cpu:               0.9 elap:               0.1
 (Enter /home/sekinelabo/g16/l701.exe)
 ... and contract with generalized density number  0.
 Compute integral first derivatives.
 Leave Link  701 at Thu Sep 21 21:11:17 2023, MaxMem=  1610612736 cpu:               1.3 elap:               0.1
 (Enter /home/sekinelabo/g16/l702.exe)
 L702 exits ... SP integral derivatives will be done elsewhere.
 Leave Link  702 at Thu Sep 21 21:11:17 2023, MaxMem=  1610612736 cpu:               0.3 elap:               0.0
 (Enter /home/sekinelabo/g16/l703.exe)
 Integral derivatives from FoFJK, PRISM(SPDF).
 Compute integral first derivatives, UseDBF=F ICtDFT=           0.
 Calling FoFJK, ICntrl=      2127 FMM=F ISym2X=0 I1Cent= 0 IOpClX= 0 NMat=1 NMatS=1 NMatT=0.
 FoFJK:  IHMeth= 1 ICntrl=    2127 DoSepK=F KAlg= 0 I1Cent=           0 FoldK=F
 IRaf=         0 NMat=       1 IRICut=       1 DoRegI=T DoRafI=F ISym2E= 0 IDoP0=0 IntGTp=1.
 FoFCou: FMM=F IPFlag=           0 FMFlag=      100000 FMFlg1=         800
         NFxFlg=           0 DoJE=F BraDBF=F KetDBF=F FulRan=T
         wScrn=  0.000000 ICntrl=      2127 IOpCl=  0 I1Cent=           0 NGrid=           0
         NMat0=    1 NMatS0=      1 NMatT0=    0 NMatD0=    1 NMtDS0=    0 NMtDT0=    0
 Symmetry not used in FoFCou.
 Leave Link  703 at Thu Sep 21 21:11:17 2023, MaxMem=  1610612736 cpu:               6.4 elap:               0.4
 (Enter /home/sekinelabo/g16/l716.exe)
 Dipole        = 2.92758168D-01-3.26016530D-01-1.73940375D-03
 ***** Axes restored to original set *****
 -------------------------------------------------------------------
 Center     Atomic                   Forces (Hartrees/Bohr)
 Number     Number              X              Y              Z
 -------------------------------------------------------------------
      1       11           0.000827537    0.000056760   -0.035279156
      2       11          -0.030107298   -0.000304064    0.021483862
      3       11           0.023005002   -0.000047497    0.012863507
      4       11           0.006274759    0.000294801    0.000931787
 -------------------------------------------------------------------
 Cartesian Forces:  Max     0.035279156 RMS     0.016704378
 Z-matrix is all fixed cartesians, so copy forces.
 Force constants in Cartesian coordinates: 
                1             2             3             4             5 
      1  0.136604D-01
      2  0.000000D+00  0.960316D-02
      3  0.000000D+00  0.000000D+00  0.160653D+00
      4  0.922400D-02 -0.553384D-03  0.000000D+00  0.940340D-01
      5  0.000000D+00  0.187060D-01  0.000000D+00  0.294748D-03  0.365736D-01
      6  0.951666D-02 -0.570941D-03  0.000000D+00 -0.492318D-01  0.471895D-03
      7 -0.228844D-01  0.296875D-03  0.000000D+00 -0.911873D-01 -0.247415D-03
      8  0.000000D+00 -0.226441D-01  0.000000D+00  0.738086D-03 -0.441856D-01
      9 -0.951666D-02  0.306294D-03 -0.160653D+00  0.548130D-01 -0.255266D-03
     10  0.000000D+00  0.256508D-03  0.000000D+00 -0.120707D-01 -0.473323D-04
     11  0.000000D+00 -0.566504D-02  0.000000D+00 -0.479450D-03 -0.110939D-01
     12  0.000000D+00  0.264647D-03  0.000000D+00 -0.558120D-02 -0.216630D-03
                6             7             8             9            10 
      6  0.945498D-01
      7  0.397541D-01  0.114203D+00
      8  0.243423D-03 -0.120270D-03  0.534487D-01
      9 -0.842567D-01 -0.451614D-01 -0.124086D-03  0.239330D+00
     10 -0.388725D-04 -0.130855D-03 -0.617816D-03 -0.135007D-03  0.122015D-01
     11 -0.144377D-03  0.708101D-04  0.133811D-01  0.730567D-04  0.408640D-03
     12 -0.102931D-01  0.540732D-02 -0.119337D-03  0.557889D-02  0.173879D-03
               11            12 
     11  0.337787D-02
     12  0.713204D-04  0.471419D-02
 Leave Link  716 at Thu Sep 21 21:11:17 2023, MaxMem=  1610612736 cpu:               0.3 elap:               0.0
 (Enter /home/sekinelabo/g16/l103.exe)

 GradGradGradGradGradGradGradGradGradGradGradGradGradGradGradGradGradGrad
 Berny optimization.
 Search for a local minimum.
 Step number   1 out of a maximum of    2
 All quantities printed in internal units (Hartrees-Bohrs-Radians)
 Second derivative matrix not updated -- first step.
 The second derivative matrix:
                          X1        Y1        Z1        X2        Y2
           X1           0.01366
           Y1          -0.00000   0.00960
           Z1          -0.00000  -0.00000   0.16065
           X2           0.00922  -0.00055  -0.00000   0.09403
           Y2          -0.00000   0.01871   0.00000   0.00029   0.03657
           Z2           0.00952  -0.00057  -0.00000  -0.04923   0.00047
           X3          -0.02288   0.00030  -0.00000  -0.09119  -0.00025
           Y3           0.00000  -0.02264  -0.00000   0.00074  -0.04419
           Z3          -0.00952   0.00031  -0.16065   0.05481  -0.00026
           X4          -0.00000   0.00026   0.00000  -0.01207  -0.00005
           Y4          -0.00000  -0.00567  -0.00000  -0.00048  -0.01109
           Z4          -0.00000   0.00026   0.00000  -0.00558  -0.00022
                          Z2        X3        Y3        Z3        X4
           Z2           0.09455
           X3           0.03975   0.11420
           Y3           0.00024  -0.00012   0.05345
           Z3          -0.08426  -0.04516  -0.00012   0.23933
           X4          -0.00004  -0.00013  -0.00062  -0.00014   0.01220
           Y4          -0.00014   0.00007   0.01338   0.00007   0.00041
           Z4          -0.01029   0.00541  -0.00012   0.00558   0.00017
                          Y4        Z4
           Y4           0.00338
           Z4           0.00007   0.00471
 ITU=  0
     Eigenvalues ---    0.00931   0.02248   0.08506   0.10294   0.21034
     Eigenvalues ---    0.40622
 Quadratic step=4.619D-01 exceeds max=3.000D-01 adjusted using Lamda=-2.734D-02.
 Angle between NR and scaled steps=  18.52 degrees.
 Angle between quadratic step and forces=  26.74 degrees.
 Linear search not attempted -- first point.
 B after Tr=     0.000000    0.000000    0.000000
         Rot=    1.000000   -0.000000    0.000000    0.000000 Ang=   0.00 deg.
 Variable       Old X    -DE/DX   Delta X   Delta X   Delta X     New X
                                 (Linear)    (Quad)   (Total)
    X1       -0.00000   0.00083   0.00000   0.06103   0.06103   0.06103
    Y1       -0.00000   0.00006   0.00000   0.00134   0.00134   0.00134
    Z1        0.00000  -0.03528   0.00000  -0.16059  -0.16059  -0.16059
    X2       -3.16622  -0.03011   0.00000  -0.19035  -0.19035  -3.35657
    Y2       -0.00000  -0.00030   0.00000  -0.00476  -0.00476  -0.00476
    Z2        7.34682   0.02148   0.00000   0.10893   0.10893   7.45575
    X3       -0.00000   0.02301   0.00000   0.02860   0.02860   0.02860
    Y3       -0.00000  -0.00005   0.00000  -0.00129  -0.00129  -0.00129
    Z3        4.27797   0.01286   0.00000   0.03168   0.03168   4.30966
    X4      -10.43958   0.00627   0.00000   0.10072   0.10072 -10.33886
    Y4       -0.33735   0.00029   0.00000   0.00470   0.00470  -0.33265
    Z4        7.17523   0.00093   0.00000   0.01997   0.01997   7.19520
         Item               Value     Threshold  Converged?
 Maximum Force            0.035279     0.000450     NO 
 RMS     Force            0.016704     0.000300     NO 
 Maximum Displacement     0.190349     0.001800     NO 
 RMS     Displacement     0.086615     0.001200     NO 
 Predicted change in Energy=-8.983740D-03
 GradGradGradGradGradGradGradGradGradGradGradGradGradGradGradGradGradGrad

 Leave Link  103 at Thu Sep 21 21:11:17 2023, MaxMem=  1610612736 cpu:               0.1 elap:               0.0
 (Enter /home/sekinelabo/g16/l9999.exe)
 1\1\GINC-SEKINELABO-XA7R-R37\Force\RB3LYP\6-311+G(d)\Na4\SEKINELABO\21
 -Sep-2023\0\\#p B3LYP/6-311+g(d) force\\\0,1\Na,0.,0.,0.\Na,-1.6754898
 435,0.,3.8877704481\Na,0.,0.,2.2638060425\Na,-5.5243887493,-0.17851692
 28,3.7969664219\\Version=ES64L-G16RevB.01\State=1-A\HF=-649.1499537\RM
 SD=3.465e-09\RMSF=1.670e-02\Dipole=0.0855656,-0.0011618,-0.4297375\Qua
 drupole=2.0254714,-3.0035315,0.97806,0.2487733,1.6501821,0.085899\PG=C
 01 [X(Na4)]\\@


 STEINBACH'S GUIDELINES FOR SYSTEMS PROGRAMMING:
 NEVER TEST FOR AN ERROR CONDITION YOU DON'T KNOW HOW
 TO HANDLE.
 Job cpu time:       0 days  0 hours  0 minutes 38.0 seconds.
 Elapsed time:       0 days  0 hours  0 minutes  2.6 seconds.
 File lengths (MBytes):  RWF=     10 Int=      0 D2E=      0 Chk=      2 Scr=      1
 Normal termination of Gaussian 16 at Thu Sep 21 21:11:17 2023.
 Initial command:
 /home/sekinelabo/g16/l1.exe "/home/sekinelabo/g16temp/Gau-3232751.inp" -scrdir="/home/sekinelabo/g16temp/"
 Entering Link 1 = /home/sekinelabo/g16/l1.exe PID=   3233238.
  
 Copyright (c) 1988-2017, Gaussian, Inc.  All Rights Reserved.
  
 This is part of the Gaussian(R) 16 program.  It is based on
 the Gaussian(R) 09 system (copyright 2009, Gaussian, Inc.),
 the Gaussian(R) 03 system (copyright 2003, Gaussian, Inc.),
 the Gaussian(R) 98 system (copyright 1998, Gaussian, Inc.),
 the Gaussian(R) 94 system (copyright 1995, Gaussian, Inc.),
 the Gaussian 92(TM) system (copyright 1992, Gaussian, Inc.),
 the Gaussian 90(TM) system (copyright 1990, Gaussian, Inc.),
 the Gaussian 88(TM) system (copyright 1988, Gaussian, Inc.),
 the Gaussian 86(TM) system (copyright 1986, Carnegie Mellon
 University), and the Gaussian 82(TM) system (copyright 1983,
 Carnegie Mellon University). Gaussian is a federally registered
 trademark of Gaussian, Inc.
  
 This software contains proprietary and confidential information,
 including trade secrets, belonging to Gaussian, Inc.
  
 This software is provided under written license and may be
 used, copied, transmitted, or stored only in accord with that
 written license.
  
 The following legend is applicable only to US Government
 contracts under FAR:
  
                    RESTRICTED RIGHTS LEGEND
  
 Use, reproduction and disclosure by the US Government is
 subject to restrictions as set forth in subparagraphs (a)
 and (c) of the Commercial Computer Software - Restricted
 Rights clause in FAR 52.227-19.
  
 Gaussian, Inc.
 340 Quinnipiac St., Bldg. 40, Wallingford CT 06492
  
  
 ---------------------------------------------------------------
 Warning -- This program may not be used in any manner that
 competes with the business of Gaussian, Inc. or will provide
 assistance to any competitor of Gaussian, Inc.  The licensee
 of this program is prohibited from giving any competitor of
 Gaussian, Inc. access to this program.  By using this program,
 the user acknowledges that Gaussian, Inc. is engaged in the
 business of creating and licensing software in the field of
 computational chemistry and represents and warrants to the
 licensee that it is not a competitor of Gaussian, Inc. and that
 it will not use this program in any manner prohibited above.
 ---------------------------------------------------------------
  

 Cite this work as:
 Gaussian 16, Revision B.01,
 M. J. Frisch, G. W. Trucks, H. B. Schlegel, G. E. Scuseria, 
 M. A. Robb, J. R. Cheeseman, G. Scalmani, V. Barone, 
 G. A. Petersson, H. Nakatsuji, X. Li, M. Caricato, A. V. Marenich, 
 J. Bloino, B. G. Janesko, R. Gomperts, B. Mennucci, H. P. Hratchian, 
 J. V. Ortiz, A. F. Izmaylov, J. L. Sonnenberg, D. Williams-Young, 
 F. Ding, F. Lipparini, F. Egidi, J. Goings, B. Peng, A. Petrone, 
 T. Henderson, D. Ranasinghe, V. G. Zakrzewski, J. Gao, N. Rega, 
 G. Zheng, W. Liang, M. Hada, M. Ehara, K. Toyota, R. Fukuda, 
 J. Hasegawa, M. Ishida, T. Nakajima, Y. Honda, O. Kitao, H. Nakai, 
 T. Vreven, K. Throssell, J. A. Montgomery, Jr., J. E. Peralta, 
 F. Ogliaro, M. J. Bearpark, J. J. Heyd, E. N. Brothers, K. N. Kudin, 
 V. N. Staroverov, T. A. Keith, R. Kobayashi, J. Normand, 
 K. Raghavachari, A. P. Rendell, J. C. Burant, S. S. Iyengar, 
 J. Tomasi, M. Cossi, J. M. Millam, M. Klene, C. Adamo, R. Cammi, 
 J. W. Ochterski, R. L. Martin, K. Morokuma, O. Farkas, 
 J. B. Foresman, and D. J. Fox, Gaussian, Inc., Wallingford CT, 2016.
 
 ******************************************
 Gaussian 16:  ES64L-G16RevB.01 20-Dec-2017
                21-Sep-2023 
 ******************************************
 %NProcShared=16
 Will use up to   16 processors via shared memory.
 %mem=12GB
 %Chk=checkpoint.chk
 -------------------------
 #p B3LYP/6-311+g(d) force
 -------------------------
 1/10=7,30=1,38=1/1,3;
 2/12=2,17=6,18=5,40=1/2;
 3/5=4,6=6,7=11,11=2,25=1,30=1,71=1,74=-5/1,2,3;
 4//1;
 5/5=2,38=5/2;
 6/7=2,8=2,9=2,10=2,28=1/1;
 7/29=1/1,2,3,16;
 1/10=7,30=1/3;
 99//99;
 Leave Link    1 at Thu Sep 21 21:11:17 2023, MaxMem=  1610612736 cpu:               0.2 elap:               0.0
 (Enter /home/sekinelabo/g16/l101.exe)


 Symbolic Z-matrix:
 Charge =  0 Multiplicity = 1
 Na                    0.        0.        0. 
 Na                   -3.62722   0.        4.31765 
 Na                    0.        0.        4.08696 
 Na                    0.92559  -2.49483   6.27587 
 
 ITRead=  0  0  0  0
 MicOpt= -1 -1 -1 -1
 NAtoms=      4 NQM=        4 NQMF=       0 NMMI=      0 NMMIF=      0
                NMic=       0 NMicF=      0.
                    Isotopes and Nuclear Properties:
 (Nuclear quadrupole moments (NQMom) in fm**2, nuclear magnetic moments (NMagM)
  in nuclear magnetons)

  Atom         1           2           3           4
 IAtWgt=          23          23          23          23
 AtmWgt=  22.9897697  22.9897697  22.9897697  22.9897697
 NucSpn=           3           3           3           3
 AtZEff=  -0.0000000  -0.0000000  -0.0000000  -0.0000000
 NQMom=   10.4000000  10.4000000  10.4000000  10.4000000
 NMagM=    2.2175200   2.2175200   2.2175200   2.2175200
 AtZNuc=  11.0000000  11.0000000  11.0000000  11.0000000
 Leave Link  101 at Thu Sep 21 21:11:17 2023, MaxMem=  1610612736 cpu:               1.8 elap:               0.1
 (Enter /home/sekinelabo/g16/l103.exe)

 GradGradGradGradGradGradGradGradGradGradGradGradGradGradGradGradGradGrad
 Berny optimization.
 Initialization pass.
 Trust Radius=3.00D-01 FncErr=1.00D-07 GrdErr=1.00D-07 EigMax=2.50D+02 EigMin=1.00D-04
 Number of steps in this run=      2 maximum allowed number of steps=      2.
 GradGradGradGradGradGradGradGradGradGradGradGradGradGradGradGradGradGrad

 Leave Link  103 at Thu Sep 21 21:11:17 2023, MaxMem=  1610612736 cpu:               0.2 elap:               0.0
 (Enter /home/sekinelabo/g16/l202.exe)
                          Input orientation:                          
 ---------------------------------------------------------------------
 Center     Atomic      Atomic             Coordinates (Angstroms)
 Number     Number       Type             X           Y           Z
 ---------------------------------------------------------------------
      1         11           0        0.000000    0.000000    0.000000
      2         11           0       -3.627220    0.000000    4.317647
      3         11           0        0.000000    0.000000    4.086958
      4         11           0        0.925590   -2.494828    6.275870
 ---------------------------------------------------------------------
                    Distance matrix (angstroms):
                    1          2          3          4
     1  Na   0.000000
     2  Na   5.639043   0.000000
     3  Na   4.086958   3.634548   0.000000
     4  Na   6.816702   5.548593   3.445608   0.000000
 Stoichiometry    Na4
 Framework group  C1[X(Na4)]
 Deg. of freedom     6
 Full point group                 C1      NOp   1
 Largest Abelian subgroup         C1      NOp   1
 Largest concise Abelian subgroup C1      NOp   1
                         Standard orientation:                         
 ---------------------------------------------------------------------
 Center     Atomic      Atomic             Coordinates (Angstroms)
 Number     Number       Type             X           Y           Z
 ---------------------------------------------------------------------
      1         11           0        3.532889   -1.319535   -0.304103
      2         11           0        0.006014    3.079220   -0.199671
      3         11           0       -0.256053   -0.374497    0.901737
      4         11           0       -3.282850   -1.385187   -0.397963
 ---------------------------------------------------------------------
 Rotational constants (GHZ):           1.5281085           0.8999060           0.6005276
 Leave Link  202 at Thu Sep 21 21:11:17 2023, MaxMem=  1610612736 cpu:               0.0 elap:               0.0
 (Enter /home/sekinelabo/g16/l301.exe)
 Standard basis: 6-311+G(d) (5D, 7F)
 Ernie: Thresh=  0.10000D-02 Tol=  0.10000D-05 Strict=F.
 There are   124 symmetry adapted cartesian basis functions of A   symmetry.
 There are   120 symmetry adapted basis functions of A   symmetry.
   120 basis functions,   200 primitive gaussians,   124 cartesian basis functions
    22 alpha electrons       22 beta electrons
       nuclear repulsion energy        84.1553436929 Hartrees.
 IExCor=  402 DFT=T Ex+Corr=B3LYP ExCW=0 ScaHFX=  0.200000
 ScaDFX=  0.800000  0.720000  1.000000  0.810000 ScalE2=  1.000000  1.000000
 IRadAn=      5 IRanWt=     -1 IRanGd=            0 ICorTp=0 IEmpDi=  4
 NAtoms=    4 NActive=    4 NUniq=    4 SFac= 1.00D+00 NAtFMM=   60 NAOKFM=F Big=F
 Integral buffers will be    131072 words long.
 Raffenetti 2 integral format.
 Two-electron integral symmetry is turned on.
 Leave Link  301 at Thu Sep 21 21:11:17 2023, MaxMem=  1610612736 cpu:               0.4 elap:               0.0
 (Enter /home/sekinelabo/g16/l302.exe)
 NPDir=0 NMtPBC=     1 NCelOv=     1 NCel=       1 NClECP=     1 NCelD=      1
         NCelK=      1 NCelE2=     1 NClLst=     1 CellRange=     0.0.
 One-electron integrals computed using PRISM.
 One-electron integral symmetry used in STVInt
 NBasis=   120 RedAO= T EigKep=  9.34D-05  NBF=   120
 NBsUse=   120 1.00D-06 EigRej= -1.00D+00 NBFU=   120
 Precomputing XC quadrature grid using
 IXCGrd= 4 IRadAn=           5 IRanWt=          -1 IRanGd=           0 AccXCQ= 0.00D+00.
 Generated NRdTot=       0 NPtTot=           0 NUsed=           0 NTot=          32
 NSgBfM=   118   118   118   118   118 MxSgAt=     4 MxSgA2=     4.
 Leave Link  302 at Thu Sep 21 21:11:18 2023, MaxMem=  1610612736 cpu:               1.4 elap:               0.1
 (Enter /home/sekinelabo/g16/l303.exe)
 DipDrv:  MaxL=1.
 Leave Link  303 at Thu Sep 21 21:11:18 2023, MaxMem=  1610612736 cpu:               0.3 elap:               0.0
 (Enter /home/sekinelabo/g16/l401.exe)
 ExpMin= 7.60D-03 ExpMax= 3.62D+04 ExpMxC= 1.21D+03 IAcc=3 IRadAn=         5 AccDes= 0.00D+00
 Harris functional with IExCor=  402 and IRadAn=       5 diagonalized for initial guess.
 HarFok:  IExCor=  402 AccDes= 0.00D+00 IRadAn=         5 IDoV= 1 UseB2=F ITyADJ=14
 ICtDFT=  3500011 ScaDFX=  1.000000  1.000000  1.000000  1.000000
 FoFCou: FMM=F IPFlag=           0 FMFlag=      100000 FMFlg1=           0
         NFxFlg=           0 DoJE=T BraDBF=F KetDBF=T FulRan=T
         wScrn=  0.000000 ICntrl=       500 IOpCl=  0 I1Cent=   200000004 NGrid=           0
         NMat0=    1 NMatS0=      1 NMatT0=    0 NMatD0=    1 NMtDS0=    0 NMtDT0=    0
 Petite list used in FoFCou.
 Harris En= -649.053661107105    
 JPrj=0 DoOrth=F DoCkMO=F.
 Leave Link  401 at Thu Sep 21 21:11:18 2023, MaxMem=  1610612736 cpu:               2.1 elap:               0.1
 (Enter /home/sekinelabo/g16/l502.exe)
[...]
 NSaved= 9 IEnMin= 9 EnMin= -649.187379400754     IErMin= 9 ErrMin= 3.95D-05
 ErrMax= 3.95D-05  0.00D+00 EMaxC= 1.00D-01 BMatC= 1.00D-07 BMatP= 2.94D-07
 IDIUse=1 WtCom= 1.00D+00 WtEn= 0.00D+00
 Coeff-Com:  0.768D-03-0.100D-02 0.130D-02-0.743D-02 0.320D-03 0.719D-02
 Coeff-Com:  0.312D-01 0.414D+00 0.554D+00
 Coeff:      0.768D-03-0.100D-02 0.130D-02-0.743D-02 0.320D-03 0.719D-02
 Coeff:      0.312D-01 0.414D+00 0.554D+00
 Gap=     0.025 Goal=   None    Shift=    0.000
 RMSDP=2.21D-05 MaxDP=5.74D-04 DE=-2.79D-06 OVMax= 1.54D-03

 Cycle  10  Pass 1  IDiag  1:
 E= -649.187380202914     Delta-E=       -0.000000802160 Rises=F Damp=F
 DIIS: error= 1.42D-05 at cycle  10 NSaved=  10.
 NSaved=10 IEnMin=10 EnMin= -649.187380202914     IErMin=10 ErrMin= 1.42D-05
 ErrMax= 1.42D-05  0.00D+00 EMaxC= 1.00D-01 BMatC= 1.11D-08 BMatP= 1.00D-07
 IDIUse=1 WtCom= 1.00D+00 WtEn= 0.00D+00
 Coeff-Com: -0.124D-03 0.195D-03-0.333D-03 0.480D-02-0.915D-03-0.118D-01
 Coeff-Com: -0.446D-01-0.108D+00-0.561D-02 0.117D+01
 Coeff:     -0.124D-03 0.195D-03-0.333D-03 0.480D-02-0.915D-03-0.118D-01
 Coeff:     -0.446D-01-0.108D+00-0.561D-02 0.117D+01
 Gap=     0.025 Goal=   None    Shift=    0.000
 RMSDP=2.49D-05 MaxDP=6.85D-04 DE=-8.02D-07 OVMax= 2.77D-03

 Cycle  11  Pass 1  IDiag  1:
 E= -649.187380692740     Delta-E=       -0.000000489827 Rises=F Damp=F
 DIIS: error= 1.02D-05 at cycle  11 NSaved=  11.
 NSaved=11 IEnMin=11 EnMin= -649.187380692740     IErMin=11 ErrMin= 1.02D-05
 ErrMax= 1.02D-05  0.00D+00 EMaxC= 1.00D-01 BMatC= 4.22D-09 BMatP= 1.11D-08
 IDIUse=1 WtCom= 1.00D+00 WtEn= 0.00D+00
 Coeff-Com: -0.987D-05 0.391D-04-0.264D-03 0.125D-02-0.450D-03-0.706D-02
 Coeff-Com: -0.174D-01-0.517D-01-0.142D+00 0.332D-01 0.118D+01
 Coeff:     -0.987D-05 0.391D-04-0.264D-03 0.125D-02-0.450D-03-0.706D-02
 Coeff:     -0.174D-01-0.517D-01-0.142D+00 0.332D-01 0.118D+01
 Gap=     0.025 Goal=   None    Shift=    0.000
 RMSDP=1.50D-05 MaxDP=3.73D-04 DE=-4.90D-07 OVMax= 1.64D-03

 Cycle  12  Pass 1  IDiag  1:
 E= -649.187380797204     Delta-E=       -0.000000104464 Rises=F Damp=F
 DIIS: error= 5.22D-06 at cycle  12 NSaved=  12.
 NSaved=12 IEnMin=12 EnMin= -649.187380797204     IErMin=12 ErrMin= 5.22D-06
 ErrMax= 5.22D-06  0.00D+00 EMaxC= 1.00D-01 BMatC= 1.56D-09 BMatP= 4.22D-09
 IDIUse=1 WtCom= 1.00D+00 WtEn= 0.00D+00
 Coeff-Com: -0.179D-04 0.295D-04-0.656D-05-0.259D-03-0.356D-03-0.480D-03
 Coeff-Com: -0.495D-02 0.262D-01-0.302D-01-0.211D+00 0.375D+00 0.846D+00
 Coeff:     -0.179D-04 0.295D-04-0.656D-05-0.259D-03-0.356D-03-0.480D-03
 Coeff:     -0.495D-02 0.262D-01-0.302D-01-0.211D+00 0.375D+00 0.846D+00
 Gap=     0.025 Goal=   None    Shift=    0.000
 RMSDP=3.50D-06 MaxDP=9.48D-05 DE=-1.04D-07 OVMax= 3.63D-04

 Cycle  13  Pass 1  IDiag  1:
 E= -649.187380813900     Delta-E=       -0.000000016696 Rises=F Damp=F
 DIIS: error= 4.19D-07 at cycle  13 NSaved=  13.
 NSaved=13 IEnMin=13 EnMin= -649.187380813900     IErMin=13 ErrMin= 4.19D-07
 ErrMax= 4.19D-07  0.00D+00 EMaxC= 1.00D-01 BMatC= 9.91D-12 BMatP= 1.56D-09
 IDIUse=1 WtCom= 1.00D+00 WtEn= 0.00D+00
 Coeff-Com: -0.310D-04 0.404D-04 0.110D-04-0.162D-05 0.156D-03 0.484D-03
 Coeff-Com: -0.135D-03 0.480D-02 0.985D-02-0.360D-02-0.689D-01 0.293D-01
 Coeff-Com:  0.103D+01
 Coeff:     -0.310D-04 0.404D-04 0.110D-04-0.162D-05 0.156D-03 0.484D-03
 Coeff:     -0.135D-03 0.480D-02 0.985D-02-0.360D-02-0.689D-01 0.293D-01
 Coeff:      0.103D+01
 Gap=     0.025 Goal=   None    Shift=    0.000
 RMSDP=4.34D-07 MaxDP=9.78D-06 DE=-1.67D-08 OVMax= 2.01D-05

 Cycle  14  Pass 1  IDiag  1:
 E= -649.187380813977     Delta-E=       -0.000000000077 Rises=F Damp=F
 DIIS: error= 7.40D-08 at cycle  14 NSaved=  14.
 NSaved=14 IEnMin=14 EnMin= -649.187380813977     IErMin=14 ErrMin= 7.40D-08
 ErrMax= 7.40D-08  0.00D+00 EMaxC= 1.00D-01 BMatC= 4.11D-13 BMatP= 9.91D-12
 IDIUse=1 WtCom= 1.00D+00 WtEn= 0.00D+00
 Coeff-Com: -0.154D-05 0.199D-05 0.971D-06 0.102D-04 0.211D-04 0.239D-04
 Coeff-Com:  0.964D-04-0.944D-03 0.164D-02 0.916D-02-0.209D-01-0.216D-01
 Coeff-Com:  0.128D+00 0.904D+00
 Coeff:     -0.154D-05 0.199D-05 0.971D-06 0.102D-04 0.211D-04 0.239D-04
 Coeff:      0.964D-04-0.944D-03 0.164D-02 0.916D-02-0.209D-01-0.216D-01
 Coeff:      0.128D+00 0.904D+00
 Gap=     0.025 Goal=   None    Shift=    0.000
 RMSDP=5.76D-08 MaxDP=1.83D-06 DE=-7.74D-11 OVMax= 2.56D-06

 Cycle  15  Pass 1  IDiag  1:
 E= -649.187380813980     Delta-E=       -0.000000000003 Rises=F Damp=F
 DIIS: error= 1.81D-08 at cycle  15 NSaved=  15.
 NSaved=15 IEnMin=15 EnMin= -649.187380813980     IErMin=15 ErrMin= 1.81D-08
 ErrMax= 1.81D-08  0.00D+00 EMaxC= 1.00D-01 BMatC= 2.70D-14 BMatP= 4.11D-13
 IDIUse=1 WtCom= 1.00D+00 WtEn= 0.00D+00
 Coeff-Com:  0.113D-05-0.143D-05 0.291D-07 0.126D-05-0.283D-05-0.156D-04
 Coeff-Com:  0.534D-04-0.242D-03 0.180D-03 0.123D-02-0.132D-02-0.421D-02
 Coeff-Com: -0.426D-02 0.126D+00 0.883D+00
 Coeff:      0.113D-05-0.143D-05 0.291D-07 0.126D-05-0.283D-05-0.156D-04
 Coeff:      0.534D-04-0.242D-03 0.180D-03 0.123D-02-0.132D-02-0.421D-02
 Coeff:     -0.426D-02 0.126D+00 0.883D+00
 Gap=     0.025 Goal=   None    Shift=    0.000
 RMSDP=1.21D-08 MaxDP=4.27D-07 DE=-2.61D-12 OVMax= 7.85D-07

 Cycle  16  Pass 1  IDiag  1:
 E= -649.187380813982     Delta-E=       -0.000000000002 Rises=F Damp=F
 DIIS: error= 1.62D-08 at cycle  16 NSaved=  16.
 NSaved=16 IEnMin=16 EnMin= -649.187380813982     IErMin=16 ErrMin= 1.62D-08
 ErrMax= 1.62D-08  0.00D+00 EMaxC= 1.00D-01 BMatC= 8.77D-15 BMatP= 2.70D-14
 IDIUse=1 WtCom= 1.00D+00 WtEn= 0.00D+00
 Coeff-Com:  0.208D-06-0.253D-06-0.154D-06 0.135D-05-0.536D-06-0.548D-05
 Coeff-Com:  0.114D-04-0.769D-04-0.179D-03 0.597D-04 0.937D-03-0.339D-04
 Coeff-Com: -0.829D-02-0.191D-01 0.250D+00 0.777D+00
 Coeff:      0.208D-06-0.253D-06-0.154D-06 0.135D-05-0.536D-06-0.548D-05
 Coeff:      0.114D-04-0.769D-04-0.179D-03 0.597D-04 0.937D-03-0.339D-04
 Coeff:     -0.829D-02-0.191D-01 0.250D+00 0.777D+00
 Gap=     0.025 Goal=   None    Shift=    0.000
 RMSDP=5.44D-09 MaxDP=2.93D-07 DE=-2.27D-12 OVMax= 5.04D-07

 SCF Done:  E(RB3LYP) =  -649.187380814     A.U. after   16 cycles
            NFock= 16  Conv=0.54D-08     -V/T= 2.0030
 KE= 6.472324745049D+02 PE=-1.726312212485D+03 EE= 3.462434169224D+02
 Leave Link  502 at Thu Sep 21 21:11:41 2023, MaxMem=  1610612736 cpu:              26.8 elap:               2.1
 (Enter /home/sekinelabo/g16/l601.exe)
 Copying SCF densities to generalized density rwf, IOpCl= 0 IROHF=0.

 **********************************************************************

            Population analysis using the SCF Density.

 **********************************************************************

 Orbital symmetries:
       Occupied  (A) (A) (A) (A) (A) (A) (A) (A) (A) (A) (A) (A)
                 (A) (A) (A) (A) (A) (A) (A) (A) (A) (A)
       Virtual   (A) (A) (A) (A) (A) (A) (A) (A) (A) (A) (A) (A)
                 (A) (A) (A) (A) (A) (A) (A) (A) (A) (A) (A) (A)
                 (A) (A) (A) (A) (A) (A) (A) (A) (A) (A) (A) (A)
                 (A) (A) (A) (A) (A) (A) (A) (A) (A) (A) (A) (A)
                 (A) (A) (A) (A) (A) (A) (A) (A) (A) (A) (A) (A)
                 (A) (A) (A) (A) (A) (A) (A) (A) (A) (A) (A) (A)
                 (A) (A) (A) (A) (A) (A) (A) (A) (A) (A) (A) (A)
                 (A) (A) (A) (A) (A) (A) (A) (A) (A) (A) (A) (A)
                 (A) (A)
 The electronic state is 1-A.
 Alpha  occ. eigenvalues --  -38.47554 -38.45573 -38.44515 -38.43082  -2.23267
 Alpha  occ. eigenvalues --   -2.21315  -2.20262  -2.18785  -1.16953  -1.16923
 Alpha  occ. eigenvalues --   -1.16878  -1.14998  -1.14993  -1.14929  -1.13970
 Alpha  occ. eigenvalues --   -1.13958  -1.13847  -1.12466  -1.12466  -1.12413
 Alpha  occ. eigenvalues --   -0.15189  -0.10235
 Alpha virt. eigenvalues --   -0.07772  -0.05918  -0.03479  -0.02437  -0.01962
 Alpha virt. eigenvalues --   -0.01601  -0.00794  -0.00339  -0.00154   0.00106
 Alpha virt. eigenvalues --    0.00530   0.00641   0.00722   0.00996   0.01290
 Alpha virt. eigenvalues --    0.01485   0.01591   0.01762   0.01947   0.02110
 Alpha virt. eigenvalues --    0.02257   0.02353   0.02539   0.02718   0.03157
 Alpha virt. eigenvalues --    0.03244   0.03426   0.03478   0.03886   0.04976
 Alpha virt. eigenvalues --    0.06041   0.07020   0.07306   0.07723   0.08442
 Alpha virt. eigenvalues --    0.08730   0.08971   0.09050   0.09260   0.09759
 Alpha virt. eigenvalues --    0.10415   0.11080   0.12023   0.12668   0.12837
 Alpha virt. eigenvalues --    0.14250   0.27571   0.28775   0.30285   0.30728
 Alpha virt. eigenvalues --    0.31238   0.32007   0.32279   0.36202   0.36690
 Alpha virt. eigenvalues --    0.36783   0.36882   0.37219   0.38455   0.39212
 Alpha virt. eigenvalues --    0.39480   0.40286   0.41317   0.41548   0.42660
 Alpha virt. eigenvalues --    0.43311   0.43814   0.44657   0.45117   0.45460
 Alpha virt. eigenvalues --    0.45827   0.46430   0.47528   0.48497   0.51252
 Alpha virt. eigenvalues --    0.52604   0.53887   0.54894   1.98365   2.06026
 Alpha virt. eigenvalues --    2.08931   2.11026   4.41769   4.42649   4.43090
 Alpha virt. eigenvalues --    4.43585   4.44321   4.44890   4.45704   4.45878
 Alpha virt. eigenvalues --    4.46088   4.46168   4.46809   4.50632  96.16832
 Alpha virt. eigenvalues --   96.25782  96.29381  96.31680
          Condensed to atoms (all electrons):
               1          2          3          4
     1  Na  10.869770   0.296274  -0.087322   0.173754
     2  Na   0.296274  11.000472  -0.099709  -0.023946
     3  Na  -0.087322  -0.099709  10.749547   0.174213
     4  Na   0.173754  -0.023946   0.174213  10.513682
 Mulliken charges:
               1
     1  Na  -0.252476
     2  Na  -0.173091
     3  Na   0.263271
     4  Na   0.162296
 Sum of Mulliken charges =  -0.00000
 Mulliken charges with hydrogens summed into heavy atoms:
               1
     1  Na  -0.252476
     2  Na  -0.173091
     3  Na   0.263271
     4  Na   0.162296
 Electronic spatial extent (au):  <R**2>=           1741.6155
 Charge=             -0.0000 electrons
 Dipole moment (field-independent basis, Debye):
    X=              4.1133    Y=              1.3845    Z=             -0.0577  Tot=              4.3404
 Quadrupole moment (field-independent basis, Debye-Ang):
   XX=            -46.7430   YY=            -28.4945   ZZ=            -44.9171
   XY=             -2.2672   XZ=              0.4678   YZ=              0.0436
 Traceless Quadrupole moment (field-independent basis, Debye-Ang):
   XX=             -6.6915   YY=             11.5570   ZZ=             -4.8656
   XY=             -2.2672   XZ=              0.4678   YZ=              0.0436
 Octapole moment (field-independent basis, Debye-Ang**2):
  XXX=             32.4075  YYY=             35.7130  ZZZ=              0.6111  XYY=             42.7129
  XXY=             -7.9620  XXZ=             -7.1738  XZZ=             14.9537  YZZ=              2.5195
  YYZ=              0.6737  XYZ=              2.1947
 Hexadecapole moment (field-independent basis, Debye-Ang**3):
 XXXX=          -2453.5381 YYYY=           -419.1718 ZZZZ=           -217.9481 XXXY=            -93.7557
 XXXZ=             13.8197 YYYX=             22.7346 YYYZ=              1.8930 ZZZX=              2.5374
 ZZZY=              0.1989 XXYY=           -490.5598 XXZZ=           -489.3554 YYZZ=           -118.7100
 XXYZ=              9.3202 YYXZ=             -0.3579 ZZXY=             -4.3278
 N-N= 8.364894024331D+01 E-N=-1.726312211489D+03  KE= 6.472324745049D+02
 No NMR shielding tensors so no spin-rotation constants.
 Leave Link  601 at Thu Sep 21 21:11:41 2023, MaxMem=  1610612736 cpu:               0.9 elap:               0.1
 (Enter /home/sekinelabo/g16/l701.exe)
 ... and contract with generalized density number  0.
 Compute integral first derivatives.
 Leave Link  701 at Thu Sep 21 21:11:41 2023, MaxMem=  1610612736 cpu:               1.3 elap:               0.1
 (Enter /home/sekinelabo/g16/l702.exe)
 L702 exits ... SP integral derivatives will be done elsewhere.
 Leave Link  702 at Thu Sep 21 21:11:41 2023, MaxMem=  1610612736 cpu:               0.5 elap:               0.0
 (Enter /home/sekinelabo/g16/l703.exe)
 Integral derivatives from FoFJK, PRISM(SPDF).
 Compute integral first derivatives, UseDBF=F ICtDFT=           0.
 Calling FoFJK, ICntrl=      2127 FMM=F ISym2X=0 I1Cent= 0 IOpClX= 0 NMat=1 NMatS=1 NMatT=0.
 FoFJK:  IHMeth= 1 ICntrl=    2127 DoSepK=F KAlg= 0 I1Cent=           0 FoldK=F
 IRaf=         0 NMat=       1 IRICut=       1 DoRegI=T DoRafI=F ISym2E= 0 IDoP0=0 IntGTp=1.
 FoFCou: FMM=F IPFlag=           0 FMFlag=      100000 FMFlg1=         800
         NFxFlg=           0 DoJE=F BraDBF=F KetDBF=F FulRan=T
         wScrn=  0.000000 ICntrl=      2127 IOpCl=  0 I1Cent=           0 NGrid=           0
         NMat0=    1 NMatS0=      1 NMatT0=    0 NMatD0=    1 NMtDS0=    0 NMtDT0=    0
 Symmetry not used in FoFCou.
 Leave Link  703 at Thu Sep 21 21:11:41 2023, MaxMem=  1610612736 cpu:               6.2 elap:               0.4
 (Enter /home/sekinelabo/g16/l716.exe)
 Dipole        = 1.61828099D+00 5.44699030D-01-2.27111183D-02
 ***** Axes restored to original set *****
 -------------------------------------------------------------------
 Center     Atomic                   Forces (Hartrees/Bohr)
 Number     Number              X              Y              Z
 -------------------------------------------------------------------
      1       11          -0.003576157   -0.001912919   -0.006343449
      2       11           0.002483213   -0.000311798    0.006514546
      3       11          -0.002035505   -0.005140525   -0.001952841
      4       11           0.003128449    0.007365242    0.001781744
 -------------------------------------------------------------------
 Cartesian Forces:  Max     0.007365242 RMS     0.004153120
 Z-matrix is all fixed cartesians, so copy forces.
 Force constants in Cartesian coordinates: 
                1             2             3             4             5 
      1  0.317448D-02
      2  0.710459D-02  0.159003D-01
      3 -0.260514D-02 -0.583037D-02  0.249883D-01
      4  0.000000D+00  0.000000D+00  0.000000D+00  0.100000D+01
      5  0.000000D+00  0.000000D+00  0.000000D+00  0.000000D+00  0.100000D+01
      6  0.000000D+00  0.000000D+00  0.000000D+00  0.000000D+00  0.000000D+00
      7 -0.612508D-03 -0.137081D-02  0.277462D-02  0.000000D+00  0.000000D+00
      8 -0.137081D-02 -0.306792D-02  0.620968D-02  0.000000D+00  0.000000D+00
      9 -0.250283D-02 -0.560140D-02 -0.173151D-01  0.000000D+00  0.000000D+00
     10 -0.256197D-02 -0.573378D-02 -0.169483D-03  0.000000D+00  0.000000D+00
     11 -0.573378D-02 -0.128324D-01 -0.379308D-03  0.000000D+00  0.000000D+00
     12  0.510796D-02  0.114318D-01 -0.767317D-02  0.000000D+00  0.000000D+00
                6             7             8             9            10 
      6  0.100000D+01
      7  0.000000D+00  0.275902D-02
      8  0.000000D+00  0.617477D-02  0.138193D-01
      9  0.000000D+00  0.225750D-02  0.505234D-02  0.240615D-01
     10  0.000000D+00 -0.214651D-02 -0.480396D-02  0.245331D-03  0.470849D-02
     11  0.000000D+00 -0.480396D-02 -0.107514D-01  0.549058D-03  0.105377D-01
     12  0.000000D+00 -0.503212D-02 -0.112620D-01 -0.674641D-02 -0.758479D-04
               11            12 
     11  0.235838D-01
     12 -0.169750D-03  0.144196D-01
 Leave Link  716 at Thu Sep 21 21:11:42 2023, MaxMem=  1610612736 cpu:               0.3 elap:               0.0
 (Enter /home/sekinelabo/g16/l103.exe)

 GradGradGradGradGradGradGradGradGradGradGradGradGradGradGradGradGradGrad
 Berny optimization.
 Search for a local minimum.
 Step number   1 out of a maximum of    2
 All quantities printed in internal units (Hartrees-Bohrs-Radians)
 Second derivative matrix not updated -- first step.
 The second derivative matrix:
                          X1        Y1        Z1        X2        Y2
           X1           0.00317
           Y1           0.00710   0.01590
           Z1          -0.00261  -0.00583   0.02499
           X2           0.00000   0.00000   0.00000   1.00000
           Y2           0.00000   0.00000   0.00000  -0.00000   1.00000
           Z2           0.00000   0.00000   0.00000   0.00000  -0.00000
           X3          -0.00061  -0.00137   0.00277   0.00000   0.00000
           Y3          -0.00137  -0.00307   0.00621   0.00000   0.00000
           Z3          -0.00250  -0.00560  -0.01732   0.00000   0.00000
           X4          -0.00256  -0.00573  -0.00017   0.00000   0.00000
           Y4          -0.00573  -0.01283  -0.00038   0.00000   0.00000
           Z4           0.00511   0.01143  -0.00767   0.00000   0.00000
                          Z2        X3        Y3        Z3        X4
           Z2           1.00000
           X3           0.00000   0.00276
           Y3           0.00000   0.00617   0.01382
           Z3           0.00000   0.00226   0.00505   0.02406
           X4           0.00000  -0.00215  -0.00480   0.00025   0.00471
           Y4           0.00000  -0.00480  -0.01075   0.00055   0.01054
           Z4           0.00000  -0.00503  -0.01126  -0.00675  -0.00008
                          Y4        Z4
           Y4           0.02358
           Z4          -0.00017   0.01442
 ITU=  0
     Eigenvalues ---    0.03999   0.04285   0.04457   0.15027   0.24231
     Eigenvalues ---    0.75000
 Angle between quadratic step and forces=  33.16 degrees.
 Linear search not attempted -- first point.
 B after Tr=     0.000000    0.000000    0.000000
         Rot=    1.000000    0.000000   -0.000000    0.000000 Ang=   0.00 deg.
 Variable       Old X    -DE/DX   Delta X   Delta X   Delta X     New X
                                 (Linear)    (Quad)   (Total)
    X1        0.00000  -0.00358   0.00000  -0.03296  -0.03296  -0.03296
    Y1       -0.00000  -0.00191   0.00000  -0.04126  -0.04126  -0.04126
    Z1       -0.00000  -0.00634   0.00000  -0.08701  -0.08701  -0.08701
    X2       -2.91348   0.00248   0.00000   0.00881   0.00881  -2.90467
    Y2        0.00000  -0.00031   0.00000   0.00099   0.00099   0.00099
    Z2       -7.74215   0.00651   0.00000   0.00790   0.00790  -7.73426
    X3        0.00000  -0.00204   0.00000  -0.05632  -0.05632  -0.05632
    Y3       -0.00000  -0.00514   0.00000  -0.13866  -0.13866  -0.13866
    Z3        7.10304  -0.00195   0.00000   0.00644   0.00644   7.10947
    X4       -2.49605   0.00313   0.00000   0.08047   0.08047  -2.41558
    Y4       -5.58623   0.00737   0.00000   0.17893   0.17893  -5.40730
    Z4        3.27835   0.00178   0.00000   0.07267   0.07267   3.35102
         Item               Value     Threshold  Converged?
 Maximum Force            0.007365     0.000450     NO 
 RMS     Force            0.004153     0.000300     NO 
 Maximum Displacement     0.178930     0.001800     NO 
 RMS     Displacement     0.079954     0.001200     NO 
 Predicted change in Energy=-1.667829D-03
 GradGradGradGradGradGradGradGradGradGradGradGradGradGradGradGradGradGrad

 Leave Link  103 at Thu Sep 21 21:11:42 2023, MaxMem=  1610612736 cpu:               0.1 elap:               0.0
 (Enter /home/sekinelabo/g16/l9999.exe)
 1\1\GINC-SEKINELABO-XA7R-R37\Force\RB3LYP\6-311+G(d)\Na4\SEKINELABO\21
 -Sep-2023\0\\#p B3LYP/6-311+g(d) force\\\0,1\Na,0.,0.,0.\Na,-1.5417448
 773,0.,-4.0969711856\Na,0.,0.,3.7587642709\Na,-1.3208515472,-2.9561057
 745,1.7348291532\\Version=ES64L-G16RevB.01\State=1-A\HF=-649.1873808\R
 MSD=5.441e-09\RMSF=4.153e-03\Dipole=-0.0046814,-0.7058711,1.5549181\Qu
 adrupole=-1.4582728,6.2328059,-4.7745331,4.5154344,1.1040879,2.3026596
 \PG=C01 [X(Na4)]\\@


 NOTHING PUZZLES ME MORE THAN TIME AND SPACE; AND YET NOTHING TROUBLES ME LESS
                                                          -- CHARLES LAMB (1810)
 Job cpu time:       0 days  0 hours  0 minutes 44.6 seconds.
 Elapsed time:       0 days  0 hours  0 minutes  3.3 seconds.
 File lengths (MBytes):  RWF=     10 Int=      0 D2E=      0 Chk=      2 Scr=      1
 Normal termination of Gaussian 16 at Thu Sep 21 21:11:42 2023.
