 Entering Gaussian System, Link 0=g16
 Initial command:
 /home/sekinelabo/g16/l1.exe "/home/sekinelabo/g16temp/Gau-3227443.inp" -scrdir="/home/sekinelabo/g16temp/"
 Entering Link 1 = /home/sekinelabo/g16/l1.exe PID=   3227445.
  
 Copyright (c) 1988-2017, Gaussian, Inc.  All Rights Reserved.
  
 This is part of the Gaussian(R) 16 program.  It is based on
 the Gaussian(R) 09 system (copyright 2009, Gaussian, Inc.),
 the Gaussian(R) 03 system (copyright 2003, Gaussian, Inc.),
 the Gaussian(R) 98 system (copyright 1998, Gaussian, Inc.),
 the Gaussian(R) 94 system (copyright 1995, Gaussian, Inc.),
 the Gaussian 92(TM) system (copyright 1992, Gaussian, Inc.),
 the Gaussian 90(TM) system (copyright 1990, Gaussian, Inc.),
 the Gaussian 88(TM) system (copyright 1988, Gaussian, Inc.),
 the Gaussian 86(TM) system (copyright 1986, Carnegie Mellon
 University), and the Gaussian 82(TM) system (copyright 1983,
 Carnegie Mellon University). Gaussian is a federally registered
 trademark of Gaussian, Inc.
  
 This software contains proprietary and confidential information,
 including trade secrets, belonging to Gaussian, Inc.
  
 This software is provided under written license and may be
 used, copied, transmitted, or stored only in accord with that
 written license.
  
 The following legend is applicable only to US Government
 contracts under FAR:
  
                    RESTRICTED RIGHTS LEGEND
  
 Use, reproduction and disclosure by the US Government is
 subject to restrictions as set forth in subparagraphs (a)
 and (c) of the Commercial Computer Software - Restricted
 Rights clause in FAR 52.227-19.
  
 Gaussian, Inc.
 340 Quinnipiac St., Bldg. 40, Wallingford CT 06492
  
  
 ---------------------------------------------------------------
 Warning -- This program may not be used in any manner that
 competes with the business of Gaussian, Inc. or will provide
 assistance to any competitor of Gaussian, Inc.  The licensee
 of this program is prohibited from giving any competitor of
 Gaussian, Inc. access to this program.  By using this program,
 the user acknowledges that Gaussian, Inc. is engaged in the
 business of creating and licensing software in the field of
 computational chemistry and represents and warrants to the
 licensee that it is not a competitor of Gaussian, Inc. and that
 it will not use this program in any manner prohibited above.
 ---------------------------------------------------------------
  

 Cite this work as:
 Gaussian 16, Revision B.01,
 M. J. Frisch, G. W. Trucks, H. B. Schlegel, G. E. Scuseria, 
 M. A. Robb, J. R. Cheeseman, G. Scalmani, V. Barone, 
 G. A. Petersson, H. Nakatsuji, X. Li, M. Caricato, A. V. Marenich, 
 J. Bloino, B. G. Janesko, R. Gomperts, B. Mennucci, H. P. Hratchian, 
 J. V. Ortiz, A. F. Izmaylov, J. L. Sonnenberg, D. Williams-Young, 
 F. Ding, F. Lipparini, F. Egidi, J. Goings, B. Peng, A. Petrone, 
 T. Henderson, D. Ranasinghe, V. G. Zakrzewski, J. Gao, N. Rega, 
 G. Zheng, W. Liang, M. Hada, M. Ehara, K. Toyota, R. Fukuda, 
 J. Hasegawa, M. Ishida, T. Nakajima, Y. Honda, O. Kitao, H. Nakai, 
 T. Vreven, K. Throssell, J. A. Montgomery, Jr., J. E. Peralta, 
 F. Ogliaro, M. J. Bearpark, J. J. Heyd, E. N. Brothers, K. N. Kudin, 
 V. N. Staroverov, T. A. Keith, R. Kobayashi, J. Normand, 
 K. Raghavachari, A. P. Rendell, J. C. Burant, S. S. Iyengar, 
 J. Tomasi, M. Cossi, J. M. Millam, M. Klene, C. Adamo, R. Cammi, 
 J. W. Ochterski, R. L. Martin, K. Morokuma, O. Farkas, 
 J. B. Foresman, and D. J. Fox, Gaussian, Inc., Wallingford CT, 2016.
 
 ******************************************
 Gaussian 16:  ES64L-G16RevB.01 20-Dec-2017
                21-Sep-2023 
 ******************************************
 %NProcShared=16
 Will use up to   16 processors via shared memory.
 %mem=12GB
 %Chk=checkpoint.chk
 -------------------------
 #p B3LYP/6-311+g(d) force
 -------------------------
 1/10=7,30=1,38=1/1,3;
 2/12=2,17=6,18=5,40=1/2;
 3/5=4,6=6,7=11,11=2,25=1,30=1,71=1,74=-5/1,2,3;
 4//1;
 5/5=2,38=5/2;
 6/7=2,8=2,9=2,10=2,28=1/1;
 7/29=1/1,2,3,16;
 1/10=7,30=1/3;
 99//99;
 Leave Link    1 at Thu Sep 21 21:02:37 2023, MaxMem=  1610612736 cpu:               0.2 elap:               0.0
 (Enter /home/sekinelabo/g16/l101.exe)


 Symbolic Z-matrix:
 Charge =  0 Multiplicity = 1
 Na                    0.        0.        0. 
 Na                   -4.89748   0.        2.19263 
 Na                    0.        0.        5.14535 
 Na                   -0.47623  -2.07234   1.56484 
 
 ITRead=  0  0  0  0
 MicOpt= -1 -1 -1 -1
 NAtoms=      4 NQM=        4 NQMF=       0 NMMI=      0 NMMIF=      0
                NMic=       0 NMicF=      0.
                    Isotopes and Nuclear Properties:
 (Nuclear quadrupole moments (NQMom) in fm**2, nuclear magnetic moments (NMagM)
  in nuclear magnetons)

  Atom         1           2           3           4
 IAtWgt=          23          23          23          23
 AtmWgt=  22.9897697  22.9897697  22.9897697  22.9897697
 NucSpn=           3           3           3           3
 AtZEff=  -0.0000000  -0.0000000  -0.0000000  -0.0000000
 NQMom=   10.4000000  10.4000000  10.4000000  10.4000000
 NMagM=    2.2175200   2.2175200   2.2175200   2.2175200
 AtZNuc=  11.0000000  11.0000000  11.0000000  11.0000000
 Leave Link  101 at Thu Sep 21 21:02:37 2023, MaxMem=  1610612736 cpu:               1.8 elap:               0.1
 (Enter /home/sekinelabo/g16/l103.exe)

 GradGradGradGradGradGradGradGradGradGradGradGradGradGradGradGradGradGrad
 Berny optimization.
 Initialization pass.
 Trust Radius=3.00D-01 FncErr=1.00D-07 GrdErr=1.00D-07 EigMax=2.50D+02 EigMin=1.00D-04
 Number of steps in this run=      2 maximum allowed number of steps=      2.
 GradGradGradGradGradGradGradGradGradGradGradGradGradGradGradGradGradGrad

 Leave Link  103 at Thu Sep 21 21:02:37 2023, MaxMem=  1610612736 cpu:               0.2 elap:               0.0
 (Enter /home/sekinelabo/g16/l202.exe)
                          Input orientation:                          
 ---------------------------------------------------------------------
 Center     Atomic      Atomic             Coordinates (Angstroms)
 Number     Number       Type             X           Y           Z
 ---------------------------------------------------------------------
      1         11           0        0.000000    0.000000    0.000000
      2         11           0       -4.897475    0.000000    2.192631
      3         11           0        0.000000    0.000000    5.145347
      4         11           0       -0.476228   -2.072340    1.564840
 ---------------------------------------------------------------------
                    Distance matrix (angstroms):
                    1          2          3          4
     1  Na   0.000000
     2  Na   5.365901   0.000000
     3  Na   5.145347   5.718723   0.000000
     4  Na   2.640097   4.923022   4.164302   0.000000
 Stoichiometry    Na4
 Framework group  C1[X(Na4)]
 Deg. of freedom     6
 Full point group                 C1      NOp   1
 Largest Abelian subgroup         C1      NOp   1
 Largest concise Abelian subgroup C1      NOp   1
                         Standard orientation:                         
 ---------------------------------------------------------------------
 Center     Atomic      Atomic             Coordinates (Angstroms)
 Number     Number       Type             X           Y           Z
 ---------------------------------------------------------------------
      1         11           0        1.060275   -2.229739   -0.964906
      2         11           0       -3.577866    0.310715   -0.055714
      3         11           0        1.538959    2.851577   -0.312462
      4         11           0        0.978632   -0.932552    1.333082
 ---------------------------------------------------------------------
 Rotational constants (GHZ):           1.3024275           1.0958343           0.7018577
 Leave Link  202 at Thu Sep 21 21:02:37 2023, MaxMem=  1610612736 cpu:               0.0 elap:               0.0
 (Enter /home/sekinelabo/g16/l301.exe)
 Standard basis: 6-311+G(d) (5D, 7F)
 Ernie: Thresh=  0.10000D-02 Tol=  0.10000D-05 Strict=F.
 There are   124 symmetry adapted cartesian basis functions of A   symmetry.
 There are   120 symmetry adapted basis functions of A   symmetry.
   120 basis functions,   200 primitive gaussians,   124 cartesian basis functions
    22 alpha electrons       22 beta electrons
       nuclear repulsion energy        88.2092410226 Hartrees.
 IExCor=  402 DFT=T Ex+Corr=B3LYP ExCW=0 ScaHFX=  0.200000
 ScaDFX=  0.800000  0.720000  1.000000  0.810000 ScalE2=  1.000000  1.000000
 IRadAn=      5 IRanWt=     -1 IRanGd=            0 ICorTp=0 IEmpDi=  4
 NAtoms=    4 NActive=    4 NUniq=    4 SFac= 1.00D+00 NAtFMM=   60 NAOKFM=F Big=F
 Integral buffers will be    131072 words long.
 Raffenetti 2 integral format.
 Two-electron integral symmetry is turned on.
 Leave Link  301 at Thu Sep 21 21:02:37 2023, MaxMem=  1610612736 cpu:               0.4 elap:               0.0
 (Enter /home/sekinelabo/g16/l302.exe)
 NPDir=0 NMtPBC=     1 NCelOv=     1 NCel=       1 NClECP=     1 NCelD=      1
         NCelK=      1 NCelE2=     1 NClLst=     1 CellRange=     0.0.
 One-electron integrals computed using PRISM.
 One-electron integral symmetry used in STVInt
 NBasis=   120 RedAO= T EigKep=  2.92D-05  NBF=   120
 NBsUse=   120 1.00D-06 EigRej= -1.00D+00 NBFU=   120
 Precomputing XC quadrature grid using
 IXCGrd= 4 IRadAn=           5 IRanWt=          -1 IRanGd=           0 AccXCQ= 0.00D+00.
 Generated NRdTot=       0 NPtTot=           0 NUsed=           0 NTot=          32
 NSgBfM=   116   116   116   116   116 MxSgAt=     4 MxSgA2=     4.
 Leave Link  302 at Thu Sep 21 21:02:37 2023, MaxMem=  1610612736 cpu:               1.4 elap:               0.1
 (Enter /home/sekinelabo/g16/l303.exe)
 DipDrv:  MaxL=1.
 Leave Link  303 at Thu Sep 21 21:02:37 2023, MaxMem=  1610612736 cpu:               0.3 elap:               0.0
 (Enter /home/sekinelabo/g16/l401.exe)
 ExpMin= 7.60D-03 ExpMax= 3.62D+04 ExpMxC= 1.21D+03 IAcc=3 IRadAn=         5 AccDes= 0.00D+00
 Harris functional with IExCor=  402 and IRadAn=       5 diagonalized for initial guess.
 HarFok:  IExCor=  402 AccDes= 0.00D+00 IRadAn=         5 IDoV= 1 UseB2=F ITyADJ=14
 ICtDFT=  3500011 ScaDFX=  1.000000  1.000000  1.000000  1.000000
 FoFCou: FMM=F IPFlag=           0 FMFlag=      100000 FMFlg1=           0
         NFxFlg=           0 DoJE=T BraDBF=F KetDBF=T FulRan=T
         wScrn=  0.000000 ICntrl=       500 IOpCl=  0 I1Cent=   200000004 NGrid=           0
         NMat0=    1 NMatS0=      1 NMatT0=    0 NMatD0=    1 NMtDS0=    0 NMtDT0=    0
 Petite list used in FoFCou.
 Harris En= -649.038443067627    
 JPrj=0 DoOrth=F DoCkMO=F.
 Leave Link  401 at Thu Sep 21 21:02:37 2023, MaxMem=  1610612736 cpu:               2.1 elap:               0.1
 (Enter /home/sekinelabo/g16/l502.exe)
 Keep R1 ints in memory in canonical form, NReq=41581754.
 FoFCou: FMM=F IPFlag=           0 FMFlag=           0 FMFlg1=           0
         NFxFlg=           0 DoJE=F BraDBF=F KetDBF=F FulRan=T
         wScrn=  0.000000 ICntrl=       600 IOpCl=  0 I1Cent=           0 NGrid=           0
         NMat0=    1 NMatS0=   7260 NMatT0=    0 NMatD0=    1 NMtDS0=    0 NMtDT0=    0
 Symmetry not used in FoFCou.
 Two-electron integral symmetry not used.
 Closed shell SCF:
 Using DIIS extrapolation, IDIIS=  1040.
 NGot=  1610612736 LenX=  1584221388 LenY=  1584205571
 Requested convergence on RMS density matrix=1.00D-08 within 128 cycles.
 Requested convergence on MAX density matrix=1.00D-06.
 Requested convergence on             energy=1.00D-06.
 No special actions if energy rises.

 Cycle   1  Pass 1  IDiag  1:
 E= -649.147477554822    
 DIIS: error= 1.27D-02 at cycle   1 NSaved=   1.
 NSaved= 1 IEnMin= 1 EnMin= -649.147477554822     IErMin= 1 ErrMin= 1.27D-02
 ErrMax= 1.27D-02  0.00D+00 EMaxC= 1.00D-01 BMatC= 2.66D-02 BMatP= 2.66D-02
 IDIUse=3 WtCom= 8.73D-01 WtEn= 1.27D-01
 Coeff-Com:  0.100D+01
 Coeff-En:   0.100D+01
 Coeff:      0.100D+01
 Gap=     0.013 Goal=   None    Shift=    0.000
 GapD=    0.013 DampG=0.250 DampE=0.500 DampFc=0.2500 IDamp=-1.
 Damping current iteration by 2.50D-01
 RMSDP=5.57D-03 MaxDP=2.02D-01              OVMax= 4.39D-01

 Cycle   2  Pass 1  IDiag  1:
 E= -649.151202621564     Delta-E=       -0.003725066742 Rises=F Damp=T
 DIIS: error= 8.80D-03 at cycle   2 NSaved=   2.
 NSaved= 2 IEnMin= 2 EnMin= -649.151202621564     IErMin= 2 ErrMin= 8.80D-03
 ErrMax= 8.80D-03  0.00D+00 EMaxC= 1.00D-01 BMatC= 1.03D-02 BMatP= 2.66D-02
 IDIUse=3 WtCom= 9.12D-01 WtEn= 8.80D-02
 Coeff-Com: -0.121D+01 0.221D+01
 Coeff-En:   0.000D+00 0.100D+01
 Coeff:     -0.110D+01 0.210D+01
 Gap=    -0.002 Goal=   None    Shift=    0.000
 RMSDP=6.36D-03 MaxDP=3.15D-01 DE=-3.73D-03 OVMax= 7.94D-01

 Cycle   3  Pass 1  IDiag  1:
 E= -649.082115304003     Delta-E=        0.069087317562 Rises=F Damp=F
 DIIS: error= 1.17D-02 at cycle   3 NSaved=   3.
 NSaved= 3 IEnMin= 2 EnMin= -649.151202621564     IErMin= 2 ErrMin= 8.80D-03
 ErrMax= 1.17D-02  0.00D+00 EMaxC= 1.00D-01 BMatC= 7.00D-03 BMatP= 1.03D-02
 IDIUse=3 WtCom= 8.83D-01 WtEn= 1.17D-01
 Coeff-Com: -0.792D+00 0.142D+01 0.367D+00
 Coeff-En:   0.000D+00 0.928D+00 0.717D-01
 Coeff:     -0.699D+00 0.137D+01 0.333D+00
 Gap=    -0.005 Goal=   None    Shift=    0.000
 RMSDP=9.33D-03 MaxDP=4.75D-01 DE= 6.91D-02 OVMax= 8.09D-01

 Cycle   4  Pass 1  IDiag  1:
 E= -649.113211735721     Delta-E=       -0.031096431718 Rises=F Damp=F
 DIIS: error= 9.39D-03 at cycle   4 NSaved=   4.
 NSaved= 4 IEnMin= 2 EnMin= -649.151202621564     IErMin= 2 ErrMin= 8.80D-03
 ErrMax= 9.39D-03  0.00D+00 EMaxC= 1.00D-01 BMatC= 5.08D-03 BMatP= 7.00D-03
 IDIUse=3 WtCom= 9.06D-01 WtEn= 9.39D-02
 EnCoef did     3 forward-backward iterations
 Coeff-Com: -0.149D+00 0.338D+00 0.393D+00 0.418D+00
 Coeff-En:   0.505D-01 0.000D+00 0.403D+00 0.546D+00
 Coeff:     -0.130D+00 0.306D+00 0.394D+00 0.430D+00
 Gap=     0.009 Goal=   None    Shift=    0.000
 RMSDP=3.97D-03 MaxDP=2.27D-01 DE=-3.11D-02 OVMax= 3.75D-01

 Cycle   5  Pass 1  IDiag  1:
 E= -649.161480551714     Delta-E=       -0.048268815994 Rises=F Damp=F
 DIIS: error= 1.46D-03 at cycle   5 NSaved=   5.
 NSaved= 5 IEnMin= 5 EnMin= -649.161480551714     IErMin= 5 ErrMin= 1.46D-03
 ErrMax= 1.46D-03  0.00D+00 EMaxC= 1.00D-01 BMatC= 1.20D-04 BMatP= 5.08D-03
 IDIUse=3 WtCom= 9.85D-01 WtEn= 1.46D-02
 Coeff-Com: -0.115D-01 0.179D-01 0.933D-01-0.763D-02 0.908D+00
 Coeff-En:   0.000D+00 0.000D+00 0.000D+00 0.000D+00 0.100D+01
 Coeff:     -0.114D-01 0.176D-01 0.920D-01-0.752D-02 0.909D+00
 Gap=     0.016 Goal=   None    Shift=    0.000
 RMSDP=1.53D-03 MaxDP=5.28D-02 DE=-4.83D-02 OVMax= 1.13D-01

 Cycle   6  Pass 1  IDiag  1:
 E= -649.157914770245     Delta-E=        0.003565781469 Rises=F Damp=F
 DIIS: error= 3.03D-03 at cycle   6 NSaved=   6.
 NSaved= 6 IEnMin= 5 EnMin= -649.161480551714     IErMin= 5 ErrMin= 1.46D-03
 ErrMax= 3.03D-03  0.00D+00 EMaxC= 1.00D-01 BMatC= 5.73D-04 BMatP= 1.20D-04
 IDIUse=3 WtCom= 9.85D-01 WtEn= 1.46D-02
 Rare condition: small coef for last iteration:  0.000D+00
 Coeff-Com:  0.594D-02-0.121D-01 0.859D-01-0.921D-01 0.674D+00 0.339D+00
 Coeff-En:   0.000D+00 0.000D+00 0.123D+00 0.000D+00 0.000D+00 0.877D+00
 Coeff:      0.594D-02-0.121D-01 0.859D-01-0.921D-01 0.674D+00 0.339D+00
 Gap=     0.016 Goal=   None    Shift=    0.000
 RMSDP=4.05D-04 MaxDP=1.38D-02 DE= 3.57D-03 OVMax= 1.53D-02

 Cycle   7  Pass 1  IDiag  1:
 E= -649.158498284425     Delta-E=       -0.000583514180 Rises=F Damp=F
 DIIS: error= 3.08D-03 at cycle   7 NSaved=   7.
 NSaved= 7 IEnMin= 5 EnMin= -649.161480551714     IErMin= 5 ErrMin= 1.46D-03
 ErrMax= 3.08D-03  0.00D+00 EMaxC= 1.00D-01 BMatC= 5.08D-04 BMatP= 1.20D-04
 IDIUse=3 WtCom= 9.85D-01 WtEn= 1.46D-02
 Coeff-Com:  0.897D-02-0.151D-01 0.858D-01-0.121D+00 0.558D+00-0.500D-01
 Coeff-Com:  0.533D+00
 Coeff-En:   0.000D+00 0.000D+00 0.113D+00 0.000D+00 0.000D+00 0.000D+00
 Coeff-En:   0.887D+00
 Coeff:      0.884D-02-0.148D-01 0.861D-01-0.119D+00 0.550D+00-0.492D-01
 Coeff:      0.538D+00
 Gap=     0.017 Goal=   None    Shift=    0.000
 RMSDP=1.11D-04 MaxDP=3.53D-03 DE=-5.84D-04 OVMax= 6.05D-03

 Cycle   8  Pass 1  IDiag  1:
 E= -649.158107646984     Delta-E=        0.000390637441 Rises=F Damp=F
 DIIS: error= 3.21D-03 at cycle   8 NSaved=   8.
 NSaved= 8 IEnMin= 5 EnMin= -649.161480551714     IErMin= 5 ErrMin= 1.46D-03
 ErrMax= 3.21D-03  0.00D+00 EMaxC= 1.00D-01 BMatC= 5.58D-04 BMatP= 1.20D-04
 IDIUse=3 WtCom= 9.85D-01 WtEn= 1.46D-02
 Rare condition: small coef for last iteration:  0.000D+00
 Coeff-Com: -0.373D-02 0.378D-02 0.606D-01-0.458D-01 0.670D+00 0.970D+00
 Coeff-Com:  0.428D+01-0.494D+01
 Coeff-En:   0.000D+00 0.000D+00 0.122D+00 0.000D+00 0.000D+00 0.000D+00
 Coeff-En:   0.000D+00 0.878D+00
 Coeff:     -0.373D-02 0.378D-02 0.606D-01-0.458D-01 0.670D+00 0.970D+00
 Coeff:      0.428D+01-0.494D+01
 Gap=     0.016 Goal=   None    Shift=    0.000
 RMSDP=4.70D-04 MaxDP=2.53D-02 DE= 3.91D-04 OVMax= 4.58D-02

 Cycle   9  Pass 1  IDiag  1:
 E= -649.160792625714     Delta-E=       -0.002684978730 Rises=F Damp=F
 DIIS: error= 2.03D-03 at cycle   9 NSaved=   9.
 NSaved= 9 IEnMin= 5 EnMin= -649.161480551714     IErMin= 5 ErrMin= 1.46D-03
 ErrMax= 2.03D-03  0.00D+00 EMaxC= 1.00D-01 BMatC= 2.15D-04 BMatP= 1.20D-04
 IDIUse=3 WtCom= 9.85D-01 WtEn= 1.46D-02
 Coeff-Com:  0.852D-02-0.112D-01 0.234D-01 0.312D-01 0.253D+00 0.672D+00
 Coeff-Com:  0.372D+01-0.530D+01 0.161D+01
 Coeff-En:   0.000D+00 0.000D+00 0.410D-01 0.000D+00 0.000D+00 0.000D+00
 Coeff-En:   0.000D+00 0.000D+00 0.959D+00
 Coeff:      0.840D-02-0.110D-01 0.237D-01 0.308D-01 0.249D+00 0.662D+00
 Coeff:      0.366D+01-0.522D+01 0.160D+01
 Gap=     0.017 Goal=   None    Shift=    0.000
 RMSDP=5.62D-04 MaxDP=2.90D-02 DE=-2.68D-03 OVMax= 5.02D-02

 Cycle  10  Pass 1  IDiag  1:
 E= -649.162237999805     Delta-E=       -0.001445374091 Rises=F Damp=F
 DIIS: error= 5.82D-04 at cycle  10 NSaved=  10.
 NSaved=10 IEnMin=10 EnMin= -649.162237999805     IErMin=10 ErrMin= 5.82D-04
 ErrMax= 5.82D-04  0.00D+00 EMaxC= 1.00D-01 BMatC= 1.76D-05 BMatP= 1.20D-04
 IDIUse=3 WtCom= 9.94D-01 WtEn= 5.82D-03
 Coeff-Com:  0.412D-02-0.564D-02 0.673D-02 0.192D-01 0.294D-01 0.700D-01
 Coeff-Com:  0.366D+00-0.943D+00 0.519D+00 0.935D+00
 Coeff-En:   0.000D+00 0.000D+00 0.000D+00 0.000D+00 0.000D+00 0.000D+00
 Coeff-En:   0.000D+00 0.000D+00 0.000D+00 0.100D+01
 Coeff:      0.409D-02-0.561D-02 0.669D-02 0.191D-01 0.292D-01 0.696D-01
 Coeff:      0.364D+00-0.938D+00 0.516D+00 0.935D+00
 Gap=     0.017 Goal=   None    Shift=    0.000
 RMSDP=2.15D-04 MaxDP=1.02D-02 DE=-1.45D-03 OVMax= 1.66D-02

 Cycle  11  Pass 1  IDiag  1:
 E= -649.162365199224     Delta-E=       -0.000127199418 Rises=F Damp=F
 DIIS: error= 9.41D-05 at cycle  11 NSaved=  11.
 NSaved=11 IEnMin=11 EnMin= -649.162365199224     IErMin=11 ErrMin= 9.41D-05
 ErrMax= 9.41D-05  0.00D+00 EMaxC= 1.00D-01 BMatC= 5.18D-07 BMatP= 1.76D-05
 IDIUse=1 WtCom= 1.00D+00 WtEn= 0.00D+00
 Coeff-Com: -0.121D-02 0.154D-02 0.523D-04 0.189D-02-0.107D-01-0.640D-01
 Coeff-Com: -0.359D+00 0.372D+00-0.597D-01 0.256D+00 0.863D+00
 Coeff:     -0.121D-02 0.154D-02 0.523D-04 0.189D-02-0.107D-01-0.640D-01
 Coeff:     -0.359D+00 0.372D+00-0.597D-01 0.256D+00 0.863D+00
 Gap=     0.017 Goal=   None    Shift=    0.000
 RMSDP=9.01D-05 MaxDP=2.93D-03 DE=-1.27D-04 OVMax= 4.21D-03

 Cycle  12  Pass 1  IDiag  1:
 E= -649.162368393508     Delta-E=       -0.000003194284 Rises=F Damp=F
 DIIS: error= 2.65D-05 at cycle  12 NSaved=  12.
 NSaved=12 IEnMin=12 EnMin= -649.162368393508     IErMin=12 ErrMin= 2.65D-05
 ErrMax= 2.65D-05  0.00D+00 EMaxC= 1.00D-01 BMatC= 4.51D-08 BMatP= 5.18D-07
 IDIUse=1 WtCom= 1.00D+00 WtEn= 0.00D+00
 Coeff-Com: -0.218D-03 0.283D-03-0.937D-04-0.170D-02-0.234D-03-0.122D-01
 Coeff-Com: -0.153D-01 0.534D-01-0.230D-01-0.103D-01 0.711D-01 0.938D+00
 Coeff:     -0.218D-03 0.283D-03-0.937D-04-0.170D-02-0.234D-03-0.122D-01
 Coeff:     -0.153D-01 0.534D-01-0.230D-01-0.103D-01 0.711D-01 0.938D+00
 Gap=     0.017 Goal=   None    Shift=    0.000
 RMSDP=2.32D-05 MaxDP=1.02D-03 DE=-3.19D-06 OVMax= 2.18D-03

 Cycle  13  Pass 1  IDiag  1:
 E= -649.162368497130     Delta-E=       -0.000000103622 Rises=F Damp=F
 DIIS: error= 2.82D-05 at cycle  13 NSaved=  13.
 NSaved=13 IEnMin=13 EnMin= -649.162368497130     IErMin=12 ErrMin= 2.65D-05
 ErrMax= 2.82D-05  0.00D+00 EMaxC= 1.00D-01 BMatC= 3.71D-08 BMatP= 4.51D-08
 IDIUse=1 WtCom= 1.00D+00 WtEn= 0.00D+00
 Coeff-Com:  0.141D-03-0.187D-03-0.226D-05-0.539D-04 0.222D-03 0.602D-02
 Coeff-Com:  0.342D-01-0.366D-01 0.187D-02-0.269D-01-0.635D-01 0.318D+00
 Coeff-Com:  0.767D+00
 Coeff:      0.141D-03-0.187D-03-0.226D-05-0.539D-04 0.222D-03 0.602D-02
 Coeff:      0.342D-01-0.366D-01 0.187D-02-0.269D-01-0.635D-01 0.318D+00
 Coeff:      0.767D+00
 Gap=     0.017 Goal=   None    Shift=    0.000
 RMSDP=8.10D-06 MaxDP=4.48D-04 DE=-1.04D-07 OVMax= 7.51D-04

 Cycle  14  Pass 1  IDiag  1:
 E= -649.162368775102     Delta-E=       -0.000000277972 Rises=F Damp=F
 DIIS: error= 3.80D-06 at cycle  14 NSaved=  14.
 NSaved=14 IEnMin=14 EnMin= -649.162368775102     IErMin=14 ErrMin= 3.80D-06
 ErrMax= 3.80D-06  0.00D+00 EMaxC= 1.00D-01 BMatC= 7.37D-10 BMatP= 3.71D-08
 IDIUse=1 WtCom= 1.00D+00 WtEn= 0.00D+00
 Coeff-Com:  0.576D-04-0.746D-04 0.481D-04 0.601D-04 0.162D-03 0.172D-02
 Coeff-Com:  0.109D-01-0.143D-01 0.363D-02-0.600D-02-0.216D-01 0.101D-02
 Coeff-Com:  0.564D-01 0.968D+00
 Coeff:      0.576D-04-0.746D-04 0.481D-04 0.601D-04 0.162D-03 0.172D-02
 Coeff:      0.109D-01-0.143D-01 0.363D-02-0.600D-02-0.216D-01 0.101D-02
 Coeff:      0.564D-01 0.968D+00
 Gap=     0.017 Goal=   None    Shift=    0.000
 RMSDP=6.81D-07 MaxDP=1.23D-05 DE=-2.78D-07 OVMax= 3.88D-05

 Cycle  15  Pass 1  IDiag  1:
 E= -649.162368776098     Delta-E=       -0.000000000997 Rises=F Damp=F
 DIIS: error= 3.51D-06 at cycle  15 NSaved=  15.
 NSaved=15 IEnMin=15 EnMin= -649.162368776098     IErMin=15 ErrMin= 3.51D-06
 ErrMax= 3.51D-06  0.00D+00 EMaxC= 1.00D-01 BMatC= 5.40D-10 BMatP= 7.37D-10
 IDIUse=1 WtCom= 1.00D+00 WtEn= 0.00D+00
 Coeff-Com:  0.104D-04-0.133D-04 0.152D-04 0.679D-04 0.176D-04 0.213D-03
 Coeff-Com:  0.130D-02-0.302D-02 0.151D-02 0.422D-03-0.304D-02-0.202D-01
 Coeff-Com: -0.101D+00 0.258D+00 0.866D+00
 Coeff:      0.104D-04-0.133D-04 0.152D-04 0.679D-04 0.176D-04 0.213D-03
 Coeff:      0.130D-02-0.302D-02 0.151D-02 0.422D-03-0.304D-02-0.202D-01
 Coeff:     -0.101D+00 0.258D+00 0.866D+00
 Gap=     0.017 Goal=   None    Shift=    0.000
 RMSDP=1.02D-06 MaxDP=5.78D-05 DE=-9.97D-10 OVMax= 9.49D-05

 Cycle  16  Pass 1  IDiag  1:
 E= -649.162368780273     Delta-E=       -0.000000004175 Rises=F Damp=F
 DIIS: error= 1.41D-07 at cycle  16 NSaved=  16.
 NSaved=16 IEnMin=16 EnMin= -649.162368780273     IErMin=16 ErrMin= 1.41D-07
 ErrMax= 1.41D-07  0.00D+00 EMaxC= 1.00D-01 BMatC= 1.61D-12 BMatP= 5.40D-10
 IDIUse=1 WtCom= 1.00D+00 WtEn= 0.00D+00
 Coeff-Com: -0.294D-06 0.600D-07-0.899D-06-0.122D-04-0.403D-05-0.240D-03
 Coeff-Com: -0.380D-03 0.716D-03-0.532D-04 0.306D-03 0.744D-03 0.544D-02
 Coeff-Com: -0.269D-01-0.699D-01 0.191D+00 0.899D+00
 Coeff:     -0.294D-06 0.600D-07-0.899D-06-0.122D-04-0.403D-05-0.240D-03
 Coeff:     -0.380D-03 0.716D-03-0.532D-04 0.306D-03 0.744D-03 0.544D-02
 Coeff:     -0.269D-01-0.699D-01 0.191D+00 0.899D+00
 Gap=     0.017 Goal=   None    Shift=    0.000
 RMSDP=1.19D-07 MaxDP=2.57D-06 DE=-4.17D-09 OVMax= 7.77D-06

 Cycle  17  Pass 1  IDiag  1:
 E= -649.162368780266     Delta-E=        0.000000000008 Rises=F Damp=F
 DIIS: error= 2.28D-07 at cycle  17 NSaved=  17.
 NSaved=17 IEnMin=16 EnMin= -649.162368780273     IErMin=16 ErrMin= 1.41D-07
 ErrMax= 2.28D-07  0.00D+00 EMaxC= 1.00D-01 BMatC= 2.38D-12 BMatP= 1.61D-12
 IDIUse=1 WtCom= 1.00D+00 WtEn= 0.00D+00
 Coeff-Com:  0.712D-06-0.104D-05-0.274D-06 0.146D-05 0.166D-05 0.469D-04
 Coeff-Com:  0.158D-03-0.209D-03 0.206D-04-0.731D-04-0.182D-03 0.123D-02
 Coeff-Com:  0.336D-02-0.233D-01-0.474D-01 0.294D-01 0.104D+01
 Coeff:      0.712D-06-0.104D-05-0.274D-06 0.146D-05 0.166D-05 0.469D-04
 Coeff:      0.158D-03-0.209D-03 0.206D-04-0.731D-04-0.182D-03 0.123D-02
 Coeff:      0.336D-02-0.233D-01-0.474D-01 0.294D-01 0.104D+01
 Gap=     0.017 Goal=   None    Shift=    0.000
 RMSDP=7.87D-08 MaxDP=4.45D-06 DE= 7.50D-12 OVMax= 6.98D-06

 Cycle  18  Pass 1  IDiag  1:
 E= -649.162368780281     Delta-E=       -0.000000000015 Rises=F Damp=F
 DIIS: error= 3.04D-08 at cycle  18 NSaved=  18.
 NSaved=18 IEnMin=18 EnMin= -649.162368780281     IErMin=18 ErrMin= 3.04D-08
 ErrMax= 3.04D-08  0.00D+00 EMaxC= 1.00D-01 BMatC= 5.31D-14 BMatP= 1.61D-12
 IDIUse=1 WtCom= 1.00D+00 WtEn= 0.00D+00
 Coeff-Com:  0.808D-07-0.106D-06-0.417D-07-0.694D-06 0.708D-06 0.788D-05
 Coeff-Com:  0.507D-04-0.420D-04-0.801D-05-0.377D-04-0.234D-04 0.468D-03
 Coeff-Com:  0.238D-02-0.224D-02-0.196D-01-0.444D-01 0.240D+00 0.824D+00
 Coeff:      0.808D-07-0.106D-06-0.417D-07-0.694D-06 0.708D-06 0.788D-05
 Coeff:      0.507D-04-0.420D-04-0.801D-05-0.377D-04-0.234D-04 0.468D-03
 Coeff:      0.238D-02-0.224D-02-0.196D-01-0.444D-01 0.240D+00 0.824D+00
 Gap=     0.017 Goal=   None    Shift=    0.000
 RMSDP=1.88D-08 MaxDP=8.09D-07 DE=-1.55D-11 OVMax= 1.60D-06

 Cycle  19  Pass 1  IDiag  1:
 E= -649.162368780285     Delta-E=       -0.000000000004 Rises=F Damp=F
 DIIS: error= 1.18D-08 at cycle  19 NSaved=  19.
 NSaved=19 IEnMin=19 EnMin= -649.162368780285     IErMin=19 ErrMin= 1.18D-08
 ErrMax= 1.18D-08  0.00D+00 EMaxC= 1.00D-01 BMatC= 6.68D-15 BMatP= 5.31D-14
 IDIUse=1 WtCom= 1.00D+00 WtEn= 0.00D+00
 Large coefficients: NSaved= 19 BigCof=    0.00 CofMax=   10.00 Det=-1.21D-15
 Inversion failed.  Reducing to 18 matrices.
 Large coefficients: NSaved= 18 BigCof=    0.00 CofMax=   10.00 Det=-1.21D-15
 Inversion failed.  Reducing to 17 matrices.
 Large coefficients: NSaved= 17 BigCof=    0.00 CofMax=   10.00 Det=-1.27D-15
 Inversion failed.  Reducing to 16 matrices.
 Large coefficients: NSaved= 16 BigCof=    0.00 CofMax=   10.00 Det=-1.28D-15
 Inversion failed.  Reducing to 15 matrices.
 Coeff-Com:  0.105D-06-0.193D-06-0.343D-05 0.334D-05 0.496D-06-0.374D-05
 Coeff-Com:  0.264D-05-0.155D-04-0.278D-03 0.119D-02 0.326D-02-0.290D-02
 Coeff-Com: -0.862D-01 0.261D-02 0.108D+01
 Coeff:      0.105D-06-0.193D-06-0.343D-05 0.334D-05 0.496D-06-0.374D-05
 Coeff:      0.264D-05-0.155D-04-0.278D-03 0.119D-02 0.326D-02-0.290D-02
 Coeff:     -0.862D-01 0.261D-02 0.108D+01
 Gap=     0.017 Goal=   None    Shift=    0.000
 RMSDP=6.30D-09 MaxDP=2.00D-07 DE=-3.75D-12 OVMax= 3.11D-07

 SCF Done:  E(RB3LYP) =  -649.162368780     A.U. after   19 cycles
            NFock= 19  Conv=0.63D-08     -V/T= 2.0028
 KE= 6.473419856636D+02 PE=-1.735450462307D+03 EE= 3.507368668405D+02
 Leave Link  502 at Thu Sep 21 21:02:39 2023, MaxMem=  1610612736 cpu:              28.4 elap:               2.0
 (Enter /home/sekinelabo/g16/l601.exe)
 Copying SCF densities to generalized density rwf, IOpCl= 0 IROHF=0.

 **********************************************************************

            Population analysis using the SCF Density.

 **********************************************************************

 Orbital symmetries:
       Occupied  (A) (A) (A) (A) (A) (A) (A) (A) (A) (A) (A) (A)
                 (A) (A) (A) (A) (A) (A) (A) (A) (A) (A)
       Virtual   (A) (A) (A) (A) (A) (A) (A) (A) (A) (A) (A) (A)
                 (A) (A) (A) (A) (A) (A) (A) (A) (A) (A) (A) (A)
                 (A) (A) (A) (A) (A) (A) (A) (A) (A) (A) (A) (A)
                 (A) (A) (A) (A) (A) (A) (A) (A) (A) (A) (A) (A)
                 (A) (A) (A) (A) (A) (A) (A) (A) (A) (A) (A) (A)
                 (A) (A) (A) (A) (A) (A) (A) (A) (A) (A) (A) (A)
                 (A) (A) (A) (A) (A) (A) (A) (A) (A) (A) (A) (A)
                 (A) (A) (A) (A) (A) (A) (A) (A) (A) (A) (A) (A)
                 (A) (A)
 The electronic state is 1-A.
 Alpha  occ. eigenvalues --  -38.46858 -38.46252 -38.44151 -38.43682  -2.22538
 Alpha  occ. eigenvalues --   -2.21933  -2.20032  -2.19551  -1.16220  -1.16203
 Alpha  occ. eigenvalues --   -1.16177  -1.15611  -1.15608  -1.15575  -1.14007
 Alpha  occ. eigenvalues --   -1.13661  -1.13620  -1.13166  -1.13149  -1.13125
 Alpha  occ. eigenvalues --   -0.14535  -0.10538
 Alpha virt. eigenvalues --   -0.08856  -0.05146  -0.03172  -0.02839  -0.01965
 Alpha virt. eigenvalues --   -0.01556  -0.01215  -0.00465  -0.00346  -0.00117
 Alpha virt. eigenvalues --    0.00557   0.00599   0.00795   0.01304   0.01503
 Alpha virt. eigenvalues --    0.01599   0.01655   0.01718   0.01839   0.01871
 Alpha virt. eigenvalues --    0.02030   0.02125   0.02385   0.02435   0.02678
 Alpha virt. eigenvalues --    0.03073   0.03530   0.03710   0.04134   0.05207
 Alpha virt. eigenvalues --    0.06500   0.06647   0.07622   0.07765   0.07844
 Alpha virt. eigenvalues --    0.08038   0.08128   0.08428   0.08773   0.09860
 Alpha virt. eigenvalues --    0.10389   0.11140   0.11578   0.12073   0.13684
 Alpha virt. eigenvalues --    0.16723   0.29589   0.29836   0.30477   0.31107
 Alpha virt. eigenvalues --    0.32992   0.33875   0.34061   0.34295   0.34367
 Alpha virt. eigenvalues --    0.34418   0.34863   0.35538   0.35715   0.35916
 Alpha virt. eigenvalues --    0.37185   0.40196   0.40981   0.42179   0.42457
 Alpha virt. eigenvalues --    0.42744   0.43140   0.43838   0.44270   0.45515
 Alpha virt. eigenvalues --    0.47130   0.47597   0.49294   0.50485   0.51192
 Alpha virt. eigenvalues --    0.54590   0.55253   0.86210   2.01684   2.02783
 Alpha virt. eigenvalues --    2.10134   2.10363   4.41738   4.42315   4.42884
 Alpha virt. eigenvalues --    4.42981   4.43396   4.44168   4.44856   4.45528
 Alpha virt. eigenvalues --    4.46619   4.48378   4.49338   4.79356  96.20949
 Alpha virt. eigenvalues --   96.22405  96.31310  96.33072
          Condensed to atoms (all electrons):
               1          2          3          4
     1  Na  11.099309  -0.281952  -0.255486   0.232419
     2  Na  -0.281952  11.041465   0.186402   0.022529
     3  Na  -0.255486   0.186402  10.907577   0.103868
     4  Na   0.232419   0.022529   0.103868  10.936089
 Mulliken charges:
               1
     1  Na   0.205710
     2  Na   0.031556
     3  Na   0.057639
     4  Na  -0.294905
 Sum of Mulliken charges =  -0.00000
 Mulliken charges with hydrogens summed into heavy atoms:
               1
     1  Na   0.205710
     2  Na   0.031556
     3  Na   0.057639
     4  Na  -0.294905
 Electronic spatial extent (au):  <R**2>=           1433.7121
 Charge=             -0.0000 electrons
 Dipole moment (field-independent basis, Debye):
    X=              0.3483    Y=              0.3890    Z=             -0.2630  Tot=              0.5847
 Quadrupole moment (field-independent basis, Debye-Ang):
   XX=            -40.9532   YY=            -46.0069   ZZ=            -38.1786
   XY=             10.5054   XZ=             -0.7692   YZ=              1.9104
 Traceless Quadrupole moment (field-independent basis, Debye-Ang):
   XX=              0.7597   YY=             -4.2940   ZZ=              3.5343
   XY=             10.5054   XZ=             -0.7692   YZ=              1.9104
 Octapole moment (field-independent basis, Debye-Ang**2):
  XXX=              4.1013  YYY=              2.1782  ZZZ=              5.0430  XYY=             14.5731
  XXY=              2.9623  XXZ=             -2.4418  XZZ=             10.4509  YZZ=            -10.5578
  YYZ=            -12.9596  XYZ=              0.4487
 Hexadecapole moment (field-independent basis, Debye-Ang**3):
 XXXX=          -1336.9467 YYYY=          -1185.2019 ZZZZ=           -304.8356 XXXY=            103.9136
 XXXZ=             -6.7838 YYYX=            102.5837 YYYZ=             29.5406 ZZZX=              0.7402
 ZZZY=              8.9672 XXYY=           -416.9734 XXZZ=           -276.3288 YYZZ=           -240.4208
 XXYZ=              4.2707 YYXZ=            -18.6001 ZZXY=             13.5815
 N-N= 8.820924102262D+01 E-N=-1.735450462524D+03  KE= 6.473419856636D+02
 No NMR shielding tensors so no spin-rotation constants.
 Leave Link  601 at Thu Sep 21 21:02:39 2023, MaxMem=  1610612736 cpu:               0.9 elap:               0.1
 (Enter /home/sekinelabo/g16/l701.exe)
 ... and contract with generalized density number  0.
 Compute integral first derivatives.
 Leave Link  701 at Thu Sep 21 21:02:39 2023, MaxMem=  1610612736 cpu:               1.3 elap:               0.1
 (Enter /home/sekinelabo/g16/l702.exe)
 L702 exits ... SP integral derivatives will be done elsewhere.
 Leave Link  702 at Thu Sep 21 21:02:39 2023, MaxMem=  1610612736 cpu:               0.5 elap:               0.0
 (Enter /home/sekinelabo/g16/l703.exe)
 Integral derivatives from FoFJK, PRISM(SPDF).
 Compute integral first derivatives, UseDBF=F ICtDFT=           0.
 Calling FoFJK, ICntrl=      2127 FMM=F ISym2X=0 I1Cent= 0 IOpClX= 0 NMat=1 NMatS=1 NMatT=0.
 FoFJK:  IHMeth= 1 ICntrl=    2127 DoSepK=F KAlg= 0 I1Cent=           0 FoldK=F
 IRaf=         0 NMat=       1 IRICut=       1 DoRegI=T DoRafI=F ISym2E= 0 IDoP0=0 IntGTp=1.
 FoFCou: FMM=F IPFlag=           0 FMFlag=      100000 FMFlg1=         800
         NFxFlg=           0 DoJE=F BraDBF=F KetDBF=F FulRan=T
         wScrn=  0.000000 ICntrl=      2127 IOpCl=  0 I1Cent=           0 NGrid=           0
         NMat0=    1 NMatS0=      1 NMatT0=    0 NMatD0=    1 NMtDS0=    0 NMtDT0=    0
 Symmetry not used in FoFCou.
 Leave Link  703 at Thu Sep 21 21:02:40 2023, MaxMem=  1610612736 cpu:               6.5 elap:               0.4
 (Enter /home/sekinelabo/g16/l716.exe)
 Dipole        = 1.37051165D-01 1.53060110D-01-1.03490161D-01
 ***** Axes restored to original set *****
 -------------------------------------------------------------------
 Center     Atomic                   Forces (Hartrees/Bohr)
 Number     Number              X              Y              Z
 -------------------------------------------------------------------
      1       11           0.004112451    0.009655873   -0.008549226
      2       11           0.002561892    0.000073855    0.003650336
      3       11          -0.004705617   -0.000407259   -0.003074257
      4       11          -0.001968726   -0.009322469    0.007973147
 -------------------------------------------------------------------
 Cartesian Forces:  Max     0.009655873 RMS     0.005695365
 Z-matrix is all fixed cartesians, so copy forces.
 Force constants in Cartesian coordinates: 
                1             2             3             4             5 
      1  0.979724D+00
      2 -0.106372D+00  0.566849D-01
      3  0.845366D-01 -0.433043D-01  0.330959D-01
      4  0.000000D+00  0.000000D+00  0.000000D+00  0.100000D+01
      5  0.000000D+00  0.000000D+00  0.000000D+00  0.000000D+00  0.100000D+01
      6  0.000000D+00  0.000000D+00  0.000000D+00  0.000000D+00  0.000000D+00
      7  0.000000D+00  0.000000D+00  0.000000D+00  0.000000D+00  0.000000D+00
      8  0.000000D+00  0.000000D+00  0.000000D+00  0.000000D+00  0.000000D+00
      9  0.000000D+00  0.000000D+00  0.000000D+00  0.000000D+00  0.000000D+00
     10 -0.226369D-02 -0.985063D-02  0.743828D-02  0.000000D+00  0.000000D+00
     11 -0.985063D-02 -0.428657D-01  0.323682D-01  0.000000D+00  0.000000D+00
     12  0.743828D-02  0.323682D-01 -0.244415D-01  0.000000D+00  0.000000D+00
                6             7             8             9            10 
      6  0.100000D+01
      7  0.000000D+00  0.100000D+01
      8  0.000000D+00  0.000000D+00  0.100000D+01
      9  0.000000D+00  0.000000D+00  0.000000D+00  0.100000D+01
     10  0.000000D+00  0.000000D+00  0.000000D+00  0.000000D+00  0.979724D+00
     11  0.000000D+00  0.000000D+00  0.000000D+00  0.000000D+00 -0.106372D+00
     12  0.000000D+00  0.000000D+00  0.000000D+00  0.000000D+00  0.845366D-01
               11            12 
     11  0.566849D-01
     12 -0.433043D-01  0.330959D-01
 Leave Link  716 at Thu Sep 21 21:02:40 2023, MaxMem=  1610612736 cpu:               0.3 elap:               0.0
 (Enter /home/sekinelabo/g16/l103.exe)

 GradGradGradGradGradGradGradGradGradGradGradGradGradGradGradGradGradGrad
 Berny optimization.
 Search for a local minimum.
 Step number   1 out of a maximum of    2
 All quantities printed in internal units (Hartrees-Bohrs-Radians)
 Second derivative matrix not updated -- first step.
 The second derivative matrix:
                          X1        Y1        Z1        X2        Y2
           X1           0.97972
           Y1          -0.10637   0.05668
           Z1           0.08454  -0.04330   0.03310
           X2           0.00000   0.00000   0.00000   1.00000
           Y2           0.00000   0.00000   0.00000  -0.00000   1.00000
           Z2           0.00000   0.00000   0.00000   0.00000   0.00000
           X3           0.00000   0.00000   0.00000   0.00000   0.00000
           Y3           0.00000   0.00000   0.00000   0.00000   0.00000
           Z3           0.00000   0.00000   0.00000   0.00000   0.00000
           X4          -0.00226  -0.00985   0.00744   0.00000   0.00000
           Y4          -0.00985  -0.04287   0.03237   0.00000   0.00000
           Z4           0.00744   0.03237  -0.02444   0.00000   0.00000
                          Z2        X3        Y3        Z3        X4
           Z2           1.00000
           X3           0.00000   1.00000
           Y3           0.00000  -0.00000   1.00000
           Z3           0.00000   0.00000   0.00000   1.00000
           X4           0.00000   0.00000   0.00000   0.00000   0.97972
           Y4           0.00000   0.00000   0.00000   0.00000  -0.10637
           Z4           0.00000   0.00000   0.00000   0.00000   0.08454
                          Y4        Z4
           Y4           0.05668
           Z4          -0.04330   0.03310
 ITU=  0
     Eigenvalues ---    0.12553   0.13925   0.56681   0.98429   0.99998
     Eigenvalues ---    1.00000
 Angle between quadratic step and forces=  19.07 degrees.
 Linear search not attempted -- first point.
 B after Tr=    -0.000000   -0.000000    0.000000
         Rot=    1.000000    0.000000   -0.000000    0.000000 Ang=   0.00 deg.
 Variable       Old X    -DE/DX   Delta X   Delta X   Delta X     New X
                                 (Linear)    (Quad)   (Total)
    X1        0.00000   0.00411   0.00000   0.01671   0.01671   0.01671
    Y1        0.00000   0.00966   0.00000   0.07032   0.07032   0.07032
    Z1        0.00000  -0.00855   0.00000  -0.06076  -0.06076  -0.06076
    X2       -9.25489   0.00256   0.00000   0.00265   0.00265  -9.25224
    Y2        0.00000   0.00007   0.00000   0.00070   0.00070   0.00070
    Z2        4.14347   0.00365   0.00000   0.00328   0.00328   4.14675
    X3        0.00000  -0.00471   0.00000  -0.00555  -0.00555  -0.00555
    Y3        0.00000  -0.00041   0.00000  -0.00376  -0.00376  -0.00376
    Z3        9.72330  -0.00307   0.00000  -0.00190  -0.00190   9.72140
    X4       -0.89994  -0.00197   0.00000  -0.01380  -0.01380  -0.91374
    Y4       -3.91616  -0.00932   0.00000  -0.06726  -0.06726  -3.98341
    Z4        2.95712   0.00797   0.00000   0.05938   0.05938   3.01650
         Item               Value     Threshold  Converged?
 Maximum Force            0.009656     0.000450     NO 
 RMS     Force            0.005695     0.000300     NO 
 Maximum Displacement     0.070318     0.001800     NO 
 RMS     Displacement     0.037885     0.001200     NO 
 Predicted change in Energy=-1.223556D-03
 GradGradGradGradGradGradGradGradGradGradGradGradGradGradGradGradGradGrad

 Leave Link  103 at Thu Sep 21 21:02:40 2023, MaxMem=  1610612736 cpu:               0.1 elap:               0.0
 (Enter /home/sekinelabo/g16/l9999.exe)
 1\1\GINC-SEKINELABO-XA7R-R37\Force\RB3LYP\6-311+G(d)\Na4\SEKINELABO\21
 -Sep-2023\0\\#p B3LYP/6-311+g(d) force\\\0,1\Na,0.,0.,0.\Na,-4.8974750
 561,0.,2.1926306282\Na,0.,0.,5.1453466308\Na,-0.476227822,-2.072340196
 8,1.5648399886\\Version=ES64L-G16RevB.01\State=1-A\HF=-649.1623688\RMS
 D=6.305e-09\RMSF=5.695e-03\Dipole=0.1371163,0.1066973,0.1507827\Quadru
 pole=-0.43209,1.7210828,-1.2889928,2.0613141,7.5615519,-2.8678548\PG=C
 01 [X(Na4)]\\@


 I KNOW YOU BELIEVE YOU UNDERSTAND WHAT YOU THINK I SAID,
 BUT I AM NOT SURE YOU REALIZE THAT WHAT YOU HEARD IS NOT WHAT I MEANT.
 Job cpu time:       0 days  0 hours  0 minutes 44.7 seconds.
 Elapsed time:       0 days  0 hours  0 minutes  3.1 seconds.
 File lengths (MBytes):  RWF=     10 Int=      0 D2E=      0 Chk=      2 Scr=      1
 Normal termination of Gaussian 16 at Thu Sep 21 21:02:40 2023.
 Initial command:
 /home/sekinelabo/g16/l1.exe "/home/sekinelabo/g16temp/Gau-3227443.inp" -scrdir="/home/sekinelabo/g16temp/"
 Entering Link 1 = /home/sekinelabo/g16/l1.exe PID=   3227691.
  
 Copyright (c) 1988-2017, Gaussian, Inc.  All Rights Reserved.
  
 This is part of the Gaussian(R) 16 program.  It is based on
 the Gaussian(R) 09 system (copyright 2009, Gaussian, Inc.),
 the Gaussian(R) 03 system (copyright 2003, Gaussian, Inc.),
 the Gaussian(R) 98 system (copyright 1998, Gaussian, Inc.),
 the Gaussian(R) 94 system (copyright 1995, Gaussian, Inc.),
 the Gaussian 92(TM) system (copyright 1992, Gaussian, Inc.),
 the Gaussian 90(TM) system (copyright 1990, Gaussian, Inc.),
 the Gaussian 88(TM) system (copyright 1988, Gaussian, Inc.),
 the Gaussian 86(TM) system (copyright 1986, Carnegie Mellon
 University), and the Gaussian 82(TM) system (copyright 1983,
 Carnegie Mellon University). Gaussian is a federally registered
 trademark of Gaussian, Inc.
  
 This software contains proprietary and confidential information,
 including trade secrets, belonging to Gaussian, Inc.
  
 This software is provided under written license and may be
 used, copied, transmitted, or stored only in accord with that
 written license.
  
 The following legend is applicable only to US Government
 contracts under FAR:
  
                    RESTRICTED RIGHTS LEGEND
  
 Use, reproduction and disclosure by the US Government is
 subject to restrictions as set forth in subparagraphs (a)
 and (c) of the Commercial Computer Software - Restricted
 Rights clause in FAR 52.227-19.
  
 Gaussian, Inc.
 340 Quinnipiac St., Bldg. 40, Wallingford CT 06492
  
  
 ---------------------------------------------------------------
 Warning -- This program may not be used in any manner that
 competes with the business of Gaussian, Inc. or will provide
 assistance to any competitor of Gaussian, Inc.  The licensee
 of this program is prohibited from giving any competitor of
 Gaussian, Inc. access to this program.  By using this program,
 the user acknowledges that Gaussian, Inc. is engaged in the
 business of creating and licensing software in the field of
 computational chemistry and represents and warrants to the
 licensee that it is not a competitor of Gaussian, Inc. and that
 it will not use this program in any manner prohibited above.
 ---------------------------------------------------------------
  

 Cite this work as:
 Gaussian 16, Revision B.01,
 M. J. Frisch, G. W. Trucks, H. B. Schlegel, G. E. Scuseria, 
 M. A. Robb, J. R. Cheeseman, G. Scalmani, V. Barone, 
 G. A. Petersson, H. Nakatsuji, X. Li, M. Caricato, A. V. Marenich, 
 J. Bloino, B. G. Janesko, R. Gomperts, B. Mennucci, H. P. Hratchian, 
 J. V. Ortiz, A. F. Izmaylov, J. L. Sonnenberg, D. Williams-Young, 
 F. Ding, F. Lipparini, F. Egidi, J. Goings, B. Peng, A. Petrone, 
 T. Henderson, D. Ranasinghe, V. G. Zakrzewski, J. Gao, N. Rega, 
 G. Zheng, W. Liang, M. Hada, M. Ehara, K. Toyota, R. Fukuda, 
 J. Hasegawa, M. Ishida, T. Nakajima, Y. Honda, O. Kitao, H. Nakai, 
 T. Vreven, K. Throssell, J. A. Montgomery, Jr., J. E. Peralta, 
 F. Ogliaro, M. J. Bearpark, J. J. Heyd, E. N. Brothers, K. N. Kudin, 
 V. N. Staroverov, T. A. Keith, R. Kobayashi, J. Normand, 
 K. Raghavachari, A. P. Rendell, J. C. Burant, S. S. Iyengar, 
 J. Tomasi, M. Cossi, J. M. Millam, M. Klene, C. Adamo, R. Cammi, 
 J. W. Ochterski, R. L. Martin, K. Morokuma, O. Farkas, 
 J. B. Foresman, and D. J. Fox, Gaussian, Inc., Wallingford CT, 2016.
 
 ******************************************
 Gaussian 16:  ES64L-G16RevB.01 20-Dec-2017
                21-Sep-2023 
 ******************************************
 %NProcShared=16
 Will use up to   16 processors via shared memory.
 %mem=12GB
 %Chk=checkpoint.chk
 -------------------------
 #p B3LYP/6-311+g(d) force
 -------------------------
 1/10=7,30=1,38=1/1,3;
 2/12=2,17=6,18=5,40=1/2;
 3/5=4,6=6,7=11,11=2,25=1,30=1,71=1,74=-5/1,2,3;
 4//1;
 5/5=2,38=5/2;
 6/7=2,8=2,9=2,10=2,28=1/1;
 7/29=1/1,2,3,16;
 1/10=7,30=1/3;
 99//99;
 Leave Link    1 at Thu Sep 21 21:02:40 2023, MaxMem=  1610612736 cpu:               0.2 elap:               0.0
 (Enter /home/sekinelabo/g16/l101.exe)


 Symbolic Z-matrix:
 Charge =  0 Multiplicity = 1
 Na                    0.        0.        0. 
 Na                   -1.24958   0.       -3.5699 
 Na                    0.        0.        4.04224 
 Na                    0.05159  -3.30522   6.45602 
 
 ITRead=  0  0  0  0
 MicOpt= -1 -1 -1 -1
 NAtoms=      4 NQM=        4 NQMF=       0 NMMI=      0 NMMIF=      0
                NMic=       0 NMicF=      0.
                    Isotopes and Nuclear Properties:
 (Nuclear quadrupole moments (NQMom) in fm**2, nuclear magnetic moments (NMagM)
  in nuclear magnetons)

  Atom         1           2           3           4
 IAtWgt=          23          23          23          23
 AtmWgt=  22.9897697  22.9897697  22.9897697  22.9897697
 NucSpn=           3           3           3           3
 AtZEff=  -0.0000000  -0.0000000  -0.0000000  -0.0000000
 NQMom=   10.4000000  10.4000000  10.4000000  10.4000000
 NMagM=    2.2175200   2.2175200   2.2175200   2.2175200
 AtZNuc=  11.0000000  11.0000000  11.0000000  11.0000000
 Leave Link  101 at Thu Sep 21 21:02:40 2023, MaxMem=  1610612736 cpu:               1.8 elap:               0.1
 (Enter /home/sekinelabo/g16/l103.exe)

 GradGradGradGradGradGradGradGradGradGradGradGradGradGradGradGradGradGrad
 Berny optimization.
 Initialization pass.
 Trust Radius=3.00D-01 FncErr=1.00D-07 GrdErr=1.00D-07 EigMax=2.50D+02 EigMin=1.00D-04
 Number of steps in this run=      2 maximum allowed number of steps=      2.
 GradGradGradGradGradGradGradGradGradGradGradGradGradGradGradGradGradGrad

 Leave Link  103 at Thu Sep 21 21:02:40 2023, MaxMem=  1610612736 cpu:               0.2 elap:               0.0
 (Enter /home/sekinelabo/g16/l202.exe)
                          Input orientation:                          
 ---------------------------------------------------------------------
 Center     Atomic      Atomic             Coordinates (Angstroms)
 Number     Number       Type             X           Y           Z
 ---------------------------------------------------------------------
      1         11           0        0.000000    0.000000    0.000000
      2         11           0       -1.249581    0.000000   -3.569899
      3         11           0        0.000000    0.000000    4.042241
      4         11           0        0.051592   -3.305223    6.456020
 ---------------------------------------------------------------------
                    Distance matrix (angstroms):
                    1          2          3          4
     1  Na   0.000000
     2  Na   3.782279   0.000000
     3  Na   4.042241   7.714022   0.000000
     4  Na   7.253093  10.636569   4.093103   0.000000
 Stoichiometry    Na4
 Framework group  C1[X(Na4)]
 Deg. of freedom     6
 Full point group                 C1      NOp   1
 Largest Abelian subgroup         C1      NOp   1
 Largest concise Abelian subgroup C1      NOp   1
                         Standard orientation:                         
 ---------------------------------------------------------------------
 Center     Atomic      Atomic             Coordinates (Angstroms)
 Number     Number       Type             X           Y           Z
 ---------------------------------------------------------------------
      1         11           0        1.847185    0.424097    0.425048
      2         11           0        5.399092   -0.707129   -0.215203
      3         11           0       -2.019469    1.407344   -0.224505
      4         11           0       -5.226807   -1.124311    0.014660
 ---------------------------------------------------------------------
 Rotational constants (GHZ):           5.2312830           0.3422102           0.3238255
 Leave Link  202 at Thu Sep 21 21:02:40 2023, MaxMem=  1610612736 cpu:               0.0 elap:               0.0
 (Enter /home/sekinelabo/g16/l301.exe)
 Standard basis: 6-311+G(d) (5D, 7F)
 Ernie: Thresh=  0.10000D-02 Tol=  0.10000D-05 Strict=F.
 There are   124 symmetry adapted cartesian basis functions of A   symmetry.
 There are   120 symmetry adapted basis functions of A   symmetry.
   120 basis functions,   200 primitive gaussians,   124 cartesian basis functions
    22 alpha electrons       22 beta electrons
       nuclear repulsion energy        71.5612799030 Hartrees.
 IExCor=  402 DFT=T Ex+Corr=B3LYP ExCW=0 ScaHFX=  0.200000
 ScaDFX=  0.800000  0.720000  1.000000  0.810000 ScalE2=  1.000000  1.000000
 IRadAn=      5 IRanWt=     -1 IRanGd=            0 ICorTp=0 IEmpDi=  4
 NAtoms=    4 NActive=    4 NUniq=    4 SFac= 1.00D+00 NAtFMM=   60 NAOKFM=F Big=F
 Integral buffers will be    131072 words long.
 Raffenetti 2 integral format.
 Two-electron integral symmetry is turned on.
 Leave Link  301 at Thu Sep 21 21:02:40 2023, MaxMem=  1610612736 cpu:               0.4 elap:               0.0
 (Enter /home/sekinelabo/g16/l302.exe)
 NPDir=0 NMtPBC=     1 NCelOv=     1 NCel=       1 NClECP=     1 NCelD=      1
         NCelK=      1 NCelE2=     1 NClLst=     1 CellRange=     0.0.
 One-electron integrals computed using PRISM.
 One-electron integral symmetry used in STVInt
 NBasis=   120 RedAO= T EigKep=  5.98D-05  NBF=   120
 NBsUse=   120 1.00D-06 EigRej= -1.00D+00 NBFU=   120
 Precomputing XC quadrature grid using
 IXCGrd= 4 IRadAn=           5 IRanWt=          -1 IRanGd=           0 AccXCQ= 0.00D+00.
 Generated NRdTot=       0 NPtTot=           0 NUsed=           0 NTot=          32
 NSgBfM=   112   112   112   112   112 MxSgAt=     4 MxSgA2=     4.
 Leave Link  302 at Thu Sep 21 21:02:40 2023, MaxMem=  1610612736 cpu:               1.4 elap:               0.1
 (Enter /home/sekinelabo/g16/l303.exe)
 DipDrv:  MaxL=1.
 Leave Link  303 at Thu Sep 21 21:02:40 2023, MaxMem=  1610612736 cpu:               0.3 elap:               0.0
 (Enter /home/sekinelabo/g16/l401.exe)
 ExpMin= 7.60D-03 ExpMax= 3.62D+04 ExpMxC= 1.21D+03 IAcc=3 IRadAn=         5 AccDes= 0.00D+00
 Harris functional with IExCor=  402 and IRadAn=       5 diagonalized for initial guess.
 HarFok:  IExCor=  402 AccDes= 0.00D+00 IRadAn=         5 IDoV= 1 UseB2=F ITyADJ=14
 ICtDFT=  3500011 ScaDFX=  1.000000  1.000000  1.000000  1.000000
 FoFCou: FMM=F IPFlag=           0 FMFlag=      100000 FMFlg1=           0
         NFxFlg=           0 DoJE=T BraDBF=F KetDBF=T FulRan=T
         wScrn=  0.000000 ICntrl=       500 IOpCl=  0 I1Cent=   200000004 NGrid=           0
         NMat0=    1 NMatS0=      1 NMatT0=    0 NMatD0=    1 NMtDS0=    0 NMtDT0=    0
 Petite list used in FoFCou.
 Harris En= -649.061151198843    
 JPrj=0 DoOrth=F DoCkMO=F.
 Leave Link  401 at Thu Sep 21 21:02:40 2023, MaxMem=  1610612736 cpu:               2.1 elap:               0.1
 (Enter /home/sekinelabo/g16/l502.exe)
 Keep R1 ints in memory in canonical form, NReq=41581754.
 FoFCou: FMM=F IPFlag=           0 FMFlag=           0 FMFlg1=           0
         NFxFlg=           0 DoJE=F BraDBF=F KetDBF=F FulRan=T
         wScrn=  0.000000 ICntrl=       600 IOpCl=  0 I1Cent=           0 NGrid=           0
         NMat0=    1 NMatS0=   7260 NMatT0=    0 NMatD0=    1 NMtDS0=    0 NMtDT0=    0
 Symmetry not used in FoFCou.
 Two-electron integral symmetry not used.
 Closed shell SCF:
 Using DIIS extrapolation, IDIIS=  1040.
 NGot=  1610612736 LenX=  1584221388 LenY=  1584205571
 Requested convergence on RMS density matrix=1.00D-08 within 128 cycles.
 Requested convergence on MAX density matrix=1.00D-06.
 Requested convergence on             energy=1.00D-06.
 No special actions if energy rises.

 Cycle   1  Pass 1  IDiag  1:
 E= -649.174222185225    
 DIIS: error= 1.30D-02 at cycle   1 NSaved=   1.
 NSaved= 1 IEnMin= 1 EnMin= -649.174222185225     IErMin= 1 ErrMin= 1.30D-02
 ErrMax= 1.30D-02  0.00D+00 EMaxC= 1.00D-01 BMatC= 2.67D-02 BMatP= 2.67D-02
 IDIUse=3 WtCom= 8.70D-01 WtEn= 1.30D-01
 Coeff-Com:  0.100D+01
 Coeff-En:   0.100D+01
 Coeff:      0.100D+01
 Gap=     0.036 Goal=   None    Shift=    0.000
 GapD=    0.036 DampG=0.250 DampE=0.500 DampFc=0.2500 IDamp=-1.
 Damping current iteration by 2.50D-01
 RMSDP=3.53D-03 MaxDP=1.10D-01              OVMax= 1.67D-01

 Cycle   2  Pass 1  IDiag  1:
 E= -649.178653466696     Delta-E=       -0.004431281471 Rises=F Damp=T
 DIIS: error= 9.07D-03 at cycle   2 NSaved=   2.
 NSaved= 2 IEnMin= 2 EnMin= -649.178653466696     IErMin= 2 ErrMin= 9.07D-03
 ErrMax= 9.07D-03  0.00D+00 EMaxC= 1.00D-01 BMatC= 1.02D-02 BMatP= 2.67D-02
 IDIUse=3 WtCom= 9.09D-01 WtEn= 9.07D-02
 Coeff-Com: -0.126D+01 0.226D+01
 Coeff-En:   0.000D+00 0.100D+01
 Coeff:     -0.115D+01 0.215D+01
 Gap=     0.040 Goal=   None    Shift=    0.000
 RMSDP=2.82D-03 MaxDP=9.33D-02 DE=-4.43D-03 OVMax= 2.32D-01

 Cycle   3  Pass 1  IDiag  1:
 E= -649.182729312070     Delta-E=       -0.004075845375 Rises=F Damp=F
 DIIS: error= 3.79D-03 at cycle   3 NSaved=   3.
 NSaved= 3 IEnMin= 3 EnMin= -649.182729312070     IErMin= 3 ErrMin= 3.79D-03
 ErrMax= 3.79D-03  0.00D+00 EMaxC= 1.00D-01 BMatC= 7.15D-04 BMatP= 1.02D-02
 IDIUse=3 WtCom= 9.62D-01 WtEn= 3.79D-02
 Coeff-Com: -0.312D+00 0.556D+00 0.756D+00
 Coeff-En:   0.000D+00 0.314D-01 0.969D+00
 Coeff:     -0.300D+00 0.536D+00 0.764D+00
 Gap=     0.036 Goal=   None    Shift=    0.000
 RMSDP=2.99D-03 MaxDP=1.95D-01 DE=-4.08D-03 OVMax= 2.57D-01

 Cycle   4  Pass 1  IDiag  1:
 E= -649.176749419630     Delta-E=        0.005979892440 Rises=F Damp=F
 DIIS: error= 4.30D-03 at cycle   4 NSaved=   4.
 NSaved= 4 IEnMin= 3 EnMin= -649.182729312070     IErMin= 3 ErrMin= 3.79D-03
 ErrMax= 4.30D-03  0.00D+00 EMaxC= 1.00D-01 BMatC= 1.52D-03 BMatP= 7.15D-04
 IDIUse=3 WtCom= 1.32D-01 WtEn= 8.68D-01
 Coeff-Com:  0.102D-01-0.840D-02 0.594D+00 0.405D+00
 Coeff-En:   0.000D+00 0.000D+00 0.637D+00 0.363D+00
 Coeff:      0.134D-02-0.111D-02 0.631D+00 0.369D+00
 Gap=     0.039 Goal=   None    Shift=    0.000
 RMSDP=1.68D-03 MaxDP=1.16D-01 DE= 5.98D-03 OVMax= 1.38D-01

 Cycle   5  Pass 1  IDiag  1:
 E= -649.187582893638     Delta-E=       -0.010833474008 Rises=F Damp=F
 DIIS: error= 9.42D-04 at cycle   5 NSaved=   5.
 NSaved= 5 IEnMin= 5 EnMin= -649.187582893638     IErMin= 5 ErrMin= 9.42D-04
 ErrMax= 9.42D-04  0.00D+00 EMaxC= 1.00D-01 BMatC= 3.59D-05 BMatP= 7.15D-04
 IDIUse=3 WtCom= 9.91D-01 WtEn= 9.42D-03
 Coeff-Com: -0.688D-03-0.396D-03 0.236D+00 0.616D-01 0.704D+00
 Coeff-En:   0.000D+00 0.000D+00 0.326D-01 0.000D+00 0.967D+00
 Coeff:     -0.682D-03-0.392D-03 0.234D+00 0.610D-01 0.706D+00
 Gap=     0.037 Goal=   None    Shift=    0.000
 RMSDP=2.77D-04 MaxDP=1.30D-02 DE=-1.08D-02 OVMax= 2.19D-02

 Cycle   6  Pass 1  IDiag  1:
 E= -649.187797801448     Delta-E=       -0.000214907810 Rises=F Damp=F
 DIIS: error= 1.95D-04 at cycle   6 NSaved=   6.
 NSaved= 6 IEnMin= 6 EnMin= -649.187797801448     IErMin= 6 ErrMin= 1.95D-04
 ErrMax= 1.95D-04  0.00D+00 EMaxC= 1.00D-01 BMatC= 2.59D-06 BMatP= 3.59D-05
 IDIUse=3 WtCom= 9.98D-01 WtEn= 1.95D-03
 Coeff-Com: -0.348D-02 0.380D-02 0.884D-01 0.228D-02 0.396D+00 0.513D+00
 Coeff-En:   0.000D+00 0.000D+00 0.000D+00 0.000D+00 0.000D+00 0.100D+01
 Coeff:     -0.348D-02 0.380D-02 0.882D-01 0.228D-02 0.395D+00 0.514D+00
 Gap=     0.037 Goal=   None    Shift=    0.000
 RMSDP=1.09D-04 MaxDP=6.22D-03 DE=-2.15D-04 OVMax= 8.78D-03

 Cycle   7  Pass 1  IDiag  1:
 E= -649.187810281222     Delta-E=       -0.000012479774 Rises=F Damp=F
 DIIS: error= 9.91D-05 at cycle   7 NSaved=   7.
 NSaved= 7 IEnMin= 7 EnMin= -649.187810281222     IErMin= 7 ErrMin= 9.91D-05
 ErrMax= 9.91D-05  0.00D+00 EMaxC= 1.00D-01 BMatC= 4.78D-07 BMatP= 2.59D-06
 IDIUse=1 WtCom= 1.00D+00 WtEn= 0.00D+00
 Coeff-Com: -0.203D-02 0.248D-02 0.116D-01-0.779D-02 0.848D-01 0.315D+00
 Coeff-Com:  0.596D+00
 Coeff:     -0.203D-02 0.248D-02 0.116D-01-0.779D-02 0.848D-01 0.315D+00
 Coeff:      0.596D+00
 Gap=     0.037 Goal=   None    Shift=    0.000
 RMSDP=3.65D-05 MaxDP=2.04D-03 DE=-1.25D-05 OVMax= 3.79D-03

 Cycle   8  Pass 1  IDiag  1:
 E= -649.187813272889     Delta-E=       -0.000002991667 Rises=F Damp=F
 DIIS: error= 3.82D-05 at cycle   8 NSaved=   8.
 NSaved= 8 IEnMin= 8 EnMin= -649.187813272889     IErMin= 8 ErrMin= 3.82D-05
 ErrMax= 3.82D-05  0.00D+00 EMaxC= 1.00D-01 BMatC= 3.94D-08 BMatP= 4.78D-07
 IDIUse=1 WtCom= 1.00D+00 WtEn= 0.00D+00
 Coeff-Com: -0.636D-03 0.782D-03 0.480D-02-0.437D-02 0.287D-01 0.127D+00
 Coeff-Com:  0.306D+00 0.538D+00
 Coeff:     -0.636D-03 0.782D-03 0.480D-02-0.437D-02 0.287D-01 0.127D+00
 Coeff:      0.306D+00 0.538D+00
 Gap=     0.037 Goal=   None    Shift=    0.000
 RMSDP=1.03D-05 MaxDP=5.25D-04 DE=-2.99D-06 OVMax= 1.02D-03

 Cycle   9  Pass 1  IDiag  1:
 E= -649.187813632616     Delta-E=       -0.000000359727 Rises=F Damp=F
 DIIS: error= 3.66D-06 at cycle   9 NSaved=   9.
 NSaved= 9 IEnMin= 9 EnMin= -649.187813632616     IErMin= 9 ErrMin= 3.66D-06
 ErrMax= 3.66D-06  0.00D+00 EMaxC= 1.00D-01 BMatC= 8.85D-10 BMatP= 3.94D-08
 IDIUse=1 WtCom= 1.00D+00 WtEn= 0.00D+00
 Coeff-Com:  0.149D-03-0.198D-03 0.234D-03-0.628D-03-0.660D-03 0.435D-02
 Coeff-Com:  0.186D-01 0.618D-01 0.916D+00
 Coeff:      0.149D-03-0.198D-03 0.234D-03-0.628D-03-0.660D-03 0.435D-02
 Coeff:      0.186D-01 0.618D-01 0.916D+00
 Gap=     0.037 Goal=   None    Shift=    0.000
 RMSDP=2.39D-06 MaxDP=9.88D-05 DE=-3.60D-07 OVMax= 1.13D-04

 Cycle  10  Pass 1  IDiag  1:
 E= -649.187813638216     Delta-E=       -0.000000005600 Rises=F Damp=F
 DIIS: error= 5.12D-07 at cycle  10 NSaved=  10.
 NSaved=10 IEnMin=10 EnMin= -649.187813638216     IErMin=10 ErrMin= 5.12D-07
 ErrMax= 5.12D-07  0.00D+00 EMaxC= 1.00D-01 BMatC= 3.37D-11 BMatP= 8.85D-10
 IDIUse=1 WtCom= 1.00D+00 WtEn= 0.00D+00
 Coeff-Com:  0.834D-04-0.110D-03-0.204D-03 0.412D-04-0.163D-02-0.774D-02
 Coeff-Com: -0.134D-01 0.201D-02 0.194D+00 0.827D+00
 Coeff:      0.834D-04-0.110D-03-0.204D-03 0.412D-04-0.163D-02-0.774D-02
 Coeff:     -0.134D-01 0.201D-02 0.194D+00 0.827D+00
 Gap=     0.037 Goal=   None    Shift=    0.000
 RMSDP=4.84D-07 MaxDP=1.30D-05 DE=-5.60D-09 OVMax= 1.94D-05

 Cycle  11  Pass 1  IDiag  1:
 E= -649.187813638377     Delta-E=       -0.000000000161 Rises=F Damp=F
 DIIS: error= 1.47D-07 at cycle  11 NSaved=  11.
 NSaved=11 IEnMin=11 EnMin= -649.187813638377     IErMin=11 ErrMin= 1.47D-07
 ErrMax= 1.47D-07  0.00D+00 EMaxC= 1.00D-01 BMatC= 1.84D-12 BMatP= 3.37D-11
 IDIUse=1 WtCom= 1.00D+00 WtEn= 0.00D+00
 Coeff-Com: -0.309D-05 0.407D-05-0.550D-04 0.158D-04-0.233D-03-0.889D-03
 Coeff-Com: -0.188D-02 0.290D-02-0.188D-01 0.135D+00 0.884D+00
 Coeff:     -0.309D-05 0.407D-05-0.550D-04 0.158D-04-0.233D-03-0.889D-03
 Coeff:     -0.188D-02 0.290D-02-0.188D-01 0.135D+00 0.884D+00
 Gap=     0.037 Goal=   None    Shift=    0.000
 RMSDP=7.26D-08 MaxDP=2.89D-06 DE=-1.61D-10 OVMax= 4.42D-06

 Cycle  12  Pass 1  IDiag  1:
 E= -649.187813638385     Delta-E=       -0.000000000008 Rises=F Damp=F
 DIIS: error= 2.56D-08 at cycle  12 NSaved=  12.
 NSaved=12 IEnMin=12 EnMin= -649.187813638385     IErMin=12 ErrMin= 2.56D-08
 ErrMax= 2.56D-08  0.00D+00 EMaxC= 1.00D-01 BMatC= 9.46D-14 BMatP= 1.84D-12
 IDIUse=1 WtCom= 1.00D+00 WtEn= 0.00D+00
 Coeff-Com: -0.221D-05 0.288D-05-0.740D-05 0.289D-05-0.182D-04 0.221D-03
 Coeff-Com:  0.385D-03 0.225D-03-0.364D-02-0.169D-01 0.853D-01 0.934D+00
 Coeff:     -0.221D-05 0.288D-05-0.740D-05 0.289D-05-0.182D-04 0.221D-03
 Coeff:      0.385D-03 0.225D-03-0.364D-02-0.169D-01 0.853D-01 0.934D+00
 Gap=     0.037 Goal=   None    Shift=    0.000
 RMSDP=2.61D-08 MaxDP=1.05D-06 DE=-8.41D-12 OVMax= 1.62D-06

 Cycle  13  Pass 1  IDiag  1:
 E= -649.187813638385     Delta-E=        0.000000000000 Rises=F Damp=F
 DIIS: error= 1.22D-08 at cycle  13 NSaved=  13.
 NSaved=13 IEnMin=12 EnMin= -649.187813638385     IErMin=13 ErrMin= 1.22D-08
 ErrMax= 1.22D-08  0.00D+00 EMaxC= 1.00D-01 BMatC= 8.86D-15 BMatP= 9.46D-14
 IDIUse=1 WtCom= 1.00D+00 WtEn= 0.00D+00
 Coeff-Com: -0.107D-06 0.141D-06-0.126D-05 0.987D-06-0.748D-05 0.738D-04
 Coeff-Com:  0.168D-03-0.113D-03-0.632D-03-0.109D-01-0.124D-01 0.333D+00
 Coeff-Com:  0.690D+00
 Coeff:     -0.107D-06 0.141D-06-0.126D-05 0.987D-06-0.748D-05 0.738D-04
 Coeff:      0.168D-03-0.113D-03-0.632D-03-0.109D-01-0.124D-01 0.333D+00
 Coeff:      0.690D+00
 Gap=     0.037 Goal=   None    Shift=    0.000
 RMSDP=7.50D-09 MaxDP=3.33D-07 DE= 2.27D-13 OVMax= 5.19D-07

 SCF Done:  E(RB3LYP) =  -649.187813638     A.U. after   13 cycles
            NFock= 13  Conv=0.75D-08     -V/T= 2.0030
 KE= 6.472259036269D+02 PE=-1.702119616100D+03 EE= 3.341446189319D+02
 Leave Link  502 at Thu Sep 21 21:02:42 2023, MaxMem=  1610612736 cpu:              21.1 elap:               1.5
 (Enter /home/sekinelabo/g16/l601.exe)
 Copying SCF densities to generalized density rwf, IOpCl= 0 IROHF=0.

 **********************************************************************

            Population analysis using the SCF Density.

 **********************************************************************

 Orbital symmetries:
       Occupied  (A) (A) (A) (A) (A) (A) (A) (A) (A) (A) (A) (A)
                 (A) (A) (A) (A) (A) (A) (A) (A) (A) (A)
       Virtual   (A) (A) (A) (A) (A) (A) (A) (A) (A) (A) (A) (A)
                 (A) (A) (A) (A) (A) (A) (A) (A) (A) (A) (A) (A)
                 (A) (A) (A) (A) (A) (A) (A) (A) (A) (A) (A) (A)
                 (A) (A) (A) (A) (A) (A) (A) (A) (A) (A) (A) (A)
                 (A) (A) (A) (A) (A) (A) (A) (A) (A) (A) (A) (A)
                 (A) (A) (A) (A) (A) (A) (A) (A) (A) (A) (A) (A)
                 (A) (A) (A) (A) (A) (A) (A) (A) (A) (A) (A) (A)
                 (A) (A) (A) (A) (A) (A) (A) (A) (A) (A) (A) (A)
                 (A) (A)
 The electronic state is 1-A.
 Alpha  occ. eigenvalues --  -38.45918 -38.45235 -38.45169 -38.44628  -2.21609
 Alpha  occ. eigenvalues --   -2.20939  -2.20880  -2.20343  -1.15288  -1.15287
 Alpha  occ. eigenvalues --   -1.15231  -1.14628  -1.14617  -1.14558  -1.14556
 Alpha  occ. eigenvalues --   -1.14556  -1.14503  -1.14035  -1.14034  -1.13951
 Alpha  occ. eigenvalues --   -0.13495  -0.11881
 Alpha virt. eigenvalues --   -0.08155  -0.05238  -0.02725  -0.02668  -0.02129
 Alpha virt. eigenvalues --   -0.01727  -0.01539  -0.00583  -0.00241   0.00109
 Alpha virt. eigenvalues --    0.00178   0.00884   0.01007   0.01164   0.01211
 Alpha virt. eigenvalues --    0.01332   0.01530   0.01787   0.01843   0.01944
 Alpha virt. eigenvalues --    0.02194   0.02341   0.02505   0.02740   0.02911
 Alpha virt. eigenvalues --    0.03358   0.03432   0.03663   0.04288   0.05027
 Alpha virt. eigenvalues --    0.07081   0.07401   0.07582   0.07900   0.08151
 Alpha virt. eigenvalues --    0.08355   0.08470   0.08778   0.08931   0.09075
 Alpha virt. eigenvalues --    0.09842   0.10216   0.11904   0.12861   0.13453
 Alpha virt. eigenvalues --    0.14758   0.29892   0.30287   0.30504   0.32116
 Alpha virt. eigenvalues --    0.32305   0.33671   0.34318   0.34589   0.34617
 Alpha virt. eigenvalues --    0.34765   0.35448   0.36151   0.36870   0.37380
 Alpha virt. eigenvalues --    0.38364   0.39658   0.40074   0.41721   0.42385
 Alpha virt. eigenvalues --    0.43087   0.43415   0.43560   0.43972   0.44563
 Alpha virt. eigenvalues --    0.44867   0.45285   0.45713   0.47105   0.48576
 Alpha virt. eigenvalues --    0.48819   0.51090   0.54131   1.98554   2.04329
 Alpha virt. eigenvalues --    2.07335   2.09491   4.42867   4.43049   4.43066
 Alpha virt. eigenvalues --    4.43779   4.43838   4.44092   4.44562   4.45000
 Alpha virt. eigenvalues --    4.45087   4.45639   4.47060   4.49265  96.17007
 Alpha virt. eigenvalues --   96.24042  96.27603  96.29871
          Condensed to atoms (all electrons):
               1          2          3          4
     1  Na  11.019196   0.273183   0.021040  -0.121577
     2  Na   0.273183  10.730209  -0.118740  -0.027808
     3  Na   0.021040  -0.118740  10.851165   0.268933
     4  Na  -0.121577  -0.027808   0.268933  10.809369
 Mulliken charges:
               1
     1  Na  -0.191841
     2  Na   0.143157
     3  Na  -0.022399
     4  Na   0.071083
 Sum of Mulliken charges =  -0.00000
 Mulliken charges with hydrogens summed into heavy atoms:
               1
     1  Na  -0.191841
     2  Na   0.143157
     3  Na  -0.022399
     4  Na   0.071083
 Electronic spatial extent (au):  <R**2>=           2755.9528
 Charge=             -0.0000 electrons
 Dipole moment (field-independent basis, Debye):
    X=             -0.4871    Y=             -0.4847    Z=             -0.0887  Tot=              0.6929
 Quadrupole moment (field-independent basis, Debye-Ang):
   XX=            -21.5524   YY=            -39.1847   ZZ=            -44.7453
   XY=              2.0396   XZ=             -1.8302   YZ=             -0.1707
 Traceless Quadrupole moment (field-independent basis, Debye-Ang):
   XX=             13.6084   YY=             -4.0239   ZZ=             -9.5845
   XY=              2.0396   XZ=             -1.8302   YZ=             -0.1707
 Octapole moment (field-independent basis, Debye-Ang**2):
  XXX=             19.6606  YYY=              1.2110  ZZZ=             -0.0026  XYY=            -14.6351
  XXY=            -70.1895  XXZ=             -9.9572  XZZ=              0.4192  YZZ=              0.0643
  YYZ=             -1.2161  XYZ=              3.7267
 Hexadecapole moment (field-independent basis, Debye-Ang**3):
 XXXX=          -2809.4811 YYYY=           -389.3467 ZZZZ=           -211.1012 XXXY=            106.3712
 XXXZ=            -96.8746 YYYX=              8.8897 YYYZ=             -2.4791 ZZZX=             -8.5130
 ZZZY=             -0.9951 XXYY=           -694.8368 XXZZ=           -760.7882 YYZZ=           -101.7476
 XXYZ=              6.2944 YYXZ=             -2.1782 ZZXY=              2.6662
 N-N= 7.156127990298D+01 E-N=-1.702119616051D+03  KE= 6.472259036269D+02
 No NMR shielding tensors so no spin-rotation constants.
 Leave Link  601 at Thu Sep 21 21:02:42 2023, MaxMem=  1610612736 cpu:               0.9 elap:               0.1
 (Enter /home/sekinelabo/g16/l701.exe)
 ... and contract with generalized density number  0.
 Compute integral first derivatives.
 Leave Link  701 at Thu Sep 21 21:02:42 2023, MaxMem=  1610612736 cpu:               1.3 elap:               0.1
 (Enter /home/sekinelabo/g16/l702.exe)
 L702 exits ... SP integral derivatives will be done elsewhere.
 Leave Link  702 at Thu Sep 21 21:02:42 2023, MaxMem=  1610612736 cpu:               0.9 elap:               0.1
 (Enter /home/sekinelabo/g16/l703.exe)
 Integral derivatives from FoFJK, PRISM(SPDF).
 Compute integral first derivatives, UseDBF=F ICtDFT=           0.
 Calling FoFJK, ICntrl=      2127 FMM=F ISym2X=0 I1Cent= 0 IOpClX= 0 NMat=1 NMatS=1 NMatT=0.
 FoFJK:  IHMeth= 1 ICntrl=    2127 DoSepK=F KAlg= 0 I1Cent=           0 FoldK=F
 IRaf=         0 NMat=       1 IRICut=       1 DoRegI=T DoRafI=F ISym2E= 0 IDoP0=0 IntGTp=1.
 FoFCou: FMM=F IPFlag=           0 FMFlag=      100000 FMFlg1=         800
         NFxFlg=           0 DoJE=F BraDBF=F KetDBF=F FulRan=T
         wScrn=  0.000000 ICntrl=      2127 IOpCl=  0 I1Cent=           0 NGrid=           0
         NMat0=    1 NMatS0=      1 NMatT0=    0 NMatD0=    1 NMtDS0=    0 NMtDT0=    0
 Symmetry not used in FoFCou.
 Leave Link  703 at Thu Sep 21 21:02:42 2023, MaxMem=  1610612736 cpu:               5.6 elap:               0.4
 (Enter /home/sekinelabo/g16/l716.exe)
 Dipole        =-1.91651087D-01-1.90707587D-01-3.49142554D-02
 ***** Axes restored to original set *****
 -------------------------------------------------------------------
 Center     Atomic                   Forces (Hartrees/Bohr)
 Number     Number              X              Y              Z
 -------------------------------------------------------------------
      1       11          -0.002250288   -0.000187875   -0.004130403
      2       11           0.002241300    0.000084448    0.006310814
      3       11           0.000069494   -0.005835928    0.002192322
      4       11          -0.000060505    0.005939356   -0.004372733
 -------------------------------------------------------------------
 Cartesian Forces:  Max     0.006310814 RMS     0.003654744
 Z-matrix is all fixed cartesians, so copy forces.
 Force constants in Cartesian coordinates: 
                1             2             3             4             5 
      1  0.187539D-01
      2 -0.241848D-03  0.574072D-02
      3  0.108702D-02  0.000000D+00  0.223513D-01
      4 -0.101255D-01  0.000000D+00 -0.259981D-02  0.580369D-02
      5  0.930967D-04 -0.775305D-03  0.000000D+00  0.000000D+00  0.412478D-03
      6 -0.108702D-02  0.000000D+00 -0.123210D-01  0.259981D-02  0.000000D+00
      7 -0.866417D-02  0.573829D-03  0.151279D-02  0.432184D-02 -0.249001D-03
      8  0.187141D-03 -0.745547D-02  0.000000D+00  0.000000D+00  0.360393D-03
      9  0.533330D-04 -0.341677D-02 -0.100303D-01  0.000000D+00  0.000000D+00
     10  0.357956D-04 -0.331982D-03  0.000000D+00  0.000000D+00  0.155905D-03
     11 -0.383899D-04  0.249006D-02  0.000000D+00  0.000000D+00  0.243355D-05
     12 -0.533330D-04  0.341677D-02  0.000000D+00  0.000000D+00  0.000000D+00
                6             7             8             9            10 
      6  0.123210D-01
      7 -0.151279D-02  0.443892D-02
      8  0.000000D+00 -0.481961D-03  0.172537D-01
      9  0.000000D+00 -0.135666D-04  0.869144D-03  0.160695D-01
     10  0.000000D+00 -0.965908D-04  0.294819D-03 -0.397664D-04  0.607952D-04
     11  0.000000D+00  0.157132D-03 -0.101586D-01  0.254762D-02 -0.118743D-03
     12  0.000000D+00  0.135666D-04 -0.869144D-03 -0.603917D-02  0.397664D-04
               11            12 
     11  0.766615D-02
     12 -0.254762D-02  0.603917D-02
 Leave Link  716 at Thu Sep 21 21:02:42 2023, MaxMem=  1610612736 cpu:               0.3 elap:               0.0
 (Enter /home/sekinelabo/g16/l103.exe)

 GradGradGradGradGradGradGradGradGradGradGradGradGradGradGradGradGradGrad
 Berny optimization.
 Search for a local minimum.
 Step number   1 out of a maximum of    2
 All quantities printed in internal units (Hartrees-Bohrs-Radians)
 Second derivative matrix not updated -- first step.
 The second derivative matrix:
                          X1        Y1        Z1        X2        Y2
           X1           0.01875
           Y1          -0.00024   0.00574
           Z1           0.00109   0.00000   0.02235
           X2          -0.01013   0.00000  -0.00260   0.00580
           Y2           0.00009  -0.00078   0.00000   0.00000   0.00041
           Z2          -0.00109  -0.00000  -0.01232   0.00260  -0.00000
           X3          -0.00866   0.00057   0.00151   0.00432  -0.00025
           Y3           0.00019  -0.00746  -0.00000   0.00000   0.00036
           Z3           0.00005  -0.00342  -0.01003  -0.00000  -0.00000
           X4           0.00004  -0.00033   0.00000  -0.00000   0.00016
           Y4          -0.00004   0.00249   0.00000  -0.00000   0.00000
           Z4          -0.00005   0.00342   0.00000  -0.00000  -0.00000
                          Z2        X3        Y3        Z3        X4
           Z2           0.01232
           X3          -0.00151   0.00444
           Y3           0.00000  -0.00048   0.01725
           Z3           0.00000  -0.00001   0.00087   0.01607
           X4          -0.00000  -0.00010   0.00029  -0.00004   0.00006
           Y4          -0.00000   0.00016  -0.01016   0.00255  -0.00012
           Z4          -0.00000   0.00001  -0.00087  -0.00604   0.00004
                          Y4        Z4
           Y4           0.00767
           Z4          -0.00255   0.00604
 ITU=  0
     Eigenvalues ---    0.00129   0.00673   0.01855   0.02636   0.02822
     Eigenvalues ---    0.03576
 Quadratic step=9.844D-01 exceeds max=3.000D-01 adjusted using Lamda=-2.188D-02.
 Angle between NR and scaled steps=  23.13 degrees.
 Angle between quadratic step and forces=  16.95 degrees.
 Linear search not attempted -- first point.
 B after Tr=    -0.000000    0.000000    0.000000
         Rot=    1.000000   -0.000000   -0.000000    0.000000 Ang=   0.00 deg.
 Variable       Old X    -DE/DX   Delta X   Delta X   Delta X     New X
                                 (Linear)    (Quad)   (Total)
    X1        0.00000  -0.00225   0.00000  -0.03935  -0.03935  -0.03935
    Y1       -0.00000  -0.00019   0.00000  -0.03366  -0.03366  -0.03366
    Z1       -0.00000  -0.00413   0.00000  -0.04001  -0.04001  -0.04001
    X2       -2.36137   0.00224   0.00000   0.04871   0.04871  -2.31266
    Y2       -0.00000   0.00008   0.00000   0.00462   0.00462   0.00462
    Z2       -6.74613   0.00631   0.00000   0.16478   0.16478  -6.58135
    X3        0.00000   0.00007   0.00000  -0.00877  -0.00877  -0.00877
    Y3        0.00000  -0.00584   0.00000  -0.12019  -0.12019  -0.12019
    Z3        7.63873   0.00219   0.00000   0.01475   0.01475   7.65348
    X4        0.09749  -0.00006   0.00000  -0.00058  -0.00058   0.09691
    Y4       -6.24597   0.00594   0.00000   0.14924   0.14924  -6.09673
    Z4       12.20011  -0.00437   0.00000  -0.13952  -0.13952  12.06059
         Item               Value     Threshold  Converged?
 Maximum Force            0.006311     0.000450     NO 
 RMS     Force            0.003655     0.000300     NO 
 Maximum Displacement     0.164779     0.001800     NO 
 RMS     Displacement     0.086749     0.001200     NO 
 Predicted change in Energy=-2.807437D-03
 GradGradGradGradGradGradGradGradGradGradGradGradGradGradGradGradGradGrad

 Leave Link  103 at Thu Sep 21 21:02:42 2023, MaxMem=  1610612736 cpu:               0.1 elap:               0.0
 (Enter /home/sekinelabo/g16/l9999.exe)
 1\1\GINC-SEKINELABO-XA7R-R37\Force\RB3LYP\6-311+G(d)\Na4\SEKINELABO\21
 -Sep-2023\0\\#p B3LYP/6-311+g(d) force\\\0,1\Na,0.,0.,0.\Na,-1.2495810
 947,0.,-3.5698990488\Na,0.,0.,4.0422409402\Na,0.051591891,-3.305223424
 3,6.4560199866\\Version=ES64L-G16RevB.01\State=1-A\HF=-649.1878136\RMS
 D=7.499e-09\RMSF=3.655e-03\Dipole=-0.0530127,-0.226248,0.1425483\Quadr
 upole=-6.5672498,-1.2153442,7.782594,-0.2539041,2.8900717,-4.9202226\P
 G=C01 [X(Na4)]\\@


 ONE THORN OF EXPERIENCE IS WORTH A WHOLE WILDERNESS OF
 WARNING....  LOWELL - AMONG MY BOOKS
 Job cpu time:       0 days  0 hours  0 minutes 36.9 seconds.
 Elapsed time:       0 days  0 hours  0 minutes  2.5 seconds.
 File lengths (MBytes):  RWF=     10 Int=      0 D2E=      0 Chk=      2 Scr=      1
 Normal termination of Gaussian 16 at Thu Sep 21 21:02:43 2023.
 Initial command:
 /home/sekinelabo/g16/l1.exe "/home/sekinelabo/g16temp/Gau-3227443.inp" -scrdir="/home/sekinelabo/g16temp/"
 Entering Link 1 = /home/sekinelabo/g16/l1.exe PID=   3227933.
  
 Copyright (c) 1988-2017, Gaussian, Inc.  All Rights Reserved.
  
 This is part of the Gaussian(R) 16 program.  It is based on
 the Gaussian(R) 09 system (copyright 2009, Gaussian, Inc.),
 the Gaussian(R) 03 system (copyright 2003, Gaussian, Inc.),
 the Gaussian(R) 98 system (copyright 1998, Gaussian, Inc.),
 the Gaussian(R) 94 system (copyright 1995, Gaussian, Inc.),
 the Gaussian 92(TM) system (copyright 1992, Gaussian, Inc.),
 the Gaussian 90(TM) system (copyright 1990, Gaussian, Inc.),
 the Gaussian 88(TM) system (copyright 1988, Gaussian, Inc.),
 the Gaussian 86(TM) system (copyright 1986, Carnegie Mellon
 University), and the Gaussian 82(TM) system (copyright 1983,
 Carnegie Mellon University). Gaussian is a federally registered
 trademark of Gaussian, Inc.
  
 This software contains proprietary and confidential information,
 including trade secrets, belonging to Gaussian, Inc.
  
 This software is provided under written license and may be
 used, copied, transmitted, or stored only in accord with that
 written license.
  
 The following legend is applicable only to US Government
 contracts under FAR:
  
                    RESTRICTED RIGHTS LEGEND
  
 Use, reproduction and disclosure by the US Government is
 subject to restrictions as set forth in subparagraphs (a)
 and (c) of the Commercial Computer Software - Restricted
 Rights clause in FAR 52.227-19.
  
 Gaussian, Inc.
 340 Quinnipiac St., Bldg. 40, Wallingford CT 06492
  
  
 ---------------------------------------------------------------
 Warning -- This program may not be used in any manner that
 competes with the business of Gaussian, Inc. or will provide
 assistance to any competitor of Gaussian, Inc.  The licensee
 of this program is prohibited from giving any competitor of
 Gaussian, Inc. access to this program.  By using this program,
 the user acknowledges that Gaussian, Inc. is engaged in the
 business of creating and licensing software in the field of
 computational chemistry and represents and warrants to the
 licensee that it is not a competitor of Gaussian, Inc. and that
 it will not use this program in any manner prohibited above.
 ---------------------------------------------------------------
  

 Cite this work as:
 Gaussian 16, Revision B.01,
 M. J. Frisch, G. W. Trucks, H. B. Schlegel, G. E. Scuseria, 
 M. A. Robb, J. R. Cheeseman, G. Scalmani, V. Barone, 
 G. A. Petersson, H. Nakatsuji, X. Li, M. Caricato, A. V. Marenich, 
 J. Bloino, B. G. Janesko, R. Gomperts, B. Mennucci, H. P. Hratchian, 
 J. V. Ortiz, A. F. Izmaylov, J. L. Sonnenberg, D. Williams-Young, 
 F. Ding, F. Lipparini, F. Egidi, J. Goings, B. Peng, A. Petrone, 
 T. Henderson, D. Ranasinghe, V. G. Zakrzewski, J. Gao, N. Rega, 
 G. Zheng, W. Liang, M. Hada, M. Ehara, K. Toyota, R. Fukuda, 
 J. Hasegawa, M. Ishida, T. Nakajima, Y. Honda, O. Kitao, H. Nakai, 
 T. Vreven, K. Throssell, J. A. Montgomery, Jr., J. E. Peralta, 
 F. Ogliaro, M. J. Bearpark, J. J. Heyd, E. N. Brothers, K. N. Kudin, 
 V. N. Staroverov, T. A. Keith, R. Kobayashi, J. Normand, 
 K. Raghavachari, A. P. Rendell, J. C. Burant, S. S. Iyengar, 
 J. Tomasi, M. Cossi, J. M. Millam, M. Klene, C. Adamo, R. Cammi, 
 J. W. Ochterski, R. L. Martin, K. Morokuma, O. Farkas, 
 J. B. Foresman, and D. J. Fox, Gaussian, Inc., Wallingford CT, 2016.
 
 ******************************************
 Gaussian 16:  ES64L-G16RevB.01 20-Dec-2017
                21-Sep-2023 
 ******************************************
 %NProcShared=16
 Will use up to   16 processors via shared memory.
 %mem=12GB
 %Chk=checkpoint.chk
 -------------------------
 #p B3LYP/6-311+g(d) force
 -------------------------
 1/10=7,30=1,38=1/1,3;
 2/12=2,17=6,18=5,40=1/2;
 3/5=4,6=6,7=11,11=2,25=1,30=1,71=1,74=-5/1,2,3;
 4//1;
 5/5=2,38=5/2;
 6/7=2,8=2,9=2,10=2,28=1/1;
 7/29=1/1,2,3,16;
 1/10=7,30=1/3;
 99//99;
 Leave Link    1 at Thu Sep 21 21:02:43 2023, MaxMem=  1610612736 cpu:               0.2 elap:               0.0
 (Enter /home/sekinelabo/g16/l101.exe)


 Symbolic Z-matrix:
 Charge =  0 Multiplicity = 1
 Na                    0.        0.        0. 
 Na                   -3.38004   0.        1.21157 
 Na                    0.        0.        3.73999 
 Na                   -2.99707  -0.60871   5.1222 
 
 ITRead=  0  0  0  0
 MicOpt= -1 -1 -1 -1
 NAtoms=      4 NQM=        4 NQMF=       0 NMMI=      0 NMMIF=      0
                NMic=       0 NMicF=      0.
                    Isotopes and Nuclear Properties:
 (Nuclear quadrupole moments (NQMom) in fm**2, nuclear magnetic moments (NMagM)
  in nuclear magnetons)

  Atom         1           2           3           4
 IAtWgt=          23          23          23          23
 AtmWgt=  22.9897697  22.9897697  22.9897697  22.9897697
 NucSpn=           3           3           3           3
 AtZEff=  -0.0000000  -0.0000000  -0.0000000  -0.0000000
 NQMom=   10.4000000  10.4000000  10.4000000  10.4000000
 NMagM=    2.2175200   2.2175200   2.2175200   2.2175200
 AtZNuc=  11.0000000  11.0000000  11.0000000  11.0000000
[...]
 Coeff-Com: -0.104D-02 0.140D-02-0.125D-02-0.130D-02-0.145D-02 0.319D-02
 Coeff-Com:  0.189D-02-0.935D-01 0.119D+00-0.431D-01 0.166D-01 0.301D+00
 Coeff-Com:  0.698D+00
 Coeff:     -0.104D-02 0.140D-02-0.125D-02-0.130D-02-0.145D-02 0.319D-02
 Coeff:      0.189D-02-0.935D-01 0.119D+00-0.431D-01 0.166D-01 0.301D+00
 Coeff:      0.698D+00
 Gap=     0.015 Goal=   None    Shift=    0.000
 RMSDP=1.48D-05 MaxDP=7.85D-04 DE= 3.40D-06 OVMax= 1.54D-03

 Cycle  14  Pass 1  IDiag  1:
 E= -649.165485284417     Delta-E=       -0.000002966954 Rises=F Damp=F
 DIIS: error= 4.06D-05 at cycle  14 NSaved=  14.
 NSaved=14 IEnMin=12 EnMin= -649.165485720826     IErMin=12 ErrMin= 2.75D-05
 ErrMax= 4.06D-05  0.00D+00 EMaxC= 1.00D-01 BMatC= 1.61D-07 BMatP= 9.10D-08
 IDIUse=1 WtCom= 1.00D+00 WtEn= 0.00D+00
 Coeff-Com:  0.866D-04-0.112D-03 0.631D-04-0.224D-03 0.201D-03 0.519D-04
 Coeff-Com: -0.118D-03 0.508D-01-0.439D-01 0.164D-01-0.555D-01-0.863D-01
 Coeff-Com: -0.414D+00 0.153D+01
 Coeff:      0.866D-04-0.112D-03 0.631D-04-0.224D-03 0.201D-03 0.519D-04
 Coeff:     -0.118D-03 0.508D-01-0.439D-01 0.164D-01-0.555D-01-0.863D-01
 Coeff:     -0.414D+00 0.153D+01
 Gap=     0.016 Goal=   None    Shift=    0.000
 RMSDP=1.20D-05 MaxDP=6.40D-04 DE=-2.97D-06 OVMax= 1.19D-03

 Cycle  15  Pass 1  IDiag  1:
 E= -649.165486475803     Delta-E=       -0.000001191386 Rises=F Damp=F
 DIIS: error= 1.35D-05 at cycle  15 NSaved=  15.
 NSaved=15 IEnMin=15 EnMin= -649.165486475803     IErMin=15 ErrMin= 1.35D-05
 ErrMax= 1.35D-05  0.00D+00 EMaxC= 1.00D-01 BMatC= 1.82D-08 BMatP= 9.10D-08
 IDIUse=1 WtCom= 1.00D+00 WtEn= 0.00D+00
 Coeff-Com: -0.845D-05 0.190D-04-0.674D-05-0.338D-04-0.750D-05 0.774D-03
 Coeff-Com: -0.339D-03 0.120D-01-0.957D-02 0.280D-02-0.363D-02-0.196D-01
 Coeff-Com: -0.157D+00 0.611D-01 0.111D+01
 Coeff:     -0.845D-05 0.190D-04-0.674D-05-0.338D-04-0.750D-05 0.774D-03
 Coeff:     -0.339D-03 0.120D-01-0.957D-02 0.280D-02-0.363D-02-0.196D-01
 Coeff:     -0.157D+00 0.611D-01 0.111D+01
 Gap=     0.016 Goal=   None    Shift=    0.000
 RMSDP=5.32D-06 MaxDP=3.08D-04 DE=-1.19D-06 OVMax= 5.81D-04

 Cycle  16  Pass 1  IDiag  1:
 E= -649.165486626386     Delta-E=       -0.000000150583 Rises=F Damp=F
 DIIS: error= 1.01D-06 at cycle  16 NSaved=  16.
 NSaved=16 IEnMin=16 EnMin= -649.165486626386     IErMin=16 ErrMin= 1.01D-06
 ErrMax= 1.01D-06  0.00D+00 EMaxC= 1.00D-01 BMatC= 9.09D-11 BMatP= 1.82D-08
 IDIUse=1 WtCom= 1.00D+00 WtEn= 0.00D+00
 Coeff-Com: -0.171D-04 0.232D-04-0.126D-04-0.895D-05 0.119D-04 0.124D-03
 Coeff-Com: -0.486D-04-0.138D-02 0.151D-02-0.599D-03 0.195D-02 0.232D-02
 Coeff-Com:  0.805D-02-0.658D-01 0.687D-01 0.985D+00
 Coeff:     -0.171D-04 0.232D-04-0.126D-04-0.895D-05 0.119D-04 0.124D-03
 Coeff:     -0.486D-04-0.138D-02 0.151D-02-0.599D-03 0.195D-02 0.232D-02
 Coeff:      0.805D-02-0.658D-01 0.687D-01 0.985D+00
 Gap=     0.016 Goal=   None    Shift=    0.000
 RMSDP=3.28D-07 MaxDP=1.77D-05 DE=-1.51D-07 OVMax= 2.77D-05

 Cycle  17  Pass 1  IDiag  1:
 E= -649.165486627066     Delta-E=       -0.000000000680 Rises=F Damp=F
 DIIS: error= 2.34D-07 at cycle  17 NSaved=  17.
 NSaved=17 IEnMin=17 EnMin= -649.165486627066     IErMin=17 ErrMin= 2.34D-07
 ErrMax= 2.34D-07  0.00D+00 EMaxC= 1.00D-01 BMatC= 5.20D-12 BMatP= 9.09D-11
 IDIUse=1 WtCom= 1.00D+00 WtEn= 0.00D+00
 Coeff-Com: -0.273D-05 0.346D-05-0.893D-06-0.221D-05-0.612D-05-0.185D-04
 Coeff-Com: -0.122D-04-0.546D-03 0.536D-03 0.375D-04 0.227D-03 0.460D-03
 Coeff-Com:  0.277D-02-0.261D-02-0.275D-01 0.101D+00 0.926D+00
 Coeff:     -0.273D-05 0.346D-05-0.893D-06-0.221D-05-0.612D-05-0.185D-04
 Coeff:     -0.122D-04-0.546D-03 0.536D-03 0.375D-04 0.227D-03 0.460D-03
 Coeff:      0.277D-02-0.261D-02-0.275D-01 0.101D+00 0.926D+00
 Gap=     0.016 Goal=   None    Shift=    0.000
 RMSDP=7.14D-08 MaxDP=3.58D-06 DE=-6.80D-10 OVMax= 7.19D-06

 Cycle  18  Pass 1  IDiag  1:
 E= -649.165486627101     Delta-E=       -0.000000000035 Rises=F Damp=F
 DIIS: error= 7.82D-08 at cycle  18 NSaved=  18.
 NSaved=18 IEnMin=18 EnMin= -649.165486627101     IErMin=18 ErrMin= 7.82D-08
 ErrMax= 7.82D-08  0.00D+00 EMaxC= 1.00D-01 BMatC= 6.58D-13 BMatP= 5.20D-12
 IDIUse=1 WtCom= 1.00D+00 WtEn= 0.00D+00
 Coeff-Com: -0.310D-06 0.397D-06-0.495D-06-0.427D-06-0.594D-05-0.960D-05
 Coeff-Com: -0.597D-05-0.174D-03 0.188D-03 0.385D-05 0.762D-04 0.128D-03
 Coeff-Com:  0.259D-03 0.115D-02-0.109D-01-0.147D-01 0.239D+00 0.785D+00
 Coeff:     -0.310D-06 0.397D-06-0.495D-06-0.427D-06-0.594D-05-0.960D-05
 Coeff:     -0.597D-05-0.174D-03 0.188D-03 0.385D-05 0.762D-04 0.128D-03
 Coeff:      0.259D-03 0.115D-02-0.109D-01-0.147D-01 0.239D+00 0.785D+00
 Gap=     0.016 Goal=   None    Shift=    0.000
 RMSDP=4.00D-08 MaxDP=2.31D-06 DE=-3.50D-11 OVMax= 4.53D-06

 Cycle  19  Pass 1  IDiag  1:
 E= -649.165486627114     Delta-E=       -0.000000000012 Rises=F Damp=F
 DIIS: error= 1.08D-08 at cycle  19 NSaved=  19.
 NSaved=19 IEnMin=19 EnMin= -649.165486627114     IErMin=19 ErrMin= 1.08D-08
 ErrMax= 1.08D-08  0.00D+00 EMaxC= 1.00D-01 BMatC= 7.38D-15 BMatP= 6.58D-13
 IDIUse=1 WtCom= 1.00D+00 WtEn= 0.00D+00
 Large coefficients: NSaved= 19 BigCof=    0.00 CofMax=   10.00 Det=-7.95D-15
 Inversion failed.  Reducing to 18 matrices.
 Large coefficients: NSaved= 18 BigCof=    0.00 CofMax=   10.00 Det=-8.21D-15
 Inversion failed.  Reducing to 17 matrices.
 Large coefficients: NSaved= 17 BigCof=    0.00 CofMax=   10.00 Det=-8.22D-15
 Inversion failed.  Reducing to 16 matrices.
 Large coefficients: NSaved= 16 BigCof=    0.00 CofMax=   10.00 Det=-8.22D-15
 Inversion failed.  Reducing to 15 matrices.
 Coeff-Com:  0.548D-07 0.885D-06 0.116D-05 0.782D-05-0.738D-05-0.457D-05
 Coeff-Com:  0.158D-04 0.447D-04-0.258D-03-0.737D-05 0.164D-02-0.726D-03
 Coeff-Com: -0.456D-01 0.149D+00 0.896D+00
 Coeff:      0.548D-07 0.885D-06 0.116D-05 0.782D-05-0.738D-05-0.457D-05
 Coeff:      0.158D-04 0.447D-04-0.258D-03-0.737D-05 0.164D-02-0.726D-03
 Coeff:     -0.456D-01 0.149D+00 0.896D+00
 Gap=     0.016 Goal=   None    Shift=    0.000
 RMSDP=4.77D-09 MaxDP=2.09D-07 DE=-1.23D-11 OVMax= 3.09D-07

 SCF Done:  E(RB3LYP) =  -649.165486627     A.U. after   19 cycles
            NFock= 19  Conv=0.48D-08     -V/T= 2.0030
 KE= 6.472053299650D+02 PE=-1.706675398461D+03 EE= 3.363465764560D+02
 Leave Link  502 at Thu Sep 21 21:03:03 2023, MaxMem=  1610612736 cpu:              27.1 elap:               2.0
 (Enter /home/sekinelabo/g16/l601.exe)
 Copying SCF densities to generalized density rwf, IOpCl= 0 IROHF=0.

 **********************************************************************

            Population analysis using the SCF Density.

 **********************************************************************

 Orbital symmetries:
       Occupied  (A) (A) (A) (A) (A) (A) (A) (A) (A) (A) (A) (A)
                 (A) (A) (A) (A) (A) (A) (A) (A) (A) (A)
       Virtual   (A) (A) (A) (A) (A) (A) (A) (A) (A) (A) (A) (A)
                 (A) (A) (A) (A) (A) (A) (A) (A) (A) (A) (A) (A)
                 (A) (A) (A) (A) (A) (A) (A) (A) (A) (A) (A) (A)
                 (A) (A) (A) (A) (A) (A) (A) (A) (A) (A) (A) (A)
                 (A) (A) (A) (A) (A) (A) (A) (A) (A) (A) (A) (A)
                 (A) (A) (A) (A) (A) (A) (A) (A) (A) (A) (A) (A)
                 (A) (A) (A) (A) (A) (A) (A) (A) (A) (A) (A) (A)
                 (A) (A) (A) (A) (A) (A) (A) (A) (A) (A) (A) (A)
                 (A) (A)
 The electronic state is 1-A.
 Alpha  occ. eigenvalues --  -38.48004 -38.45997 -38.44788 -38.44190  -2.23664
 Alpha  occ. eigenvalues --   -2.21707  -2.20482  -2.19920  -1.17349  -1.17329
 Alpha  occ. eigenvalues --   -1.17296  -1.15413  -1.15376  -1.15309  -1.14156
 Alpha  occ. eigenvalues --   -1.14156  -1.14134  -1.13597  -1.13594  -1.13552
 Alpha  occ. eigenvalues --   -0.13912  -0.10476
 Alpha virt. eigenvalues --   -0.08924  -0.06073  -0.03038  -0.02740  -0.02348
 Alpha virt. eigenvalues --   -0.01803  -0.01150  -0.00891  -0.00637  -0.00053
 Alpha virt. eigenvalues --    0.00092   0.00608   0.00682   0.00827   0.01148
 Alpha virt. eigenvalues --    0.01372   0.01501   0.01660   0.01745   0.01839
 Alpha virt. eigenvalues --    0.01968   0.02076   0.02360   0.02486   0.02536
 Alpha virt. eigenvalues --    0.02914   0.03118   0.03449   0.03511   0.04795
 Alpha virt. eigenvalues --    0.06346   0.07247   0.07584   0.07864   0.08092
 Alpha virt. eigenvalues --    0.08253   0.08464   0.08601   0.08730   0.09139
 Alpha virt. eigenvalues --    0.09496   0.10266   0.11058   0.12072   0.12320
 Alpha virt. eigenvalues --    0.14051   0.29551   0.30012   0.31089   0.31306
 Alpha virt. eigenvalues --    0.32729   0.33430   0.33610   0.34605   0.35270
 Alpha virt. eigenvalues --    0.35371   0.35515   0.35631   0.35703   0.36088
 Alpha virt. eigenvalues --    0.36555   0.37358   0.39360   0.40775   0.41110
 Alpha virt. eigenvalues --    0.41941   0.42587   0.43309   0.43704   0.44085
 Alpha virt. eigenvalues --    0.44380   0.45056   0.45143   0.47060   0.47289
 Alpha virt. eigenvalues --    0.48909   0.50474   0.54254   1.98732   2.02841
 Alpha virt. eigenvalues --    2.03466   2.10140   4.41104   4.41256   4.41569
 Alpha virt. eigenvalues --    4.43283   4.44088   4.44349   4.44816   4.45111
 Alpha virt. eigenvalues --    4.45388   4.46301   4.46750   4.47101  96.17431
 Alpha virt. eigenvalues --   96.22251  96.22836  96.30763
          Condensed to atoms (all electrons):
               1          2          3          4
     1  Na  10.676567   0.046595   0.208268   0.175516
     2  Na   0.046595  11.062542  -0.064402   0.077778
     3  Na   0.208268  -0.064402  10.791282  -0.074140
     4  Na   0.175516   0.077778  -0.074140  10.730376
 Mulliken charges:
               1
     1  Na  -0.106947
     2  Na  -0.122514
     3  Na   0.138991
     4  Na   0.090469
 Sum of Mulliken charges =  -0.00000
 Mulliken charges with hydrogens summed into heavy atoms:
               1
     1  Na  -0.106947
     2  Na  -0.122514
     3  Na   0.138991
     4  Na   0.090469
 Electronic spatial extent (au):  <R**2>=           2123.7790
 Charge=             -0.0000 electrons
 Dipole moment (field-independent basis, Debye):
    X=              1.7769    Y=              1.8780    Z=              0.0426  Tot=              2.5858
 Quadrupole moment (field-independent basis, Debye-Ang):
   XX=            -46.0172   YY=            -31.9711   ZZ=            -45.9412
   XY=              6.2123   XZ=             -0.8606   YZ=             -0.7652
 Traceless Quadrupole moment (field-independent basis, Debye-Ang):
   XX=             -4.7074   YY=              9.3387   ZZ=             -4.6313
   XY=              6.2123   XZ=             -0.8606   YZ=             -0.7652
 Octapole moment (field-independent basis, Debye-Ang**2):
  XXX=             50.6144  YYY=             53.5100  ZZZ=              1.2400  XYY=             24.8523
  XXY=              1.6756  XXZ=             -6.3246  XZZ=              7.5495  YZZ=              3.2546
  YYZ=              0.2659  XYZ=              1.2017
 Hexadecapole moment (field-independent basis, Debye-Ang**3):
 XXXX=          -2732.0679 YYYY=           -792.5994 ZZZZ=           -220.8546 XXXY=             -5.3308
 XXXZ=             -9.8902 YYYX=             94.9882 YYYZ=             -6.0920 ZZZX=             -5.0889
 ZZZY=             -4.6900 XXYY=           -638.5457 XXZZ=           -543.7800 YYZZ=           -191.4606
 XXYZ=              6.0681 YYXZ=             -4.2574 ZZXY=             12.4399
 N-N= 7.395800541237D+01 E-N=-1.706675399012D+03  KE= 6.472053299650D+02
 No NMR shielding tensors so no spin-rotation constants.
 Leave Link  601 at Thu Sep 21 21:03:03 2023, MaxMem=  1610612736 cpu:               0.9 elap:               0.1
 (Enter /home/sekinelabo/g16/l701.exe)
 ... and contract with generalized density number  0.
 Compute integral first derivatives.
 Leave Link  701 at Thu Sep 21 21:03:03 2023, MaxMem=  1610612736 cpu:               1.3 elap:               0.1
 (Enter /home/sekinelabo/g16/l702.exe)
 L702 exits ... SP integral derivatives will be done elsewhere.
 Leave Link  702 at Thu Sep 21 21:03:03 2023, MaxMem=  1610612736 cpu:               0.4 elap:               0.0
 (Enter /home/sekinelabo/g16/l703.exe)
 Integral derivatives from FoFJK, PRISM(SPDF).
 Compute integral first derivatives, UseDBF=F ICtDFT=           0.
 Calling FoFJK, ICntrl=      2127 FMM=F ISym2X=0 I1Cent= 0 IOpClX= 0 NMat=1 NMatS=1 NMatT=0.
 FoFJK:  IHMeth= 1 ICntrl=    2127 DoSepK=F KAlg= 0 I1Cent=           0 FoldK=F
 IRaf=         0 NMat=       1 IRICut=       1 DoRegI=T DoRafI=F ISym2E= 0 IDoP0=0 IntGTp=1.
 FoFCou: FMM=F IPFlag=           0 FMFlag=      100000 FMFlg1=         800
         NFxFlg=           0 DoJE=F BraDBF=F KetDBF=F FulRan=T
         wScrn=  0.000000 ICntrl=      2127 IOpCl=  0 I1Cent=           0 NGrid=           0
         NMat0=    1 NMatS0=      1 NMatT0=    0 NMatD0=    1 NMtDS0=    0 NMtDT0=    0
 Symmetry not used in FoFCou.
 Leave Link  703 at Thu Sep 21 21:03:04 2023, MaxMem=  1610612736 cpu:               6.0 elap:               0.4
 (Enter /home/sekinelabo/g16/l716.exe)
 Dipole        = 6.99104444D-01 7.38873366D-01 1.67508792D-02
 ***** Axes restored to original set *****
 -------------------------------------------------------------------
 Center     Atomic                   Forces (Hartrees/Bohr)
 Number     Number              X              Y              Z
 -------------------------------------------------------------------
      1       11          -0.001643327   -0.004805314    0.003372743
      2       11           0.000578445   -0.001375061    0.003000882
      3       11          -0.000007797   -0.000942362   -0.004766876
      4       11           0.001072679    0.007122736   -0.001606749
 -------------------------------------------------------------------
 Cartesian Forces:  Max     0.007122736 RMS     0.003246466
 Z-matrix is all fixed cartesians, so copy forces.
 Force constants in Cartesian coordinates: 
                1             2             3             4             5 
      1  0.226603D-01
      2  0.148425D+00  0.972185D+00
      3  0.107322D-01  0.702957D-01  0.191647D-01
      4  0.000000D+00  0.000000D+00  0.000000D+00  0.100000D+01
      5  0.000000D+00  0.000000D+00  0.000000D+00  0.000000D+00  0.100000D+01
      6  0.000000D+00  0.000000D+00  0.000000D+00  0.000000D+00  0.000000D+00
      7  0.000000D+00  0.000000D+00  0.000000D+00  0.000000D+00  0.000000D+00
      8  0.000000D+00  0.000000D+00  0.000000D+00  0.000000D+00  0.000000D+00
      9  0.000000D+00  0.000000D+00 -0.140818D-01  0.000000D+00  0.000000D+00
     10  0.000000D+00  0.000000D+00  0.000000D+00  0.000000D+00  0.000000D+00
     11  0.000000D+00  0.000000D+00  0.000000D+00  0.000000D+00  0.000000D+00
     12  0.000000D+00  0.000000D+00  0.000000D+00  0.000000D+00  0.000000D+00
                6             7             8             9            10 
      6  0.100000D+01
      7  0.000000D+00  0.226603D-01
      8  0.000000D+00  0.148425D+00  0.972185D+00
      9  0.000000D+00  0.107322D-01  0.702957D-01  0.191647D-01
     10  0.000000D+00  0.000000D+00  0.000000D+00  0.000000D+00  0.100000D+01
     11  0.000000D+00  0.000000D+00  0.000000D+00  0.000000D+00  0.000000D+00
     12  0.000000D+00  0.000000D+00  0.000000D+00  0.000000D+00  0.000000D+00
               11            12 
     11  0.100000D+01
     12  0.000000D+00  0.100000D+01
 Leave Link  716 at Thu Sep 21 21:03:04 2023, MaxMem=  1610612736 cpu:               0.3 elap:               0.0
 (Enter /home/sekinelabo/g16/l103.exe)

 GradGradGradGradGradGradGradGradGradGradGradGradGradGradGradGradGradGrad
 Berny optimization.
 Search for a local minimum.
 Step number   1 out of a maximum of    2
 All quantities printed in internal units (Hartrees-Bohrs-Radians)
 Second derivative matrix not updated -- first step.
 The second derivative matrix:
                          X1        Y1        Z1        X2        Y2
           X1           0.02266
           Y1           0.14843   0.97219
           Z1           0.01073   0.07030   0.01916
           X2           0.00000   0.00000   0.00000   1.00000
           Y2           0.00000   0.00000   0.00000  -0.00000   1.00000
           Z2           0.00000   0.00000   0.00000  -0.00000   0.00000
           X3           0.00000  -0.00000   0.00000   0.00000   0.00000
           Y3          -0.00000  -0.00000   0.00000   0.00000   0.00000
           Z3           0.00000   0.00000  -0.01408   0.00000   0.00000
           X4           0.00000   0.00000   0.00000   0.00000   0.00000
           Y4           0.00000   0.00000   0.00000   0.00000   0.00000
           Z4           0.00000   0.00000   0.00000   0.00000   0.00000
                          Z2        X3        Y3        Z3        X4
           Z2           1.00000
           X3           0.00000   0.02266
           Y3           0.00000   0.14843   0.97219
           Z3           0.00000   0.01073   0.07030   0.01916
           X4           0.00000   0.00000   0.00000   0.00000   1.00000
           Y4           0.00000   0.00000   0.00000   0.00000  -0.00000
           Z4           0.00000   0.00000   0.00000   0.00000  -0.00000
                          Y4        Z4
           Y4           1.00000
           Z4           0.00000   1.00000
 ITU=  0
     Eigenvalues ---    0.02867   0.12315   0.55929   0.99655   0.99998
     Eigenvalues ---    1.00000
 Angle between quadratic step and forces=  55.26 degrees.
 Linear search not attempted -- first point.
 B after Tr=     0.000000    0.000000    0.000000
         Rot=    1.000000   -0.000000   -0.000000    0.000000 Ang=   0.00 deg.
 Variable       Old X    -DE/DX   Delta X   Delta X   Delta X     New X
                                 (Linear)    (Quad)   (Total)
    X1        0.00000  -0.00164   0.00000  -0.00938  -0.00938  -0.00938
    Y1        0.00000  -0.00481   0.00000  -0.01436  -0.01436  -0.01436
    Z1       -0.00000   0.00337   0.00000   0.14694   0.14694   0.14694
    X2       -2.34984   0.00058   0.00000   0.00333   0.00333  -2.34650
    Y2        0.00000  -0.00138   0.00000   0.00168   0.00168   0.00168
    Z2       -9.25197   0.00300   0.00000   0.00291   0.00291  -9.24907
    X3       -0.00000  -0.00001   0.00000   0.00416   0.00416   0.00416
    Y3        0.00000  -0.00094   0.00000   0.00611   0.00611   0.00611
    Z3        7.04304  -0.00477   0.00000  -0.14553  -0.14553   6.89751
    X4       -1.61924   0.00107   0.00000   0.00188   0.00188  -1.61736
    Y4       -7.73950   0.00712   0.00000   0.00657   0.00657  -7.73294
    Z4        0.89151  -0.00161   0.00000  -0.00431  -0.00431   0.88720
         Item               Value     Threshold  Converged?
 Maximum Force            0.007123     0.000450     NO 
 RMS     Force            0.003246     0.000300     NO 
 Maximum Displacement     0.146942     0.001800     NO 
 RMS     Displacement     0.060006     0.001200     NO 
 Predicted change in Energy=-6.660090D-04
 GradGradGradGradGradGradGradGradGradGradGradGradGradGradGradGradGradGrad

 Leave Link  103 at Thu Sep 21 21:03:04 2023, MaxMem=  1610612736 cpu:               0.1 elap:               0.0
 (Enter /home/sekinelabo/g16/l9999.exe)
 1\1\GINC-SEKINELABO-XA7R-R37\Force\RB3LYP\6-311+G(d)\Na4\SEKINELABO\21
 -Sep-2023\0\\#p B3LYP/6-311+g(d) force\\\0,1\Na,0.,0.,0.\Na,-1.2434793
 78,0.,-4.8959337332\Na,0.,0.,3.7270176027\Na,-0.856863975,-4.095569294
 3,0.4717673186\\Version=ES64L-G16RevB.01\State=1-A\HF=-649.1654866\RMS
 D=4.766e-09\RMSF=3.246e-03\Dipole=-0.0000235,-0.795217,0.6345009\Quadr
 upole=-3.3997219,7.3205993,-3.9208773,1.595981,-1.2048554,-3.7364657\P
 G=C01 [X(Na4)]\\@


 EVERYTHING'S GOT A MORAL, IF ONLY YOU CAN FIND IT.

                                    -- LEWIS CARROL, ALICE IN WONDERLAND
 Job cpu time:       0 days  0 hours  0 minutes 43.1 seconds.
 Elapsed time:       0 days  0 hours  0 minutes  3.0 seconds.
 File lengths (MBytes):  RWF=     10 Int=      0 D2E=      0 Chk=      2 Scr=      1
 Normal termination of Gaussian 16 at Thu Sep 21 21:03:04 2023.
