 Entering Gaussian System, Link 0=g16
 Initial command:
 /home/sekinelabo/g16/l1.exe "/home/sekinelabo/g16temp/Gau-3998691.inp" -scrdir="/home/sekinelabo/g16temp/"
 Entering Link 1 = /home/sekinelabo/g16/l1.exe PID=   3998693.
  
 Copyright (c) 1988-2017, Gaussian, Inc.  All Rights Reserved.
  
 This is part of the Gaussian(R) 16 program.  It is based on
 the Gaussian(R) 09 system (copyright 2009, Gaussian, Inc.),
 the Gaussian(R) 03 system (copyright 2003, Gaussian, Inc.),
 the Gaussian(R) 98 system (copyright 1998, Gaussian, Inc.),
 the Gaussian(R) 94 system (copyright 1995, Gaussian, Inc.),
 the Gaussian 92(TM) system (copyright 1992, Gaussian, Inc.),
 the Gaussian 90(TM) system (copyright 1990, Gaussian, Inc.),
 the Gaussian 88(TM) system (copyright 1988, Gaussian, Inc.),
 the Gaussian 86(TM) system (copyright 1986, Carnegie Mellon
 University), and the Gaussian 82(TM) system (copyright 1983,
 Carnegie Mellon University). Gaussian is a federally registered
 trademark of Gaussian, Inc.
  
 This software contains proprietary and confidential information,
 including trade secrets, belonging to Gaussian, Inc.
  
 This software is provided under written license and may be
 used, copied, transmitted, or stored only in accord with that
 written license.
  
 The following legend is applicable only to US Government
 contracts under FAR:
  
                    RESTRICTED RIGHTS LEGEND
  
 Use, reproduction and disclosure by the US Government is
 subject to restrictions as set forth in subparagraphs (a)
 and (c) of the Commercial Computer Software - Restricted
 Rights clause in FAR 52.227-19.
  
 Gaussian, Inc.
 340 Quinnipiac St., Bldg. 40, Wallingford CT 06492
  
  
 ---------------------------------------------------------------
 Warning -- This program may not be used in any manner that
 competes with the business of Gaussian, Inc. or will provide
 assistance to any competitor of Gaussian, Inc.  The licensee
 of this program is prohibited from giving any competitor of
 Gaussian, Inc. access to this program.  By using this program,
 the user acknowledges that Gaussian, Inc. is engaged in the
 business of creating and licensing software in the field of
 computational chemistry and represents and warrants to the
 licensee that it is not a competitor of Gaussian, Inc. and that
 it will not use this program in any manner prohibited above.
 ---------------------------------------------------------------
  

 Cite this work as:
 Gaussian 16, Revision B.01,
 M. J. Frisch, G. W. Trucks, H. B. Schlegel, G. E. Scuseria, 
 M. A. Robb, J. R. Cheeseman, G. Scalmani, V. Barone, 
 G. A. Petersson, H. Nakatsuji, X. Li, M. Caricato, A. V. Marenich, 
 J. Bloino, B. G. Janesko, R. Gomperts, B. Mennucci, H. P. Hratchian, 
 J. V. Ortiz, A. F. Izmaylov, J. L. Sonnenberg, D. Williams-Young, 
 F. Ding, F. Lipparini, F. Egidi, J. Goings, B. Peng, A. Petrone, 
 T. Henderson, D. Ranasinghe, V. G. Zakrzewski, J. Gao, N. Rega, 
 G. Zheng, W. Liang, M. Hada, M. Ehara, K. Toyota, R. Fukuda, 
 J. Hasegawa, M. Ishida, T. Nakajima, Y. Honda, O. Kitao, H. Nakai, 
 T. Vreven, K. Throssell, J. A. Montgomery, Jr., J. E. Peralta, 
 F. Ogliaro, M. J. Bearpark, J. J. Heyd, E. N. Brothers, K. N. Kudin, 
 V. N. Staroverov, T. A. Keith, R. Kobayashi, J. Normand, 
 K. Raghavachari, A. P. Rendell, J. C. Burant, S. S. Iyengar, 
 J. Tomasi, M. Cossi, J. M. Millam, M. Klene, C. Adamo, R. Cammi, 
 J. W. Ochterski, R. L. Martin, K. Morokuma, O. Farkas, 
 J. B. Foresman, and D. J. Fox, Gaussian, Inc., Wallingford CT, 2016.
 
 ******************************************
 Gaussian 16:  ES64L-G16RevB.01 20-Dec-2017
                13-Nov-2023 
 ******************************************
 %mem=14GB
 %chk=checkpoint.chk
 %nprocshared=16
 Will use up to   16 processors via shared memory.
 -------------------------
 #P B3LYP/6-311+g(d) force
 -------------------------
 1/10=7,30=1,38=1/1,3;
 2/12=2,17=6,18=5,40=1/2;
 3/5=4,6=6,7=11,11=2,25=1,30=1,71=1,74=-5/1,2,3;
 4//1;
 5/5=2,38=5/2;
 6/7=2,8=2,9=2,10=2,28=1/1;
 7/29=1/1,2,3,16;
 1/10=7,30=1/3;
 99//99;
 Leave Link    1 at Mon Nov 13 14:57:33 2023, MaxMem=  1879048192 cpu:               0.3 elap:               0.0
 (Enter /home/sekinelabo/g16/l101.exe)
 ------------------------------
 Gaussian input prepared by ASE
 ------------------------------
 Symbolic Z-matrix:
 Charge =  0 Multiplicity = 2
 Na                    3.45844   2.56658   2.02051 
 Na                    0.59491   3.46947   1.99801 
 Na                    0.        1.31157   0. 
 Na                    2.5988    0.        0.71875 
 Na                    5.29563   0.19661   2.00845 
 Na                    7.41336   1.87493   0.70738 
 Na                    5.37498   4.02101   0.22423 
 
 ITRead=  0  0  0  0  0  0  0
 MicOpt= -1 -1 -1 -1 -1 -1 -1
 NAtoms=      7 NQM=        7 NQMF=       0 NMMI=      0 NMMIF=      0
                NMic=       0 NMicF=      0.
                    Isotopes and Nuclear Properties:
 (Nuclear quadrupole moments (NQMom) in fm**2, nuclear magnetic moments (NMagM)
  in nuclear magnetons)

  Atom         1           2           3           4           5           6           7
 IAtWgt=          23          23          23          23          23          23          23
 AtmWgt=  22.9897697  22.9897697  22.9897697  22.9897697  22.9897697  22.9897697  22.9897697
 NucSpn=           3           3           3           3           3           3           3
 AtZEff=  -0.0000000  -0.0000000  -0.0000000  -0.0000000  -0.0000000  -0.0000000  -0.0000000
 NQMom=   10.4000000  10.4000000  10.4000000  10.4000000  10.4000000  10.4000000  10.4000000
 NMagM=    2.2175200   2.2175200   2.2175200   2.2175200   2.2175200   2.2175200   2.2175200
 AtZNuc=  11.0000000  11.0000000  11.0000000  11.0000000  11.0000000  11.0000000  11.0000000
 Leave Link  101 at Mon Nov 13 14:57:34 2023, MaxMem=  1879048192 cpu:               2.7 elap:               0.2
 (Enter /home/sekinelabo/g16/l103.exe)

 GradGradGradGradGradGradGradGradGradGradGradGradGradGradGradGradGradGrad
 Berny optimization.
 Initialization pass.
 Trust Radius=3.00D-01 FncErr=1.00D-07 GrdErr=1.00D-07 EigMax=2.50D+02 EigMin=1.00D-04
 Number of steps in this run=      2 maximum allowed number of steps=      2.
 GradGradGradGradGradGradGradGradGradGradGradGradGradGradGradGradGradGrad

 Leave Link  103 at Mon Nov 13 14:57:34 2023, MaxMem=  1879048192 cpu:               0.2 elap:               0.0
 (Enter /home/sekinelabo/g16/l202.exe)
                          Input orientation:                          
 ---------------------------------------------------------------------
 Center     Atomic      Atomic             Coordinates (Angstroms)
 Number     Number       Type             X           Y           Z
 ---------------------------------------------------------------------
      1         11           0        3.458445    2.566581    2.020506
      2         11           0        0.594908    3.469468    1.998014
      3         11           0        0.000000    1.311568    0.000000
      4         11           0        2.598805    0.000000    0.718746
      5         11           0        5.295630    0.196610    2.008449
      6         11           0        7.413358    1.874932    0.707377
      7         11           0        5.374984    4.021007    0.224233
 ---------------------------------------------------------------------
                    Distance matrix (angstroms):
                    1          2          3          4          5
     1  Na   0.000000
     2  Na   3.002591   0.000000
     3  Na   4.197421   3.000418   0.000000
     4  Na   3.003481   4.205869   2.998432   0.000000
     5  Na   2.998693   5.727870   5.772408   2.995806   0.000000
     6  Na   4.224219   7.120362   7.468309   5.166762   2.999054
     7  Na   3.002511   5.128315   6.023437   4.911233   4.220869
                    6          7
     6  Na   0.000000
     7  Na   2.999007   0.000000
 Stoichiometry    Na7(2)
 Framework group  C1[X(Na7)]
 Deg. of freedom    15
 Full point group                 C1      NOp   1
 Largest Abelian subgroup         C1      NOp   1
 Largest concise Abelian subgroup C1      NOp   1
                         Standard orientation:                         
 ---------------------------------------------------------------------
 Center     Atomic      Atomic             Coordinates (Angstroms)
 Number     Number       Type             X           Y           Z
 ---------------------------------------------------------------------
      1         11           0       -0.075288    0.646558    0.923745
      2         11           0       -2.938825    1.549444    0.901253
      3         11           0       -3.533733   -0.608455   -1.096761
      4         11           0       -0.934928   -1.920024   -0.378015
      5         11           0        1.761897   -1.723414    0.911688
      6         11           0        3.879626   -0.045092   -0.389384
      7         11           0        1.841251    2.100984   -0.872527
 ---------------------------------------------------------------------
 Rotational constants (GHZ):           1.1559368           0.4550816           0.3802490
 Leave Link  202 at Mon Nov 13 14:57:34 2023, MaxMem=  1879048192 cpu:               0.0 elap:               0.0
 (Enter /home/sekinelabo/g16/l301.exe)
 Standard basis: 6-311+G(d) (5D, 7F)
 Ernie: Thresh=  0.10000D-02 Tol=  0.10000D-05 Strict=F.
 There are   217 symmetry adapted cartesian basis functions of A   symmetry.
 There are   210 symmetry adapted basis functions of A   symmetry.
   210 basis functions,   350 primitive gaussians,   217 cartesian basis functions
    39 alpha electrons       38 beta electrons
       nuclear repulsion energy       341.2818364309 Hartrees.
 IExCor=  402 DFT=T Ex+Corr=B3LYP ExCW=0 ScaHFX=  0.200000
 ScaDFX=  0.800000  0.720000  1.000000  0.810000 ScalE2=  1.000000  1.000000
 IRadAn=      5 IRanWt=     -1 IRanGd=            0 ICorTp=0 IEmpDi=  4
 NAtoms=    7 NActive=    7 NUniq=    7 SFac= 1.00D+00 NAtFMM=   60 NAOKFM=F Big=F
 Integral buffers will be    131072 words long.
 Raffenetti 2 integral format.
 Two-electron integral symmetry is turned on.
 Leave Link  301 at Mon Nov 13 14:57:34 2023, MaxMem=  1879048192 cpu:               0.5 elap:               0.0
 (Enter /home/sekinelabo/g16/l302.exe)
 NPDir=0 NMtPBC=     1 NCelOv=     1 NCel=       1 NClECP=     1 NCelD=      1
         NCelK=      1 NCelE2=     1 NClLst=     1 CellRange=     0.0.
 One-electron integrals computed using PRISM.
 One-electron integral symmetry used in STVInt
 NBasis=   210 RedAO= T EigKep=  1.27D-06  NBF=   210
 NBsUse=   210 1.00D-06 EigRej= -1.00D+00 NBFU=   210
 Precomputing XC quadrature grid using
 IXCGrd= 4 IRadAn=           5 IRanWt=          -1 IRanGd=           0 AccXCQ= 0.00D+00.
 Generated NRdTot=       0 NPtTot=           0 NUsed=           0 NTot=          32
 NSgBfM=   209   209   209   209   209 MxSgAt=     7 MxSgA2=     7.
 Leave Link  302 at Mon Nov 13 14:57:34 2023, MaxMem=  1879048192 cpu:               2.2 elap:               0.1
 (Enter /home/sekinelabo/g16/l303.exe)
 DipDrv:  MaxL=1.
 Leave Link  303 at Mon Nov 13 14:57:34 2023, MaxMem=  1879048192 cpu:               0.6 elap:               0.0
 (Enter /home/sekinelabo/g16/l401.exe)
 ExpMin= 7.60D-03 ExpMax= 3.62D+04 ExpMxC= 1.21D+03 IAcc=3 IRadAn=         5 AccDes= 0.00D+00
 Harris functional with IExCor=  402 and IRadAn=       5 diagonalized for initial guess.
 HarFok:  IExCor=  402 AccDes= 0.00D+00 IRadAn=         5 IDoV= 1 UseB2=F ITyADJ=14
 ICtDFT=  3500011 ScaDFX=  1.000000  1.000000  1.000000  1.000000
 FoFCou: FMM=F IPFlag=           0 FMFlag=      100000 FMFlg1=           0
         NFxFlg=           0 DoJE=T BraDBF=F KetDBF=T FulRan=T
         wScrn=  0.000000 ICntrl=       500 IOpCl=  0 I1Cent=   200000004 NGrid=           0
         NMat0=    1 NMatS0=      1 NMatT0=    0 NMatD0=    1 NMtDS0=    0 NMtDT0=    0
 Petite list used in FoFCou.
 Harris En= -1135.86990024258    
 JPrj=0 DoOrth=F DoCkMO=F.
 Initial guess <Sx>= 0.0000 <Sy>= 0.0000 <Sz>= 0.5000 <S**2>= 0.7500 S= 0.5000
 Leave Link  401 at Mon Nov 13 14:57:34 2023, MaxMem=  1879048192 cpu:               5.1 elap:               0.3
 (Enter /home/sekinelabo/g16/l502.exe)
 Keep R1 and R2 ints in memory in canonical form, NReq=507620360.
 FoFCou: FMM=F IPFlag=           0 FMFlag=           0 FMFlg1=           0
         NFxFlg=           0 DoJE=F BraDBF=F KetDBF=F FulRan=T
         wScrn=  0.000000 ICntrl=       600 IOpCl=  0 I1Cent=           0 NGrid=           0
         NMat0=    1 NMatS0=  22155 NMatT0=    0 NMatD0=    1 NMtDS0=    0 NMtDT0=    0
 Symmetry not used in FoFCou.
 Two-electron integral symmetry not used.
 UHF open shell SCF:
 Using DIIS extrapolation, IDIIS=  1040.
 NGot=  1879048192 LenX=  1388082376 LenY=  1388034846
 Requested convergence on RMS density matrix=1.00D-08 within 128 cycles.
 Requested convergence on MAX density matrix=1.00D-06.
 Requested convergence on             energy=1.00D-06.
 No special actions if energy rises.

 Cycle   1  Pass 1  IDiag  1:
 E= -1136.06544207372    
 DIIS: error= 8.92D-03 at cycle   1 NSaved=   1.
 NSaved= 1 IEnMin= 1 EnMin= -1136.06544207372     IErMin= 1 ErrMin= 8.92D-03
 ErrMax= 8.92D-03  0.00D+00 EMaxC= 1.00D-01 BMatC= 1.91D-01 BMatP= 1.91D-01
 IDIUse=3 WtCom= 9.11D-01 WtEn= 8.92D-02
 Coeff-Com:  0.100D+01
 Coeff-En:   0.100D+01
 Coeff:      0.100D+01
 Gap=     0.034 Goal=   None    Shift=    0.000
 Gap=     0.033 Goal=   None    Shift=    0.000
 GapD=    0.033 DampG=0.250 DampE=1.000 DampFc=0.2500 IDamp=-1.
 Damping current iteration by 2.50D-01
 RMSDP=5.87D-02 MaxDP=7.39D+00              OVMax= 2.29D-01

 Cycle   2  Pass 1  IDiag  1:
 E= -1136.07707506456     Delta-E=       -0.011632990841 Rises=F Damp=T
 DIIS: error= 6.22D-03 at cycle   2 NSaved=   2.
 NSaved= 2 IEnMin= 2 EnMin= -1136.07707506456     IErMin= 2 ErrMin= 6.22D-03
 ErrMax= 6.22D-03  0.00D+00 EMaxC= 1.00D-01 BMatC= 7.29D-02 BMatP= 1.91D-01
 IDIUse=3 WtCom= 9.38D-01 WtEn= 6.22D-02
 Coeff-Com: -0.126D+01 0.226D+01
 Coeff-En:   0.000D+00 0.100D+01
 Coeff:     -0.118D+01 0.218D+01
 Gap=     0.040 Goal=   None    Shift=    0.000
 Gap=     0.044 Goal=   None    Shift=    0.000
 RMSDP=3.23D-02 MaxDP=3.17D+00 DE=-1.16D-02 OVMax= 1.72D-01

 Cycle   3  Pass 1  IDiag  1:
 E= -1136.09598517243     Delta-E=       -0.018910107877 Rises=F Damp=F
 DIIS: error= 3.22D-03 at cycle   3 NSaved=   3.
 NSaved= 3 IEnMin= 3 EnMin= -1136.09598517243     IErMin= 3 ErrMin= 3.22D-03
 ErrMax= 3.22D-03  0.00D+00 EMaxC= 1.00D-01 BMatC= 3.72D-03 BMatP= 7.29D-02
 IDIUse=3 WtCom= 9.68D-01 WtEn= 3.22D-02
 Coeff-Com: -0.289D+00 0.497D+00 0.791D+00
 Coeff-En:   0.000D+00 0.000D+00 0.100D+01
 Coeff:     -0.279D+00 0.481D+00 0.798D+00
 Gap=     0.035 Goal=   None    Shift=    0.000
 Gap=     0.039 Goal=   None    Shift=    0.000
 RMSDP=1.15D-02 MaxDP=1.32D+00 DE=-1.89D-02 OVMax= 8.62D-02

 Cycle   4  Pass 1  IDiag  1:
 E= -1136.09661406212     Delta-E=       -0.000628889684 Rises=F Damp=F
 DIIS: error= 3.08D-03 at cycle   4 NSaved=   4.
 NSaved= 4 IEnMin= 4 EnMin= -1136.09661406212     IErMin= 4 ErrMin= 3.08D-03
 ErrMax= 3.08D-03  0.00D+00 EMaxC= 1.00D-01 BMatC= 3.23D-03 BMatP= 3.72D-03
 IDIUse=3 WtCom= 9.69D-01 WtEn= 3.08D-02
 Coeff-Com: -0.194D-01 0.257D-01 0.482D+00 0.512D+00
 Coeff-En:   0.000D+00 0.000D+00 0.454D+00 0.546D+00
 Coeff:     -0.188D-01 0.249D-01 0.481D+00 0.513D+00
 Gap=     0.036 Goal=   None    Shift=    0.000
 Gap=     0.041 Goal=   None    Shift=    0.000
 RMSDP=4.45D-03 MaxDP=5.63D-01 DE=-6.29D-04 OVMax= 4.35D-02

 Cycle   5  Pass 1  IDiag  1:
 E= -1136.09921546405     Delta-E=       -0.002601401931 Rises=F Damp=F
 DIIS: error= 2.60D-04 at cycle   5 NSaved=   5.
 NSaved= 5 IEnMin= 5 EnMin= -1136.09921546405     IErMin= 5 ErrMin= 2.60D-04
 ErrMax= 2.60D-04  0.00D+00 EMaxC= 1.00D-01 BMatC= 1.63D-05 BMatP= 3.23D-03
 IDIUse=3 WtCom= 9.97D-01 WtEn= 2.60D-03
 Coeff-Com: -0.751D-02 0.939D-02 0.168D+00 0.183D+00 0.647D+00
 Coeff-En:   0.000D+00 0.000D+00 0.000D+00 0.000D+00 0.100D+01
 Coeff:     -0.749D-02 0.936D-02 0.168D+00 0.182D+00 0.648D+00
 Gap=     0.036 Goal=   None    Shift=    0.000
 Gap=     0.041 Goal=   None    Shift=    0.000
 RMSDP=6.44D-04 MaxDP=6.28D-02 DE=-2.60D-03 OVMax= 1.43D-02

 Cycle   6  Pass 1  IDiag  1:
 E= -1136.09922400618     Delta-E=       -0.000008542135 Rises=F Damp=F
 DIIS: error= 2.89D-04 at cycle   6 NSaved=   6.
 NSaved= 6 IEnMin= 6 EnMin= -1136.09922400618     IErMin= 5 ErrMin= 2.60D-04
 ErrMax= 2.89D-04  0.00D+00 EMaxC= 1.00D-01 BMatC= 1.69D-05 BMatP= 1.63D-05
 IDIUse=3 WtCom= 9.97D-01 WtEn= 2.60D-03
 Coeff-Com: -0.764D-05-0.400D-03-0.404D-01-0.402D-01 0.533D+00 0.548D+00
 Coeff-En:   0.000D+00 0.000D+00 0.000D+00 0.000D+00 0.413D+00 0.587D+00
 Coeff:     -0.762D-05-0.399D-03-0.403D-01-0.401D-01 0.532D+00 0.549D+00
 Gap=     0.036 Goal=   None    Shift=    0.000
 Gap=     0.041 Goal=   None    Shift=    0.000
 RMSDP=6.10D-04 MaxDP=8.15D-02 DE=-8.54D-06 OVMax= 1.01D-02

 Cycle   7  Pass 1  IDiag  1:
 E= -1136.09925299761     Delta-E=       -0.000028991428 Rises=F Damp=F
 DIIS: error= 9.73D-05 at cycle   7 NSaved=   7.
 NSaved= 7 IEnMin= 7 EnMin= -1136.09925299761     IErMin= 7 ErrMin= 9.73D-05
 ErrMax= 9.73D-05  0.00D+00 EMaxC= 1.00D-01 BMatC= 1.78D-06 BMatP= 1.63D-05
 IDIUse=1 WtCom= 1.00D+00 WtEn= 0.00D+00
 Coeff-Com:  0.138D-02-0.197D-02-0.566D-01-0.578D-01 0.137D+00 0.269D+00
 Coeff-Com:  0.710D+00
 Coeff:      0.138D-02-0.197D-02-0.566D-01-0.578D-01 0.137D+00 0.269D+00
 Coeff:      0.710D+00
 Gap=     0.036 Goal=   None    Shift=    0.000
 Gap=     0.041 Goal=   None    Shift=    0.000
 RMSDP=4.23D-04 MaxDP=5.99D-02 DE=-2.90D-05 OVMax= 5.23D-03

 Cycle   8  Pass 1  IDiag  1:
 E= -1136.09925915415     Delta-E=       -0.000006156541 Rises=F Damp=F
 DIIS: error= 4.98D-05 at cycle   8 NSaved=   8.
 NSaved= 8 IEnMin= 8 EnMin= -1136.09925915415     IErMin= 8 ErrMin= 4.98D-05
 ErrMax= 4.98D-05  0.00D+00 EMaxC= 1.00D-01 BMatC= 5.54D-07 BMatP= 1.78D-06
 IDIUse=1 WtCom= 1.00D+00 WtEn= 0.00D+00
 Coeff-Com:  0.115D-02-0.148D-02-0.159D-01-0.163D-01-0.107D+00-0.499D-01
 Coeff-Com:  0.328D+00 0.862D+00
 Coeff:      0.115D-02-0.148D-02-0.159D-01-0.163D-01-0.107D+00-0.499D-01
 Coeff:      0.328D+00 0.862D+00
 Gap=     0.036 Goal=   None    Shift=    0.000
 Gap=     0.041 Goal=   None    Shift=    0.000
 RMSDP=3.28D-04 MaxDP=4.07D-02 DE=-6.16D-06 OVMax= 4.96D-03

 Cycle   9  Pass 1  IDiag  1:
 E= -1136.09926328939     Delta-E=       -0.000004135242 Rises=F Damp=F
 DIIS: error= 3.61D-05 at cycle   9 NSaved=   9.
 NSaved= 9 IEnMin= 9 EnMin= -1136.09926328939     IErMin= 9 ErrMin= 3.61D-05
 ErrMax= 3.61D-05  0.00D+00 EMaxC= 1.00D-01 BMatC= 2.10D-07 BMatP= 5.54D-07
 IDIUse=1 WtCom= 1.00D+00 WtEn= 0.00D+00
 Coeff-Com:  0.538D-03-0.669D-03 0.802D-02 0.719D-02-0.664D-01-0.753D-01
 Coeff-Com: -0.750D-01 0.275D+00 0.927D+00
 Coeff:      0.538D-03-0.669D-03 0.802D-02 0.719D-02-0.664D-01-0.753D-01
 Coeff:     -0.750D-01 0.275D+00 0.927D+00
 Gap=     0.036 Goal=   None    Shift=    0.000
 Gap=     0.041 Goal=   None    Shift=    0.000
 RMSDP=2.28D-04 MaxDP=3.15D-02 DE=-4.14D-06 OVMax= 4.24D-03

 Cycle  10  Pass 1  IDiag  1:
 E= -1136.09926581765     Delta-E=       -0.000002528259 Rises=F Damp=F
 DIIS: error= 2.45D-05 at cycle  10 NSaved=  10.
 NSaved=10 IEnMin=10 EnMin= -1136.09926581765     IErMin=10 ErrMin= 2.45D-05
 ErrMax= 2.45D-05  0.00D+00 EMaxC= 1.00D-01 BMatC= 1.36D-07 BMatP= 2.10D-07
 IDIUse=1 WtCom= 1.00D+00 WtEn= 0.00D+00
 Coeff-Com: -0.201D-03 0.277D-03 0.104D-01 0.980D-02 0.944D-02-0.192D-01
 Coeff-Com: -0.179D+00-0.197D+00 0.509D+00 0.856D+00
 Coeff:     -0.201D-03 0.277D-03 0.104D-01 0.980D-02 0.944D-02-0.192D-01
 Coeff:     -0.179D+00-0.197D+00 0.509D+00 0.856D+00
 Gap=     0.036 Goal=   None    Shift=    0.000
 Gap=     0.041 Goal=   None    Shift=    0.000
 RMSDP=1.85D-04 MaxDP=2.69D-02 DE=-2.53D-06 OVMax= 4.09D-03

 Cycle  11  Pass 1  IDiag  1:
 E= -1136.09926770158     Delta-E=       -0.000001883927 Rises=F Damp=F
 DIIS: error= 1.94D-05 at cycle  11 NSaved=  11.
 NSaved=11 IEnMin=11 EnMin= -1136.09926770158     IErMin=11 ErrMin= 1.94D-05
 ErrMax= 1.94D-05  0.00D+00 EMaxC= 1.00D-01 BMatC= 7.62D-08 BMatP= 1.36D-07
 IDIUse=1 WtCom= 1.00D+00 WtEn= 0.00D+00
 Coeff-Com: -0.974D-03 0.126D-02-0.354D-02-0.266D-02 0.787D-01 0.706D-01
 Coeff-Com: -0.175D-01-0.378D+00-0.771D+00 0.422D+00 0.160D+01
 Coeff:     -0.974D-03 0.126D-02-0.354D-02-0.266D-02 0.787D-01 0.706D-01
 Coeff:     -0.175D-01-0.378D+00-0.771D+00 0.422D+00 0.160D+01
 Gap=     0.036 Goal=   None    Shift=    0.000
 Gap=     0.041 Goal=   None    Shift=    0.000
 RMSDP=3.29D-04 MaxDP=4.87D-02 DE=-1.88D-06 OVMax= 7.56D-03

 Cycle  12  Pass 1  IDiag  1:
 E= -1136.09927005138     Delta-E=       -0.000002349802 Rises=F Damp=F
 DIIS: error= 7.93D-06 at cycle  12 NSaved=  12.
 NSaved=12 IEnMin=12 EnMin= -1136.09927005138     IErMin=12 ErrMin= 7.93D-06
 ErrMax= 7.93D-06  0.00D+00 EMaxC= 1.00D-01 BMatC= 2.00D-08 BMatP= 7.62D-08
 IDIUse=1 WtCom= 1.00D+00 WtEn= 0.00D+00
 Coeff-Com:  0.260D-03-0.353D-03-0.358D-02-0.334D-02-0.896D-02 0.668D-02
 Coeff-Com:  0.647D-01 0.954D-01-0.188D+00-0.331D+00-0.479D-01 0.142D+01
 Coeff:      0.260D-03-0.353D-03-0.358D-02-0.334D-02-0.896D-02 0.668D-02
 Coeff:      0.647D-01 0.954D-01-0.188D+00-0.331D+00-0.479D-01 0.142D+01
 Gap=     0.036 Goal=   None    Shift=    0.000
 Gap=     0.041 Goal=   None    Shift=    0.000
 RMSDP=1.81D-04 MaxDP=2.59D-02 DE=-2.35D-06 OVMax= 4.39D-03

 Cycle  13  Pass 1  IDiag  1:
 E= -1136.09927068349     Delta-E=       -0.000000632106 Rises=F Damp=F
 DIIS: error= 3.65D-06 at cycle  13 NSaved=  13.
 NSaved=13 IEnMin=13 EnMin= -1136.09927068349     IErMin=13 ErrMin= 3.65D-06
 ErrMax= 3.65D-06  0.00D+00 EMaxC= 1.00D-01 BMatC= 6.35D-09 BMatP= 2.00D-08
 IDIUse=1 WtCom= 1.00D+00 WtEn= 0.00D+00
 Coeff-Com:  0.431D-03-0.560D-03-0.373D-03-0.715D-03-0.294D-01-0.191D-01
 Coeff-Com:  0.313D-01 0.155D+00 0.191D+00-0.238D+00-0.552D+00 0.418D+00
 Coeff-Com:  0.104D+01
 Coeff:      0.431D-03-0.560D-03-0.373D-03-0.715D-03-0.294D-01-0.191D-01
 Coeff:      0.313D-01 0.155D+00 0.191D+00-0.238D+00-0.552D+00 0.418D+00
 Coeff:      0.104D+01
 Gap=     0.036 Goal=   None    Shift=    0.000
 Gap=     0.041 Goal=   None    Shift=    0.000
 RMSDP=7.56D-05 MaxDP=1.12D-02 DE=-6.32D-07 OVMax= 1.84D-03

 Cycle  14  Pass 1  IDiag  1:
 E= -1136.09927079570     Delta-E=       -0.000000112211 Rises=F Damp=F
 DIIS: error= 1.61D-06 at cycle  14 NSaved=  14.
 NSaved=14 IEnMin=14 EnMin= -1136.09927079570     IErMin=14 ErrMin= 1.61D-06
 ErrMax= 1.61D-06  0.00D+00 EMaxC= 1.00D-01 BMatC= 1.47D-09 BMatP= 6.35D-09
 IDIUse=1 WtCom= 1.00D+00 WtEn= 0.00D+00
 Coeff-Com:  0.942D-04-0.120D-03 0.373D-03 0.215D-03-0.504D-02-0.652D-02
 Coeff-Com: -0.128D-01 0.282D-01 0.123D+00 0.791D-02-0.187D+00-0.202D+00
 Coeff-Com:  0.248D+00 0.101D+01
 Coeff:      0.942D-04-0.120D-03 0.373D-03 0.215D-03-0.504D-02-0.652D-02
 Coeff:     -0.128D-01 0.282D-01 0.123D+00 0.791D-02-0.187D+00-0.202D+00
 Coeff:      0.248D+00 0.101D+01
 Gap=     0.036 Goal=   None    Shift=    0.000
 Gap=     0.041 Goal=   None    Shift=    0.000
 RMSDP=2.74D-05 MaxDP=3.95D-03 DE=-1.12D-07 OVMax= 6.18D-04

 Cycle  15  Pass 1  IDiag  1:
 E= -1136.09927081231     Delta-E=       -0.000000016612 Rises=F Damp=F
 DIIS: error= 9.91D-07 at cycle  15 NSaved=  15.
 NSaved=15 IEnMin=15 EnMin= -1136.09927081231     IErMin=15 ErrMin= 9.91D-07
 ErrMax= 9.91D-07  0.00D+00 EMaxC= 1.00D-01 BMatC= 2.49D-10 BMatP= 1.47D-09
 IDIUse=1 WtCom= 1.00D+00 WtEn= 0.00D+00
 Coeff-Com: -0.874D-04 0.114D-03 0.101D-03 0.156D-03 0.538D-02 0.382D-02
 Coeff-Com: -0.440D-02-0.292D-01-0.512D-01 0.437D-01 0.106D+00 0.199D-01
 Coeff-Com: -0.279D+00-0.372D+00 0.156D+01
 Coeff:     -0.874D-04 0.114D-03 0.101D-03 0.156D-03 0.538D-02 0.382D-02
 Coeff:     -0.440D-02-0.292D-01-0.512D-01 0.437D-01 0.106D+00 0.199D-01
 Coeff:     -0.279D+00-0.372D+00 0.156D+01
 Gap=     0.036 Goal=   None    Shift=    0.000
 Gap=     0.041 Goal=   None    Shift=    0.000
 RMSDP=1.03D-05 MaxDP=1.39D-03 DE=-1.66D-08 OVMax= 2.17D-04

 Cycle  16  Pass 1  IDiag  1:
 E= -1136.09927081558     Delta-E=       -0.000000003265 Rises=F Damp=F
 DIIS: error= 4.14D-07 at cycle  16 NSaved=  16.
 NSaved=16 IEnMin=16 EnMin= -1136.09927081558     IErMin=16 ErrMin= 4.14D-07
 ErrMax= 4.14D-07  0.00D+00 EMaxC= 1.00D-01 BMatC= 4.93D-11 BMatP= 2.49D-10
 IDIUse=1 WtCom= 1.00D+00 WtEn= 0.00D+00
 Coeff-Com:  0.936D-05-0.128D-04-0.112D-03-0.863D-04-0.253D-03 0.784D-04
 Coeff-Com:  0.158D-02 0.562D-02-0.109D-01-0.111D-01 0.340D-03 0.540D-01
 Coeff-Com: -0.668D-02-0.961D-01-0.248D+00 0.131D+01
 Coeff:      0.936D-05-0.128D-04-0.112D-03-0.863D-04-0.253D-03 0.784D-04
 Coeff:      0.158D-02 0.562D-02-0.109D-01-0.111D-01 0.340D-03 0.540D-01
 Coeff:     -0.668D-02-0.961D-01-0.248D+00 0.131D+01
 Gap=     0.036 Goal=   None    Shift=    0.000
 Gap=     0.041 Goal=   None    Shift=    0.000
 RMSDP=3.04D-06 MaxDP=3.87D-04 DE=-3.26D-09 OVMax= 7.05D-05

 Cycle  17  Pass 1  IDiag  1:
 E= -1136.09927081608     Delta-E=       -0.000000000510 Rises=F Damp=F
 DIIS: error= 1.69D-07 at cycle  17 NSaved=  17.
 NSaved=17 IEnMin=17 EnMin= -1136.09927081608     IErMin=17 ErrMin= 1.69D-07
 ErrMax= 1.69D-07  0.00D+00 EMaxC= 1.00D-01 BMatC= 1.13D-11 BMatP= 4.93D-11
 IDIUse=1 WtCom= 1.00D+00 WtEn= 0.00D+00
 Coeff-Com:  0.192D-04-0.252D-04-0.598D-04-0.637D-04-0.898D-03-0.449D-03
 Coeff-Com:  0.516D-03 0.506D-02 0.980D-02-0.648D-02-0.233D-01 0.331D-02
 Coeff-Com:  0.517D-01 0.509D-01-0.302D+00 0.360D-01 0.118D+01
 Coeff:      0.192D-04-0.252D-04-0.598D-04-0.637D-04-0.898D-03-0.449D-03
 Coeff:      0.516D-03 0.506D-02 0.980D-02-0.648D-02-0.233D-01 0.331D-02
 Coeff:      0.517D-01 0.509D-01-0.302D+00 0.360D-01 0.118D+01
 Gap=     0.036 Goal=   None    Shift=    0.000
 Gap=     0.041 Goal=   None    Shift=    0.000
 RMSDP=1.59D-06 MaxDP=2.06D-04 DE=-5.10D-10 OVMax= 3.91D-05

 Cycle  18  Pass 1  IDiag  1:
 E= -1136.09927081619     Delta-E=       -0.000000000106 Rises=F Damp=F
 DIIS: error= 8.81D-08 at cycle  18 NSaved=  18.
 NSaved=18 IEnMin=18 EnMin= -1136.09927081619     IErMin=18 ErrMin= 8.81D-08
 ErrMax= 8.81D-08  0.00D+00 EMaxC= 1.00D-01 BMatC= 3.14D-12 BMatP= 1.13D-11
 IDIUse=1 WtCom= 1.00D+00 WtEn= 0.00D+00
 Coeff-Com: -0.232D-05 0.325D-05 0.182D-04 0.761D-05 0.876D-04-0.111D-04
 Coeff-Com: -0.470D-03-0.107D-02 0.203D-02 0.234D-02-0.973D-04-0.705D-02
 Coeff-Com: -0.625D-02-0.111D-02 0.134D+00-0.420D+00 0.389D-01 0.126D+01
 Coeff:     -0.232D-05 0.325D-05 0.182D-04 0.761D-05 0.876D-04-0.111D-04
 Coeff:     -0.470D-03-0.107D-02 0.203D-02 0.234D-02-0.973D-04-0.705D-02
 Coeff:     -0.625D-02-0.111D-02 0.134D+00-0.420D+00 0.389D-01 0.126D+01
 Gap=     0.036 Goal=   None    Shift=    0.000
 Gap=     0.041 Goal=   None    Shift=    0.000
 RMSDP=1.13D-06 MaxDP=1.45D-04 DE=-1.06D-10 OVMax= 2.31D-05

 Cycle  19  Pass 1  IDiag  1:
 E= -1136.09927081623     Delta-E=       -0.000000000042 Rises=F Damp=F
 DIIS: error= 3.19D-08 at cycle  19 NSaved=  19.
 NSaved=19 IEnMin=19 EnMin= -1136.09927081623     IErMin=19 ErrMin= 3.19D-08
 ErrMax= 3.19D-08  0.00D+00 EMaxC= 1.00D-01 BMatC= 6.13D-13 BMatP= 3.14D-12
 IDIUse=1 WtCom= 1.00D+00 WtEn= 0.00D+00
 Coeff-Com: -0.528D-05 0.696D-05 0.124D-04 0.130D-04 0.294D-03 0.169D-03
 Coeff-Com: -0.429D-03-0.161D-02-0.170D-02 0.246D-02 0.555D-02-0.340D-02
 Coeff-Com: -0.139D-01-0.744D-02 0.992D-01-0.136D+00-0.207D+00 0.297D+00
 Coeff-Com:  0.966D+00
 Coeff:     -0.528D-05 0.696D-05 0.124D-04 0.130D-04 0.294D-03 0.169D-03
 Coeff:     -0.429D-03-0.161D-02-0.170D-02 0.246D-02 0.555D-02-0.340D-02
 Coeff:     -0.139D-01-0.744D-02 0.992D-01-0.136D+00-0.207D+00 0.297D+00
 Coeff:      0.966D+00
 Gap=     0.036 Goal=   None    Shift=    0.000
 Gap=     0.041 Goal=   None    Shift=    0.000
 RMSDP=4.55D-07 MaxDP=5.88D-05 DE=-4.23D-11 OVMax= 8.20D-06

 Cycle  20  Pass 1  IDiag  1:
 E= -1136.09927081624     Delta-E=       -0.000000000012 Rises=F Damp=F
 DIIS: error= 1.09D-08 at cycle  20 NSaved=  20.
 NSaved=20 IEnMin=20 EnMin= -1136.09927081624     IErMin=20 ErrMin= 1.09D-08
 ErrMax= 1.09D-08  0.00D+00 EMaxC= 1.00D-01 BMatC= 7.04D-14 BMatP= 6.13D-13
 IDIUse=1 WtCom= 1.00D+00 WtEn= 0.00D+00
 Coeff-Com: -0.637D-06 0.809D-06-0.200D-05 0.467D-06 0.289D-04 0.425D-04
 Coeff-Com:  0.843D-04-0.965D-04-0.109D-02 0.124D-04 0.131D-02 0.183D-02
 Coeff-Com: -0.262D-02-0.361D-02-0.459D-02 0.706D-01-0.548D-01-0.203D+00
 Coeff-Com:  0.129D+00 0.107D+01
 Coeff:     -0.637D-06 0.809D-06-0.200D-05 0.467D-06 0.289D-04 0.425D-04
 Coeff:      0.843D-04-0.965D-04-0.109D-02 0.124D-04 0.131D-02 0.183D-02
 Coeff:     -0.262D-02-0.361D-02-0.459D-02 0.706D-01-0.548D-01-0.203D+00
 Coeff:      0.129D+00 0.107D+01
 Gap=     0.036 Goal=   None    Shift=    0.000
 Gap=     0.041 Goal=   None    Shift=    0.000
 RMSDP=1.44D-07 MaxDP=1.84D-05 DE=-1.21D-11 OVMax= 2.40D-06

 Cycle  21  Pass 1  IDiag  1:
 E= -1136.09927081624     Delta-E=        0.000000000006 Rises=F Damp=F
 DIIS: error= 4.30D-09 at cycle  21 NSaved=  20.
 NSaved=20 IEnMin=19 EnMin= -1136.09927081624     IErMin=20 ErrMin= 4.30D-09
 ErrMax= 4.30D-09  0.00D+00 EMaxC= 1.00D-01 BMatC= 4.30D-15 BMatP= 7.04D-14
 IDIUse=1 WtCom= 1.00D+00 WtEn= 0.00D+00
 Coeff-Com:  0.169D-07-0.180D-06-0.254D-06 0.329D-06 0.135D-06 0.233D-05
 Coeff-Com:  0.608D-05-0.133D-05 0.240D-04-0.432D-04-0.131D-03 0.395D-03
 Coeff-Com:  0.311D-04-0.313D-02 0.582D-02 0.950D-02-0.101D-01-0.687D-01
 Coeff-Com:  0.150D-02 0.106D+01
 Coeff:      0.169D-07-0.180D-06-0.254D-06 0.329D-06 0.135D-06 0.233D-05
 Coeff:      0.608D-05-0.133D-05 0.240D-04-0.432D-04-0.131D-03 0.395D-03
 Coeff:      0.311D-04-0.313D-02 0.582D-02 0.950D-02-0.101D-01-0.687D-01
 Coeff:      0.150D-02 0.106D+01
 Gap=     0.036 Goal=   None    Shift=    0.000
 Gap=     0.041 Goal=   None    Shift=    0.000
 RMSDP=3.46D-08 MaxDP=4.38D-06 DE= 6.14D-12 OVMax= 5.17D-07

 Cycle  22  Pass 1  IDiag  1:
 E= -1136.09927081625     Delta-E=       -0.000000000014 Rises=F Damp=F
 DIIS: error= 1.65D-09 at cycle  22 NSaved=  20.
 NSaved=20 IEnMin=20 EnMin= -1136.09927081625     IErMin=20 ErrMin= 1.65D-09
 ErrMax= 1.65D-09  0.00D+00 EMaxC= 1.00D-01 BMatC= 7.75D-16 BMatP= 4.30D-15
 IDIUse=1 WtCom= 1.00D+00 WtEn= 0.00D+00
 Large coefficients: NSaved= 20 BigCof=    0.00 CofMax=   10.00 Det=-1.52D-15
 Inversion failed.  Reducing to 19 matrices.
 Large coefficients: NSaved= 19 BigCof=    0.00 CofMax=   10.00 Det=-1.52D-15
 Inversion failed.  Reducing to 18 matrices.
 Large coefficients: NSaved= 18 BigCof=    0.00 CofMax=   10.00 Det=-1.54D-15
 Inversion failed.  Reducing to 17 matrices.
 Large coefficients: NSaved= 17 BigCof=    0.00 CofMax=   10.00 Det=-1.57D-15
 Inversion failed.  Reducing to 16 matrices.
 Large coefficients: NSaved= 16 BigCof=    0.00 CofMax=   10.00 Det=-1.57D-15
 Inversion failed.  Reducing to 15 matrices.
 Coeff-Com:  0.339D-05 0.319D-04-0.124D-04-0.581D-04 0.226D-05 0.917D-04
 Coeff-Com: -0.111D-03 0.664D-03-0.462D-02 0.231D-02 0.130D-01-0.697D-02
 Coeff-Com: -0.958D-01-0.696D-01 0.116D+01
 Coeff:      0.339D-05 0.319D-04-0.124D-04-0.581D-04 0.226D-05 0.917D-04
 Coeff:     -0.111D-03 0.664D-03-0.462D-02 0.231D-02 0.130D-01-0.697D-02
 Coeff:     -0.958D-01-0.696D-01 0.116D+01
 Gap=     0.036 Goal=   None    Shift=    0.000
 Gap=     0.041 Goal=   None    Shift=    0.000
 RMSDP=2.25D-08 MaxDP=3.05D-06 DE=-1.41D-11 OVMax= 2.75D-07

 Cycle  23  Pass 1  IDiag  1:
 E= -1136.09927081624     Delta-E=        0.000000000014 Rises=F Damp=F
 DIIS: error= 1.35D-09 at cycle  23 NSaved=  16.
 NSaved=16 IEnMin=15 EnMin= -1136.09927081625     IErMin=16 ErrMin= 1.35D-09
 ErrMax= 1.35D-09  0.00D+00 EMaxC= 1.00D-01 BMatC= 3.51D-16 BMatP= 7.75D-16
 IDIUse=1 WtCom= 1.00D+00 WtEn= 0.00D+00
 Large coefficients: NSaved= 16 BigCof=    0.00 CofMax=   10.00 Det=-5.14D-16
 Inversion failed.  Reducing to 15 matrices.
 Coeff-Com:  0.152D-04-0.127D-04-0.293D-04 0.474D-04 0.382D-05-0.418D-04
 Coeff-Com:  0.441D-03-0.230D-02 0.356D-03 0.584D-02 0.554D-02-0.358D-01
 Coeff-Com: -0.171D+00 0.548D+00 0.648D+00
 Coeff:      0.152D-04-0.127D-04-0.293D-04 0.474D-04 0.382D-05-0.418D-04
 Coeff:      0.441D-03-0.230D-02 0.356D-03 0.584D-02 0.554D-02-0.358D-01
 Coeff:     -0.171D+00 0.548D+00 0.648D+00
 Gap=     0.036 Goal=   None    Shift=    0.000
 Gap=     0.041 Goal=   None    Shift=    0.000
 RMSDP=1.27D-08 MaxDP=1.37D-06 DE= 1.36D-11 OVMax= 5.07D-08

 Cycle  24  Pass 1  IDiag  1:
 E= -1136.09927081624     Delta-E=       -0.000000000005 Rises=F Damp=F
 DIIS: error= 1.02D-09 at cycle  24 NSaved=  16.
 NSaved=16 IEnMin=14 EnMin= -1136.09927081625     IErMin=16 ErrMin= 1.02D-09
 ErrMax= 1.02D-09  0.00D+00 EMaxC= 1.00D-01 BMatC= 1.66D-16 BMatP= 3.51D-16
 IDIUse=1 WtCom= 1.00D+00 WtEn= 0.00D+00
 Large coefficients: NSaved= 16 BigCof=    0.00 CofMax=   10.00 Det=-2.01D-16
 Inversion failed.  Reducing to 15 matrices.
 Coeff-Com: -0.538D-05 0.489D-05 0.262D-04-0.681D-04-0.206D-04 0.390D-03
 Coeff-Com: -0.447D-03-0.124D-02 0.133D-02 0.573D-02 0.364D-02-0.101D+00
 Coeff-Com: -0.305D-02 0.442D+00 0.653D+00
 Coeff:     -0.538D-05 0.489D-05 0.262D-04-0.681D-04-0.206D-04 0.390D-03
 Coeff:     -0.447D-03-0.124D-02 0.133D-02 0.573D-02 0.364D-02-0.101D+00
 Coeff:     -0.305D-02 0.442D+00 0.653D+00
 Gap=     0.036 Goal=   None    Shift=    0.000
 Gap=     0.041 Goal=   None    Shift=    0.000
 RMSDP=9.69D-09 MaxDP=1.10D-06 DE=-5.00D-12 OVMax= 4.26D-08

 Cycle  25  Pass 1  IDiag  1:
 E= -1136.09927081624     Delta-E=        0.000000000008 Rises=F Damp=F
 DIIS: error= 2.28D-10 at cycle  25 NSaved=  16.
 NSaved=16 IEnMin=13 EnMin= -1136.09927081625     IErMin=16 ErrMin= 2.28D-10
 ErrMax= 2.28D-10  0.00D+00 EMaxC= 1.00D-01 BMatC= 1.73D-17 BMatP= 1.66D-16
 IDIUse=1 WtCom= 1.00D+00 WtEn= 0.00D+00
 Large coefficients: NSaved= 16 BigCof=    0.00 CofMax=   10.00 Det=-9.26D-17
 Inversion failed.  Reducing to 15 matrices.
 Coeff-Com:  0.754D-06 0.711D-06-0.521D-05 0.166D-04-0.968D-04 0.581D-03
 Coeff-Com: -0.300D-03-0.127D-02-0.426D-04 0.116D-01 0.136D-01-0.137D+00
 Coeff-Com: -0.263D-01 0.183D+00 0.956D+00
 Coeff:      0.754D-06 0.711D-06-0.521D-05 0.166D-04-0.968D-04 0.581D-03
 Coeff:     -0.300D-03-0.127D-02-0.426D-04 0.116D-01 0.136D-01-0.137D+00
 Coeff:     -0.263D-01 0.183D+00 0.956D+00
 Gap=     0.036 Goal=   None    Shift=    0.000
 Gap=     0.041 Goal=   None    Shift=    0.000
 RMSDP=7.39D-09 MaxDP=5.19D-07 DE= 7.96D-12 OVMax= 1.59D-08

 SCF Done:  E(UB3LYP) =  -1136.09927082     A.U. after   25 cycles
            NFock= 25  Conv=0.74D-08     -V/T= 2.0026
 <Sx>= 0.0000 <Sy>= 0.0000 <Sz>= 0.5000 <S**2>= 0.7872 S= 0.5184
 <L.S>= 0.000000000000E+00
 KE= 1.133156657491D+03 PE=-3.411763337916D+03 EE= 8.012255731773D+02
 Annihilation of the first spin contaminant:
 S**2 before annihilation     0.7872,   after     0.7507
 Leave Link  502 at Mon Nov 13 14:57:55 2023, MaxMem=  1879048192 cpu:             239.5 elap:              20.5
 (Enter /home/sekinelabo/g16/l601.exe)
 Copying SCF densities to generalized density rwf, IOpCl= 1 IROHF=0.

 **********************************************************************

            Population analysis using the SCF Density.

 **********************************************************************

 Orbital symmetries:
 Alpha Orbitals:
       Occupied  (A) (A) (A) (A) (A) (A) (A) (A) (A) (A) (A) (A)
                 (A) (A) (A) (A) (A) (A) (A) (A) (A) (A) (A) (A)
                 (A) (A) (A) (A) (A) (A) (A) (A) (A) (A) (A) (A)
                 (A) (A) (A)
       Virtual   (A) (A) (A) (A) (A) (A) (A) (A) (A) (A) (A) (A)
                 (A) (A) (A) (A) (A) (A) (A) (A) (A) (A) (A) (A)
                 (A) (A) (A) (A) (A) (A) (A) (A) (A) (A) (A) (A)
                 (A) (A) (A) (A) (A) (A) (A) (A) (A) (A) (A) (A)
                 (A) (A) (A) (A) (A) (A) (A) (A) (A) (A) (A) (A)
                 (A) (A) (A) (A) (A) (A) (A) (A) (A) (A) (A) (A)
                 (A) (A) (A) (A) (A) (A) (A) (A) (A) (A) (A) (A)
                 (A) (A) (A) (A) (A) (A) (A) (A) (A) (A) (A) (A)
                 (A) (A) (A) (A) (A) (A) (A) (A) (A) (A) (A) (A)
                 (A) (A) (A) (A) (A) (A) (A) (A) (A) (A) (A) (A)
                 (A) (A) (A) (A) (A) (A) (A) (A) (A) (A) (A) (A)
                 (A) (A) (A) (A) (A) (A) (A) (A) (A) (A) (A) (A)
                 (A) (A) (A) (A) (A) (A) (A) (A) (A) (A) (A) (A)
                 (A) (A) (A) (A) (A) (A) (A) (A) (A) (A) (A) (A)
                 (A) (A) (A)
 Beta  Orbitals:
       Occupied  (A) (A) (A) (A) (A) (A) (A) (A) (A) (A) (A) (A)
                 (A) (A) (A) (A) (A) (A) (A) (A) (A) (A) (A) (A)
                 (A) (A) (A) (A) (A) (A) (A) (A) (A) (A) (A) (A)
                 (A) (A)
       Virtual   (A) (A) (A) (A) (A) (A) (A) (A) (A) (A) (A) (A)
                 (A) (A) (A) (A) (A) (A) (A) (A) (A) (A) (A) (A)
                 (A) (A) (A) (A) (A) (A) (A) (A) (A) (A) (A) (A)
                 (A) (A) (A) (A) (A) (A) (A) (A) (A) (A) (A) (A)
                 (A) (A) (A) (A) (A) (A) (A) (A) (A) (A) (A) (A)
                 (A) (A) (A) (A) (A) (A) (A) (A) (A) (A) (A) (A)
                 (A) (A) (A) (A) (A) (A) (A) (A) (A) (A) (A) (A)
                 (A) (A) (A) (A) (A) (A) (A) (A) (A) (A) (A) (A)
                 (A) (A) (A) (A) (A) (A) (A) (A) (A) (A) (A) (A)
                 (A) (A) (A) (A) (A) (A) (A) (A) (A) (A) (A) (A)
                 (A) (A) (A) (A) (A) (A) (A) (A) (A) (A) (A) (A)
                 (A) (A) (A) (A) (A) (A) (A) (A) (A) (A) (A) (A)
                 (A) (A) (A) (A) (A) (A) (A) (A) (A) (A) (A) (A)
                 (A) (A) (A) (A) (A) (A) (A) (A) (A) (A) (A) (A)
                 (A) (A) (A) (A)
 The electronic state is 2-A.
 Alpha  occ. eigenvalues --  -38.44907 -38.44870 -38.44380 -38.44332 -38.43594
 Alpha  occ. eigenvalues --  -38.43569 -38.43540  -2.20792  -2.20779  -2.20254
 Alpha  occ. eigenvalues --   -2.20248  -2.19651  -2.19581  -2.19543  -1.14509
 Alpha  occ. eigenvalues --   -1.14481  -1.14471  -1.14447  -1.14414  -1.14398
 Alpha  occ. eigenvalues --   -1.13980  -1.13950  -1.13894  -1.13876  -1.13874
 Alpha  occ. eigenvalues --   -1.13859  -1.13497  -1.13355  -1.13313  -1.13290
 Alpha  occ. eigenvalues --   -1.13216  -1.13171  -1.13153  -1.13123  -1.13102
 Alpha  occ. eigenvalues --   -0.18871  -0.15247  -0.11845  -0.10922
 Alpha virt. eigenvalues --   -0.07280  -0.04747  -0.04568  -0.03664  -0.03325
 Alpha virt. eigenvalues --   -0.02418  -0.01524  -0.01374  -0.00530  -0.00100
 Alpha virt. eigenvalues --    0.00039   0.00120   0.00471   0.00617   0.00768
 Alpha virt. eigenvalues --    0.00920   0.01053   0.01110   0.01304   0.01378
 Alpha virt. eigenvalues --    0.01544   0.01701   0.01860   0.01907   0.02111
 Alpha virt. eigenvalues --    0.02311   0.02357   0.02491   0.02511   0.02627
 Alpha virt. eigenvalues --    0.02675   0.02877   0.02910   0.02961   0.03033
 Alpha virt. eigenvalues --    0.03072   0.03378   0.03523   0.03690   0.03775
 Alpha virt. eigenvalues --    0.03914   0.04000   0.04136   0.04515   0.04810
 Alpha virt. eigenvalues --    0.05140   0.05293   0.05733   0.05868   0.06022
 Alpha virt. eigenvalues --    0.06265   0.06405   0.06824   0.07087   0.07243
 Alpha virt. eigenvalues --    0.07519   0.07798   0.07948   0.08469   0.08724
 Alpha virt. eigenvalues --    0.08945   0.09374   0.09491   0.10181   0.11410
 Alpha virt. eigenvalues --    0.11565   0.11818   0.12012   0.12644   0.12986
 Alpha virt. eigenvalues --    0.13395   0.13662   0.14010   0.14279   0.14429
 Alpha virt. eigenvalues --    0.14930   0.15580   0.16926   0.18726   0.19254
 Alpha virt. eigenvalues --    0.24251   0.25024   0.27982   0.28787   0.29645
 Alpha virt. eigenvalues --    0.29890   0.30069   0.31632   0.32068   0.32283
 Alpha virt. eigenvalues --    0.33624   0.34063   0.34448   0.36344   0.36576
 Alpha virt. eigenvalues --    0.37908   0.38354   0.40873   0.42172   0.42387
 Alpha virt. eigenvalues --    0.43091   0.43567   0.43659   0.44314   0.44465
 Alpha virt. eigenvalues --    0.44612   0.45236   0.45263   0.45846   0.46317
 Alpha virt. eigenvalues --    0.46395   0.47246   0.47660   0.48173   0.48714
 Alpha virt. eigenvalues --    0.49023   0.49488   0.49791   0.50506   0.50668
 Alpha virt. eigenvalues --    0.52511   0.53558   0.54254   0.55663   0.56085
 Alpha virt. eigenvalues --    0.57488   0.58902   0.66347   0.68093   0.70256
 Alpha virt. eigenvalues --    0.71406   0.73078   0.73512   0.75449   0.80132
 Alpha virt. eigenvalues --    0.81030   2.07489   2.10858   2.16749   2.17544
 Alpha virt. eigenvalues --    2.18871   2.26449   2.31427   4.40206   4.41110
 Alpha virt. eigenvalues --    4.41814   4.42263   4.42679   4.43399   4.43666
 Alpha virt. eigenvalues --    4.44585   4.44872   4.45663   4.46967   4.48056
 Alpha virt. eigenvalues --    4.51994   4.57527   4.60258   4.64112   4.66429
 Alpha virt. eigenvalues --    4.68699   4.73638   4.74715   4.77270  96.27850
 Alpha virt. eigenvalues --   96.32522  96.40207  96.41362  96.42989  96.53218
 Alpha virt. eigenvalues --   96.59875
  Beta  occ. eigenvalues --  -38.44887 -38.44815 -38.44390 -38.44257 -38.43584
  Beta  occ. eigenvalues --  -38.43549 -38.43469  -2.20761  -2.20675  -2.20272
  Beta  occ. eigenvalues --   -2.20115  -2.19571  -2.19525  -2.19511  -1.14468
  Beta  occ. eigenvalues --   -1.14440  -1.14402  -1.14396  -1.14384  -1.14326
  Beta  occ. eigenvalues --   -1.13984  -1.13913  -1.13870  -1.13853  -1.13784
  Beta  occ. eigenvalues --   -1.13766  -1.13424  -1.13301  -1.13278  -1.13229
  Beta  occ. eigenvalues --   -1.13190  -1.13154  -1.13115  -1.13065  -1.13051
  Beta  occ. eigenvalues --   -0.18316  -0.14616  -0.11541
  Beta virt. eigenvalues --   -0.07399  -0.07044  -0.04415  -0.03937  -0.03616
  Beta virt. eigenvalues --   -0.02833  -0.02112  -0.01095  -0.00933  -0.00249
  Beta virt. eigenvalues --    0.00020   0.00097   0.00215   0.00633   0.00789
  Beta virt. eigenvalues --    0.00827   0.00976   0.01144   0.01180   0.01428
  Beta virt. eigenvalues --    0.01484   0.01713   0.01795   0.01947   0.02053
  Beta virt. eigenvalues --    0.02207   0.02359   0.02414   0.02548   0.02603
  Beta virt. eigenvalues --    0.02653   0.02766   0.02936   0.03009   0.03048
  Beta virt. eigenvalues --    0.03141   0.03157   0.03408   0.03618   0.03796
  Beta virt. eigenvalues --    0.03858   0.03993   0.04055   0.04277   0.04609
  Beta virt. eigenvalues --    0.04914   0.05242   0.05380   0.05847   0.05927
  Beta virt. eigenvalues --    0.06044   0.06335   0.06443   0.06918   0.07289
  Beta virt. eigenvalues --    0.07330   0.07629   0.07852   0.08183   0.08568
  Beta virt. eigenvalues --    0.08883   0.09183   0.09474   0.09633   0.10405
  Beta virt. eigenvalues --    0.11529   0.11847   0.11928   0.12133   0.12909
  Beta virt. eigenvalues --    0.13109   0.13565   0.13897   0.14317   0.14442
  Beta virt. eigenvalues --    0.14597   0.15221   0.15793   0.17032   0.18952
  Beta virt. eigenvalues --    0.19451   0.24683   0.25432   0.28286   0.29118
  Beta virt. eigenvalues --    0.29973   0.30228   0.30436   0.31934   0.32306
  Beta virt. eigenvalues --    0.32390   0.33873   0.34380   0.34766   0.36540
  Beta virt. eigenvalues --    0.36813   0.38290   0.38620   0.40978   0.42359
  Beta virt. eigenvalues --    0.42673   0.43230   0.43786   0.43853   0.44595
  Beta virt. eigenvalues --    0.44651   0.44753   0.45457   0.45512   0.45969
  Beta virt. eigenvalues --    0.46528   0.46612   0.47433   0.47809   0.48246
  Beta virt. eigenvalues --    0.48943   0.49240   0.49720   0.50019   0.50610
  Beta virt. eigenvalues --    0.50757   0.52637   0.53754   0.54427   0.55834
  Beta virt. eigenvalues --    0.56328   0.57648   0.59225   0.66522   0.68289
  Beta virt. eigenvalues --    0.70424   0.71617   0.73325   0.73614   0.75600
  Beta virt. eigenvalues --    0.80357   0.81254   2.07628   2.10997   2.16841
  Beta virt. eigenvalues --    2.17663   2.19022   2.26520   2.31633   4.40302
  Beta virt. eigenvalues --    4.41184   4.41886   4.42318   4.42732   4.43447
  Beta virt. eigenvalues --    4.43692   4.44664   4.44962   4.45684   4.46976
  Beta virt. eigenvalues --    4.48092   4.52021   4.57592   4.60306   4.64179
  Beta virt. eigenvalues --    4.66499   4.68767   4.73709   4.74796   4.77309
  Beta virt. eigenvalues --   96.27898  96.32571  96.40233  96.41413  96.43040
  Beta virt. eigenvalues --   96.53246  96.59942
          Condensed to atoms (all electrons):
               1          2          3          4          5          6
     1  Na  18.558078  -0.163684   0.765386   1.268520  -7.673583   3.109001
     2  Na  -0.163684  13.291753  -1.183272   0.947993  -1.692436   0.003854
     3  Na   0.765386  -1.183272  11.550447  -0.186635  -0.107096   0.163336
     4  Na   1.268520   0.947993  -0.186635  11.993844  -2.588722   0.582954
     5  Na  -7.673583  -1.692436  -0.107096  -2.588722  21.095313  -3.437409
     6  Na   3.109001   0.003854   0.163336   0.582954  -3.437409  12.186601
     7  Na  -2.612838  -0.120400   0.001805  -0.543945   2.951356  -1.295581
               7
     1  Na  -2.612838
     2  Na  -0.120400
     3  Na   0.001805
     4  Na  -0.543945
     5  Na   2.951356
     6  Na  -1.295581
     7  Na  11.946759
          Atomic-Atomic Spin Densities.
               1          2          3          4          5          6
     1  Na   0.701491   0.160912  -0.044457   0.209766  -0.681953   0.289690
     2  Na   0.160912  -0.219637   0.031933  -0.165926   0.350426  -0.045755
     3  Na  -0.044457   0.031933   0.277546   0.085960  -0.167636  -0.018476
     4  Na   0.209766  -0.165926   0.085960  -0.078595  -0.013752  -0.004921
     5  Na  -0.681953   0.350426  -0.167636  -0.013752   0.758697  -0.214715
     6  Na   0.289690  -0.045755  -0.018476  -0.004921  -0.214715   0.325053
     7  Na  -0.383344   0.053511   0.057088  -0.012535   0.155760  -0.137515
               7
     1  Na  -0.383344
     2  Na   0.053511
     3  Na   0.057088
     4  Na  -0.012535
     5  Na   0.155760
     6  Na  -0.137515
     7  Na   0.227320
 Mulliken charges and spin densities:
               1          2
     1  Na  -2.250878   0.252105
     2  Na  -0.083808   0.165465
     3  Na  -0.003971   0.221958
     4  Na  -0.474009   0.019998
     5  Na   2.452577   0.186827
     6  Na  -0.312755   0.193362
     7  Na   0.672844  -0.039715
 Sum of Mulliken charges =  -0.00000   1.00000
 Mulliken charges and spin densities with hydrogens summed into heavy atoms:
               1          2
     1  Na  -2.250878   0.252105
     2  Na  -0.083808   0.165465
     3  Na  -0.003971   0.221958
     4  Na  -0.474009   0.019998
     5  Na   2.452577   0.186827
     6  Na  -0.312755   0.193362
     7  Na   0.672844  -0.039715
 Electronic spatial extent (au):  <R**2>=           2606.4692
 Charge=              0.0000 electrons
 Dipole moment (field-independent basis, Debye):
    X=              0.0205    Y=              0.2527    Z=              0.0178  Tot=              0.2541
 Quadrupole moment (field-independent basis, Debye-Ang):
   XX=            -57.8031   YY=            -73.8354   ZZ=            -68.4098
   XY=             -5.8384   XZ=             -0.0711   YZ=             -0.2569
 Traceless Quadrupole moment (field-independent basis, Debye-Ang):
   XX=              8.8797   YY=             -7.1526   ZZ=             -1.7270
   XY=             -5.8384   XZ=             -0.0711   YZ=             -0.2569
 Octapole moment (field-independent basis, Debye-Ang**2):
  XXX=              6.1530  YYY=              7.9188  ZZZ=              3.8100  XYY=             -3.3816
  XXY=             -4.9844  XXZ=             13.6681  XZZ=             -4.4538  YZZ=              2.0449
  YYZ=             -2.2905  XYZ=            -11.9755
 Hexadecapole moment (field-independent basis, Debye-Ang**3):
 XXXX=          -2613.5093 YYYY=          -1223.3355 ZZZZ=           -544.9587 XXXY=           -142.1345
 XXXZ=             -3.4593 YYYX=            -26.4379 YYYZ=            -20.0558 ZZZX=              3.6749
 ZZZY=             -7.0145 XXYY=           -664.6301 XXZZ=           -544.7451 YYZZ=           -289.4911
 XXYZ=             28.3775 YYXZ=            -14.8838 ZZXY=            -22.6016
 N-N= 3.412818364309D+02 E-N=-3.411763337873D+03  KE= 1.133156657491D+03
                          Isotropic Fermi Contact Couplings
        Atom                 a.u.       MegaHertz       Gauss      10(-4) cm-1
     1  Na(23)             0.29999     354.90034     126.63727     118.38201
     2  Na(23)             0.02419      28.61845      10.21177       9.54609
     3  Na(23)             0.32307     382.19950     136.37828     127.48803
     4  Na(23)             0.01386      16.40022       5.85201       5.47053
     5  Na(23)            -0.01188     -14.05071      -5.01364      -4.68681
     6  Na(23)             0.25112     297.08695     106.00801      99.09754
     7  Na(23)            -0.09289    -109.89361     -39.21277     -36.65656
 --------------------------------------------------------
       Center         ----  Spin Dipole Couplings  ----
                      3XX-RR        3YY-RR        3ZZ-RR
 --------------------------------------------------------
     1   Atom       -0.016057      0.018394     -0.002337
     2   Atom        0.028301     -0.022057     -0.006244
     3   Atom       -0.002797      0.007291     -0.004495
     4   Atom        0.017109     -0.026328      0.009219
     5   Atom        0.036816     -0.022326     -0.014490
     6   Atom       -0.002526     -0.003724      0.006250
     7   Atom        0.027375     -0.017264     -0.010112
 --------------------------------------------------------
                        XY            XZ            YZ
 --------------------------------------------------------
     1   Atom       -0.021593     -0.001234      0.005994
     2   Atom        0.016876      0.032154      0.008884
     3   Atom       -0.005554     -0.005637      0.001153
     4   Atom        0.018585      0.042974      0.014356
     5   Atom       -0.016378     -0.019431      0.004558
     6   Atom        0.004800      0.000123     -0.000811
     7   Atom       -0.010537     -0.020816      0.005230
 --------------------------------------------------------


 ---------------------------------------------------------------------------------
              Anisotropic Spin Dipole Couplings in Principal Axis System
 ---------------------------------------------------------------------------------

       Atom             a.u.   MegaHertz   Gauss  10(-4) cm-1        Axes

              Baa    -0.0265    -3.749    -1.338    -1.251  0.8963  0.4390 -0.0630
     1 Na(23) Bbb    -0.0033    -0.471    -0.168    -0.157  0.1356 -0.1360  0.9814
              Bcc     0.0299     4.220     1.506     1.408 -0.4223  0.8881  0.1814
 
              Baa    -0.0274    -3.875    -1.383    -1.293 -0.4215  0.8633  0.2775
     2 Na(23) Bbb    -0.0250    -3.525    -1.258    -1.176 -0.3580 -0.4396  0.8238
              Bcc     0.0524     7.399     2.640     2.468  0.8332  0.2478  0.4944
 
              Baa    -0.0098    -1.391    -0.496    -0.464  0.6965  0.1790  0.6949
     3 Na(23) Bbb    -0.0007    -0.101    -0.036    -0.034 -0.5537 -0.4818  0.6791
              Bcc     0.0106     1.492     0.532     0.498 -0.4564  0.8578  0.2365
 
              Baa    -0.0335    -4.729    -1.687    -1.577 -0.4811  0.8542  0.1970
     4 Na(23) Bbb    -0.0290    -4.096    -1.461    -1.366 -0.5032 -0.4531  0.7359
              Bcc     0.0625     8.824     3.149     2.943  0.7179  0.2549  0.6478
 
              Baa    -0.0266    -3.755    -1.340    -1.253  0.2701  0.9602  0.0719
     5 Na(23) Bbb    -0.0209    -2.949    -1.052    -0.984  0.2773 -0.1491  0.9491
              Bcc     0.0475     6.704     2.392     2.236  0.9220 -0.2364 -0.3065
 
              Baa    -0.0080    -1.129    -0.403    -0.377 -0.6594  0.7502  0.0484
     6 Na(23) Bbb     0.0017     0.236     0.084     0.079  0.7507  0.6537  0.0956
              Bcc     0.0063     0.893     0.319     0.298 -0.0401 -0.0994  0.9942
 
              Baa    -0.0201    -2.832    -1.011    -0.945 -0.0846  0.7980 -0.5966
     7 Na(23) Bbb    -0.0190    -2.688    -0.959    -0.897  0.4408  0.5670  0.6959
              Bcc     0.0391     5.521     1.970     1.841  0.8936 -0.2042 -0.3997
 

 ---------------------------------------------------------------------------------

 No NMR shielding tensors so no spin-rotation constants.
 Leave Link  601 at Mon Nov 13 14:57:55 2023, MaxMem=  1879048192 cpu:               2.6 elap:               0.2
 (Enter /home/sekinelabo/g16/l701.exe)
 ... and contract with generalized density number  0.
 Compute integral first derivatives.
 Leave Link  701 at Mon Nov 13 14:57:55 2023, MaxMem=  1879048192 cpu:               1.8 elap:               0.1
 (Enter /home/sekinelabo/g16/l702.exe)
 L702 exits ... SP integral derivatives will be done elsewhere.
 Leave Link  702 at Mon Nov 13 14:57:55 2023, MaxMem=  1879048192 cpu:               0.5 elap:               0.0
 (Enter /home/sekinelabo/g16/l703.exe)
 Integral derivatives from FoFJK, PRISM(SPDF).
 Compute integral first derivatives, UseDBF=F ICtDFT=           0.
 Calling FoFJK, ICntrl=      2127 FMM=F ISym2X=0 I1Cent= 0 IOpClX= 1 NMat=1 NMatS=1 NMatT=0.
 FoFJK:  IHMeth= 1 ICntrl=    2127 DoSepK=F KAlg= 0 I1Cent=           0 FoldK=F
 IRaf=         0 NMat=       1 IRICut=       1 DoRegI=T DoRafI=F ISym2E= 0 IDoP0=0 IntGTp=1.
 FoFCou: FMM=F IPFlag=           0 FMFlag=      100000 FMFlg1=         800
         NFxFlg=           0 DoJE=F BraDBF=F KetDBF=F FulRan=T
         wScrn=  0.000000 ICntrl=      2127 IOpCl=  1 I1Cent=           0 NGrid=           0
         NMat0=    1 NMatS0=      1 NMatT0=    0 NMatD0=    1 NMtDS0=    0 NMtDT0=    0
 Symmetry not used in FoFCou.
 Leave Link  703 at Mon Nov 13 14:57:58 2023, MaxMem=  1879048192 cpu:              34.8 elap:               2.2
 (Enter /home/sekinelabo/g16/l716.exe)
 Dipole        = 8.05839507D-03 9.94133564D-02 7.00460560D-03
 ***** Axes restored to original set *****
 -------------------------------------------------------------------
 Center     Atomic                   Forces (Hartrees/Bohr)
 Number     Number              X              Y              Z
 -------------------------------------------------------------------
      1       11          -0.000157374    0.005639041    0.006618617
      2       11          -0.001735103    0.006412147    0.002381393
      3       11          -0.006373595   -0.001734852   -0.005597725
      4       11          -0.001670054   -0.009826486   -0.002181995
      5       11           0.002972827   -0.009856700    0.004951984
      6       11           0.006917681    0.001486264   -0.002843053
      7       11           0.000045618    0.007880585   -0.003329221
 -------------------------------------------------------------------
 Cartesian Forces:  Max     0.009856700 RMS     0.005193191
 Z-matrix is all fixed cartesians, so copy forces.
 Force constants in Cartesian coordinates: 
                1             2             3             4             5 
      1  0.128437D+00
      2 -0.119850D-02  0.125029D+00
      3 -0.829897D-02  0.466580D-02  0.743447D-01
      4 -0.368668D-01  0.717985D-02  0.463157D-02  0.469010D-01
      5 -0.548970D-02 -0.325580D-01 -0.206194D-02 -0.854618D-02  0.492250D-01
      6 -0.809815D-02  0.159322D-02 -0.158434D-01  0.256311D-02  0.207885D-01
      7 -0.346490D-02 -0.412774D-02 -0.605147D-02 -0.140784D-01  0.566870D-02
      8 -0.503831D-02  0.453609D-02 -0.669055D-03 -0.561944D-02 -0.206290D-01
      9 -0.353994D-02  0.889519D-03  0.146998D-03 -0.108457D-01 -0.141865D-01
     10 -0.240299D-01 -0.248259D-03  0.966475D-03  0.334364D-02  0.598441D-02
     11 -0.712688D-02 -0.350693D-01 -0.113103D-01  0.435936D-02 -0.434258D-02
     12 -0.304361D-02 -0.127471D-01 -0.225004D-01  0.409389D-02 -0.311699D-02
     13 -0.329212D-01  0.496613D-03 -0.184442D-02  0.195833D-02  0.626582D-02
     14  0.951352D-02 -0.413605D-01  0.931141D-02  0.151851D-02  0.485808D-02
     15  0.899419D-02 -0.560850D-02 -0.103599D-01  0.251824D-05 -0.698661D-04
     16 -0.681633D-02  0.877988D-03  0.134266D-02  0.497498D-05  0.175178D-04
     17  0.192605D-02  0.604622D-02 -0.333812D-02  0.766618D-05  0.259971D-04
     18  0.340974D-02 -0.323668D-02  0.611326D-03  0.109458D-04  0.390674D-04
     19 -0.243380D-01 -0.297995D-02  0.925416D-02 -0.126268D-02 -0.390058D-02
     20  0.741381D-02 -0.266233D-01  0.340220D-02  0.110023D-02  0.342041D-02
     21  0.105767D-01  0.144437D-01 -0.263994D-01 -0.456374D-03 -0.139226D-02
                6             7             8             9            10 
      6  0.276596D-01
      7 -0.177705D-02  0.470494D-01
      8 -0.194059D-01 -0.421371D-02  0.391174D-01
      9 -0.183536D-01  0.210737D-01  0.205467D-01  0.300333D-01
     10  0.317021D-02 -0.294490D-01  0.158022D-01 -0.521680D-02  0.870954D-01
     11 -0.181584D-03  0.108053D-03 -0.295052D-01 -0.986478D-02 -0.507369D-02
     12  0.217428D-02 -0.129194D-01 -0.139787D-02 -0.146177D-01  0.201254D-01
     13 -0.104824D-03 -0.608668D-05 -0.883581D-03 -0.158853D-02 -0.351801D-01
     14 -0.919807D-04  0.249712D-02  0.645314D-02  0.274890D-02 -0.135034D-01
     15  0.197455D-02 -0.342834D-03  0.941233D-03  0.281157D-02 -0.140982D-01
     16  0.698281D-04 -0.248347D-04 -0.191506D-04  0.548498D-04 -0.151354D-02
     17  0.675807D-04  0.640276D-04  0.493733D-04 -0.141411D-03  0.341345D-03
     18  0.174714D-03  0.421696D-04  0.325181D-04 -0.931358D-04 -0.199758D-02
     19  0.417688D-02 -0.262568D-04 -0.280002D-04  0.623351D-04 -0.266509D-03
     20 -0.276975D-02  0.355178D-05 -0.219112D-04  0.753041D-05 -0.330259D-02
     21  0.221390D-02 -0.251390D-04 -0.476163D-04  0.726060D-04 -0.294944D-02
               11            12            13            14            15 
     11  0.922913D-01
     12  0.197221D-01  0.489342D-01
     13  0.109359D-01 -0.123431D-01  0.863470D-01
     14 -0.233010D-01 -0.603823D-02 -0.230424D-02  0.819901D-01
     15  0.628104D-02 -0.227858D-01  0.691338D-02 -0.206838D-01  0.438048D-01
     16 -0.301156D-02  0.357182D-02 -0.270193D-01  0.370746D-02  0.142896D-03
     17  0.116140D-02 -0.966728D-03 -0.137370D-01 -0.226060D-01  0.141687D-01
     18 -0.341965D-02  0.458121D-02  0.109136D-01  0.119162D-01 -0.156849D-01
     19 -0.191195D-03  0.515058D-03  0.682144D-02 -0.142896D-02 -0.161190D-02
     20 -0.123461D-02  0.454481D-02 -0.773572D-03 -0.603385D-02  0.497119D-02
     21 -0.122682D-02  0.421417D-02 -0.194613D-02  0.283744D-02  0.239630D-03
               16            17            18            19            20 
     16  0.598756D-01
     17 -0.759290D-02  0.382053D-01
     18 -0.942900D-02 -0.161451D-01  0.161599D-01
     19 -0.245066D-01  0.189908D-01 -0.294992D-02  0.435786D-01
     20  0.602064D-02 -0.228823D-01  0.108136D-01 -0.104621D-01  0.533756D-01
     21  0.424695D-02  0.635509D-02 -0.574920D-02 -0.944661D-02 -0.209696D-01
               21 
     21  0.254083D-01
 Leave Link  716 at Mon Nov 13 14:57:58 2023, MaxMem=  1879048192 cpu:               0.5 elap:               0.0
 (Enter /home/sekinelabo/g16/l103.exe)

 GradGradGradGradGradGradGradGradGradGradGradGradGradGradGradGradGradGrad
 Berny optimization.
 Search for a local minimum.
 Step number   1 out of a maximum of    2
 All quantities printed in internal units (Hartrees-Bohrs-Radians)
 Second derivative matrix not updated -- first step.
 ITU=  0
     Eigenvalues ---    0.00595   0.00649   0.02457   0.03496   0.04724
     Eigenvalues ---    0.05889   0.07512   0.08276   0.08610   0.08966
     Eigenvalues ---    0.09319   0.14036   0.14713   0.17125   0.17874
 Quadratic step=4.916D-01 exceeds max=3.000D-01 adjusted using Lamda=-1.661D-02.
 Angle between NR and scaled steps=  22.69 degrees.
 Angle between quadratic step and forces=  22.34 degrees.
 Linear search not attempted -- first point.
 B after Tr=    -0.000000    0.000000    0.000000
         Rot=    1.000000    0.000000    0.000000    0.000000 Ang=   0.00 deg.
 Variable       Old X    -DE/DX   Delta X   Delta X   Delta X     New X
                                 (Linear)    (Quad)   (Total)
    X1        6.53551  -0.00016   0.00000  -0.00077  -0.00077   6.53474
    Y1        4.85014   0.00564   0.00000   0.02224   0.02224   4.87237
    Z1        3.81820   0.00662   0.00000   0.06680   0.06680   3.88500
    X2        1.12421  -0.00174   0.00000  -0.05091  -0.05091   1.07330
    Y2        6.55634   0.00641   0.00000   0.08783   0.08783   6.64418
    Z2        3.77570   0.00238   0.00000  -0.00179  -0.00179   3.77391
    X3        0.00000  -0.00637   0.00000  -0.10348  -0.10348  -0.10348
    Y3        2.47851  -0.00173   0.00000  -0.02583  -0.02583   2.45267
    Z3        0.00000  -0.00560   0.00000  -0.06576  -0.06576  -0.06576
    X4        4.91103  -0.00167   0.00000  -0.04434  -0.04434   4.86669
    Y4        0.00000  -0.00983   0.00000  -0.11648  -0.11648  -0.11648
    Z4        1.35823  -0.00218   0.00000   0.02033   0.02033   1.37856
    X5       10.00729   0.00297   0.00000   0.05393   0.05393  10.06122
    Y5        0.37154  -0.00986   0.00000  -0.10133  -0.10133   0.27021
    Z5        3.79542   0.00495   0.00000   0.03915   0.03915   3.83457
    X6       14.00922   0.00692   0.00000   0.10571   0.10571  14.11492
    Y6        3.54311   0.00149   0.00000   0.02305   0.02305   3.56616
    Z6        1.33675  -0.00284   0.00000  -0.05767  -0.05767   1.27908
    X7       10.15725   0.00005   0.00000   0.03988   0.03988  10.19713
    Y7        7.59860   0.00788   0.00000   0.11052   0.11052   7.70913
    Z7        0.42374  -0.00333   0.00000  -0.00107  -0.00107   0.42267
         Item               Value     Threshold  Converged?
 Maximum Force            0.009857     0.000450     NO 
 RMS     Force            0.005193     0.000300     NO 
 Maximum Displacement     0.116479     0.001800     NO 
 RMS     Displacement     0.065632     0.001200     NO 
 Predicted change in Energy=-4.061569D-03
 GradGradGradGradGradGradGradGradGradGradGradGradGradGradGradGradGradGrad

 Leave Link  103 at Mon Nov 13 14:57:58 2023, MaxMem=  1879048192 cpu:               0.3 elap:               0.0
 (Enter /home/sekinelabo/g16/l9999.exe)
 1\1\GINC-SEKINELABO-XA7R-R37\Force\UB3LYP\6-311+G(d)\Na7(2)\SEKINELABO
 \13-Nov-2023\0\\#P B3LYP/6-311+g(d) force\\Gaussian input prepared by 
 ASE\\0,2\Na,3.4584448296,2.5665814091,2.0205057767\Na,0.5949080219,3.4
 69467829,1.9980141326\Na,0.,1.3115684229,0.\Na,2.5988047168,0.,0.71874
 60451\Na,5.2956296484,0.1966101912,2.0084489843\Na,7.4133584592,1.8749
 315451,0.7073772061\Na,5.3749835949,4.0210073847,0.2242334539\\Version
 =ES64L-G16RevB.01\State=2-A\HF=-1136.0992708\S2=0.787177\S2-1=0.\S2A=0
 .750684\RMSD=7.395e-09\RMSF=5.193e-03\Dipole=0.0080584,0.0994134,0.007
 0046\Quadrupole=6.6018135,-5.3178079,-1.2840056,-4.3406972,-0.0528408,
 -0.1910131\PG=C01 [X(Na7)]\\@


 IBM COMPATIBILITY IS LIKE PREGNANCY. YOU ARE OR
 OR YOU ARE NOT. -- ADAM OSBORNE
 Job cpu time:       0 days  0 hours  4 minutes 52.5 seconds.
 Elapsed time:       0 days  0 hours  0 minutes 23.8 seconds.
 File lengths (MBytes):  RWF=     32 Int=      0 D2E=      0 Chk=      5 Scr=      1
 Normal termination of Gaussian 16 at Mon Nov 13 14:57:58 2023.
