 Entering Gaussian System, Link 0=g16
 Initial command:
 /home/sekinelabo/g16/l1.exe "/home/sekinelabo/g16temp/Gau-4067227.inp" -scrdir="/home/sekinelabo/g16temp/"
 Entering Link 1 = /home/sekinelabo/g16/l1.exe PID=   4067229.
  
 Copyright (c) 1988-2017, Gaussian, Inc.  All Rights Reserved.
  
 This is part of the Gaussian(R) 16 program.  It is based on
 the Gaussian(R) 09 system (copyright 2009, Gaussian, Inc.),
 the Gaussian(R) 03 system (copyright 2003, Gaussian, Inc.),
 the Gaussian(R) 98 system (copyright 1998, Gaussian, Inc.),
 the Gaussian(R) 94 system (copyright 1995, Gaussian, Inc.),
 the Gaussian 92(TM) system (copyright 1992, Gaussian, Inc.),
 the Gaussian 90(TM) system (copyright 1990, Gaussian, Inc.),
 the Gaussian 88(TM) system (copyright 1988, Gaussian, Inc.),
 the Gaussian 86(TM) system (copyright 1986, Carnegie Mellon
 University), and the Gaussian 82(TM) system (copyright 1983,
 Carnegie Mellon University). Gaussian is a federally registered
 trademark of Gaussian, Inc.
  
 This software contains proprietary and confidential information,
 including trade secrets, belonging to Gaussian, Inc.
  
 This software is provided under written license and may be
 used, copied, transmitted, or stored only in accord with that
 written license.
  
 The following legend is applicable only to US Government
 contracts under FAR:
  
                    RESTRICTED RIGHTS LEGEND
  
 Use, reproduction and disclosure by the US Government is
 subject to restrictions as set forth in subparagraphs (a)
 and (c) of the Commercial Computer Software - Restricted
 Rights clause in FAR 52.227-19.
  
 Gaussian, Inc.
 340 Quinnipiac St., Bldg. 40, Wallingford CT 06492
  
  
 ---------------------------------------------------------------
 Warning -- This program may not be used in any manner that
 competes with the business of Gaussian, Inc. or will provide
 assistance to any competitor of Gaussian, Inc.  The licensee
 of this program is prohibited from giving any competitor of
 Gaussian, Inc. access to this program.  By using this program,
 the user acknowledges that Gaussian, Inc. is engaged in the
 business of creating and licensing software in the field of
 computational chemistry and represents and warrants to the
 licensee that it is not a competitor of Gaussian, Inc. and that
 it will not use this program in any manner prohibited above.
 ---------------------------------------------------------------
  

 Cite this work as:
 Gaussian 16, Revision B.01,
 M. J. Frisch, G. W. Trucks, H. B. Schlegel, G. E. Scuseria, 
 M. A. Robb, J. R. Cheeseman, G. Scalmani, V. Barone, 
 G. A. Petersson, H. Nakatsuji, X. Li, M. Caricato, A. V. Marenich, 
 J. Bloino, B. G. Janesko, R. Gomperts, B. Mennucci, H. P. Hratchian, 
 J. V. Ortiz, A. F. Izmaylov, J. L. Sonnenberg, D. Williams-Young, 
 F. Ding, F. Lipparini, F. Egidi, J. Goings, B. Peng, A. Petrone, 
 T. Henderson, D. Ranasinghe, V. G. Zakrzewski, J. Gao, N. Rega, 
 G. Zheng, W. Liang, M. Hada, M. Ehara, K. Toyota, R. Fukuda, 
 J. Hasegawa, M. Ishida, T. Nakajima, Y. Honda, O. Kitao, H. Nakai, 
 T. Vreven, K. Throssell, J. A. Montgomery, Jr., J. E. Peralta, 
 F. Ogliaro, M. J. Bearpark, J. J. Heyd, E. N. Brothers, K. N. Kudin, 
 V. N. Staroverov, T. A. Keith, R. Kobayashi, J. Normand, 
 K. Raghavachari, A. P. Rendell, J. C. Burant, S. S. Iyengar, 
 J. Tomasi, M. Cossi, J. M. Millam, M. Klene, C. Adamo, R. Cammi, 
 J. W. Ochterski, R. L. Martin, K. Morokuma, O. Farkas, 
 J. B. Foresman, and D. J. Fox, Gaussian, Inc., Wallingford CT, 2016.
 
 ******************************************
 Gaussian 16:  ES64L-G16RevB.01 20-Dec-2017
                13-Nov-2023 
 ******************************************
 %mem=14GB
 %chk=checkpoint.chk
 %nprocshared=16
 Will use up to   16 processors via shared memory.
 -------------------------
 #P B3LYP/6-311+g(d) force
 -------------------------
 1/10=7,30=1,38=1/1,3;
 2/12=2,17=6,18=5,40=1/2;
 3/5=4,6=6,7=11,11=2,25=1,30=1,71=1,74=-5/1,2,3;
 4//1;
 5/5=2,38=5/2;
 6/7=2,8=2,9=2,10=2,28=1/1;
 7/29=1/1,2,3,16;
 1/10=7,30=1/3;
 99//99;
 Leave Link    1 at Mon Nov 13 17:00:30 2023, MaxMem=  1879048192 cpu:               0.3 elap:               0.0
 (Enter /home/sekinelabo/g16/l101.exe)
 ------------------------------
 Gaussian input prepared by ASE
 ------------------------------
 Symbolic Z-matrix:
 Charge =  0 Multiplicity = 2
 Na                    2.72638   4.49346   1.37252 
 Na                    3.93381   0.        1.61099 
 Na                    5.28602   2.77353   1.52034 
 Na                    2.97301   2.23799   3.16665 
 Na                    2.52534   1.93889   0. 
 Na                    0.85525   0.19843   1.61713 
 Na                    0.        3.1349    1.77226 
 
 ITRead=  0  0  0  0  0  0  0
 MicOpt= -1 -1 -1 -1 -1 -1 -1
 NAtoms=      7 NQM=        7 NQMF=       0 NMMI=      0 NMMIF=      0
                NMic=       0 NMicF=      0.
                    Isotopes and Nuclear Properties:
 (Nuclear quadrupole moments (NQMom) in fm**2, nuclear magnetic moments (NMagM)
  in nuclear magnetons)

  Atom         1           2           3           4           5           6           7
 IAtWgt=          23          23          23          23          23          23          23
 AtmWgt=  22.9897697  22.9897697  22.9897697  22.9897697  22.9897697  22.9897697  22.9897697
 NucSpn=           3           3           3           3           3           3           3
 AtZEff=  -0.0000000  -0.0000000  -0.0000000  -0.0000000  -0.0000000  -0.0000000  -0.0000000
 NQMom=   10.4000000  10.4000000  10.4000000  10.4000000  10.4000000  10.4000000  10.4000000
 NMagM=    2.2175200   2.2175200   2.2175200   2.2175200   2.2175200   2.2175200   2.2175200
 AtZNuc=  11.0000000  11.0000000  11.0000000  11.0000000  11.0000000  11.0000000  11.0000000
 Leave Link  101 at Mon Nov 13 17:00:30 2023, MaxMem=  1879048192 cpu:               2.6 elap:               0.2
 (Enter /home/sekinelabo/g16/l103.exe)

 GradGradGradGradGradGradGradGradGradGradGradGradGradGradGradGradGradGrad
 Berny optimization.
 Initialization pass.
 Trust Radius=3.00D-01 FncErr=1.00D-07 GrdErr=1.00D-07 EigMax=2.50D+02 EigMin=1.00D-04
 Number of steps in this run=      2 maximum allowed number of steps=      2.
 GradGradGradGradGradGradGradGradGradGradGradGradGradGradGradGradGradGrad

 Leave Link  103 at Mon Nov 13 17:00:30 2023, MaxMem=  1879048192 cpu:               0.2 elap:               0.0
 (Enter /home/sekinelabo/g16/l202.exe)
                          Input orientation:                          
 ---------------------------------------------------------------------
 Center     Atomic      Atomic             Coordinates (Angstroms)
 Number     Number       Type             X           Y           Z
 ---------------------------------------------------------------------
      1         11           0        2.726377    4.493458    1.372516
      2         11           0        3.933807    0.000000    1.610988
      3         11           0        5.286019    2.773527    1.520343
      4         11           0        2.973012    2.237993    3.166646
      5         11           0        2.525344    1.938889    0.000000
      6         11           0        0.855251    0.198434    1.617134
      7         11           0        0.000000    3.134902    1.772261
 ---------------------------------------------------------------------
                    Distance matrix (angstroms):
                    1          2          3          4          5
     1  Na   0.000000
     2  Na   4.658962   0.000000
     3  Na   3.087359   3.086931   0.000000
     4  Na   2.892552   2.889950   2.889136   0.000000
     5  Na   2.906895   2.887619   3.260274   3.212089   0.000000
     6  Na   4.691288   3.084951   5.125639   3.323507   2.904052
     7  Na   3.072231   5.032738   5.304343   3.404050   3.308885
                    6          7
     6  Na   0.000000
     7  Na   3.062411   0.000000
 Stoichiometry    Na7(2)
 Framework group  C1[X(Na7)]
 Deg. of freedom    15
 Full point group                 C1      NOp   1
 Largest Abelian subgroup         C1      NOp   1
 Largest concise Abelian subgroup C1      NOp   1
                         Standard orientation:                         
 ---------------------------------------------------------------------
 Center     Atomic      Atomic             Coordinates (Angstroms)
 Number     Number       Type             X           Y           Z
 ---------------------------------------------------------------------
      1         11           0       -0.112119   -2.382429   -0.207468
      2         11           0       -1.319548    2.111029    0.031004
      3         11           0       -2.671760   -0.662498   -0.059641
      4         11           0       -0.358753   -0.126964    1.586662
      5         11           0        0.088914    0.172140   -1.579984
      6         11           0        1.759008    1.912595    0.037150
      7         11           0        2.614259   -1.023873    0.192277
 ---------------------------------------------------------------------
 Rotational constants (GHZ):           1.0763652           0.9137826           0.6412609
 Leave Link  202 at Mon Nov 13 17:00:30 2023, MaxMem=  1879048192 cpu:               0.0 elap:               0.0
 (Enter /home/sekinelabo/g16/l301.exe)
 Standard basis: 6-311+G(d) (5D, 7F)
 Ernie: Thresh=  0.10000D-02 Tol=  0.10000D-05 Strict=F.
 There are   217 symmetry adapted cartesian basis functions of A   symmetry.
 There are   210 symmetry adapted basis functions of A   symmetry.
   210 basis functions,   350 primitive gaussians,   217 cartesian basis functions
    39 alpha electrons       38 beta electrons
       nuclear repulsion energy       398.3722961729 Hartrees.
 IExCor=  402 DFT=T Ex+Corr=B3LYP ExCW=0 ScaHFX=  0.200000
 ScaDFX=  0.800000  0.720000  1.000000  0.810000 ScalE2=  1.000000  1.000000
 IRadAn=      5 IRanWt=     -1 IRanGd=            0 ICorTp=0 IEmpDi=  4
 NAtoms=    7 NActive=    7 NUniq=    7 SFac= 1.00D+00 NAtFMM=   60 NAOKFM=F Big=F
 Integral buffers will be    131072 words long.
 Raffenetti 2 integral format.
 Two-electron integral symmetry is turned on.
 Leave Link  301 at Mon Nov 13 17:00:30 2023, MaxMem=  1879048192 cpu:               0.5 elap:               0.0
 (Enter /home/sekinelabo/g16/l302.exe)
 NPDir=0 NMtPBC=     1 NCelOv=     1 NCel=       1 NClECP=     1 NCelD=      1
         NCelK=      1 NCelE2=     1 NClLst=     1 CellRange=     0.0.
 One-electron integrals computed using PRISM.
 One-electron integral symmetry used in STVInt
 NBasis=   210 RedAO= T EigKep=  1.17D-06  NBF=   210
 NBsUse=   210 1.00D-06 EigRej= -1.00D+00 NBFU=   210
 Precomputing XC quadrature grid using
 IXCGrd= 4 IRadAn=           5 IRanWt=          -1 IRanGd=           0 AccXCQ= 0.00D+00.
 Generated NRdTot=       0 NPtTot=           0 NUsed=           0 NTot=          32
 NSgBfM=   211   211   211   211   211 MxSgAt=     7 MxSgA2=     7.
 Leave Link  302 at Mon Nov 13 17:00:30 2023, MaxMem=  1879048192 cpu:               2.1 elap:               0.1
 (Enter /home/sekinelabo/g16/l303.exe)
 DipDrv:  MaxL=1.
 Leave Link  303 at Mon Nov 13 17:00:30 2023, MaxMem=  1879048192 cpu:               0.7 elap:               0.1
 (Enter /home/sekinelabo/g16/l401.exe)
 ExpMin= 7.60D-03 ExpMax= 3.62D+04 ExpMxC= 1.21D+03 IAcc=3 IRadAn=         5 AccDes= 0.00D+00
 Harris functional with IExCor=  402 and IRadAn=       5 diagonalized for initial guess.
 HarFok:  IExCor=  402 AccDes= 0.00D+00 IRadAn=         5 IDoV= 1 UseB2=F ITyADJ=14
 ICtDFT=  3500011 ScaDFX=  1.000000  1.000000  1.000000  1.000000
 FoFCou: FMM=F IPFlag=           0 FMFlag=      100000 FMFlg1=           0
         NFxFlg=           0 DoJE=T BraDBF=F KetDBF=T FulRan=T
         wScrn=  0.000000 ICntrl=       500 IOpCl=  0 I1Cent=   200000004 NGrid=           0
         NMat0=    1 NMatS0=      1 NMatT0=    0 NMatD0=    1 NMtDS0=    0 NMtDT0=    0
 Petite list used in FoFCou.
 Harris En= -1135.88200847369    
 JPrj=0 DoOrth=F DoCkMO=F.
 Initial guess <Sx>= 0.0000 <Sy>= 0.0000 <Sz>= 0.5000 <S**2>= 0.7500 S= 0.5000
 Leave Link  401 at Mon Nov 13 17:00:31 2023, MaxMem=  1879048192 cpu:               4.9 elap:               0.3
 (Enter /home/sekinelabo/g16/l502.exe)
 Keep R1 and R2 ints in memory in canonical form, NReq=507620388.
 FoFCou: FMM=F IPFlag=           0 FMFlag=           0 FMFlg1=           0
         NFxFlg=           0 DoJE=F BraDBF=F KetDBF=F FulRan=T
         wScrn=  0.000000 ICntrl=       600 IOpCl=  0 I1Cent=           0 NGrid=           0
         NMat0=    1 NMatS0=  22155 NMatT0=    0 NMatD0=    1 NMtDS0=    0 NMtDT0=    0
 Symmetry not used in FoFCou.
 Two-electron integral symmetry not used.
 UHF open shell SCF:
 Using DIIS extrapolation, IDIIS=  1040.
 NGot=  1879048192 LenX=  1388082348 LenY=  1388034818
 Requested convergence on RMS density matrix=1.00D-08 within 128 cycles.
 Requested convergence on MAX density matrix=1.00D-06.
 Requested convergence on             energy=1.00D-06.
 No special actions if energy rises.

 Cycle   1  Pass 1  IDiag  1:
 E= -1136.06024231112    
 DIIS: error= 1.60D-02 at cycle   1 NSaved=   1.
 NSaved= 1 IEnMin= 1 EnMin= -1136.06024231112     IErMin= 1 ErrMin= 1.60D-02
 ErrMax= 1.60D-02  0.00D+00 EMaxC= 1.00D-01 BMatC= 2.09D-01 BMatP= 2.09D-01
 IDIUse=3 WtCom= 8.40D-01 WtEn= 1.60D-01
 Coeff-Com:  0.100D+01
 Coeff-En:   0.100D+01
 Coeff:      0.100D+01
 Gap=     0.050 Goal=   None    Shift=    0.000
 Gap=     0.054 Goal=   None    Shift=    0.000
 GapD=    0.050 DampG=0.500 DampE=0.500 DampFc=0.2500 IDamp=-1.
 Damping current iteration by 2.50D-01
 RMSDP=9.69D-02 MaxDP=7.27D+00              OVMax= 2.76D-01

 Cycle   2  Pass 1  IDiag  1:
 E= -1136.07745626238     Delta-E=       -0.017213951255 Rises=F Damp=T
 DIIS: error= 1.05D-02 at cycle   2 NSaved=   2.
 NSaved= 2 IEnMin= 2 EnMin= -1136.07745626238     IErMin= 2 ErrMin= 1.05D-02
 ErrMax= 1.05D-02  0.00D+00 EMaxC= 1.00D-01 BMatC= 7.84D-02 BMatP= 2.09D-01
 IDIUse=3 WtCom= 8.95D-01 WtEn= 1.05D-01
 Coeff-Com: -0.125D+01 0.225D+01
 Coeff-En:   0.000D+00 0.100D+01
 Coeff:     -0.112D+01 0.212D+01
 Gap=     0.063 Goal=   None    Shift=    0.000
 Gap=     0.056 Goal=   None    Shift=    0.000
 RMSDP=4.33D-02 MaxDP=3.48D+00 DE=-1.72D-02 OVMax= 1.81D-01

 Cycle   3  Pass 1  IDiag  1:
 E= -1136.10562649825     Delta-E=       -0.028170235868 Rises=F Damp=F
 DIIS: error= 3.74D-03 at cycle   3 NSaved=   3.
 NSaved= 3 IEnMin= 3 EnMin= -1136.10562649825     IErMin= 3 ErrMin= 3.74D-03
 ErrMax= 3.74D-03  0.00D+00 EMaxC= 1.00D-01 BMatC= 4.57D-03 BMatP= 7.84D-02
 IDIUse=3 WtCom= 9.63D-01 WtEn= 3.74D-02
 Coeff-Com: -0.263D+00 0.488D+00 0.774D+00
 Coeff-En:   0.000D+00 0.000D+00 0.100D+01
 Coeff:     -0.253D+00 0.470D+00 0.783D+00
 Gap=     0.057 Goal=   None    Shift=    0.000
 Gap=     0.056 Goal=   None    Shift=    0.000
 RMSDP=1.86D-02 MaxDP=1.57D+00 DE=-2.82D-02 OVMax= 7.42D-02

 Cycle   4  Pass 1  IDiag  1:
 E= -1136.10565046069     Delta-E=       -0.000023962442 Rises=F Damp=F
 DIIS: error= 3.23D-03 at cycle   4 NSaved=   4.
 NSaved= 4 IEnMin= 4 EnMin= -1136.10565046069     IErMin= 4 ErrMin= 3.23D-03
 ErrMax= 3.23D-03  0.00D+00 EMaxC= 1.00D-01 BMatC= 3.51D-03 BMatP= 4.57D-03
 IDIUse=3 WtCom= 9.68D-01 WtEn= 3.23D-02
 Coeff-Com:  0.110D-01-0.106D-01 0.467D+00 0.533D+00
 Coeff-En:   0.000D+00 0.000D+00 0.498D+00 0.502D+00
 Coeff:      0.107D-01-0.103D-01 0.468D+00 0.532D+00
 Gap=     0.060 Goal=   None    Shift=    0.000
 Gap=     0.056 Goal=   None    Shift=    0.000
 RMSDP=4.73D-03 MaxDP=3.05D-01 DE=-2.40D-05 OVMax= 5.14D-02

 Cycle   5  Pass 1  IDiag  1:
 E= -1136.10789583396     Delta-E=       -0.002245373272 Rises=F Damp=F
 DIIS: error= 1.14D-03 at cycle   5 NSaved=   5.
 NSaved= 5 IEnMin= 5 EnMin= -1136.10789583396     IErMin= 5 ErrMin= 1.14D-03
 ErrMax= 1.14D-03  0.00D+00 EMaxC= 1.00D-01 BMatC= 2.92D-04 BMatP= 3.51D-03
 IDIUse=3 WtCom= 9.89D-01 WtEn= 1.14D-02
 Coeff-Com:  0.102D-01-0.138D-01 0.295D+00 0.356D+00 0.353D+00
 Coeff-En:   0.000D+00 0.000D+00 0.000D+00 0.566D-01 0.943D+00
 Coeff:      0.101D-01-0.137D-01 0.291D+00 0.353D+00 0.360D+00
 Gap=     0.060 Goal=   None    Shift=    0.000
 Gap=     0.056 Goal=   None    Shift=    0.000
 RMSDP=8.89D-04 MaxDP=6.98D-02 DE=-2.25D-03 OVMax= 1.66D-02

 Cycle   6  Pass 1  IDiag  1:
 E= -1136.10820618468     Delta-E=       -0.000310350717 Rises=F Damp=F
 DIIS: error= 7.32D-05 at cycle   6 NSaved=   6.
 NSaved= 6 IEnMin= 6 EnMin= -1136.10820618468     IErMin= 6 ErrMin= 7.32D-05
 ErrMax= 7.32D-05  0.00D+00 EMaxC= 1.00D-01 BMatC= 1.37D-06 BMatP= 2.92D-04
 IDIUse=1 WtCom= 1.00D+00 WtEn= 0.00D+00
 Coeff-Com: -0.288D-02 0.359D-02-0.207D-01-0.283D-01 0.277D-01 0.102D+01
 Coeff:     -0.288D-02 0.359D-02-0.207D-01-0.283D-01 0.277D-01 0.102D+01
 Gap=     0.060 Goal=   None    Shift=    0.000
 Gap=     0.056 Goal=   None    Shift=    0.000
 RMSDP=6.72D-04 MaxDP=1.00D-01 DE=-3.10D-04 OVMax= 1.50D-03

 Cycle   7  Pass 1  IDiag  1:
 E= -1136.10820775876     Delta-E=       -0.000001574085 Rises=F Damp=F
 DIIS: error= 3.48D-05 at cycle   7 NSaved=   7.
 NSaved= 7 IEnMin= 7 EnMin= -1136.10820775876     IErMin= 7 ErrMin= 3.48D-05
 ErrMax= 3.48D-05  0.00D+00 EMaxC= 1.00D-01 BMatC= 4.50D-07 BMatP= 1.37D-06
 IDIUse=1 WtCom= 1.00D+00 WtEn= 0.00D+00
 Coeff-Com: -0.177D-02 0.221D-02-0.215D-01-0.276D-01 0.337D-02 0.546D+00
 Coeff-Com:  0.499D+00
 Coeff:     -0.177D-02 0.221D-02-0.215D-01-0.276D-01 0.337D-02 0.546D+00
 Coeff:      0.499D+00
 Gap=     0.060 Goal=   None    Shift=    0.000
 Gap=     0.056 Goal=   None    Shift=    0.000
 RMSDP=1.28D-04 MaxDP=2.30D-02 DE=-1.57D-06 OVMax= 7.49D-04

 Cycle   8  Pass 1  IDiag  1:
 E= -1136.10820820156     Delta-E=       -0.000000442799 Rises=F Damp=F
 DIIS: error= 1.35D-05 at cycle   8 NSaved=   8.
 NSaved= 8 IEnMin= 8 EnMin= -1136.10820820156     IErMin= 8 ErrMin= 1.35D-05
 ErrMax= 1.35D-05  0.00D+00 EMaxC= 1.00D-01 BMatC= 6.87D-08 BMatP= 4.50D-07
 IDIUse=1 WtCom= 1.00D+00 WtEn= 0.00D+00
 Coeff-Com:  0.431D-03-0.572D-03-0.237D-02-0.197D-02-0.833D-02-0.127D+00
 Coeff-Com:  0.238D+00 0.902D+00
 Coeff:      0.431D-03-0.572D-03-0.237D-02-0.197D-02-0.833D-02-0.127D+00
 Coeff:      0.238D+00 0.902D+00
 Gap=     0.060 Goal=   None    Shift=    0.000
 Gap=     0.056 Goal=   None    Shift=    0.000
 RMSDP=1.15D-04 MaxDP=1.77D-02 DE=-4.43D-07 OVMax= 4.45D-04

 Cycle   9  Pass 1  IDiag  1:
 E= -1136.10820831779     Delta-E=       -0.000000116230 Rises=F Damp=F
 DIIS: error= 7.46D-06 at cycle   9 NSaved=   9.
 NSaved= 9 IEnMin= 9 EnMin= -1136.10820831779     IErMin= 9 ErrMin= 7.46D-06
 ErrMax= 7.46D-06  0.00D+00 EMaxC= 1.00D-01 BMatC= 1.58D-08 BMatP= 6.87D-08
 IDIUse=1 WtCom= 1.00D+00 WtEn= 0.00D+00
 Coeff-Com:  0.358D-03-0.463D-03 0.183D-03 0.973D-03-0.570D-02-0.110D+00
 Coeff-Com:  0.822D-01 0.473D+00 0.560D+00
 Coeff:      0.358D-03-0.463D-03 0.183D-03 0.973D-03-0.570D-02-0.110D+00
 Coeff:      0.822D-01 0.473D+00 0.560D+00
 Gap=     0.060 Goal=   None    Shift=    0.000
 Gap=     0.056 Goal=   None    Shift=    0.000
 RMSDP=2.72D-05 MaxDP=3.32D-03 DE=-1.16D-07 OVMax= 1.98D-04

 Cycle  10  Pass 1  IDiag  1:
 E= -1136.10820834127     Delta-E=       -0.000000023480 Rises=F Damp=F
 DIIS: error= 3.79D-06 at cycle  10 NSaved=  10.
 NSaved=10 IEnMin=10 EnMin= -1136.10820834127     IErMin=10 ErrMin= 3.79D-06
 ErrMax= 3.79D-06  0.00D+00 EMaxC= 1.00D-01 BMatC= 4.26D-09 BMatP= 1.58D-08
 IDIUse=1 WtCom= 1.00D+00 WtEn= 0.00D+00
 Coeff-Com:  0.258D-04-0.258D-04 0.706D-03 0.984D-03-0.752D-03-0.139D-01
 Coeff-Com: -0.389D-01-0.650D-01 0.327D+00 0.790D+00
 Coeff:      0.258D-04-0.258D-04 0.706D-03 0.984D-03-0.752D-03-0.139D-01
 Coeff:     -0.389D-01-0.650D-01 0.327D+00 0.790D+00
 Gap=     0.060 Goal=   None    Shift=    0.000
 Gap=     0.056 Goal=   None    Shift=    0.000
 RMSDP=2.41D-05 MaxDP=1.86D-03 DE=-2.35D-08 OVMax= 1.82D-04

 Cycle  11  Pass 1  IDiag  1:
 E= -1136.10820835267     Delta-E=       -0.000000011402 Rises=F Damp=F
 DIIS: error= 1.59D-06 at cycle  11 NSaved=  11.
 NSaved=11 IEnMin=11 EnMin= -1136.10820835267     IErMin=11 ErrMin= 1.59D-06
 ErrMax= 1.59D-06  0.00D+00 EMaxC= 1.00D-01 BMatC= 5.43D-10 BMatP= 4.26D-09
 IDIUse=1 WtCom= 1.00D+00 WtEn= 0.00D+00
 Coeff-Com: -0.606D-04 0.801D-04 0.302D-03 0.102D-03 0.175D-02 0.186D-01
 Coeff-Com: -0.225D-01-0.111D+00-0.128D+00 0.308D-01 0.121D+01
 Coeff:     -0.606D-04 0.801D-04 0.302D-03 0.102D-03 0.175D-02 0.186D-01
 Coeff:     -0.225D-01-0.111D+00-0.128D+00 0.308D-01 0.121D+01
 Gap=     0.060 Goal=   None    Shift=    0.000
 Gap=     0.056 Goal=   None    Shift=    0.000
 RMSDP=2.01D-05 MaxDP=1.46D-03 DE=-1.14D-08 OVMax= 1.22D-04

 Cycle  12  Pass 1  IDiag  1:
 E= -1136.10820835601     Delta-E=       -0.000000003339 Rises=F Damp=F
 DIIS: error= 6.06D-07 at cycle  12 NSaved=  12.
 NSaved=12 IEnMin=12 EnMin= -1136.10820835601     IErMin=12 ErrMin= 6.06D-07
 ErrMax= 6.06D-07  0.00D+00 EMaxC= 1.00D-01 BMatC= 8.40D-11 BMatP= 5.43D-10
 IDIUse=1 WtCom= 1.00D+00 WtEn= 0.00D+00
 Coeff-Com: -0.317D-04 0.403D-04 0.827D-05-0.882D-04 0.652D-03 0.103D-01
 Coeff-Com: -0.422D-02-0.359D-01-0.830D-01-0.939D-01 0.340D+00 0.867D+00
 Coeff:     -0.317D-04 0.403D-04 0.827D-05-0.882D-04 0.652D-03 0.103D-01
 Coeff:     -0.422D-02-0.359D-01-0.830D-01-0.939D-01 0.340D+00 0.867D+00
 Gap=     0.060 Goal=   None    Shift=    0.000
 Gap=     0.056 Goal=   None    Shift=    0.000
 RMSDP=6.78D-06 MaxDP=4.85D-04 DE=-3.34D-09 OVMax= 4.21D-05

 Cycle  13  Pass 1  IDiag  1:
 E= -1136.10820835631     Delta-E=       -0.000000000292 Rises=F Damp=F
 DIIS: error= 1.76D-07 at cycle  13 NSaved=  13.
 NSaved=13 IEnMin=13 EnMin= -1136.10820835631     IErMin=13 ErrMin= 1.76D-07
 ErrMax= 1.76D-07  0.00D+00 EMaxC= 1.00D-01 BMatC= 8.97D-12 BMatP= 8.40D-11
 IDIUse=1 WtCom= 1.00D+00 WtEn= 0.00D+00
 Coeff-Com:  0.219D-05-0.349D-05-0.346D-04-0.265D-04-0.716D-04-0.341D-03
 Coeff-Com:  0.251D-02 0.804D-02-0.177D-02-0.262D-01-0.101D+00 0.206D+00
 Coeff-Com:  0.913D+00
 Coeff:      0.219D-05-0.349D-05-0.346D-04-0.265D-04-0.716D-04-0.341D-03
 Coeff:      0.251D-02 0.804D-02-0.177D-02-0.262D-01-0.101D+00 0.206D+00
 Coeff:      0.913D+00
 Gap=     0.060 Goal=   None    Shift=    0.000
 Gap=     0.056 Goal=   None    Shift=    0.000
 RMSDP=2.27D-06 MaxDP=1.40D-04 DE=-2.92D-10 OVMax= 1.15D-05

 Cycle  14  Pass 1  IDiag  1:
 E= -1136.10820835634     Delta-E=       -0.000000000037 Rises=F Damp=F
 DIIS: error= 3.39D-08 at cycle  14 NSaved=  14.
 NSaved=14 IEnMin=14 EnMin= -1136.10820835634     IErMin=14 ErrMin= 3.39D-08
 ErrMax= 3.39D-08  0.00D+00 EMaxC= 1.00D-01 BMatC= 7.04D-13 BMatP= 8.97D-12
 IDIUse=1 WtCom= 1.00D+00 WtEn= 0.00D+00
 Coeff-Com:  0.221D-05-0.278D-05-0.876D-05-0.486D-06-0.577D-04-0.716D-03
 Coeff-Com:  0.265D-03 0.263D-02 0.800D-02 0.913D-02-0.304D-01-0.711D-01
 Coeff-Com: -0.139D-02 0.108D+01
 Coeff:      0.221D-05-0.278D-05-0.876D-05-0.486D-06-0.577D-04-0.716D-03
 Coeff:      0.265D-03 0.263D-02 0.800D-02 0.913D-02-0.304D-01-0.711D-01
 Coeff:     -0.139D-02 0.108D+01
 Gap=     0.060 Goal=   None    Shift=    0.000
 Gap=     0.056 Goal=   None    Shift=    0.000
 RMSDP=6.79D-07 MaxDP=4.38D-05 DE=-3.68D-11 OVMax= 3.42D-06

 Cycle  15  Pass 1  IDiag  1:
 E= -1136.10820835633     Delta-E=        0.000000000017 Rises=F Damp=F
 DIIS: error= 1.89D-08 at cycle  15 NSaved=  15.
 NSaved=15 IEnMin=14 EnMin= -1136.10820835634     IErMin=15 ErrMin= 1.89D-08
 ErrMax= 1.89D-08  0.00D+00 EMaxC= 1.00D-01 BMatC= 1.34D-13 BMatP= 7.04D-13
 IDIUse=1 WtCom= 1.00D+00 WtEn= 0.00D+00
 Coeff-Com: -0.804D-06 0.116D-05 0.582D-05 0.325D-05 0.260D-04 0.145D-03
 Coeff-Com: -0.497D-03-0.174D-02-0.753D-03 0.330D-02 0.225D-01-0.301D-01
 Coeff-Com: -0.168D+00-0.120D+00 0.129D+01
 Coeff:     -0.804D-06 0.116D-05 0.582D-05 0.325D-05 0.260D-04 0.145D-03
 Coeff:     -0.497D-03-0.174D-02-0.753D-03 0.330D-02 0.225D-01-0.301D-01
 Coeff:     -0.168D+00-0.120D+00 0.129D+01
 Gap=     0.060 Goal=   None    Shift=    0.000
 Gap=     0.056 Goal=   None    Shift=    0.000
 RMSDP=3.73D-07 MaxDP=2.41D-05 DE= 1.68D-11 OVMax= 2.12D-06

 Cycle  16  Pass 1  IDiag  1:
 E= -1136.10820835634     Delta-E=       -0.000000000015 Rises=F Damp=F
 DIIS: error= 5.33D-09 at cycle  16 NSaved=  16.
 NSaved=16 IEnMin=14 EnMin= -1136.10820835634     IErMin=16 ErrMin= 5.33D-09
 ErrMax= 5.33D-09  0.00D+00 EMaxC= 1.00D-01 BMatC= 1.62D-14 BMatP= 1.34D-13
 IDIUse=1 WtCom= 1.00D+00 WtEn= 0.00D+00
 Coeff-Com: -0.266D-06 0.342D-06 0.225D-05 0.854D-06 0.872D-05 0.783D-04
 Coeff-Com: -0.400D-04-0.328D-03-0.940D-03-0.971D-03 0.355D-02 0.937D-02
 Coeff-Com: -0.586D-02-0.156D+00 0.146D+00 0.101D+01
 Coeff:     -0.266D-06 0.342D-06 0.225D-05 0.854D-06 0.872D-05 0.783D-04
 Coeff:     -0.400D-04-0.328D-03-0.940D-03-0.971D-03 0.355D-02 0.937D-02
 Coeff:     -0.586D-02-0.156D+00 0.146D+00 0.101D+01
 Gap=     0.060 Goal=   None    Shift=    0.000
 Gap=     0.056 Goal=   None    Shift=    0.000
 RMSDP=7.40D-08 MaxDP=4.62D-06 DE=-1.46D-11 OVMax= 5.06D-07

 Cycle  17  Pass 1  IDiag  1:
 E= -1136.10820835634     Delta-E=       -0.000000000000 Rises=F Damp=F
 DIIS: error= 2.99D-09 at cycle  17 NSaved=  17.
 NSaved=17 IEnMin=14 EnMin= -1136.10820835634     IErMin=17 ErrMin= 2.99D-09
 ErrMax= 2.99D-09  0.00D+00 EMaxC= 1.00D-01 BMatC= 3.01D-15 BMatP= 1.62D-14
 IDIUse=1 WtCom= 1.00D+00 WtEn= 0.00D+00
 Coeff-Com:  0.363D-08-0.218D-07-0.107D-06-0.323D-06-0.135D-05 0.164D-04
 Coeff-Com:  0.454D-04 0.947D-04-0.193D-03-0.666D-03-0.174D-02 0.683D-02
 Coeff-Com:  0.201D-01-0.259D-01-0.150D+00 0.305D+00 0.846D+00
 Coeff:      0.363D-08-0.218D-07-0.107D-06-0.323D-06-0.135D-05 0.164D-04
 Coeff:      0.454D-04 0.947D-04-0.193D-03-0.666D-03-0.174D-02 0.683D-02
 Coeff:      0.201D-01-0.259D-01-0.150D+00 0.305D+00 0.846D+00
 Gap=     0.060 Goal=   None    Shift=    0.000
 Gap=     0.056 Goal=   None    Shift=    0.000
 RMSDP=1.69D-08 MaxDP=1.31D-06 DE=-4.55D-13 OVMax= 1.69D-07

 Cycle  18  Pass 1  IDiag  1:
 E= -1136.10820835633     Delta-E=        0.000000000009 Rises=F Damp=F
 DIIS: error= 1.15D-09 at cycle  18 NSaved=  18.
 NSaved=18 IEnMin=14 EnMin= -1136.10820835634     IErMin=18 ErrMin= 1.15D-09
 ErrMax= 1.15D-09  0.00D+00 EMaxC= 1.00D-01 BMatC= 2.16D-16 BMatP= 3.01D-15
 IDIUse=1 WtCom= 1.00D+00 WtEn= 0.00D+00
 Large coefficients: NSaved= 18 BigCof=    0.00 CofMax=   10.00 Det=-8.08D-16
 Inversion failed.  Reducing to 17 matrices.
 Large coefficients: NSaved= 17 BigCof=    0.00 CofMax=   10.00 Det=-8.08D-16
 Inversion failed.  Reducing to 16 matrices.
 Large coefficients: NSaved= 16 BigCof=    0.00 CofMax=   10.00 Det=-8.30D-16
 Inversion failed.  Reducing to 15 matrices.
 Coeff-Com:  0.164D-06 0.751D-07-0.182D-05-0.135D-04-0.226D-04 0.114D-03
 Coeff-Com:  0.237D-03-0.114D-03-0.166D-02-0.115D-02 0.158D-01 0.304D-03
 Coeff-Com: -0.128D+00-0.977D-01 0.121D+01
 Coeff:      0.164D-06 0.751D-07-0.182D-05-0.135D-04-0.226D-04 0.114D-03
 Coeff:      0.237D-03-0.114D-03-0.166D-02-0.115D-02 0.158D-01 0.304D-03
 Coeff:     -0.128D+00-0.977D-01 0.121D+01
 Gap=     0.060 Goal=   None    Shift=    0.000
 Gap=     0.056 Goal=   None    Shift=    0.000
 RMSDP=2.99D-08 MaxDP=3.17D-06 DE= 9.09D-12 OVMax= 6.03D-08

 Cycle  19  Pass 1  IDiag  1:
 E= -1136.10820835634     Delta-E=       -0.000000000013 Rises=F Damp=F
 DIIS: error= 3.18D-10 at cycle  19 NSaved=  16.
 NSaved=16 IEnMin=16 EnMin= -1136.10820835634     IErMin=16 ErrMin= 3.18D-10
 ErrMax= 3.18D-10  0.00D+00 EMaxC= 1.00D-01 BMatC= 3.53D-17 BMatP= 2.16D-16
 IDIUse=1 WtCom= 1.00D+00 WtEn= 0.00D+00
 Large coefficients: NSaved= 16 BigCof=    0.00 CofMax=   10.00 Det=-6.74D-17
 Inversion failed.  Reducing to 15 matrices.
 Coeff-Com: -0.294D-07-0.244D-05-0.356D-05-0.545D-05 0.792D-05 0.460D-04
 Coeff-Com:  0.177D-03-0.460D-03-0.208D-02 0.820D-03 0.147D-01-0.838D-02
 Coeff-Com: -0.769D-01-0.970D-01 0.117D+01
 Coeff:     -0.294D-07-0.244D-05-0.356D-05-0.545D-05 0.792D-05 0.460D-04
 Coeff:      0.177D-03-0.460D-03-0.208D-02 0.820D-03 0.147D-01-0.838D-02
 Coeff:     -0.769D-01-0.970D-01 0.117D+01
 Gap=     0.060 Goal=   None    Shift=    0.000
 Gap=     0.056 Goal=   None    Shift=    0.000
 RMSDP=1.97D-08 MaxDP=1.58D-06 DE=-1.32D-11 OVMax= 2.34D-08

 Cycle  20  Pass 1  IDiag  1:
 E= -1136.10820835633     Delta-E=        0.000000000017 Rises=F Damp=F
 DIIS: error= 3.40D-10 at cycle  20 NSaved=  16.
 NSaved=16 IEnMin=15 EnMin= -1136.10820835634     IErMin=15 ErrMin= 3.18D-10
 ErrMax= 3.40D-10  0.00D+00 EMaxC= 1.00D-01 BMatC= 1.90D-17 BMatP= 3.53D-17
 IDIUse=1 WtCom= 1.00D+00 WtEn= 0.00D+00
 Large coefficients: NSaved= 16 BigCof=    0.00 CofMax=   10.00 Det=-3.15D-17
 Inversion failed.  Reducing to 15 matrices.
 Coeff-Com: -0.635D-06-0.207D-05-0.413D-05 0.124D-04 0.391D-04 0.673D-04
 Coeff-Com: -0.372D-03-0.106D-02 0.192D-02 0.838D-02-0.161D-01-0.554D-01
 Coeff-Com: -0.665D-01 0.502D+00 0.627D+00
 Coeff:     -0.635D-06-0.207D-05-0.413D-05 0.124D-04 0.391D-04 0.673D-04
 Coeff:     -0.372D-03-0.106D-02 0.192D-02 0.838D-02-0.161D-01-0.554D-01
 Coeff:     -0.665D-01 0.502D+00 0.627D+00
 Gap=     0.060 Goal=   None    Shift=    0.000
 Gap=     0.056 Goal=   None    Shift=    0.000
 RMSDP=1.08D-08 MaxDP=1.70D-06 DE= 1.73D-11 OVMax= 9.43D-09

 Cycle  21  Pass 1  IDiag  1:
 E= -1136.10820835634     Delta-E=       -0.000000000010 Rises=F Damp=F
 DIIS: error= 6.71D-11 at cycle  21 NSaved=  16.
 NSaved=16 IEnMin=14 EnMin= -1136.10820835634     IErMin=16 ErrMin= 6.71D-11
 ErrMax= 6.71D-11  0.00D+00 EMaxC= 1.00D-01 BMatC= 1.45D-18 BMatP= 1.90D-17
 IDIUse=1 WtCom= 1.00D+00 WtEn= 0.00D+00
 Large coefficients: NSaved= 16 BigCof=    0.00 CofMax=   10.00 Det=-6.67D-18
 Inversion failed.  Reducing to 15 matrices.
 Coeff-Com:  0.663D-06 0.112D-05-0.502D-05-0.110D-04 0.719D-06 0.863D-04
 Coeff-Com:  0.148D-03-0.872D-03-0.721D-03 0.555D-02 0.989D-02-0.311D-01
 Coeff-Com: -0.920D-01 0.319D-01 0.108D+01
 Coeff:      0.663D-06 0.112D-05-0.502D-05-0.110D-04 0.719D-06 0.863D-04
 Coeff:      0.148D-03-0.872D-03-0.721D-03 0.555D-02 0.989D-02-0.311D-01
 Coeff:     -0.920D-01 0.319D-01 0.108D+01
 Gap=     0.060 Goal=   None    Shift=    0.000
 Gap=     0.056 Goal=   None    Shift=    0.000
 RMSDP=1.39D-08 MaxDP=1.88D-06 DE=-1.00D-11 OVMax= 5.95D-09

 Cycle  22  Pass 1  IDiag  1:
 E= -1136.10820835633     Delta-E=        0.000000000004 Rises=F Damp=F
 DIIS: error= 4.57D-11 at cycle  22 NSaved=  16.
 NSaved=16 IEnMin=13 EnMin= -1136.10820835634     IErMin=16 ErrMin= 4.57D-11
 ErrMax= 4.57D-11  0.00D+00 EMaxC= 1.00D-01 BMatC= 4.83D-19 BMatP= 1.45D-18
 IDIUse=1 WtCom= 1.00D+00 WtEn= 0.00D+00
 Large coefficients: NSaved= 16 BigCof=    0.00 CofMax=   10.00 Det=-6.86D-19
 Inversion failed.  Reducing to 15 matrices.
 Coeff-Com: -0.864D-07-0.988D-06-0.230D-05-0.915D-06 0.280D-04 0.652D-04
 Coeff-Com: -0.276D-03-0.602D-03 0.213D-02 0.642D-02-0.405D-03-0.716D-01
 Coeff-Com: -0.366D-01 0.315D+00 0.785D+00
 Coeff:     -0.864D-07-0.988D-06-0.230D-05-0.915D-06 0.280D-04 0.652D-04
 Coeff:     -0.276D-03-0.602D-03 0.213D-02 0.642D-02-0.405D-03-0.716D-01
 Coeff:     -0.366D-01 0.315D+00 0.785D+00
 Gap=     0.060 Goal=   None    Shift=    0.000
 Gap=     0.056 Goal=   None    Shift=    0.000
 RMSDP=7.54D-09 MaxDP=1.38D-06 DE= 3.64D-12 OVMax= 1.87D-09

 Cycle  23  Pass 1  IDiag  1:
 E= -1136.10820835634     Delta-E=       -0.000000000005 Rises=F Damp=F
 DIIS: error= 5.88D-11 at cycle  23 NSaved=  16.
 NSaved=16 IEnMin=12 EnMin= -1136.10820835634     IErMin=15 ErrMin= 4.57D-11
 ErrMax= 5.88D-11  0.00D+00 EMaxC= 1.00D-01 BMatC= 4.22D-19 BMatP= 4.83D-19
 IDIUse=1 WtCom= 1.00D+00 WtEn= 0.00D+00
 Large coefficients: NSaved= 16 BigCof=    0.00 CofMax=   10.00 Det=-5.44D-19
 Inversion failed.  Reducing to 15 matrices.
 Coeff-Com: -0.821D-06-0.227D-05-0.187D-05 0.266D-04 0.687D-04-0.225D-03
 Coeff-Com: -0.675D-03 0.167D-02 0.659D-02 0.724D-02-0.787D-01-0.653D-01
 Coeff-Com:  0.193D+00 0.405D+00 0.532D+00
 Coeff:     -0.821D-06-0.227D-05-0.187D-05 0.266D-04 0.687D-04-0.225D-03
 Coeff:     -0.675D-03 0.167D-02 0.659D-02 0.724D-02-0.787D-01-0.653D-01
 Coeff:      0.193D+00 0.405D+00 0.532D+00
 Gap=     0.060 Goal=   None    Shift=    0.000
 Gap=     0.056 Goal=   None    Shift=    0.000
 RMSDP=5.57D-09 MaxDP=8.93D-07 DE=-5.46D-12 OVMax= 1.12D-09

 SCF Done:  E(UB3LYP) =  -1136.10820836     A.U. after   23 cycles
            NFock= 23  Conv=0.56D-08     -V/T= 2.0024
 <Sx>= 0.0000 <Sy>= 0.0000 <Sz>= 0.5000 <S**2>= 0.7571 S= 0.5036
 <L.S>= 0.000000000000E+00
 KE= 1.133374813326D+03 PE=-3.526545179861D+03 EE= 8.586898620056D+02
 Annihilation of the first spin contaminant:
 S**2 before annihilation     0.7571,   after     0.7500
 Leave Link  502 at Mon Nov 13 17:00:50 2023, MaxMem=  1879048192 cpu:             225.0 elap:              19.1
 (Enter /home/sekinelabo/g16/l601.exe)
 Copying SCF densities to generalized density rwf, IOpCl= 1 IROHF=0.

 **********************************************************************

            Population analysis using the SCF Density.

 **********************************************************************

 Orbital symmetries:
 Alpha Orbitals:
       Occupied  (A) (A) (A) (A) (A) (A) (A) (A) (A) (A) (A) (A)
                 (A) (A) (A) (A) (A) (A) (A) (A) (A) (A) (A) (A)
                 (A) (A) (A) (A) (A) (A) (A) (A) (A) (A) (A) (A)
                 (A) (A) (A)
       Virtual   (A) (A) (A) (A) (A) (A) (A) (A) (A) (A) (A) (A)
                 (A) (A) (A) (A) (A) (A) (A) (A) (A) (A) (A) (A)
                 (A) (A) (A) (A) (A) (A) (A) (A) (A) (A) (A) (A)
                 (A) (A) (A) (A) (A) (A) (A) (A) (A) (A) (A) (A)
                 (A) (A) (A) (A) (A) (A) (A) (A) (A) (A) (A) (A)
                 (A) (A) (A) (A) (A) (A) (A) (A) (A) (A) (A) (A)
                 (A) (A) (A) (A) (A) (A) (A) (A) (A) (A) (A) (A)
                 (A) (A) (A) (A) (A) (A) (A) (A) (A) (A) (A) (A)
                 (A) (A) (A) (A) (A) (A) (A) (A) (A) (A) (A) (A)
                 (A) (A) (A) (A) (A) (A) (A) (A) (A) (A) (A) (A)
                 (A) (A) (A) (A) (A) (A) (A) (A) (A) (A) (A) (A)
                 (A) (A) (A) (A) (A) (A) (A) (A) (A) (A) (A) (A)
                 (A) (A) (A) (A) (A) (A) (A) (A) (A) (A) (A) (A)
                 (A) (A) (A) (A) (A) (A) (A) (A) (A) (A) (A) (A)
                 (A) (A) (A)
 Beta  Orbitals:
       Occupied  (A) (A) (A) (A) (A) (A) (A) (A) (A) (A) (A) (A)
                 (A) (A) (A) (A) (A) (A) (A) (A) (A) (A) (A) (A)
                 (A) (A) (A) (A) (A) (A) (A) (A) (A) (A) (A) (A)
                 (A) (A)
       Virtual   (A) (A) (A) (A) (A) (A) (A) (A) (A) (A) (A) (A)
                 (A) (A) (A) (A) (A) (A) (A) (A) (A) (A) (A) (A)
                 (A) (A) (A) (A) (A) (A) (A) (A) (A) (A) (A) (A)
                 (A) (A) (A) (A) (A) (A) (A) (A) (A) (A) (A) (A)
                 (A) (A) (A) (A) (A) (A) (A) (A) (A) (A) (A) (A)
                 (A) (A) (A) (A) (A) (A) (A) (A) (A) (A) (A) (A)
                 (A) (A) (A) (A) (A) (A) (A) (A) (A) (A) (A) (A)
                 (A) (A) (A) (A) (A) (A) (A) (A) (A) (A) (A) (A)
                 (A) (A) (A) (A) (A) (A) (A) (A) (A) (A) (A) (A)
                 (A) (A) (A) (A) (A) (A) (A) (A) (A) (A) (A) (A)
                 (A) (A) (A) (A) (A) (A) (A) (A) (A) (A) (A) (A)
                 (A) (A) (A) (A) (A) (A) (A) (A) (A) (A) (A) (A)
                 (A) (A) (A) (A) (A) (A) (A) (A) (A) (A) (A) (A)
                 (A) (A) (A) (A) (A) (A) (A) (A) (A) (A) (A) (A)
                 (A) (A) (A) (A)
 The electronic state is 2-A.
 Alpha  occ. eigenvalues --  -38.43714 -38.43665 -38.43401 -38.43333 -38.43321
 Alpha  occ. eigenvalues --  -38.43273 -38.43212  -2.19747  -2.19630  -2.19560
 Alpha  occ. eigenvalues --   -2.19515  -2.19421  -2.19396  -2.19285  -1.13631
 Alpha  occ. eigenvalues --   -1.13469  -1.13437  -1.13406  -1.13385  -1.13346
 Alpha  occ. eigenvalues --   -1.13314  -1.13282  -1.13264  -1.13196  -1.13180
 Alpha  occ. eigenvalues --   -1.13113  -1.13077  -1.13030  -1.12983  -1.12982
 Alpha  occ. eigenvalues --   -1.12957  -1.12930  -1.12885  -1.12867  -1.12856
 Alpha  occ. eigenvalues --   -0.20875  -0.13753  -0.13092  -0.11260
 Alpha virt. eigenvalues --   -0.05285  -0.04741  -0.04380  -0.03271  -0.02935
 Alpha virt. eigenvalues --   -0.02188  -0.01294  -0.00771   0.00032   0.00325
 Alpha virt. eigenvalues --    0.00405   0.00458   0.00941   0.01053   0.01067
 Alpha virt. eigenvalues --    0.01206   0.01252   0.01321   0.01391   0.01493
 Alpha virt. eigenvalues --    0.01594   0.01735   0.01879   0.01964   0.02139
 Alpha virt. eigenvalues --    0.02480   0.02522   0.02832   0.02855   0.02910
 Alpha virt. eigenvalues --    0.03145   0.03184   0.03329   0.03340   0.03378
 Alpha virt. eigenvalues --    0.03399   0.03506   0.03644   0.03655   0.03771
 Alpha virt. eigenvalues --    0.04661   0.04816   0.04827   0.04977   0.05157
 Alpha virt. eigenvalues --    0.05303   0.05492   0.05634   0.05729   0.05764
 Alpha virt. eigenvalues --    0.06035   0.07550   0.07723   0.07798   0.07948
 Alpha virt. eigenvalues --    0.07963   0.08328   0.08562   0.09017   0.09534
 Alpha virt. eigenvalues --    0.09880   0.10144   0.11505   0.11745   0.12438
 Alpha virt. eigenvalues --    0.12547   0.13305   0.13978   0.14031   0.14291
 Alpha virt. eigenvalues --    0.14372   0.14563   0.14969   0.15007   0.15721
 Alpha virt. eigenvalues --    0.16490   0.16523   0.17181   0.17409   0.18683
 Alpha virt. eigenvalues --    0.25312   0.26142   0.26367   0.27568   0.27815
 Alpha virt. eigenvalues --    0.29598   0.29850   0.30177   0.30745   0.35846
 Alpha virt. eigenvalues --    0.36359   0.36691   0.38238   0.38960   0.39970
 Alpha virt. eigenvalues --    0.40345   0.40691   0.42896   0.43846   0.44606
 Alpha virt. eigenvalues --    0.44714   0.45905   0.46043   0.46344   0.46417
 Alpha virt. eigenvalues --    0.47212   0.47341   0.47752   0.48628   0.48836
 Alpha virt. eigenvalues --    0.48942   0.50190   0.50780   0.51304   0.52555
 Alpha virt. eigenvalues --    0.53220   0.54548   0.54795   0.55640   0.56467
 Alpha virt. eigenvalues --    0.58375   0.59602   0.60600   0.62440   0.63162
 Alpha virt. eigenvalues --    0.64346   0.64854   0.69535   0.69963   0.70440
 Alpha virt. eigenvalues --    0.71818   0.75609   0.77899   0.78708   0.79958
 Alpha virt. eigenvalues --    0.85179   2.14227   2.23225   2.24952   2.27656
 Alpha virt. eigenvalues --    2.28771   2.35161   2.36522   4.41525   4.41733
 Alpha virt. eigenvalues --    4.42161   4.42379   4.42625   4.42852   4.46054
 Alpha virt. eigenvalues --    4.47662   4.48522   4.50468   4.55508   4.56960
 Alpha virt. eigenvalues --    4.58248   4.63476   4.67546   4.70376   4.71117
 Alpha virt. eigenvalues --    4.72853   4.72918   4.83926   4.90445  96.35306
 Alpha virt. eigenvalues --   96.48361  96.51168  96.55299  96.56756  96.64883
 Alpha virt. eigenvalues --   96.66662
  Beta  occ. eigenvalues --  -38.43703 -38.43659 -38.43392 -38.43307 -38.43253
  Beta  occ. eigenvalues --  -38.43197 -38.43189  -2.19733  -2.19623  -2.19427
  Beta  occ. eigenvalues --   -2.19413  -2.19378  -2.19352  -2.19262  -1.13599
  Beta  occ. eigenvalues --   -1.13432  -1.13405  -1.13364  -1.13354  -1.13341
  Beta  occ. eigenvalues --   -1.13241  -1.13229  -1.13222  -1.13142  -1.13090
  Beta  occ. eigenvalues --   -1.13073  -1.13027  -1.12980  -1.12936  -1.12927
  Beta  occ. eigenvalues --   -1.12912  -1.12883  -1.12848  -1.12840  -1.12789
  Beta  occ. eigenvalues --   -0.20106  -0.13427  -0.12750
  Beta virt. eigenvalues --   -0.07153  -0.05287  -0.04722  -0.04389  -0.02383
  Beta virt. eigenvalues --   -0.02047  -0.01230  -0.01120  -0.00723   0.00156
  Beta virt. eigenvalues --    0.00330   0.00369   0.00426   0.00966   0.01050
  Beta virt. eigenvalues --    0.01064   0.01239   0.01380   0.01484   0.01533
  Beta virt. eigenvalues --    0.01603   0.01651   0.01836   0.01914   0.01975
  Beta virt. eigenvalues --    0.02307   0.02475   0.02517   0.02813   0.02852
  Beta virt. eigenvalues --    0.02927   0.03147   0.03202   0.03328   0.03382
  Beta virt. eigenvalues --    0.03485   0.03545   0.03616   0.03669   0.03759
  Beta virt. eigenvalues --    0.04059   0.04814   0.04915   0.04971   0.05130
  Beta virt. eigenvalues --    0.05249   0.05524   0.05603   0.05717   0.05731
  Beta virt. eigenvalues --    0.05882   0.06376   0.07531   0.07744   0.07975
  Beta virt. eigenvalues --    0.08086   0.08155   0.08329   0.08636   0.09136
  Beta virt. eigenvalues --    0.09897   0.10145   0.10515   0.11686   0.11970
  Beta virt. eigenvalues --    0.12601   0.12686   0.13616   0.14256   0.14321
  Beta virt. eigenvalues --    0.14471   0.14644   0.14846   0.15209   0.15367
  Beta virt. eigenvalues --    0.16028   0.16621   0.16759   0.17180   0.17696
  Beta virt. eigenvalues --    0.19194   0.25670   0.26231   0.26541   0.27800
  Beta virt. eigenvalues --    0.28392   0.29730   0.30214   0.30712   0.31014
  Beta virt. eigenvalues --    0.36082   0.36604   0.37084   0.38527   0.39260
  Beta virt. eigenvalues --    0.40248   0.40706   0.40995   0.43021   0.43916
  Beta virt. eigenvalues --    0.44893   0.45015   0.45900   0.46244   0.46519
  Beta virt. eigenvalues --    0.46854   0.47162   0.47557   0.47859   0.48733
  Beta virt. eigenvalues --    0.48952   0.49177   0.50373   0.50900   0.51356
  Beta virt. eigenvalues --    0.52596   0.53427   0.54709   0.55105   0.56041
  Beta virt. eigenvalues --    0.56680   0.58794   0.60014   0.60951   0.62479
  Beta virt. eigenvalues --    0.63316   0.64800   0.65223   0.69766   0.69961
  Beta virt. eigenvalues --    0.70428   0.72280   0.75930   0.77909   0.78896
  Beta virt. eigenvalues --    0.80171   0.85440   2.14271   2.23238   2.24975
  Beta virt. eigenvalues --    2.27669   2.28789   2.35486   2.36903   4.41549
  Beta virt. eigenvalues --    4.41743   4.42245   4.42446   4.42713   4.42915
  Beta virt. eigenvalues --    4.46126   4.47716   4.48589   4.50552   4.55566
  Beta virt. eigenvalues --    4.57030   4.58294   4.63502   4.67622   4.70418
  Beta virt. eigenvalues --    4.71121   4.72920   4.73022   4.83987   4.90525
  Beta virt. eigenvalues --   96.35327  96.48367  96.51177  96.55309  96.56768
  Beta virt. eigenvalues --   96.64984  96.66777
          Condensed to atoms (all electrons):
               1          2          3          4          5          6
     1  Na  13.101774  -1.255037   0.507213  -1.383691  -0.217900  -0.457910
     2  Na  -1.255037  13.661583   1.053182  -1.202450  -0.771349  -0.068281
     3  Na   0.507213   1.053182  15.501106  -2.272906   0.368206  -2.748326
     4  Na  -1.383691  -1.202450  -2.272906  19.389537  -4.090910   0.620689
     5  Na  -0.217900  -0.771349   0.368206  -4.090910  18.298777  -1.078337
     6  Na  -0.457910  -0.068281  -2.748326   0.620689  -1.078337  13.069763
     7  Na   0.198346  -0.958348  -1.914692   0.935951  -0.571769   1.321381
               7
     1  Na   0.198346
     2  Na  -0.958348
     3  Na  -1.914692
     4  Na   0.935951
     5  Na  -0.571769
     6  Na   1.321381
     7  Na  11.951335
          Atomic-Atomic Spin Densities.
               1          2          3          4          5          6
     1  Na  -0.368374   0.370942  -0.049722  -0.333595   0.346935   0.123440
     2  Na   0.370942  -0.440263  -0.114004  -0.090892  -0.016022   0.089704
     3  Na  -0.049722  -0.114004  -0.760410   0.130291   0.028114   0.475650
     4  Na  -0.333595  -0.090892   0.130291   5.900118  -5.121852  -0.125267
     5  Na   0.346935  -0.016022   0.028114  -5.121852   5.307140   0.070883
     6  Na   0.123440   0.089704   0.475650  -0.125267   0.070883  -0.400307
     7  Na  -0.065869   0.186388   0.275762   0.208188  -0.132902  -0.243809
               7
     1  Na  -0.065869
     2  Na   0.186388
     3  Na   0.275762
     4  Na   0.208188
     5  Na  -0.132902
     6  Na  -0.243809
     7  Na  -0.262630
 Mulliken charges and spin densities:
               1          2
     1  Na   0.507205   0.023757
     2  Na   0.540700  -0.014147
     3  Na   0.506216  -0.014319
     4  Na  -0.996219   0.566991
     5  Na  -0.936719   0.482297
     6  Na   0.341021  -0.009706
     7  Na   0.037795  -0.034872
 Sum of Mulliken charges =  -0.00000   1.00000
 Mulliken charges and spin densities with hydrogens summed into heavy atoms:
               1          2
     1  Na   0.507205   0.023757
     2  Na   0.540700  -0.014147
     3  Na   0.506216  -0.014319
     4  Na  -0.996219   0.566991
     5  Na  -0.936719   0.482297
     6  Na   0.341021  -0.009706
     7  Na   0.037795  -0.034872
 Electronic spatial extent (au):  <R**2>=           1691.6510
 Charge=             -0.0000 electrons
 Dipole moment (field-independent basis, Debye):
    X=              0.1362    Y=             -0.0511    Z=              0.0534  Tot=              0.1550
 Quadrupole moment (field-independent basis, Debye-Ang):
   XX=            -56.7571   YY=            -64.8312   ZZ=            -73.0717
   XY=              0.0165   XZ=              1.0669   YZ=              0.5221
 Traceless Quadrupole moment (field-independent basis, Debye-Ang):
   XX=              8.1296   YY=              0.0555   ZZ=             -8.1850
   XY=              0.0165   XZ=              1.0669   YZ=              0.5221
 Octapole moment (field-independent basis, Debye-Ang**2):
  XXX=              0.9337  YYY=              2.3711  ZZZ=              0.5107  XYY=              2.0945
  XXY=             -3.7205  XXZ=              1.1054  XZZ=              0.3949  YZZ=             -0.2919
  YYZ=             -0.6907  XYZ=             -0.7978
 Hexadecapole moment (field-independent basis, Debye-Ang**3):
 XXXX=          -1112.2125 YYYY=          -1084.2698 ZZZZ=           -600.4977 XXXY=              1.6389
 XXXZ=             23.3511 YYYX=             -2.1199 YYYZ=             15.4449 ZZZX=             -0.9526
 ZZZY=             -2.1893 XXYY=           -366.4143 XXZZ=           -344.9095 YYZZ=           -320.4005
 XXYZ=             -1.0643 YYXZ=              5.1414 ZZXY=              0.3664
 N-N= 3.983722961729D+02 E-N=-3.526545179861D+03  KE= 1.133374813326D+03
                          Isotropic Fermi Contact Couplings
        Atom                 a.u.       MegaHertz       Gauss      10(-4) cm-1
     1  Na(23)            -0.00720      -8.52348      -3.04139      -2.84313
     2  Na(23)            -0.01428     -16.89936      -6.03011      -5.63702
     3  Na(23)            -0.01770     -20.93893      -7.47153      -6.98447
     4  Na(23)             0.31969     378.20386     134.95254     126.15523
     5  Na(23)             0.33138     392.03238     139.88690     130.76793
     6  Na(23)            -0.01810     -21.41173      -7.64024      -7.14219
     7  Na(23)            -0.01699     -20.10518      -7.17403      -6.70637
 --------------------------------------------------------
       Center         ----  Spin Dipole Couplings  ----
                      3XX-RR        3YY-RR        3ZZ-RR
 --------------------------------------------------------
     1   Atom       -0.030618     -0.024311      0.054929
     2   Atom       -0.029201     -0.028256      0.057457
     3   Atom       -0.021949     -0.026344      0.048293
     4   Atom        0.003586      0.000660     -0.004247
     5   Atom       -0.000315      0.004443     -0.004128
     6   Atom       -0.022473     -0.021673      0.044145
     7   Atom       -0.013293     -0.019516      0.032809
 --------------------------------------------------------
                        XY            XZ            YZ
 --------------------------------------------------------
     1   Atom        0.000280      0.004101     -0.011136
     2   Atom       -0.001953     -0.001690     -0.002218
     3   Atom        0.000789     -0.005678      0.002699
     4   Atom       -0.001417     -0.000138      0.002669
     5   Atom        0.002117      0.005741      0.002289
     6   Atom        0.003393      0.001392     -0.004349
     7   Atom       -0.002942     -0.004847      0.003849
 --------------------------------------------------------


 ---------------------------------------------------------------------------------
              Anisotropic Spin Dipole Couplings in Principal Axis System
 ---------------------------------------------------------------------------------

       Atom             a.u.   MegaHertz   Gauss  10(-4) cm-1        Axes

              Baa    -0.0309    -4.369    -1.559    -1.457  0.9858 -0.1542 -0.0671
     1 Na(23) Bbb    -0.0257    -3.630    -1.295    -1.211  0.1618  0.9786  0.1269
              Bcc     0.0566     8.000     2.855     2.668  0.0461 -0.1360  0.9896
 
              Baa    -0.0308    -4.352    -1.553    -1.452  0.7822  0.6223  0.0306
     2 Na(23) Bbb    -0.0267    -3.774    -1.347    -1.259 -0.6227  0.7824  0.0081
              Bcc     0.0575     8.126     2.900     2.711 -0.0189 -0.0254  0.9995
 
              Baa    -0.0267    -3.766    -1.344    -1.256 -0.2253  0.9729 -0.0521
     3 Na(23) Bbb    -0.0222    -3.131    -1.117    -1.044  0.9710  0.2286  0.0695
              Bcc     0.0488     6.897     2.461     2.301 -0.0795  0.0349  0.9962
 
              Baa    -0.0054    -0.768    -0.274    -0.256 -0.0505 -0.4101  0.9106
     4 Na(23) Bbb     0.0011     0.156     0.056     0.052  0.4739  0.7928  0.3833
              Bcc     0.0043     0.613     0.219     0.204  0.8791 -0.4509 -0.1543
 
              Baa    -0.0083    -1.172    -0.418    -0.391 -0.5738 -0.0515  0.8174
     5 Na(23) Bbb     0.0011     0.153     0.055     0.051 -0.6285  0.6676 -0.3991
              Bcc     0.0072     1.020     0.364     0.340  0.5251  0.7427  0.4155
 
              Baa    -0.0257    -3.631    -1.296    -1.211  0.7336 -0.6772 -0.0568
     6 Na(23) Bbb    -0.0187    -2.646    -0.944    -0.883  0.6794  0.7329  0.0357
              Bcc     0.0445     6.277     2.240     2.094  0.0175 -0.0647  0.9977
 
              Baa    -0.0208    -2.930    -1.046    -0.977  0.3464  0.9374 -0.0360
     7 Na(23) Bbb    -0.0129    -1.819    -0.649    -0.607  0.9320 -0.3394  0.1275
              Bcc     0.0336     4.750     1.695     1.584 -0.1072  0.0777  0.9912
 

 ---------------------------------------------------------------------------------

 No NMR shielding tensors so no spin-rotation constants.
 Leave Link  601 at Mon Nov 13 17:00:50 2023, MaxMem=  1879048192 cpu:               2.5 elap:               0.2
 (Enter /home/sekinelabo/g16/l701.exe)
 ... and contract with generalized density number  0.
 Compute integral first derivatives.
 Leave Link  701 at Mon Nov 13 17:00:50 2023, MaxMem=  1879048192 cpu:               1.8 elap:               0.1
 (Enter /home/sekinelabo/g16/l702.exe)
 L702 exits ... SP integral derivatives will be done elsewhere.
 Leave Link  702 at Mon Nov 13 17:00:50 2023, MaxMem=  1879048192 cpu:               0.5 elap:               0.0
 (Enter /home/sekinelabo/g16/l703.exe)
 Integral derivatives from FoFJK, PRISM(SPDF).
 Compute integral first derivatives, UseDBF=F ICtDFT=           0.
 Calling FoFJK, ICntrl=      2127 FMM=F ISym2X=0 I1Cent= 0 IOpClX= 1 NMat=1 NMatS=1 NMatT=0.
 FoFJK:  IHMeth= 1 ICntrl=    2127 DoSepK=F KAlg= 0 I1Cent=           0 FoldK=F
 IRaf=         0 NMat=       1 IRICut=       1 DoRegI=T DoRafI=F ISym2E= 0 IDoP0=0 IntGTp=1.
 FoFCou: FMM=F IPFlag=           0 FMFlag=      100000 FMFlg1=         800
         NFxFlg=           0 DoJE=F BraDBF=F KetDBF=F FulRan=T
         wScrn=  0.000000 ICntrl=      2127 IOpCl=  1 I1Cent=           0 NGrid=           0
         NMat0=    1 NMatS0=      1 NMatT0=    0 NMatD0=    1 NMtDS0=    0 NMtDT0=    0
 Symmetry not used in FoFCou.
 Leave Link  703 at Mon Nov 13 17:00:53 2023, MaxMem=  1879048192 cpu:              38.0 elap:               2.4
 (Enter /home/sekinelabo/g16/l716.exe)
 Dipole        = 5.35948598D-02-2.00948718D-02 2.10233578D-02
 ***** Axes restored to original set *****
 -------------------------------------------------------------------
 Center     Atomic                   Forces (Hartrees/Bohr)
 Number     Number              X              Y              Z
 -------------------------------------------------------------------
      1       11           0.000224701    0.019444177   -0.002277932
      2       11           0.009505740   -0.018094101    0.000283328
      3       11           0.015072355    0.004324058   -0.003786312
      4       11          -0.006831286   -0.000381915    0.019360262
      5       11          -0.001171972    0.001897850   -0.018591685
      6       11          -0.008837770   -0.011470962    0.003513268
      7       11          -0.007961767    0.004280892    0.001499072
 -------------------------------------------------------------------
 Cartesian Forces:  Max     0.019444177 RMS     0.010093879
 Z-matrix is all fixed cartesians, so copy forces.
 Force constants in Cartesian coordinates: 
                1             2             3             4             5 
      1  0.120576D+00
      2  0.329574D-02  0.179107D+00
      3  0.837413D-03 -0.829029D-02  0.883901D-01
      4  0.106889D-01  0.610057D-02  0.560627D-03  0.133514D+00
      5  0.537166D-02 -0.866876D-02  0.636173D-03 -0.285314D-01  0.163611D+00
      6  0.453546D-03  0.197615D-02  0.118950D-01  0.479531D-02  0.106508D-02
      7 -0.393578D-01 -0.165482D-01  0.203208D-02 -0.308300D-01  0.187246D-01
      8  0.314200D-01 -0.349055D-01  0.222554D-03 -0.302071D-01 -0.427212D-01
      9 -0.381646D-02  0.164659D-02 -0.101926D-01 -0.493320D-03  0.118465D-02
     10 -0.292121D-01 -0.335695D-02 -0.360635D-02 -0.339923D-01  0.111051D-01
     11  0.282650D-02 -0.426319D-01  0.425892D-01  0.405360D-02 -0.429112D-01
     12 -0.292971D-02 -0.658373D-02 -0.479836D-01 -0.732428D-02  0.519064D-02
     13 -0.309091D-01  0.340631D-03 -0.245525D-02 -0.344630D-01  0.509762D-02
     14 -0.442549D-02 -0.493431D-01 -0.419527D-01  0.116249D-01 -0.411226D-01
     15 -0.397961D-03  0.855531D-02 -0.403881D-01  0.281330D-02 -0.725248D-02
     16  0.737492D-02 -0.645300D-02  0.363955D-03 -0.443738D-01 -0.212183D-01
     17 -0.848991D-02 -0.735781D-02  0.131962D-02  0.268089D-01 -0.308502D-01
     18  0.331708D-03  0.157188D-02  0.968999D-02 -0.668094D-03 -0.144725D-02
     19 -0.391603D-01  0.166212D-01  0.226753D-02 -0.543558D-03  0.945081D-02
     20 -0.299985D-01 -0.361995D-01  0.547548D-02  0.101506D-01  0.266300D-02
     21  0.552146D-02  0.112409D-02 -0.114108D-01  0.316453D-03  0.623189D-03
                6             7             8             9            10 
      6  0.884984D-01
      7 -0.888051D-03  0.157485D+00
      8  0.323799D-02  0.148033D-01  0.102481D+00
      9 -0.101149D-01 -0.631981D-02 -0.247778D-02  0.820123D-01
     10  0.173354D-01 -0.444263D-01 -0.297591D-02  0.446096D-01  0.177508D+00
     11 -0.411200D-01 -0.573799D-02 -0.247198D-01  0.108995D-01 -0.644986D-03
     12 -0.445018D-01 -0.101854D-01 -0.347204D-02 -0.517929D-01  0.253064D-02
     13 -0.248850D-01 -0.321330D-01 -0.604097D-02 -0.363708D-01 -0.190709D-01
     14  0.365771D-01 -0.315991D-02 -0.179091D-01 -0.114792D-01  0.264484D-04
     15 -0.458001D-01  0.132999D-01  0.204351D-02 -0.330611D-01 -0.158568D-02
     16  0.166558D-02 -0.329663D-02 -0.797297D-02  0.867207D-03 -0.231259D-01
     17 -0.150325D-02 -0.898903D-02  0.666301D-02  0.529901D-03 -0.584865D-02
     18 -0.102546D-01  0.111976D-02  0.301439D-03  0.120339D-01 -0.253338D-01
     19  0.152316D-02 -0.744162D-02  0.973659D-03  0.152356D-02 -0.276801D-01
     20 -0.233056D-03  0.907222D-03  0.111113D-01 -0.303643D-03  0.169493D-02
     21  0.102781D-01  0.941497D-03  0.144322D-03  0.111152D-01 -0.339499D-01
               11            12            13            14            15 
     11  0.167217D+00
     12  0.430118D-02  0.259667D+00
     13 -0.601116D-04 -0.207961D-02  0.175813D+00
     14 -0.153214D-01 -0.198083D-02  0.231221D-02  0.176943D+00
     15 -0.217860D-02 -0.551997D-01  0.437911D-02  0.284144D-02  0.259522D+00
     16 -0.778042D-02  0.816832D-02 -0.337955D-01 -0.903018D-02 -0.651881D-02
     17 -0.250824D-01  0.851557D-02 -0.929941D-02 -0.365703D-01 -0.582693D-02
     18 -0.238656D-01 -0.303891D-01  0.299709D-01  0.313015D-01 -0.486775D-01
     19  0.734341D-02  0.118201D-01 -0.254413D-01  0.265200D-02 -0.119899D-01
     20 -0.165506D-01 -0.597079D-02  0.765003D-02 -0.166768D-01  0.181775D-02
     21  0.937430D-02 -0.298003D-01  0.314406D-01 -0.153073D-01 -0.363955D-01
               16            17            18            19            20 
     16  0.128486D+00
     17  0.267062D-01  0.137920D+00
     18 -0.517864D-02 -0.400912D-02  0.770185D-01
     19 -0.312691D-01 -0.208881D-01 -0.241838D-03  0.131536D+00
     20  0.257487D-01 -0.447221D-01 -0.385288D-02 -0.161529D-01  0.100375D+00
     21  0.632393D-03  0.974201D-03 -0.942113D-02 -0.490257D-02  0.306714D-02
               21 
     21  0.656345D-01
 Leave Link  716 at Mon Nov 13 17:00:53 2023, MaxMem=  1879048192 cpu:               0.5 elap:               0.0
 (Enter /home/sekinelabo/g16/l103.exe)

 GradGradGradGradGradGradGradGradGradGradGradGradGradGradGradGradGradGrad
 Berny optimization.
 Search for a local minimum.
 Step number   1 out of a maximum of    2
 All quantities printed in internal units (Hartrees-Bohrs-Radians)
 Second derivative matrix not updated -- first step.
 ITU=  0
     Eigenvalues ---    0.09537   0.10705   0.11657   0.13811   0.14525
     Eigenvalues ---    0.15480   0.16873   0.21109   0.22807   0.23562
     Eigenvalues ---    0.23987   0.24667   0.25687   0.28834   0.32164
 Quadratic step=3.207D-01 exceeds max=3.000D-01 adjusted using Lamda=-8.703D-03.
 Angle between NR and scaled steps=   0.73 degrees.
 Angle between quadratic step and forces=  19.01 degrees.
 Linear search not attempted -- first point.
 B after Tr=    -0.000000    0.000000    0.000000
         Rot=    1.000000    0.000000   -0.000000    0.000000 Ang=   0.00 deg.
 Variable       Old X    -DE/DX   Delta X   Delta X   Delta X     New X
                                 (Linear)    (Quad)   (Total)
    X1        5.15211   0.00022   0.00000   0.00329   0.00329   5.15540
    Y1        8.49141   0.01944   0.00000   0.13064   0.13064   8.62205
    Z1        2.59368  -0.00228   0.00000  -0.00826  -0.00826   2.58542
    X2        7.43382   0.00951   0.00000   0.06358   0.06358   7.49739
    Y2        0.00000  -0.01809   0.00000  -0.11837  -0.11837  -0.11837
    Z2        3.04433   0.00028   0.00000   0.00046   0.00046   3.04479
    X3        9.98913   0.01507   0.00000   0.12183   0.12183  10.11096
    Y3        5.24121   0.00432   0.00000   0.03442   0.03442   5.27562
    Z3        2.87303  -0.00379   0.00000  -0.01231  -0.01231   2.86072
    X4        5.61818  -0.00683   0.00000  -0.00999  -0.00999   5.60819
    Y4        4.22919  -0.00038   0.00000   0.00093   0.00093   4.23012
    Z4        5.98409   0.01936   0.00000   0.07790   0.07790   6.06199
    X5        4.77221  -0.00117   0.00000  -0.00604  -0.00604   4.76617
    Y5        3.66397   0.00190   0.00000   0.00110   0.00110   3.66507
    Z5        0.00000  -0.01859   0.00000  -0.07581  -0.07581  -0.07581
    X6        1.61619  -0.00884   0.00000  -0.07453  -0.07453   1.54166
    Y6        0.37499  -0.01147   0.00000  -0.09563  -0.09563   0.27935
    Z6        3.05594   0.00351   0.00000   0.01369   0.01369   3.06963
    X7        0.00000  -0.00796   0.00000  -0.09814  -0.09814  -0.09814
    Y7        5.92411   0.00428   0.00000   0.04692   0.04692   5.97103
    Z7        3.34909   0.00150   0.00000   0.00433   0.00433   3.35341
         Item               Value     Threshold  Converged?
 Maximum Force            0.019444     0.000450     NO 
 RMS     Force            0.010094     0.000300     NO 
 Maximum Displacement     0.130644     0.001800     NO 
 RMS     Displacement     0.065492     0.001200     NO 
 Predicted change in Energy=-6.954501D-03
 GradGradGradGradGradGradGradGradGradGradGradGradGradGradGradGradGradGrad

 Leave Link  103 at Mon Nov 13 17:00:53 2023, MaxMem=  1879048192 cpu:               0.3 elap:               0.0
 (Enter /home/sekinelabo/g16/l9999.exe)
 1\1\GINC-SEKINELABO-XA7R-R37\Force\UB3LYP\6-311+G(d)\Na7(2)\SEKINELABO
 \13-Nov-2023\0\\#P B3LYP/6-311+g(d) force\\Gaussian input prepared by 
 ASE\\0,2\Na,2.7263771555,4.4934584238,1.3725158443\Na,3.9338070528,0.,
 1.6109880331\Na,5.2860188858,2.7735268553,1.5203430638\Na,2.973011993,
 2.2379926695,3.1666455746\Na,2.5253442632,1.9388893181,0.\Na,0.8552511
 333,0.198433874,1.617133766\Na,0.,3.1349018466,1.7722605967\\Version=E
 S64L-G16RevB.01\State=2-A\HF=-1136.1082084\S2=0.75713\S2-1=0.\S2A=0.75
 0035\RMSD=5.569e-09\RMSF=1.009e-02\Dipole=-0.0535949,0.0200949,0.02102
 34\Quadrupole=6.0441348,0.0412395,-6.0853743,0.012298,-0.79323,-0.3881
 988\PG=C01 [X(Na7)]\\@


 IT'S WHAT YOU LEARN AFTER YOU KNOW IT ALL
 THAT COUNTS.
 Job cpu time:       0 days  0 hours  4 minutes 40.9 seconds.
 Elapsed time:       0 days  0 hours  0 minutes 22.7 seconds.
 File lengths (MBytes):  RWF=     32 Int=      0 D2E=      0 Chk=      5 Scr=      1
 Normal termination of Gaussian 16 at Mon Nov 13 17:00:53 2023.
