 Entering Gaussian System, Link 0=g16
 Initial command:
 /home/sekinelabo/g16/l1.exe "/home/sekinelabo/g16temp/Gau-4149971.inp" -scrdir="/home/sekinelabo/g16temp/"
 Entering Link 1 = /home/sekinelabo/g16/l1.exe PID=   4149973.
  
 Copyright (c) 1988-2017, Gaussian, Inc.  All Rights Reserved.
  
 This is part of the Gaussian(R) 16 program.  It is based on
 the Gaussian(R) 09 system (copyright 2009, Gaussian, Inc.),
 the Gaussian(R) 03 system (copyright 2003, Gaussian, Inc.),
 the Gaussian(R) 98 system (copyright 1998, Gaussian, Inc.),
 the Gaussian(R) 94 system (copyright 1995, Gaussian, Inc.),
 the Gaussian 92(TM) system (copyright 1992, Gaussian, Inc.),
 the Gaussian 90(TM) system (copyright 1990, Gaussian, Inc.),
 the Gaussian 88(TM) system (copyright 1988, Gaussian, Inc.),
 the Gaussian 86(TM) system (copyright 1986, Carnegie Mellon
 University), and the Gaussian 82(TM) system (copyright 1983,
 Carnegie Mellon University). Gaussian is a federally registered
 trademark of Gaussian, Inc.
  
 This software contains proprietary and confidential information,
 including trade secrets, belonging to Gaussian, Inc.
  
 This software is provided under written license and may be
 used, copied, transmitted, or stored only in accord with that
 written license.
  
 The following legend is applicable only to US Government
 contracts under FAR:
  
                    RESTRICTED RIGHTS LEGEND
  
 Use, reproduction and disclosure by the US Government is
 subject to restrictions as set forth in subparagraphs (a)
 and (c) of the Commercial Computer Software - Restricted
 Rights clause in FAR 52.227-19.
  
 Gaussian, Inc.
 340 Quinnipiac St., Bldg. 40, Wallingford CT 06492
  
  
 ---------------------------------------------------------------
 Warning -- This program may not be used in any manner that
 competes with the business of Gaussian, Inc. or will provide
 assistance to any competitor of Gaussian, Inc.  The licensee
 of this program is prohibited from giving any competitor of
 Gaussian, Inc. access to this program.  By using this program,
 the user acknowledges that Gaussian, Inc. is engaged in the
 business of creating and licensing software in the field of
 computational chemistry and represents and warrants to the
 licensee that it is not a competitor of Gaussian, Inc. and that
 it will not use this program in any manner prohibited above.
 ---------------------------------------------------------------
  

 Cite this work as:
 Gaussian 16, Revision B.01,
 M. J. Frisch, G. W. Trucks, H. B. Schlegel, G. E. Scuseria, 
 M. A. Robb, J. R. Cheeseman, G. Scalmani, V. Barone, 
 G. A. Petersson, H. Nakatsuji, X. Li, M. Caricato, A. V. Marenich, 
 J. Bloino, B. G. Janesko, R. Gomperts, B. Mennucci, H. P. Hratchian, 
 J. V. Ortiz, A. F. Izmaylov, J. L. Sonnenberg, D. Williams-Young, 
 F. Ding, F. Lipparini, F. Egidi, J. Goings, B. Peng, A. Petrone, 
 T. Henderson, D. Ranasinghe, V. G. Zakrzewski, J. Gao, N. Rega, 
 G. Zheng, W. Liang, M. Hada, M. Ehara, K. Toyota, R. Fukuda, 
 J. Hasegawa, M. Ishida, T. Nakajima, Y. Honda, O. Kitao, H. Nakai, 
 T. Vreven, K. Throssell, J. A. Montgomery, Jr., J. E. Peralta, 
 F. Ogliaro, M. J. Bearpark, J. J. Heyd, E. N. Brothers, K. N. Kudin, 
 V. N. Staroverov, T. A. Keith, R. Kobayashi, J. Normand, 
 K. Raghavachari, A. P. Rendell, J. C. Burant, S. S. Iyengar, 
 J. Tomasi, M. Cossi, J. M. Millam, M. Klene, C. Adamo, R. Cammi, 
 J. W. Ochterski, R. L. Martin, K. Morokuma, O. Farkas, 
 J. B. Foresman, and D. J. Fox, Gaussian, Inc., Wallingford CT, 2016.
 
 ******************************************
 Gaussian 16:  ES64L-G16RevB.01 20-Dec-2017
                13-Nov-2023 
 ******************************************
 %mem=14GB
 %chk=checkpoint.chk
 %nprocshared=16
 Will use up to   16 processors via shared memory.
 -------------------------
 #P B3LYP/6-311+g(d) force
 -------------------------
 1/10=7,30=1,38=1/1,3;
 2/12=2,17=6,18=5,40=1/2;
 3/5=4,6=6,7=11,11=2,25=1,30=1,71=1,74=-5/1,2,3;
 4//1;
 5/5=2,38=5/2;
 6/7=2,8=2,9=2,10=2,28=1/1;
 7/29=1/1,2,3,16;
 1/10=7,30=1/3;
 99//99;
 Leave Link    1 at Mon Nov 13 19:31:05 2023, MaxMem=  1879048192 cpu:               0.3 elap:               0.0
 (Enter /home/sekinelabo/g16/l101.exe)
 ------------------------------
 Gaussian input prepared by ASE
 ------------------------------
 Symbolic Z-matrix:
 Charge =  0 Multiplicity = 2
 Na                    4.3851    1.96715   3.62277 
 Na                    5.62401   0.        2.05104 
 Na                    7.00361   2.77051   2.13678 
 Na                    4.18268   3.93434   1.63102 
 Na                    4.95697   1.79018   0. 
 Na                    2.73082   1.13891   1.54182 
 Na                    0.        2.08469   1.96294 
 
 ITRead=  0  0  0  0  0  0  0
 MicOpt= -1 -1 -1 -1 -1 -1 -1
 NAtoms=      7 NQM=        7 NQMF=       0 NMMI=      0 NMMIF=      0
                NMic=       0 NMicF=      0.
                    Isotopes and Nuclear Properties:
 (Nuclear quadrupole moments (NQMom) in fm**2, nuclear magnetic moments (NMagM)
  in nuclear magnetons)

  Atom         1           2           3           4           5           6           7
 IAtWgt=          23          23          23          23          23          23          23
 AtmWgt=  22.9897697  22.9897697  22.9897697  22.9897697  22.9897697  22.9897697  22.9897697
 NucSpn=           3           3           3           3           3           3           3
 AtZEff=  -0.0000000  -0.0000000  -0.0000000  -0.0000000  -0.0000000  -0.0000000  -0.0000000
 NQMom=   10.4000000  10.4000000  10.4000000  10.4000000  10.4000000  10.4000000  10.4000000
 NMagM=    2.2175200   2.2175200   2.2175200   2.2175200   2.2175200   2.2175200   2.2175200
 AtZNuc=  11.0000000  11.0000000  11.0000000  11.0000000  11.0000000  11.0000000  11.0000000
 Leave Link  101 at Mon Nov 13 19:31:05 2023, MaxMem=  1879048192 cpu:               2.6 elap:               0.2
 (Enter /home/sekinelabo/g16/l103.exe)

 GradGradGradGradGradGradGradGradGradGradGradGradGradGradGradGradGradGrad
 Berny optimization.
 Initialization pass.
 Trust Radius=3.00D-01 FncErr=1.00D-07 GrdErr=1.00D-07 EigMax=2.50D+02 EigMin=1.00D-04
 Number of steps in this run=      2 maximum allowed number of steps=      2.
 GradGradGradGradGradGradGradGradGradGradGradGradGradGradGradGradGradGrad

 Leave Link  103 at Mon Nov 13 19:31:05 2023, MaxMem=  1879048192 cpu:               0.2 elap:               0.0
 (Enter /home/sekinelabo/g16/l202.exe)
                          Input orientation:                          
 ---------------------------------------------------------------------
 Center     Atomic      Atomic             Coordinates (Angstroms)
 Number     Number       Type             X           Y           Z
 ---------------------------------------------------------------------
      1         11           0        4.385099    1.967153    3.622767
      2         11           0        5.624014    0.000000    2.051043
      3         11           0        7.003610    2.770511    2.136781
      4         11           0        4.182684    3.934336    1.631018
      5         11           0        4.956973    1.790184    0.000000
      6         11           0        2.730821    1.138909    1.541820
      7         11           0        0.000000    2.084687    1.962939
 ---------------------------------------------------------------------
                    Distance matrix (angstroms):
                    1          2          3          4          5
     1  Na   0.000000
     2  Na   2.806228   0.000000
     3  Na   3.116109   3.096186   0.000000
     4  Na   2.806749   4.211039   3.093203   0.000000
     5  Na   3.671893   2.802941   3.116986   2.803057   0.000000
     6  Na   2.784414   3.150712   4.612248   3.151234   2.785161
     7  Na   4.690196   5.998601   7.039256   4.585436   5.339611
                    6          7
     6  Na   0.000000
     7  Na   2.920483   0.000000
 Stoichiometry    Na7(2)
 Framework group  C1[X(Na7)]
 Deg. of freedom    15
 Full point group                 C1      NOp   1
 Largest Abelian subgroup         C1      NOp   1
 Largest concise Abelian subgroup C1      NOp   1
                         Standard orientation:                         
 ---------------------------------------------------------------------
 Center     Atomic      Atomic             Coordinates (Angstroms)
 Number     Number       Type             X           Y           Z
 ---------------------------------------------------------------------
      1         11           0       -0.258927    0.012042   -1.773286
      2         11           0       -1.497842   -1.955111   -0.201562
      3         11           0       -2.877438    0.815400   -0.287300
      4         11           0       -0.056513    1.979224    0.218463
      5         11           0       -0.830801   -0.164928    1.849481
      6         11           0        1.395351   -0.816202    0.307661
      7         11           0        4.126172    0.129575   -0.113458
 ---------------------------------------------------------------------
 Rotational constants (GHZ):           1.3774937           0.5925358           0.5583504
 Leave Link  202 at Mon Nov 13 19:31:05 2023, MaxMem=  1879048192 cpu:               0.1 elap:               0.0
 (Enter /home/sekinelabo/g16/l301.exe)
 Standard basis: 6-311+G(d) (5D, 7F)
 Ernie: Thresh=  0.10000D-02 Tol=  0.10000D-05 Strict=F.
 There are   217 symmetry adapted cartesian basis functions of A   symmetry.
 There are   210 symmetry adapted basis functions of A   symmetry.
   210 basis functions,   350 primitive gaussians,   217 cartesian basis functions
    39 alpha electrons       38 beta electrons
       nuclear repulsion energy       388.2449166980 Hartrees.
 IExCor=  402 DFT=T Ex+Corr=B3LYP ExCW=0 ScaHFX=  0.200000
 ScaDFX=  0.800000  0.720000  1.000000  0.810000 ScalE2=  1.000000  1.000000
 IRadAn=      5 IRanWt=     -1 IRanGd=            0 ICorTp=0 IEmpDi=  4
 NAtoms=    7 NActive=    7 NUniq=    7 SFac= 1.00D+00 NAtFMM=   60 NAOKFM=F Big=F
 Integral buffers will be    131072 words long.
 Raffenetti 2 integral format.
 Two-electron integral symmetry is turned on.
 Leave Link  301 at Mon Nov 13 19:31:05 2023, MaxMem=  1879048192 cpu:               0.5 elap:               0.0
 (Enter /home/sekinelabo/g16/l302.exe)
 NPDir=0 NMtPBC=     1 NCelOv=     1 NCel=       1 NClECP=     1 NCelD=      1
         NCelK=      1 NCelE2=     1 NClLst=     1 CellRange=     0.0.
 One-electron integrals computed using PRISM.
 One-electron integral symmetry used in STVInt
 NBasis=   210 RedAO= T EigKep=  2.81D-06  NBF=   210
 NBsUse=   209 1.00D-06 EigRej=  9.32D-07 NBFU=   209
 Precomputing XC quadrature grid using
 IXCGrd= 4 IRadAn=           5 IRanWt=          -1 IRanGd=           0 AccXCQ= 0.00D+00.
 Generated NRdTot=       0 NPtTot=           0 NUsed=           0 NTot=          32
 NSgBfM=   210   210   210   210   210 MxSgAt=     7 MxSgA2=     7.
 Leave Link  302 at Mon Nov 13 19:31:05 2023, MaxMem=  1879048192 cpu:               2.2 elap:               0.1
 (Enter /home/sekinelabo/g16/l303.exe)
 DipDrv:  MaxL=1.
 Leave Link  303 at Mon Nov 13 19:31:05 2023, MaxMem=  1879048192 cpu:               0.6 elap:               0.0
 (Enter /home/sekinelabo/g16/l401.exe)
 ExpMin= 7.60D-03 ExpMax= 3.62D+04 ExpMxC= 1.21D+03 IAcc=3 IRadAn=         5 AccDes= 0.00D+00
 Harris functional with IExCor=  402 and IRadAn=       5 diagonalized for initial guess.
 HarFok:  IExCor=  402 AccDes= 0.00D+00 IRadAn=         5 IDoV= 1 UseB2=F ITyADJ=14
 ICtDFT=  3500011 ScaDFX=  1.000000  1.000000  1.000000  1.000000
 FoFCou: FMM=F IPFlag=           0 FMFlag=      100000 FMFlg1=           0
         NFxFlg=           0 DoJE=T BraDBF=F KetDBF=T FulRan=T
         wScrn=  0.000000 ICntrl=       500 IOpCl=  0 I1Cent=   200000004 NGrid=           0
         NMat0=    1 NMatS0=      1 NMatT0=    0 NMatD0=    1 NMtDS0=    0 NMtDT0=    0
 Petite list used in FoFCou.
 Harris En= -1135.85269496660    
 JPrj=0 DoOrth=F DoCkMO=F.
 Initial guess <Sx>= 0.0000 <Sy>= 0.0000 <Sz>= 0.5000 <S**2>= 0.7500 S= 0.5000
 Leave Link  401 at Mon Nov 13 19:31:06 2023, MaxMem=  1879048192 cpu:               4.6 elap:               0.3
 (Enter /home/sekinelabo/g16/l502.exe)
 Keep R1 and R2 ints in memory in canonical form, NReq=507620374.
 FoFCou: FMM=F IPFlag=           0 FMFlag=           0 FMFlg1=           0
         NFxFlg=           0 DoJE=F BraDBF=F KetDBF=F FulRan=T
         wScrn=  0.000000 ICntrl=       600 IOpCl=  0 I1Cent=           0 NGrid=           0
         NMat0=    1 NMatS0=  22155 NMatT0=    0 NMatD0=    1 NMtDS0=    0 NMtDT0=    0
 Symmetry not used in FoFCou.
 Two-electron integral symmetry not used.
 UHF open shell SCF:
 Using DIIS extrapolation, IDIIS=  1040.
 NGot=  1879048192 LenX=  1388082362 LenY=  1388034832
 Requested convergence on RMS density matrix=1.00D-08 within 128 cycles.
 Requested convergence on MAX density matrix=1.00D-06.
 Requested convergence on             energy=1.00D-06.
 No special actions if energy rises.

 Cycle   1  Pass 1  IDiag  1:
 E= -1136.02158699987    
 DIIS: error= 1.63D-02 at cycle   1 NSaved=   1.
 NSaved= 1 IEnMin= 1 EnMin= -1136.02158699987     IErMin= 1 ErrMin= 1.63D-02
 ErrMax= 1.63D-02  0.00D+00 EMaxC= 1.00D-01 BMatC= 2.16D-01 BMatP= 2.16D-01
 IDIUse=3 WtCom= 8.37D-01 WtEn= 1.63D-01
 Coeff-Com:  0.100D+01
 Coeff-En:   0.100D+01
 Coeff:      0.100D+01
 Gap=     0.017 Goal=   None    Shift=    0.000
 Gap=     0.030 Goal=   None    Shift=    0.000
 GapD=    0.017 DampG=0.250 DampE=0.500 DampFc=0.2500 IDamp=-1.
 Damping current iteration by 2.50D-01
 RMSDP=6.20D-02 MaxDP=6.59D+00              OVMax= 4.11D-01

 Cycle   2  Pass 1  IDiag  1:
 E= -1136.04070484920     Delta-E=       -0.019117849330 Rises=F Damp=T
 DIIS: error= 9.05D-03 at cycle   2 NSaved=   2.
 NSaved= 2 IEnMin= 2 EnMin= -1136.04070484920     IErMin= 2 ErrMin= 9.05D-03
 ErrMax= 9.05D-03  0.00D+00 EMaxC= 1.00D-01 BMatC= 7.87D-02 BMatP= 2.16D-01
 IDIUse=3 WtCom= 9.09D-01 WtEn= 9.05D-02
 Coeff-Com: -0.112D+01 0.212D+01
 Coeff-En:   0.000D+00 0.100D+01
 Coeff:     -0.102D+01 0.202D+01
 Gap=     0.047 Goal=   None    Shift=    0.000
 Gap=     0.045 Goal=   None    Shift=    0.000
 RMSDP=3.66D-02 MaxDP=3.91D+00 DE=-1.91D-02 OVMax= 4.77D-01

 Cycle   3  Pass 1  IDiag  1:
 E= -1136.05026626768     Delta-E=       -0.009561418486 Rises=F Damp=F
 DIIS: error= 8.09D-03 at cycle   3 NSaved=   3.
 NSaved= 3 IEnMin= 3 EnMin= -1136.05026626768     IErMin= 3 ErrMin= 8.09D-03
 ErrMax= 8.09D-03  0.00D+00 EMaxC= 1.00D-01 BMatC= 2.52D-02 BMatP= 7.87D-02
 IDIUse=3 WtCom= 9.19D-01 WtEn= 8.09D-02
 Coeff-Com: -0.619D+00 0.111D+01 0.507D+00
 Coeff-En:   0.000D+00 0.207D+00 0.793D+00
 Coeff:     -0.569D+00 0.104D+01 0.530D+00
 Gap=     0.032 Goal=   None    Shift=    0.000
 Gap=     0.034 Goal=   None    Shift=    0.000
 RMSDP=1.00D-02 MaxDP=6.08D-01 DE=-9.56D-03 OVMax= 3.11D-01

 Cycle   4  Pass 1  IDiag  1:
 E= -1136.06260028846     Delta-E=       -0.012334020778 Rises=F Damp=F
 DIIS: error= 6.66D-03 at cycle   4 NSaved=   4.
 NSaved= 4 IEnMin= 4 EnMin= -1136.06260028846     IErMin= 4 ErrMin= 6.66D-03
 ErrMax= 6.66D-03  0.00D+00 EMaxC= 1.00D-01 BMatC= 1.17D-02 BMatP= 2.52D-02
 IDIUse=3 WtCom= 9.33D-01 WtEn= 6.66D-02
 Coeff-Com: -0.836D-01 0.153D+00 0.389D+00 0.542D+00
 Coeff-En:   0.000D+00 0.000D+00 0.379D+00 0.621D+00
 Coeff:     -0.780D-01 0.143D+00 0.388D+00 0.547D+00
 Gap=     0.038 Goal=   None    Shift=    0.000
 Gap=     0.035 Goal=   None    Shift=    0.000
 RMSDP=7.32D-03 MaxDP=7.51D-01 DE=-1.23D-02 OVMax= 1.36D-01

 Cycle   5  Pass 1  IDiag  1:
 E= -1136.07435090264     Delta-E=       -0.011750614180 Rises=F Damp=F
 DIIS: error= 1.85D-03 at cycle   5 NSaved=   5.
 NSaved= 5 IEnMin= 5 EnMin= -1136.07435090264     IErMin= 5 ErrMin= 1.85D-03
 ErrMax= 1.85D-03  0.00D+00 EMaxC= 1.00D-01 BMatC= 1.68D-03 BMatP= 1.17D-02
 IDIUse=3 WtCom= 9.81D-01 WtEn= 1.85D-02
 Coeff-Com:  0.343D-02-0.560D-02 0.200D+00 0.348D+00 0.454D+00
 Coeff-En:   0.000D+00 0.000D+00 0.000D+00 0.940D-01 0.906D+00
 Coeff:      0.336D-02-0.550D-02 0.197D+00 0.343D+00 0.462D+00
 Gap=     0.039 Goal=   None    Shift=    0.000
 Gap=     0.034 Goal=   None    Shift=    0.000
 RMSDP=2.97D-03 MaxDP=3.56D-01 DE=-1.18D-02 OVMax= 3.52D-02

 Cycle   6  Pass 1  IDiag  1:
 E= -1136.07574448134     Delta-E=       -0.001393578694 Rises=F Damp=F
 DIIS: error= 3.56D-04 at cycle   6 NSaved=   6.
 NSaved= 6 IEnMin= 6 EnMin= -1136.07574448134     IErMin= 6 ErrMin= 3.56D-04
 ErrMax= 3.56D-04  0.00D+00 EMaxC= 1.00D-01 BMatC= 3.63D-05 BMatP= 1.68D-03
 IDIUse=3 WtCom= 9.96D-01 WtEn= 3.56D-03
 Coeff-Com:  0.338D-02-0.526D-02-0.981D-02-0.353D-01 0.797D-01 0.967D+00
 Coeff-En:   0.000D+00 0.000D+00 0.000D+00 0.000D+00 0.000D+00 0.100D+01
 Coeff:      0.337D-02-0.524D-02-0.977D-02-0.352D-01 0.794D-01 0.967D+00
 Gap=     0.039 Goal=   None    Shift=    0.000
 Gap=     0.034 Goal=   None    Shift=    0.000
 RMSDP=1.03D-03 MaxDP=9.99D-02 DE=-1.39D-03 OVMax= 9.56D-03

 Cycle   7  Pass 1  IDiag  1:
 E= -1136.07579612206     Delta-E=       -0.000051640721 Rises=F Damp=F
 DIIS: error= 8.48D-05 at cycle   7 NSaved=   7.
 NSaved= 7 IEnMin= 7 EnMin= -1136.07579612206     IErMin= 7 ErrMin= 8.48D-05
 ErrMax= 8.48D-05  0.00D+00 EMaxC= 1.00D-01 BMatC= 2.03D-06 BMatP= 3.63D-05
 IDIUse=1 WtCom= 1.00D+00 WtEn= 0.00D+00
 Coeff-Com:  0.445D-03-0.727D-03-0.661D-02-0.140D-01 0.135D-02 0.225D+00
 Coeff-Com:  0.794D+00
 Coeff:      0.445D-03-0.727D-03-0.661D-02-0.140D-01 0.135D-02 0.225D+00
 Coeff:      0.794D+00
 Gap=     0.040 Goal=   None    Shift=    0.000
 Gap=     0.034 Goal=   None    Shift=    0.000
 RMSDP=1.50D-04 MaxDP=1.59D-02 DE=-5.16D-05 OVMax= 4.47D-03

 Cycle   8  Pass 1  IDiag  1:
 E= -1136.07580174039     Delta-E=       -0.000005618332 Rises=F Damp=F
 DIIS: error= 5.01D-05 at cycle   8 NSaved=   8.
 NSaved= 8 IEnMin= 8 EnMin= -1136.07580174039     IErMin= 8 ErrMin= 5.01D-05
 ErrMax= 5.01D-05  0.00D+00 EMaxC= 1.00D-01 BMatC= 1.05D-06 BMatP= 2.03D-06
 IDIUse=1 WtCom= 1.00D+00 WtEn= 0.00D+00
 Coeff-Com: -0.239D-03 0.331D-03-0.212D-02-0.880D-03-0.134D-01-0.528D-01
 Coeff-Com:  0.416D+00 0.654D+00
 Coeff:     -0.239D-03 0.331D-03-0.212D-02-0.880D-03-0.134D-01-0.528D-01
 Coeff:      0.416D+00 0.654D+00
 Gap=     0.040 Goal=   None    Shift=    0.000
 Gap=     0.034 Goal=   None    Shift=    0.000
 RMSDP=1.04D-04 MaxDP=8.02D-03 DE=-5.62D-06 OVMax= 3.26D-03

 Cycle   9  Pass 1  IDiag  1:
 E= -1136.07580531085     Delta-E=       -0.000003570465 Rises=F Damp=F
 DIIS: error= 3.92D-05 at cycle   9 NSaved=   9.
 NSaved= 9 IEnMin= 9 EnMin= -1136.07580531085     IErMin= 9 ErrMin= 3.92D-05
 ErrMax= 3.92D-05  0.00D+00 EMaxC= 1.00D-01 BMatC= 3.30D-07 BMatP= 1.05D-06
 IDIUse=1 WtCom= 1.00D+00 WtEn= 0.00D+00
 Coeff-Com: -0.127D-03 0.191D-03 0.103D-02 0.367D-02-0.508D-02-0.925D-01
 Coeff-Com: -0.997D-01 0.176D+00 0.102D+01
 Coeff:     -0.127D-03 0.191D-03 0.103D-02 0.367D-02-0.508D-02-0.925D-01
 Coeff:     -0.997D-01 0.176D+00 0.102D+01
 Gap=     0.040 Goal=   None    Shift=    0.000
 Gap=     0.034 Goal=   None    Shift=    0.000
 RMSDP=1.23D-04 MaxDP=9.57D-03 DE=-3.57D-06 OVMax= 3.56D-03

 Cycle  10  Pass 1  IDiag  1:
 E= -1136.07580831553     Delta-E=       -0.000003004678 Rises=F Damp=F
 DIIS: error= 2.63D-05 at cycle  10 NSaved=  10.
 NSaved=10 IEnMin=10 EnMin= -1136.07580831553     IErMin=10 ErrMin= 2.63D-05
 ErrMax= 2.63D-05  0.00D+00 EMaxC= 1.00D-01 BMatC= 1.77D-07 BMatP= 3.30D-07
 IDIUse=1 WtCom= 1.00D+00 WtEn= 0.00D+00
 Coeff-Com: -0.585D-04 0.112D-03 0.224D-02 0.289D-02 0.587D-02-0.227D-01
 Coeff-Com: -0.318D+00-0.376D+00 0.550D+00 0.116D+01
 Coeff:     -0.585D-04 0.112D-03 0.224D-02 0.289D-02 0.587D-02-0.227D-01
 Coeff:     -0.318D+00-0.376D+00 0.550D+00 0.116D+01
 Gap=     0.040 Goal=   None    Shift=    0.000
 Gap=     0.034 Goal=   None    Shift=    0.000
 RMSDP=1.60D-04 MaxDP=1.54D-02 DE=-3.00D-06 OVMax= 4.56D-03

 Cycle  11  Pass 1  IDiag  1:
 E= -1136.07581073042     Delta-E=       -0.000002414891 Rises=F Damp=F
 DIIS: error= 1.37D-05 at cycle  11 NSaved=  11.
 NSaved=11 IEnMin=11 EnMin= -1136.07581073042     IErMin=11 ErrMin= 1.37D-05
 ErrMax= 1.37D-05  0.00D+00 EMaxC= 1.00D-01 BMatC= 4.20D-08 BMatP= 1.77D-07
 IDIUse=1 WtCom= 1.00D+00 WtEn= 0.00D+00
 Coeff-Com: -0.121D-03 0.158D-03-0.700D-03-0.167D-02 0.329D-02 0.480D-01
 Coeff-Com:  0.736D-01 0.130D-01-0.342D+00-0.307D+00 0.151D+01
 Coeff:     -0.121D-03 0.158D-03-0.700D-03-0.167D-02 0.329D-02 0.480D-01
 Coeff:      0.736D-01 0.130D-01-0.342D+00-0.307D+00 0.151D+01
 Gap=     0.040 Goal=   None    Shift=    0.000
 Gap=     0.034 Goal=   None    Shift=    0.000
 RMSDP=1.07D-04 MaxDP=9.56D-03 DE=-2.41D-06 OVMax= 3.02D-03

 Cycle  12  Pass 1  IDiag  1:
 E= -1136.07581158638     Delta-E=       -0.000000855960 Rises=F Damp=F
 DIIS: error= 7.05D-06 at cycle  12 NSaved=  12.
 NSaved=12 IEnMin=12 EnMin= -1136.07581158638     IErMin=12 ErrMin= 7.05D-06
 ErrMax= 7.05D-06  0.00D+00 EMaxC= 1.00D-01 BMatC= 1.83D-08 BMatP= 4.20D-08
 IDIUse=1 WtCom= 1.00D+00 WtEn= 0.00D+00
 Coeff-Com:  0.116D-03-0.163D-03-0.424D-03-0.468D-03-0.288D-02-0.372D-02
 Coeff-Com:  0.914D-01 0.111D+00-0.146D+00-0.300D+00-0.124D+00 0.138D+01
 Coeff:      0.116D-03-0.163D-03-0.424D-03-0.468D-03-0.288D-02-0.372D-02
 Coeff:      0.914D-01 0.111D+00-0.146D+00-0.300D+00-0.124D+00 0.138D+01
 Gap=     0.040 Goal=   None    Shift=    0.000
 Gap=     0.034 Goal=   None    Shift=    0.000
 RMSDP=7.40D-05 MaxDP=6.70D-03 DE=-8.56D-07 OVMax= 2.34D-03

 Cycle  13  Pass 1  IDiag  1:
 E= -1136.07581198555     Delta-E=       -0.000000399161 Rises=F Damp=F
 DIIS: error= 5.72D-06 at cycle  13 NSaved=  13.
 NSaved=13 IEnMin=13 EnMin= -1136.07581198555     IErMin=13 ErrMin= 5.72D-06
 ErrMax= 5.72D-06  0.00D+00 EMaxC= 1.00D-01 BMatC= 1.14D-08 BMatP= 1.83D-08
 IDIUse=1 WtCom= 1.00D+00 WtEn= 0.00D+00
 Coeff-Com:  0.643D-04-0.885D-04-0.925D-04 0.266D-03-0.264D-02-0.176D-01
 Coeff-Com:  0.268D-01 0.464D-01 0.381D-01-0.397D-01-0.542D+00 0.565D+00
 Coeff-Com:  0.925D+00
 Coeff:      0.643D-04-0.885D-04-0.925D-04 0.266D-03-0.264D-02-0.176D-01
 Coeff:      0.268D-01 0.464D-01 0.381D-01-0.397D-01-0.542D+00 0.565D+00
 Coeff:      0.925D+00
 Gap=     0.040 Goal=   None    Shift=    0.000
 Gap=     0.034 Goal=   None    Shift=    0.000
 RMSDP=4.48D-05 MaxDP=3.84D-03 DE=-3.99D-07 OVMax= 1.54D-03

 Cycle  14  Pass 1  IDiag  1:
 E= -1136.07581217181     Delta-E=       -0.000000186267 Rises=F Damp=F
 DIIS: error= 5.02D-06 at cycle  14 NSaved=  14.
 NSaved=14 IEnMin=14 EnMin= -1136.07581217181     IErMin=14 ErrMin= 5.02D-06
 ErrMax= 5.02D-06  0.00D+00 EMaxC= 1.00D-01 BMatC= 7.99D-09 BMatP= 1.14D-08
 IDIUse=1 WtCom= 1.00D+00 WtEn= 0.00D+00
 Coeff-Com: -0.758D-04 0.107D-03 0.192D-03 0.527D-03 0.434D-03-0.908D-02
 Coeff-Com: -0.524D-01-0.634D-01 0.147D+00 0.217D+00-0.282D+00-0.806D+00
 Coeff-Com:  0.777D+00 0.107D+01
 Coeff:     -0.758D-04 0.107D-03 0.192D-03 0.527D-03 0.434D-03-0.908D-02
 Coeff:     -0.524D-01-0.634D-01 0.147D+00 0.217D+00-0.282D+00-0.806D+00
 Coeff:      0.777D+00 0.107D+01
 Gap=     0.040 Goal=   None    Shift=    0.000
 Gap=     0.034 Goal=   None    Shift=    0.000
 RMSDP=6.08D-05 MaxDP=5.59D-03 DE=-1.86D-07 OVMax= 2.11D-03

 Cycle  15  Pass 1  IDiag  1:
 E= -1136.07581235257     Delta-E=       -0.000000180758 Rises=F Damp=F
 DIIS: error= 3.80D-06 at cycle  15 NSaved=  15.
 NSaved=15 IEnMin=15 EnMin= -1136.07581235257     IErMin=15 ErrMin= 3.80D-06
 ErrMax= 3.80D-06  0.00D+00 EMaxC= 1.00D-01 BMatC= 2.83D-09 BMatP= 7.99D-09
 IDIUse=1 WtCom= 1.00D+00 WtEn= 0.00D+00
 Coeff-Com: -0.362D-05 0.605D-05 0.150D-03-0.180D-04 0.101D-02 0.562D-02
 Coeff-Com: -0.138D-01-0.160D-01-0.592D-02 0.291D-02 0.248D+00-0.258D+00
 Coeff-Com: -0.420D+00-0.377D-01 0.149D+01
 Coeff:     -0.362D-05 0.605D-05 0.150D-03-0.180D-04 0.101D-02 0.562D-02
 Coeff:     -0.138D-01-0.160D-01-0.592D-02 0.291D-02 0.248D+00-0.258D+00
 Coeff:     -0.420D+00-0.377D-01 0.149D+01
 Gap=     0.040 Goal=   None    Shift=    0.000
 Gap=     0.034 Goal=   None    Shift=    0.000
 RMSDP=4.80D-05 MaxDP=4.85D-03 DE=-1.81D-07 OVMax= 1.64D-03

 Cycle  16  Pass 1  IDiag  1:
 E= -1136.07581244395     Delta-E=       -0.000000091375 Rises=F Damp=F
 DIIS: error= 2.44D-06 at cycle  16 NSaved=  16.
 NSaved=16 IEnMin=16 EnMin= -1136.07581244395     IErMin=16 ErrMin= 2.44D-06
 ErrMax= 2.44D-06  0.00D+00 EMaxC= 1.00D-01 BMatC= 1.29D-09 BMatP= 2.83D-09
 IDIUse=1 WtCom= 1.00D+00 WtEn= 0.00D+00
 Coeff-Com:  0.196D-04-0.287D-04-0.661D-04-0.261D-03 0.128D-03 0.525D-02
 Coeff-Com:  0.191D-01 0.202D-01-0.605D-01-0.718D-01 0.950D-01 0.325D+00
 Coeff-Com: -0.212D+00-0.452D+00-0.343D+00 0.168D+01
 Coeff:      0.196D-04-0.287D-04-0.661D-04-0.261D-03 0.128D-03 0.525D-02
 Coeff:      0.191D-01 0.202D-01-0.605D-01-0.718D-01 0.950D-01 0.325D+00
 Coeff:     -0.212D+00-0.452D+00-0.343D+00 0.168D+01
 Gap=     0.040 Goal=   None    Shift=    0.000
 Gap=     0.034 Goal=   None    Shift=    0.000
 RMSDP=3.63D-05 MaxDP=3.67D-03 DE=-9.14D-08 OVMax= 1.23D-03

 Cycle  17  Pass 1  IDiag  1:
 E= -1136.07581248887     Delta-E=       -0.000000044926 Rises=F Damp=F
 DIIS: error= 1.31D-06 at cycle  17 NSaved=  17.
 NSaved=17 IEnMin=17 EnMin= -1136.07581248887     IErMin=17 ErrMin= 1.31D-06
 ErrMax= 1.31D-06  0.00D+00 EMaxC= 1.00D-01 BMatC= 6.34D-10 BMatP= 1.29D-09
 IDIUse=1 WtCom= 1.00D+00 WtEn= 0.00D+00
 Coeff-Com:  0.600D-05-0.999D-05-0.137D-03-0.969D-04-0.416D-03-0.394D-03
 Coeff-Com:  0.135D-01 0.113D-01-0.175D-01-0.283D-01-0.668D-01 0.216D+00
 Coeff-Com:  0.164D+00-0.179D+00-0.859D+00 0.584D+00 0.116D+01
 Coeff:      0.600D-05-0.999D-05-0.137D-03-0.969D-04-0.416D-03-0.394D-03
 Coeff:      0.135D-01 0.113D-01-0.175D-01-0.283D-01-0.668D-01 0.216D+00
 Coeff:      0.164D+00-0.179D+00-0.859D+00 0.584D+00 0.116D+01
 Gap=     0.040 Goal=   None    Shift=    0.000
 Gap=     0.034 Goal=   None    Shift=    0.000
 RMSDP=2.38D-05 MaxDP=2.30D-03 DE=-4.49D-08 OVMax= 8.17D-04

 Cycle  18  Pass 1  IDiag  1:
 E= -1136.07581250646     Delta-E=       -0.000000017586 Rises=F Damp=F
 DIIS: error= 9.51D-07 at cycle  18 NSaved=  18.
 NSaved=18 IEnMin=18 EnMin= -1136.07581250646     IErMin=18 ErrMin= 9.51D-07
 ErrMax= 9.51D-07  0.00D+00 EMaxC= 1.00D-01 BMatC= 2.06D-10 BMatP= 6.34D-10
 IDIUse=1 WtCom= 1.00D+00 WtEn= 0.00D+00
 Coeff-Com:  0.948D-06 0.326D-06 0.153D-04 0.828D-04-0.195D-03-0.303D-02
 Coeff-Com: -0.810D-02-0.818D-02 0.270D-01 0.343D-01-0.586D-01-0.126D+00
 Coeff-Com:  0.135D+00 0.176D+00 0.257D-01-0.566D+00-0.634D-01 0.144D+01
 Coeff:      0.948D-06 0.326D-06 0.153D-04 0.828D-04-0.195D-03-0.303D-02
 Coeff:     -0.810D-02-0.818D-02 0.270D-01 0.343D-01-0.586D-01-0.126D+00
 Coeff:      0.135D+00 0.176D+00 0.257D-01-0.566D+00-0.634D-01 0.144D+01
 Gap=     0.040 Goal=   None    Shift=    0.000
 Gap=     0.035 Goal=   None    Shift=    0.000
 RMSDP=1.32D-05 MaxDP=1.15D-03 DE=-1.76D-08 OVMax= 4.88D-04

 Cycle  19  Pass 1  IDiag  1:
 E= -1136.07581251229     Delta-E=       -0.000000005835 Rises=F Damp=F
 DIIS: error= 6.94D-07 at cycle  19 NSaved=  19.
 NSaved=19 IEnMin=19 EnMin= -1136.07581251229     IErMin=19 ErrMin= 6.94D-07
 ErrMax= 6.94D-07  0.00D+00 EMaxC= 1.00D-01 BMatC= 8.21D-11 BMatP= 2.06D-10
 IDIUse=1 WtCom= 1.00D+00 WtEn= 0.00D+00
 Coeff-Com: -0.379D-05 0.462D-05 0.364D-04-0.276D-04 0.307D-03 0.229D-02
 Coeff-Com:  0.165D-03 0.192D-02-0.125D-01-0.105D-01 0.576D-01-0.587D-03
 Coeff-Com: -0.136D+00-0.248D-01 0.289D+00 0.270D-01-0.329D+00-0.533D+00
 Coeff-Com:  0.167D+01
 Coeff:     -0.379D-05 0.462D-05 0.364D-04-0.276D-04 0.307D-03 0.229D-02
 Coeff:      0.165D-03 0.192D-02-0.125D-01-0.105D-01 0.576D-01-0.587D-03
 Coeff:     -0.136D+00-0.248D-01 0.289D+00 0.270D-01-0.329D+00-0.533D+00
 Coeff:      0.167D+01
 Gap=     0.040 Goal=   None    Shift=    0.000
 Gap=     0.035 Goal=   None    Shift=    0.000
 RMSDP=5.48D-06 MaxDP=3.99D-04 DE=-5.84D-09 OVMax= 2.67D-04

 Cycle  20  Pass 1  IDiag  1:
 E= -1136.07581251432     Delta-E=       -0.000000002028 Rises=F Damp=F
 DIIS: error= 4.88D-07 at cycle  20 NSaved=  20.
 NSaved=20 IEnMin=20 EnMin= -1136.07581251432     IErMin=20 ErrMin= 4.88D-07
 ErrMax= 4.88D-07  0.00D+00 EMaxC= 1.00D-01 BMatC= 4.04D-11 BMatP= 8.21D-11
 IDIUse=1 WtCom= 1.00D+00 WtEn= 0.00D+00
 Coeff-Com:  0.341D-05-0.466D-05-0.174D-04 0.228D-04-0.179D-03-0.118D-02
 Coeff-Com:  0.175D-02 0.794D-03 0.379D-02-0.961D-03-0.361D-01 0.595D-01
 Coeff-Com:  0.523D-01-0.384D-01-0.274D+00 0.258D+00 0.303D+00-0.341D+00
 Coeff-Com: -0.113D+01 0.214D+01
 Coeff:      0.341D-05-0.466D-05-0.174D-04 0.228D-04-0.179D-03-0.118D-02
 Coeff:      0.175D-02 0.794D-03 0.379D-02-0.961D-03-0.361D-01 0.595D-01
 Coeff:      0.523D-01-0.384D-01-0.274D+00 0.258D+00 0.303D+00-0.341D+00
 Coeff:     -0.113D+01 0.214D+01
 Gap=     0.040 Goal=   None    Shift=    0.000
 Gap=     0.035 Goal=   None    Shift=    0.000
 RMSDP=3.73D-06 MaxDP=2.25D-04 DE=-2.03D-09 OVMax= 2.51D-04

 Cycle  21  Pass 1  IDiag  1:
 E= -1136.07581251555     Delta-E=       -0.000000001227 Rises=F Damp=F
 DIIS: error= 2.65D-07 at cycle  21 NSaved=  20.
 NSaved=20 IEnMin=20 EnMin= -1136.07581251555     IErMin=20 ErrMin= 2.65D-07
 ErrMax= 2.65D-07  0.00D+00 EMaxC= 1.00D-01 BMatC= 1.44D-11 BMatP= 4.04D-11
 IDIUse=1 WtCom= 1.00D+00 WtEn= 0.00D+00
 Coeff-Com:  0.632D-06-0.219D-04 0.669D-05-0.153D-03-0.945D-03 0.289D-03
 Coeff-Com: -0.479D-03 0.407D-02 0.325D-02-0.214D-01 0.528D-03 0.479D-01
 Coeff-Com:  0.179D-01-0.107D+00-0.484D-01 0.120D+00 0.366D+00-0.942D+00
 Coeff-Com: -0.526D-02 0.156D+01
 Coeff:      0.632D-06-0.219D-04 0.669D-05-0.153D-03-0.945D-03 0.289D-03
 Coeff:     -0.479D-03 0.407D-02 0.325D-02-0.214D-01 0.528D-03 0.479D-01
 Coeff:      0.179D-01-0.107D+00-0.484D-01 0.120D+00 0.366D+00-0.942D+00
 Coeff:     -0.526D-02 0.156D+01
 Gap=     0.040 Goal=   None    Shift=    0.000
 Gap=     0.035 Goal=   None    Shift=    0.000
 RMSDP=3.23D-06 MaxDP=2.40D-04 DE=-1.23D-09 OVMax= 2.06D-04

 Cycle  22  Pass 1  IDiag  1:
 E= -1136.07581251602     Delta-E=       -0.000000000470 Rises=F Damp=F
 DIIS: error= 8.21D-08 at cycle  22 NSaved=  20.
 NSaved=20 IEnMin=20 EnMin= -1136.07581251602     IErMin=20 ErrMin= 8.21D-08
 ErrMax= 8.21D-08  0.00D+00 EMaxC= 1.00D-01 BMatC= 3.30D-12 BMatP= 1.44D-11
 IDIUse=1 WtCom= 1.00D+00 WtEn= 0.00D+00
 Coeff-Com: -0.522D-05-0.311D-05-0.155D-04 0.464D-04 0.196D-03-0.100D-03
 Coeff-Com: -0.456D-03 0.275D-03 0.301D-03-0.618D-02 0.196D-02 0.988D-02
 Coeff-Com:  0.190D-01-0.577D-01-0.284D-01 0.173D+00 0.584D-02-0.551D+00
 Coeff-Com:  0.485D+00 0.948D+00
 Coeff:     -0.522D-05-0.311D-05-0.155D-04 0.464D-04 0.196D-03-0.100D-03
 Coeff:     -0.456D-03 0.275D-03 0.301D-03-0.618D-02 0.196D-02 0.988D-02
 Coeff:      0.190D-01-0.577D-01-0.284D-01 0.173D+00 0.584D-02-0.551D+00
 Coeff:      0.485D+00 0.948D+00
 Gap=     0.040 Goal=   None    Shift=    0.000
 Gap=     0.035 Goal=   None    Shift=    0.000
 RMSDP=9.52D-07 MaxDP=7.41D-05 DE=-4.70D-10 OVMax= 6.13D-05

 Cycle  23  Pass 1  IDiag  1:
 E= -1136.07581251606     Delta-E=       -0.000000000039 Rises=F Damp=F
 DIIS: error= 3.43D-08 at cycle  23 NSaved=  20.
 NSaved=20 IEnMin=20 EnMin= -1136.07581251606     IErMin=20 ErrMin= 3.43D-08
 ErrMax= 3.43D-08  0.00D+00 EMaxC= 1.00D-01 BMatC= 3.80D-13 BMatP= 3.30D-12
 IDIUse=1 WtCom= 1.00D+00 WtEn= 0.00D+00
 Coeff-Com: -0.468D-05 0.101D-04 0.994D-04 0.444D-04 0.150D-03-0.673D-03
 Coeff-Com: -0.428D-03 0.378D-02-0.416D-02-0.607D-02 0.339D-02 0.224D-01
 Coeff-Com: -0.131D-01-0.281D-01-0.156D-02 0.138D+00-0.129D+00-0.130D+00
 Coeff-Com:  0.155D+00 0.992D+00
 Coeff:     -0.468D-05 0.101D-04 0.994D-04 0.444D-04 0.150D-03-0.673D-03
 Coeff:     -0.428D-03 0.378D-02-0.416D-02-0.607D-02 0.339D-02 0.224D-01
 Coeff:     -0.131D-01-0.281D-01-0.156D-02 0.138D+00-0.129D+00-0.130D+00
 Coeff:      0.155D+00 0.992D+00
 Gap=     0.040 Goal=   None    Shift=    0.000
 Gap=     0.035 Goal=   None    Shift=    0.000
 RMSDP=2.19D-07 MaxDP=1.17D-05 DE=-3.91D-11 OVMax= 1.64D-05

 Cycle  24  Pass 1  IDiag  1:
 E= -1136.07581251605     Delta-E=        0.000000000004 Rises=F Damp=F
 DIIS: error= 1.41D-08 at cycle  24 NSaved=  20.
 NSaved=20 IEnMin=19 EnMin= -1136.07581251606     IErMin=20 ErrMin= 1.41D-08
 ErrMax= 1.41D-08  0.00D+00 EMaxC= 1.00D-01 BMatC= 6.10D-14 BMatP= 3.80D-13
 IDIUse=1 WtCom= 1.00D+00 WtEn= 0.00D+00
 Coeff-Com:  0.224D-05 0.203D-05 0.527D-04 0.146D-03-0.152D-03-0.339D-03
 Coeff-Com:  0.215D-03 0.154D-02-0.836D-03-0.200D-02-0.230D-02 0.842D-02
 Coeff-Com:  0.505D-02-0.278D-01 0.101D-01 0.721D-01-0.855D-01-0.122D+00
 Coeff-Com:  0.672D-01 0.108D+01
 Coeff:      0.224D-05 0.203D-05 0.527D-04 0.146D-03-0.152D-03-0.339D-03
 Coeff:      0.215D-03 0.154D-02-0.836D-03-0.200D-02-0.230D-02 0.842D-02
 Coeff:      0.505D-02-0.278D-01 0.101D-01 0.721D-01-0.855D-01-0.122D+00
 Coeff:      0.672D-01 0.108D+01
 Gap=     0.040 Goal=   None    Shift=    0.000
 Gap=     0.035 Goal=   None    Shift=    0.000
 RMSDP=5.53D-08 MaxDP=4.32D-06 DE= 4.09D-12 OVMax= 2.50D-06

 Cycle  25  Pass 1  IDiag  1:
 E= -1136.07581251606     Delta-E=       -0.000000000003 Rises=F Damp=F
 DIIS: error= 6.26D-09 at cycle  25 NSaved=  20.
 NSaved=20 IEnMin=18 EnMin= -1136.07581251606     IErMin=20 ErrMin= 6.26D-09
 ErrMax= 6.26D-09  0.00D+00 EMaxC= 1.00D-01 BMatC= 1.09D-14 BMatP= 6.10D-14
 IDIUse=1 WtCom= 1.00D+00 WtEn= 0.00D+00
 Coeff-Com:  0.524D-05 0.729D-05-0.529D-05-0.260D-04-0.264D-04-0.115D-03
 Coeff-Com:  0.799D-03 0.105D-03-0.108D-02-0.210D-02 0.301D-02 0.419D-02
 Coeff-Com: -0.605D-02-0.164D-01 0.319D-01 0.102D-01-0.534D-01-0.175D+00
 Coeff-Com:  0.184D+00 0.102D+01
 Coeff:      0.524D-05 0.729D-05-0.529D-05-0.260D-04-0.264D-04-0.115D-03
 Coeff:      0.799D-03 0.105D-03-0.108D-02-0.210D-02 0.301D-02 0.419D-02
 Coeff:     -0.605D-02-0.164D-01 0.319D-01 0.102D-01-0.534D-01-0.175D+00
 Coeff:      0.184D+00 0.102D+01
 Gap=     0.040 Goal=   None    Shift=    0.000
 Gap=     0.035 Goal=   None    Shift=    0.000
 RMSDP=2.61D-08 MaxDP=1.81D-06 DE=-3.18D-12 OVMax= 8.55D-07

 Cycle  26  Pass 1  IDiag  1:
 E= -1136.07581251604     Delta-E=        0.000000000016 Rises=F Damp=F
 DIIS: error= 1.97D-09 at cycle  26 NSaved=  20.
 NSaved=20 IEnMin=17 EnMin= -1136.07581251606     IErMin=20 ErrMin= 1.97D-09
 ErrMax= 1.97D-09  0.00D+00 EMaxC= 1.00D-01 BMatC= 1.09D-15 BMatP= 1.09D-14
 IDIUse=1 WtCom= 1.00D+00 WtEn= 0.00D+00
 Large coefficients: NSaved= 20 BigCof=    0.00 CofMax=   10.00 Det=-3.77D-15
 Inversion failed.  Reducing to 19 matrices.
 Large coefficients: NSaved= 19 BigCof=    0.00 CofMax=   10.00 Det=-3.90D-15
 Inversion failed.  Reducing to 18 matrices.
 Large coefficients: NSaved= 18 BigCof=    0.00 CofMax=   10.00 Det=-3.91D-15
 Inversion failed.  Reducing to 17 matrices.
 Large coefficients: NSaved= 17 BigCof=    0.00 CofMax=   10.00 Det=-3.91D-15
 Inversion failed.  Reducing to 16 matrices.
 Large coefficients: NSaved= 16 BigCof=    0.00 CofMax=   10.00 Det=-3.94D-15
 Inversion failed.  Reducing to 15 matrices.
 Coeff-Com: -0.990D-05 0.599D-04 0.422D-04-0.775D-04-0.208D-03-0.184D-03
 Coeff-Com:  0.164D-02-0.213D-02-0.332D-02 0.736D-02 0.504D-02-0.147D-01
 Coeff-Com: -0.682D-01 0.389D-01 0.104D+01
 Coeff:     -0.990D-05 0.599D-04 0.422D-04-0.775D-04-0.208D-03-0.184D-03
 Coeff:      0.164D-02-0.213D-02-0.332D-02 0.736D-02 0.504D-02-0.147D-01
 Coeff:     -0.682D-01 0.389D-01 0.104D+01
 Gap=     0.040 Goal=   None    Shift=    0.000
 Gap=     0.035 Goal=   None    Shift=    0.000
 RMSDP=8.25D-09 MaxDP=5.36D-07 DE= 1.64D-11 OVMax= 3.41D-07

 SCF Done:  E(UB3LYP) =  -1136.07581252     A.U. after   26 cycles
            NFock= 26  Conv=0.82D-08     -V/T= 2.0024
 <Sx>= 0.0000 <Sy>= 0.0000 <Sz>= 0.5000 <S**2>= 0.7693 S= 0.5096
 <L.S>= 0.000000000000E+00
 KE= 1.133361387464D+03 PE=-3.505780004191D+03 EE= 8.480978875130D+02
 Annihilation of the first spin contaminant:
 S**2 before annihilation     0.7693,   after     0.7502
 Leave Link  502 at Mon Nov 13 19:31:27 2023, MaxMem=  1879048192 cpu:             244.3 elap:              20.9
 (Enter /home/sekinelabo/g16/l601.exe)
 Copying SCF densities to generalized density rwf, IOpCl= 1 IROHF=0.

 **********************************************************************

            Population analysis using the SCF Density.

 **********************************************************************

 Orbital symmetries:
 Alpha Orbitals:
       Occupied  (A) (A) (A) (A) (A) (A) (A) (A) (A) (A) (A) (A)
                 (A) (A) (A) (A) (A) (A) (A) (A) (A) (A) (A) (A)
                 (A) (A) (A) (A) (A) (A) (A) (A) (A) (A) (A) (A)
                 (A) (A) (A)
       Virtual   (A) (A) (A) (A) (A) (A) (A) (A) (A) (A) (A) (A)
                 (A) (A) (A) (A) (A) (A) (A) (A) (A) (A) (A) (A)
                 (A) (A) (A) (A) (A) (A) (A) (A) (A) (A) (A) (A)
                 (A) (A) (A) (A) (A) (A) (A) (A) (A) (A) (A) (A)
                 (A) (A) (A) (A) (A) (A) (A) (A) (A) (A) (A) (A)
                 (A) (A) (A) (A) (A) (A) (A) (A) (A) (A) (A) (A)
                 (A) (A) (A) (A) (A) (A) (A) (A) (A) (A) (A) (A)
                 (A) (A) (A) (A) (A) (A) (A) (A) (A) (A) (A) (A)
                 (A) (A) (A) (A) (A) (A) (A) (A) (A) (A) (A) (A)
                 (A) (A) (A) (A) (A) (A) (A) (A) (A) (A) (A) (A)
                 (A) (A) (A) (A) (A) (A) (A) (A) (A) (A) (A) (A)
                 (A) (A) (A) (A) (A) (A) (A) (A) (A) (A) (A) (A)
                 (A) (A) (A) (A) (A) (A) (A) (A) (A) (A) (A) (A)
                 (A) (A) (A) (A) (A) (A) (A) (A) (A) (A) (A) (A)
                 (A) (A)
 Beta  Orbitals:
       Occupied  (A) (A) (A) (A) (A) (A) (A) (A) (A) (A) (A) (A)
                 (A) (A) (A) (A) (A) (A) (A) (A) (A) (A) (A) (A)
                 (A) (A) (A) (A) (A) (A) (A) (A) (A) (A) (A) (A)
                 (A) (A)
       Virtual   (A) (A) (A) (A) (A) (A) (A) (A) (A) (A) (A) (A)
                 (A) (A) (A) (A) (A) (A) (A) (A) (A) (A) (A) (A)
                 (A) (A) (A) (A) (A) (A) (A) (A) (A) (A) (A) (A)
                 (A) (A) (A) (A) (A) (A) (A) (A) (A) (A) (A) (A)
                 (A) (A) (A) (A) (A) (A) (A) (A) (A) (A) (A) (A)
                 (A) (A) (A) (A) (A) (A) (A) (A) (A) (A) (A) (A)
                 (A) (A) (A) (A) (A) (A) (A) (A) (A) (A) (A) (A)
                 (A) (A) (A) (A) (A) (A) (A) (A) (A) (A) (A) (A)
                 (A) (A) (A) (A) (A) (A) (A) (A) (A) (A) (A) (A)
                 (A) (A) (A) (A) (A) (A) (A) (A) (A) (A) (A) (A)
                 (A) (A) (A) (A) (A) (A) (A) (A) (A) (A) (A) (A)
                 (A) (A) (A) (A) (A) (A) (A) (A) (A) (A) (A) (A)
                 (A) (A) (A) (A) (A) (A) (A) (A) (A) (A) (A) (A)
                 (A) (A) (A) (A) (A) (A) (A) (A) (A) (A) (A) (A)
                 (A) (A) (A)
 The electronic state is 2-A.
 Alpha  occ. eigenvalues --  -38.46177 -38.44735 -38.44614 -38.44378 -38.43287
 Alpha  occ. eigenvalues --  -38.42812 -38.42554  -2.21956  -2.20924  -2.20628
 Alpha  occ. eigenvalues --   -2.20587  -2.19473  -2.18911  -2.18671  -1.15676
 Alpha  occ. eigenvalues --   -1.15601  -1.15580  -1.14724  -1.14587  -1.14562
 Alpha  occ. eigenvalues --   -1.14385  -1.14372  -1.14275  -1.14250  -1.14220
 Alpha  occ. eigenvalues --   -1.14143  -1.13207  -1.13145  -1.13003  -1.12642
 Alpha  occ. eigenvalues --   -1.12587  -1.12440  -1.12370  -1.12331  -1.12256
 Alpha  occ. eigenvalues --   -0.20965  -0.13979  -0.12009  -0.11532
 Alpha virt. eigenvalues --   -0.07573  -0.03703  -0.03542  -0.03459  -0.02785
 Alpha virt. eigenvalues --   -0.02437  -0.02349  -0.00730  -0.00437  -0.00020
 Alpha virt. eigenvalues --    0.00302   0.00383   0.00463   0.00849   0.01093
 Alpha virt. eigenvalues --    0.01195   0.01369   0.01484   0.01524   0.01572
 Alpha virt. eigenvalues --    0.01734   0.01828   0.01889   0.01952   0.02026
 Alpha virt. eigenvalues --    0.02162   0.02481   0.02544   0.02698   0.02780
 Alpha virt. eigenvalues --    0.02903   0.02987   0.03130   0.03295   0.03485
 Alpha virt. eigenvalues --    0.03522   0.03693   0.03777   0.03999   0.04074
 Alpha virt. eigenvalues --    0.04311   0.04413   0.05003   0.05511   0.05692
 Alpha virt. eigenvalues --    0.05750   0.05857   0.05985   0.06049   0.06328
 Alpha virt. eigenvalues --    0.06410   0.06930   0.07107   0.07360   0.07449
 Alpha virt. eigenvalues --    0.08135   0.08527   0.08638   0.09517   0.09870
 Alpha virt. eigenvalues --    0.10088   0.10464   0.10815   0.12038   0.12924
 Alpha virt. eigenvalues --    0.13458   0.13828   0.13981   0.14196   0.14445
 Alpha virt. eigenvalues --    0.14689   0.14886   0.15267   0.16566   0.16829
 Alpha virt. eigenvalues --    0.17124   0.17948   0.18297   0.18915   0.21750
 Alpha virt. eigenvalues --    0.23604   0.26331   0.27369   0.28370   0.29407
 Alpha virt. eigenvalues --    0.33512   0.33765   0.33954   0.34596   0.36014
 Alpha virt. eigenvalues --    0.36188   0.36874   0.38237   0.39037   0.39621
 Alpha virt. eigenvalues --    0.40271   0.40853   0.41028   0.42260   0.42931
 Alpha virt. eigenvalues --    0.43817   0.44317   0.44933   0.45238   0.45538
 Alpha virt. eigenvalues --    0.46742   0.47303   0.47639   0.48225   0.48879
 Alpha virt. eigenvalues --    0.49673   0.49917   0.50711   0.51264   0.51639
 Alpha virt. eigenvalues --    0.52393   0.53807   0.54722   0.55071   0.55478
 Alpha virt. eigenvalues --    0.57897   0.59111   0.61408   0.63437   0.64510
 Alpha virt. eigenvalues --    0.66484   0.67705   0.72196   0.75407   0.76234
 Alpha virt. eigenvalues --    0.79211   0.80157   0.82687   0.84329   0.85631
 Alpha virt. eigenvalues --    2.10420   2.16850   2.25680   2.28403   2.29076
 Alpha virt. eigenvalues --    2.31266   2.34402   4.41026   4.41367   4.41871
 Alpha virt. eigenvalues --    4.42118   4.42819   4.43636   4.44462   4.45346
 Alpha virt. eigenvalues --    4.46461   4.51731   4.52765   4.54914   4.61086
 Alpha virt. eigenvalues --    4.65383   4.68803   4.69882   4.77947   4.78364
 Alpha virt. eigenvalues --    4.78834   4.80943   4.90145  96.32027  96.39081
 Alpha virt. eigenvalues --   96.52946  96.56820  96.57559  96.60652  96.64211
  Beta  occ. eigenvalues --  -38.46194 -38.44646 -38.44595 -38.44274 -38.43263
  Beta  occ. eigenvalues --  -38.42789 -38.42536  -2.21989  -2.20763  -2.20598
  Beta  occ. eigenvalues --   -2.20399  -2.19437  -2.18876  -2.18646  -1.15699
  Beta  occ. eigenvalues --   -1.15620  -1.15602  -1.14626  -1.14470  -1.14452
  Beta  occ. eigenvalues --   -1.14321  -1.14257  -1.14226  -1.14209  -1.14091
  Beta  occ. eigenvalues --   -1.14029  -1.13194  -1.13049  -1.12988  -1.12626
  Beta  occ. eigenvalues --   -1.12500  -1.12422  -1.12363  -1.12268  -1.12226
  Beta  occ. eigenvalues --   -0.20082  -0.13812  -0.11173
  Beta virt. eigenvalues --   -0.07723  -0.07442  -0.03581  -0.03256  -0.02931
  Beta virt. eigenvalues --   -0.02587  -0.01594  -0.01523  -0.00712  -0.00192
  Beta virt. eigenvalues --    0.00025   0.00312   0.00438   0.00603   0.00908
  Beta virt. eigenvalues --    0.01093   0.01251   0.01369   0.01565   0.01629
  Beta virt. eigenvalues --    0.01689   0.01802   0.01868   0.01935   0.02051
  Beta virt. eigenvalues --    0.02091   0.02206   0.02521   0.02631   0.02738
  Beta virt. eigenvalues --    0.02768   0.02905   0.02996   0.03154   0.03326
  Beta virt. eigenvalues --    0.03493   0.03528   0.03793   0.03916   0.04259
  Beta virt. eigenvalues --    0.04288   0.04422   0.04525   0.05110   0.05583
  Beta virt. eigenvalues --    0.05885   0.05919   0.06025   0.06102   0.06171
  Beta virt. eigenvalues --    0.06461   0.06519   0.07105   0.07120   0.07498
  Beta virt. eigenvalues --    0.07627   0.08210   0.08527   0.08672   0.09602
  Beta virt. eigenvalues --    0.10143   0.10513   0.10832   0.11148   0.12252
  Beta virt. eigenvalues --    0.13004   0.13551   0.14112   0.14192   0.14517
  Beta virt. eigenvalues --    0.14596   0.14861   0.15278   0.15683   0.16735
  Beta virt. eigenvalues --    0.16964   0.17352   0.18193   0.18471   0.19057
  Beta virt. eigenvalues --    0.22579   0.24210   0.26564   0.28004   0.28954
  Beta virt. eigenvalues --    0.29612   0.33594   0.33781   0.34535   0.34823
  Beta virt. eigenvalues --    0.36045   0.36415   0.37107   0.38636   0.39277
  Beta virt. eigenvalues --    0.39721   0.40482   0.41104   0.41240   0.42510
  Beta virt. eigenvalues --    0.43183   0.43839   0.44638   0.45196   0.45541
  Beta virt. eigenvalues --    0.45677   0.46872   0.47506   0.47982   0.48468
  Beta virt. eigenvalues --    0.49074   0.49747   0.50068   0.51025   0.51359
  Beta virt. eigenvalues --    0.51787   0.52871   0.54218   0.55023   0.55249
  Beta virt. eigenvalues --    0.55845   0.58163   0.59320   0.61675   0.63442
  Beta virt. eigenvalues --    0.64806   0.66927   0.67695   0.72212   0.75726
  Beta virt. eigenvalues --    0.76521   0.79375   0.80540   0.82916   0.84525
  Beta virt. eigenvalues --    0.85899   2.10350   2.16954   2.25752   2.28676
  Beta virt. eigenvalues --    2.29147   2.31674   2.34450   4.41153   4.41408
  Beta virt. eigenvalues --    4.41905   4.42223   4.42879   4.43649   4.44462
  Beta virt. eigenvalues --    4.45434   4.46511   4.51811   4.52881   4.55008
  Beta virt. eigenvalues --    4.61106   4.65416   4.68902   4.69942   4.78059
  Beta virt. eigenvalues --    4.78506   4.78932   4.80987   4.90183  96.32005
  Beta virt. eigenvalues --   96.39122  96.52966  96.56856  96.57653  96.60787
  Beta virt. eigenvalues --   96.64238
          Condensed to atoms (all electrons):
               1          2          3          4          5          6
     1  Na  11.953991  -0.257164  -0.701070   0.099693  -0.620130   0.620461
     2  Na  -0.257164  13.056723   1.048566  -0.563427  -0.044332  -2.127324
     3  Na  -0.701070   1.048566  13.643896  -0.589397  -0.195764  -2.306543
     4  Na   0.099693  -0.563427  -0.589397  11.934748   0.191130  -0.110049
     5  Na  -0.620130  -0.044332  -0.195764   0.191130  11.892009   0.490847
     6  Na   0.620461  -2.127324  -2.306543  -0.110049   0.490847  14.030765
     7  Na   0.229223  -0.042991  -0.131089   0.045846  -0.154006   0.090301
               7
     1  Na   0.229223
     2  Na  -0.042991
     3  Na  -0.131089
     4  Na   0.045846
     5  Na  -0.154006
     6  Na   0.090301
     7  Na  10.542309
          Atomic-Atomic Spin Densities.
               1          2          3          4          5          6
     1  Na   0.524821   0.231870   0.074236  -0.002529  -0.237880  -0.205099
     2  Na   0.231870  -0.351351  -0.287731  -0.017058   0.025307   0.474879
     3  Na   0.074236  -0.287731  -0.247285  -0.090061   0.105308   0.488532
     4  Na  -0.002529  -0.017058  -0.090061   0.039884   0.034610   0.033604
     5  Na  -0.237880   0.025307   0.105308   0.034610   0.468388   0.057670
     6  Na  -0.205099   0.474879   0.488532   0.033604   0.057670  -0.578862
     7  Na   0.126512  -0.008458  -0.015222  -0.029807  -0.132594  -0.096898
               7
     1  Na   0.126512
     2  Na  -0.008458
     3  Na  -0.015222
     4  Na  -0.029807
     5  Na  -0.132594
     6  Na  -0.096898
     7  Na   0.086023
 Mulliken charges and spin densities:
               1          2
     1  Na  -0.325003   0.511932
     2  Na  -0.070051   0.067457
     3  Na   0.231402   0.027776
     4  Na  -0.008543  -0.031356
     5  Na  -0.559754   0.320809
     6  Na   0.311542   0.173826
     7  Na   0.420408  -0.070444
 Sum of Mulliken charges =  -0.00000   1.00000
 Mulliken charges and spin densities with hydrogens summed into heavy atoms:
               1          2
     1  Na  -0.325003   0.511932
     2  Na  -0.070051   0.067457
     3  Na   0.231402   0.027776
     4  Na  -0.008543  -0.031356
     5  Na  -0.559754   0.320809
     6  Na   0.311542   0.173826
     7  Na   0.420408  -0.070444
 Electronic spatial extent (au):  <R**2>=           1956.8769
 Charge=             -0.0000 electrons
 Dipole moment (field-independent basis, Debye):
    X=              0.9783    Y=              0.3722    Z=             -0.1518  Tot=              1.0576
 Quadrupole moment (field-independent basis, Debye-Ang):
   XX=            -42.7589   YY=            -78.3903   ZZ=            -69.1637
   XY=              1.6002   XZ=             -0.4379   YZ=              0.1086
 Traceless Quadrupole moment (field-independent basis, Debye-Ang):
   XX=             20.6787   YY=            -14.9527   ZZ=             -5.7261
   XY=              1.6002   XZ=             -0.4379   YZ=              0.1086
 Octapole moment (field-independent basis, Debye-Ang**2):
  XXX=             59.2651  YYY=              1.5341  ZZZ=              0.1653  XYY=              2.3238
  XXY=              9.8691  XXZ=             -4.8958  XZZ=             -0.7701  YZZ=             -0.4816
  YYZ=             -0.2505  XYZ=             -0.1513
 Hexadecapole moment (field-independent basis, Debye-Ang**3):
 XXXX=          -1190.5827 YYYY=           -919.7435 ZZZZ=           -641.2197 XXXY=             -5.1106
 XXXZ=              0.0616 YYYX=             37.4433 YYYZ=             11.7141 ZZZX=            -16.7971
 ZZZY=             -4.1794 XXYY=           -479.1552 XXZZ=           -449.9508 YYZZ=           -292.0715
 XXYZ=             -6.1108 YYXZ=              6.2701 ZZXY=              2.1743
 N-N= 3.882449166980D+02 E-N=-3.505780004308D+03  KE= 1.133361387464D+03
                          Isotropic Fermi Contact Couplings
        Atom                 a.u.       MegaHertz       Gauss      10(-4) cm-1
     1  Na(23)             0.35636     421.58566     150.43225     140.62584
     2  Na(23)            -0.00922     -10.91204      -3.89369      -3.63987
     3  Na(23)             0.01707      20.19660       7.20665       6.73686
     4  Na(23)             0.01175      13.90406       4.96131       4.63789
     5  Na(23)             0.42600     503.96673     179.82786     168.10521
     6  Na(23)             0.02514      29.73986      10.61192       9.92015
     7  Na(23)            -0.08098     -95.79922     -34.18354     -31.95518
 --------------------------------------------------------
       Center         ----  Spin Dipole Couplings  ----
                      3XX-RR        3YY-RR        3ZZ-RR
 --------------------------------------------------------
     1   Atom        0.015816      0.002126     -0.017942
     2   Atom       -0.031186     -0.032857      0.064043
     3   Atom       -0.024408     -0.024396      0.048804
     4   Atom       -0.032647     -0.030885      0.063532
     5   Atom        0.010799      0.010937     -0.021735
     6   Atom       -0.045204     -0.025628      0.070831
     7   Atom        0.001783     -0.004205      0.002422
 --------------------------------------------------------
                        XY            XZ            YZ
 --------------------------------------------------------
     1   Atom        0.003994      0.009200      0.004902
     2   Atom       -0.004201      0.002970     -0.014628
     3   Atom       -0.000403     -0.011915      0.008821
     4   Atom       -0.003985     -0.002273     -0.017156
     5   Atom        0.006284      0.001706     -0.001268
     6   Atom       -0.009565     -0.027510      0.007285
     7   Atom       -0.000429      0.001373      0.000561
 --------------------------------------------------------


 ---------------------------------------------------------------------------------
              Anisotropic Spin Dipole Couplings in Principal Axis System
 ---------------------------------------------------------------------------------

       Atom             a.u.   MegaHertz   Gauss  10(-4) cm-1        Axes

              Baa    -0.0209    -2.954    -1.054    -0.985 -0.2226 -0.1658  0.9607
     1 Na(23) Bbb     0.0013     0.177     0.063     0.059 -0.3158  0.9445  0.0898
              Bcc     0.0197     2.777     0.991     0.926  0.9223  0.2834  0.2626
 
              Baa    -0.0373    -5.270    -1.881    -1.758  0.5262  0.8437  0.1063
     2 Na(23) Bbb    -0.0290    -4.097    -1.462    -1.367  0.8496 -0.5163 -0.1083
              Bcc     0.0663     9.367     3.342     3.125  0.0365 -0.1473  0.9884
 
              Baa    -0.0269    -3.802    -1.357    -1.268  0.8211 -0.5375  0.1918
     3 Na(23) Bbb    -0.0248    -3.499    -1.249    -1.167  0.5495  0.8354 -0.0112
              Bcc     0.0517     7.302     2.605     2.436 -0.1542  0.1146  0.9814
 
              Baa    -0.0377    -5.317    -1.897    -1.773  0.6551  0.7423  0.1406
     4 Na(23) Bbb    -0.0289    -4.085    -1.458    -1.363  0.7554 -0.6474 -0.1016
              Bcc     0.0666     9.402     3.355     3.136 -0.0156 -0.1727  0.9848
 
              Baa    -0.0219    -3.093    -1.104    -1.032 -0.0617  0.0503  0.9968
     5 Na(23) Bbb     0.0048     0.671     0.239     0.224  0.7074 -0.7023  0.0792
              Bcc     0.0172     2.422     0.864     0.808  0.7041  0.7101  0.0077
 
              Baa    -0.0536    -7.567    -2.700    -2.524  0.9427  0.2724  0.1925
     6 Na(23) Bbb    -0.0243    -3.426    -1.223    -1.143 -0.2472  0.9581 -0.1449
              Bcc     0.0778    10.993     3.923     3.667 -0.2239  0.0890  0.9705
 
              Baa    -0.0043    -0.608    -0.217    -0.203  0.0928  0.9905 -0.1015
     7 Na(23) Bbb     0.0008     0.111     0.040     0.037  0.7812 -0.1356 -0.6094
              Bcc     0.0035     0.496     0.177     0.166  0.6173  0.0228  0.7864
 

 ---------------------------------------------------------------------------------

 No NMR shielding tensors so no spin-rotation constants.
 Leave Link  601 at Mon Nov 13 19:31:27 2023, MaxMem=  1879048192 cpu:               2.5 elap:               0.2
 (Enter /home/sekinelabo/g16/l701.exe)
 ... and contract with generalized density number  0.
 Compute integral first derivatives.
 Leave Link  701 at Mon Nov 13 19:31:27 2023, MaxMem=  1879048192 cpu:               1.8 elap:               0.1
 (Enter /home/sekinelabo/g16/l702.exe)
 L702 exits ... SP integral derivatives will be done elsewhere.
 Leave Link  702 at Mon Nov 13 19:31:27 2023, MaxMem=  1879048192 cpu:               0.5 elap:               0.0
 (Enter /home/sekinelabo/g16/l703.exe)
 Integral derivatives from FoFJK, PRISM(SPDF).
 Compute integral first derivatives, UseDBF=F ICtDFT=           0.
 Calling FoFJK, ICntrl=      2127 FMM=F ISym2X=0 I1Cent= 0 IOpClX= 1 NMat=1 NMatS=1 NMatT=0.
 FoFJK:  IHMeth= 1 ICntrl=    2127 DoSepK=F KAlg= 0 I1Cent=           0 FoldK=F
 IRaf=         0 NMat=       1 IRICut=       1 DoRegI=T DoRafI=F ISym2E= 0 IDoP0=0 IntGTp=1.
 FoFCou: FMM=F IPFlag=           0 FMFlag=      100000 FMFlg1=         800
         NFxFlg=           0 DoJE=F BraDBF=F KetDBF=F FulRan=T
         wScrn=  0.000000 ICntrl=      2127 IOpCl=  1 I1Cent=           0 NGrid=           0
         NMat0=    1 NMatS0=      1 NMatT0=    0 NMatD0=    1 NMtDS0=    0 NMtDT0=    0
 Symmetry not used in FoFCou.
 Leave Link  703 at Mon Nov 13 19:31:30 2023, MaxMem=  1879048192 cpu:              36.5 elap:               2.3
 (Enter /home/sekinelabo/g16/l716.exe)
 Dipole        = 3.84880852D-01 1.46417797D-01-5.97179627D-02
 ***** Axes restored to original set *****
 -------------------------------------------------------------------
 Center     Atomic                   Forces (Hartrees/Bohr)
 Number     Number              X              Y              Z
 -------------------------------------------------------------------
      1       11          -0.001997002    0.002467384    0.023240734
      2       11           0.007616387   -0.025113615    0.002302989
      3       11           0.009867237    0.007645009    0.002135601
      4       11          -0.006879493    0.025043810   -0.001745967
      5       11           0.006304825   -0.000520508   -0.023558336
      6       11          -0.013655214   -0.013122358   -0.004030043
      7       11          -0.001256740    0.003600278    0.001655022
 -------------------------------------------------------------------
 Cartesian Forces:  Max     0.025113615 RMS     0.012089649
 Z-matrix is all fixed cartesians, so copy forces.
 Force constants in Cartesian coordinates: 
                1             2             3             4             5 
      1  0.150497D+00
      2 -0.271641D-02  0.143234D+00
      3 -0.169109D-01  0.440367D-02  0.217876D+00
      4 -0.345846D-01  0.154592D-01  0.137170D-02  0.112473D+00
      5  0.607301D-02 -0.477871D-01  0.649767D-02 -0.245060D-01  0.175027D+00
      6  0.241853D-01 -0.422688D-01 -0.410249D-01  0.158928D-02 -0.801624D-02
      7 -0.380968D-01 -0.917497D-02 -0.110836D-01 -0.236401D-01  0.161099D-01
      8 -0.361879D-02 -0.182493D-01 -0.591138D-02 -0.322688D-01 -0.439436D-01
      9  0.393211D-01  0.127678D-01 -0.318943D-01 -0.674083D-03  0.440592D-02
     10 -0.301030D-01 -0.197909D-02  0.715220D-02  0.142006D-01  0.147057D-01
     11  0.836236D-02 -0.444884D-01 -0.316202D-02  0.884741D-02 -0.133840D-01
     12 -0.864241D-02  0.481543D-01 -0.502166D-01 -0.278127D-03  0.373644D-02
     13  0.671028D-03  0.555792D-03  0.678538D-02 -0.275695D-01  0.615138D-02
     14 -0.814202D-04  0.307683D-02 -0.179856D-02  0.200232D-02 -0.434762D-01
     15  0.451158D-02 -0.130046D-02 -0.350155D-01  0.301257D-02 -0.360609D-02
     16 -0.465640D-01 -0.375946D-02  0.118812D-01 -0.413734D-01 -0.202821D-01
     17 -0.592598D-02 -0.385835D-01 -0.579694D-03  0.283260D-01 -0.312591D-01
     18 -0.353631D-01 -0.259464D-01 -0.637029D-01 -0.342187D-02 -0.352246D-02
     19 -0.181993D-02  0.161491D-02  0.804021D-03  0.494449D-03  0.174806D-02
     20 -0.209277D-02  0.279729D-02  0.550316D-03  0.213984D-02  0.482258D-02
     21 -0.710157D-02  0.418984D-02  0.397788D-02 -0.159946D-02  0.504750D-03
                6             7             8             9            10 
      6  0.108650D+00
      7 -0.306851D-02  0.141499D+00
      8 -0.343225D-02  0.210158D-01  0.947951D-01
      9 -0.927599D-02  0.933248D-02  0.237593D-02  0.771292D-01
     10 -0.508111D-03 -0.397727D-01  0.349259D-01 -0.659636D-02  0.117200D+00
     11  0.265786D-02 -0.135065D-01 -0.273738D-01 -0.121002D-02 -0.283900D-01
     12  0.132530D-01 -0.419690D-02  0.647692D-02 -0.100064D-01  0.238892D-02
     13 -0.196150D-01 -0.294346D-01 -0.838914D-02 -0.380162D-01 -0.323862D-01
     14  0.451988D-01 -0.357454D-02 -0.188917D-01 -0.164636D-01  0.122450D-01
     15 -0.514706D-01  0.121940D-01  0.290869D-02 -0.396735D-01 -0.281558D-02
     16 -0.368331D-02 -0.103024D-01 -0.123209D-01 -0.338505D-02 -0.263584D-01
     17  0.723229D-02 -0.102291D-01  0.119973D-01 -0.190782D-02 -0.236643D-01
     18 -0.303484D-01 -0.297538D-02 -0.293002D-02  0.136748D-01  0.792571D-03
     19  0.110040D-02 -0.252997D-03  0.655929D-03  0.181325D-04 -0.278017D-02
     20 -0.137169D-02 -0.640553D-03  0.166589D-02  0.317265D-04 -0.784325D-02
     21  0.102164D-01 -0.202007D-03  0.512116D-03  0.463302D-04 -0.413629D-03
               11            12            13            14            15 
     11  0.173825D+00
     12 -0.719956D-02  0.101617D+00
     13  0.817505D-02  0.129705D-01  0.147463D+00
     14 -0.487857D-01 -0.471939D-01 -0.277701D-02  0.147401D+00
     15  0.577578D-02 -0.443895D-01 -0.555552D-02  0.311384D-02  0.222768D+00
     16  0.150759D-01 -0.249608D-02 -0.592704D-01 -0.997136D-02 -0.130187D-01
     17 -0.438441D-01 -0.466525D-02 -0.246041D-02 -0.471515D-01 -0.838488D-02
     18  0.292617D-02 -0.103529D-01  0.371949D-01  0.207341D-01 -0.597053D-01
     19  0.143583D-02  0.254060D-03  0.526753D-03  0.215698D-02  0.167167D-02
     20  0.405151D-02  0.691042D-03 -0.125566D-02  0.782683D-02  0.149312D-02
     21  0.211779D-03  0.955085D-04  0.623588D-02 -0.359070D-02  0.748693D-02
               16            17            18            19            20 
     16  0.220471D+00
     17  0.171639D-01  0.198483D+00
     18  0.609994D-02  0.123943D-01  0.199509D+00
     19 -0.366028D-01 -0.321013D-02 -0.232714D-02  0.404347D-01
     20  0.140940D-01 -0.496419D-01 -0.365571D-02 -0.440159D-02  0.284778D-01
     21  0.460194D-02 -0.408898D-02 -0.490742D-01 -0.152115D-02  0.226120D-02
               21 
     21  0.272511D-01
 Leave Link  716 at Mon Nov 13 19:31:30 2023, MaxMem=  1879048192 cpu:               0.5 elap:               0.0
 (Enter /home/sekinelabo/g16/l103.exe)

 GradGradGradGradGradGradGradGradGradGradGradGradGradGradGradGradGradGrad
 Berny optimization.
 Search for a local minimum.
 Step number   1 out of a maximum of    2
 All quantities printed in internal units (Hartrees-Bohrs-Radians)
 Second derivative matrix not updated -- first step.
 ITU=  0
     Eigenvalues ---    0.03843   0.04711   0.05328   0.15111   0.15373
     Eigenvalues ---    0.16329   0.18276   0.21534   0.21833   0.23384
     Eigenvalues ---    0.24738   0.25878   0.26144   0.29221   0.31296
 Quadratic step=3.325D-01 exceeds max=3.000D-01 adjusted using Lamda=-1.271D-02.
 Angle between NR and scaled steps=   4.20 degrees.
 Angle between quadratic step and forces=  18.79 degrees.
 Linear search not attempted -- first point.
 B after Tr=     0.000000    0.000000    0.000000
         Rot=    1.000000    0.000000    0.000000    0.000000 Ang=   0.00 deg.
 Variable       Old X    -DE/DX   Delta X   Delta X   Delta X     New X
                                 (Linear)    (Quad)   (Total)
    X1        8.28664  -0.00200   0.00000  -0.00679  -0.00679   8.27985
    Y1        3.71738   0.00247   0.00000  -0.00271  -0.00271   3.71468
    Z1        6.84604   0.02324   0.00000   0.09456   0.09456   6.94060
    X2       10.62785   0.00762   0.00000   0.05939   0.05939  10.68723
    Y2        0.00000  -0.02511   0.00000  -0.13659  -0.13659  -0.13659
    Z2        3.87591   0.00230   0.00000   0.00903   0.00903   3.88494
    X3       13.23490   0.00987   0.00000   0.09109   0.09109  13.32599
    Y3        5.23551   0.00765   0.00000   0.06310   0.06310   5.29860
    Z3        4.03793   0.00214   0.00000   0.02207   0.02207   4.06001
    X4        7.90413  -0.00688   0.00000  -0.02942  -0.02942   7.87471
    Y4        7.43482   0.02504   0.00000   0.12367   0.12367   7.55849
    Z4        3.08218  -0.00175   0.00000  -0.01611  -0.01611   3.06607
    X5        9.36732   0.00630   0.00000   0.03825   0.03825   9.40557
    Y5        3.38296  -0.00052   0.00000  -0.01314  -0.01314   3.36982
    Z5        0.00000  -0.02356   0.00000  -0.10534  -0.10534  -0.10534
    X6        5.16050  -0.01366   0.00000  -0.07545  -0.07545   5.08505
    Y6        2.15223  -0.01312   0.00000  -0.06184  -0.06184   2.09039
    Z6        2.91362  -0.00403   0.00000  -0.01988  -0.01988   2.89373
    X7        0.00000  -0.00126   0.00000  -0.07707  -0.07707  -0.07707
    Y7        3.93949   0.00360   0.00000   0.02750   0.02750   3.96699
    Z7        3.70942   0.00166   0.00000   0.01566   0.01566   3.72507
         Item               Value     Threshold  Converged?
 Maximum Force            0.025114     0.000450     NO 
 RMS     Force            0.012090     0.000300     NO 
 Maximum Displacement     0.136589     0.001800     NO 
 RMS     Displacement     0.065477     0.001200     NO 
 Predicted change in Energy=-8.440988D-03
 GradGradGradGradGradGradGradGradGradGradGradGradGradGradGradGradGradGrad

 Leave Link  103 at Mon Nov 13 19:31:30 2023, MaxMem=  1879048192 cpu:               0.3 elap:               0.0
 (Enter /home/sekinelabo/g16/l9999.exe)
 1\1\GINC-SEKINELABO-XA7R-R37\Force\UB3LYP\6-311+G(d)\Na7(2)\SEKINELABO
 \13-Nov-2023\0\\#P B3LYP/6-311+g(d) force\\Gaussian input prepared by 
 ASE\\0,2\Na,4.3850988243,1.9671528892,3.6227666471\Na,5.6240140103,0.,
 2.0510429616\Na,7.0036098469,2.770511478,2.1367812804\Na,4.1826844632,
 3.9343356563,1.6310179961\Na,4.9569729927,1.7901835542,0.\Na,2.7308207
 932,1.1389092917,1.541820135\Na,0.,2.0846867392,1.9629387815\\Version=
 ES64L-G16RevB.01\State=2-A\HF=-1136.0758125\S2=0.769347\S2-1=0.\S2A=0.
 750211\RMSD=8.248e-09\RMSF=1.209e-02\Dipole=-0.3848809,0.1464178,0.059
 718\Quadrupole=15.3741332,-11.1169315,-4.2572017,-1.1897108,-0.3255518
 ,-0.0807409\PG=C01 [X(Na7)]\\@


 FROM WHENCE IT HAPPENS, THAT THEY WHICH TRUST TO BOOKS, DO AS THEY THAT CAST UP MANY LITTLE SUMMS INTO GREATER,
 WITHOUT CONSIDERING WETHER THOSE LITTLE SUMMES WERE RIGHTLY CAST UP OR NOT...
 AND AT LAST FINDING THE ERROUR VISIBLE, AND NOT MISTRUSTING THEIR FIRST GROUNDS,
 KNOW NOT WHICH WAY TO CLEERE THEMSELVES...
 BUT SPEND TIME IN FLUTTERING OVER THEIR BOOKES....
 AS BIRDS THAT ENTERING BY THE CHIMNEY, AND FINDING THEMSELVES INCLOSED IN A CHAMBER,
 FLUTTER AT THE FALSE LIGHT OF A GLASSE WINDOW,
 FOR WANT OF WIT TO CONSIDER WHICH WAY THEY CAME IN....
           LEVIATHAN
 Job cpu time:       0 days  0 hours  4 minutes 58.2 seconds.
 Elapsed time:       0 days  0 hours  0 minutes 24.4 seconds.
 File lengths (MBytes):  RWF=     32 Int=      0 D2E=      0 Chk=      6 Scr=      1
 Normal termination of Gaussian 16 at Mon Nov 13 19:31:30 2023.
