 Entering Gaussian System, Link 0=g16
 Initial command:
 /home/sekinelabo/g16/l1.exe "/home/sekinelabo/g16temp/Gau-4076750.inp" -scrdir="/home/sekinelabo/g16temp/"
 Entering Link 1 = /home/sekinelabo/g16/l1.exe PID=   4076752.
  
 Copyright (c) 1988-2017, Gaussian, Inc.  All Rights Reserved.
  
 This is part of the Gaussian(R) 16 program.  It is based on
 the Gaussian(R) 09 system (copyright 2009, Gaussian, Inc.),
 the Gaussian(R) 03 system (copyright 2003, Gaussian, Inc.),
 the Gaussian(R) 98 system (copyright 1998, Gaussian, Inc.),
 the Gaussian(R) 94 system (copyright 1995, Gaussian, Inc.),
 the Gaussian 92(TM) system (copyright 1992, Gaussian, Inc.),
 the Gaussian 90(TM) system (copyright 1990, Gaussian, Inc.),
 the Gaussian 88(TM) system (copyright 1988, Gaussian, Inc.),
 the Gaussian 86(TM) system (copyright 1986, Carnegie Mellon
 University), and the Gaussian 82(TM) system (copyright 1983,
 Carnegie Mellon University). Gaussian is a federally registered
 trademark of Gaussian, Inc.
  
 This software contains proprietary and confidential information,
 including trade secrets, belonging to Gaussian, Inc.
  
 This software is provided under written license and may be
 used, copied, transmitted, or stored only in accord with that
 written license.
  
 The following legend is applicable only to US Government
 contracts under FAR:
  
                    RESTRICTED RIGHTS LEGEND
  
 Use, reproduction and disclosure by the US Government is
 subject to restrictions as set forth in subparagraphs (a)
 and (c) of the Commercial Computer Software - Restricted
 Rights clause in FAR 52.227-19.
  
 Gaussian, Inc.
 340 Quinnipiac St., Bldg. 40, Wallingford CT 06492
  
  
 ---------------------------------------------------------------
 Warning -- This program may not be used in any manner that
 competes with the business of Gaussian, Inc. or will provide
 assistance to any competitor of Gaussian, Inc.  The licensee
 of this program is prohibited from giving any competitor of
 Gaussian, Inc. access to this program.  By using this program,
 the user acknowledges that Gaussian, Inc. is engaged in the
 business of creating and licensing software in the field of
 computational chemistry and represents and warrants to the
 licensee that it is not a competitor of Gaussian, Inc. and that
 it will not use this program in any manner prohibited above.
 ---------------------------------------------------------------
  

 Cite this work as:
 Gaussian 16, Revision B.01,
 M. J. Frisch, G. W. Trucks, H. B. Schlegel, G. E. Scuseria, 
 M. A. Robb, J. R. Cheeseman, G. Scalmani, V. Barone, 
 G. A. Petersson, H. Nakatsuji, X. Li, M. Caricato, A. V. Marenich, 
 J. Bloino, B. G. Janesko, R. Gomperts, B. Mennucci, H. P. Hratchian, 
 J. V. Ortiz, A. F. Izmaylov, J. L. Sonnenberg, D. Williams-Young, 
 F. Ding, F. Lipparini, F. Egidi, J. Goings, B. Peng, A. Petrone, 
 T. Henderson, D. Ranasinghe, V. G. Zakrzewski, J. Gao, N. Rega, 
 G. Zheng, W. Liang, M. Hada, M. Ehara, K. Toyota, R. Fukuda, 
 J. Hasegawa, M. Ishida, T. Nakajima, Y. Honda, O. Kitao, H. Nakai, 
 T. Vreven, K. Throssell, J. A. Montgomery, Jr., J. E. Peralta, 
 F. Ogliaro, M. J. Bearpark, J. J. Heyd, E. N. Brothers, K. N. Kudin, 
 V. N. Staroverov, T. A. Keith, R. Kobayashi, J. Normand, 
 K. Raghavachari, A. P. Rendell, J. C. Burant, S. S. Iyengar, 
 J. Tomasi, M. Cossi, J. M. Millam, M. Klene, C. Adamo, R. Cammi, 
 J. W. Ochterski, R. L. Martin, K. Morokuma, O. Farkas, 
 J. B. Foresman, and D. J. Fox, Gaussian, Inc., Wallingford CT, 2016.
 
 ******************************************
 Gaussian 16:  ES64L-G16RevB.01 20-Dec-2017
                13-Nov-2023 
 ******************************************
 %mem=14GB
 %chk=checkpoint.chk
 %nprocshared=16
 Will use up to   16 processors via shared memory.
 -------------------------
 #P B3LYP/6-311+g(d) force
 -------------------------
 1/10=7,30=1,38=1/1,3;
 2/12=2,17=6,18=5,40=1/2;
 3/5=4,6=6,7=11,11=2,25=1,30=1,71=1,74=-5/1,2,3;
 4//1;
 5/5=2,38=5/2;
 6/7=2,8=2,9=2,10=2,28=1/1;
 7/29=1/1,2,3,16;
 1/10=7,30=1/3;
 99//99;
 Leave Link    1 at Mon Nov 13 17:17:48 2023, MaxMem=  1879048192 cpu:               0.3 elap:               0.0
 (Enter /home/sekinelabo/g16/l101.exe)
 ------------------------------
 Gaussian input prepared by ASE
 ------------------------------
 Symbolic Z-matrix:
 Charge =  0 Multiplicity = 2
 Na                    1.88639   1.36199   0. 
 Na                    0.        0.        1.89638 
 Na                    1.8172    3.86915   1.65316 
 Na                    2.53397   1.24017   2.91489 
 Na                    4.69815   0.78076   0.88584 
 Na                    6.5793    2.98683   1.65933 
 Na                    7.50754   0.13687   1.71293 
 
 ITRead=  0  0  0  0  0  0  0
 MicOpt= -1 -1 -1 -1 -1 -1 -1
 NAtoms=      7 NQM=        7 NQMF=       0 NMMI=      0 NMMIF=      0
                NMic=       0 NMicF=      0.
                    Isotopes and Nuclear Properties:
 (Nuclear quadrupole moments (NQMom) in fm**2, nuclear magnetic moments (NMagM)
  in nuclear magnetons)

  Atom         1           2           3           4           5           6           7
 IAtWgt=          23          23          23          23          23          23          23
 AtmWgt=  22.9897697  22.9897697  22.9897697  22.9897697  22.9897697  22.9897697  22.9897697
 NucSpn=           3           3           3           3           3           3           3
 AtZEff=  -0.0000000  -0.0000000  -0.0000000  -0.0000000  -0.0000000  -0.0000000  -0.0000000
 NQMom=   10.4000000  10.4000000  10.4000000  10.4000000  10.4000000  10.4000000  10.4000000
 NMagM=    2.2175200   2.2175200   2.2175200   2.2175200   2.2175200   2.2175200   2.2175200
 AtZNuc=  11.0000000  11.0000000  11.0000000  11.0000000  11.0000000  11.0000000  11.0000000
 Leave Link  101 at Mon Nov 13 17:17:48 2023, MaxMem=  1879048192 cpu:               2.5 elap:               0.2
 (Enter /home/sekinelabo/g16/l103.exe)

 GradGradGradGradGradGradGradGradGradGradGradGradGradGradGradGradGradGrad
 Berny optimization.
 Initialization pass.
 Trust Radius=3.00D-01 FncErr=1.00D-07 GrdErr=1.00D-07 EigMax=2.50D+02 EigMin=1.00D-04
 Number of steps in this run=      2 maximum allowed number of steps=      2.
 GradGradGradGradGradGradGradGradGradGradGradGradGradGradGradGradGradGrad

 Leave Link  103 at Mon Nov 13 17:17:48 2023, MaxMem=  1879048192 cpu:               0.4 elap:               0.0
 (Enter /home/sekinelabo/g16/l202.exe)
                          Input orientation:                          
 ---------------------------------------------------------------------
 Center     Atomic      Atomic             Coordinates (Angstroms)
 Number     Number       Type             X           Y           Z
 ---------------------------------------------------------------------
      1         11           0        1.886388    1.361987    0.000000
      2         11           0        0.000000    0.000000    1.896380
      3         11           0        1.817198    3.869149    1.653159
      4         11           0        2.533969    1.240167    2.914887
      5         11           0        4.698154    0.780759    0.885838
      6         11           0        6.579303    2.986833    1.659331
      7         11           0        7.507544    0.136866    1.712928
 ---------------------------------------------------------------------
                    Distance matrix (angstroms):
                    1          2          3          4          5
     1  Na   0.000000
     2  Na   3.001620   0.000000
     3  Na   3.003928   4.281551   0.000000
     4  Na   2.988439   2.999395   3.002877   0.000000
     5  Na   3.004757   4.868617   4.292650   3.001965   0.000000
     6  Na   5.236120   7.229425   4.843157   4.581701   3.000628
     7  Na   6.002702   7.511032   6.805406   5.234350   2.998557
                    6          7
     6  Na   0.000000
     7  Na   2.997801   0.000000
 Stoichiometry    Na7(2)
 Framework group  C1[X(Na7)]
 Deg. of freedom    15
 Full point group                 C1      NOp   1
 Largest Abelian subgroup         C1      NOp   1
 Largest concise Abelian subgroup C1      NOp   1
                         Standard orientation:                         
 ---------------------------------------------------------------------
 Center     Atomic      Atomic             Coordinates (Angstroms)
 Number     Number       Type             X           Y           Z
 ---------------------------------------------------------------------
      1         11           0        1.688263   -0.120265    1.531789
      2         11           0        3.574651   -1.482252   -0.364591
      3         11           0        1.757453    2.386898   -0.121370
      4         11           0        1.040682   -0.242085   -1.383098
      5         11           0       -1.123503   -0.701492    0.645951
      6         11           0       -3.004652    1.504581   -0.127542
      7         11           0       -3.932893   -1.345385   -0.181139
 ---------------------------------------------------------------------
 Rotational constants (GHZ):           1.2628946           0.4358965           0.3784184
 Leave Link  202 at Mon Nov 13 17:17:48 2023, MaxMem=  1879048192 cpu:               0.6 elap:               0.0
 (Enter /home/sekinelabo/g16/l301.exe)
 Standard basis: 6-311+G(d) (5D, 7F)
 Ernie: Thresh=  0.10000D-02 Tol=  0.10000D-05 Strict=F.
 There are   217 symmetry adapted cartesian basis functions of A   symmetry.
 There are   210 symmetry adapted basis functions of A   symmetry.
   210 basis functions,   350 primitive gaussians,   217 cartesian basis functions
    39 alpha electrons       38 beta electrons
       nuclear repulsion energy       345.5733090865 Hartrees.
 IExCor=  402 DFT=T Ex+Corr=B3LYP ExCW=0 ScaHFX=  0.200000
 ScaDFX=  0.800000  0.720000  1.000000  0.810000 ScalE2=  1.000000  1.000000
 IRadAn=      5 IRanWt=     -1 IRanGd=            0 ICorTp=0 IEmpDi=  4
 NAtoms=    7 NActive=    7 NUniq=    7 SFac= 1.00D+00 NAtFMM=   60 NAOKFM=F Big=F
 Integral buffers will be    131072 words long.
 Raffenetti 2 integral format.
 Two-electron integral symmetry is turned on.
 Leave Link  301 at Mon Nov 13 17:17:49 2023, MaxMem=  1879048192 cpu:               0.5 elap:               0.0
 (Enter /home/sekinelabo/g16/l302.exe)
 NPDir=0 NMtPBC=     1 NCelOv=     1 NCel=       1 NClECP=     1 NCelD=      1
         NCelK=      1 NCelE2=     1 NClLst=     1 CellRange=     0.0.
 One-electron integrals computed using PRISM.
 One-electron integral symmetry used in STVInt
 NBasis=   210 RedAO= T EigKep=  1.20D-06  NBF=   210
 NBsUse=   209 1.00D-06 EigRej=  8.80D-07 NBFU=   209
 Precomputing XC quadrature grid using
 IXCGrd= 4 IRadAn=           5 IRanWt=          -1 IRanGd=           0 AccXCQ= 0.00D+00.
 Generated NRdTot=       0 NPtTot=           0 NUsed=           0 NTot=          32
 NSgBfM=   209   209   209   209   209 MxSgAt=     7 MxSgA2=     7.
 Leave Link  302 at Mon Nov 13 17:17:49 2023, MaxMem=  1879048192 cpu:               2.2 elap:               0.1
 (Enter /home/sekinelabo/g16/l303.exe)
 DipDrv:  MaxL=1.
 Leave Link  303 at Mon Nov 13 17:17:49 2023, MaxMem=  1879048192 cpu:               0.6 elap:               0.0
 (Enter /home/sekinelabo/g16/l401.exe)
 ExpMin= 7.60D-03 ExpMax= 3.62D+04 ExpMxC= 1.21D+03 IAcc=3 IRadAn=         5 AccDes= 0.00D+00
 Harris functional with IExCor=  402 and IRadAn=       5 diagonalized for initial guess.
 HarFok:  IExCor=  402 AccDes= 0.00D+00 IRadAn=         5 IDoV= 1 UseB2=F ITyADJ=14
 ICtDFT=  3500011 ScaDFX=  1.000000  1.000000  1.000000  1.000000
 FoFCou: FMM=F IPFlag=           0 FMFlag=      100000 FMFlg1=           0
         NFxFlg=           0 DoJE=T BraDBF=F KetDBF=T FulRan=T
         wScrn=  0.000000 ICntrl=       500 IOpCl=  0 I1Cent=   200000004 NGrid=           0
         NMat0=    1 NMatS0=      1 NMatT0=    0 NMatD0=    1 NMtDS0=    0 NMtDT0=    0
 Petite list used in FoFCou.
 Harris En= -1135.85907951004    
 JPrj=0 DoOrth=F DoCkMO=F.
 Initial guess <Sx>= 0.0000 <Sy>= 0.0000 <Sz>= 0.5000 <S**2>= 0.7500 S= 0.5000
 Leave Link  401 at Mon Nov 13 17:17:49 2023, MaxMem=  1879048192 cpu:               4.7 elap:               0.3
 (Enter /home/sekinelabo/g16/l502.exe)
 Keep R1 and R2 ints in memory in canonical form, NReq=507620360.
 FoFCou: FMM=F IPFlag=           0 FMFlag=           0 FMFlg1=           0
         NFxFlg=           0 DoJE=F BraDBF=F KetDBF=F FulRan=T
         wScrn=  0.000000 ICntrl=       600 IOpCl=  0 I1Cent=           0 NGrid=           0
         NMat0=    1 NMatS0=  22155 NMatT0=    0 NMatD0=    1 NMtDS0=    0 NMtDT0=    0
 Symmetry not used in FoFCou.
 Two-electron integral symmetry not used.
 UHF open shell SCF:
 Using DIIS extrapolation, IDIIS=  1040.
 NGot=  1879048192 LenX=  1388082376 LenY=  1388034846
 Requested convergence on RMS density matrix=1.00D-08 within 128 cycles.
 Requested convergence on MAX density matrix=1.00D-06.
 Requested convergence on             energy=1.00D-06.
 No special actions if energy rises.

 Cycle   1  Pass 1  IDiag  1:
 E= -1136.04913058070    
 DIIS: error= 1.06D-02 at cycle   1 NSaved=   1.
 NSaved= 1 IEnMin= 1 EnMin= -1136.04913058070     IErMin= 1 ErrMin= 1.06D-02
 ErrMax= 1.06D-02  0.00D+00 EMaxC= 1.00D-01 BMatC= 1.96D-01 BMatP= 1.96D-01
 IDIUse=3 WtCom= 8.94D-01 WtEn= 1.06D-01
 Coeff-Com:  0.100D+01
 Coeff-En:   0.100D+01
 Coeff:      0.100D+01
 Gap=     0.031 Goal=   None    Shift=    0.000
 Gap=     0.035 Goal=   None    Shift=    0.000
 GapD=    0.031 DampG=0.250 DampE=0.500 DampFc=0.2500 IDamp=-1.
 Damping current iteration by 2.50D-01
 RMSDP=4.24D-02 MaxDP=2.56D+00              OVMax= 4.13D-01

 Cycle   2  Pass 1  IDiag  1:
 E= -1136.06067706953     Delta-E=       -0.011546488834 Rises=F Damp=T
 DIIS: error= 7.41D-03 at cycle   2 NSaved=   2.
 NSaved= 2 IEnMin= 2 EnMin= -1136.06067706953     IErMin= 2 ErrMin= 7.41D-03
 ErrMax= 7.41D-03  0.00D+00 EMaxC= 1.00D-01 BMatC= 7.45D-02 BMatP= 1.96D-01
 IDIUse=3 WtCom= 9.26D-01 WtEn= 7.41D-02
 Coeff-Com: -0.118D+01 0.218D+01
 Coeff-En:   0.000D+00 0.100D+01
 Coeff:     -0.109D+01 0.209D+01
 Gap=     0.048 Goal=   None    Shift=    0.000
 Gap=     0.045 Goal=   None    Shift=    0.000
 RMSDP=1.94D-02 MaxDP=1.26D+00 DE=-1.15D-02 OVMax= 4.92D-01

 Cycle   3  Pass 1  IDiag  1:
 E= -1136.04254245938     Delta-E=        0.018134610148 Rises=F Damp=F
 DIIS: error= 1.36D-02 at cycle   3 NSaved=   3.
 NSaved= 3 IEnMin= 2 EnMin= -1136.06067706953     IErMin= 2 ErrMin= 7.41D-03
 ErrMax= 1.36D-02  0.00D+00 EMaxC= 1.00D-01 BMatC= 3.22D-02 BMatP= 7.45D-02
 IDIUse=3 WtCom= 8.64D-01 WtEn= 1.36D-01
 Coeff-Com: -0.724D+00 0.127D+01 0.456D+00
 Coeff-En:   0.000D+00 0.767D+00 0.233D+00
 Coeff:     -0.625D+00 0.120D+01 0.426D+00
 Gap=     0.035 Goal=   None    Shift=    0.000
 Gap=     0.040 Goal=   None    Shift=    0.000
 RMSDP=6.49D-03 MaxDP=3.04D-01 DE= 1.81D-02 OVMax= 3.24D-01

 Cycle   4  Pass 1  IDiag  1:
 E= -1136.07599547063     Delta-E=       -0.033453011246 Rises=F Damp=F
 DIIS: error= 5.06D-03 at cycle   4 NSaved=   4.
 NSaved= 4 IEnMin= 4 EnMin= -1136.07599547063     IErMin= 4 ErrMin= 5.06D-03
 ErrMax= 5.06D-03  0.00D+00 EMaxC= 1.00D-01 BMatC= 8.12D-03 BMatP= 3.22D-02
 IDIUse=3 WtCom= 9.49D-01 WtEn= 5.06D-02
 Coeff-Com:  0.170D-01 0.176D-02 0.314D+00 0.667D+00
 Coeff-En:   0.000D+00 0.000D+00 0.255D+00 0.745D+00
 Coeff:      0.161D-01 0.167D-02 0.311D+00 0.671D+00
 Gap=     0.033 Goal=   None    Shift=    0.000
 Gap=     0.034 Goal=   None    Shift=    0.000
 RMSDP=5.13D-03 MaxDP=2.93D-01 DE=-3.35D-02 OVMax= 1.55D-01

 Cycle   5  Pass 1  IDiag  1:
 E= -1136.08602355921     Delta-E=       -0.010028088578 Rises=F Damp=F
 DIIS: error= 1.46D-03 at cycle   5 NSaved=   5.
 NSaved= 5 IEnMin= 5 EnMin= -1136.08602355921     IErMin= 5 ErrMin= 1.46D-03
 ErrMax= 1.46D-03  0.00D+00 EMaxC= 1.00D-01 BMatC= 9.00D-04 BMatP= 8.12D-03
 IDIUse=3 WtCom= 9.85D-01 WtEn= 1.46D-02
 Coeff-Com:  0.447D-01-0.629D-01 0.123D+00 0.348D+00 0.547D+00
 Coeff-En:   0.000D+00 0.000D+00 0.000D+00 0.438D-01 0.956D+00
 Coeff:      0.440D-01-0.620D-01 0.121D+00 0.344D+00 0.553D+00
 Gap=     0.032 Goal=   None    Shift=    0.000
 Gap=     0.034 Goal=   None    Shift=    0.000
 RMSDP=5.88D-03 MaxDP=4.13D-01 DE=-1.00D-02 OVMax= 4.05D-02

 Cycle   6  Pass 1  IDiag  1:
 E= -1136.08685530687     Delta-E=       -0.000831747662 Rises=F Damp=F
 DIIS: error= 6.61D-04 at cycle   6 NSaved=   6.
 NSaved= 6 IEnMin= 6 EnMin= -1136.08685530687     IErMin= 6 ErrMin= 6.61D-04
 ErrMax= 6.61D-04  0.00D+00 EMaxC= 1.00D-01 BMatC= 1.14D-04 BMatP= 9.00D-04
 IDIUse=3 WtCom= 9.93D-01 WtEn= 6.61D-03
 Coeff-Com: -0.125D-02 0.481D-03-0.183D-01-0.190D-01 0.255D+00 0.783D+00
 Coeff-En:   0.000D+00 0.000D+00 0.000D+00 0.000D+00 0.758D-01 0.924D+00
 Coeff:     -0.124D-02 0.477D-03-0.182D-01-0.188D-01 0.254D+00 0.784D+00
 Gap=     0.033 Goal=   None    Shift=    0.000
 Gap=     0.034 Goal=   None    Shift=    0.000
 RMSDP=1.42D-03 MaxDP=7.74D-02 DE=-8.32D-04 OVMax= 1.37D-02

 Cycle   7  Pass 1  IDiag  1:
 E= -1136.08697467937     Delta-E=       -0.000119372498 Rises=F Damp=F
 DIIS: error= 8.81D-05 at cycle   7 NSaved=   7.
 NSaved= 7 IEnMin= 7 EnMin= -1136.08697467937     IErMin= 7 ErrMin= 8.81D-05
 ErrMax= 8.81D-05  0.00D+00 EMaxC= 1.00D-01 BMatC= 3.24D-06 BMatP= 1.14D-04
 IDIUse=1 WtCom= 1.00D+00 WtEn= 0.00D+00
 Coeff-Com: -0.403D-02 0.524D-02-0.822D-02-0.847D-02 0.181D-01 0.110D+00
 Coeff-Com:  0.888D+00
 Coeff:     -0.403D-02 0.524D-02-0.822D-02-0.847D-02 0.181D-01 0.110D+00
 Coeff:      0.888D+00
 Gap=     0.033 Goal=   None    Shift=    0.000
 Gap=     0.034 Goal=   None    Shift=    0.000
 RMSDP=2.52D-04 MaxDP=1.33D-02 DE=-1.19D-04 OVMax= 6.19D-03

 Cycle   8  Pass 1  IDiag  1:
 E= -1136.08698440740     Delta-E=       -0.000009728034 Rises=F Damp=F
 DIIS: error= 4.73D-05 at cycle   8 NSaved=   8.
 NSaved= 8 IEnMin= 8 EnMin= -1136.08698440740     IErMin= 8 ErrMin= 4.73D-05
 ErrMax= 4.73D-05  0.00D+00 EMaxC= 1.00D-01 BMatC= 1.04D-06 BMatP= 3.24D-06
 IDIUse=1 WtCom= 1.00D+00 WtEn= 0.00D+00
 Coeff-Com: -0.115D-02 0.152D-02-0.158D-02-0.207D-02-0.303D-01-0.609D-01
 Coeff-Com:  0.350D+00 0.745D+00
 Coeff:     -0.115D-02 0.152D-02-0.158D-02-0.207D-02-0.303D-01-0.609D-01
 Coeff:      0.350D+00 0.745D+00
 Gap=     0.033 Goal=   None    Shift=    0.000
 Gap=     0.034 Goal=   None    Shift=    0.000
 RMSDP=2.02D-04 MaxDP=1.54D-02 DE=-9.73D-06 OVMax= 4.53D-03

 Cycle   9  Pass 1  IDiag  1:
 E= -1136.08698847515     Delta-E=       -0.000004067748 Rises=F Damp=F
 DIIS: error= 3.09D-05 at cycle   9 NSaved=   9.
 NSaved= 9 IEnMin= 9 EnMin= -1136.08698847515     IErMin= 9 ErrMin= 3.09D-05
 ErrMax= 3.09D-05  0.00D+00 EMaxC= 1.00D-01 BMatC= 3.93D-07 BMatP= 1.04D-06
 IDIUse=1 WtCom= 1.00D+00 WtEn= 0.00D+00
 Coeff-Com:  0.604D-03-0.799D-03 0.105D-02 0.776D-03-0.237D-01-0.593D-01
 Coeff-Com: -0.324D-01 0.299D+00 0.815D+00
 Coeff:      0.604D-03-0.799D-03 0.105D-02 0.776D-03-0.237D-01-0.593D-01
 Coeff:     -0.324D-01 0.299D+00 0.815D+00
 Gap=     0.033 Goal=   None    Shift=    0.000
 Gap=     0.035 Goal=   None    Shift=    0.000
 RMSDP=1.73D-04 MaxDP=9.96D-03 DE=-4.07D-06 OVMax= 4.10D-03

 Cycle  10  Pass 1  IDiag  1:
 E= -1136.08699152328     Delta-E=       -0.000003048136 Rises=F Damp=F
 DIIS: error= 2.84D-05 at cycle  10 NSaved=  10.
 NSaved=10 IEnMin=10 EnMin= -1136.08699152328     IErMin=10 ErrMin= 2.84D-05
 ErrMax= 2.84D-05  0.00D+00 EMaxC= 1.00D-01 BMatC= 1.86D-07 BMatP= 3.93D-07
 IDIUse=1 WtCom= 1.00D+00 WtEn= 0.00D+00
 Coeff-Com:  0.594D-03-0.789D-03 0.104D-02 0.964D-03 0.251D-03-0.146D-02
 Coeff-Com: -0.129D+00-0.156D+00 0.274D+00 0.101D+01
 Coeff:      0.594D-03-0.789D-03 0.104D-02 0.964D-03 0.251D-03-0.146D-02
 Coeff:     -0.129D+00-0.156D+00 0.274D+00 0.101D+01
 Gap=     0.033 Goal=   None    Shift=    0.000
 Gap=     0.035 Goal=   None    Shift=    0.000
 RMSDP=2.09D-04 MaxDP=1.32D-02 DE=-3.05D-06 OVMax= 4.51D-03

 Cycle  11  Pass 1  IDiag  1:
 E= -1136.08699449144     Delta-E=       -0.000002968153 Rises=F Damp=F
 DIIS: error= 2.77D-05 at cycle  11 NSaved=  11.
 NSaved=11 IEnMin=11 EnMin= -1136.08699449144     IErMin=11 ErrMin= 2.77D-05
 ErrMax= 2.77D-05  0.00D+00 EMaxC= 1.00D-01 BMatC= 1.28D-07 BMatP= 1.86D-07
 IDIUse=1 WtCom= 1.00D+00 WtEn= 0.00D+00
 Coeff-Com: -0.345D-03 0.437D-03-0.253D-03-0.912D-03 0.107D-01 0.262D-01
 Coeff-Com:  0.261D-01-0.118D+00-0.342D+00 0.964D-01 0.130D+01
 Coeff:     -0.345D-03 0.437D-03-0.253D-03-0.912D-03 0.107D-01 0.262D-01
 Coeff:      0.261D-01-0.118D+00-0.342D+00 0.964D-01 0.130D+01
 Gap=     0.033 Goal=   None    Shift=    0.000
 Gap=     0.035 Goal=   None    Shift=    0.000
 RMSDP=2.48D-04 MaxDP=1.75D-02 DE=-2.97D-06 OVMax= 5.33D-03

 Cycle  12  Pass 1  IDiag  1:
 E= -1136.08699777323     Delta-E=       -0.000003281797 Rises=F Damp=F
 DIIS: error= 2.52D-05 at cycle  12 NSaved=  12.
 NSaved=12 IEnMin=12 EnMin= -1136.08699777323     IErMin=12 ErrMin= 2.52D-05
 ErrMax= 2.52D-05  0.00D+00 EMaxC= 1.00D-01 BMatC= 1.14D-07 BMatP= 1.28D-07
 IDIUse=1 WtCom= 1.00D+00 WtEn= 0.00D+00
 Coeff-Com: -0.277D-03 0.349D-03-0.240D-03-0.798D-03 0.760D-02 0.191D-01
 Coeff-Com:  0.288D-01-0.801D-01-0.276D+00 0.288D-01 0.967D+00 0.306D+00
 Coeff:     -0.277D-03 0.349D-03-0.240D-03-0.798D-03 0.760D-02 0.191D-01
 Coeff:      0.288D-01-0.801D-01-0.276D+00 0.288D-01 0.967D+00 0.306D+00
 Gap=     0.033 Goal=   None    Shift=    0.000
 Gap=     0.035 Goal=   None    Shift=    0.000
 RMSDP=5.91D-05 MaxDP=4.04D-03 DE=-3.28D-06 OVMax= 1.32D-03

 Cycle  13  Pass 1  IDiag  1:
 E= -1136.08699851611     Delta-E=       -0.000000742873 Rises=F Damp=F
 DIIS: error= 2.51D-05 at cycle  13 NSaved=  13.
 NSaved=13 IEnMin=13 EnMin= -1136.08699851611     IErMin=13 ErrMin= 2.51D-05
 ErrMax= 2.51D-05  0.00D+00 EMaxC= 1.00D-01 BMatC= 1.15D-07 BMatP= 1.14D-07
 IDIUse=1 WtCom= 1.00D+00 WtEn= 0.00D+00
 Coeff-Com: -0.718D-03 0.909D-03-0.784D-03-0.213D-02 0.131D-01 0.340D-01
 Coeff-Com:  0.119D+00-0.775D-01-0.638D+00-0.441D+00 0.181D+01 0.687D+01
 Coeff-Com: -0.669D+01
 Coeff:     -0.718D-03 0.909D-03-0.784D-03-0.213D-02 0.131D-01 0.340D-01
 Coeff:      0.119D+00-0.775D-01-0.638D+00-0.441D+00 0.181D+01 0.687D+01
 Coeff:     -0.669D+01
 Gap=     0.033 Goal=   None    Shift=    0.000
 Gap=     0.035 Goal=   None    Shift=    0.000
 RMSDP=3.19D-04 MaxDP=2.28D-02 DE=-7.43D-07 OVMax= 6.84D-03

 Cycle  14  Pass 1  IDiag  1:
 E= -1136.08699500213     Delta-E=        0.000003513973 Rises=F Damp=F
 DIIS: error= 2.35D-05 at cycle  14 NSaved=  14.
 NSaved=14 IEnMin=13 EnMin= -1136.08699851611     IErMin=14 ErrMin= 2.35D-05
 ErrMax= 2.35D-05  0.00D+00 EMaxC= 1.00D-01 BMatC= 9.47D-08 BMatP= 1.14D-07
 IDIUse=1 WtCom= 1.00D+00 WtEn= 0.00D+00
 Coeff-Com: -0.308D-03 0.376D-03-0.878D-03-0.312D-03-0.276D-02-0.153D-02
 Coeff-Com:  0.108D+00 0.537D-01-0.286D+00-0.497D+00 0.292D+00 0.483D+01
 Coeff-Com: -0.660D+01 0.311D+01
 Coeff:     -0.308D-03 0.376D-03-0.878D-03-0.312D-03-0.276D-02-0.153D-02
 Coeff:      0.108D+00 0.537D-01-0.286D+00-0.497D+00 0.292D+00 0.483D+01
 Coeff:     -0.660D+01 0.311D+01
 Gap=     0.033 Goal=   None    Shift=    0.000
 Gap=     0.035 Goal=   None    Shift=    0.000
 RMSDP=7.11D-04 MaxDP=5.06D-02 DE= 3.51D-06 OVMax= 1.43D-02

 Cycle  15  Pass 1  IDiag  1:
 E= -1136.08698956113     Delta-E=        0.000005440999 Rises=F Damp=F
 DIIS: error= 1.67D-05 at cycle  15 NSaved=  15.
 NSaved=15 IEnMin=13 EnMin= -1136.08699851611     IErMin=15 ErrMin= 1.67D-05
 ErrMax= 1.67D-05  0.00D+00 EMaxC= 1.00D-01 BMatC= 6.93D-08 BMatP= 9.47D-08
 IDIUse=1 WtCom= 1.00D+00 WtEn= 0.00D+00
 Coeff-Com:  0.328D-03-0.427D-03-0.376D-03 0.159D-02-0.124D-01-0.262D-01
 Coeff-Com: -0.191D-01 0.870D-01 0.272D+00 0.388D-01-0.122D+01-0.305D+01
 Coeff-Com:  0.964D+00 0.293D+01 0.103D+01
 Coeff:      0.328D-03-0.427D-03-0.376D-03 0.159D-02-0.124D-01-0.262D-01
 Coeff:     -0.191D-01 0.870D-01 0.272D+00 0.388D-01-0.122D+01-0.305D+01
 Coeff:      0.964D+00 0.293D+01 0.103D+01
 Gap=     0.033 Goal=   None    Shift=    0.000
 Gap=     0.035 Goal=   None    Shift=    0.000
 RMSDP=6.25D-04 MaxDP=4.51D-02 DE= 5.44D-06 OVMax= 1.22D-02

 Cycle  16  Pass 1  IDiag  1:
 E= -1136.08698704813     Delta-E=        0.000002513007 Rises=F Damp=F
 DIIS: error= 1.06D-05 at cycle  16 NSaved=  16.
 NSaved=16 IEnMin=13 EnMin= -1136.08699851611     IErMin=16 ErrMin= 1.06D-05
 ErrMax= 1.06D-05  0.00D+00 EMaxC= 1.00D-01 BMatC= 2.35D-08 BMatP= 6.93D-08
 IDIUse=1 WtCom= 1.00D+00 WtEn= 0.00D+00
 Coeff-Com: -0.940D-04 0.143D-03 0.320D-03-0.432D-03 0.958D-02 0.183D-01
 Coeff-Com: -0.564D-01-0.940D-01 0.524D-02 0.419D+00 0.344D+00-0.353D+01
 Coeff-Com:  0.447D+01-0.234D+01-0.556D-01 0.180D+01
 Coeff:     -0.940D-04 0.143D-03 0.320D-03-0.432D-03 0.958D-02 0.183D-01
 Coeff:     -0.564D-01-0.940D-01 0.524D-02 0.419D+00 0.344D+00-0.353D+01
 Coeff:      0.447D+01-0.234D+01-0.556D-01 0.180D+01
 Gap=     0.033 Goal=   None    Shift=    0.000
 Gap=     0.035 Goal=   None    Shift=    0.000
 RMSDP=5.61D-04 MaxDP=3.86D-02 DE= 2.51D-06 OVMax= 9.96D-03

 Cycle  17  Pass 1  IDiag  1:
 E= -1136.08698630659     Delta-E=        0.000000741540 Rises=F Damp=F
 DIIS: error= 5.24D-06 at cycle  17 NSaved=  17.
 NSaved=17 IEnMin=13 EnMin= -1136.08699851611     IErMin=17 ErrMin= 5.24D-06
 ErrMax= 5.24D-06  0.00D+00 EMaxC= 1.00D-01 BMatC= 8.15D-09 BMatP= 2.35D-08
 IDIUse=1 WtCom= 1.00D+00 WtEn= 0.00D+00
 Coeff-Com: -0.580D-04 0.707D-04 0.250D-03-0.839D-03 0.458D-02 0.955D-02
 Coeff-Com:  0.131D-02-0.246D-01-0.822D-01 0.255D-01 0.361D+00-0.358D+00
 Coeff-Com:  0.112D+01-0.122D+01-0.292D+00 0.291D+00 0.116D+01
 Coeff:     -0.580D-04 0.707D-04 0.250D-03-0.839D-03 0.458D-02 0.955D-02
 Coeff:      0.131D-02-0.246D-01-0.822D-01 0.255D-01 0.361D+00-0.358D+00
 Coeff:      0.112D+01-0.122D+01-0.292D+00 0.291D+00 0.116D+01
 Gap=     0.033 Goal=   None    Shift=    0.000
 Gap=     0.035 Goal=   None    Shift=    0.000
 RMSDP=2.18D-04 MaxDP=1.48D-02 DE= 7.42D-07 OVMax= 3.25D-03

 Cycle  18  Pass 1  IDiag  1:
 E= -1136.08698630751     Delta-E=       -0.000000000924 Rises=F Damp=F
 DIIS: error= 1.92D-06 at cycle  18 NSaved=  18.
 NSaved=18 IEnMin=13 EnMin= -1136.08699851611     IErMin=18 ErrMin= 1.92D-06
 ErrMax= 1.92D-06  0.00D+00 EMaxC= 1.00D-01 BMatC= 1.22D-09 BMatP= 8.15D-09
 IDIUse=1 WtCom= 1.00D+00 WtEn= 0.00D+00
 Coeff-Com:  0.269D-04-0.379D-04-0.602D-04 0.186D-03-0.281D-02-0.532D-02
 Coeff-Com:  0.902D-02 0.207D-01 0.118D-01-0.574D-01-0.124D+00 0.421D+00
 Coeff-Com: -0.764D+00 0.647D+00 0.706D-01-0.372D+00-0.320D+00 0.147D+01
 Coeff:      0.269D-04-0.379D-04-0.602D-04 0.186D-03-0.281D-02-0.532D-02
 Coeff:      0.902D-02 0.207D-01 0.118D-01-0.574D-01-0.124D+00 0.421D+00
 Coeff:     -0.764D+00 0.647D+00 0.706D-01-0.372D+00-0.320D+00 0.147D+01
 Gap=     0.033 Goal=   None    Shift=    0.000
 Gap=     0.035 Goal=   None    Shift=    0.000
 RMSDP=7.78D-05 MaxDP=5.41D-03 DE=-9.24D-10 OVMax= 8.32D-04

 Cycle  19  Pass 1  IDiag  1:
 E= -1136.08698631728     Delta-E=       -0.000000009771 Rises=F Damp=F
 DIIS: error= 7.23D-07 at cycle  19 NSaved=  19.
 NSaved=19 IEnMin=13 EnMin= -1136.08699851611     IErMin=19 ErrMin= 7.23D-07
 ErrMax= 7.23D-07  0.00D+00 EMaxC= 1.00D-01 BMatC= 2.61D-10 BMatP= 1.22D-09
 IDIUse=1 WtCom= 1.00D+00 WtEn= 0.00D+00
 Coeff-Com: -0.351D-05 0.416D-05-0.272D-04 0.101D-03-0.391D-03-0.105D-02
 Coeff-Com:  0.126D-02-0.135D-02 0.321D-02-0.166D-02-0.118D-01 0.264D+00
 Coeff-Com: -0.327D+00 0.126D+00 0.578D-02-0.736D-01-0.222D+00 0.364D+00
 Coeff-Com:  0.875D+00
 Coeff:     -0.351D-05 0.416D-05-0.272D-04 0.101D-03-0.391D-03-0.105D-02
 Coeff:      0.126D-02-0.135D-02 0.321D-02-0.166D-02-0.118D-01 0.264D+00
 Coeff:     -0.327D+00 0.126D+00 0.578D-02-0.736D-01-0.222D+00 0.364D+00
 Coeff:      0.875D+00
 Gap=     0.033 Goal=   None    Shift=    0.000
 Gap=     0.035 Goal=   None    Shift=    0.000
 RMSDP=1.76D-05 MaxDP=1.07D-03 DE=-9.77D-09 OVMax= 1.74D-04

 Cycle  20  Pass 1  IDiag  1:
 E= -1136.08698631869     Delta-E=       -0.000000001406 Rises=F Damp=F
 DIIS: error= 3.58D-07 at cycle  20 NSaved=  20.
 NSaved=20 IEnMin=13 EnMin= -1136.08699851611     IErMin=20 ErrMin= 3.58D-07
 ErrMax= 3.58D-07  0.00D+00 EMaxC= 1.00D-01 BMatC= 4.98D-11 BMatP= 2.61D-10
 IDIUse=1 WtCom= 1.00D+00 WtEn= 0.00D+00
 Coeff-Com: -0.863D-05 0.112D-04-0.114D-04-0.710D-05 0.813D-04 0.117D-03
 Coeff-Com:  0.817D-03-0.127D-02-0.133D-02-0.365D-02 0.109D-01 0.698D-01
 Coeff-Com: -0.880D-01 0.203D-01 0.950D-03 0.702D-03-0.366D-01-0.529D-01
 Coeff-Com:  0.169D+00 0.911D+00
 Coeff:     -0.863D-05 0.112D-04-0.114D-04-0.710D-05 0.813D-04 0.117D-03
 Coeff:      0.817D-03-0.127D-02-0.133D-02-0.365D-02 0.109D-01 0.698D-01
 Coeff:     -0.880D-01 0.203D-01 0.950D-03 0.702D-03-0.366D-01-0.529D-01
 Coeff:      0.169D+00 0.911D+00
 Gap=     0.033 Goal=   None    Shift=    0.000
 Gap=     0.035 Goal=   None    Shift=    0.000
 RMSDP=3.69D-06 MaxDP=2.35D-04 DE=-1.41D-09 OVMax= 5.30D-05

 Cycle  21  Pass 1  IDiag  1:
 E= -1136.08698631905     Delta-E=       -0.000000000357 Rises=F Damp=F
 DIIS: error= 2.58D-07 at cycle  21 NSaved=  20.
 NSaved=20 IEnMin=12 EnMin= -1136.08699851611     IErMin=20 ErrMin= 2.58D-07
 ErrMax= 2.58D-07  0.00D+00 EMaxC= 1.00D-01 BMatC= 1.48D-11 BMatP= 4.98D-11
 IDIUse=1 WtCom= 1.00D+00 WtEn= 0.00D+00
 Coeff-Com:  0.385D-05-0.505D-05-0.210D-04 0.366D-04 0.222D-03-0.274D-03
 Coeff-Com:  0.616D-03-0.795D-03-0.872D-03-0.202D-03-0.642D-01 0.689D-01
 Coeff-Com: -0.150D-01 0.459D-02 0.114D-01 0.523D-01-0.998D-01-0.238D+00
 Coeff-Com: -0.212D-01 0.130D+01
 Coeff:      0.385D-05-0.505D-05-0.210D-04 0.366D-04 0.222D-03-0.274D-03
 Coeff:      0.616D-03-0.795D-03-0.872D-03-0.202D-03-0.642D-01 0.689D-01
 Coeff:     -0.150D-01 0.459D-02 0.114D-01 0.523D-01-0.998D-01-0.238D+00
 Coeff:     -0.212D-01 0.130D+01
 Gap=     0.033 Goal=   None    Shift=    0.000
 Gap=     0.035 Goal=   None    Shift=    0.000
 RMSDP=2.22D-06 MaxDP=1.37D-04 DE=-3.57D-10 OVMax= 5.52D-05

 Cycle  22  Pass 1  IDiag  1:
 E= -1136.08698631923     Delta-E=       -0.000000000185 Rises=F Damp=F
 DIIS: error= 1.47D-07 at cycle  22 NSaved=  20.
 NSaved=20 IEnMin=11 EnMin= -1136.08699851611     IErMin=20 ErrMin= 1.47D-07
 ErrMax= 1.47D-07  0.00D+00 EMaxC= 1.00D-01 BMatC= 4.28D-12 BMatP= 1.48D-11
 IDIUse=1 WtCom= 1.00D+00 WtEn= 0.00D+00
 Coeff-Com:  0.304D-06 0.749D-05-0.146D-04-0.105D-03-0.201D-04-0.223D-03
 Coeff-Com:  0.876D-03 0.633D-03-0.290D-02 0.266D-01-0.215D-01 0.165D-02
 Coeff-Com: -0.354D-02-0.876D-02-0.135D-01 0.732D-01 0.620D-01-0.284D+00
 Coeff-Com: -0.490D+00 0.166D+01
 Coeff:      0.304D-06 0.749D-05-0.146D-04-0.105D-03-0.201D-04-0.223D-03
 Coeff:      0.876D-03 0.633D-03-0.290D-02 0.266D-01-0.215D-01 0.165D-02
 Coeff:     -0.354D-02-0.876D-02-0.135D-01 0.732D-01 0.620D-01-0.284D+00
 Coeff:     -0.490D+00 0.166D+01
 Gap=     0.033 Goal=   None    Shift=    0.000
 Gap=     0.035 Goal=   None    Shift=    0.000
 RMSDP=1.02D-06 MaxDP=6.25D-05 DE=-1.85D-10 OVMax= 3.75D-05

 Cycle  23  Pass 1  IDiag  1:
 E= -1136.08698631932     Delta-E=       -0.000000000093 Rises=F Damp=F
 DIIS: error= 7.26D-08 at cycle  23 NSaved=  20.
 NSaved=20 IEnMin=10 EnMin= -1136.08699851611     IErMin=20 ErrMin= 7.26D-08
 ErrMax= 7.26D-08  0.00D+00 EMaxC= 1.00D-01 BMatC= 9.64D-13 BMatP= 4.28D-12
 IDIUse=1 WtCom= 1.00D+00 WtEn= 0.00D+00
 Coeff-Com:  0.716D-05-0.263D-04-0.781D-04-0.227D-03 0.307D-04 0.143D-02
 Coeff-Com:  0.314D-03-0.278D-02 0.810D-02-0.110D-01 0.558D-02 0.898D-03
 Coeff-Com: -0.245D-03-0.121D-01 0.484D-02 0.573D-01 0.444D-01-0.193D+00
 Coeff-Com: -0.346D+00 0.144D+01
 Coeff:      0.716D-05-0.263D-04-0.781D-04-0.227D-03 0.307D-04 0.143D-02
 Coeff:      0.314D-03-0.278D-02 0.810D-02-0.110D-01 0.558D-02 0.898D-03
 Coeff:     -0.245D-03-0.121D-01 0.484D-02 0.573D-01 0.444D-01-0.193D+00
 Coeff:     -0.346D+00 0.144D+01
 Gap=     0.033 Goal=   None    Shift=    0.000
 Gap=     0.035 Goal=   None    Shift=    0.000
 RMSDP=4.77D-07 MaxDP=2.30D-05 DE=-9.30D-11 OVMax= 1.97D-05

 Cycle  24  Pass 1  IDiag  1:
 E= -1136.08698631935     Delta-E=       -0.000000000022 Rises=F Damp=F
 DIIS: error= 3.32D-08 at cycle  24 NSaved=  20.
 NSaved=20 IEnMin= 9 EnMin= -1136.08699851611     IErMin=20 ErrMin= 3.32D-08
 ErrMax= 3.32D-08  0.00D+00 EMaxC= 1.00D-01 BMatC= 2.81D-13 BMatP= 9.64D-13
 IDIUse=1 WtCom= 1.00D+00 WtEn= 0.00D+00
 Coeff-Com:  0.799D-07 0.682D-05-0.127D-04 0.130D-03 0.672D-05-0.210D-03
 Coeff-Com: -0.354D-03-0.141D-02 0.122D-03 0.120D-02 0.121D-02 0.199D-03
 Coeff-Com:  0.791D-03-0.104D-01-0.699D-02 0.447D-01 0.808D-01-0.401D+00
 Coeff-Com:  0.240D+00 0.105D+01
 Coeff:      0.799D-07 0.682D-05-0.127D-04 0.130D-03 0.672D-05-0.210D-03
 Coeff:     -0.354D-03-0.141D-02 0.122D-03 0.120D-02 0.121D-02 0.199D-03
 Coeff:      0.791D-03-0.104D-01-0.699D-02 0.447D-01 0.808D-01-0.401D+00
 Coeff:      0.240D+00 0.105D+01
 Gap=     0.033 Goal=   None    Shift=    0.000
 Gap=     0.035 Goal=   None    Shift=    0.000
 RMSDP=2.91D-07 MaxDP=1.87D-05 DE=-2.16D-11 OVMax= 8.58D-06

 Cycle  25  Pass 1  IDiag  1:
 E= -1136.08698631934     Delta-E=        0.000000000004 Rises=F Damp=F
 DIIS: error= 1.76D-08 at cycle  25 NSaved=  20.
 NSaved=20 IEnMin= 8 EnMin= -1136.08699851611     IErMin=20 ErrMin= 1.76D-08
 ErrMax= 1.76D-08  0.00D+00 EMaxC= 1.00D-01 BMatC= 9.34D-14 BMatP= 2.81D-13
 IDIUse=1 WtCom= 1.00D+00 WtEn= 0.00D+00
 Coeff-Com:  0.157D-05 0.544D-04-0.420D-07-0.235D-03 0.214D-03 0.292D-04
 Coeff-Com: -0.431D-02 0.436D-02-0.763D-04-0.292D-03-0.121D-02 0.355D-02
 Coeff-Com:  0.448D-02-0.202D-01-0.276D-01 0.506D-01 0.203D+00-0.563D+00
 Coeff-Com: -0.190D+00 0.154D+01
 Coeff:      0.157D-05 0.544D-04-0.420D-07-0.235D-03 0.214D-03 0.292D-04
 Coeff:     -0.431D-02 0.436D-02-0.763D-04-0.292D-03-0.121D-02 0.355D-02
 Coeff:      0.448D-02-0.202D-01-0.276D-01 0.506D-01 0.203D+00-0.563D+00
 Coeff:     -0.190D+00 0.154D+01
 Gap=     0.033 Goal=   None    Shift=    0.000
 Gap=     0.035 Goal=   None    Shift=    0.000
 RMSDP=2.60D-07 MaxDP=2.52D-05 DE= 3.87D-12 OVMax= 5.54D-06

 Cycle  26  Pass 1  IDiag  1:
 E= -1136.08698631935     Delta-E=       -0.000000000012 Rises=F Damp=F
 DIIS: error= 9.11D-09 at cycle  26 NSaved=  20.
 NSaved=20 IEnMin= 7 EnMin= -1136.08699851611     IErMin=20 ErrMin= 9.11D-09
 ErrMax= 9.11D-09  0.00D+00 EMaxC= 1.00D-01 BMatC= 2.96D-14 BMatP= 9.34D-14
 IDIUse=1 WtCom= 1.00D+00 WtEn= 0.00D+00
 Coeff-Com:  0.230D-04-0.261D-04-0.862D-04-0.167D-04 0.125D-03-0.113D-02
 Coeff-Com:  0.172D-02-0.693D-03-0.355D-03-0.148D-04 0.152D-02 0.263D-02
 Coeff-Com: -0.737D-02-0.210D-01 0.566D-02 0.162D+00-0.237D+00-0.266D+00
 Coeff-Com:  0.391D+00 0.968D+00
 Coeff:      0.230D-04-0.261D-04-0.862D-04-0.167D-04 0.125D-03-0.113D-02
 Coeff:      0.172D-02-0.693D-03-0.355D-03-0.148D-04 0.152D-02 0.263D-02
 Coeff:     -0.737D-02-0.210D-01 0.566D-02 0.162D+00-0.237D+00-0.266D+00
 Coeff:      0.391D+00 0.968D+00
 Gap=     0.033 Goal=   None    Shift=    0.000
 Gap=     0.035 Goal=   None    Shift=    0.000
 RMSDP=9.44D-08 MaxDP=1.01D-05 DE=-1.21D-11 OVMax= 2.03D-06

 Cycle  27  Pass 1  IDiag  1:
 E= -1136.08698631934     Delta-E=        0.000000000010 Rises=F Damp=F
 DIIS: error= 5.92D-09 at cycle  27 NSaved=  20.
 NSaved=20 IEnMin= 6 EnMin= -1136.08699851611     IErMin=20 ErrMin= 5.92D-09
 ErrMax= 5.92D-09  0.00D+00 EMaxC= 1.00D-01 BMatC= 7.46D-15 BMatP= 2.96D-14
 IDIUse=1 WtCom= 1.00D+00 WtEn= 0.00D+00
 Large coefficients: NSaved= 20 BigCof=    0.00 CofMax=   10.00 Det=-8.75D-15
 Inversion failed.  Reducing to 19 matrices.
 Large coefficients: NSaved= 19 BigCof=    0.00 CofMax=   10.00 Det=-9.08D-15
 Inversion failed.  Reducing to 18 matrices.
 Large coefficients: NSaved= 18 BigCof=    0.00 CofMax=   10.00 Det=-9.80D-15
 Inversion failed.  Reducing to 17 matrices.
 Large coefficients: NSaved= 17 BigCof=    0.00 CofMax=   10.00 Det=-9.88D-15
 Inversion failed.  Reducing to 16 matrices.
 Large coefficients: NSaved= 16 BigCof=    0.00 CofMax=   10.00 Det=-9.94D-15
 Inversion failed.  Reducing to 15 matrices.
 Coeff-Com:  0.170D-04-0.145D-05-0.945D-04-0.758D-03 0.853D-03-0.844D-04
 Coeff-Com: -0.385D-04 0.188D-03-0.829D-02 0.257D-01-0.460D-02-0.357D-02
 Coeff-Com: -0.195D+00-0.739D-01 0.126D+01
 Coeff:      0.170D-04-0.145D-05-0.945D-04-0.758D-03 0.853D-03-0.844D-04
 Coeff:     -0.385D-04 0.188D-03-0.829D-02 0.257D-01-0.460D-02-0.357D-02
 Coeff:     -0.195D+00-0.739D-01 0.126D+01
 Gap=     0.033 Goal=   None    Shift=    0.000
 Gap=     0.035 Goal=   None    Shift=    0.000
 RMSDP=9.34D-08 MaxDP=9.76D-06 DE= 1.05D-11 OVMax= 1.53D-06

 Cycle  28  Pass 1  IDiag  1:
 E= -1136.08698631934     Delta-E=        0.000000000000 Rises=F Damp=F
 DIIS: error= 3.75D-09 at cycle  28 NSaved=  16.
 NSaved=16 IEnMin= 5 EnMin= -1136.08699851611     IErMin=16 ErrMin= 3.75D-09
 ErrMax= 3.75D-09  0.00D+00 EMaxC= 1.00D-01 BMatC= 2.89D-15 BMatP= 7.46D-15
 IDIUse=1 WtCom= 1.00D+00 WtEn= 0.00D+00
 Large coefficients: NSaved= 16 BigCof=    0.00 CofMax=   10.00 Det=-2.99D-15
 Inversion failed.  Reducing to 15 matrices.
 Coeff-Com:  0.453D-05 0.991D-05-0.966D-05-0.483D-05 0.823D-04-0.868D-04
 Coeff-Com:  0.412D-04-0.773D-04-0.105D-01 0.241D-01 0.481D-01-0.103D+00
 Coeff-Com: -0.288D+00 0.289D+00 0.104D+01
 Coeff:      0.453D-05 0.991D-05-0.966D-05-0.483D-05 0.823D-04-0.868D-04
 Coeff:      0.412D-04-0.773D-04-0.105D-01 0.241D-01 0.481D-01-0.103D+00
 Coeff:     -0.288D+00 0.289D+00 0.104D+01
 Gap=     0.033 Goal=   None    Shift=    0.000
 Gap=     0.035 Goal=   None    Shift=    0.000
 RMSDP=3.84D-08 MaxDP=3.71D-06 DE= 0.00D+00 OVMax= 8.04D-07

 Cycle  29  Pass 1  IDiag  1:
 E= -1136.08698631935     Delta-E=       -0.000000000002 Rises=F Damp=F
 DIIS: error= 1.09D-09 at cycle  29 NSaved=  16.
 NSaved=16 IEnMin= 5 EnMin= -1136.08699851611     IErMin=16 ErrMin= 1.09D-09
 ErrMax= 1.09D-09  0.00D+00 EMaxC= 1.00D-01 BMatC= 5.72D-16 BMatP= 2.89D-15
 IDIUse=1 WtCom= 1.00D+00 WtEn= 0.00D+00
 Large coefficients: NSaved= 16 BigCof=    0.00 CofMax=   10.00 Det=-1.17D-15
 Inversion failed.  Reducing to 15 matrices.
 Coeff-Com:  0.175D-04 0.180D-04-0.297D-04-0.160D-03 0.173D-03-0.306D-04
 Coeff-Com:  0.149D-04-0.350D-05-0.462D-02 0.121D-01 0.208D-01-0.109D+00
 Coeff-Com: -0.738D-01 0.309D+00 0.846D+00
 Coeff:      0.175D-04 0.180D-04-0.297D-04-0.160D-03 0.173D-03-0.306D-04
 Coeff:      0.149D-04-0.350D-05-0.462D-02 0.121D-01 0.208D-01-0.109D+00
 Coeff:     -0.738D-01 0.309D+00 0.846D+00
 Gap=     0.033 Goal=   None    Shift=    0.000
 Gap=     0.035 Goal=   None    Shift=    0.000
 RMSDP=9.40D-09 MaxDP=1.01D-06 DE=-2.27D-12 OVMax= 1.95D-07

 Cycle  30  Pass 1  IDiag  1:
 E= -1136.08698631934     Delta-E=        0.000000000000 Rises=F Damp=F
 DIIS: error= 3.82D-10 at cycle  30 NSaved=  16.
 NSaved=16 IEnMin= 5 EnMin= -1136.08699851611     IErMin=16 ErrMin= 3.82D-10
 ErrMax= 3.82D-10  0.00D+00 EMaxC= 1.00D-01 BMatC= 7.82D-17 BMatP= 5.72D-16
 IDIUse=1 WtCom= 1.00D+00 WtEn= 0.00D+00
 Large coefficients: NSaved= 16 BigCof=    0.00 CofMax=   10.00 Det=-2.66D-16
 Inversion failed.  Reducing to 15 matrices.
 Coeff-Com: -0.106D-04-0.602D-05 0.199D-04 0.104D-03-0.146D-03 0.479D-04
 Coeff-Com: -0.248D-05-0.127D-05-0.754D-02 0.221D-01 0.417D-01-0.889D-01
 Coeff-Com: -0.155D+00 0.386D-01 0.115D+01
 Coeff:     -0.106D-04-0.602D-05 0.199D-04 0.104D-03-0.146D-03 0.479D-04
 Coeff:     -0.248D-05-0.127D-05-0.754D-02 0.221D-01 0.417D-01-0.889D-01
 Coeff:     -0.155D+00 0.386D-01 0.115D+01
 Gap=     0.033 Goal=   None    Shift=    0.000
 Gap=     0.035 Goal=   None    Shift=    0.000
 RMSDP=6.84D-09 MaxDP=3.57D-07 DE= 4.55D-13 OVMax= 9.22D-08

 SCF Done:  E(UB3LYP) =  -1136.08698632     A.U. after   30 cycles
            NFock= 30  Conv=0.68D-08     -V/T= 2.0026
 <Sx>= 0.0000 <Sy>= 0.0000 <Sz>= 0.5000 <S**2>= 0.7687 S= 0.5093
 <L.S>= 0.000000000000E+00
 KE= 1.133159281380D+03 PE=-3.420295782611D+03 EE= 8.054762058251D+02
 Annihilation of the first spin contaminant:
 S**2 before annihilation     0.7687,   after     0.7502
 Leave Link  502 at Mon Nov 13 17:18:14 2023, MaxMem=  1879048192 cpu:             287.4 elap:              25.0
 (Enter /home/sekinelabo/g16/l601.exe)
 Copying SCF densities to generalized density rwf, IOpCl= 1 IROHF=0.

 **********************************************************************

            Population analysis using the SCF Density.

 **********************************************************************

 Orbital symmetries:
 Alpha Orbitals:
       Occupied  (A) (A) (A) (A) (A) (A) (A) (A) (A) (A) (A) (A)
                 (A) (A) (A) (A) (A) (A) (A) (A) (A) (A) (A) (A)
                 (A) (A) (A) (A) (A) (A) (A) (A) (A) (A) (A) (A)
                 (A) (A) (A)
       Virtual   (A) (A) (A) (A) (A) (A) (A) (A) (A) (A) (A) (A)
                 (A) (A) (A) (A) (A) (A) (A) (A) (A) (A) (A) (A)
                 (A) (A) (A) (A) (A) (A) (A) (A) (A) (A) (A) (A)
                 (A) (A) (A) (A) (A) (A) (A) (A) (A) (A) (A) (A)
                 (A) (A) (A) (A) (A) (A) (A) (A) (A) (A) (A) (A)
                 (A) (A) (A) (A) (A) (A) (A) (A) (A) (A) (A) (A)
                 (A) (A) (A) (A) (A) (A) (A) (A) (A) (A) (A) (A)
                 (A) (A) (A) (A) (A) (A) (A) (A) (A) (A) (A) (A)
                 (A) (A) (A) (A) (A) (A) (A) (A) (A) (A) (A) (A)
                 (A) (A) (A) (A) (A) (A) (A) (A) (A) (A) (A) (A)
                 (A) (A) (A) (A) (A) (A) (A) (A) (A) (A) (A) (A)
                 (A) (A) (A) (A) (A) (A) (A) (A) (A) (A) (A) (A)
                 (A) (A) (A) (A) (A) (A) (A) (A) (A) (A) (A) (A)
                 (A) (A) (A) (A) (A) (A) (A) (A) (A) (A) (A) (A)
                 (A) (A)
 Beta  Orbitals:
       Occupied  (A) (A) (A) (A) (A) (A) (A) (A) (A) (A) (A) (A)
                 (A) (A) (A) (A) (A) (A) (A) (A) (A) (A) (A) (A)
                 (A) (A) (A) (A) (A) (A) (A) (A) (A) (A) (A) (A)
                 (A) (A)
       Virtual   (A) (A) (A) (A) (A) (A) (A) (A) (A) (A) (A) (A)
                 (A) (A) (A) (A) (A) (A) (A) (A) (A) (A) (A) (A)
                 (A) (A) (A) (A) (A) (A) (A) (A) (A) (A) (A) (A)
                 (A) (A) (A) (A) (A) (A) (A) (A) (A) (A) (A) (A)
                 (A) (A) (A) (A) (A) (A) (A) (A) (A) (A) (A) (A)
                 (A) (A) (A) (A) (A) (A) (A) (A) (A) (A) (A) (A)
                 (A) (A) (A) (A) (A) (A) (A) (A) (A) (A) (A) (A)
                 (A) (A) (A) (A) (A) (A) (A) (A) (A) (A) (A) (A)
                 (A) (A) (A) (A) (A) (A) (A) (A) (A) (A) (A) (A)
                 (A) (A) (A) (A) (A) (A) (A) (A) (A) (A) (A) (A)
                 (A) (A) (A) (A) (A) (A) (A) (A) (A) (A) (A) (A)
                 (A) (A) (A) (A) (A) (A) (A) (A) (A) (A) (A) (A)
                 (A) (A) (A) (A) (A) (A) (A) (A) (A) (A) (A) (A)
                 (A) (A) (A) (A) (A) (A) (A) (A) (A) (A) (A) (A)
                 (A) (A) (A)
 The electronic state is 2-A.
 Alpha  occ. eigenvalues --  -38.45411 -38.45062 -38.44767 -38.44083 -38.43719
 Alpha  occ. eigenvalues --  -38.43214 -38.43129  -2.21292  -2.21132  -2.20666
 Alpha  occ. eigenvalues --   -2.20189  -2.19818  -2.19128  -2.19034  -1.15025
 Alpha  occ. eigenvalues --   -1.14948  -1.14917  -1.14884  -1.14844  -1.14722
 Alpha  occ. eigenvalues --   -1.14363  -1.14306  -1.14291  -1.13936  -1.13867
 Alpha  occ. eigenvalues --   -1.13791  -1.13520  -1.13438  -1.13399  -1.12804
 Alpha  occ. eigenvalues --   -1.12796  -1.12733  -1.12723  -1.12716  -1.12610
 Alpha  occ. eigenvalues --   -0.19199  -0.15459  -0.10799  -0.10601
 Alpha virt. eigenvalues --   -0.07298  -0.06063  -0.04046  -0.03311  -0.02786
 Alpha virt. eigenvalues --   -0.01857  -0.01694  -0.01473  -0.00646  -0.00541
 Alpha virt. eigenvalues --   -0.00103   0.00236   0.00446   0.00555   0.00577
 Alpha virt. eigenvalues --    0.00822   0.00946   0.01063   0.01255   0.01511
 Alpha virt. eigenvalues --    0.01605   0.01723   0.01904   0.01930   0.01956
 Alpha virt. eigenvalues --    0.02108   0.02224   0.02430   0.02517   0.02555
 Alpha virt. eigenvalues --    0.02680   0.02774   0.02817   0.02943   0.02993
 Alpha virt. eigenvalues --    0.03113   0.03352   0.03446   0.03632   0.03995
 Alpha virt. eigenvalues --    0.04081   0.04524   0.04674   0.05037   0.05185
 Alpha virt. eigenvalues --    0.05351   0.05564   0.05664   0.05833   0.06073
 Alpha virt. eigenvalues --    0.06285   0.06810   0.07028   0.07360   0.07565
 Alpha virt. eigenvalues --    0.07752   0.07889   0.08222   0.08701   0.09162
 Alpha virt. eigenvalues --    0.09401   0.10106   0.10394   0.11348   0.11870
 Alpha virt. eigenvalues --    0.12224   0.12786   0.13216   0.13408   0.13487
 Alpha virt. eigenvalues --    0.14330   0.14467   0.14976   0.15214   0.15343
 Alpha virt. eigenvalues --    0.16204   0.16837   0.17633   0.18748   0.24576
 Alpha virt. eigenvalues --    0.25531   0.27432   0.28175   0.28920   0.29310
 Alpha virt. eigenvalues --    0.30786   0.31184   0.32367   0.33247   0.34838
 Alpha virt. eigenvalues --    0.35165   0.35562   0.36598   0.37008   0.38731
 Alpha virt. eigenvalues --    0.39347   0.40241   0.41658   0.41977   0.42094
 Alpha virt. eigenvalues --    0.42982   0.43564   0.44028   0.44396   0.44661
 Alpha virt. eigenvalues --    0.44880   0.45477   0.46186   0.46884   0.47068
 Alpha virt. eigenvalues --    0.47739   0.48254   0.48803   0.49437   0.49714
 Alpha virt. eigenvalues --    0.50348   0.51432   0.51771   0.52639   0.53381
 Alpha virt. eigenvalues --    0.53580   0.54977   0.56273   0.57773   0.58948
 Alpha virt. eigenvalues --    0.62857   0.63728   0.69126   0.70408   0.71904
 Alpha virt. eigenvalues --    0.72381   0.74451   0.74957   0.79283   0.82180
 Alpha virt. eigenvalues --    2.08659   2.12503   2.17109   2.18242   2.23293
 Alpha virt. eigenvalues --    2.25959   2.34704   4.39862   4.41354   4.41947
 Alpha virt. eigenvalues --    4.42288   4.42681   4.43286   4.43656   4.44739
 Alpha virt. eigenvalues --    4.46148   4.46894   4.47521   4.49061   4.55891
 Alpha virt. eigenvalues --    4.60123   4.60785   4.64403   4.69668   4.69766
 Alpha virt. eigenvalues --    4.71722   4.73615   4.79102  96.29231  96.34266
 Alpha virt. eigenvalues --   96.41016  96.42251  96.48940  96.53215  96.63707
  Beta  occ. eigenvalues --  -38.45394 -38.45033 -38.44755 -38.44030 -38.43652
  Beta  occ. eigenvalues --  -38.43186 -38.43115  -2.21264  -2.21088  -2.20646
  Beta  occ. eigenvalues --   -2.20100  -2.19704  -2.19077  -2.19009  -1.15009
  Beta  occ. eigenvalues --   -1.14923  -1.14887  -1.14832  -1.14783  -1.14693
  Beta  occ. eigenvalues --   -1.14349  -1.14284  -1.14274  -1.13842  -1.13781
  Beta  occ. eigenvalues --   -1.13739  -1.13450  -1.13332  -1.13315  -1.12776
  Beta  occ. eigenvalues --   -1.12756  -1.12720  -1.12689  -1.12677  -1.12582
  Beta  occ. eigenvalues --   -0.18466  -0.15089  -0.10598
  Beta virt. eigenvalues --   -0.07135  -0.06643  -0.05933  -0.03586  -0.03127
  Beta virt. eigenvalues --   -0.02581  -0.01516  -0.01324  -0.01094  -0.00450
  Beta virt. eigenvalues --   -0.00088   0.00004   0.00286   0.00573   0.00632
  Beta virt. eigenvalues --    0.00702   0.00870   0.01022   0.01124   0.01338
  Beta virt. eigenvalues --    0.01633   0.01708   0.01751   0.01937   0.01956
  Beta virt. eigenvalues --    0.02066   0.02252   0.02331   0.02485   0.02576
  Beta virt. eigenvalues --    0.02596   0.02774   0.02815   0.02856   0.02989
  Beta virt. eigenvalues --    0.03051   0.03195   0.03428   0.03541   0.03724
  Beta virt. eigenvalues --    0.04044   0.04215   0.04635   0.04760   0.05142
  Beta virt. eigenvalues --    0.05300   0.05488   0.05591   0.05726   0.05939
  Beta virt. eigenvalues --    0.06262   0.06391   0.06882   0.07145   0.07459
  Beta virt. eigenvalues --    0.07753   0.07837   0.08034   0.08460   0.08803
  Beta virt. eigenvalues --    0.09259   0.09452   0.10424   0.10488   0.11666
  Beta virt. eigenvalues --    0.12165   0.12364   0.13031   0.13430   0.13591
  Beta virt. eigenvalues --    0.13684   0.14406   0.14760   0.15208   0.15321
  Beta virt. eigenvalues --    0.15551   0.16538   0.17147   0.17821   0.18922
  Beta virt. eigenvalues --    0.25057   0.25722   0.27636   0.28331   0.29095
  Beta virt. eigenvalues --    0.29625   0.31050   0.31553   0.32652   0.33532
  Beta virt. eigenvalues --    0.35112   0.35686   0.35915   0.36754   0.37205
  Beta virt. eigenvalues --    0.38963   0.39649   0.40490   0.41871   0.42089
  Beta virt. eigenvalues --    0.42558   0.43065   0.43725   0.44186   0.44454
  Beta virt. eigenvalues --    0.44795   0.45060   0.45633   0.46373   0.47045
  Beta virt. eigenvalues --    0.47254   0.47834   0.48365   0.48921   0.49676
  Beta virt. eigenvalues --    0.49921   0.50513   0.51590   0.51981   0.52815
  Beta virt. eigenvalues --    0.53564   0.53810   0.55109   0.56501   0.58132
  Beta virt. eigenvalues --    0.59149   0.63113   0.63932   0.69397   0.70574
  Beta virt. eigenvalues --    0.71960   0.72497   0.74591   0.75040   0.79407
  Beta virt. eigenvalues --    0.82452   2.08757   2.12574   2.17169   2.18325
  Beta virt. eigenvalues --    2.23466   2.26124   2.34879   4.39933   4.41419
  Beta virt. eigenvalues --    4.42030   4.42335   4.42739   4.43321   4.43700
  Beta virt. eigenvalues --    4.44778   4.46175   4.46941   4.47592   4.49094
  Beta virt. eigenvalues --    4.55947   4.60195   4.60836   4.64491   4.69705
  Beta virt. eigenvalues --    4.69803   4.71749   4.73661   4.79204  96.29266
  Beta virt. eigenvalues --   96.34292  96.41041  96.42275  96.48995  96.53265
  Beta virt. eigenvalues --   96.63771
          Condensed to atoms (all electrons):
               1          2          3          4          5          6
     1  Na  12.105583   0.542892   0.166087  -1.846028   1.741156  -0.517792
     2  Na   0.542892  12.064387   0.977766  -2.063863   0.359554  -0.271294
     3  Na   0.166087   0.977766  12.379311  -1.656744   0.192139   0.061721
     4  Na  -1.846028  -2.063863  -1.656744  15.978585  -2.084767   0.933828
     5  Na   1.741156   0.359554   0.192139  -2.084767  14.700926  -0.947682
     6  Na  -0.517792  -0.271294   0.061721   0.933828  -0.947682  10.974033
     7  Na  -1.081411  -1.239795  -1.117388   2.489477  -2.855086   0.722881
               7
     1  Na  -1.081411
     2  Na  -1.239795
     3  Na  -1.117388
     4  Na   2.489477
     5  Na  -2.855086
     6  Na   0.722881
     7  Na  13.785877
          Atomic-Atomic Spin Densities.
               1          2          3          4          5          6
     1  Na   0.212991  -0.209763  -0.320846  -0.123763   0.401988  -0.092981
     2  Na  -0.209763  -0.192852  -0.170935   0.531686   0.012538  -0.026022
     3  Na  -0.320846  -0.170935  -0.097834   0.585982  -0.136901  -0.067495
     4  Na  -0.123763   0.531686   0.585982  -0.077041  -0.561255   0.297838
     5  Na   0.401988   0.012538  -0.136901  -0.561255   0.639207  -0.182952
     6  Na  -0.092981  -0.026022  -0.067495   0.297838  -0.182952   0.110199
     7  Na  -0.062076   0.141117   0.184915   0.068813  -0.432366   0.230569
               7
     1  Na  -0.062076
     2  Na   0.141117
     3  Na   0.184915
     4  Na   0.068813
     5  Na  -0.432366
     6  Na   0.230569
     7  Na   0.269149
 Mulliken charges and spin densities:
               1          2
     1  Na  -0.110486  -0.194450
     2  Na   0.630353   0.085769
     3  Na  -0.002891  -0.023115
     4  Na  -0.750487   0.722260
     5  Na  -0.106241  -0.259741
     6  Na   0.044306   0.269156
     7  Na   0.295446   0.400120
 Sum of Mulliken charges =  -0.00000   1.00000
 Mulliken charges and spin densities with hydrogens summed into heavy atoms:
               1          2
     1  Na  -0.110486  -0.194450
     2  Na   0.630353   0.085769
     3  Na  -0.002891  -0.023115
     4  Na  -0.750487   0.722260
     5  Na  -0.106241  -0.259741
     6  Na   0.044306   0.269156
     7  Na   0.295446   0.400120
 Electronic spatial extent (au):  <R**2>=           2620.6192
 Charge=             -0.0000 electrons
 Dipole moment (field-independent basis, Debye):
    X=             -1.6951    Y=              0.4239    Z=              0.1736  Tot=              1.7559
 Quadrupole moment (field-independent basis, Debye-Ang):
   XX=            -56.3876   YY=            -72.7772   ZZ=            -68.9115
   XY=              2.3961   XZ=              4.3905   YZ=              2.5911
 Traceless Quadrupole moment (field-independent basis, Debye-Ang):
   XX=              9.6379   YY=             -6.7518   ZZ=             -2.8861
   XY=              2.3961   XZ=              4.3905   YZ=              2.5911
 Octapole moment (field-independent basis, Debye-Ang**2):
  XXX=            -36.5658  YYY=             11.8983  ZZZ=              4.4744  XYY=            -24.8791
  XXY=             -1.8524  XXZ=             18.7775  XZZ=              3.6788  YZZ=             -1.5506
  YYZ=             -0.5544  XYZ=              0.6781
 Hexadecapole moment (field-independent basis, Debye-Ang**3):
 XXXX=          -2732.8410 YYYY=          -1127.3190 ZZZZ=           -550.1057 XXXY=             43.8038
 XXXZ=             48.6911 YYYX=             33.7692 YYYZ=             15.3955 ZZZX=             41.6931
 ZZZY=             17.6143 XXYY=           -553.7082 XXZZ=           -601.6037 YYZZ=           -300.0100
 XXYZ=             17.2740 YYXZ=              7.2259 ZZXY=              6.2046
 N-N= 3.455733090865D+02 E-N=-3.420295782680D+03  KE= 1.133159281380D+03
                          Isotropic Fermi Contact Couplings
        Atom                 a.u.       MegaHertz       Gauss      10(-4) cm-1
     1  Na(23)             0.14266     168.77047      60.22150      56.29577
     2  Na(23)             0.10410     123.15130      43.94345      41.07885
     3  Na(23)             0.03504      41.45567      14.79241      13.82812
     4  Na(23)             0.03256      38.51380      13.74268      12.84682
     5  Na(23)             0.22457     265.66691      94.79656      88.61694
     6  Na(23)             0.04955      58.62066      20.91731      19.55375
     7  Na(23)             0.03537      41.84708      14.93208      13.95868
 --------------------------------------------------------
       Center         ----  Spin Dipole Couplings  ----
                      3XX-RR        3YY-RR        3ZZ-RR
 --------------------------------------------------------
     1   Atom        0.056053     -0.028870     -0.027183
     2   Atom       -0.011002      0.002729      0.008273
     3   Atom       -0.001294     -0.011460      0.012754
     4   Atom        0.017306     -0.020966      0.003659
     5   Atom        0.024938     -0.023415     -0.001523
     6   Atom        0.011457     -0.011071     -0.000386
     7   Atom       -0.004403      0.006617     -0.002214
 --------------------------------------------------------
                        XY            XZ            YZ
 --------------------------------------------------------
     1   Atom        0.024554     -0.024214     -0.011018
     2   Atom        0.002925     -0.000258     -0.016002
     3   Atom       -0.000134     -0.013774      0.005873
     4   Atom        0.017461     -0.047205     -0.020248
     5   Atom       -0.003680      0.034669     -0.006865
     6   Atom        0.006325      0.011025      0.002121
     7   Atom       -0.009880      0.004861     -0.008054
 --------------------------------------------------------


 ---------------------------------------------------------------------------------
              Anisotropic Spin Dipole Couplings in Principal Axis System
 ---------------------------------------------------------------------------------

       Atom             a.u.   MegaHertz   Gauss  10(-4) cm-1        Axes

              Baa    -0.0391    -5.526    -1.972    -1.843 -0.0373  0.7713  0.6354
     1 Na(23) Bbb    -0.0306    -4.324    -1.543    -1.442  0.3675 -0.5807  0.7265
              Bcc     0.0698     9.851     3.515     3.286  0.9293  0.2606 -0.2617
 
              Baa    -0.0130    -1.838    -0.656    -0.613  0.7386 -0.5432 -0.3994
     2 Na(23) Bbb    -0.0089    -1.251    -0.446    -0.417  0.6712  0.5367  0.5114
              Bcc     0.0219     3.089     1.102     1.030 -0.0634 -0.6457  0.7609
 
              Baa    -0.0142    -1.999    -0.713    -0.667 -0.4078  0.8261 -0.3890
     3 Na(23) Bbb    -0.0078    -1.103    -0.394    -0.368  0.7612  0.5429  0.3548
              Bcc     0.0220     3.102     1.107     1.035 -0.5042  0.1514  0.8502
 
              Baa    -0.0387    -5.458    -1.948    -1.821  0.5395  0.3462  0.7676
     4 Na(23) Bbb    -0.0276    -3.893    -1.389    -1.299 -0.4428  0.8920 -0.0910
              Bcc     0.0662     9.351     3.337     3.119  0.7161  0.2908 -0.6345
 
              Baa    -0.0283    -4.003    -1.428    -1.335 -0.3894  0.6362  0.6660
     5 Na(23) Bbb    -0.0211    -2.983    -1.064    -0.995  0.4247  0.7657 -0.4831
              Bcc     0.0495     6.987     2.493     2.330  0.8173 -0.0948  0.5684
 
              Baa    -0.0128    -1.807    -0.645    -0.603 -0.2922  0.9514  0.0970
     6 Na(23) Bbb    -0.0066    -0.939    -0.335    -0.313 -0.4479 -0.2257  0.8651
              Bcc     0.0194     2.746     0.980     0.916  0.8450  0.2093  0.4921
 
              Baa    -0.0102    -1.442    -0.514    -0.481  0.8677  0.4963 -0.0275
     7 Na(23) Bbb    -0.0068    -0.962    -0.343    -0.321 -0.1967  0.3938  0.8979
              Bcc     0.0170     2.404     0.858     0.802 -0.4565  0.7737 -0.4393
 

 ---------------------------------------------------------------------------------

 No NMR shielding tensors so no spin-rotation constants.
 Leave Link  601 at Mon Nov 13 17:18:14 2023, MaxMem=  1879048192 cpu:               3.0 elap:               0.2
 (Enter /home/sekinelabo/g16/l701.exe)
 ... and contract with generalized density number  0.
 Compute integral first derivatives.
 Leave Link  701 at Mon Nov 13 17:18:15 2023, MaxMem=  1879048192 cpu:               1.7 elap:               0.1
 (Enter /home/sekinelabo/g16/l702.exe)
 L702 exits ... SP integral derivatives will be done elsewhere.
 Leave Link  702 at Mon Nov 13 17:18:15 2023, MaxMem=  1879048192 cpu:               0.4 elap:               0.0
 (Enter /home/sekinelabo/g16/l703.exe)
 Integral derivatives from FoFJK, PRISM(SPDF).
 Compute integral first derivatives, UseDBF=F ICtDFT=           0.
 Calling FoFJK, ICntrl=      2127 FMM=F ISym2X=0 I1Cent= 0 IOpClX= 1 NMat=1 NMatS=1 NMatT=0.
 FoFJK:  IHMeth= 1 ICntrl=    2127 DoSepK=F KAlg= 0 I1Cent=           0 FoldK=F
 IRaf=         0 NMat=       1 IRICut=       1 DoRegI=T DoRafI=F ISym2E= 0 IDoP0=0 IntGTp=1.
 FoFCou: FMM=F IPFlag=           0 FMFlag=      100000 FMFlg1=         800
         NFxFlg=           0 DoJE=F BraDBF=F KetDBF=F FulRan=T
         wScrn=  0.000000 ICntrl=      2127 IOpCl=  1 I1Cent=           0 NGrid=           0
         NMat0=    1 NMatS0=      1 NMatT0=    0 NMatD0=    1 NMtDS0=    0 NMtDT0=    0
 Symmetry not used in FoFCou.
 Leave Link  703 at Mon Nov 13 17:18:17 2023, MaxMem=  1879048192 cpu:              34.6 elap:               2.3
 (Enter /home/sekinelabo/g16/l716.exe)
 Dipole        =-6.66898167D-01 1.66768705D-01 6.82965838D-02
 ***** Axes restored to original set *****
 -------------------------------------------------------------------
 Center     Atomic                   Forces (Hartrees/Bohr)
 Number     Number              X              Y              Z
 -------------------------------------------------------------------
      1       11          -0.000704665   -0.001981462   -0.013998623
      2       11          -0.008324899   -0.007277939    0.003377123
      3       11           0.003074140    0.011667101    0.001943669
      4       11           0.001492878   -0.000536448    0.012411367
      5       11          -0.000706028   -0.004790059   -0.008354126
      6       11          -0.002309441    0.009857026    0.002174469
      7       11           0.007478016   -0.006938220    0.002446121
 -------------------------------------------------------------------
 Cartesian Forces:  Max     0.013998623 RMS     0.006727590
 Z-matrix is all fixed cartesians, so copy forces.
 Force constants in Cartesian coordinates: 
                1             2             3             4             5 
      1  0.126324D+00
      2  0.814285D-01  0.217123D+00
      3 -0.767005D-01 -0.149370D+00  0.307429D+00
      4 -0.221316D-01 -0.518727D-02 -0.194859D-02  0.576235D-01
      5 -0.774840D-02 -0.139841D-01  0.674361D-03  0.223541D-01  0.313028D-01
      6  0.249528D-01  0.192991D-01 -0.321973D-01 -0.255465D-02 -0.538957D-02
      7 -0.108188D-01 -0.298856D-02 -0.319851D-02  0.208856D-02 -0.102298D-01
      8  0.304342D-02 -0.283425D-01 -0.286821D-02  0.930573D-03 -0.560415D-02
      9  0.157147D-02 -0.318617D-01 -0.237770D-01  0.472453D-03  0.187356D-02
     10 -0.124637D-01  0.143748D-02 -0.937446D-02 -0.328358D-01 -0.638314D-02
     11  0.909420D-03 -0.653575D-02 -0.270524D-02 -0.123548D-01 -0.140447D-01
     12 -0.994564D-02  0.447875D-02 -0.531595D-01  0.156581D-02  0.214575D-02
     13 -0.124234D+00 -0.148051D+00  0.180605D+00 -0.473764D-02  0.129093D-02
     14 -0.158097D+00 -0.321682D+00  0.309006D+00 -0.569027D-02  0.851216D-03
     15  0.148687D+00  0.311449D+00 -0.378373D+00  0.243244D-02  0.215884D-02
     16 -0.418469D-03 -0.479204D-02 -0.181594D-02  0.884341D-05 -0.530344D-04
     17  0.100324D-02  0.540630D-02  0.362840D-03 -0.112657D-04  0.358888D-04
     18 -0.184360D-02 -0.376495D-02  0.338154D-02  0.106235D-04  0.266227D-04
     19  0.437429D-01  0.781525D-01 -0.875674D-01 -0.158660D-04  0.769281D-03
     20  0.794605D-01  0.148016D+00 -0.155100D+00 -0.410824D-04  0.144309D-02
     21 -0.867220D-01 -0.150231D+00  0.176696D+00  0.219094D-04 -0.148958D-02
                6             7             8             9            10 
      6  0.421515D-01
      7  0.978240D-05  0.234819D-01
      8 -0.610147D-03 -0.727313D-02  0.685388D-01
      9  0.400285D-02  0.299550D-02  0.286153D-02  0.377848D-01
     10 -0.247329D-01 -0.132837D-01  0.348072D-02 -0.687055D-02  0.891582D-01
     11 -0.134974D-01  0.968228D-02 -0.317808D-01  0.287116D-01  0.356282D-02
     12 -0.219257D-01 -0.203519D-02  0.489333D-04 -0.203942D-01  0.168430D-01
     13  0.180419D-02 -0.175654D-02 -0.616551D-03  0.249805D-02 -0.269517D-01
     14 -0.701302D-03  0.101681D-01 -0.369607D-02 -0.431069D-03 -0.408175D-02
     15  0.894774D-02  0.283967D-02  0.144987D-02  0.112861D-02  0.165468D-01
     16  0.000000D+00 -0.312799D-04 -0.292530D-04  0.000000D+00 -0.248803D-02
     17 -0.246477D-04  0.274528D-04  0.179210D-04  0.309431D-04  0.106408D-02
     18  0.699593D-04 -0.222478D-05  0.200313D-04 -0.889772D-04  0.301609D-02
     19  0.520594D-03  0.319939D-03  0.464224D-03 -0.667223D-03 -0.113519D-02
     20  0.923955D-03  0.613645D-03  0.866819D-03 -0.118489D-02  0.919797D-03
     21 -0.104901D-02 -0.609018D-03 -0.902016D-03  0.134393D-02  0.457200D-02
               11            12            13            14            15 
     11  0.724690D-01
     12 -0.574726D-02  0.134087D+00
     13  0.340779D-03 -0.304805D-02  0.308376D+00
     14 -0.248217D-01 -0.197486D-02  0.315218D+00  0.699852D+00
     15 -0.818136D-02 -0.463797D-01 -0.339298D+00 -0.611138D+00  0.805656D+00
     16 -0.380839D-02 -0.179146D-02 -0.246765D-01 -0.133924D-01 -0.807891D-03
     17  0.161044D-02  0.770315D-03 -0.440940D-02 -0.373482D-01 -0.565246D-02
     18  0.466894D-02  0.215984D-02 -0.357527D-02 -0.976542D-02 -0.181907D-01
     19  0.166792D-02 -0.158844D-02 -0.126019D+00 -0.144125D+00  0.169600D+00
     20  0.310354D-02  0.278368D-03 -0.163773D+00 -0.313155D+00  0.309914D+00
     21 -0.324935D-02  0.561220D-02  0.161014D+00  0.315005D+00 -0.372789D+00
               16            17            18            19            20 
     16  0.360658D-01
     17  0.711326D-03  0.695834D-01
     18  0.651710D-02  0.762950D-02  0.987779D-02
     19 -0.846034D-02  0.161457D-02 -0.412271D-02  0.915675D-01
     20  0.213638D-01 -0.393058D-01  0.118528D-02  0.614565D-01  0.199032D+00
     21 -0.210225D-02 -0.311649D-02  0.279060D-02 -0.761744D-01 -0.156016D+00
               21 
     21  0.187396D+00
 Leave Link  716 at Mon Nov 13 17:18:17 2023, MaxMem=  1879048192 cpu:               0.4 elap:               0.0
 (Enter /home/sekinelabo/g16/l103.exe)

 GradGradGradGradGradGradGradGradGradGradGradGradGradGradGradGradGradGrad
 Berny optimization.
 Search for a local minimum.
 Step number   1 out of a maximum of    2
 All quantities printed in internal units (Hartrees-Bohrs-Radians)
 Second derivative matrix not updated -- first step.
 ITU=  0
     Eigenvalues ---    0.00930   0.01403   0.02515   0.04487   0.05252
     Eigenvalues ---    0.06131   0.09748   0.10947   0.11113   0.12047
     Eigenvalues ---    0.12733   0.17355   0.19326   0.19723   2.27562
 Quadratic step=4.012D-01 exceeds max=3.000D-01 adjusted using Lamda=-1.430D-02.
 Angle between NR and scaled steps=  11.56 degrees.
 Angle between quadratic step and forces=  29.64 degrees.
 Linear search not attempted -- first point.
 B after Tr=     0.000000    0.000000   -0.000000
         Rot=    1.000000   -0.000000    0.000000    0.000000 Ang=   0.00 deg.
 Variable       Old X    -DE/DX   Delta X   Delta X   Delta X     New X
                                 (Linear)    (Quad)   (Total)
    X1        3.56476  -0.00070   0.00000  -0.04646  -0.04646   3.51830
    Y1        2.57378  -0.00198   0.00000  -0.02631  -0.02631   2.54748
    Z1        0.00000  -0.01400   0.00000  -0.07877  -0.07877  -0.07877
    X2        0.00000  -0.00832   0.00000  -0.12603  -0.12603  -0.12603
    Y2        0.00000  -0.00728   0.00000  -0.08145  -0.08145  -0.08145
    Z2        3.58364   0.00338   0.00000   0.04319   0.04319   3.62683
    X3        3.43401   0.00307   0.00000   0.08484   0.08484   3.51885
    Y3        7.31163   0.01167   0.00000   0.12720   0.12720   7.43883
    Z3        3.12402   0.00194   0.00000   0.00158   0.00158   3.12559
    X4        4.78851   0.00149   0.00000  -0.02206  -0.02206   4.76645
    Y4        2.34358  -0.00054   0.00000  -0.01838  -0.01838   2.32519
    Z4        5.50834   0.01241   0.00000   0.04573   0.04573   5.55407
    X5        8.87822  -0.00071   0.00000   0.01636   0.01636   8.89458
    Y5        1.47542  -0.00479   0.00000  -0.04445  -0.04445   1.43098
    Z5        1.67399  -0.00835   0.00000  -0.06023  -0.06023   1.61376
    X6       12.43308  -0.00231   0.00000  -0.02880  -0.02880  12.40428
    Y6        5.64430   0.00986   0.00000   0.07624   0.07624   5.72053
    Z6        3.13568   0.00217   0.00000   0.04139   0.04139   3.17707
    X7       14.18720   0.00748   0.00000   0.12215   0.12215  14.30935
    Y7        0.25864  -0.00694   0.00000  -0.03285  -0.03285   0.22579
    Z7        3.23696   0.00245   0.00000   0.00711   0.00711   3.24408
         Item               Value     Threshold  Converged?
 Maximum Force            0.013999     0.000450     NO 
 RMS     Force            0.006728     0.000300     NO 
 Maximum Displacement     0.127198     0.001800     NO 
 RMS     Displacement     0.065469     0.001200     NO 
 Predicted change in Energy=-4.663054D-03
 GradGradGradGradGradGradGradGradGradGradGradGradGradGradGradGradGradGrad

 Leave Link  103 at Mon Nov 13 17:18:17 2023, MaxMem=  1879048192 cpu:               0.3 elap:               0.0
 (Enter /home/sekinelabo/g16/l9999.exe)
 1\1\GINC-SEKINELABO-XA7R-R37\Force\UB3LYP\6-311+G(d)\Na7(2)\SEKINELABO
 \13-Nov-2023\0\\#P B3LYP/6-311+g(d) force\\Gaussian input prepared by 
 ASE\\0,2\Na,1.8863877504,1.3619866513,0.\Na,0.,0.,1.8963799437\Na,1.81
 71975382,3.8691491129,1.6531585643\Na,2.5339692173,1.2401669426,2.9148
 872186\Na,4.6981540955,0.7807594872,0.8858378007\Na,6.5793028474,2.986
 8325379,1.6593306311\Na,7.5075436895,0.1368662551,1.7129276218\\Versio
 n=ES64L-G16RevB.01\State=2-A\HF=-1136.0869863\S2=0.768697\S2-1=0.\S2A=
 0.750241\RMSD=6.842e-09\RMSF=6.728e-03\Dipole=0.6668982,0.1667687,-0.0
 682966\Quadrupole=7.1655313,-5.0197857,-2.1457456,-1.781456,3.2642151,
 -1.9264449\PG=C01 [X(Na7)]\\@


 WHEN ALL ELSE FAILS, TRY THE BOSS'S SUGGESTION.
 Job cpu time:       0 days  0 hours  5 minutes 40.6 seconds.
 Elapsed time:       0 days  0 hours  0 minutes 28.5 seconds.
 File lengths (MBytes):  RWF=     32 Int=      0 D2E=      0 Chk=      5 Scr=      1
 Normal termination of Gaussian 16 at Mon Nov 13 17:18:17 2023.
