 Entering Gaussian System, Link 0=g16
 Initial command:
 /home/sekinelabo/g16/l1.exe "/home/sekinelabo/g16temp/Gau-4011344.inp" -scrdir="/home/sekinelabo/g16temp/"
 Entering Link 1 = /home/sekinelabo/g16/l1.exe PID=   4011346.
  
 Copyright (c) 1988-2017, Gaussian, Inc.  All Rights Reserved.
  
 This is part of the Gaussian(R) 16 program.  It is based on
 the Gaussian(R) 09 system (copyright 2009, Gaussian, Inc.),
 the Gaussian(R) 03 system (copyright 2003, Gaussian, Inc.),
 the Gaussian(R) 98 system (copyright 1998, Gaussian, Inc.),
 the Gaussian(R) 94 system (copyright 1995, Gaussian, Inc.),
 the Gaussian 92(TM) system (copyright 1992, Gaussian, Inc.),
 the Gaussian 90(TM) system (copyright 1990, Gaussian, Inc.),
 the Gaussian 88(TM) system (copyright 1988, Gaussian, Inc.),
 the Gaussian 86(TM) system (copyright 1986, Carnegie Mellon
 University), and the Gaussian 82(TM) system (copyright 1983,
 Carnegie Mellon University). Gaussian is a federally registered
 trademark of Gaussian, Inc.
  
 This software contains proprietary and confidential information,
 including trade secrets, belonging to Gaussian, Inc.
  
 This software is provided under written license and may be
 used, copied, transmitted, or stored only in accord with that
 written license.
  
 The following legend is applicable only to US Government
 contracts under FAR:
  
                    RESTRICTED RIGHTS LEGEND
  
 Use, reproduction and disclosure by the US Government is
 subject to restrictions as set forth in subparagraphs (a)
 and (c) of the Commercial Computer Software - Restricted
 Rights clause in FAR 52.227-19.
  
 Gaussian, Inc.
 340 Quinnipiac St., Bldg. 40, Wallingford CT 06492
  
  
 ---------------------------------------------------------------
 Warning -- This program may not be used in any manner that
 competes with the business of Gaussian, Inc. or will provide
 assistance to any competitor of Gaussian, Inc.  The licensee
 of this program is prohibited from giving any competitor of
 Gaussian, Inc. access to this program.  By using this program,
 the user acknowledges that Gaussian, Inc. is engaged in the
 business of creating and licensing software in the field of
 computational chemistry and represents and warrants to the
 licensee that it is not a competitor of Gaussian, Inc. and that
 it will not use this program in any manner prohibited above.
 ---------------------------------------------------------------
  

 Cite this work as:
 Gaussian 16, Revision B.01,
 M. J. Frisch, G. W. Trucks, H. B. Schlegel, G. E. Scuseria, 
 M. A. Robb, J. R. Cheeseman, G. Scalmani, V. Barone, 
 G. A. Petersson, H. Nakatsuji, X. Li, M. Caricato, A. V. Marenich, 
 J. Bloino, B. G. Janesko, R. Gomperts, B. Mennucci, H. P. Hratchian, 
 J. V. Ortiz, A. F. Izmaylov, J. L. Sonnenberg, D. Williams-Young, 
 F. Ding, F. Lipparini, F. Egidi, J. Goings, B. Peng, A. Petrone, 
 T. Henderson, D. Ranasinghe, V. G. Zakrzewski, J. Gao, N. Rega, 
 G. Zheng, W. Liang, M. Hada, M. Ehara, K. Toyota, R. Fukuda, 
 J. Hasegawa, M. Ishida, T. Nakajima, Y. Honda, O. Kitao, H. Nakai, 
 T. Vreven, K. Throssell, J. A. Montgomery, Jr., J. E. Peralta, 
 F. Ogliaro, M. J. Bearpark, J. J. Heyd, E. N. Brothers, K. N. Kudin, 
 V. N. Staroverov, T. A. Keith, R. Kobayashi, J. Normand, 
 K. Raghavachari, A. P. Rendell, J. C. Burant, S. S. Iyengar, 
 J. Tomasi, M. Cossi, J. M. Millam, M. Klene, C. Adamo, R. Cammi, 
 J. W. Ochterski, R. L. Martin, K. Morokuma, O. Farkas, 
 J. B. Foresman, and D. J. Fox, Gaussian, Inc., Wallingford CT, 2016.
 
 ******************************************
 Gaussian 16:  ES64L-G16RevB.01 20-Dec-2017
                13-Nov-2023 
 ******************************************
 %mem=14GB
 %chk=checkpoint.chk
 %nprocshared=16
 Will use up to   16 processors via shared memory.
 -------------------------
 #P B3LYP/6-311+g(d) force
 -------------------------
 1/10=7,30=1,38=1/1,3;
 2/12=2,17=6,18=5,40=1/2;
 3/5=4,6=6,7=11,11=2,25=1,30=1,71=1,74=-5/1,2,3;
 4//1;
 5/5=2,38=5/2;
 6/7=2,8=2,9=2,10=2,28=1/1;
 7/29=1/1,2,3,16;
 1/10=7,30=1/3;
 99//99;
 Leave Link    1 at Mon Nov 13 15:20:39 2023, MaxMem=  1879048192 cpu:               0.3 elap:               0.0
 (Enter /home/sekinelabo/g16/l101.exe)
 ------------------------------
 Gaussian input prepared by ASE
 ------------------------------
 Symbolic Z-matrix:
 Charge =  0 Multiplicity = 2
 Na                    6.18175   4.64234   0. 
 Na                    5.28355   6.17927   4.49105 
 Na                    7.99317   0.        3.30539 
 Na                    7.11821   2.4609    1.83191 
 Na                    4.6459    4.02628   2.49971 
 Na                    2.6563    1.90755   3.25198 
 Na                    0.        1.99018   1.86037 
 
 ITRead=  0  0  0  0  0  0  0
 MicOpt= -1 -1 -1 -1 -1 -1 -1
 NAtoms=      7 NQM=        7 NQMF=       0 NMMI=      0 NMMIF=      0
                NMic=       0 NMicF=      0.
                    Isotopes and Nuclear Properties:
 (Nuclear quadrupole moments (NQMom) in fm**2, nuclear magnetic moments (NMagM)
  in nuclear magnetons)

  Atom         1           2           3           4           5           6           7
 IAtWgt=          23          23          23          23          23          23          23
 AtmWgt=  22.9897697  22.9897697  22.9897697  22.9897697  22.9897697  22.9897697  22.9897697
 NucSpn=           3           3           3           3           3           3           3
 AtZEff=  -0.0000000  -0.0000000  -0.0000000  -0.0000000  -0.0000000  -0.0000000  -0.0000000
 NQMom=   10.4000000  10.4000000  10.4000000  10.4000000  10.4000000  10.4000000  10.4000000
 NMagM=    2.2175200   2.2175200   2.2175200   2.2175200   2.2175200   2.2175200   2.2175200
 AtZNuc=  11.0000000  11.0000000  11.0000000  11.0000000  11.0000000  11.0000000  11.0000000
 Leave Link  101 at Mon Nov 13 15:20:39 2023, MaxMem=  1879048192 cpu:               2.7 elap:               0.2
 (Enter /home/sekinelabo/g16/l103.exe)

 GradGradGradGradGradGradGradGradGradGradGradGradGradGradGradGradGradGrad
 Berny optimization.
 Initialization pass.
 Trust Radius=3.00D-01 FncErr=1.00D-07 GrdErr=1.00D-07 EigMax=2.50D+02 EigMin=1.00D-04
 Number of steps in this run=      2 maximum allowed number of steps=      2.
 GradGradGradGradGradGradGradGradGradGradGradGradGradGradGradGradGradGrad

 Leave Link  103 at Mon Nov 13 15:20:39 2023, MaxMem=  1879048192 cpu:               0.3 elap:               0.0
 (Enter /home/sekinelabo/g16/l202.exe)
                          Input orientation:                          
 ---------------------------------------------------------------------
 Center     Atomic      Atomic             Coordinates (Angstroms)
 Number     Number       Type             X           Y           Z
 ---------------------------------------------------------------------
      1         11           0        6.181752    4.642336    0.000000
      2         11           0        5.283547    6.179268    4.491050
      3         11           0        7.993174    0.000000    3.305393
      4         11           0        7.118208    2.460900    1.831913
      5         11           0        4.645902    4.026276    2.499710
      6         11           0        2.656299    1.907547    3.251978
      7         11           0        0.000000    1.990183    1.860366
 ---------------------------------------------------------------------
                    Distance matrix (angstroms):
                    1          2          3          4          5
     1  Na   0.000000
     2  Na   4.830989   0.000000
     3  Na   5.979813   6.850636   0.000000
     4  Na   2.998587   4.925774   2.998789   0.000000
     5  Na   2.997818   3.001233   5.297570   3.001442   0.000000
     6  Na   5.521164   5.165785   5.667789   4.715021   3.002239
     7  Na   6.979179   7.237735   8.363000   7.133812   5.112616
                    6          7
     6  Na   0.000000
     7  Na   2.999889   0.000000
 Stoichiometry    Na7(2)
 Framework group  C1[X(Na7)]
 Deg. of freedom    15
 Full point group                 C1      NOp   1
 Largest Abelian subgroup         C1      NOp   1
 Largest concise Abelian subgroup C1      NOp   1
                         Standard orientation:                         
 ---------------------------------------------------------------------
 Center     Atomic      Atomic             Coordinates (Angstroms)
 Number     Number       Type             X           Y           Z
 ---------------------------------------------------------------------
      1         11           0       -1.341911    1.612835    2.462916
      2         11           0       -0.443707    3.149767   -2.028134
      3         11           0       -3.153334   -3.029501   -0.842478
      4         11           0       -2.278368   -0.568602    0.631003
      5         11           0        0.193938    0.996774   -0.036795
      6         11           0        2.183542   -1.121954   -0.789062
      7         11           0        4.839840   -1.039319    0.602550
 ---------------------------------------------------------------------
 Rotational constants (GHZ):           0.5841787           0.3814081           0.3108531
 Leave Link  202 at Mon Nov 13 15:20:39 2023, MaxMem=  1879048192 cpu:               0.1 elap:               0.0
 (Enter /home/sekinelabo/g16/l301.exe)
 Standard basis: 6-311+G(d) (5D, 7F)
 Ernie: Thresh=  0.10000D-02 Tol=  0.10000D-05 Strict=F.
 There are   217 symmetry adapted cartesian basis functions of A   symmetry.
 There are   210 symmetry adapted basis functions of A   symmetry.
   210 basis functions,   350 primitive gaussians,   217 cartesian basis functions
    39 alpha electrons       38 beta electrons
       nuclear repulsion energy       303.8457654531 Hartrees.
 IExCor=  402 DFT=T Ex+Corr=B3LYP ExCW=0 ScaHFX=  0.200000
 ScaDFX=  0.800000  0.720000  1.000000  0.810000 ScalE2=  1.000000  1.000000
 IRadAn=      5 IRanWt=     -1 IRanGd=            0 ICorTp=0 IEmpDi=  4
 NAtoms=    7 NActive=    7 NUniq=    7 SFac= 1.00D+00 NAtFMM=   60 NAOKFM=F Big=F
 Integral buffers will be    131072 words long.
 Raffenetti 2 integral format.
 Two-electron integral symmetry is turned on.
 Leave Link  301 at Mon Nov 13 15:20:39 2023, MaxMem=  1879048192 cpu:               0.5 elap:               0.0
 (Enter /home/sekinelabo/g16/l302.exe)
 NPDir=0 NMtPBC=     1 NCelOv=     1 NCel=       1 NClECP=     1 NCelD=      1
         NCelK=      1 NCelE2=     1 NClLst=     1 CellRange=     0.0.
 One-electron integrals computed using PRISM.
 One-electron integral symmetry used in STVInt
 NBasis=   210 RedAO= T EigKep=  1.51D-06  NBF=   210
 NBsUse=   210 1.00D-06 EigRej= -1.00D+00 NBFU=   210
 Precomputing XC quadrature grid using
 IXCGrd= 4 IRadAn=           5 IRanWt=          -1 IRanGd=           0 AccXCQ= 0.00D+00.
 Generated NRdTot=       0 NPtTot=           0 NUsed=           0 NTot=          32
 NSgBfM=   207   205   207   207   207 MxSgAt=     7 MxSgA2=     7.
 Leave Link  302 at Mon Nov 13 15:20:39 2023, MaxMem=  1879048192 cpu:               2.2 elap:               0.1
 (Enter /home/sekinelabo/g16/l303.exe)
 DipDrv:  MaxL=1.
 Leave Link  303 at Mon Nov 13 15:20:39 2023, MaxMem=  1879048192 cpu:               0.6 elap:               0.0
 (Enter /home/sekinelabo/g16/l401.exe)
 ExpMin= 7.60D-03 ExpMax= 3.62D+04 ExpMxC= 1.21D+03 IAcc=3 IRadAn=         5 AccDes= 0.00D+00
 Harris functional with IExCor=  402 and IRadAn=       5 diagonalized for initial guess.
 HarFok:  IExCor=  402 AccDes= 0.00D+00 IRadAn=         5 IDoV= 1 UseB2=F ITyADJ=14
 ICtDFT=  3500011 ScaDFX=  1.000000  1.000000  1.000000  1.000000
 FoFCou: FMM=F IPFlag=           0 FMFlag=      100000 FMFlg1=           0
         NFxFlg=           0 DoJE=T BraDBF=F KetDBF=T FulRan=T
         wScrn=  0.000000 ICntrl=       500 IOpCl=  0 I1Cent=   200000004 NGrid=           0
         NMat0=    1 NMatS0=      1 NMatT0=    0 NMatD0=    1 NMtDS0=    0 NMtDT0=    0
 Petite list used in FoFCou.
 Harris En= -1135.86754339002    
 JPrj=0 DoOrth=F DoCkMO=F.
 Initial guess <Sx>= 0.0000 <Sy>= 0.0000 <Sz>= 0.5000 <S**2>= 0.7500 S= 0.5000
 Leave Link  401 at Mon Nov 13 15:20:40 2023, MaxMem=  1879048192 cpu:               4.6 elap:               0.3
 (Enter /home/sekinelabo/g16/l502.exe)
 Keep R1 and R2 ints in memory in canonical form, NReq=507620360.
 FoFCou: FMM=F IPFlag=           0 FMFlag=           0 FMFlg1=           0
         NFxFlg=           0 DoJE=F BraDBF=F KetDBF=F FulRan=T
         wScrn=  0.000000 ICntrl=       600 IOpCl=  0 I1Cent=           0 NGrid=           0
         NMat0=    1 NMatS0=  22155 NMatT0=    0 NMatD0=    1 NMtDS0=    0 NMtDT0=    0
 Symmetry not used in FoFCou.
 Two-electron integral symmetry not used.
 UHF open shell SCF:
 Using DIIS extrapolation, IDIIS=  1040.
 NGot=  1879048192 LenX=  1388082376 LenY=  1388034846
 Requested convergence on RMS density matrix=1.00D-08 within 128 cycles.
 Requested convergence on MAX density matrix=1.00D-06.
 Requested convergence on             energy=1.00D-06.
 No special actions if energy rises.

 Cycle   1  Pass 1  IDiag  1:
 E= -1136.06615659542    
 DIIS: error= 9.38D-03 at cycle   1 NSaved=   1.
 NSaved= 1 IEnMin= 1 EnMin= -1136.06615659542     IErMin= 1 ErrMin= 9.38D-03
 ErrMax= 9.38D-03  0.00D+00 EMaxC= 1.00D-01 BMatC= 1.87D-01 BMatP= 1.87D-01
 IDIUse=3 WtCom= 9.06D-01 WtEn= 9.38D-02
 Coeff-Com:  0.100D+01
 Coeff-En:   0.100D+01
 Coeff:      0.100D+01
 Gap=     0.042 Goal=   None    Shift=    0.000
 Gap=     0.031 Goal=   None    Shift=    0.000
 GapD=    0.031 DampG=0.250 DampE=1.000 DampFc=0.2500 IDamp=-1.
 Damping current iteration by 2.50D-01
 RMSDP=6.59D-02 MaxDP=1.01D+01              OVMax= 2.32D-01

 Cycle   2  Pass 1  IDiag  1:
 E= -1136.07613395489     Delta-E=       -0.009977359467 Rises=F Damp=T
 DIIS: error= 6.71D-03 at cycle   2 NSaved=   2.
 NSaved= 2 IEnMin= 2 EnMin= -1136.07613395489     IErMin= 2 ErrMin= 6.71D-03
 ErrMax= 6.71D-03  0.00D+00 EMaxC= 1.00D-01 BMatC= 7.18D-02 BMatP= 1.87D-01
 IDIUse=3 WtCom= 9.33D-01 WtEn= 6.71D-02
 Coeff-Com: -0.128D+01 0.228D+01
 Coeff-En:   0.000D+00 0.100D+01
 Coeff:     -0.119D+01 0.219D+01
 Gap=     0.050 Goal=   None    Shift=    0.000
 Gap=     0.034 Goal=   None    Shift=    0.000
 RMSDP=3.02D-02 MaxDP=4.17D+00 DE=-9.98D-03 OVMax= 1.99D-01

 Cycle   3  Pass 1  IDiag  1:
 E= -1136.09223118158     Delta-E=       -0.016097226689 Rises=F Damp=F
 DIIS: error= 3.40D-03 at cycle   3 NSaved=   3.
 NSaved= 3 IEnMin= 3 EnMin= -1136.09223118158     IErMin= 3 ErrMin= 3.40D-03
 ErrMax= 3.40D-03  0.00D+00 EMaxC= 1.00D-01 BMatC= 3.61D-03 BMatP= 7.18D-02
 IDIUse=3 WtCom= 9.66D-01 WtEn= 3.40D-02
 Coeff-Com: -0.286D+00 0.492D+00 0.794D+00
 Coeff-En:   0.000D+00 0.000D+00 0.100D+01
 Coeff:     -0.277D+00 0.476D+00 0.801D+00
 Gap=     0.045 Goal=   None    Shift=    0.000
 Gap=     0.034 Goal=   None    Shift=    0.000
 RMSDP=1.89D-02 MaxDP=2.78D+00 DE=-1.61D-02 OVMax= 1.36D-01

 Cycle   4  Pass 1  IDiag  1:
 E= -1136.09214912159     Delta-E=        0.000082059986 Rises=F Damp=F
 DIIS: error= 3.35D-03 at cycle   4 NSaved=   4.
 NSaved= 4 IEnMin= 3 EnMin= -1136.09223118158     IErMin= 4 ErrMin= 3.35D-03
 ErrMax= 3.35D-03  0.00D+00 EMaxC= 1.00D-01 BMatC= 3.85D-03 BMatP= 3.61D-03
 IDIUse=3 WtCom= 9.67D-01 WtEn= 3.35D-02
 Coeff-Com: -0.208D-01 0.276D-01 0.507D+00 0.486D+00
 Coeff-En:   0.000D+00 0.000D+00 0.505D+00 0.495D+00
 Coeff:     -0.201D-01 0.267D-01 0.507D+00 0.486D+00
 Gap=     0.045 Goal=   None    Shift=    0.000
 Gap=     0.034 Goal=   None    Shift=    0.000
 RMSDP=9.43D-03 MaxDP=1.51D+00 DE= 8.21D-05 OVMax= 6.57D-02

 Cycle   5  Pass 1  IDiag  1:
 E= -1136.09578601565     Delta-E=       -0.003636894058 Rises=F Damp=F
 DIIS: error= 1.50D-04 at cycle   5 NSaved=   5.
 NSaved= 5 IEnMin= 5 EnMin= -1136.09578601565     IErMin= 5 ErrMin= 1.50D-04
 ErrMax= 1.50D-04  0.00D+00 EMaxC= 1.00D-01 BMatC= 1.30D-05 BMatP= 3.61D-03
 IDIUse=3 WtCom= 9.99D-01 WtEn= 1.50D-03
 Coeff-Com: -0.613D-02 0.711D-02 0.150D+00 0.149D+00 0.700D+00
 Coeff-En:   0.000D+00 0.000D+00 0.000D+00 0.000D+00 0.100D+01
 Coeff:     -0.612D-02 0.710D-02 0.150D+00 0.149D+00 0.701D+00
 Gap=     0.045 Goal=   None    Shift=    0.000
 Gap=     0.035 Goal=   None    Shift=    0.000
 RMSDP=5.74D-04 MaxDP=4.18D-02 DE=-3.64D-03 OVMax= 1.52D-02

 Cycle   6  Pass 1  IDiag  1:
 E= -1136.09579858896     Delta-E=       -0.000012573312 Rises=F Damp=F
 DIIS: error= 1.66D-04 at cycle   6 NSaved=   6.
 NSaved= 6 IEnMin= 6 EnMin= -1136.09579858896     IErMin= 5 ErrMin= 1.50D-04
 ErrMax= 1.66D-04  0.00D+00 EMaxC= 1.00D-01 BMatC= 9.53D-06 BMatP= 1.30D-05
 IDIUse=3 WtCom= 9.99D-01 WtEn= 1.50D-03
 Coeff-Com: -0.525D-03 0.484D-04-0.185D-01-0.157D-01 0.457D+00 0.577D+00
 Coeff-En:   0.000D+00 0.000D+00 0.000D+00 0.000D+00 0.270D+00 0.730D+00
 Coeff:     -0.524D-03 0.483D-04-0.184D-01-0.157D-01 0.457D+00 0.577D+00
 Gap=     0.045 Goal=   None    Shift=    0.000
 Gap=     0.034 Goal=   None    Shift=    0.000
 RMSDP=5.19D-04 MaxDP=7.64D-02 DE=-1.26D-05 OVMax= 6.28D-03

 Cycle   7  Pass 1  IDiag  1:
 E= -1136.09581454873     Delta-E=       -0.000015959768 Rises=F Damp=F
 DIIS: error= 4.57D-05 at cycle   7 NSaved=   7.
 NSaved= 7 IEnMin= 7 EnMin= -1136.09581454873     IErMin= 7 ErrMin= 4.57D-05
 ErrMax= 4.57D-05  0.00D+00 EMaxC= 1.00D-01 BMatC= 7.32D-07 BMatP= 9.53D-06
 IDIUse=1 WtCom= 1.00D+00 WtEn= 0.00D+00
 Coeff-Com:  0.631D-03-0.843D-03-0.398D-01-0.387D-01-0.940D-02 0.167D+00
 Coeff-Com:  0.921D+00
 Coeff:      0.631D-03-0.843D-03-0.398D-01-0.387D-01-0.940D-02 0.167D+00
 Coeff:      0.921D+00
 Gap=     0.045 Goal=   None    Shift=    0.000
 Gap=     0.035 Goal=   None    Shift=    0.000
 RMSDP=4.64D-04 MaxDP=7.53D-02 DE=-1.60D-05 OVMax= 5.19D-03

 Cycle   8  Pass 1  IDiag  1:
 E= -1136.09581786828     Delta-E=       -0.000003319547 Rises=F Damp=F
 DIIS: error= 2.36D-05 at cycle   8 NSaved=   8.
 NSaved= 8 IEnMin= 8 EnMin= -1136.09581786828     IErMin= 8 ErrMin= 2.36D-05
 ErrMax= 2.36D-05  0.00D+00 EMaxC= 1.00D-01 BMatC= 2.24D-07 BMatP= 7.32D-07
 IDIUse=1 WtCom= 1.00D+00 WtEn= 0.00D+00
 Coeff-Com:  0.831D-03-0.104D-02-0.684D-02-0.665D-02-0.558D-01-0.941D-01
 Coeff-Com:  0.220D+00 0.943D+00
 Coeff:      0.831D-03-0.104D-02-0.684D-02-0.665D-02-0.558D-01-0.941D-01
 Coeff:      0.220D+00 0.943D+00
 Gap=     0.045 Goal=   None    Shift=    0.000
 Gap=     0.035 Goal=   None    Shift=    0.000
 RMSDP=1.65D-04 MaxDP=1.92D-02 DE=-3.32D-06 OVMax= 2.21D-03

 Cycle   9  Pass 1  IDiag  1:
 E= -1136.09581882260     Delta-E=       -0.000000954319 Rises=F Damp=F
 DIIS: error= 1.32D-05 at cycle   9 NSaved=   9.
 NSaved= 9 IEnMin= 9 EnMin= -1136.09581882260     IErMin= 9 ErrMin= 1.32D-05
 ErrMax= 1.32D-05  0.00D+00 EMaxC= 1.00D-01 BMatC= 1.06D-07 BMatP= 2.24D-07
 IDIUse=1 WtCom= 1.00D+00 WtEn= 0.00D+00
 Coeff-Com:  0.440D-03-0.548D-03 0.364D-02 0.395D-02-0.215D-01-0.114D+00
 Coeff-Com: -0.874D-01 0.523D+00 0.693D+00
 Coeff:      0.440D-03-0.548D-03 0.364D-02 0.395D-02-0.215D-01-0.114D+00
 Coeff:     -0.874D-01 0.523D+00 0.693D+00
 Gap=     0.045 Goal=   None    Shift=    0.000
 Gap=     0.035 Goal=   None    Shift=    0.000
 RMSDP=1.63D-04 MaxDP=2.72D-02 DE=-9.54D-07 OVMax= 1.62D-03

 Cycle  10  Pass 1  IDiag  1:
 E= -1136.09581919379     Delta-E=       -0.000000371188 Rises=F Damp=F
 DIIS: error= 8.23D-06 at cycle  10 NSaved=  10.
 NSaved=10 IEnMin=10 EnMin= -1136.09581919379     IErMin=10 ErrMin= 8.23D-06
 ErrMax= 8.23D-06  0.00D+00 EMaxC= 1.00D-01 BMatC= 2.14D-08 BMatP= 1.06D-07
 IDIUse=1 WtCom= 1.00D+00 WtEn= 0.00D+00
 Coeff-Com: -0.264D-03 0.341D-03 0.261D-02 0.294D-02 0.169D-01-0.153D-01
 Coeff-Com: -0.523D-01-0.149D+00 0.102D+00 0.109D+01
 Coeff:     -0.264D-03 0.341D-03 0.261D-02 0.294D-02 0.169D-01-0.153D-01
 Coeff:     -0.523D-01-0.149D+00 0.102D+00 0.109D+01
 Gap=     0.045 Goal=   None    Shift=    0.000
 Gap=     0.035 Goal=   None    Shift=    0.000
 RMSDP=6.26D-05 MaxDP=8.59D-03 DE=-3.71D-07 OVMax= 1.19D-03

 Cycle  11  Pass 1  IDiag  1:
 E= -1136.09581935596     Delta-E=       -0.000000162169 Rises=F Damp=F
 DIIS: error= 4.64D-06 at cycle  11 NSaved=  11.
 NSaved=11 IEnMin=11 EnMin= -1136.09581935596     IErMin=11 ErrMin= 4.64D-06
 ErrMax= 4.64D-06  0.00D+00 EMaxC= 1.00D-01 BMatC= 5.94D-09 BMatP= 2.14D-08
 IDIUse=1 WtCom= 1.00D+00 WtEn= 0.00D+00
 Coeff-Com: -0.259D-03 0.330D-03-0.295D-03-0.372D-03 0.119D-01 0.272D-01
 Coeff-Com:  0.343D-01-0.217D+00-0.162D+00-0.149D-01 0.132D+01
 Coeff:     -0.259D-03 0.330D-03-0.295D-03-0.372D-03 0.119D-01 0.272D-01
 Coeff:      0.343D-01-0.217D+00-0.162D+00-0.149D-01 0.132D+01
 Gap=     0.045 Goal=   None    Shift=    0.000
 Gap=     0.035 Goal=   None    Shift=    0.000
 RMSDP=4.41D-05 MaxDP=4.64D-03 DE=-1.62D-07 OVMax= 1.12D-03

 Cycle  12  Pass 1  IDiag  1:
 E= -1136.09581943152     Delta-E=       -0.000000075566 Rises=F Damp=F
 DIIS: error= 2.71D-06 at cycle  12 NSaved=  12.
 NSaved=12 IEnMin=12 EnMin= -1136.09581943152     IErMin=12 ErrMin= 2.71D-06
 ErrMax= 2.71D-06  0.00D+00 EMaxC= 1.00D-01 BMatC= 1.74D-09 BMatP= 5.94D-09
 IDIUse=1 WtCom= 1.00D+00 WtEn= 0.00D+00
 Coeff-Com:  0.722D-05-0.111D-04-0.645D-03-0.619D-03-0.711D-03 0.482D-02
 Coeff-Com:  0.291D-01-0.227D-01-0.578D-01-0.255D+00 0.239D+00 0.106D+01
 Coeff:      0.722D-05-0.111D-04-0.645D-03-0.619D-03-0.711D-03 0.482D-02
 Coeff:      0.291D-01-0.227D-01-0.578D-01-0.255D+00 0.239D+00 0.106D+01
 Gap=     0.045 Goal=   None    Shift=    0.000
 Gap=     0.035 Goal=   None    Shift=    0.000
 RMSDP=1.66D-05 MaxDP=1.54D-03 DE=-7.56D-08 OVMax= 4.81D-04

 Cycle  13  Pass 1  IDiag  1:
 E= -1136.09581944922     Delta-E=       -0.000000017703 Rises=F Damp=F
 DIIS: error= 1.15D-06 at cycle  13 NSaved=  13.
 NSaved=13 IEnMin=13 EnMin= -1136.09581944922     IErMin=13 ErrMin= 1.15D-06
 ErrMax= 1.15D-06  0.00D+00 EMaxC= 1.00D-01 BMatC= 3.85D-10 BMatP= 1.74D-09
 IDIUse=1 WtCom= 1.00D+00 WtEn= 0.00D+00
 Coeff-Com:  0.101D-03-0.131D-03-0.132D-03-0.805D-04-0.346D-02-0.918D-02
 Coeff-Com: -0.342D-02 0.669D-01 0.375D-01-0.653D-01-0.337D+00 0.241D+00
 Coeff-Com:  0.107D+01
 Coeff:      0.101D-03-0.131D-03-0.132D-03-0.805D-04-0.346D-02-0.918D-02
 Coeff:     -0.342D-02 0.669D-01 0.375D-01-0.653D-01-0.337D+00 0.241D+00
 Coeff:      0.107D+01
 Gap=     0.045 Goal=   None    Shift=    0.000
 Gap=     0.035 Goal=   None    Shift=    0.000
 RMSDP=9.05D-06 MaxDP=6.16D-04 DE=-1.77D-08 OVMax= 2.51D-04

 Cycle  14  Pass 1  IDiag  1:
 E= -1136.09581945350     Delta-E=       -0.000000004271 Rises=F Damp=F
 DIIS: error= 5.14D-07 at cycle  14 NSaved=  14.
 NSaved=14 IEnMin=14 EnMin= -1136.09581945350     IErMin=14 ErrMin= 5.14D-07
 ErrMax= 5.14D-07  0.00D+00 EMaxC= 1.00D-01 BMatC= 9.57D-11 BMatP= 3.85D-10
 IDIUse=1 WtCom= 1.00D+00 WtEn= 0.00D+00
 Coeff-Com:  0.103D-04-0.123D-04 0.953D-04 0.856D-04-0.137D-03-0.259D-02
 Coeff-Com: -0.732D-02 0.163D-01 0.194D-01 0.561D-01-0.124D+00-0.258D+00
 Coeff-Com:  0.283D+00 0.102D+01
 Coeff:      0.103D-04-0.123D-04 0.953D-04 0.856D-04-0.137D-03-0.259D-02
 Coeff:     -0.732D-02 0.163D-01 0.194D-01 0.561D-01-0.124D+00-0.258D+00
 Coeff:      0.283D+00 0.102D+01
 Gap=     0.045 Goal=   None    Shift=    0.000
 Gap=     0.035 Goal=   None    Shift=    0.000
 RMSDP=4.24D-06 MaxDP=3.09D-04 DE=-4.27D-09 OVMax= 1.11D-04

 Cycle  15  Pass 1  IDiag  1:
 E= -1136.09581945437     Delta-E=       -0.000000000877 Rises=F Damp=F
 DIIS: error= 2.40D-07 at cycle  15 NSaved=  15.
 NSaved=15 IEnMin=15 EnMin= -1136.09581945437     IErMin=15 ErrMin= 2.40D-07
 ErrMax= 2.40D-07  0.00D+00 EMaxC= 1.00D-01 BMatC= 2.71D-11 BMatP= 9.57D-11
 IDIUse=1 WtCom= 1.00D+00 WtEn= 0.00D+00
 Coeff-Com: -0.223D-04 0.295D-04 0.887D-04 0.636D-04 0.796D-03 0.115D-02
 Coeff-Com: -0.189D-02-0.962D-02-0.161D-02 0.301D-01 0.447D-01-0.152D+00
 Coeff-Com: -0.183D+00 0.412D+00 0.860D+00
 Coeff:     -0.223D-04 0.295D-04 0.887D-04 0.636D-04 0.796D-03 0.115D-02
 Coeff:     -0.189D-02-0.962D-02-0.161D-02 0.301D-01 0.447D-01-0.152D+00
 Coeff:     -0.183D+00 0.412D+00 0.860D+00
 Gap=     0.045 Goal=   None    Shift=    0.000
 Gap=     0.035 Goal=   None    Shift=    0.000
 RMSDP=2.42D-06 MaxDP=2.96D-04 DE=-8.77D-10 OVMax= 4.00D-05

 Cycle  16  Pass 1  IDiag  1:
 E= -1136.09581945454     Delta-E=       -0.000000000166 Rises=F Damp=F
 DIIS: error= 1.29D-07 at cycle  16 NSaved=  16.
 NSaved=16 IEnMin=16 EnMin= -1136.09581945454     IErMin=16 ErrMin= 1.29D-07
 ErrMax= 1.29D-07  0.00D+00 EMaxC= 1.00D-01 BMatC= 3.86D-12 BMatP= 2.71D-11
 IDIUse=1 WtCom= 1.00D+00 WtEn= 0.00D+00
 Coeff-Com: -0.635D-05 0.810D-05-0.152D-04-0.159D-04 0.182D-03 0.110D-02
 Coeff-Com:  0.165D-02-0.624D-02-0.751D-02-0.684D-02 0.356D-01 0.565D-01
 Coeff-Com: -0.102D+00-0.200D+00 0.403D-01 0.119D+01
 Coeff:     -0.635D-05 0.810D-05-0.152D-04-0.159D-04 0.182D-03 0.110D-02
 Coeff:      0.165D-02-0.624D-02-0.751D-02-0.684D-02 0.356D-01 0.565D-01
 Coeff:     -0.102D+00-0.200D+00 0.403D-01 0.119D+01
 Gap=     0.045 Goal=   None    Shift=    0.000
 Gap=     0.035 Goal=   None    Shift=    0.000
 RMSDP=1.65D-06 MaxDP=2.28D-04 DE=-1.66D-10 OVMax= 2.00D-05

 Cycle  17  Pass 1  IDiag  1:
 E= -1136.09581945457     Delta-E=       -0.000000000027 Rises=F Damp=F
 DIIS: error= 5.45D-08 at cycle  17 NSaved=  17.
 NSaved=17 IEnMin=17 EnMin= -1136.09581945457     IErMin=17 ErrMin= 5.45D-08
 ErrMax= 5.45D-08  0.00D+00 EMaxC= 1.00D-01 BMatC= 6.95D-13 BMatP= 3.86D-12
 IDIUse=1 WtCom= 1.00D+00 WtEn= 0.00D+00
 Coeff-Com:  0.325D-05-0.429D-05-0.101D-04-0.999D-05-0.115D-03 0.523D-05
 Coeff-Com:  0.224D-03 0.860D-03-0.170D-03-0.284D-02-0.520D-02 0.224D-01
 Coeff-Com:  0.218D-01-0.668D-01-0.103D+00 0.462D-01 0.109D+01
 Coeff:      0.325D-05-0.429D-05-0.101D-04-0.999D-05-0.115D-03 0.523D-05
 Coeff:      0.224D-03 0.860D-03-0.170D-03-0.284D-02-0.520D-02 0.224D-01
 Coeff:      0.218D-01-0.668D-01-0.103D+00 0.462D-01 0.109D+01
 Gap=     0.045 Goal=   None    Shift=    0.000
 Gap=     0.035 Goal=   None    Shift=    0.000
 RMSDP=5.63D-07 MaxDP=8.59D-05 DE=-2.73D-11 OVMax= 7.07D-06

 Cycle  18  Pass 1  IDiag  1:
 E= -1136.09581945456     Delta-E=        0.000000000006 Rises=F Damp=F
 DIIS: error= 1.62D-08 at cycle  18 NSaved=  18.
 NSaved=18 IEnMin=17 EnMin= -1136.09581945457     IErMin=18 ErrMin= 1.62D-08
 ErrMax= 1.62D-08  0.00D+00 EMaxC= 1.00D-01 BMatC= 9.94D-14 BMatP= 6.95D-13
 IDIUse=1 WtCom= 1.00D+00 WtEn= 0.00D+00
 Coeff-Com:  0.144D-05-0.186D-05-0.247D-06 0.282D-06-0.360D-04-0.195D-03
 Coeff-Com: -0.260D-03 0.113D-02 0.138D-02 0.104D-02-0.725D-02-0.881D-02
 Coeff-Com:  0.209D-01 0.346D-01-0.188D-01-0.233D+00 0.805D-01 0.113D+01
 Coeff:      0.144D-05-0.186D-05-0.247D-06 0.282D-06-0.360D-04-0.195D-03
 Coeff:     -0.260D-03 0.113D-02 0.138D-02 0.104D-02-0.725D-02-0.881D-02
 Coeff:      0.209D-01 0.346D-01-0.188D-01-0.233D+00 0.805D-01 0.113D+01
 Gap=     0.045 Goal=   None    Shift=    0.000
 Gap=     0.035 Goal=   None    Shift=    0.000
 RMSDP=2.90D-07 MaxDP=4.29D-05 DE= 5.91D-12 OVMax= 3.29D-06

 Cycle  19  Pass 1  IDiag  1:
 E= -1136.09581945457     Delta-E=       -0.000000000006 Rises=F Damp=F
 DIIS: error= 7.33D-09 at cycle  19 NSaved=  19.
 NSaved=19 IEnMin=17 EnMin= -1136.09581945457     IErMin=19 ErrMin= 7.33D-09
 ErrMax= 7.33D-09  0.00D+00 EMaxC= 1.00D-01 BMatC= 2.50D-14 BMatP= 9.94D-14
 IDIUse=1 WtCom= 1.00D+00 WtEn= 0.00D+00
 Coeff-Com: -0.783D-06 0.103D-05 0.107D-05 0.849D-06 0.174D-04 0.393D-04
 Coeff-Com: -0.108D-04-0.226D-03-0.186D-03 0.298D-03 0.149D-02-0.215D-02
 Coeff-Com: -0.620D-02 0.986D-02 0.169D-01 0.194D-02-0.197D+00 0.117D-01
 Coeff-Com:  0.116D+01
 Coeff:     -0.783D-06 0.103D-05 0.107D-05 0.849D-06 0.174D-04 0.393D-04
 Coeff:     -0.108D-04-0.226D-03-0.186D-03 0.298D-03 0.149D-02-0.215D-02
 Coeff:     -0.620D-02 0.986D-02 0.169D-01 0.194D-02-0.197D+00 0.117D-01
 Coeff:      0.116D+01
 Gap=     0.045 Goal=   None    Shift=    0.000
 Gap=     0.035 Goal=   None    Shift=    0.000
 RMSDP=8.51D-08 MaxDP=1.12D-05 DE=-5.91D-12 OVMax= 1.14D-06

 Cycle  20  Pass 1  IDiag  1:
 E= -1136.09581945457     Delta-E=       -0.000000000006 Rises=F Damp=F
 DIIS: error= 2.85D-09 at cycle  20 NSaved=  20.
 NSaved=20 IEnMin=20 EnMin= -1136.09581945457     IErMin=20 ErrMin= 2.85D-09
 ErrMax= 2.85D-09  0.00D+00 EMaxC= 1.00D-01 BMatC= 4.46D-15 BMatP= 2.50D-14
 IDIUse=1 WtCom= 1.00D+00 WtEn= 0.00D+00
 Large coefficients: NSaved= 20 BigCof=    0.00 CofMax=   10.00 Det=-6.11D-15
 Inversion failed.  Reducing to 19 matrices.
 Large coefficients: NSaved= 19 BigCof=    0.00 CofMax=   10.00 Det=-7.38D-15
 Inversion failed.  Reducing to 18 matrices.
 Large coefficients: NSaved= 18 BigCof=    0.00 CofMax=   10.00 Det=-7.46D-15
 Inversion failed.  Reducing to 17 matrices.
 Large coefficients: NSaved= 17 BigCof=    0.00 CofMax=   10.00 Det=-7.48D-15
 Inversion failed.  Reducing to 16 matrices.
 Large coefficients: NSaved= 16 BigCof=    0.00 CofMax=   10.00 Det=-7.80D-15
 Inversion failed.  Reducing to 15 matrices.
 Coeff-Com:  0.121D-04 0.180D-04-0.414D-04-0.163D-03-0.123D-03 0.483D-03
 Coeff-Com:  0.127D-02-0.225D-02-0.419D-02 0.271D-02 0.303D-01-0.260D-01
 Coeff-Com: -0.167D+00 0.110D+00 0.106D+01
 Coeff:      0.121D-04 0.180D-04-0.414D-04-0.163D-03-0.123D-03 0.483D-03
 Coeff:      0.127D-02-0.225D-02-0.419D-02 0.271D-02 0.303D-01-0.260D-01
 Coeff:     -0.167D+00 0.110D+00 0.106D+01
 Gap=     0.045 Goal=   None    Shift=    0.000
 Gap=     0.035 Goal=   None    Shift=    0.000
 RMSDP=5.32D-08 MaxDP=8.91D-06 DE=-6.14D-12 OVMax= 4.58D-07

 Cycle  21  Pass 1  IDiag  1:
 E= -1136.09581945457     Delta-E=        0.000000000004 Rises=F Damp=F
 DIIS: error= 2.17D-09 at cycle  21 NSaved=  16.
 NSaved=16 IEnMin=15 EnMin= -1136.09581945457     IErMin=16 ErrMin= 2.17D-09
 ErrMax= 2.17D-09  0.00D+00 EMaxC= 1.00D-01 BMatC= 1.55D-15 BMatP= 4.46D-15
 IDIUse=1 WtCom= 1.00D+00 WtEn= 0.00D+00
 Large coefficients: NSaved= 16 BigCof=    0.00 CofMax=   10.00 Det=-2.67D-15
 Inversion failed.  Reducing to 15 matrices.
 Coeff-Com: -0.964D-07-0.102D-04-0.579D-05 0.615D-04 0.383D-04-0.261D-03
 Coeff-Com:  0.683D-04-0.496D-03 0.714D-03 0.381D-02 0.169D-01-0.297D-01
 Coeff-Com: -0.208D+00 0.281D+00 0.936D+00
 Coeff:     -0.964D-07-0.102D-04-0.579D-05 0.615D-04 0.383D-04-0.261D-03
 Coeff:      0.683D-04-0.496D-03 0.714D-03 0.381D-02 0.169D-01-0.297D-01
 Coeff:     -0.208D+00 0.281D+00 0.936D+00
 Gap=     0.045 Goal=   None    Shift=    0.000
 Gap=     0.035 Goal=   None    Shift=    0.000
 RMSDP=2.12D-08 MaxDP=3.08D-06 DE= 3.87D-12 OVMax= 2.82D-07

 Cycle  22  Pass 1  IDiag  1:
 E= -1136.09581945458     Delta-E=       -0.000000000008 Rises=F Damp=F
 DIIS: error= 1.35D-09 at cycle  22 NSaved=  16.
 NSaved=16 IEnMin=16 EnMin= -1136.09581945458     IErMin=16 ErrMin= 1.35D-09
 ErrMax= 1.35D-09  0.00D+00 EMaxC= 1.00D-01 BMatC= 6.29D-16 BMatP= 1.55D-15
 IDIUse=1 WtCom= 1.00D+00 WtEn= 0.00D+00
 Large coefficients: NSaved= 16 BigCof=    0.00 CofMax=   10.00 Det=-1.23D-15
 Inversion failed.  Reducing to 15 matrices.
 Coeff-Com: -0.700D-05 0.855D-05-0.503D-05-0.711D-04 0.163D-03 0.517D-03
 Coeff-Com: -0.935D-03-0.191D-02-0.111D-02 0.218D-01 0.189D-01-0.146D+00
 Coeff-Com: -0.138D+00 0.407D+00 0.839D+00
 Coeff:     -0.700D-05 0.855D-05-0.503D-05-0.711D-04 0.163D-03 0.517D-03
 Coeff:     -0.935D-03-0.191D-02-0.111D-02 0.218D-01 0.189D-01-0.146D+00
 Coeff:     -0.138D+00 0.407D+00 0.839D+00
 Gap=     0.045 Goal=   None    Shift=    0.000
 Gap=     0.035 Goal=   None    Shift=    0.000
 RMSDP=3.98D-08 MaxDP=6.38D-06 DE=-7.73D-12 OVMax= 1.61D-07

 Cycle  23  Pass 1  IDiag  1:
 E= -1136.09581945457     Delta-E=        0.000000000004 Rises=F Damp=F
 DIIS: error= 5.81D-10 at cycle  23 NSaved=  16.
 NSaved=16 IEnMin=15 EnMin= -1136.09581945458     IErMin=16 ErrMin= 5.81D-10
 ErrMax= 5.81D-10  0.00D+00 EMaxC= 1.00D-01 BMatC= 1.89D-16 BMatP= 6.29D-16
 IDIUse=1 WtCom= 1.00D+00 WtEn= 0.00D+00
 Large coefficients: NSaved= 16 BigCof=    0.00 CofMax=   10.00 Det=-3.86D-16
 Inversion failed.  Reducing to 15 matrices.
 Coeff-Com:  0.127D-04-0.410D-05-0.289D-04 0.456D-04 0.260D-03 0.210D-03
 Coeff-Com: -0.843D-03-0.412D-02 0.534D-02 0.228D-01-0.117D-01-0.149D+00
 Coeff-Com: -0.104D+00 0.303D+00 0.938D+00
 Coeff:      0.127D-04-0.410D-05-0.289D-04 0.456D-04 0.260D-03 0.210D-03
 Coeff:     -0.843D-03-0.412D-02 0.534D-02 0.228D-01-0.117D-01-0.149D+00
 Coeff:     -0.104D+00 0.303D+00 0.938D+00
 Gap=     0.045 Goal=   None    Shift=    0.000
 Gap=     0.035 Goal=   None    Shift=    0.000
 RMSDP=8.21D-09 MaxDP=1.31D-06 DE= 3.64D-12 OVMax= 9.04D-08

 Cycle  24  Pass 1  IDiag  1:
 E= -1136.09581945457     Delta-E=        0.000000000003 Rises=F Damp=F
 DIIS: error= 3.32D-10 at cycle  24 NSaved=  16.
 NSaved=16 IEnMin=14 EnMin= -1136.09581945458     IErMin=16 ErrMin= 3.32D-10
 ErrMax= 3.32D-10  0.00D+00 EMaxC= 1.00D-01 BMatC= 4.92D-17 BMatP= 1.89D-16
 IDIUse=1 WtCom= 1.00D+00 WtEn= 0.00D+00
 Large coefficients: NSaved= 16 BigCof=    0.00 CofMax=   10.00 Det=-1.05D-16
 Inversion failed.  Reducing to 15 matrices.
 Coeff-Com:  0.105D-04 0.146D-04-0.114D-03-0.229D-03 0.577D-03 0.862D-03
 Coeff-Com: -0.387D-03-0.106D-01 0.143D-02 0.690D-01-0.438D-02-0.176D+00
 Coeff-Com: -0.252D+00 0.288D+00 0.108D+01
 Coeff:      0.105D-04 0.146D-04-0.114D-03-0.229D-03 0.577D-03 0.862D-03
 Coeff:     -0.387D-03-0.106D-01 0.143D-02 0.690D-01-0.438D-02-0.176D+00
 Coeff:     -0.252D+00 0.288D+00 0.108D+01
 Gap=     0.045 Goal=   None    Shift=    0.000
 Gap=     0.035 Goal=   None    Shift=    0.000
 RMSDP=2.73D-08 MaxDP=4.35D-06 DE= 2.96D-12 OVMax= 5.38D-08

 Cycle  25  Pass 1  IDiag  1:
 E= -1136.09581945457     Delta-E=       -0.000000000001 Rises=F Damp=F
 DIIS: error= 8.02D-11 at cycle  25 NSaved=  16.
 NSaved=16 IEnMin=13 EnMin= -1136.09581945458     IErMin=16 ErrMin= 8.02D-11
 ErrMax= 8.02D-11  0.00D+00 EMaxC= 1.00D-01 BMatC= 2.85D-18 BMatP= 4.92D-17
 IDIUse=1 WtCom= 1.00D+00 WtEn= 0.00D+00
 Large coefficients: NSaved= 16 BigCof=    0.00 CofMax=   10.00 Det=-5.88D-18
 Inversion failed.  Reducing to 15 matrices.
 Coeff-Com:  0.495D-05 0.674D-06 0.183D-04-0.840D-04-0.155D-04 0.203D-03
 Coeff-Com:  0.104D-02-0.139D-02-0.101D-01 0.100D-01 0.372D-01-0.607D-03
 Coeff-Com: -0.110D+00-0.195D+00 0.127D+01
 Coeff:      0.495D-05 0.674D-06 0.183D-04-0.840D-04-0.155D-04 0.203D-03
 Coeff:      0.104D-02-0.139D-02-0.101D-01 0.100D-01 0.372D-01-0.607D-03
 Coeff:     -0.110D+00-0.195D+00 0.127D+01
 Gap=     0.045 Goal=   None    Shift=    0.000
 Gap=     0.035 Goal=   None    Shift=    0.000
 RMSDP=1.94D-08 MaxDP=2.56D-06 DE=-1.14D-12 OVMax= 1.30D-08

 Cycle  26  Pass 1  IDiag  1:
 E= -1136.09581945455     Delta-E=        0.000000000018 Rises=F Damp=F
 DIIS: error= 1.01D-10 at cycle  26 NSaved=  16.
 NSaved=16 IEnMin=12 EnMin= -1136.09581945458     IErMin=15 ErrMin= 8.02D-11
 ErrMax= 1.01D-10  0.00D+00 EMaxC= 1.00D-01 BMatC= 1.16D-18 BMatP= 2.85D-18
 IDIUse=1 WtCom= 1.00D+00 WtEn= 0.00D+00
 Large coefficients: NSaved= 16 BigCof=    0.00 CofMax=   10.00 Det=-1.64D-18
 Inversion failed.  Reducing to 15 matrices.
 Coeff-Com:  0.367D-05 0.162D-04-0.668D-04-0.343D-04 0.203D-03 0.890D-03
 Coeff-Com: -0.118D-02-0.750D-02 0.796D-02 0.268D-01 0.105D-01-0.795D-01
 Coeff-Com: -0.143D+00 0.551D+00 0.634D+00
 Coeff:      0.367D-05 0.162D-04-0.668D-04-0.343D-04 0.203D-03 0.890D-03
 Coeff:     -0.118D-02-0.750D-02 0.796D-02 0.268D-01 0.105D-01-0.795D-01
 Coeff:     -0.143D+00 0.551D+00 0.634D+00
 Gap=     0.045 Goal=   None    Shift=    0.000
 Gap=     0.035 Goal=   None    Shift=    0.000
 RMSDP=2.79D-08 MaxDP=4.54D-06 DE= 1.77D-11 OVMax= 2.72D-09

 Cycle  27  Pass 1  IDiag  1:
 E= -1136.09581945457     Delta-E=       -0.000000000014 Rises=F Damp=F
 DIIS: error= 3.60D-11 at cycle  27 NSaved=  16.
 NSaved=16 IEnMin=11 EnMin= -1136.09581945458     IErMin=16 ErrMin= 3.60D-11
 ErrMax= 3.60D-11  0.00D+00 EMaxC= 1.00D-01 BMatC= 1.76D-19 BMatP= 1.16D-18
 IDIUse=1 WtCom= 1.00D+00 WtEn= 0.00D+00
 Large coefficients: NSaved= 16 BigCof=    0.00 CofMax=   10.00 Det=-4.81D-19
 Inversion failed.  Reducing to 15 matrices.
 Coeff-Com:  0.315D-05 0.119D-05-0.184D-04-0.616D-04 0.219D-03 0.250D-03
 Coeff-Com: -0.822D-03-0.153D-02 0.849D-03 0.415D-02 0.458D-02-0.638D-02
 Coeff-Com: -0.578D-01-0.166D+00 0.122D+01
 Coeff:      0.315D-05 0.119D-05-0.184D-04-0.616D-04 0.219D-03 0.250D-03
 Coeff:     -0.822D-03-0.153D-02 0.849D-03 0.415D-02 0.458D-02-0.638D-02
 Coeff:     -0.578D-01-0.166D+00 0.122D+01
 Gap=     0.045 Goal=   None    Shift=    0.000
 Gap=     0.035 Goal=   None    Shift=    0.000
 RMSDP=1.74D-08 MaxDP=2.71D-06 DE=-1.36D-11 OVMax= 1.65D-09

 Cycle  28  Pass 1  IDiag  1:
 E= -1136.09581945457     Delta-E=       -0.000000000001 Rises=F Damp=F
 DIIS: error= 2.68D-11 at cycle  28 NSaved=  16.
 NSaved=16 IEnMin=10 EnMin= -1136.09581945458     IErMin=16 ErrMin= 2.68D-11
 ErrMax= 2.68D-11  0.00D+00 EMaxC= 1.00D-01 BMatC= 7.58D-20 BMatP= 1.76D-19
 IDIUse=1 WtCom= 1.00D+00 WtEn= 0.00D+00
 Large coefficients: NSaved= 16 BigCof=    0.00 CofMax=   10.00 Det=-9.31D-20
 Inversion failed.  Reducing to 15 matrices.
 Coeff-Com:  0.246D-05-0.264D-05-0.188D-04 0.293D-04 0.198D-04 0.677D-04
 Coeff-Com: -0.537D-03-0.353D-03 0.145D-02 0.338D-02-0.238D-02-0.390D-01
 Coeff-Com: -0.116D+00 0.405D+00 0.749D+00
 Coeff:      0.246D-05-0.264D-05-0.188D-04 0.293D-04 0.198D-04 0.677D-04
 Coeff:     -0.537D-03-0.353D-03 0.145D-02 0.338D-02-0.238D-02-0.390D-01
 Coeff:     -0.116D+00 0.405D+00 0.749D+00
 Gap=     0.045 Goal=   None    Shift=    0.000
 Gap=     0.035 Goal=   None    Shift=    0.000
 RMSDP=2.45D-09 MaxDP=2.98D-07 DE=-1.36D-12 OVMax= 6.24D-10

 SCF Done:  E(UB3LYP) =  -1136.09581945     A.U. after   28 cycles
            NFock= 28  Conv=0.24D-08     -V/T= 2.0027
 <Sx>= 0.0000 <Sy>= 0.0000 <Sz>= 0.5000 <S**2>= 0.7664 S= 0.5082
 <L.S>= 0.000000000000E+00
 KE= 1.133046778169D+03 PE=-3.336827353612D+03 EE= 7.638389905354D+02
 Annihilation of the first spin contaminant:
 S**2 before annihilation     0.7664,   after     0.7501
 Leave Link  502 at Mon Nov 13 15:21:02 2023, MaxMem=  1879048192 cpu:             252.8 elap:              22.0
 (Enter /home/sekinelabo/g16/l601.exe)
 Copying SCF densities to generalized density rwf, IOpCl= 1 IROHF=0.

 **********************************************************************

            Population analysis using the SCF Density.

 **********************************************************************

 Orbital symmetries:
 Alpha Orbitals:
       Occupied  (A) (A) (A) (A) (A) (A) (A) (A) (A) (A) (A) (A)
                 (A) (A) (A) (A) (A) (A) (A) (A) (A) (A) (A) (A)
                 (A) (A) (A) (A) (A) (A) (A) (A) (A) (A) (A) (A)
                 (A) (A) (A)
       Virtual   (A) (A) (A) (A) (A) (A) (A) (A) (A) (A) (A) (A)
                 (A) (A) (A) (A) (A) (A) (A) (A) (A) (A) (A) (A)
                 (A) (A) (A) (A) (A) (A) (A) (A) (A) (A) (A) (A)
                 (A) (A) (A) (A) (A) (A) (A) (A) (A) (A) (A) (A)
                 (A) (A) (A) (A) (A) (A) (A) (A) (A) (A) (A) (A)
                 (A) (A) (A) (A) (A) (A) (A) (A) (A) (A) (A) (A)
                 (A) (A) (A) (A) (A) (A) (A) (A) (A) (A) (A) (A)
                 (A) (A) (A) (A) (A) (A) (A) (A) (A) (A) (A) (A)
                 (A) (A) (A) (A) (A) (A) (A) (A) (A) (A) (A) (A)
                 (A) (A) (A) (A) (A) (A) (A) (A) (A) (A) (A) (A)
                 (A) (A) (A) (A) (A) (A) (A) (A) (A) (A) (A) (A)
                 (A) (A) (A) (A) (A) (A) (A) (A) (A) (A) (A) (A)
                 (A) (A) (A) (A) (A) (A) (A) (A) (A) (A) (A) (A)
                 (A) (A) (A) (A) (A) (A) (A) (A) (A) (A) (A) (A)
                 (A) (A) (A)
 Beta  Orbitals:
       Occupied  (A) (A) (A) (A) (A) (A) (A) (A) (A) (A) (A) (A)
                 (A) (A) (A) (A) (A) (A) (A) (A) (A) (A) (A) (A)
                 (A) (A) (A) (A) (A) (A) (A) (A) (A) (A) (A) (A)
                 (A) (A)
       Virtual   (A) (A) (A) (A) (A) (A) (A) (A) (A) (A) (A) (A)
                 (A) (A) (A) (A) (A) (A) (A) (A) (A) (A) (A) (A)
                 (A) (A) (A) (A) (A) (A) (A) (A) (A) (A) (A) (A)
                 (A) (A) (A) (A) (A) (A) (A) (A) (A) (A) (A) (A)
                 (A) (A) (A) (A) (A) (A) (A) (A) (A) (A) (A) (A)
                 (A) (A) (A) (A) (A) (A) (A) (A) (A) (A) (A) (A)
                 (A) (A) (A) (A) (A) (A) (A) (A) (A) (A) (A) (A)
                 (A) (A) (A) (A) (A) (A) (A) (A) (A) (A) (A) (A)
                 (A) (A) (A) (A) (A) (A) (A) (A) (A) (A) (A) (A)
                 (A) (A) (A) (A) (A) (A) (A) (A) (A) (A) (A) (A)
                 (A) (A) (A) (A) (A) (A) (A) (A) (A) (A) (A) (A)
                 (A) (A) (A) (A) (A) (A) (A) (A) (A) (A) (A) (A)
                 (A) (A) (A) (A) (A) (A) (A) (A) (A) (A) (A) (A)
                 (A) (A) (A) (A) (A) (A) (A) (A) (A) (A) (A) (A)
                 (A) (A) (A) (A)
 The electronic state is 2-A.
 Alpha  occ. eigenvalues --  -38.45005 -38.44918 -38.44836 -38.44369 -38.44039
 Alpha  occ. eigenvalues --  -38.43371 -38.43117  -2.20927  -2.20714  -2.20658
 Alpha  occ. eigenvalues --   -2.20229  -2.20086  -2.19191  -2.19094  -1.14628
 Alpha  occ. eigenvalues --   -1.14570  -1.14509  -1.14417  -1.14361  -1.14358
 Alpha  occ. eigenvalues --   -1.14356  -1.14286  -1.14271  -1.14010  -1.13855
 Alpha  occ. eigenvalues --   -1.13839  -1.13765  -1.13739  -1.13685  -1.12964
 Alpha  occ. eigenvalues --   -1.12828  -1.12826  -1.12769  -1.12725  -1.12682
 Alpha  occ. eigenvalues --   -0.17786  -0.13583  -0.12260  -0.11480
 Alpha virt. eigenvalues --   -0.06956  -0.04794  -0.04144  -0.03469  -0.03085
 Alpha virt. eigenvalues --   -0.02389  -0.01863  -0.01279  -0.01193  -0.00640
 Alpha virt. eigenvalues --   -0.00179  -0.00093   0.00325   0.00509   0.00630
 Alpha virt. eigenvalues --    0.00827   0.00968   0.01009   0.01106   0.01198
 Alpha virt. eigenvalues --    0.01404   0.01437   0.01532   0.01577   0.01873
 Alpha virt. eigenvalues --    0.01989   0.02194   0.02317   0.02399   0.02585
 Alpha virt. eigenvalues --    0.02649   0.02698   0.02757   0.02958   0.03128
 Alpha virt. eigenvalues --    0.03286   0.03345   0.03388   0.03533   0.03612
 Alpha virt. eigenvalues --    0.03696   0.04020   0.04134   0.04250   0.04623
 Alpha virt. eigenvalues --    0.04799   0.04984   0.05043   0.05530   0.05804
 Alpha virt. eigenvalues --    0.05973   0.06763   0.07018   0.07548   0.07606
 Alpha virt. eigenvalues --    0.07804   0.08087   0.08159   0.08581   0.08664
 Alpha virt. eigenvalues --    0.08990   0.09406   0.09494   0.09819   0.10221
 Alpha virt. eigenvalues --    0.10630   0.10985   0.11822   0.12122   0.12717
 Alpha virt. eigenvalues --    0.13343   0.13961   0.14446   0.14880   0.15054
 Alpha virt. eigenvalues --    0.15503   0.15694   0.16484   0.16967   0.19764
 Alpha virt. eigenvalues --    0.26052   0.26861   0.28409   0.28615   0.29983
 Alpha virt. eigenvalues --    0.30608   0.31418   0.32913   0.33737   0.34357
 Alpha virt. eigenvalues --    0.34505   0.34947   0.35497   0.35974   0.36580
 Alpha virt. eigenvalues --    0.36942   0.37553   0.38323   0.38623   0.39290
 Alpha virt. eigenvalues --    0.40185   0.41224   0.41926   0.42875   0.43198
 Alpha virt. eigenvalues --    0.43325   0.43844   0.44206   0.44589   0.44763
 Alpha virt. eigenvalues --    0.45178   0.45531   0.46012   0.46275   0.46578
 Alpha virt. eigenvalues --    0.47125   0.47330   0.47693   0.48113   0.49082
 Alpha virt. eigenvalues --    0.49913   0.50176   0.52497   0.53231   0.53818
 Alpha virt. eigenvalues --    0.54931   0.55574   0.56487   0.59878   0.63118
 Alpha virt. eigenvalues --    0.67107   0.69822   0.71975   0.77396   0.77541
 Alpha virt. eigenvalues --    0.81407   2.07651   2.09684   2.10992   2.14243
 Alpha virt. eigenvalues --    2.16956   2.22734   2.28340   4.40577   4.41949
 Alpha virt. eigenvalues --    4.42356   4.42735   4.43870   4.44153   4.44774
 Alpha virt. eigenvalues --    4.44980   4.45297   4.45904   4.46646   4.46741
 Alpha virt. eigenvalues --    4.47575   4.48196   4.52438   4.58275   4.60273
 Alpha virt. eigenvalues --    4.63974   4.71254   4.73319   4.76271  96.28100
 Alpha virt. eigenvalues --   96.30856  96.32702  96.36877  96.40542  96.47774
 Alpha virt. eigenvalues --   96.55285
  Beta  occ. eigenvalues --  -38.44911 -38.44910 -38.44762 -38.44368 -38.44027
  Beta  occ. eigenvalues --  -38.43341 -38.43106  -2.20750  -2.20700  -2.20522
  Beta  occ. eigenvalues --   -2.20229  -2.20073  -2.19135  -2.19082  -1.14509
  Beta  occ. eigenvalues --   -1.14451  -1.14409  -1.14390  -1.14351  -1.14347
  Beta  occ. eigenvalues --   -1.14266  -1.14193  -1.14178  -1.14008  -1.13849
  Beta  occ. eigenvalues --   -1.13836  -1.13757  -1.13690  -1.13659  -1.12920
  Beta  occ. eigenvalues --   -1.12793  -1.12791  -1.12763  -1.12713  -1.12632
  Beta  occ. eigenvalues --   -0.17130  -0.13283  -0.11557
  Beta virt. eigenvalues --   -0.08079  -0.06638  -0.04428  -0.03797  -0.03106
  Beta virt. eigenvalues --   -0.02929  -0.01958  -0.01691  -0.01025  -0.00813
  Beta virt. eigenvalues --   -0.00420  -0.00043   0.00153   0.00399   0.00654
  Beta virt. eigenvalues --    0.00743   0.00869   0.01014   0.01066   0.01169
  Beta virt. eigenvalues --    0.01292   0.01478   0.01507   0.01547   0.01663
  Beta virt. eigenvalues --    0.01909   0.02070   0.02237   0.02402   0.02439
  Beta virt. eigenvalues --    0.02631   0.02670   0.02782   0.02878   0.03007
  Beta virt. eigenvalues --    0.03189   0.03303   0.03399   0.03458   0.03552
  Beta virt. eigenvalues --    0.03625   0.03771   0.04073   0.04204   0.04340
  Beta virt. eigenvalues --    0.04702   0.04874   0.05058   0.05106   0.05623
  Beta virt. eigenvalues --    0.05858   0.06080   0.06860   0.07149   0.07624
  Beta virt. eigenvalues --    0.07767   0.07914   0.08200   0.08300   0.08736
  Beta virt. eigenvalues --    0.08830   0.09169   0.09566   0.09669   0.09975
  Beta virt. eigenvalues --    0.10305   0.10718   0.11145   0.12049   0.12327
  Beta virt. eigenvalues --    0.12888   0.13509   0.14133   0.14619   0.15011
  Beta virt. eigenvalues --    0.15222   0.15711   0.15857   0.16648   0.17161
  Beta virt. eigenvalues --    0.19998   0.26411   0.26942   0.28810   0.29102
  Beta virt. eigenvalues --    0.30156   0.30976   0.31606   0.33251   0.33905
  Beta virt. eigenvalues --    0.34701   0.34967   0.35260   0.35689   0.36331
  Beta virt. eigenvalues --    0.36895   0.37267   0.37628   0.38634   0.38960
  Beta virt. eigenvalues --    0.39714   0.40544   0.41434   0.42184   0.42927
  Beta virt. eigenvalues --    0.43406   0.43543   0.43953   0.44418   0.44760
  Beta virt. eigenvalues --    0.44986   0.45252   0.45593   0.46168   0.46390
  Beta virt. eigenvalues --    0.46733   0.47257   0.47341   0.47861   0.48263
  Beta virt. eigenvalues --    0.49208   0.50046   0.50370   0.52667   0.53421
  Beta virt. eigenvalues --    0.54011   0.55006   0.55748   0.56647   0.59792
  Beta virt. eigenvalues --    0.63148   0.67345   0.69983   0.72033   0.77513
  Beta virt. eigenvalues --    0.77550   0.81485   2.07731   2.09831   2.11246
  Beta virt. eigenvalues --    2.14418   2.17081   2.22815   2.28355   4.40674
  Beta virt. eigenvalues --    4.41986   4.42387   4.42817   4.43880   4.44183
  Beta virt. eigenvalues --    4.44844   4.45067   4.45382   4.45967   4.46711
  Beta virt. eigenvalues --    4.46794   4.47592   4.48200   4.52509   4.58328
  Beta virt. eigenvalues --    4.60332   4.63996   4.71343   4.73345   4.76308
  Beta virt. eigenvalues --   96.28130  96.30901  96.32788  96.36941  96.40578
  Beta virt. eigenvalues --   96.47811  96.55297
          Condensed to atoms (all electrons):
               1          2          3          4          5          6
     1  Na  27.266110  -2.070894  -8.394084  -2.830173  -6.253434   0.526019
     2  Na  -2.070894  11.151313   0.938941   0.447305   0.309554  -0.156533
     3  Na  -8.394084   0.938941  16.935589  -1.089010   3.064700  -0.120373
     4  Na  -2.830173   0.447305  -1.089010  14.707764   0.985666  -0.243453
     5  Na  -6.253434   0.309554   3.064700   0.985666  16.054753  -0.373867
     6  Na   0.526019  -0.156533  -0.120373  -0.243453  -0.373867  10.670804
     7  Na  -0.199059   0.061200   0.097704   0.054936  -0.017331   0.120232
               7
     1  Na  -0.199059
     2  Na   0.061200
     3  Na   0.097704
     4  Na   0.054936
     5  Na  -0.017331
     6  Na   0.120232
     7  Na  10.497576
          Atomic-Atomic Spin Densities.
               1          2          3          4          5          6
     1  Na   8.560755  -1.671141  -4.048646  -1.513148  -1.681757   0.438108
     2  Na  -1.671141   0.563930   0.836999   0.212705   0.252930  -0.051538
     3  Na  -4.048646   0.836999   2.929346  -0.320301   0.759341  -0.259965
     4  Na  -1.513148   0.212705  -0.320301   1.652884   0.395414   0.033806
     5  Na  -1.681757   0.252930   0.759341   0.395414   1.034406  -0.216091
     6  Na   0.438108  -0.051538  -0.259965   0.033806  -0.216091  -0.030210
     7  Na  -0.066912   0.045089   0.015180   0.031803  -0.052194  -0.016580
               7
     1  Na  -0.066912
     2  Na   0.045089
     3  Na   0.015180
     4  Na   0.031803
     5  Na  -0.052194
     6  Na  -0.016580
     7  Na   0.042687
 Mulliken charges and spin densities:
               1          2
     1  Na   2.955516   0.017258
     2  Na   0.319113   0.188974
     3  Na  -0.433467  -0.088047
     4  Na  -1.033036   0.493162
     5  Na  -2.770040   0.492049
     6  Na   0.577172  -0.102470
     7  Na   0.384742  -0.000926
 Sum of Mulliken charges =  -0.00000   1.00000
 Mulliken charges and spin densities with hydrogens summed into heavy atoms:
               1          2
     1  Na   2.955516   0.017258
     2  Na   0.319113   0.188974
     3  Na  -0.433467  -0.088047
     4  Na  -1.033036   0.493162
     5  Na  -2.770040   0.492049
     6  Na   0.577172  -0.102470
     7  Na   0.384742  -0.000926
 Electronic spatial extent (au):  <R**2>=           3402.2584
 Charge=             -0.0000 electrons
 Dipole moment (field-independent basis, Debye):
    X=              1.3287    Y=              1.2684    Z=              0.4736  Tot=              1.8970
 Quadrupole moment (field-independent basis, Debye-Ang):
   XX=            -60.7362   YY=            -66.0714   ZZ=            -64.4527
   XY=             -4.3331   XZ=              4.3151   YZ=              2.1860
 Traceless Quadrupole moment (field-independent basis, Debye-Ang):
   XX=              3.0172   YY=             -2.3179   ZZ=             -0.6993
   XY=             -4.3331   XZ=              4.3151   YZ=              2.1860
 Octapole moment (field-independent basis, Debye-Ang**2):
  XXX=            101.9682  YYY=             16.6888  ZZZ=             13.9252  XYY=            -20.0764
  XXY=            -11.6540  XXZ=             26.2240  XZZ=             -3.6779  YZZ=             23.0634
  YYZ=            -18.8061  XYZ=            -11.6641
 Hexadecapole moment (field-independent basis, Debye-Ang**3):
 XXXX=          -2451.1464 YYYY=          -1711.2931 ZZZZ=           -936.4018 XXXY=           -100.0599
 XXXZ=            184.2681 YYYX=             20.8756 YYYZ=            -12.4255 ZZZX=             -3.0720
 ZZZY=             21.7860 XXYY=           -760.6084 XXZZ=           -643.4547 YYZZ=           -397.7216
 XXYZ=             12.7854 YYXZ=             44.5578 ZZXY=            -39.4845
 N-N= 3.038457654531D+02 E-N=-3.336827353612D+03  KE= 1.133046778169D+03
                          Isotropic Fermi Contact Couplings
        Atom                 a.u.       MegaHertz       Gauss      10(-4) cm-1
     1  Na(23)             0.41595     492.07571     175.58485     164.13879
     2  Na(23)             0.31538     373.10065     133.13159     124.45298
     3  Na(23)             0.13163     155.72420      55.56627      51.94400
     4  Na(23)            -0.03904     -46.18109     -16.47856     -15.40435
     5  Na(23)            -0.04989     -59.02152     -21.06035     -19.68746
     6  Na(23)            -0.01105     -13.06713      -4.66268      -4.35873
     7  Na(23)             0.03249      38.43627      13.71502      12.82096
 --------------------------------------------------------
       Center         ----  Spin Dipole Couplings  ----
                      3XX-RR        3YY-RR        3ZZ-RR
 --------------------------------------------------------
     1   Atom       -0.001104      0.010037     -0.008933
     2   Atom        0.001056      0.006545     -0.007602
     3   Atom        0.001384      0.000874     -0.002257
     4   Atom       -0.030770     -0.001851      0.032621
     5   Atom       -0.042150     -0.041123      0.083273
     6   Atom        0.002887     -0.004681      0.001794
     7   Atom        0.000318      0.000191     -0.000509
 --------------------------------------------------------
                        XY            XZ            YZ
 --------------------------------------------------------
     1   Atom       -0.002117      0.003774      0.002325
     2   Atom       -0.003822     -0.000517      0.003873
     3   Atom        0.001235     -0.000895     -0.003210
     4   Atom        0.009160      0.019637      0.052854
     5   Atom        0.003107     -0.018191     -0.020608
     6   Atom       -0.003671      0.009250     -0.004074
     7   Atom       -0.000217     -0.001122     -0.000160
 --------------------------------------------------------


 ---------------------------------------------------------------------------------
              Anisotropic Spin Dipole Couplings in Principal Axis System
 ---------------------------------------------------------------------------------

       Atom             a.u.   MegaHertz   Gauss  10(-4) cm-1        Axes

              Baa    -0.0109    -1.535    -0.548    -0.512 -0.3830 -0.1403  0.9130
     1 Na(23) Bbb     0.0003     0.043     0.015     0.014  0.9115  0.1031  0.3982
              Bcc     0.0106     1.492     0.533     0.498 -0.1500  0.9847  0.0884
 
              Baa    -0.0086    -1.217    -0.434    -0.406 -0.0509 -0.2592  0.9645
     2 Na(23) Bbb    -0.0007    -0.099    -0.035    -0.033  0.9055  0.3953  0.1540
              Bcc     0.0093     1.315     0.469     0.439 -0.4212  0.8812  0.2146
 
              Baa    -0.0043    -0.602    -0.215    -0.201  0.0196  0.5263  0.8501
     3 Na(23) Bbb     0.0004     0.062     0.022     0.021  0.8485 -0.4585  0.2643
              Bcc     0.0038     0.540     0.193     0.180  0.5288  0.7161 -0.4555
 
              Baa    -0.0424    -5.991    -2.138    -1.998  0.4717  0.6581 -0.5869
     4 Na(23) Bbb    -0.0328    -4.636    -1.654    -1.546  0.8595 -0.4918  0.1393
              Bcc     0.0753    10.627     3.792     3.545  0.1970  0.5701  0.7976
 
              Baa    -0.0448    -6.329    -2.258    -2.111  0.9022 -0.4273  0.0594
     5 Na(23) Bbb    -0.0444    -6.266    -2.236    -2.090  0.4083  0.8902  0.2019
              Bcc     0.0892    12.595     4.494     4.201 -0.1391 -0.1579  0.9776
 
              Baa    -0.0072    -1.010    -0.360    -0.337 -0.5111  0.4490  0.7329
     6 Na(23) Bbb    -0.0061    -0.864    -0.308    -0.288  0.5103  0.8447 -0.1616
              Bcc     0.0133     1.874     0.669     0.625  0.6916 -0.2914  0.6608
 
              Baa    -0.0013    -0.188    -0.067    -0.063  0.5689  0.1656  0.8055
     7 Na(23) Bbb     0.0002     0.032     0.011     0.011 -0.0150  0.9814 -0.1912
              Bcc     0.0011     0.157     0.056     0.052  0.8223 -0.0967 -0.5609
 

 ---------------------------------------------------------------------------------

 No NMR shielding tensors so no spin-rotation constants.
 Leave Link  601 at Mon Nov 13 15:21:02 2023, MaxMem=  1879048192 cpu:               2.6 elap:               0.2
 (Enter /home/sekinelabo/g16/l701.exe)
 ... and contract with generalized density number  0.
 Compute integral first derivatives.
 Leave Link  701 at Mon Nov 13 15:21:02 2023, MaxMem=  1879048192 cpu:               1.7 elap:               0.1
 (Enter /home/sekinelabo/g16/l702.exe)
 L702 exits ... SP integral derivatives will be done elsewhere.
 Leave Link  702 at Mon Nov 13 15:21:02 2023, MaxMem=  1879048192 cpu:               0.5 elap:               0.0
 (Enter /home/sekinelabo/g16/l703.exe)
 Integral derivatives from FoFJK, PRISM(SPDF).
 Compute integral first derivatives, UseDBF=F ICtDFT=           0.
 Calling FoFJK, ICntrl=      2127 FMM=F ISym2X=0 I1Cent= 0 IOpClX= 1 NMat=1 NMatS=1 NMatT=0.
 FoFJK:  IHMeth= 1 ICntrl=    2127 DoSepK=F KAlg= 0 I1Cent=           0 FoldK=F
 IRaf=         0 NMat=       1 IRICut=       1 DoRegI=T DoRafI=F ISym2E= 0 IDoP0=0 IntGTp=1.
 FoFCou: FMM=F IPFlag=           0 FMFlag=      100000 FMFlg1=         800
         NFxFlg=           0 DoJE=F BraDBF=F KetDBF=F FulRan=T
         wScrn=  0.000000 ICntrl=      2127 IOpCl=  1 I1Cent=           0 NGrid=           0
         NMat0=    1 NMatS0=      1 NMatT0=    0 NMatD0=    1 NMtDS0=    0 NMtDT0=    0
 Symmetry not used in FoFCou.
 Leave Link  703 at Mon Nov 13 15:21:04 2023, MaxMem=  1879048192 cpu:              32.0 elap:               2.0
 (Enter /home/sekinelabo/g16/l716.exe)
 Dipole        = 5.22747540D-01 4.99030262D-01 1.86318605D-01
 ***** Axes restored to original set *****
 -------------------------------------------------------------------
 Center     Atomic                   Forces (Hartrees/Bohr)
 Number     Number              X              Y              Z
 -------------------------------------------------------------------
      1       11           0.000905349    0.006957227   -0.008060672
      2       11           0.000711757    0.002667495    0.001817988
      3       11           0.000141108   -0.003019851    0.001803044
      4       11           0.006604508   -0.005906819    0.000772887
      5       11          -0.006147301    0.004088886    0.001167132
      6       11          -0.001050364   -0.005318658    0.003652882
      7       11          -0.001165058    0.000531721   -0.001153261
 -------------------------------------------------------------------
 Cartesian Forces:  Max     0.008060672 RMS     0.003892591
 Z-matrix is all fixed cartesians, so copy forces.
 Force constants in Cartesian coordinates: 
                1             2             3             4             5 
      1  0.284316D-01
      2 -0.288453D-02  0.426265D-01
      3 -0.873148D-02 -0.172793D-01  0.568480D-01
      4  0.261046D-02  0.321599D-02  0.239648D-02  0.157173D-01
      5  0.755068D-03  0.327269D-02  0.127048D-02  0.693411D-02  0.231177D-01
      6 -0.165226D-02 -0.456814D-02 -0.214100D-02 -0.663776D-03  0.128507D-01
      7  0.357243D-02  0.173016D-02  0.234084D-03 -0.968025D-05 -0.308317D-04
      8  0.143598D-02  0.341913D-02  0.333743D-02 -0.103597D-04 -0.329959D-04
      9  0.276924D-03  0.468300D-02  0.543494D-02 -0.115539D-04 -0.367992D-04
     10 -0.153190D-01  0.185995D-02  0.736756D-03  0.401779D-02 -0.119445D-02
     11  0.119166D-01 -0.310526D-01  0.509422D-02  0.433349D-02 -0.125727D-02
     12 -0.131564D-01  0.148261D-01 -0.288802D-01  0.471650D-02 -0.147493D-02
     13 -0.199994D-01 -0.282638D-02  0.520158D-02 -0.237415D-01 -0.624340D-02
     14 -0.118254D-01 -0.212492D-01  0.647178D-02 -0.117238D-01 -0.241736D-01
     15  0.197052D-01 -0.316820D-02 -0.348049D-01 -0.241164D-02 -0.941667D-02
     16  0.733722D-03 -0.111874D-02  0.175089D-03  0.138137D-02 -0.202048D-03
     17  0.553035D-03  0.302246D-02  0.108468D-02 -0.270936D-02 -0.957023D-03
     18  0.349815D-02  0.555376D-02  0.351804D-02 -0.397733D-02 -0.322979D-02
     19 -0.298084D-04  0.235498D-04 -0.125107D-04  0.242595D-04 -0.184548D-04
     20  0.492318D-04 -0.388949D-04  0.206628D-04 -0.400671D-04  0.304800D-04
     21  0.598215D-04 -0.472612D-04  0.251074D-04 -0.486856D-04  0.370362D-04
                6             7             8             9            10 
      6  0.233759D-01
      7  0.364343D-04  0.120267D-01
      8  0.389917D-04 -0.761778D-02  0.280317D-01
      9  0.434862D-04  0.222545D-02 -0.107888D-01  0.178599D-01
     10  0.488155D-05 -0.176793D-01  0.579857D-02 -0.190722D-02  0.698892D-01
     11 -0.282926D-04  0.971737D-03 -0.316608D-01  0.867423D-02 -0.177307D-01
     12  0.843927D-04  0.136274D-02  0.652468D-02 -0.271122D-01 -0.243602D-02
     13  0.248641D-02  0.210370D-02  0.408462D-03 -0.567011D-03 -0.382806D-01
     14 -0.101754D-01  0.494956D-02  0.245988D-03 -0.252826D-02  0.852702D-02
     15 -0.261039D-01 -0.381394D-02  0.935581D-03  0.382729D-02  0.283632D-02
     16 -0.223876D-03 -0.138954D-04 -0.148708D-04 -0.165849D-04 -0.261932D-02
     17  0.190227D-02 -0.284711D-05 -0.304696D-05 -0.339817D-05  0.272516D-02
     18  0.476556D-02 -0.447695D-04 -0.479120D-04 -0.534346D-04  0.747712D-03
     19  0.121848D-04  0.000000D+00  0.000000D+00  0.000000D+00 -0.875804D-05
     20 -0.201244D-04  0.000000D+00  0.000000D+00  0.000000D+00  0.144648D-04
     21 -0.244532D-04  0.000000D+00  0.000000D+00  0.000000D+00  0.175762D-04
               11            12            13            14            15 
     11  0.890632D-01
     12 -0.171907D-01  0.746299D-01
     13  0.513336D-02  0.840268D-02  0.103781D+00
     14 -0.298664D-01 -0.163743D-02  0.142996D-01  0.108602D+00
     15  0.223598D-02 -0.187081D-01 -0.199265D-01  0.935969D-02  0.103088D+00
     16 -0.462265D-02  0.113872D-02 -0.223973D-01 -0.507952D-02  0.508621D-02
     17  0.477088D-02 -0.109433D-02 -0.659346D-02 -0.360425D-01  0.410773D-02
     18  0.121096D-02 -0.704458D-04  0.185309D-02 -0.106942D-04 -0.298745D-01
     19 -0.179448D-05 -0.282174D-04 -0.146577D-02  0.852491D-03 -0.147568D-02
     20  0.296378D-05  0.466040D-04 -0.417821D-02  0.248413D-02 -0.405412D-02
     21  0.360129D-05  0.566286D-04  0.254975D-02 -0.147972D-02  0.257604D-02
               16            17            18            19            20 
     16  0.512632D-01
     17  0.776649D-02  0.368479D-01
     18  0.104206D-01 -0.110680D-01  0.345446D-01
     19 -0.283477D-01 -0.173902D-02 -0.124974D-01  0.298278D-01
     20  0.327135D-02 -0.763873D-02  0.759164D-02  0.883233D-03  0.516005D-02
     21 -0.165801D-01  0.507100D-02 -0.128298D-01  0.140017D-01 -0.358465D-02
               21 
     21  0.101965D-01
 Leave Link  716 at Mon Nov 13 15:21:04 2023, MaxMem=  1879048192 cpu:               0.4 elap:               0.0
 (Enter /home/sekinelabo/g16/l103.exe)

 GradGradGradGradGradGradGradGradGradGradGradGradGradGradGradGradGradGrad
 Berny optimization.
 Search for a local minimum.
 Step number   1 out of a maximum of    2
 All quantities printed in internal units (Hartrees-Bohrs-Radians)
 Second derivative matrix not updated -- first step.
 ITU=  0
     Eigenvalues ---    0.00066   0.00398   0.00859   0.01227   0.02732
     Eigenvalues ---    0.03240   0.03657   0.04882   0.05716   0.07405
     Eigenvalues ---    0.08572   0.11847   0.13934   0.15526   0.16412
 Quadratic step=5.334D-01 exceeds max=3.000D-01 adjusted using Lamda=-5.897D-03.
 Angle between NR and scaled steps=  34.92 degrees.
 Angle between quadratic step and forces=  36.28 degrees.
 Linear search not attempted -- first point.
 B after Tr=     0.000000    0.000000   -0.000000
         Rot=    1.000000    0.000000   -0.000000   -0.000000 Ang=   0.00 deg.
 Variable       Old X    -DE/DX   Delta X   Delta X   Delta X     New X
                                 (Linear)    (Quad)   (Total)
    X1       11.68182   0.00091   0.00000   0.06085   0.06085  11.74266
    Y1        8.77274   0.00696   0.00000   0.11663   0.11663   8.88938
    Z1        0.00000  -0.00806   0.00000  -0.09867  -0.09867  -0.09867
    X2        9.98446   0.00071   0.00000  -0.01157  -0.01157   9.97289
    Y2       11.67712   0.00267   0.00000   0.11696   0.11696  11.79408
    Z2        8.48685   0.00182   0.00000   0.03920   0.03920   8.52606
    X3       15.10491   0.00014   0.00000  -0.00690  -0.00690  15.09801
    Y3        0.00000  -0.00302   0.00000  -0.13370  -0.13370  -0.13370
    Z3        6.24629   0.00180   0.00000   0.01902   0.01902   6.26531
    X4       13.45146   0.00660   0.00000   0.07874   0.07874  13.53020
    Y4        4.65043  -0.00591   0.00000  -0.03753  -0.03753   4.61290
    Z4        3.46181   0.00077   0.00000  -0.01977  -0.01977   3.44205
    X5        8.77948  -0.00615   0.00000  -0.02847  -0.02847   8.75101
    Y5        7.60856   0.00409   0.00000   0.06279   0.06279   7.67135
    Z5        4.72377   0.00117   0.00000  -0.00410  -0.00410   4.71967
    X6        5.01968  -0.00105   0.00000  -0.04400  -0.04400   4.97567
    Y6        3.60474  -0.00532   0.00000  -0.06981  -0.06981   3.53493
    Z6        6.14535   0.00365   0.00000   0.06599   0.06599   6.21134
    X7        0.00000  -0.00117   0.00000  -0.04865  -0.04865  -0.04865
    Y7        3.76090   0.00053   0.00000  -0.05534  -0.05534   3.70556
    Z7        3.51558  -0.00115   0.00000  -0.00168  -0.00168   3.51391
         Item               Value     Threshold  Converged?
 Maximum Force            0.008061     0.000450     NO 
 RMS     Force            0.003893     0.000300     NO 
 Maximum Displacement     0.133704     0.001800     NO 
 RMS     Displacement     0.065481     0.001200     NO 
 Predicted change in Energy=-2.423070D-03
 GradGradGradGradGradGradGradGradGradGradGradGradGradGradGradGradGradGrad

 Leave Link  103 at Mon Nov 13 15:21:04 2023, MaxMem=  1879048192 cpu:               0.3 elap:               0.0
 (Enter /home/sekinelabo/g16/l9999.exe)
 1\1\GINC-SEKINELABO-XA7R-R37\Force\UB3LYP\6-311+G(d)\Na7(2)\SEKINELABO
 \13-Nov-2023\0\\#P B3LYP/6-311+g(d) force\\Gaussian input prepared by 
 ASE\\0,2\Na,6.1817517283,4.6423363808,0.\Na,5.283547326,6.1792680792,4
 .4910495895\Na,7.9931740656,0.,3.3053932982\Na,7.1182082767,2.46089985
 ,1.8319128976\Na,4.6459024991,4.026275954,2.4997101175\Na,2.6562986738
 ,1.9075472883,3.2519777527\Na,0.,1.9901827924,1.8603655176\\Version=ES
 64L-G16RevB.01\State=2-A\HF=-1136.0958195\S2=0.76642\S2-1=0.\S2A=0.750
 118\RMSD=2.446e-09\RMSF=3.893e-03\Dipole=-0.5227475,0.4990303,-0.18631
 86\Quadrupole=2.2432477,-1.7233375,-0.5199102,3.2215547,3.2081586,-1.6
 252191\PG=C01 [X(Na7)]\\@


 IT IS A QUALITY OF REVOLUTIONS NOT TO GO BY OLD LINES OR OLD LAWS,
 BUT TO BREAK UP BOTH, AND MAKE NEW ONES.
                                              -- A. LINCOLN (1848)
 Job cpu time:       0 days  0 hours  5 minutes  2.4 seconds.
 Elapsed time:       0 days  0 hours  0 minutes 25.2 seconds.
 File lengths (MBytes):  RWF=     32 Int=      0 D2E=      0 Chk=      5 Scr=      1
 Normal termination of Gaussian 16 at Mon Nov 13 15:21:04 2023.
