 Entering Gaussian System, Link 0=g16
 Initial command:
 /home/sekinelabo/g16/l1.exe "/home/sekinelabo/g16temp/Gau-4051949.inp" -scrdir="/home/sekinelabo/g16temp/"
 Entering Link 1 = /home/sekinelabo/g16/l1.exe PID=   4051951.
  
 Copyright (c) 1988-2017, Gaussian, Inc.  All Rights Reserved.
  
 This is part of the Gaussian(R) 16 program.  It is based on
 the Gaussian(R) 09 system (copyright 2009, Gaussian, Inc.),
 the Gaussian(R) 03 system (copyright 2003, Gaussian, Inc.),
 the Gaussian(R) 98 system (copyright 1998, Gaussian, Inc.),
 the Gaussian(R) 94 system (copyright 1995, Gaussian, Inc.),
 the Gaussian 92(TM) system (copyright 1992, Gaussian, Inc.),
 the Gaussian 90(TM) system (copyright 1990, Gaussian, Inc.),
 the Gaussian 88(TM) system (copyright 1988, Gaussian, Inc.),
 the Gaussian 86(TM) system (copyright 1986, Carnegie Mellon
 University), and the Gaussian 82(TM) system (copyright 1983,
 Carnegie Mellon University). Gaussian is a federally registered
 trademark of Gaussian, Inc.
  
 This software contains proprietary and confidential information,
 including trade secrets, belonging to Gaussian, Inc.
  
 This software is provided under written license and may be
 used, copied, transmitted, or stored only in accord with that
 written license.
  
 The following legend is applicable only to US Government
 contracts under FAR:
  
                    RESTRICTED RIGHTS LEGEND
  
 Use, reproduction and disclosure by the US Government is
 subject to restrictions as set forth in subparagraphs (a)
 and (c) of the Commercial Computer Software - Restricted
 Rights clause in FAR 52.227-19.
  
 Gaussian, Inc.
 340 Quinnipiac St., Bldg. 40, Wallingford CT 06492
  
  
 ---------------------------------------------------------------
 Warning -- This program may not be used in any manner that
 competes with the business of Gaussian, Inc. or will provide
 assistance to any competitor of Gaussian, Inc.  The licensee
 of this program is prohibited from giving any competitor of
 Gaussian, Inc. access to this program.  By using this program,
 the user acknowledges that Gaussian, Inc. is engaged in the
 business of creating and licensing software in the field of
 computational chemistry and represents and warrants to the
 licensee that it is not a competitor of Gaussian, Inc. and that
 it will not use this program in any manner prohibited above.
 ---------------------------------------------------------------
  

 Cite this work as:
 Gaussian 16, Revision B.01,
 M. J. Frisch, G. W. Trucks, H. B. Schlegel, G. E. Scuseria, 
 M. A. Robb, J. R. Cheeseman, G. Scalmani, V. Barone, 
 G. A. Petersson, H. Nakatsuji, X. Li, M. Caricato, A. V. Marenich, 
 J. Bloino, B. G. Janesko, R. Gomperts, B. Mennucci, H. P. Hratchian, 
 J. V. Ortiz, A. F. Izmaylov, J. L. Sonnenberg, D. Williams-Young, 
 F. Ding, F. Lipparini, F. Egidi, J. Goings, B. Peng, A. Petrone, 
 T. Henderson, D. Ranasinghe, V. G. Zakrzewski, J. Gao, N. Rega, 
 G. Zheng, W. Liang, M. Hada, M. Ehara, K. Toyota, R. Fukuda, 
 J. Hasegawa, M. Ishida, T. Nakajima, Y. Honda, O. Kitao, H. Nakai, 
 T. Vreven, K. Throssell, J. A. Montgomery, Jr., J. E. Peralta, 
 F. Ogliaro, M. J. Bearpark, J. J. Heyd, E. N. Brothers, K. N. Kudin, 
 V. N. Staroverov, T. A. Keith, R. Kobayashi, J. Normand, 
 K. Raghavachari, A. P. Rendell, J. C. Burant, S. S. Iyengar, 
 J. Tomasi, M. Cossi, J. M. Millam, M. Klene, C. Adamo, R. Cammi, 
 J. W. Ochterski, R. L. Martin, K. Morokuma, O. Farkas, 
 J. B. Foresman, and D. J. Fox, Gaussian, Inc., Wallingford CT, 2016.
 
 ******************************************
 Gaussian 16:  ES64L-G16RevB.01 20-Dec-2017
                13-Nov-2023 
 ******************************************
 %mem=14GB
 %chk=checkpoint.chk
 %nprocshared=16
 Will use up to   16 processors via shared memory.
 -------------------------
 #P B3LYP/6-311+g(d) force
 -------------------------
 1/10=7,30=1,38=1/1,3;
 2/12=2,17=6,18=5,40=1/2;
 3/5=4,6=6,7=11,11=2,25=1,30=1,71=1,74=-5/1,2,3;
 4//1;
 5/5=2,38=5/2;
 6/7=2,8=2,9=2,10=2,28=1/1;
 7/29=1/1,2,3,16;
 1/10=7,30=1/3;
 99//99;
 Leave Link    1 at Mon Nov 13 16:32:27 2023, MaxMem=  1879048192 cpu:               0.3 elap:               0.0
 (Enter /home/sekinelabo/g16/l101.exe)
 ------------------------------
 Gaussian input prepared by ASE
 ------------------------------
 Symbolic Z-matrix:
 Charge =  0 Multiplicity = 2
 Na                    2.98327   2.81012   1.23011 
 Na                    1.26387   1.04572   2.9315 
 Na                    0.        2.88648   0.9289 
 Na                    1.53789   0.48815   0. 
 Na                    3.85465   0.        1.83679 
 Na                    6.60668   0.76896   0.90884 
 Na                    5.86154   3.59875   1.58671 
 
 ITRead=  0  0  0  0  0  0  0
 MicOpt= -1 -1 -1 -1 -1 -1 -1
 NAtoms=      7 NQM=        7 NQMF=       0 NMMI=      0 NMMIF=      0
                NMic=       0 NMicF=      0.
                    Isotopes and Nuclear Properties:
 (Nuclear quadrupole moments (NQMom) in fm**2, nuclear magnetic moments (NMagM)
  in nuclear magnetons)

  Atom         1           2           3           4           5           6           7
 IAtWgt=          23          23          23          23          23          23          23
 AtmWgt=  22.9897697  22.9897697  22.9897697  22.9897697  22.9897697  22.9897697  22.9897697
 NucSpn=           3           3           3           3           3           3           3
 AtZEff=  -0.0000000  -0.0000000  -0.0000000  -0.0000000  -0.0000000  -0.0000000  -0.0000000
 NQMom=   10.4000000  10.4000000  10.4000000  10.4000000  10.4000000  10.4000000  10.4000000
 NMagM=    2.2175200   2.2175200   2.2175200   2.2175200   2.2175200   2.2175200   2.2175200
 AtZNuc=  11.0000000  11.0000000  11.0000000  11.0000000  11.0000000  11.0000000  11.0000000
 Leave Link  101 at Mon Nov 13 16:32:27 2023, MaxMem=  1879048192 cpu:               2.6 elap:               0.2
 (Enter /home/sekinelabo/g16/l103.exe)

 GradGradGradGradGradGradGradGradGradGradGradGradGradGradGradGradGradGrad
 Berny optimization.
 Initialization pass.
 Trust Radius=3.00D-01 FncErr=1.00D-07 GrdErr=1.00D-07 EigMax=2.50D+02 EigMin=1.00D-04
 Number of steps in this run=      2 maximum allowed number of steps=      2.
 GradGradGradGradGradGradGradGradGradGradGradGradGradGradGradGradGradGrad

 Leave Link  103 at Mon Nov 13 16:32:27 2023, MaxMem=  1879048192 cpu:               0.3 elap:               0.0
 (Enter /home/sekinelabo/g16/l202.exe)
                          Input orientation:                          
 ---------------------------------------------------------------------
 Center     Atomic      Atomic             Coordinates (Angstroms)
 Number     Number       Type             X           Y           Z
 ---------------------------------------------------------------------
      1         11           0        2.983269    2.810116    1.230108
      2         11           0        1.263869    1.045717    2.931502
      3         11           0        0.000000    2.886483    0.928902
      4         11           0        1.537890    0.488152    0.000000
      5         11           0        3.854648    0.000000    1.836787
      6         11           0        6.606685    0.768957    0.908840
      7         11           0        5.861543    3.598751    1.586705
 ---------------------------------------------------------------------
                    Distance matrix (angstroms):
                    1          2          3          4          5
     1  Na   0.000000
     2  Na   2.994024   0.000000
     3  Na   2.999408   2.999365   0.000000
     4  Na   2.998966   2.996610   2.996657   0.000000
     5  Na   3.004016   3.000677   4.900444   2.996572   0.000000
     6  Na   4.171173   5.719566   6.937767   5.157278   3.004344
     7  Na   3.005590   5.428174   5.941188   5.557646   4.128096
                    6          7
     6  Na   0.000000
     7  Na   3.003744   0.000000
 Stoichiometry    Na7(2)
 Framework group  C1[X(Na7)]
 Deg. of freedom    15
 Full point group                 C1      NOp   1
 Largest Abelian subgroup         C1      NOp   1
 Largest concise Abelian subgroup C1      NOp   1
                         Standard orientation:                         
 ---------------------------------------------------------------------
 Center     Atomic      Atomic             Coordinates (Angstroms)
 Number     Number       Type             X           Y           Z
 ---------------------------------------------------------------------
      1         11           0       -0.175003    1.153234   -0.116013
      2         11           0       -1.894403   -0.611165    1.585382
      3         11           0       -3.158272    1.229600   -0.417219
      4         11           0       -1.620382   -1.168730   -1.346121
      5         11           0        0.696376   -1.656882    0.490666
      6         11           0        3.448413   -0.887926   -0.437280
      7         11           0        2.703271    1.941869    0.240584
 ---------------------------------------------------------------------
 Rotational constants (GHZ):           1.3016266           0.5373878           0.4599897
 Leave Link  202 at Mon Nov 13 16:32:27 2023, MaxMem=  1879048192 cpu:               0.1 elap:               0.0
 (Enter /home/sekinelabo/g16/l301.exe)
 Standard basis: 6-311+G(d) (5D, 7F)
 Ernie: Thresh=  0.10000D-02 Tol=  0.10000D-05 Strict=F.
 There are   217 symmetry adapted cartesian basis functions of A   symmetry.
 There are   210 symmetry adapted basis functions of A   symmetry.
   210 basis functions,   350 primitive gaussians,   217 cartesian basis functions
    39 alpha electrons       38 beta electrons
       nuclear repulsion energy       366.9844163586 Hartrees.
 IExCor=  402 DFT=T Ex+Corr=B3LYP ExCW=0 ScaHFX=  0.200000
 ScaDFX=  0.800000  0.720000  1.000000  0.810000 ScalE2=  1.000000  1.000000
 IRadAn=      5 IRanWt=     -1 IRanGd=            0 ICorTp=0 IEmpDi=  4
 NAtoms=    7 NActive=    7 NUniq=    7 SFac= 1.00D+00 NAtFMM=   60 NAOKFM=F Big=F
 Integral buffers will be    131072 words long.
 Raffenetti 2 integral format.
 Two-electron integral symmetry is turned on.
 Leave Link  301 at Mon Nov 13 16:32:27 2023, MaxMem=  1879048192 cpu:               0.5 elap:               0.0
 (Enter /home/sekinelabo/g16/l302.exe)
 NPDir=0 NMtPBC=     1 NCelOv=     1 NCel=       1 NClECP=     1 NCelD=      1
         NCelK=      1 NCelE2=     1 NClLst=     1 CellRange=     0.0.
 One-electron integrals computed using PRISM.
 One-electron integral symmetry used in STVInt
 NBasis=   210 RedAO= T EigKep=  3.45D-06  NBF=   210
 NBsUse=   209 1.00D-06 EigRej=  9.69D-07 NBFU=   209
 Precomputing XC quadrature grid using
 IXCGrd= 4 IRadAn=           5 IRanWt=          -1 IRanGd=           0 AccXCQ= 0.00D+00.
 Generated NRdTot=       0 NPtTot=           0 NUsed=           0 NTot=          32
 NSgBfM=   210   210   210   210   210 MxSgAt=     7 MxSgA2=     7.
 Leave Link  302 at Mon Nov 13 16:32:27 2023, MaxMem=  1879048192 cpu:               2.1 elap:               0.1
 (Enter /home/sekinelabo/g16/l303.exe)
 DipDrv:  MaxL=1.
 Leave Link  303 at Mon Nov 13 16:32:27 2023, MaxMem=  1879048192 cpu:               0.5 elap:               0.0
 (Enter /home/sekinelabo/g16/l401.exe)
 ExpMin= 7.60D-03 ExpMax= 3.62D+04 ExpMxC= 1.21D+03 IAcc=3 IRadAn=         5 AccDes= 0.00D+00
 Harris functional with IExCor=  402 and IRadAn=       5 diagonalized for initial guess.
 HarFok:  IExCor=  402 AccDes= 0.00D+00 IRadAn=         5 IDoV= 1 UseB2=F ITyADJ=14
 ICtDFT=  3500011 ScaDFX=  1.000000  1.000000  1.000000  1.000000
 FoFCou: FMM=F IPFlag=           0 FMFlag=      100000 FMFlg1=           0
         NFxFlg=           0 DoJE=T BraDBF=F KetDBF=T FulRan=T
         wScrn=  0.000000 ICntrl=       500 IOpCl=  0 I1Cent=   200000004 NGrid=           0
         NMat0=    1 NMatS0=      1 NMatT0=    0 NMatD0=    1 NMtDS0=    0 NMtDT0=    0
 Petite list used in FoFCou.
 Harris En= -1135.86433250828    
 JPrj=0 DoOrth=F DoCkMO=F.
 Initial guess <Sx>= 0.0000 <Sy>= 0.0000 <Sz>= 0.5000 <S**2>= 0.7500 S= 0.5000
 Leave Link  401 at Mon Nov 13 16:32:27 2023, MaxMem=  1879048192 cpu:               4.7 elap:               0.3
 (Enter /home/sekinelabo/g16/l502.exe)
 Keep R1 and R2 ints in memory in canonical form, NReq=507620374.
 FoFCou: FMM=F IPFlag=           0 FMFlag=           0 FMFlg1=           0
         NFxFlg=           0 DoJE=F BraDBF=F KetDBF=F FulRan=T
         wScrn=  0.000000 ICntrl=       600 IOpCl=  0 I1Cent=           0 NGrid=           0
         NMat0=    1 NMatS0=  22155 NMatT0=    0 NMatD0=    1 NMtDS0=    0 NMtDT0=    0
 Symmetry not used in FoFCou.
 Two-electron integral symmetry not used.
 UHF open shell SCF:
 Using DIIS extrapolation, IDIIS=  1040.
 NGot=  1879048192 LenX=  1388082362 LenY=  1388034832
 Requested convergence on RMS density matrix=1.00D-08 within 128 cycles.
 Requested convergence on MAX density matrix=1.00D-06.
 Requested convergence on             energy=1.00D-06.
 No special actions if energy rises.

 Cycle   1  Pass 1  IDiag  1:
 E= -1136.04665586146    
 DIIS: error= 1.10D-02 at cycle   1 NSaved=   1.
 NSaved= 1 IEnMin= 1 EnMin= -1136.04665586146     IErMin= 1 ErrMin= 1.10D-02
 ErrMax= 1.10D-02  0.00D+00 EMaxC= 1.00D-01 BMatC= 2.04D-01 BMatP= 2.04D-01
 IDIUse=3 WtCom= 8.90D-01 WtEn= 1.10D-01
 Coeff-Com:  0.100D+01
 Coeff-En:   0.100D+01
 Coeff:      0.100D+01
 Gap=     0.019 Goal=   None    Shift=    0.000
 Gap=     0.048 Goal=   None    Shift=    0.000
 GapD=    0.019 DampG=0.250 DampE=0.500 DampFc=0.2500 IDamp=-1.
 Damping current iteration by 2.50D-01
 RMSDP=4.06D-02 MaxDP=3.90D+00              OVMax= 3.69D-01

 Cycle   2  Pass 1  IDiag  1:
 E= -1136.06171095598     Delta-E=       -0.015055094519 Rises=F Damp=T
 DIIS: error= 7.71D-03 at cycle   2 NSaved=   2.
 NSaved= 2 IEnMin= 2 EnMin= -1136.06171095598     IErMin= 2 ErrMin= 7.71D-03
 ErrMax= 7.71D-03  0.00D+00 EMaxC= 1.00D-01 BMatC= 7.54D-02 BMatP= 2.04D-01
 IDIUse=3 WtCom= 9.23D-01 WtEn= 7.71D-02
 Coeff-Com: -0.115D+01 0.215D+01
 Coeff-En:   0.000D+00 0.100D+01
 Coeff:     -0.106D+01 0.206D+01
 Gap=     0.041 Goal=   None    Shift=    0.000
 Gap=     0.043 Goal=   None    Shift=    0.000
 RMSDP=1.87D-02 MaxDP=1.71D+00 DE=-1.51D-02 OVMax= 3.96D-01

 Cycle   3  Pass 1  IDiag  1:
 E= -1136.06215801335     Delta-E=       -0.000447057362 Rises=F Damp=F
 DIIS: error= 9.23D-03 at cycle   3 NSaved=   3.
 NSaved= 3 IEnMin= 3 EnMin= -1136.06215801335     IErMin= 2 ErrMin= 7.71D-03
 ErrMax= 9.23D-03  0.00D+00 EMaxC= 1.00D-01 BMatC= 2.53D-02 BMatP= 7.54D-02
 IDIUse=3 WtCom= 9.08D-01 WtEn= 9.23D-02
 Coeff-Com: -0.647D+00 0.115D+01 0.499D+00
 Coeff-En:   0.000D+00 0.489D+00 0.511D+00
 Coeff:     -0.587D+00 0.109D+01 0.500D+00
 Gap=     0.031 Goal=   None    Shift=    0.000
 Gap=     0.049 Goal=   None    Shift=    0.000
 RMSDP=1.12D-02 MaxDP=8.82D-01 DE=-4.47D-04 OVMax= 2.96D-01

 Cycle   4  Pass 1  IDiag  1:
 E= -1136.07644186123     Delta-E=       -0.014283847881 Rises=F Damp=F
 DIIS: error= 7.40D-03 at cycle   4 NSaved=   4.
 NSaved= 4 IEnMin= 4 EnMin= -1136.07644186123     IErMin= 4 ErrMin= 7.40D-03
 ErrMax= 7.40D-03  0.00D+00 EMaxC= 1.00D-01 BMatC= 1.18D-02 BMatP= 2.53D-02
 IDIUse=3 WtCom= 9.26D-01 WtEn= 7.40D-02
 Coeff-Com: -0.597D-01 0.114D+00 0.391D+00 0.554D+00
 Coeff-En:   0.000D+00 0.000D+00 0.379D+00 0.621D+00
 Coeff:     -0.553D-01 0.106D+00 0.391D+00 0.559D+00
 Gap=     0.034 Goal=   None    Shift=    0.000
 Gap=     0.040 Goal=   None    Shift=    0.000
 RMSDP=4.28D-03 MaxDP=1.87D-01 DE=-1.43D-02 OVMax= 1.64D-01

 Cycle   5  Pass 1  IDiag  1:
 E= -1136.08994332963     Delta-E=       -0.013501468402 Rises=F Damp=F
 DIIS: error= 1.50D-03 at cycle   5 NSaved=   5.
 NSaved= 5 IEnMin= 5 EnMin= -1136.08994332963     IErMin= 5 ErrMin= 1.50D-03
 ErrMax= 1.50D-03  0.00D+00 EMaxC= 1.00D-01 BMatC= 1.26D-03 BMatP= 1.18D-02
 IDIUse=3 WtCom= 9.85D-01 WtEn= 1.50D-02
 Coeff-Com:  0.101D-01-0.148D-01 0.188D+00 0.337D+00 0.480D+00
 Coeff-En:   0.000D+00 0.000D+00 0.000D+00 0.683D-01 0.932D+00
 Coeff:      0.993D-02-0.146D-01 0.185D+00 0.333D+00 0.487D+00
 Gap=     0.034 Goal=   None    Shift=    0.000
 Gap=     0.041 Goal=   None    Shift=    0.000
 RMSDP=1.83D-03 MaxDP=1.12D-01 DE=-1.35D-02 OVMax= 3.96D-02

 Cycle   6  Pass 1  IDiag  1:
 E= -1136.09111465760     Delta-E=       -0.001171327975 Rises=F Damp=F
 DIIS: error= 3.46D-04 at cycle   6 NSaved=   6.
 NSaved= 6 IEnMin= 6 EnMin= -1136.09111465760     IErMin= 6 ErrMin= 3.46D-04
 ErrMax= 3.46D-04  0.00D+00 EMaxC= 1.00D-01 BMatC= 4.13D-05 BMatP= 1.26D-03
 IDIUse=3 WtCom= 9.97D-01 WtEn= 3.46D-03
 Coeff-Com: -0.183D-02 0.193D-02-0.155D-01-0.280D-01 0.124D+00 0.920D+00
 Coeff-En:   0.000D+00 0.000D+00 0.000D+00 0.000D+00 0.000D+00 0.100D+01
 Coeff:     -0.182D-02 0.192D-02-0.155D-01-0.279D-01 0.123D+00 0.920D+00
 Gap=     0.035 Goal=   None    Shift=    0.000
 Gap=     0.042 Goal=   None    Shift=    0.000
 RMSDP=4.89D-04 MaxDP=2.81D-02 DE=-1.17D-03 OVMax= 9.28D-03

 Cycle   7  Pass 1  IDiag  1:
 E= -1136.09116540517     Delta-E=       -0.000050747567 Rises=F Damp=F
 DIIS: error= 4.46D-05 at cycle   7 NSaved=   7.
 NSaved= 7 IEnMin= 7 EnMin= -1136.09116540517     IErMin= 7 ErrMin= 4.46D-05
 ErrMax= 4.46D-05  0.00D+00 EMaxC= 1.00D-01 BMatC= 8.44D-07 BMatP= 4.13D-05
 IDIUse=1 WtCom= 1.00D+00 WtEn= 0.00D+00
 Coeff-Com: -0.565D-03 0.691D-03-0.572D-02-0.621D-02-0.139D-01 0.155D-01
 Coeff-Com:  0.101D+01
 Coeff:     -0.565D-03 0.691D-03-0.572D-02-0.621D-02-0.139D-01 0.155D-01
 Coeff:      0.101D+01
 Gap=     0.035 Goal=   None    Shift=    0.000
 Gap=     0.042 Goal=   None    Shift=    0.000
 RMSDP=1.61D-04 MaxDP=1.15D-02 DE=-5.07D-05 OVMax= 3.62D-03

 Cycle   8  Pass 1  IDiag  1:
 E= -1136.09116860550     Delta-E=       -0.000003200333 Rises=F Damp=F
 DIIS: error= 2.07D-05 at cycle   8 NSaved=   8.
 NSaved= 8 IEnMin= 8 EnMin= -1136.09116860550     IErMin= 8 ErrMin= 2.07D-05
 ErrMax= 2.07D-05  0.00D+00 EMaxC= 1.00D-01 BMatC= 2.14D-07 BMatP= 8.44D-07
 IDIUse=1 WtCom= 1.00D+00 WtEn= 0.00D+00
 Coeff-Com:  0.344D-03-0.474D-03-0.558D-03 0.184D-03-0.157D-01-0.805D-01
 Coeff-Com:  0.210D+00 0.887D+00
 Coeff:      0.344D-03-0.474D-03-0.558D-03 0.184D-03-0.157D-01-0.805D-01
 Coeff:      0.210D+00 0.887D+00
 Gap=     0.035 Goal=   None    Shift=    0.000
 Gap=     0.042 Goal=   None    Shift=    0.000
 RMSDP=7.31D-05 MaxDP=4.64D-03 DE=-3.20D-06 OVMax= 2.35D-03

 Cycle   9  Pass 1  IDiag  1:
 E= -1136.09116960229     Delta-E=       -0.000000996785 Rises=F Damp=F
 DIIS: error= 2.23D-05 at cycle   9 NSaved=   9.
 NSaved= 9 IEnMin= 9 EnMin= -1136.09116960229     IErMin= 8 ErrMin= 2.07D-05
 ErrMax= 2.23D-05  0.00D+00 EMaxC= 1.00D-01 BMatC= 1.37D-07 BMatP= 2.14D-07
 IDIUse=1 WtCom= 1.00D+00 WtEn= 0.00D+00
 Coeff-Com:  0.439D-03-0.576D-03 0.126D-02 0.152D-02-0.594D-02-0.507D-01
 Coeff-Com: -0.170D+00 0.513D+00 0.711D+00
 Coeff:      0.439D-03-0.576D-03 0.126D-02 0.152D-02-0.594D-02-0.507D-01
 Coeff:     -0.170D+00 0.513D+00 0.711D+00
 Gap=     0.035 Goal=   None    Shift=    0.000
 Gap=     0.042 Goal=   None    Shift=    0.000
 RMSDP=5.15D-05 MaxDP=2.96D-03 DE=-9.97D-07 OVMax= 1.97D-03

 Cycle  10  Pass 1  IDiag  1:
 E= -1136.09117025310     Delta-E=       -0.000000650812 Rises=F Damp=F
 DIIS: error= 1.06D-05 at cycle  10 NSaved=  10.
 NSaved=10 IEnMin=10 EnMin= -1136.09117025310     IErMin=10 ErrMin= 1.06D-05
 ErrMax= 1.06D-05  0.00D+00 EMaxC= 1.00D-01 BMatC= 5.63D-08 BMatP= 1.37D-07
 IDIUse=1 WtCom= 1.00D+00 WtEn= 0.00D+00
 Coeff-Com:  0.132D-03-0.163D-03 0.105D-02 0.473D-03 0.375D-02 0.715D-02
 Coeff-Com: -0.196D+00-0.497D-02 0.418D+00 0.771D+00
 Coeff:      0.132D-03-0.163D-03 0.105D-02 0.473D-03 0.375D-02 0.715D-02
 Coeff:     -0.196D+00-0.497D-02 0.418D+00 0.771D+00
 Gap=     0.035 Goal=   None    Shift=    0.000
 Gap=     0.042 Goal=   None    Shift=    0.000
 RMSDP=4.03D-05 MaxDP=2.40D-03 DE=-6.51D-07 OVMax= 1.77D-03

 Cycle  11  Pass 1  IDiag  1:
 E= -1136.09117067803     Delta-E=       -0.000000424926 Rises=F Damp=F
 DIIS: error= 1.06D-05 at cycle  11 NSaved=  11.
 NSaved=11 IEnMin=11 EnMin= -1136.09117067803     IErMin=11 ErrMin= 1.06D-05
 ErrMax= 1.06D-05  0.00D+00 EMaxC= 1.00D-01 BMatC= 2.48D-08 BMatP= 5.63D-08
 IDIUse=1 WtCom= 1.00D+00 WtEn= 0.00D+00
 Coeff-Com: -0.103D-03 0.128D-03-0.970D-04-0.913D-03 0.574D-02 0.312D-01
 Coeff-Com:  0.108D-01-0.247D+00-0.177D+00 0.224D-02 0.138D+01
 Coeff:     -0.103D-03 0.128D-03-0.970D-04-0.913D-03 0.574D-02 0.312D-01
 Coeff:      0.108D-01-0.247D+00-0.177D+00 0.224D-02 0.138D+01
 Gap=     0.035 Goal=   None    Shift=    0.000
 Gap=     0.042 Goal=   None    Shift=    0.000
 RMSDP=5.45D-05 MaxDP=3.02D-03 DE=-4.25D-07 OVMax= 2.43D-03

 Cycle  12  Pass 1  IDiag  1:
 E= -1136.09117111716     Delta-E=       -0.000000439135 Rises=F Damp=F
 DIIS: error= 7.81D-06 at cycle  12 NSaved=  12.
 NSaved=12 IEnMin=12 EnMin= -1136.09117111716     IErMin=12 ErrMin= 7.81D-06
 ErrMax= 7.81D-06  0.00D+00 EMaxC= 1.00D-01 BMatC= 1.19D-08 BMatP= 2.48D-08
 IDIUse=1 WtCom= 1.00D+00 WtEn= 0.00D+00
 Coeff-Com: -0.363D-04 0.376D-04-0.397D-03-0.490D-03 0.753D-04 0.625D-02
 Coeff-Com:  0.734D-01-0.698D-01-0.223D+00-0.365D+00 0.401D+00 0.118D+01
 Coeff:     -0.363D-04 0.376D-04-0.397D-03-0.490D-03 0.753D-04 0.625D-02
 Coeff:      0.734D-01-0.698D-01-0.223D+00-0.365D+00 0.401D+00 0.118D+01
 Gap=     0.035 Goal=   None    Shift=    0.000
 Gap=     0.042 Goal=   None    Shift=    0.000
 RMSDP=4.81D-05 MaxDP=2.87D-03 DE=-4.39D-07 OVMax= 2.02D-03

 Cycle  13  Pass 1  IDiag  1:
 E= -1136.09117140287     Delta-E=       -0.000000285708 Rises=F Damp=F
 DIIS: error= 5.98D-06 at cycle  13 NSaved=  13.
 NSaved=13 IEnMin=13 EnMin= -1136.09117140287     IErMin=13 ErrMin= 5.98D-06
 ErrMax= 5.98D-06  0.00D+00 EMaxC= 1.00D-01 BMatC= 7.72D-09 BMatP= 1.19D-08
 IDIUse=1 WtCom= 1.00D+00 WtEn= 0.00D+00
 Coeff-Com:  0.141D-05-0.337D-05-0.231D-03 0.107D-03-0.235D-02-0.892D-02
 Coeff-Com:  0.312D-01 0.622D-01-0.545D-01-0.155D+00-0.302D+00 0.516D+00
 Coeff-Com:  0.914D+00
 Coeff:      0.141D-05-0.337D-05-0.231D-03 0.107D-03-0.235D-02-0.892D-02
 Coeff:      0.312D-01 0.622D-01-0.545D-01-0.155D+00-0.302D+00 0.516D+00
 Coeff:      0.914D+00
 Gap=     0.035 Goal=   None    Shift=    0.000
 Gap=     0.042 Goal=   None    Shift=    0.000
 RMSDP=2.91D-05 MaxDP=1.76D-03 DE=-2.86D-07 OVMax= 1.12D-03

 Cycle  14  Pass 1  IDiag  1:
 E= -1136.09117154958     Delta-E=       -0.000000146705 Rises=F Damp=F
 DIIS: error= 5.34D-06 at cycle  14 NSaved=  14.
 NSaved=14 IEnMin=14 EnMin= -1136.09117154958     IErMin=14 ErrMin= 5.34D-06
 ErrMax= 5.34D-06  0.00D+00 EMaxC= 1.00D-01 BMatC= 5.06D-09 BMatP= 7.72D-09
 IDIUse=1 WtCom= 1.00D+00 WtEn= 0.00D+00
 Coeff-Com: -0.556D-04 0.804D-04 0.420D-04 0.756D-04 0.749D-03 0.170D-02
 Coeff-Com: -0.237D-01-0.745D-02 0.647D-01 0.256D+00-0.341D-01-0.955D+00
 Coeff-Com: -0.442D-01 0.174D+01
 Coeff:     -0.556D-04 0.804D-04 0.420D-04 0.756D-04 0.749D-03 0.170D-02
 Coeff:     -0.237D-01-0.745D-02 0.647D-01 0.256D+00-0.341D-01-0.955D+00
 Coeff:     -0.442D-01 0.174D+01
 Gap=     0.035 Goal=   None    Shift=    0.000
 Gap=     0.042 Goal=   None    Shift=    0.000
 RMSDP=3.75D-05 MaxDP=2.18D-03 DE=-1.47D-07 OVMax= 1.73D-03

 Cycle  15  Pass 1  IDiag  1:
 E= -1136.09117172023     Delta-E=       -0.000000170652 Rises=F Damp=F
 DIIS: error= 4.33D-06 at cycle  15 NSaved=  15.
 NSaved=15 IEnMin=15 EnMin= -1136.09117172023     IErMin=15 ErrMin= 4.33D-06
 ErrMax= 4.33D-06  0.00D+00 EMaxC= 1.00D-01 BMatC= 2.92D-09 BMatP= 5.06D-09
 IDIUse=1 WtCom= 1.00D+00 WtEn= 0.00D+00
 Coeff-Com:  0.515D-04-0.680D-04 0.304D-03-0.376D-04 0.138D-02 0.402D-02
 Coeff-Com: -0.217D-01-0.569D-01 0.470D-01 0.181D+00 0.239D+00-0.557D+00
 Coeff-Com: -0.827D+00 0.146D+00 0.184D+01
 Coeff:      0.515D-04-0.680D-04 0.304D-03-0.376D-04 0.138D-02 0.402D-02
 Coeff:     -0.217D-01-0.569D-01 0.470D-01 0.181D+00 0.239D+00-0.557D+00
 Coeff:     -0.827D+00 0.146D+00 0.184D+01
 Gap=     0.035 Goal=   None    Shift=    0.000
 Gap=     0.042 Goal=   None    Shift=    0.000
 RMSDP=4.93D-05 MaxDP=2.77D-03 DE=-1.71D-07 OVMax= 2.43D-03

 Cycle  16  Pass 1  IDiag  1:
 E= -1136.09117187159     Delta-E=       -0.000000151359 Rises=F Damp=F
 DIIS: error= 2.78D-06 at cycle  16 NSaved=  16.
 NSaved=16 IEnMin=16 EnMin= -1136.09117187159     IErMin=16 ErrMin= 2.78D-06
 ErrMax= 2.78D-06  0.00D+00 EMaxC= 1.00D-01 BMatC= 9.35D-10 BMatP= 2.92D-09
 IDIUse=1 WtCom= 1.00D+00 WtEn= 0.00D+00
 Coeff-Com: -0.102D-04 0.118D-04-0.696D-04-0.597D-04-0.141D-03 0.154D-02
 Coeff-Com:  0.149D-01 0.666D-02-0.523D-01-0.180D+00 0.394D-01 0.606D+00
 Coeff-Com:  0.118D+00-0.974D+00-0.369D+00 0.179D+01
 Coeff:     -0.102D-04 0.118D-04-0.696D-04-0.597D-04-0.141D-03 0.154D-02
 Coeff:      0.149D-01 0.666D-02-0.523D-01-0.180D+00 0.394D-01 0.606D+00
 Coeff:      0.118D+00-0.974D+00-0.369D+00 0.179D+01
 Gap=     0.035 Goal=   None    Shift=    0.000
 Gap=     0.042 Goal=   None    Shift=    0.000
 RMSDP=3.48D-05 MaxDP=1.96D-03 DE=-1.51D-07 OVMax= 1.81D-03

 Cycle  17  Pass 1  IDiag  1:
 E= -1136.09117192255     Delta-E=       -0.000000050966 Rises=F Damp=F
 DIIS: error= 9.75D-07 at cycle  17 NSaved=  17.
 NSaved=17 IEnMin=17 EnMin= -1136.09117192255     IErMin=17 ErrMin= 9.75D-07
 ErrMax= 9.75D-07  0.00D+00 EMaxC= 1.00D-01 BMatC= 2.08D-10 BMatP= 9.35D-10
 IDIUse=1 WtCom= 1.00D+00 WtEn= 0.00D+00
 Coeff-Com: -0.362D-05 0.432D-05-0.915D-04-0.281D-05-0.403D-03-0.950D-03
 Coeff-Com:  0.347D-02 0.204D-01-0.965D-02-0.751D-01-0.835D-01 0.257D+00
 Coeff-Com:  0.241D+00-0.198D+00-0.490D+00 0.224D+00 0.111D+01
 Coeff:     -0.362D-05 0.432D-05-0.915D-04-0.281D-05-0.403D-03-0.950D-03
 Coeff:      0.347D-02 0.204D-01-0.965D-02-0.751D-01-0.835D-01 0.257D+00
 Coeff:      0.241D+00-0.198D+00-0.490D+00 0.224D+00 0.111D+01
 Gap=     0.035 Goal=   None    Shift=    0.000
 Gap=     0.042 Goal=   None    Shift=    0.000
 RMSDP=8.02D-06 MaxDP=4.81D-04 DE=-5.10D-08 OVMax= 4.41D-04

 Cycle  18  Pass 1  IDiag  1:
 E= -1136.09117192717     Delta-E=       -0.000000004613 Rises=F Damp=F
 DIIS: error= 5.75D-07 at cycle  18 NSaved=  18.
 NSaved=18 IEnMin=18 EnMin= -1136.09117192717     IErMin=18 ErrMin= 5.75D-07
 ErrMax= 5.75D-07  0.00D+00 EMaxC= 1.00D-01 BMatC= 6.37D-11 BMatP= 2.08D-10
 IDIUse=1 WtCom= 1.00D+00 WtEn= 0.00D+00
 Coeff-Com:  0.832D-05-0.104D-04 0.246D-05 0.339D-04-0.167D-03-0.134D-02
 Coeff-Com: -0.507D-02 0.533D-02 0.205D-01 0.439D-01-0.517D-01-0.137D+00
 Coeff-Com: -0.522D-02 0.298D+00 0.706D-01-0.629D+00 0.193D+00 0.120D+01
 Coeff:      0.832D-05-0.104D-04 0.246D-05 0.339D-04-0.167D-03-0.134D-02
 Coeff:     -0.507D-02 0.533D-02 0.205D-01 0.439D-01-0.517D-01-0.137D+00
 Coeff:     -0.522D-02 0.298D+00 0.706D-01-0.629D+00 0.193D+00 0.120D+01
 Gap=     0.035 Goal=   None    Shift=    0.000
 Gap=     0.042 Goal=   None    Shift=    0.000
 RMSDP=3.73D-06 MaxDP=2.23D-04 DE=-4.61D-09 OVMax= 2.04D-04

 Cycle  19  Pass 1  IDiag  1:
 E= -1136.09117192814     Delta-E=       -0.000000000976 Rises=F Damp=F
 DIIS: error= 1.77D-07 at cycle  19 NSaved=  19.
 NSaved=19 IEnMin=19 EnMin= -1136.09117192814     IErMin=19 ErrMin= 1.77D-07
 ErrMax= 1.77D-07  0.00D+00 EMaxC= 1.00D-01 BMatC= 1.03D-11 BMatP= 6.37D-11
 IDIUse=1 WtCom= 1.00D+00 WtEn= 0.00D+00
 Coeff-Com: -0.170D-05 0.240D-05 0.241D-04-0.754D-05 0.166D-03 0.533D-03
 Coeff-Com: -0.405D-03-0.669D-02 0.114D-02 0.937D-02 0.316D-01-0.303D-01
 Coeff-Com: -0.873D-01-0.134D-01 0.167D+00 0.337D-02-0.273D+00-0.116D+00
 Coeff-Com:  0.131D+01
 Coeff:     -0.170D-05 0.240D-05 0.241D-04-0.754D-05 0.166D-03 0.533D-03
 Coeff:     -0.405D-03-0.669D-02 0.114D-02 0.937D-02 0.316D-01-0.303D-01
 Coeff:     -0.873D-01-0.134D-01 0.167D+00 0.337D-02-0.273D+00-0.116D+00
 Coeff:      0.131D+01
 Gap=     0.035 Goal=   None    Shift=    0.000
 Gap=     0.042 Goal=   None    Shift=    0.000
 RMSDP=1.03D-06 MaxDP=5.81D-05 DE=-9.76D-10 OVMax= 5.13D-05

 Cycle  20  Pass 1  IDiag  1:
 E= -1136.09117192824     Delta-E=       -0.000000000103 Rises=F Damp=F
 DIIS: error= 5.04D-08 at cycle  20 NSaved=  20.
 NSaved=20 IEnMin=20 EnMin= -1136.09117192824     IErMin=20 ErrMin= 5.04D-08
 ErrMax= 5.04D-08  0.00D+00 EMaxC= 1.00D-01 BMatC= 1.14D-12 BMatP= 1.03D-11
 IDIUse=1 WtCom= 1.00D+00 WtEn= 0.00D+00
 Coeff-Com: -0.108D-05 0.137D-05 0.116D-05-0.292D-05 0.231D-04 0.164D-03
 Coeff-Com:  0.554D-03-0.438D-03-0.275D-02-0.527D-02 0.527D-02 0.190D-01
 Coeff-Com:  0.240D-02-0.343D-01-0.150D-01 0.779D-01-0.260D-01-0.147D+00
 Coeff-Com:  0.247D-02 0.112D+01
 Coeff:     -0.108D-05 0.137D-05 0.116D-05-0.292D-05 0.231D-04 0.164D-03
 Coeff:      0.554D-03-0.438D-03-0.275D-02-0.527D-02 0.527D-02 0.190D-01
 Coeff:      0.240D-02-0.343D-01-0.150D-01 0.779D-01-0.260D-01-0.147D+00
 Coeff:      0.247D-02 0.112D+01
 Gap=     0.035 Goal=   None    Shift=    0.000
 Gap=     0.042 Goal=   None    Shift=    0.000
 RMSDP=2.97D-07 MaxDP=2.39D-05 DE=-1.03D-10 OVMax= 1.13D-05

 Cycle  21  Pass 1  IDiag  1:
 E= -1136.09117192826     Delta-E=       -0.000000000017 Rises=F Damp=F
 DIIS: error= 3.29D-08 at cycle  21 NSaved=  20.
 NSaved=20 IEnMin=20 EnMin= -1136.09117192826     IErMin=20 ErrMin= 3.29D-08
 ErrMax= 3.29D-08  0.00D+00 EMaxC= 1.00D-01 BMatC= 2.54D-13 BMatP= 1.14D-12
 IDIUse=1 WtCom= 1.00D+00 WtEn= 0.00D+00
 Coeff-Com: -0.912D-08-0.253D-05 0.194D-06-0.136D-04-0.531D-04-0.946D-04
 Coeff-Com:  0.946D-03-0.105D-03-0.623D-03-0.409D-02 0.215D-02 0.121D-01
 Coeff-Com:  0.484D-02-0.259D-01 0.245D-02 0.347D-01 0.212D-01-0.225D+00
 Coeff-Com:  0.338D-01 0.114D+01
 Coeff:     -0.912D-08-0.253D-05 0.194D-06-0.136D-04-0.531D-04-0.946D-04
 Coeff:      0.946D-03-0.105D-03-0.623D-03-0.409D-02 0.215D-02 0.121D-01
 Coeff:      0.484D-02-0.259D-01 0.245D-02 0.347D-01 0.212D-01-0.225D+00
 Coeff:      0.338D-01 0.114D+01
 Gap=     0.035 Goal=   None    Shift=    0.000
 Gap=     0.042 Goal=   None    Shift=    0.000
 RMSDP=1.44D-07 MaxDP=9.91D-06 DE=-1.68D-11 OVMax= 4.52D-06

 Cycle  22  Pass 1  IDiag  1:
 E= -1136.09117192826     Delta-E=        0.000000000001 Rises=F Damp=F
 DIIS: error= 1.18D-08 at cycle  22 NSaved=  20.
 NSaved=20 IEnMin=19 EnMin= -1136.09117192826     IErMin=20 ErrMin= 1.18D-08
 ErrMax= 1.18D-08  0.00D+00 EMaxC= 1.00D-01 BMatC= 4.49D-14 BMatP= 2.54D-13
 IDIUse=1 WtCom= 1.00D+00 WtEn= 0.00D+00
 Coeff-Com: -0.724D-06-0.657D-07-0.605D-05-0.253D-04-0.382D-04 0.122D-03
 Coeff-Com:  0.212D-03 0.422D-03-0.143D-02-0.881D-03 0.186D-02 0.227D-02
 Coeff-Com: -0.177D-02-0.663D-02 0.111D-01 0.110D-01-0.199D-01-0.132D+00
 Coeff-Com:  0.856D-01 0.105D+01
 Coeff:     -0.724D-06-0.657D-07-0.605D-05-0.253D-04-0.382D-04 0.122D-03
 Coeff:      0.212D-03 0.422D-03-0.143D-02-0.881D-03 0.186D-02 0.227D-02
 Coeff:     -0.177D-02-0.663D-02 0.111D-01 0.110D-01-0.199D-01-0.132D+00
 Coeff:      0.856D-01 0.105D+01
 Gap=     0.035 Goal=   None    Shift=    0.000
 Gap=     0.042 Goal=   None    Shift=    0.000
 RMSDP=6.53D-08 MaxDP=4.14D-06 DE= 9.09D-13 OVMax= 2.32D-06

 Cycle  23  Pass 1  IDiag  1:
 E= -1136.09117192827     Delta-E=       -0.000000000008 Rises=F Damp=F
 DIIS: error= 8.13D-09 at cycle  23 NSaved=  20.
 NSaved=20 IEnMin=20 EnMin= -1136.09117192827     IErMin=20 ErrMin= 8.13D-09
 ErrMax= 8.13D-09  0.00D+00 EMaxC= 1.00D-01 BMatC= 1.55D-14 BMatP= 4.49D-14
 IDIUse=1 WtCom= 1.00D+00 WtEn= 0.00D+00
 Coeff-Com: -0.268D-06 0.113D-05 0.604D-05-0.122D-04-0.172D-03 0.134D-03
 Coeff-Com:  0.380D-03 0.429D-03-0.129D-02-0.179D-02 0.814D-03 0.442D-02
 Coeff-Com: -0.409D-02-0.344D-02 0.248D-02 0.345D-01-0.371D-01-0.204D+00
 Coeff-Com:  0.117D+00 0.109D+01
 Coeff:     -0.268D-06 0.113D-05 0.604D-05-0.122D-04-0.172D-03 0.134D-03
 Coeff:      0.380D-03 0.429D-03-0.129D-02-0.179D-02 0.814D-03 0.442D-02
 Coeff:     -0.409D-02-0.344D-02 0.248D-02 0.345D-01-0.371D-01-0.204D+00
 Coeff:      0.117D+00 0.109D+01
 Gap=     0.035 Goal=   None    Shift=    0.000
 Gap=     0.042 Goal=   None    Shift=    0.000
 RMSDP=4.41D-08 MaxDP=3.14D-06 DE=-8.19D-12 OVMax= 1.31D-06

 Cycle  24  Pass 1  IDiag  1:
 E= -1136.09117192825     Delta-E=        0.000000000015 Rises=F Damp=F
 DIIS: error= 6.88D-09 at cycle  24 NSaved=  20.
 NSaved=20 IEnMin=19 EnMin= -1136.09117192827     IErMin=20 ErrMin= 6.88D-09
 ErrMax= 6.88D-09  0.00D+00 EMaxC= 1.00D-01 BMatC= 6.32D-15 BMatP= 1.55D-14
 IDIUse=1 WtCom= 1.00D+00 WtEn= 0.00D+00
 Large coefficients: NSaved= 20 BigCof=    0.00 CofMax=   10.00 Det=-4.61D-15
 Inversion failed.  Reducing to 19 matrices.
 Large coefficients: NSaved= 19 BigCof=    0.00 CofMax=   10.00 Det=-4.61D-15
 Inversion failed.  Reducing to 18 matrices.
 Large coefficients: NSaved= 18 BigCof=    0.00 CofMax=   10.00 Det=-4.63D-15
 Inversion failed.  Reducing to 17 matrices.
 Large coefficients: NSaved= 17 BigCof=    0.00 CofMax=   10.00 Det=-4.63D-15
 Inversion failed.  Reducing to 16 matrices.
 Large coefficients: NSaved= 16 BigCof=    0.00 CofMax=   10.00 Det=-6.65D-15
 Inversion failed.  Reducing to 15 matrices.
 Coeff-Com: -0.656D-04 0.152D-03-0.195D-03 0.379D-03 0.462D-03-0.803D-03
 Coeff-Com:  0.172D-03-0.139D-02 0.751D-03-0.317D-02 0.460D-01-0.443D-01
 Coeff-Com: -0.392D+00 0.144D+00 0.125D+01
 Coeff:     -0.656D-04 0.152D-03-0.195D-03 0.379D-03 0.462D-03-0.803D-03
 Coeff:      0.172D-03-0.139D-02 0.751D-03-0.317D-02 0.460D-01-0.443D-01
 Coeff:     -0.392D+00 0.144D+00 0.125D+01
 Gap=     0.035 Goal=   None    Shift=    0.000
 Gap=     0.042 Goal=   None    Shift=    0.000
 RMSDP=3.83D-08 MaxDP=3.08D-06 DE= 1.55D-11 OVMax= 9.28D-07

 Cycle  25  Pass 1  IDiag  1:
 E= -1136.09117192826     Delta-E=       -0.000000000005 Rises=F Damp=F
 DIIS: error= 2.14D-09 at cycle  25 NSaved=  16.
 NSaved=16 IEnMin=14 EnMin= -1136.09117192827     IErMin=16 ErrMin= 2.14D-09
 ErrMax= 2.14D-09  0.00D+00 EMaxC= 1.00D-01 BMatC= 1.90D-15 BMatP= 6.32D-15
 IDIUse=1 WtCom= 1.00D+00 WtEn= 0.00D+00
 Large coefficients: NSaved= 16 BigCof=    0.00 CofMax=   10.00 Det=-1.38D-15
 Inversion failed.  Reducing to 15 matrices.
 Coeff-Com:  0.800D-05-0.173D-04 0.413D-03 0.127D-03-0.111D-02 0.808D-03
 Coeff-Com:  0.101D-02-0.901D-03-0.125D-01 0.245D-01 0.703D-01-0.985D-01
 Coeff-Com: -0.303D+00 0.370D-01 0.128D+01
 Coeff:      0.800D-05-0.173D-04 0.413D-03 0.127D-03-0.111D-02 0.808D-03
 Coeff:      0.101D-02-0.901D-03-0.125D-01 0.245D-01 0.703D-01-0.985D-01
 Coeff:     -0.303D+00 0.370D-01 0.128D+01
 Gap=     0.035 Goal=   None    Shift=    0.000
 Gap=     0.042 Goal=   None    Shift=    0.000
 RMSDP=2.27D-08 MaxDP=1.44D-06 DE=-5.46D-12 OVMax= 5.54D-07

 Cycle  26  Pass 1  IDiag  1:
 E= -1136.09117192825     Delta-E=        0.000000000009 Rises=F Damp=F
 DIIS: error= 9.57D-10 at cycle  26 NSaved=  16.
 NSaved=16 IEnMin=13 EnMin= -1136.09117192827     IErMin=16 ErrMin= 9.57D-10
 ErrMax= 9.57D-10  0.00D+00 EMaxC= 1.00D-01 BMatC= 4.02D-16 BMatP= 1.90D-15
 IDIUse=1 WtCom= 1.00D+00 WtEn= 0.00D+00
 Large coefficients: NSaved= 16 BigCof=    0.00 CofMax=   10.00 Det=-5.05D-16
 Inversion failed.  Reducing to 15 matrices.
 Coeff-Com:  0.779D-04 0.564D-04-0.259D-03-0.130D-03 0.319D-03 0.875D-03
 Coeff-Com: -0.471D-03-0.173D-02-0.627D-02 0.142D-01 0.693D-01-0.915D-01
 Coeff-Com: -0.267D+00 0.337D+00 0.945D+00
 Coeff:      0.779D-04 0.564D-04-0.259D-03-0.130D-03 0.319D-03 0.875D-03
 Coeff:     -0.471D-03-0.173D-02-0.627D-02 0.142D-01 0.693D-01-0.915D-01
 Coeff:     -0.267D+00 0.337D+00 0.945D+00
 Gap=     0.035 Goal=   None    Shift=    0.000
 Gap=     0.042 Goal=   None    Shift=    0.000
 RMSDP=8.67D-09 MaxDP=5.57D-07 DE= 9.09D-12 OVMax= 2.52D-07

 SCF Done:  E(UB3LYP) =  -1136.09117193     A.U. after   26 cycles
            NFock= 26  Conv=0.87D-08     -V/T= 2.0025
 <Sx>= 0.0000 <Sy>= 0.0000 <Sz>= 0.5000 <S**2>= 0.7601 S= 0.5051
 <L.S>= 0.000000000000E+00
 KE= 1.133266918049D+03 PE=-3.463260482143D+03 EE= 8.269179758074D+02
 Annihilation of the first spin contaminant:
 S**2 before annihilation     0.7601,   after     0.7501
 Leave Link  502 at Mon Nov 13 16:32:49 2023, MaxMem=  1879048192 cpu:             250.4 elap:              21.7
 (Enter /home/sekinelabo/g16/l601.exe)
 Copying SCF densities to generalized density rwf, IOpCl= 1 IROHF=0.

 **********************************************************************

            Population analysis using the SCF Density.

 **********************************************************************

 Orbital symmetries:
 Alpha Orbitals:
       Occupied  (A) (A) (A) (A) (A) (A) (A) (A) (A) (A) (A) (A)
                 (A) (A) (A) (A) (A) (A) (A) (A) (A) (A) (A) (A)
                 (A) (A) (A) (A) (A) (A) (A) (A) (A) (A) (A) (A)
                 (A) (A) (A)
       Virtual   (A) (A) (A) (A) (A) (A) (A) (A) (A) (A) (A) (A)
                 (A) (A) (A) (A) (A) (A) (A) (A) (A) (A) (A) (A)
                 (A) (A) (A) (A) (A) (A) (A) (A) (A) (A) (A) (A)
                 (A) (A) (A) (A) (A) (A) (A) (A) (A) (A) (A) (A)
                 (A) (A) (A) (A) (A) (A) (A) (A) (A) (A) (A) (A)
                 (A) (A) (A) (A) (A) (A) (A) (A) (A) (A) (A) (A)
                 (A) (A) (A) (A) (A) (A) (A) (A) (A) (A) (A) (A)
                 (A) (A) (A) (A) (A) (A) (A) (A) (A) (A) (A) (A)
                 (A) (A) (A) (A) (A) (A) (A) (A) (A) (A) (A) (A)
                 (A) (A) (A) (A) (A) (A) (A) (A) (A) (A) (A) (A)
                 (A) (A) (A) (A) (A) (A) (A) (A) (A) (A) (A) (A)
                 (A) (A) (A) (A) (A) (A) (A) (A) (A) (A) (A) (A)
                 (A) (A) (A) (A) (A) (A) (A) (A) (A) (A) (A) (A)
                 (A) (A) (A) (A) (A) (A) (A) (A) (A) (A) (A) (A)
                 (A) (A)
 Beta  Orbitals:
       Occupied  (A) (A) (A) (A) (A) (A) (A) (A) (A) (A) (A) (A)
                 (A) (A) (A) (A) (A) (A) (A) (A) (A) (A) (A) (A)
                 (A) (A) (A) (A) (A) (A) (A) (A) (A) (A) (A) (A)
                 (A) (A)
       Virtual   (A) (A) (A) (A) (A) (A) (A) (A) (A) (A) (A) (A)
                 (A) (A) (A) (A) (A) (A) (A) (A) (A) (A) (A) (A)
                 (A) (A) (A) (A) (A) (A) (A) (A) (A) (A) (A) (A)
                 (A) (A) (A) (A) (A) (A) (A) (A) (A) (A) (A) (A)
                 (A) (A) (A) (A) (A) (A) (A) (A) (A) (A) (A) (A)
                 (A) (A) (A) (A) (A) (A) (A) (A) (A) (A) (A) (A)
                 (A) (A) (A) (A) (A) (A) (A) (A) (A) (A) (A) (A)
                 (A) (A) (A) (A) (A) (A) (A) (A) (A) (A) (A) (A)
                 (A) (A) (A) (A) (A) (A) (A) (A) (A) (A) (A) (A)
                 (A) (A) (A) (A) (A) (A) (A) (A) (A) (A) (A) (A)
                 (A) (A) (A) (A) (A) (A) (A) (A) (A) (A) (A) (A)
                 (A) (A) (A) (A) (A) (A) (A) (A) (A) (A) (A) (A)
                 (A) (A) (A) (A) (A) (A) (A) (A) (A) (A) (A) (A)
                 (A) (A) (A) (A) (A) (A) (A) (A) (A) (A) (A) (A)
                 (A) (A) (A)
 The electronic state is 2-A.
 Alpha  occ. eigenvalues --  -38.45592 -38.44354 -38.44072 -38.44054 -38.43923
 Alpha  occ. eigenvalues --  -38.43908 -38.42492  -2.21471  -2.20342  -2.20179
 Alpha  occ. eigenvalues --   -2.20073  -2.19998  -2.19939  -2.18569  -1.15157
 Alpha  occ. eigenvalues --   -1.15135  -1.15102  -1.14195  -1.14032  -1.14000
 Alpha  occ. eigenvalues --   -1.13980  -1.13852  -1.13828  -1.13762  -1.13750
 Alpha  occ. eigenvalues --   -1.13681  -1.13632  -1.13590  -1.13580  -1.13571
 Alpha  occ. eigenvalues --   -1.13561  -1.13526  -1.12299  -1.12214  -1.12175
 Alpha  occ. eigenvalues --   -0.20055  -0.15180  -0.11564  -0.10785
 Alpha virt. eigenvalues --   -0.07281  -0.05687  -0.03888  -0.03286  -0.02710
 Alpha virt. eigenvalues --   -0.02015  -0.01885  -0.01061  -0.00556  -0.00153
 Alpha virt. eigenvalues --    0.00063   0.00291   0.00534   0.00726   0.00877
 Alpha virt. eigenvalues --    0.00949   0.00994   0.01153   0.01418   0.01543
 Alpha virt. eigenvalues --    0.01659   0.01725   0.01950   0.02029   0.02052
 Alpha virt. eigenvalues --    0.02250   0.02275   0.02558   0.02669   0.02718
 Alpha virt. eigenvalues --    0.02792   0.02917   0.02971   0.03006   0.03033
 Alpha virt. eigenvalues --    0.03339   0.03425   0.03702   0.04006   0.04190
 Alpha virt. eigenvalues --    0.04301   0.04489   0.04777   0.05104   0.05149
 Alpha virt. eigenvalues --    0.05422   0.05523   0.05809   0.06138   0.06320
 Alpha virt. eigenvalues --    0.06484   0.06969   0.07010   0.07072   0.07713
 Alpha virt. eigenvalues --    0.07855   0.08353   0.08573   0.08874   0.09165
 Alpha virt. eigenvalues --    0.09902   0.10550   0.11029   0.11396   0.12099
 Alpha virt. eigenvalues --    0.12456   0.12461   0.13240   0.13363   0.13888
 Alpha virt. eigenvalues --    0.14032   0.14335   0.14884   0.15631   0.16134
 Alpha virt. eigenvalues --    0.16555   0.16927   0.17423   0.19539   0.24610
 Alpha virt. eigenvalues --    0.25296   0.26540   0.28316   0.28534   0.29974
 Alpha virt. eigenvalues --    0.30743   0.31452   0.33112   0.33532   0.34269
 Alpha virt. eigenvalues --    0.35337   0.36387   0.37591   0.38311   0.38966
 Alpha virt. eigenvalues --    0.39282   0.40034   0.42279   0.42720   0.43680
 Alpha virt. eigenvalues --    0.44038   0.44195   0.44625   0.44801   0.45044
 Alpha virt. eigenvalues --    0.45485   0.46221   0.46652   0.47108   0.47572
 Alpha virt. eigenvalues --    0.47814   0.48407   0.48941   0.49758   0.49979
 Alpha virt. eigenvalues --    0.50595   0.52467   0.53219   0.53772   0.54012
 Alpha virt. eigenvalues --    0.54948   0.55746   0.58007   0.65119   0.66113
 Alpha virt. eigenvalues --    0.66574   0.69696   0.70979   0.71783   0.71967
 Alpha virt. eigenvalues --    0.72818   0.73611   0.75790   0.77720   0.83426
 Alpha virt. eigenvalues --    2.10267   2.16281   2.18257   2.24480   2.27771
 Alpha virt. eigenvalues --    2.29723   2.34086   4.40229   4.40785   4.41622
 Alpha virt. eigenvalues --    4.41792   4.42515   4.43170   4.43205   4.44213
 Alpha virt. eigenvalues --    4.46459   4.47443   4.49965   4.56503   4.57608
 Alpha virt. eigenvalues --    4.58758   4.63195   4.64268   4.67893   4.74161
 Alpha virt. eigenvalues --    4.76960   4.79112   4.84285  96.31355  96.38800
 Alpha virt. eigenvalues --   96.42452  96.50886  96.55737  96.57727  96.63061
  Beta  occ. eigenvalues --  -38.45581 -38.44334 -38.44053 -38.44003 -38.43894
  Beta  occ. eigenvalues --  -38.43851 -38.42472  -2.21450  -2.20310  -2.20059
  Beta  occ. eigenvalues --   -2.20026  -2.19938  -2.19896  -2.18541  -1.15146
  Beta  occ. eigenvalues --   -1.15121  -1.15084  -1.14167  -1.14006  -1.13935
  Beta  occ. eigenvalues --   -1.13929  -1.13777  -1.13750  -1.13725  -1.13679
  Beta  occ. eigenvalues --   -1.13618  -1.13588  -1.13565  -1.13549  -1.13523
  Beta  occ. eigenvalues --   -1.13502  -1.13470  -1.12283  -1.12179  -1.12122
  Beta  occ. eigenvalues --   -0.19315  -0.14955  -0.11296
  Beta virt. eigenvalues --   -0.07109  -0.06683  -0.05546  -0.03489  -0.03072
  Beta virt. eigenvalues --   -0.02641  -0.01388  -0.01183  -0.00839  -0.00130
  Beta virt. eigenvalues --   -0.00056   0.00153   0.00301   0.00652   0.00820
  Beta virt. eigenvalues --    0.00913   0.01020   0.01095   0.01264   0.01561
  Beta virt. eigenvalues --    0.01662   0.01724   0.01828   0.02013   0.02085
  Beta virt. eigenvalues --    0.02198   0.02316   0.02359   0.02545   0.02699
  Beta virt. eigenvalues --    0.02768   0.02846   0.02959   0.03028   0.03062
  Beta virt. eigenvalues --    0.03098   0.03422   0.03481   0.03853   0.04123
  Beta virt. eigenvalues --    0.04262   0.04311   0.04698   0.04853   0.05206
  Beta virt. eigenvalues --    0.05240   0.05537   0.05683   0.06022   0.06291
  Beta virt. eigenvalues --    0.06466   0.06534   0.07022   0.07104   0.07327
  Beta virt. eigenvalues --    0.07817   0.07946   0.08460   0.08742   0.08976
  Beta virt. eigenvalues --    0.09250   0.09994   0.10936   0.11337   0.11575
  Beta virt. eigenvalues --    0.12462   0.12595   0.12821   0.13437   0.13565
  Beta virt. eigenvalues --    0.14158   0.14243   0.14477   0.15152   0.15905
  Beta virt. eigenvalues --    0.16363   0.16710   0.17305   0.17571   0.19732
  Beta virt. eigenvalues --    0.24920   0.25823   0.26672   0.28524   0.28791
  Beta virt. eigenvalues --    0.30299   0.31082   0.31585   0.33295   0.33623
  Beta virt. eigenvalues --    0.34673   0.35592   0.36845   0.38030   0.38469
  Beta virt. eigenvalues --    0.39119   0.39498   0.40307   0.42422   0.42885
  Beta virt. eigenvalues --    0.43892   0.44184   0.44416   0.44752   0.44965
  Beta virt. eigenvalues --    0.45314   0.45634   0.46499   0.46873   0.47246
  Beta virt. eigenvalues --    0.47765   0.47988   0.48570   0.49134   0.49927
  Beta virt. eigenvalues --    0.50154   0.50840   0.52658   0.53311   0.54049
  Beta virt. eigenvalues --    0.54233   0.55247   0.55955   0.58236   0.65321
  Beta virt. eigenvalues --    0.66149   0.66911   0.70045   0.71007   0.71949
  Beta virt. eigenvalues --    0.72189   0.72941   0.73709   0.75898   0.77860
  Beta virt. eigenvalues --    0.83498   2.10309   2.16385   2.18275   2.24615
  Beta virt. eigenvalues --    2.28055   2.29808   2.34171   4.40282   4.40832
  Beta virt. eigenvalues --    4.41690   4.41844   4.42605   4.43211   4.43246
  Beta virt. eigenvalues --    4.44255   4.46479   4.47496   4.50048   4.56637
  Beta virt. eigenvalues --    4.57636   4.58802   4.63210   4.64385   4.67913
  Beta virt. eigenvalues --    4.74181   4.77023   4.79149   4.84340  96.31371
  Beta virt. eigenvalues --   96.38839  96.42458  96.50930  96.55825  96.57760
  Beta virt. eigenvalues --   96.63095
          Condensed to atoms (all electrons):
               1          2          3          4          5          6
     1  Na  16.267434  -2.042535  -1.360725  -1.622782   2.328664   0.029018
     2  Na  -2.042535  14.224276   0.665202  -0.686552  -1.866118   0.287455
     3  Na  -1.360725   0.665202  11.276905   0.392539  -1.458634   0.099709
     4  Na  -1.622782  -0.686552   0.392539  13.592399  -0.713605  -0.152224
     5  Na   2.328664  -1.866118  -1.458634  -0.713605  13.925365  -0.245879
     6  Na   0.029018   0.287455   0.099709  -0.152224  -0.245879  10.668694
     7  Na  -1.910389   0.664980   0.908224   0.618617  -1.581344   0.220275
               7
     1  Na  -1.910389
     2  Na   0.664980
     3  Na   0.908224
     4  Na   0.618617
     5  Na  -1.581344
     6  Na   0.220275
     7  Na  11.897131
          Atomic-Atomic Spin Densities.
               1          2          3          4          5          6
     1  Na   0.587469  -0.259691   0.042245   0.038911  -0.129336  -0.130710
     2  Na  -0.259691   0.145551  -0.003132  -0.120726   0.152752   0.049983
     3  Na   0.042245  -0.003132  -0.083988   0.036846   0.183660   0.042329
     4  Na   0.038911  -0.120726   0.036846   0.447671   0.082197   0.003121
     5  Na  -0.129336   0.152752   0.183660   0.082197  -0.263912  -0.006450
     6  Na  -0.130710   0.049983   0.042329   0.003121  -0.006450   0.101326
     7  Na   0.338820  -0.043118  -0.181618  -0.227395   0.332835  -0.025960
               7
     1  Na   0.338820
     2  Na  -0.043118
     3  Na  -0.181618
     4  Na  -0.227395
     5  Na   0.332835
     6  Na  -0.025960
     7  Na  -0.285241
 Mulliken charges and spin densities:
               1          2
     1  Na  -0.688686   0.487709
     2  Na  -0.246708  -0.078381
     3  Na   0.476779   0.036342
     4  Na  -0.428391   0.260624
     5  Na   0.611550   0.351745
     6  Na   0.092951   0.033638
     7  Na   0.182506  -0.091677
 Sum of Mulliken charges =  -0.00000   1.00000
 Mulliken charges and spin densities with hydrogens summed into heavy atoms:
               1          2
     1  Na  -0.688686   0.487709
     2  Na  -0.246708  -0.078381
     3  Na   0.476779   0.036342
     4  Na  -0.428391   0.260624
     5  Na   0.611550   0.351745
     6  Na   0.092951   0.033638
     7  Na   0.182506  -0.091677
 Electronic spatial extent (au):  <R**2>=           2217.8170
 Charge=             -0.0000 electrons
 Dipole moment (field-independent basis, Debye):
    X=              0.5012    Y=             -0.3262    Z=              0.1617  Tot=              0.6194
 Quadrupole moment (field-independent basis, Debye-Ang):
   XX=            -46.9406   YY=            -74.3268   ZZ=            -72.4636
   XY=             -1.7491   XZ=             -2.4246   YZ=              0.4062
 Traceless Quadrupole moment (field-independent basis, Debye-Ang):
   XX=             17.6364   YY=             -9.7498   ZZ=             -7.8866
   XY=             -1.7491   XZ=             -2.4246   YZ=              0.4062
 Octapole moment (field-independent basis, Debye-Ang**2):
  XXX=             18.3451  YYY=              6.3381  ZZZ=              4.7949  XYY=              7.8210
  XXY=             -7.2692  XXZ=              4.3109  XZZ=             -3.1512  YZZ=             -8.6128
  YYZ=             -0.3631  XYZ=              5.6402
 Hexadecapole moment (field-independent basis, Debye-Ang**3):
 XXXX=          -1888.1774 YYYY=          -1110.1969 ZZZZ=           -612.6432 XXXY=           -110.7217
 XXXZ=            -55.9055 YYYX=             15.4923 YYYZ=              1.6903 ZZZX=            -29.3213
 ZZZY=              3.4186 XXYY=           -483.1384 XXZZ=           -469.8864 YYZZ=           -282.5079
 XXYZ=             10.7138 YYXZ=             15.2376 ZZXY=             13.5335
 N-N= 3.669844163586D+02 E-N=-3.463260481914D+03  KE= 1.133266918049D+03
                          Isotropic Fermi Contact Couplings
        Atom                 a.u.       MegaHertz       Gauss      10(-4) cm-1
     1  Na(23)             0.02496      29.52880      10.53661       9.84975
     2  Na(23)             0.25936     306.83036     109.48470     102.34759
     3  Na(23)             0.02625      31.05142      11.07992      10.35764
     4  Na(23)             0.21030     248.78890      88.77407      82.98704
     5  Na(23)             0.00063       0.74876       0.26718       0.24976
     6  Na(23)             0.04872      57.63992      20.56736      19.22661
     7  Na(23)            -0.01196     -14.14622      -5.04772      -4.71867
 --------------------------------------------------------
       Center         ----  Spin Dipole Couplings  ----
                      3XX-RR        3YY-RR        3ZZ-RR
 --------------------------------------------------------
     1   Atom       -0.039531     -0.041044      0.080575
     2   Atom        0.014898     -0.005630     -0.009268
     3   Atom       -0.022072     -0.017499      0.039571
     4   Atom       -0.009753      0.003522      0.006231
     5   Atom       -0.017385     -0.018079      0.035463
     6   Atom       -0.000590     -0.003493      0.004083
     7   Atom        0.004759     -0.006499      0.001740
 --------------------------------------------------------
                        XY            XZ            YZ
 --------------------------------------------------------
     1   Atom        0.000394      0.018253      0.001086
     2   Atom        0.011996      0.020852      0.009313
     3   Atom        0.000263     -0.003429      0.024479
     4   Atom       -0.009522      0.007185     -0.022135
     5   Atom       -0.013360     -0.035049      0.028364
     6   Atom       -0.001424      0.001793      0.001951
     7   Atom       -0.000759     -0.008820      0.002948
 --------------------------------------------------------


 ---------------------------------------------------------------------------------
              Anisotropic Spin Dipole Couplings in Principal Axis System
 ---------------------------------------------------------------------------------

       Atom             a.u.   MegaHertz   Gauss  10(-4) cm-1        Axes

              Baa    -0.0423    -5.971    -2.131    -1.992  0.9726 -0.1834 -0.1429
     1 Na(23) Bbb    -0.0410    -5.791    -2.066    -1.932  0.1801  0.9830 -0.0358
              Bcc     0.0833    11.763     4.197     3.924  0.1470  0.0091  0.9891
 
              Baa    -0.0217    -3.059    -1.092    -1.020 -0.4422 -0.1795  0.8787
     2 Na(23) Bbb    -0.0111    -1.574    -0.562    -0.525 -0.4064  0.9135 -0.0179
              Bcc     0.0328     4.634     1.653     1.546  0.7995  0.3650  0.4770
 
              Baa    -0.0270    -3.812    -1.360    -1.271 -0.2873  0.8941 -0.3436
     3 Na(23) Bbb    -0.0218    -3.075    -1.097    -1.026  0.9568  0.2844 -0.0600
              Bcc     0.0488     6.887     2.457     2.297 -0.0441  0.3460  0.9372
 
              Baa    -0.0181    -2.552    -0.911    -0.851  0.3561  0.7408  0.5695
     4 Na(23) Bbb    -0.0124    -1.754    -0.626    -0.585  0.8912 -0.0860 -0.4453
              Bcc     0.0305     4.306     1.537     1.436  0.2809 -0.6661  0.6909
 
              Baa    -0.0349    -4.934    -1.761    -1.646  0.8682 -0.1215  0.4812
     5 Na(23) Bbb    -0.0299    -4.215    -1.504    -1.406  0.2721  0.9274 -0.2567
              Bcc     0.0648     9.149     3.265     3.052 -0.4150  0.3538  0.8382
 
              Baa    -0.0048    -0.676    -0.241    -0.225  0.4123  0.8687 -0.2745
     6 Na(23) Bbb    -0.0002    -0.022    -0.008    -0.007  0.8724 -0.4633 -0.1559
              Bcc     0.0049     0.698     0.249     0.233  0.2626  0.1752  0.9489
 
              Baa    -0.0081    -1.144    -0.408    -0.381 -0.3051  0.8019 -0.5137
     7 Na(23) Bbb    -0.0044    -0.625    -0.223    -0.208  0.5873  0.5831  0.5614
              Bcc     0.0125     1.768     0.631     0.590  0.7497 -0.1305 -0.6488
 

 ---------------------------------------------------------------------------------

 No NMR shielding tensors so no spin-rotation constants.
 Leave Link  601 at Mon Nov 13 16:32:50 2023, MaxMem=  1879048192 cpu:               3.0 elap:               0.2
 (Enter /home/sekinelabo/g16/l701.exe)
 ... and contract with generalized density number  0.
 Compute integral first derivatives.
 Leave Link  701 at Mon Nov 13 16:32:50 2023, MaxMem=  1879048192 cpu:               6.0 elap:               0.4
 (Enter /home/sekinelabo/g16/l702.exe)
 L702 exits ... SP integral derivatives will be done elsewhere.
 Leave Link  702 at Mon Nov 13 16:32:50 2023, MaxMem=  1879048192 cpu:               1.0 elap:               0.1
 (Enter /home/sekinelabo/g16/l703.exe)
 Integral derivatives from FoFJK, PRISM(SPDF).
 Compute integral first derivatives, UseDBF=F ICtDFT=           0.
 Calling FoFJK, ICntrl=      2127 FMM=F ISym2X=0 I1Cent= 0 IOpClX= 1 NMat=1 NMatS=1 NMatT=0.
 FoFJK:  IHMeth= 1 ICntrl=    2127 DoSepK=F KAlg= 0 I1Cent=           0 FoldK=F
 IRaf=         0 NMat=       1 IRICut=       1 DoRegI=T DoRafI=F ISym2E= 0 IDoP0=0 IntGTp=1.
 FoFCou: FMM=F IPFlag=           0 FMFlag=      100000 FMFlg1=         800
         NFxFlg=           0 DoJE=F BraDBF=F KetDBF=F FulRan=T
         wScrn=  0.000000 ICntrl=      2127 IOpCl=  1 I1Cent=           0 NGrid=           0
         NMat0=    1 NMatS0=      1 NMatT0=    0 NMatD0=    1 NMtDS0=    0 NMtDT0=    0
 Symmetry not used in FoFCou.
 Leave Link  703 at Mon Nov 13 16:32:53 2023, MaxMem=  1879048192 cpu:              43.1 elap:               2.8
 (Enter /home/sekinelabo/g16/l716.exe)
 Dipole        = 1.97185177D-01-1.28317536D-01 6.36149038D-02
 ***** Axes restored to original set *****
 -------------------------------------------------------------------
 Center     Atomic                   Forces (Hartrees/Bohr)
 Number     Number              X              Y              Z
 -------------------------------------------------------------------
      1       11           0.005799186    0.013369549   -0.001487961
      2       11          -0.004444528   -0.004785212    0.017613305
      3       11          -0.011087280    0.011781235   -0.004604359
      4       11          -0.002861056   -0.012108983   -0.015667283
      5       11           0.006474616   -0.013400917    0.005813152
      6       11           0.003091009   -0.002939200   -0.004099678
      7       11           0.003028053    0.008083528    0.002432823
 -------------------------------------------------------------------
 Cartesian Forces:  Max     0.017613305 RMS     0.008786900
 Z-matrix is all fixed cartesians, so copy forces.
 Force constants in Cartesian coordinates: 
                1             2             3             4             5 
      1  0.194125D+00
      2  0.112603D-01  0.207311D+00
      3  0.145701D-02 -0.792891D-02  0.135465D+00
      4 -0.309570D-01 -0.635221D-02  0.166593D-01  0.100259D+00
      5 -0.162111D-01 -0.294773D-01  0.296403D-01 -0.423570D-02  0.881829D-01
      6  0.885565D-03  0.293618D-02 -0.340557D-01 -0.239274D-01 -0.250191D-01
      7 -0.493068D-01  0.165804D-01 -0.574140D-02 -0.187581D-01  0.202927D-02
      8 -0.218073D-01 -0.365871D-01 -0.100671D-02  0.190455D-01 -0.209426D-01
      9  0.241714D-02  0.232421D-02 -0.227588D-01 -0.209256D-01  0.287394D-01
     10 -0.299608D-01 -0.105052D-01 -0.136462D-01 -0.106023D-01  0.445063D-02
     11 -0.884112D-02 -0.429962D-01 -0.290762D-01 -0.212970D-02 -0.111341D-01
     12  0.408778D-02 -0.606429D-03 -0.241312D-01 -0.638523D-02 -0.222702D-01
     13 -0.369029D-01 -0.848284D-02  0.102439D-03 -0.383991D-01  0.204859D-01
     14  0.892635D-02 -0.522629D-01  0.961138D-02 -0.666274D-02 -0.386341D-01
     15 -0.234381D-02  0.658481D-02 -0.224006D-01  0.260590D-01 -0.151131D-01
     16 -0.454981D-02  0.661310D-02  0.339076D-02 -0.180142D-03 -0.152667D-02
     17  0.648719D-02  0.332531D-02 -0.174798D-02  0.299297D-02  0.765536D-02
     18 -0.163357D-02  0.114281D-02  0.321148D-02  0.198099D-02  0.171796D-02
     19 -0.424482D-01 -0.911362D-02 -0.222194D-02 -0.136213D-02 -0.499233D-02
     20  0.201857D-01 -0.493132D-01  0.508095D-03 -0.265811D-02  0.434985D-02
     21 -0.487011D-02 -0.445267D-02 -0.353298D-01  0.653891D-02  0.230472D-02
                6             7             8             9            10 
      6  0.142535D+00
      7  0.114987D-01  0.895594D-01
      8  0.813859D-02 -0.304471D-01  0.800897D-01
      9 -0.331862D-01  0.912139D-02 -0.649481D-02  0.571286D-01
     10  0.142682D-01 -0.200449D-01  0.270107D-01  0.132334D-01  0.938489D-01
     11  0.560105D-02  0.326414D-02 -0.343421D-01 -0.275154D-01 -0.400771D-02
     12 -0.533671D-01 -0.114261D-01 -0.324731D-02 -0.185055D-01  0.175083D-01
     13 -0.386880D-02 -0.142687D-02  0.860279D-02 -0.287981D-02 -0.320654D-01
     14  0.105958D-01  0.834598D-02  0.335136D-02  0.233160D-02 -0.129643D-01
     15 -0.311904D-01 -0.276745D-02  0.233157D-02  0.108673D-01 -0.211486D-01
     16  0.104164D-02 -0.302612D-04 -0.392005D-04 -0.660980D-05 -0.197370D-02
     17 -0.184527D-03  0.685691D-04  0.786033D-04 -0.900818D-04  0.154753D-02
     18  0.287006D-02 -0.666229D-04 -0.761777D-04  0.233149D-03 -0.457413D-02
     19  0.102033D-03  0.752407D-05 -0.236531D-02 -0.959939D-03  0.798191D-03
     20 -0.206796D-02  0.158738D-03  0.835205D-02  0.705088D-03 -0.553168D-02
     21  0.639407D-02 -0.618488D-03  0.354845D-03  0.622153D-02 -0.564097D-02
               11            12            13            14            15 
     11  0.108413D+00
     12  0.371602D-01  0.126871D+00
     13  0.177326D-01 -0.600493D-02  0.144838D+00
     14 -0.265087D-01 -0.101120D-01 -0.104711D-01  0.169422D+00
     15  0.196420D-01 -0.403622D-01 -0.852736D-05 -0.201952D-01  0.118257D+00
     16 -0.130626D-02  0.214784D-02 -0.345395D-01  0.112831D-01  0.492813D-02
     17  0.142409D-02 -0.154752D-02 -0.184048D-01 -0.374778D-01  0.900048D-02
     18 -0.262901D-02  0.496860D-02  0.112564D-01  0.307850D-03 -0.268969D-01
     19 -0.471192D-02  0.724442D-04 -0.150459D-02  0.154276D-02 -0.471873D-02
     20  0.514382D-02  0.623262D-03 -0.946244D-02 -0.178899D-01 -0.225057D-02
     21 -0.318261D-02  0.452606D-02  0.140319D-02  0.746055D-02 -0.827424D-02
               16            17            18            19            20 
     16  0.595463D-01
     17 -0.820347D-02  0.623677D-01
     18 -0.136662D-01  0.629445D-02  0.209534D-01
     19 -0.182729D-01  0.155120D-01  0.670310D-02  0.627822D-01
     20 -0.682057D-02 -0.373732D-01 -0.675790D-02  0.412840D-02  0.867305D-01
     21  0.216445D-02 -0.117248D-01 -0.533977D-02  0.102303D-02  0.923998D-02
               21 
     21  0.318021D-01
 Leave Link  716 at Mon Nov 13 16:32:53 2023, MaxMem=  1879048192 cpu:               0.5 elap:               0.0
 (Enter /home/sekinelabo/g16/l103.exe)

 GradGradGradGradGradGradGradGradGradGradGradGradGradGradGradGradGradGrad
 Berny optimization.
 Search for a local minimum.
 Step number   1 out of a maximum of    2
 All quantities printed in internal units (Hartrees-Bohrs-Radians)
 Second derivative matrix not updated -- first step.
 ITU=  0
     Eigenvalues ---    0.02208   0.04932   0.05949   0.07600   0.08877
     Eigenvalues ---    0.10712   0.13592   0.13929   0.16750   0.17853
     Eigenvalues ---    0.19184   0.21086   0.21966   0.24904   0.27003
 Quadratic step=3.479D-01 exceeds max=3.000D-01 adjusted using Lamda=-1.175D-02.
 Angle between NR and scaled steps=   4.71 degrees.
 Angle between quadratic step and forces=  26.99 degrees.
 Linear search not attempted -- first point.
 B after Tr=     0.000000   -0.000000    0.000000
         Rot=    1.000000    0.000000   -0.000000    0.000000 Ang=   0.00 deg.
 Variable       Old X    -DE/DX   Delta X   Delta X   Delta X     New X
                                 (Linear)    (Quad)   (Total)
    X1        5.63756   0.00580   0.00000   0.01158   0.01158   5.64914
    Y1        5.31035   0.01337   0.00000   0.05878   0.05878   5.36913
    Z1        2.32457  -0.00149   0.00000   0.00537   0.00537   2.32994
    X2        2.38837  -0.00444   0.00000  -0.06359  -0.06359   2.32478
    Y2        1.97612  -0.00479   0.00000  -0.02526  -0.02526   1.95086
    Z2        5.53974   0.01761   0.00000   0.09381   0.09381   5.63355
    X3        0.00000  -0.01109   0.00000  -0.10902  -0.10902  -0.10902
    Y3        5.45466   0.01178   0.00000   0.08400   0.08400   5.53867
    Z3        1.75537  -0.00460   0.00000  -0.05701  -0.05701   1.69836
    X4        2.90619  -0.00286   0.00000  -0.04597  -0.04597   2.86022
    Y4        0.92247  -0.01211   0.00000  -0.08690  -0.08690   0.83558
    Z4        0.00000  -0.01567   0.00000  -0.06059  -0.06059  -0.06059
    X5        7.28423   0.00647   0.00000   0.04765   0.04765   7.33188
    Y5        0.00000  -0.01340   0.00000  -0.08360  -0.08360  -0.08360
    Z5        3.47102   0.00581   0.00000   0.04255   0.04255   3.51358
    X6       12.48483   0.00309   0.00000   0.07932   0.07932  12.56415
    Y6        1.45312  -0.00294   0.00000  -0.02704  -0.02704   1.42608
    Z6        1.71746  -0.00410   0.00000  -0.06817  -0.06817   1.64929
    X7       11.07671   0.00303   0.00000   0.08002   0.08002  11.15673
    Y7        6.80065   0.00808   0.00000   0.08001   0.08001   6.88066
    Z7        2.99844   0.00243   0.00000   0.04404   0.04404   3.04247
         Item               Value     Threshold  Converged?
 Maximum Force            0.017613     0.000450     NO 
 RMS     Force            0.008787     0.000300     NO 
 Maximum Displacement     0.109019     0.001800     NO 
 RMS     Displacement     0.065506     0.001200     NO 
 Predicted change in Energy=-5.914974D-03
 GradGradGradGradGradGradGradGradGradGradGradGradGradGradGradGradGradGrad

 Leave Link  103 at Mon Nov 13 16:32:53 2023, MaxMem=  1879048192 cpu:               0.3 elap:               0.0
 (Enter /home/sekinelabo/g16/l9999.exe)
 1\1\GINC-SEKINELABO-XA7R-R37\Force\UB3LYP\6-311+G(d)\Na7(2)\SEKINELABO
 \13-Nov-2023\0\\#P B3LYP/6-311+g(d) force\\Gaussian input prepared by 
 ASE\\0,2\Na,2.9832690311,2.8101159315,1.2301080548\Na,1.2638689797,1.0
 457173935,2.9315022299\Na,0.,2.8864826825,0.9289019279\Na,1.5378904774
 ,0.4881523341,0.\Na,3.8546481943,0.,1.836786869\Na,6.6066849606,0.7689
 565238,0.9088402205\Na,5.8615431672,3.598751429,1.5867051324\\Version=
 ES64L-G16RevB.01\State=2-A\HF=-1136.0911719\S2=0.760135\S2-1=0.\S2A=0.
 750061\RMSD=8.670e-09\RMSF=8.787e-03\Dipole=0.1971852,-0.1283175,0.063
 6149\Quadrupole=13.1122495,-7.2487598,-5.8634897,-1.3004027,-1.8026633
 ,0.3020074\PG=C01 [X(Na7)]\\@


 REALITY IS FOR PEOPLE WHO CAN'T FACE SCIENCE FICTION.
 Job cpu time:       0 days  0 hours  5 minutes 16.1 seconds.
 Elapsed time:       0 days  0 hours  0 minutes 26.0 seconds.
 File lengths (MBytes):  RWF=     32 Int=      0 D2E=      0 Chk=      5 Scr=      1
 Normal termination of Gaussian 16 at Mon Nov 13 16:32:53 2023.
