 Entering Gaussian System, Link 0=g16
 Initial command:
 /home/sekinelabo/g16/l1.exe "/home/sekinelabo/g16temp/Gau-4002131.inp" -scrdir="/home/sekinelabo/g16temp/"
 Entering Link 1 = /home/sekinelabo/g16/l1.exe PID=   4002133.
  
 Copyright (c) 1988-2017, Gaussian, Inc.  All Rights Reserved.
  
 This is part of the Gaussian(R) 16 program.  It is based on
 the Gaussian(R) 09 system (copyright 2009, Gaussian, Inc.),
 the Gaussian(R) 03 system (copyright 2003, Gaussian, Inc.),
 the Gaussian(R) 98 system (copyright 1998, Gaussian, Inc.),
 the Gaussian(R) 94 system (copyright 1995, Gaussian, Inc.),
 the Gaussian 92(TM) system (copyright 1992, Gaussian, Inc.),
 the Gaussian 90(TM) system (copyright 1990, Gaussian, Inc.),
 the Gaussian 88(TM) system (copyright 1988, Gaussian, Inc.),
 the Gaussian 86(TM) system (copyright 1986, Carnegie Mellon
 University), and the Gaussian 82(TM) system (copyright 1983,
 Carnegie Mellon University). Gaussian is a federally registered
 trademark of Gaussian, Inc.
  
 This software contains proprietary and confidential information,
 including trade secrets, belonging to Gaussian, Inc.
  
 This software is provided under written license and may be
 used, copied, transmitted, or stored only in accord with that
 written license.
  
 The following legend is applicable only to US Government
 contracts under FAR:
  
                    RESTRICTED RIGHTS LEGEND
  
 Use, reproduction and disclosure by the US Government is
 subject to restrictions as set forth in subparagraphs (a)
 and (c) of the Commercial Computer Software - Restricted
 Rights clause in FAR 52.227-19.
  
 Gaussian, Inc.
 340 Quinnipiac St., Bldg. 40, Wallingford CT 06492
  
  
 ---------------------------------------------------------------
 Warning -- This program may not be used in any manner that
 competes with the business of Gaussian, Inc. or will provide
 assistance to any competitor of Gaussian, Inc.  The licensee
 of this program is prohibited from giving any competitor of
 Gaussian, Inc. access to this program.  By using this program,
 the user acknowledges that Gaussian, Inc. is engaged in the
 business of creating and licensing software in the field of
 computational chemistry and represents and warrants to the
 licensee that it is not a competitor of Gaussian, Inc. and that
 it will not use this program in any manner prohibited above.
 ---------------------------------------------------------------
  

 Cite this work as:
 Gaussian 16, Revision B.01,
 M. J. Frisch, G. W. Trucks, H. B. Schlegel, G. E. Scuseria, 
 M. A. Robb, J. R. Cheeseman, G. Scalmani, V. Barone, 
 G. A. Petersson, H. Nakatsuji, X. Li, M. Caricato, A. V. Marenich, 
 J. Bloino, B. G. Janesko, R. Gomperts, B. Mennucci, H. P. Hratchian, 
 J. V. Ortiz, A. F. Izmaylov, J. L. Sonnenberg, D. Williams-Young, 
 F. Ding, F. Lipparini, F. Egidi, J. Goings, B. Peng, A. Petrone, 
 T. Henderson, D. Ranasinghe, V. G. Zakrzewski, J. Gao, N. Rega, 
 G. Zheng, W. Liang, M. Hada, M. Ehara, K. Toyota, R. Fukuda, 
 J. Hasegawa, M. Ishida, T. Nakajima, Y. Honda, O. Kitao, H. Nakai, 
 T. Vreven, K. Throssell, J. A. Montgomery, Jr., J. E. Peralta, 
 F. Ogliaro, M. J. Bearpark, J. J. Heyd, E. N. Brothers, K. N. Kudin, 
 V. N. Staroverov, T. A. Keith, R. Kobayashi, J. Normand, 
 K. Raghavachari, A. P. Rendell, J. C. Burant, S. S. Iyengar, 
 J. Tomasi, M. Cossi, J. M. Millam, M. Klene, C. Adamo, R. Cammi, 
 J. W. Ochterski, R. L. Martin, K. Morokuma, O. Farkas, 
 J. B. Foresman, and D. J. Fox, Gaussian, Inc., Wallingford CT, 2016.
 
 ******************************************
 Gaussian 16:  ES64L-G16RevB.01 20-Dec-2017
                13-Nov-2023 
 ******************************************
 %mem=14GB
 %chk=checkpoint.chk
 %nprocshared=16
 Will use up to   16 processors via shared memory.
 -------------------------
 #P B3LYP/6-311+g(d) force
 -------------------------
 1/10=7,30=1,38=1/1,3;
 2/12=2,17=6,18=5,40=1/2;
 3/5=4,6=6,7=11,11=2,25=1,30=1,71=1,74=-5/1,2,3;
 4//1;
 5/5=2,38=5/2;
 6/7=2,8=2,9=2,10=2,28=1/1;
 7/29=1/1,2,3,16;
 1/10=7,30=1/3;
 99//99;
 Leave Link    1 at Mon Nov 13 15:02:56 2023, MaxMem=  1879048192 cpu:               0.3 elap:               0.0
 (Enter /home/sekinelabo/g16/l101.exe)
 ------------------------------
 Gaussian input prepared by ASE
 ------------------------------
 Symbolic Z-matrix:
 Charge =  0 Multiplicity = 2
 Na                    0.        4.62506   1.82972 
 Na                    6.12507   2.23229   4.49445 
 Na                    4.54114   2.30945   0. 
 Na                    4.8185    4.00619   2.4595 
 Na                    2.35279   5.32854   3.54871 
 Na                    0.88101   2.75183   3.99889 
 Na                    0.52454   0.        2.85802 
 
 ITRead=  0  0  0  0  0  0  0
 MicOpt= -1 -1 -1 -1 -1 -1 -1
 NAtoms=      7 NQM=        7 NQMF=       0 NMMI=      0 NMMIF=      0
                NMic=       0 NMicF=      0.
                    Isotopes and Nuclear Properties:
 (Nuclear quadrupole moments (NQMom) in fm**2, nuclear magnetic moments (NMagM)
  in nuclear magnetons)

  Atom         1           2           3           4           5           6           7
 IAtWgt=          23          23          23          23          23          23          23
 AtmWgt=  22.9897697  22.9897697  22.9897697  22.9897697  22.9897697  22.9897697  22.9897697
 NucSpn=           3           3           3           3           3           3           3
 AtZEff=  -0.0000000  -0.0000000  -0.0000000  -0.0000000  -0.0000000  -0.0000000  -0.0000000
 NQMom=   10.4000000  10.4000000  10.4000000  10.4000000  10.4000000  10.4000000  10.4000000
 NMagM=    2.2175200   2.2175200   2.2175200   2.2175200   2.2175200   2.2175200   2.2175200
 AtZNuc=  11.0000000  11.0000000  11.0000000  11.0000000  11.0000000  11.0000000  11.0000000
 Leave Link  101 at Mon Nov 13 15:02:56 2023, MaxMem=  1879048192 cpu:               2.7 elap:               0.2
 (Enter /home/sekinelabo/g16/l103.exe)

 GradGradGradGradGradGradGradGradGradGradGradGradGradGradGradGradGradGrad
 Berny optimization.
 Initialization pass.
 Trust Radius=3.00D-01 FncErr=1.00D-07 GrdErr=1.00D-07 EigMax=2.50D+02 EigMin=1.00D-04
 Number of steps in this run=      2 maximum allowed number of steps=      2.
 GradGradGradGradGradGradGradGradGradGradGradGradGradGradGradGradGradGrad

 Leave Link  103 at Mon Nov 13 15:02:56 2023, MaxMem=  1879048192 cpu:               0.2 elap:               0.0
 (Enter /home/sekinelabo/g16/l202.exe)
                          Input orientation:                          
 ---------------------------------------------------------------------
 Center     Atomic      Atomic             Coordinates (Angstroms)
 Number     Number       Type             X           Y           Z
 ---------------------------------------------------------------------
      1         11           0        0.000000    4.625063    1.829722
      2         11           0        6.125071    2.232287    4.494452
      3         11           0        4.541143    2.309449    0.000000
      4         11           0        4.818504    4.006193    2.459497
      5         11           0        2.352794    5.328540    3.548711
      6         11           0        0.881007    2.751826    3.998888
      7         11           0        0.524535    0.000000    2.858017
 ---------------------------------------------------------------------
                    Distance matrix (angstroms):
                    1          2          3          4          5
     1  Na   0.000000
     2  Na   7.095256   0.000000
     3  Na   5.415896   4.766013   0.000000
     4  Na   4.898735   2.999150   3.000832   0.000000
     5  Na   2.997573   4.971044   5.147536   3.002452   0.000000
     6  Na   2.998411   5.292987   5.439062   4.409880   3.001378
     7  Na   4.766942   6.247161   5.443800   5.886134   5.675643
                    6          7
     6  Na   0.000000
     7  Na   3.000201   0.000000
 Stoichiometry    Na7(2)
 Framework group  C1[X(Na7)]
 Deg. of freedom    15
 Full point group                 C1      NOp   1
 Largest Abelian subgroup         C1      NOp   1
 Largest concise Abelian subgroup C1      NOp   1
                         Standard orientation:                         
 ---------------------------------------------------------------------
 Center     Atomic      Atomic             Coordinates (Angstroms)
 Number     Number       Type             X           Y           Z
 ---------------------------------------------------------------------
      1         11           0       -2.749008   -1.588869    0.911605
      2         11           0        3.376063    0.803907   -1.753125
      3         11           0        1.792135    0.726745    2.741327
      4         11           0        2.069497   -0.969999    0.281830
      5         11           0       -0.396214   -2.292346   -0.807385
      6         11           0       -1.868001    0.284368   -1.257561
      7         11           0       -2.224472    3.036194   -0.116690
 ---------------------------------------------------------------------
 Rotational constants (GHZ):           0.6673636           0.4505608           0.4053013
 Leave Link  202 at Mon Nov 13 15:02:56 2023, MaxMem=  1879048192 cpu:               0.0 elap:               0.0
 (Enter /home/sekinelabo/g16/l301.exe)
 Standard basis: 6-311+G(d) (5D, 7F)
 Ernie: Thresh=  0.10000D-02 Tol=  0.10000D-05 Strict=F.
 There are   217 symmetry adapted cartesian basis functions of A   symmetry.
 There are   210 symmetry adapted basis functions of A   symmetry.
   210 basis functions,   350 primitive gaussians,   217 cartesian basis functions
    39 alpha electrons       38 beta electrons
       nuclear repulsion energy       318.0697831260 Hartrees.
 IExCor=  402 DFT=T Ex+Corr=B3LYP ExCW=0 ScaHFX=  0.200000
 ScaDFX=  0.800000  0.720000  1.000000  0.810000 ScalE2=  1.000000  1.000000
 IRadAn=      5 IRanWt=     -1 IRanGd=            0 ICorTp=0 IEmpDi=  4
 NAtoms=    7 NActive=    7 NUniq=    7 SFac= 1.00D+00 NAtFMM=   60 NAOKFM=F Big=F
 Integral buffers will be    131072 words long.
 Raffenetti 2 integral format.
 Two-electron integral symmetry is turned on.
 Leave Link  301 at Mon Nov 13 15:02:56 2023, MaxMem=  1879048192 cpu:               0.5 elap:               0.0
 (Enter /home/sekinelabo/g16/l302.exe)
 NPDir=0 NMtPBC=     1 NCelOv=     1 NCel=       1 NClECP=     1 NCelD=      1
         NCelK=      1 NCelE2=     1 NClLst=     1 CellRange=     0.0.
 One-electron integrals computed using PRISM.
 One-electron integral symmetry used in STVInt
 NBasis=   210 RedAO= T EigKep=  2.11D-06  NBF=   210
 NBsUse=   210 1.00D-06 EigRej= -1.00D+00 NBFU=   210
 Precomputing XC quadrature grid using
 IXCGrd= 4 IRadAn=           5 IRanWt=          -1 IRanGd=           0 AccXCQ= 0.00D+00.
 Generated NRdTot=       0 NPtTot=           0 NUsed=           0 NTot=          32
 NSgBfM=   206   206   206   206   206 MxSgAt=     7 MxSgA2=     7.
 Leave Link  302 at Mon Nov 13 15:02:56 2023, MaxMem=  1879048192 cpu:               2.1 elap:               0.1
 (Enter /home/sekinelabo/g16/l303.exe)
 DipDrv:  MaxL=1.
 Leave Link  303 at Mon Nov 13 15:02:56 2023, MaxMem=  1879048192 cpu:               0.5 elap:               0.0
 (Enter /home/sekinelabo/g16/l401.exe)
 ExpMin= 7.60D-03 ExpMax= 3.62D+04 ExpMxC= 1.21D+03 IAcc=3 IRadAn=         5 AccDes= 0.00D+00
 Harris functional with IExCor=  402 and IRadAn=       5 diagonalized for initial guess.
 HarFok:  IExCor=  402 AccDes= 0.00D+00 IRadAn=         5 IDoV= 1 UseB2=F ITyADJ=14
 ICtDFT=  3500011 ScaDFX=  1.000000  1.000000  1.000000  1.000000
 FoFCou: FMM=F IPFlag=           0 FMFlag=      100000 FMFlg1=           0
         NFxFlg=           0 DoJE=T BraDBF=F KetDBF=T FulRan=T
         wScrn=  0.000000 ICntrl=       500 IOpCl=  0 I1Cent=   200000004 NGrid=           0
         NMat0=    1 NMatS0=      1 NMatT0=    0 NMatD0=    1 NMtDS0=    0 NMtDT0=    0
 Petite list used in FoFCou.
 Harris En= -1135.86833312300    
 JPrj=0 DoOrth=F DoCkMO=F.
 Initial guess <Sx>= 0.0000 <Sy>= 0.0000 <Sz>= 0.5000 <S**2>= 0.7500 S= 0.5000
 Leave Link  401 at Mon Nov 13 15:02:56 2023, MaxMem=  1879048192 cpu:               4.8 elap:               0.3
 (Enter /home/sekinelabo/g16/l502.exe)
 Keep R1 and R2 ints in memory in canonical form, NReq=507620346.
 FoFCou: FMM=F IPFlag=           0 FMFlag=           0 FMFlg1=           0
         NFxFlg=           0 DoJE=F BraDBF=F KetDBF=F FulRan=T
         wScrn=  0.000000 ICntrl=       600 IOpCl=  0 I1Cent=           0 NGrid=           0
         NMat0=    1 NMatS0=  22155 NMatT0=    0 NMatD0=    1 NMtDS0=    0 NMtDT0=    0
 Symmetry not used in FoFCou.
 Two-electron integral symmetry not used.
 UHF open shell SCF:
 Using DIIS extrapolation, IDIIS=  1040.
 NGot=  1879048192 LenX=  1388082390 LenY=  1388034860
 Requested convergence on RMS density matrix=1.00D-08 within 128 cycles.
 Requested convergence on MAX density matrix=1.00D-06.
 Requested convergence on             energy=1.00D-06.
 No special actions if energy rises.

 Cycle   1  Pass 1  IDiag  1:
 E= -1136.06542912496    
 DIIS: error= 9.73D-03 at cycle   1 NSaved=   1.
 NSaved= 1 IEnMin= 1 EnMin= -1136.06542912496     IErMin= 1 ErrMin= 9.73D-03
 ErrMax= 9.73D-03  0.00D+00 EMaxC= 1.00D-01 BMatC= 1.89D-01 BMatP= 1.89D-01
 IDIUse=3 WtCom= 9.03D-01 WtEn= 9.73D-02
 Coeff-Com:  0.100D+01
 Coeff-En:   0.100D+01
 Coeff:      0.100D+01
 Gap=     0.047 Goal=   None    Shift=    0.000
 Gap=     0.021 Goal=   None    Shift=    0.000
 GapD=    0.021 DampG=0.250 DampE=1.000 DampFc=0.2500 IDamp=-1.
 Damping current iteration by 2.50D-01
 RMSDP=3.03D-02 MaxDP=3.43D+00              OVMax= 2.28D-01

 Cycle   2  Pass 1  IDiag  1:
 E= -1136.07607287056     Delta-E=       -0.010643745597 Rises=F Damp=T
 DIIS: error= 6.89D-03 at cycle   2 NSaved=   2.
 NSaved= 2 IEnMin= 2 EnMin= -1136.07607287056     IErMin= 2 ErrMin= 6.89D-03
 ErrMax= 6.89D-03  0.00D+00 EMaxC= 1.00D-01 BMatC= 7.29D-02 BMatP= 1.89D-01
 IDIUse=3 WtCom= 9.31D-01 WtEn= 6.89D-02
 Coeff-Com: -0.129D+01 0.229D+01
 Coeff-En:   0.000D+00 0.100D+01
 Coeff:     -0.121D+01 0.221D+01
 Gap=     0.046 Goal=   None    Shift=    0.000
 Gap=     0.041 Goal=   None    Shift=    0.000
 RMSDP=1.72D-02 MaxDP=2.02D+00 DE=-1.06D-02 OVMax= 1.73D-01

 Cycle   3  Pass 1  IDiag  1:
 E= -1136.09488304543     Delta-E=       -0.018810174869 Rises=F Damp=F
 DIIS: error= 1.87D-03 at cycle   3 NSaved=   3.
 NSaved= 3 IEnMin= 3 EnMin= -1136.09488304543     IErMin= 3 ErrMin= 1.87D-03
 ErrMax= 1.87D-03  0.00D+00 EMaxC= 1.00D-01 BMatC= 2.03D-03 BMatP= 7.29D-02
 IDIUse=3 WtCom= 9.81D-01 WtEn= 1.87D-02
 Coeff-Com: -0.177D+00 0.308D+00 0.869D+00
 Coeff-En:   0.000D+00 0.000D+00 0.100D+01
 Coeff:     -0.174D+00 0.302D+00 0.871D+00
 Gap=     0.049 Goal=   None    Shift=    0.000
 Gap=     0.033 Goal=   None    Shift=    0.000
 RMSDP=5.97D-03 MaxDP=5.04D-01 DE=-1.88D-02 OVMax= 1.13D-01

 Cycle   4  Pass 1  IDiag  1:
 E= -1136.09329957185     Delta-E=        0.001583473575 Rises=F Damp=F
 DIIS: error= 2.57D-03 at cycle   4 NSaved=   4.
 NSaved= 4 IEnMin= 3 EnMin= -1136.09488304543     IErMin= 3 ErrMin= 1.87D-03
 ErrMax= 2.57D-03  0.00D+00 EMaxC= 1.00D-01 BMatC= 3.26D-03 BMatP= 2.03D-03
 IDIUse=3 WtCom= 1.65D-01 WtEn= 8.35D-01
 Coeff-Com: -0.951D-02 0.139D-01 0.559D+00 0.437D+00
 Coeff-En:   0.000D+00 0.000D+00 0.608D+00 0.392D+00
 Coeff:     -0.157D-02 0.230D-02 0.600D+00 0.399D+00
 Gap=     0.045 Goal=   None    Shift=    0.000
 Gap=     0.036 Goal=   None    Shift=    0.000
 RMSDP=2.48D-03 MaxDP=1.51D-01 DE= 1.58D-03 OVMax= 6.13D-02

 Cycle   5  Pass 1  IDiag  1:
 E= -1136.09708562753     Delta-E=       -0.003786055678 Rises=F Damp=F
 DIIS: error= 3.62D-04 at cycle   5 NSaved=   5.
 NSaved= 5 IEnMin= 5 EnMin= -1136.09708562753     IErMin= 5 ErrMin= 3.62D-04
 ErrMax= 3.62D-04  0.00D+00 EMaxC= 1.00D-01 BMatC= 6.15D-05 BMatP= 2.03D-03
 IDIUse=3 WtCom= 9.96D-01 WtEn= 3.62D-03
 Coeff-Com:  0.122D-03-0.101D-02 0.262D+00 0.148D+00 0.590D+00
 Coeff-En:   0.000D+00 0.000D+00 0.000D+00 0.000D+00 0.100D+01
 Coeff:      0.122D-03-0.101D-02 0.261D+00 0.148D+00 0.592D+00
 Gap=     0.045 Goal=   None    Shift=    0.000
 Gap=     0.036 Goal=   None    Shift=    0.000
 RMSDP=6.67D-04 MaxDP=8.12D-02 DE=-3.79D-03 OVMax= 6.42D-03

 Cycle   6  Pass 1  IDiag  1:
 E= -1136.09713489970     Delta-E=       -0.000049272170 Rises=F Damp=F
 DIIS: error= 9.86D-05 at cycle   6 NSaved=   6.
 NSaved= 6 IEnMin= 6 EnMin= -1136.09713489970     IErMin= 6 ErrMin= 9.86D-05
 ErrMax= 9.86D-05  0.00D+00 EMaxC= 1.00D-01 BMatC= 4.57D-06 BMatP= 6.15D-05
 IDIUse=1 WtCom= 1.00D+00 WtEn= 0.00D+00
 Coeff-Com:  0.812D-03-0.156D-02-0.218D-01-0.408D-01 0.206D+00 0.858D+00
 Coeff:      0.812D-03-0.156D-02-0.218D-01-0.408D-01 0.206D+00 0.858D+00
 Gap=     0.045 Goal=   None    Shift=    0.000
 Gap=     0.036 Goal=   None    Shift=    0.000
 RMSDP=3.37D-04 MaxDP=3.72D-02 DE=-4.93D-05 OVMax= 4.98D-03

 Cycle   7  Pass 1  IDiag  1:
 E= -1136.09714405210     Delta-E=       -0.000009152398 Rises=F Damp=F
 DIIS: error= 5.74D-05 at cycle   7 NSaved=   7.
 NSaved= 7 IEnMin= 7 EnMin= -1136.09714405210     IErMin= 7 ErrMin= 5.74D-05
 ErrMax= 5.74D-05  0.00D+00 EMaxC= 1.00D-01 BMatC= 1.35D-06 BMatP= 4.57D-06
 IDIUse=1 WtCom= 1.00D+00 WtEn= 0.00D+00
 Coeff-Com:  0.333D-03-0.575D-03-0.443D-01-0.385D-01 0.107D-01 0.435D+00
 Coeff-Com:  0.637D+00
 Coeff:      0.333D-03-0.575D-03-0.443D-01-0.385D-01 0.107D-01 0.435D+00
 Coeff:      0.637D+00
 Gap=     0.045 Goal=   None    Shift=    0.000
 Gap=     0.036 Goal=   None    Shift=    0.000
 RMSDP=9.42D-05 MaxDP=8.71D-03 DE=-9.15D-06 OVMax= 3.12D-03

 Cycle   8  Pass 1  IDiag  1:
 E= -1136.09714677723     Delta-E=       -0.000002725135 Rises=F Damp=F
 DIIS: error= 2.60D-05 at cycle   8 NSaved=   8.
 NSaved= 8 IEnMin= 8 EnMin= -1136.09714677723     IErMin= 8 ErrMin= 2.60D-05
 ErrMax= 2.60D-05  0.00D+00 EMaxC= 1.00D-01 BMatC= 2.96D-07 BMatP= 1.35D-06
 IDIUse=1 WtCom= 1.00D+00 WtEn= 0.00D+00
 Coeff-Com:  0.152D-03-0.139D-03-0.131D-01-0.498D-02-0.547D-01-0.277D-01
 Coeff-Com:  0.306D+00 0.795D+00
 Coeff:      0.152D-03-0.139D-03-0.131D-01-0.498D-02-0.547D-01-0.277D-01
 Coeff:      0.306D+00 0.795D+00
 Gap=     0.045 Goal=   None    Shift=    0.000
 Gap=     0.036 Goal=   None    Shift=    0.000
 RMSDP=1.01D-04 MaxDP=8.89D-03 DE=-2.73D-06 OVMax= 2.53D-03

 Cycle   9  Pass 1  IDiag  1:
 E= -1136.09714787275     Delta-E=       -0.000001095512 Rises=F Damp=F
 DIIS: error= 1.43D-05 at cycle   9 NSaved=   9.
 NSaved= 9 IEnMin= 9 EnMin= -1136.09714787275     IErMin= 9 ErrMin= 1.43D-05
 ErrMax= 1.43D-05  0.00D+00 EMaxC= 1.00D-01 BMatC= 7.72D-08 BMatP= 2.96D-07
 IDIUse=1 WtCom= 1.00D+00 WtEn= 0.00D+00
 Coeff-Com:  0.218D-03-0.228D-03 0.594D-03 0.331D-02-0.279D-01-0.854D-01
 Coeff-Com:  0.227D-01 0.349D+00 0.738D+00
 Coeff:      0.218D-03-0.228D-03 0.594D-03 0.331D-02-0.279D-01-0.854D-01
 Coeff:      0.227D-01 0.349D+00 0.738D+00
 Gap=     0.045 Goal=   None    Shift=    0.000
 Gap=     0.036 Goal=   None    Shift=    0.000
 RMSDP=4.84D-05 MaxDP=3.87D-03 DE=-1.10D-06 OVMax= 1.42D-03

 Cycle  10  Pass 1  IDiag  1:
 E= -1136.09714826889     Delta-E=       -0.000000396149 Rises=F Damp=F
 DIIS: error= 1.15D-05 at cycle  10 NSaved=  10.
 NSaved=10 IEnMin=10 EnMin= -1136.09714826889     IErMin=10 ErrMin= 1.15D-05
 ErrMax= 1.15D-05  0.00D+00 EMaxC= 1.00D-01 BMatC= 3.19D-08 BMatP= 7.72D-08
 IDIUse=1 WtCom= 1.00D+00 WtEn= 0.00D+00
 Coeff-Com:  0.114D-03-0.142D-03 0.521D-02 0.285D-02 0.102D-01-0.221D-01
 Coeff-Com: -0.108D+00-0.154D+00 0.362D+00 0.904D+00
 Coeff:      0.114D-03-0.142D-03 0.521D-02 0.285D-02 0.102D-01-0.221D-01
 Coeff:     -0.108D+00-0.154D+00 0.362D+00 0.904D+00
 Gap=     0.045 Goal=   None    Shift=    0.000
 Gap=     0.036 Goal=   None    Shift=    0.000
 RMSDP=3.43D-05 MaxDP=2.68D-03 DE=-3.96D-07 OVMax= 1.45D-03

 Cycle  11  Pass 1  IDiag  1:
 E= -1136.09714854144     Delta-E=       -0.000000272548 Rises=F Damp=F
 DIIS: error= 5.45D-06 at cycle  11 NSaved=  11.
 NSaved=11 IEnMin=11 EnMin= -1136.09714854144     IErMin=11 ErrMin= 5.45D-06
 ErrMax= 5.45D-06  0.00D+00 EMaxC= 1.00D-01 BMatC= 1.06D-08 BMatP= 3.19D-08
 IDIUse=1 WtCom= 1.00D+00 WtEn= 0.00D+00
 Coeff-Com: -0.236D-03 0.297D-03 0.611D-03-0.120D-02 0.148D-01 0.429D-01
 Coeff-Com: -0.200D-01-0.203D+00-0.317D+00 0.129D+00 0.135D+01
 Coeff:     -0.236D-03 0.297D-03 0.611D-03-0.120D-02 0.148D-01 0.429D-01
 Coeff:     -0.200D-01-0.203D+00-0.317D+00 0.129D+00 0.135D+01
 Gap=     0.045 Goal=   None    Shift=    0.000
 Gap=     0.036 Goal=   None    Shift=    0.000
 RMSDP=3.60D-05 MaxDP=3.08D-03 DE=-2.73D-07 OVMax= 1.50D-03

 Cycle  12  Pass 1  IDiag  1:
 E= -1136.09714872205     Delta-E=       -0.000000180608 Rises=F Damp=F
 DIIS: error= 2.83D-06 at cycle  12 NSaved=  12.
 NSaved=12 IEnMin=12 EnMin= -1136.09714872205     IErMin=12 ErrMin= 2.83D-06
 ErrMax= 2.83D-06  0.00D+00 EMaxC= 1.00D-01 BMatC= 2.69D-09 BMatP= 1.06D-08
 IDIUse=1 WtCom= 1.00D+00 WtEn= 0.00D+00
 Coeff-Com: -0.197D-04 0.189D-04-0.158D-02-0.507D-03-0.472D-02 0.288D-02
 Coeff-Com:  0.426D-01 0.812D-01-0.112D+00-0.372D+00-0.909D-01 0.146D+01
 Coeff:     -0.197D-04 0.189D-04-0.158D-02-0.507D-03-0.472D-02 0.288D-02
 Coeff:      0.426D-01 0.812D-01-0.112D+00-0.372D+00-0.909D-01 0.146D+01
 Gap=     0.045 Goal=   None    Shift=    0.000
 Gap=     0.036 Goal=   None    Shift=    0.000
 RMSDP=2.05D-05 MaxDP=1.47D-03 DE=-1.81D-07 OVMax= 1.08D-03

 Cycle  13  Pass 1  IDiag  1:
 E= -1136.09714877849     Delta-E=       -0.000000056437 Rises=F Damp=F
 DIIS: error= 1.28D-06 at cycle  13 NSaved=  13.
 NSaved=13 IEnMin=13 EnMin= -1136.09714877849     IErMin=13 ErrMin= 1.28D-06
 ErrMax= 1.28D-06  0.00D+00 EMaxC= 1.00D-01 BMatC= 5.67D-10 BMatP= 2.69D-09
 IDIUse=1 WtCom= 1.00D+00 WtEn= 0.00D+00
 Coeff-Com:  0.487D-04-0.633D-04-0.615D-03 0.588D-05-0.386D-02-0.691D-02
 Coeff-Com:  0.140D-01 0.533D-01 0.235D-01-0.984D-01-0.247D+00 0.286D+00
 Coeff-Com:  0.980D+00
 Coeff:      0.487D-04-0.633D-04-0.615D-03 0.588D-05-0.386D-02-0.691D-02
 Coeff:      0.140D-01 0.533D-01 0.235D-01-0.984D-01-0.247D+00 0.286D+00
 Coeff:      0.980D+00
 Gap=     0.045 Goal=   None    Shift=    0.000
 Gap=     0.036 Goal=   None    Shift=    0.000
 RMSDP=5.96D-06 MaxDP=3.48D-04 DE=-5.64D-08 OVMax= 3.15D-04

 Cycle  14  Pass 1  IDiag  1:
 E= -1136.09714878529     Delta-E=       -0.000000006806 Rises=F Damp=F
 DIIS: error= 7.58D-07 at cycle  14 NSaved=  14.
 NSaved=14 IEnMin=14 EnMin= -1136.09714878529     IErMin=14 ErrMin= 7.58D-07
 ErrMax= 7.58D-07  0.00D+00 EMaxC= 1.00D-01 BMatC= 1.91D-10 BMatP= 5.67D-10
 IDIUse=1 WtCom= 1.00D+00 WtEn= 0.00D+00
 Coeff-Com:  0.343D-04-0.430D-04 0.369D-03 0.231D-03 0.431D-04-0.497D-02
 Coeff-Com: -0.932D-02-0.387D-02 0.558D-01 0.793D-01-0.678D-01-0.373D+00
 Coeff-Com:  0.297D+00 0.103D+01
 Coeff:      0.343D-04-0.430D-04 0.369D-03 0.231D-03 0.431D-04-0.497D-02
 Coeff:     -0.932D-02-0.387D-02 0.558D-01 0.793D-01-0.678D-01-0.373D+00
 Coeff:      0.297D+00 0.103D+01
 Gap=     0.045 Goal=   None    Shift=    0.000
 Gap=     0.036 Goal=   None    Shift=    0.000
 RMSDP=3.05D-06 MaxDP=1.48D-04 DE=-6.81D-09 OVMax= 1.73D-04

 Cycle  15  Pass 1  IDiag  1:
 E= -1136.09714878724     Delta-E=       -0.000000001943 Rises=F Damp=F
 DIIS: error= 2.79D-07 at cycle  15 NSaved=  15.
 NSaved=15 IEnMin=15 EnMin= -1136.09714878724     IErMin=15 ErrMin= 2.79D-07
 ErrMax= 2.79D-07  0.00D+00 EMaxC= 1.00D-01 BMatC= 3.38D-11 BMatP= 1.91D-10
 IDIUse=1 WtCom= 1.00D+00 WtEn= 0.00D+00
 Coeff-Com: -0.242D-04 0.316D-04 0.108D-03-0.581D-04 0.113D-02 0.265D-02
 Coeff-Com: -0.174D-02-0.162D-01-0.126D-01 0.201D-01 0.707D-01-0.380D-01
 Coeff-Com: -0.244D+00-0.176D+00 0.139D+01
 Coeff:     -0.242D-04 0.316D-04 0.108D-03-0.581D-04 0.113D-02 0.265D-02
 Coeff:     -0.174D-02-0.162D-01-0.126D-01 0.201D-01 0.707D-01-0.380D-01
 Coeff:     -0.244D+00-0.176D+00 0.139D+01
 Gap=     0.045 Goal=   None    Shift=    0.000
 Gap=     0.036 Goal=   None    Shift=    0.000
 RMSDP=1.67D-06 MaxDP=7.63D-05 DE=-1.94D-09 OVMax= 7.96D-05

 Cycle  16  Pass 1  IDiag  1:
 E= -1136.09714878770     Delta-E=       -0.000000000461 Rises=F Damp=F
 DIIS: error= 1.66D-07 at cycle  16 NSaved=  16.
 NSaved=16 IEnMin=16 EnMin= -1136.09714878770     IErMin=16 ErrMin= 1.66D-07
 ErrMax= 1.66D-07  0.00D+00 EMaxC= 1.00D-01 BMatC= 6.19D-12 BMatP= 3.38D-11
 IDIUse=1 WtCom= 1.00D+00 WtEn= 0.00D+00
 Coeff-Com: -0.454D-05 0.550D-05-0.654D-04-0.170D-04-0.139D-03 0.692D-03
 Coeff-Com:  0.196D-02 0.286D-02-0.108D-01-0.159D-01 0.221D-02 0.886D-01
 Coeff-Com: -0.614D-01-0.151D+00-0.179D+00 0.132D+01
 Coeff:     -0.454D-05 0.550D-05-0.654D-04-0.170D-04-0.139D-03 0.692D-03
 Coeff:      0.196D-02 0.286D-02-0.108D-01-0.159D-01 0.221D-02 0.886D-01
 Coeff:     -0.614D-01-0.151D+00-0.179D+00 0.132D+01
 Gap=     0.045 Goal=   None    Shift=    0.000
 Gap=     0.036 Goal=   None    Shift=    0.000
 RMSDP=7.60D-07 MaxDP=3.67D-05 DE=-4.61D-10 OVMax= 2.97D-05

 Cycle  17  Pass 1  IDiag  1:
 E= -1136.09714878777     Delta-E=       -0.000000000070 Rises=F Damp=F
 DIIS: error= 4.28D-08 at cycle  17 NSaved=  17.
 NSaved=17 IEnMin=17 EnMin= -1136.09714878777     IErMin=17 ErrMin= 4.28D-08
 ErrMax= 4.28D-08  0.00D+00 EMaxC= 1.00D-01 BMatC= 8.30D-13 BMatP= 6.19D-12
 IDIUse=1 WtCom= 1.00D+00 WtEn= 0.00D+00
 Coeff-Com:  0.606D-05-0.793D-05-0.224D-04 0.821D-05-0.237D-03-0.565D-03
 Coeff-Com:  0.335D-03 0.298D-02 0.245D-02-0.285D-02-0.117D-01-0.208D-03
 Coeff-Com:  0.487D-01 0.338D-01-0.218D+00-0.665D-01 0.121D+01
 Coeff:      0.606D-05-0.793D-05-0.224D-04 0.821D-05-0.237D-03-0.565D-03
 Coeff:      0.335D-03 0.298D-02 0.245D-02-0.285D-02-0.117D-01-0.208D-03
 Coeff:      0.487D-01 0.338D-01-0.218D+00-0.665D-01 0.121D+01
 Gap=     0.045 Goal=   None    Shift=    0.000
 Gap=     0.036 Goal=   None    Shift=    0.000
 RMSDP=2.91D-07 MaxDP=1.89D-05 DE=-6.96D-11 OVMax= 1.20D-05

 Cycle  18  Pass 1  IDiag  1:
 E= -1136.09714878779     Delta-E=       -0.000000000021 Rises=F Damp=F
 DIIS: error= 1.76D-08 at cycle  18 NSaved=  18.
 NSaved=18 IEnMin=18 EnMin= -1136.09714878779     IErMin=18 ErrMin= 1.76D-08
 ErrMax= 1.76D-08  0.00D+00 EMaxC= 1.00D-01 BMatC= 1.50D-13 BMatP= 8.30D-13
 IDIUse=1 WtCom= 1.00D+00 WtEn= 0.00D+00
 Coeff-Com:  0.116D-05-0.145D-05 0.353D-05 0.109D-05-0.961D-05-0.160D-03
 Coeff-Com: -0.114D-03 0.106D-04 0.137D-02 0.151D-02-0.216D-02-0.890D-02
 Coeff-Com:  0.114D-01 0.194D-01 0.601D-02-0.201D+00 0.197D+00 0.976D+00
 Coeff:      0.116D-05-0.145D-05 0.353D-05 0.109D-05-0.961D-05-0.160D-03
 Coeff:     -0.114D-03 0.106D-04 0.137D-02 0.151D-02-0.216D-02-0.890D-02
 Coeff:      0.114D-01 0.194D-01 0.601D-02-0.201D+00 0.197D+00 0.976D+00
 Gap=     0.045 Goal=   None    Shift=    0.000
 Gap=     0.036 Goal=   None    Shift=    0.000
 RMSDP=1.49D-07 MaxDP=1.26D-05 DE=-2.14D-11 OVMax= 4.11D-06

 Cycle  19  Pass 1  IDiag  1:
 E= -1136.09714878780     Delta-E=       -0.000000000008 Rises=F Damp=F
 DIIS: error= 7.54D-09 at cycle  19 NSaved=  19.
 NSaved=19 IEnMin=19 EnMin= -1136.09714878780     IErMin=19 ErrMin= 7.54D-09
 ErrMax= 7.54D-09  0.00D+00 EMaxC= 1.00D-01 BMatC= 2.47D-14 BMatP= 1.50D-13
 IDIUse=1 WtCom= 1.00D+00 WtEn= 0.00D+00
 Coeff-Com: -0.117D-05 0.154D-05 0.494D-05-0.784D-06 0.428D-04 0.990D-04
 Coeff-Com: -0.711D-04-0.562D-03-0.351D-03 0.740D-03 0.204D-02-0.115D-02
 Coeff-Com: -0.866D-02-0.219D-02 0.405D-01-0.147D-01-0.185D+00 0.729D-01
 Coeff-Com:  0.110D+01
 Coeff:     -0.117D-05 0.154D-05 0.494D-05-0.784D-06 0.428D-04 0.990D-04
 Coeff:     -0.711D-04-0.562D-03-0.351D-03 0.740D-03 0.204D-02-0.115D-02
 Coeff:     -0.866D-02-0.219D-02 0.405D-01-0.147D-01-0.185D+00 0.729D-01
 Coeff:      0.110D+01
 Gap=     0.045 Goal=   None    Shift=    0.000
 Gap=     0.036 Goal=   None    Shift=    0.000
 RMSDP=5.18D-08 MaxDP=5.30D-06 DE=-7.73D-12 OVMax= 1.81D-06

 Cycle  20  Pass 1  IDiag  1:
 E= -1136.09714878779     Delta-E=        0.000000000010 Rises=F Damp=F
 DIIS: error= 3.45D-09 at cycle  20 NSaved=  20.
 NSaved=20 IEnMin=19 EnMin= -1136.09714878780     IErMin=20 ErrMin= 3.45D-09
 ErrMax= 3.45D-09  0.00D+00 EMaxC= 1.00D-01 BMatC= 4.80D-15 BMatP= 2.47D-14
 IDIUse=1 WtCom= 1.00D+00 WtEn= 0.00D+00
 Coeff-Com: -0.331D-06 0.427D-06 0.110D-05 0.628D-06 0.715D-05 0.261D-04
 Coeff-Com:  0.210D-05-0.100D-03-0.154D-03 0.331D-04 0.470D-03 0.739D-03
 Coeff-Com: -0.305D-02-0.274D-02 0.938D-02 0.178D-01-0.606D-01-0.135D+00
 Coeff-Com:  0.226D+00 0.947D+00
 Coeff:     -0.331D-06 0.427D-06 0.110D-05 0.628D-06 0.715D-05 0.261D-04
 Coeff:      0.210D-05-0.100D-03-0.154D-03 0.331D-04 0.470D-03 0.739D-03
 Coeff:     -0.305D-02-0.274D-02 0.938D-02 0.178D-01-0.606D-01-0.135D+00
 Coeff:      0.226D+00 0.947D+00
 Gap=     0.045 Goal=   None    Shift=    0.000
 Gap=     0.036 Goal=   None    Shift=    0.000
 RMSDP=1.88D-08 MaxDP=2.18D-06 DE= 1.00D-11 OVMax= 6.73D-07

 Cycle  21  Pass 1  IDiag  1:
 E= -1136.09714878779     Delta-E=       -0.000000000003 Rises=F Damp=F
 DIIS: error= 1.76D-09 at cycle  21 NSaved=  20.
 NSaved=20 IEnMin=18 EnMin= -1136.09714878780     IErMin=20 ErrMin= 1.76D-09
 ErrMax= 1.76D-09  0.00D+00 EMaxC= 1.00D-01 BMatC= 7.38D-16 BMatP= 4.80D-15
 IDIUse=1 WtCom= 1.00D+00 WtEn= 0.00D+00
 Large coefficients: NSaved= 20 BigCof=    0.00 CofMax=   10.00 Det=-2.13D-15
 Inversion failed.  Reducing to 19 matrices.
 Large coefficients: NSaved= 19 BigCof=    0.00 CofMax=   10.00 Det=-2.14D-15
 Inversion failed.  Reducing to 18 matrices.
 Large coefficients: NSaved= 18 BigCof=    0.00 CofMax=   10.00 Det=-2.29D-15
 Inversion failed.  Reducing to 17 matrices.
 Large coefficients: NSaved= 17 BigCof=    0.00 CofMax=   10.00 Det=-2.45D-15
 Inversion failed.  Reducing to 16 matrices.
 Large coefficients: NSaved= 16 BigCof=    0.00 CofMax=   10.00 Det=-2.64D-15
 Inversion failed.  Reducing to 15 matrices.
 Coeff-Com:  0.550D-07 0.974D-05-0.395D-04-0.415D-04 0.102D-03 0.116D-03
 Coeff-Com: -0.163D-04-0.267D-03-0.188D-02 0.409D-02 0.132D-01-0.315D-01
 Coeff-Com: -0.133D+00 0.833D-01 0.107D+01
 Coeff:      0.550D-07 0.974D-05-0.395D-04-0.415D-04 0.102D-03 0.116D-03
 Coeff:     -0.163D-04-0.267D-03-0.188D-02 0.409D-02 0.132D-01-0.315D-01
 Coeff:     -0.133D+00 0.833D-01 0.107D+01
 Gap=     0.045 Goal=   None    Shift=    0.000
 Gap=     0.036 Goal=   None    Shift=    0.000
 RMSDP=6.54D-09 MaxDP=5.02D-07 DE=-2.73D-12 OVMax= 3.31D-07

 SCF Done:  E(UB3LYP) =  -1136.09714879     A.U. after   21 cycles
            NFock= 21  Conv=0.65D-08     -V/T= 2.0027
 <Sx>= 0.0000 <Sy>= 0.0000 <Sz>= 0.5000 <S**2>= 0.7665 S= 0.5082
 <L.S>= 0.000000000000E+00
 KE= 1.133031600754D+03 PE=-3.365253611510D+03 EE= 7.780550788414D+02
 Annihilation of the first spin contaminant:
 S**2 before annihilation     0.7665,   after     0.7501
 Leave Link  502 at Mon Nov 13 15:03:14 2023, MaxMem=  1879048192 cpu:             200.2 elap:              17.1
 (Enter /home/sekinelabo/g16/l601.exe)
 Copying SCF densities to generalized density rwf, IOpCl= 1 IROHF=0.

 **********************************************************************

            Population analysis using the SCF Density.

 **********************************************************************

 Orbital symmetries:
 Alpha Orbitals:
       Occupied  (A) (A) (A) (A) (A) (A) (A) (A) (A) (A) (A) (A)
                 (A) (A) (A) (A) (A) (A) (A) (A) (A) (A) (A) (A)
                 (A) (A) (A) (A) (A) (A) (A) (A) (A) (A) (A) (A)
                 (A) (A) (A)
       Virtual   (A) (A) (A) (A) (A) (A) (A) (A) (A) (A) (A) (A)
                 (A) (A) (A) (A) (A) (A) (A) (A) (A) (A) (A) (A)
                 (A) (A) (A) (A) (A) (A) (A) (A) (A) (A) (A) (A)
                 (A) (A) (A) (A) (A) (A) (A) (A) (A) (A) (A) (A)
                 (A) (A) (A) (A) (A) (A) (A) (A) (A) (A) (A) (A)
                 (A) (A) (A) (A) (A) (A) (A) (A) (A) (A) (A) (A)
                 (A) (A) (A) (A) (A) (A) (A) (A) (A) (A) (A) (A)
                 (A) (A) (A) (A) (A) (A) (A) (A) (A) (A) (A) (A)
                 (A) (A) (A) (A) (A) (A) (A) (A) (A) (A) (A) (A)
                 (A) (A) (A) (A) (A) (A) (A) (A) (A) (A) (A) (A)
                 (A) (A) (A) (A) (A) (A) (A) (A) (A) (A) (A) (A)
                 (A) (A) (A) (A) (A) (A) (A) (A) (A) (A) (A) (A)
                 (A) (A) (A) (A) (A) (A) (A) (A) (A) (A) (A) (A)
                 (A) (A) (A) (A) (A) (A) (A) (A) (A) (A) (A) (A)
                 (A) (A) (A)
 Beta  Orbitals:
       Occupied  (A) (A) (A) (A) (A) (A) (A) (A) (A) (A) (A) (A)
                 (A) (A) (A) (A) (A) (A) (A) (A) (A) (A) (A) (A)
                 (A) (A) (A) (A) (A) (A) (A) (A) (A) (A) (A) (A)
                 (A) (A)
       Virtual   (A) (A) (A) (A) (A) (A) (A) (A) (A) (A) (A) (A)
                 (A) (A) (A) (A) (A) (A) (A) (A) (A) (A) (A) (A)
                 (A) (A) (A) (A) (A) (A) (A) (A) (A) (A) (A) (A)
                 (A) (A) (A) (A) (A) (A) (A) (A) (A) (A) (A) (A)
                 (A) (A) (A) (A) (A) (A) (A) (A) (A) (A) (A) (A)
                 (A) (A) (A) (A) (A) (A) (A) (A) (A) (A) (A) (A)
                 (A) (A) (A) (A) (A) (A) (A) (A) (A) (A) (A) (A)
                 (A) (A) (A) (A) (A) (A) (A) (A) (A) (A) (A) (A)
                 (A) (A) (A) (A) (A) (A) (A) (A) (A) (A) (A) (A)
                 (A) (A) (A) (A) (A) (A) (A) (A) (A) (A) (A) (A)
                 (A) (A) (A) (A) (A) (A) (A) (A) (A) (A) (A) (A)
                 (A) (A) (A) (A) (A) (A) (A) (A) (A) (A) (A) (A)
                 (A) (A) (A) (A) (A) (A) (A) (A) (A) (A) (A) (A)
                 (A) (A) (A) (A) (A) (A) (A) (A) (A) (A) (A) (A)
                 (A) (A) (A) (A)
 The electronic state is 2-A.
 Alpha  occ. eigenvalues --  -38.45662 -38.45239 -38.45042 -38.43819 -38.43635
 Alpha  occ. eigenvalues --  -38.43535 -38.42797  -2.21533  -2.21050  -2.20875
 Alpha  occ. eigenvalues --   -2.19792  -2.19605  -2.19525  -2.18604  -1.15249
 Alpha  occ. eigenvalues --   -1.15181  -1.15156  -1.14733  -1.14676  -1.14669
 Alpha  occ. eigenvalues --   -1.14561  -1.14480  -1.14475  -1.13536  -1.13530
 Alpha  occ. eigenvalues --   -1.13415  -1.13290  -1.13240  -1.13219  -1.13205
 Alpha  occ. eigenvalues --   -1.13163  -1.13154  -1.12285  -1.12247  -1.12242
 Alpha  occ. eigenvalues --   -0.17862  -0.14146  -0.11631  -0.11274
 Alpha virt. eigenvalues --   -0.06753  -0.05179  -0.04197  -0.03982  -0.02974
 Alpha virt. eigenvalues --   -0.02508  -0.02046  -0.00727  -0.00603  -0.00256
 Alpha virt. eigenvalues --    0.00029   0.00073   0.00200   0.00508   0.00563
 Alpha virt. eigenvalues --    0.00692   0.00916   0.01100   0.01173   0.01244
 Alpha virt. eigenvalues --    0.01280   0.01446   0.01538   0.01728   0.01956
 Alpha virt. eigenvalues --    0.02243   0.02347   0.02445   0.02464   0.02561
 Alpha virt. eigenvalues --    0.02618   0.02694   0.02720   0.02801   0.02827
 Alpha virt. eigenvalues --    0.02955   0.03069   0.03207   0.03252   0.03480
 Alpha virt. eigenvalues --    0.03673   0.03905   0.04162   0.04350   0.04411
 Alpha virt. eigenvalues --    0.04985   0.05252   0.05468   0.05616   0.05880
 Alpha virt. eigenvalues --    0.06325   0.06604   0.06959   0.07516   0.07575
 Alpha virt. eigenvalues --    0.07624   0.07787   0.08012   0.08185   0.08444
 Alpha virt. eigenvalues --    0.08776   0.08992   0.09179   0.09413   0.09895
 Alpha virt. eigenvalues --    0.11064   0.11068   0.11883   0.12325   0.12907
 Alpha virt. eigenvalues --    0.13388   0.13687   0.13954   0.14955   0.15354
 Alpha virt. eigenvalues --    0.15577   0.15951   0.16784   0.16979   0.18794
 Alpha virt. eigenvalues --    0.26006   0.27162   0.28004   0.28804   0.29278
 Alpha virt. eigenvalues --    0.29756   0.30632   0.32135   0.32942   0.33891
 Alpha virt. eigenvalues --    0.34358   0.34938   0.35251   0.35712   0.36309
 Alpha virt. eigenvalues --    0.36521   0.37917   0.38174   0.39012   0.39642
 Alpha virt. eigenvalues --    0.40438   0.40735   0.42665   0.42817   0.42961
 Alpha virt. eigenvalues --    0.43695   0.43900   0.44256   0.44731   0.45226
 Alpha virt. eigenvalues --    0.45813   0.46350   0.46642   0.46888   0.47318
 Alpha virt. eigenvalues --    0.48277   0.48575   0.49612   0.50490   0.50847
 Alpha virt. eigenvalues --    0.51483   0.52641   0.52684   0.53008   0.55002
 Alpha virt. eigenvalues --    0.55800   0.56310   0.57784   0.59537   0.63143
 Alpha virt. eigenvalues --    0.68691   0.69780   0.72574   0.75971   0.76739
 Alpha virt. eigenvalues --    0.79451   2.08964   2.10107   2.11035   2.12754
 Alpha virt. eigenvalues --    2.17157   2.24405   2.27581   4.40481   4.41508
 Alpha virt. eigenvalues --    4.42140   4.42711   4.43197   4.44057   4.44490
 Alpha virt. eigenvalues --    4.44724   4.45264   4.46180   4.46589   4.47478
 Alpha virt. eigenvalues --    4.48652   4.49223   4.55183   4.59275   4.62836
 Alpha virt. eigenvalues --    4.67796   4.68505   4.73615   4.74326  96.29942
 Alpha virt. eigenvalues --   96.31260  96.32607  96.34739  96.41169  96.50182
 Alpha virt. eigenvalues --   96.54420
  Beta  occ. eigenvalues --  -38.45665 -38.45173 -38.44927 -38.43811 -38.43620
  Beta  occ. eigenvalues --  -38.43529 -38.42802  -2.21538  -2.20927  -2.20662
  Beta  occ. eigenvalues --   -2.19778  -2.19589  -2.19512  -2.18613  -1.15252
  Beta  occ. eigenvalues --   -1.15181  -1.15160  -1.14654  -1.14592  -1.14581
  Beta  occ. eigenvalues --   -1.14417  -1.14336  -1.14328  -1.13527  -1.13524
  Beta  occ. eigenvalues --   -1.13393  -1.13241  -1.13217  -1.13194  -1.13191
  Beta  occ. eigenvalues --   -1.13159  -1.13145  -1.12291  -1.12252  -1.12249
  Beta  occ. eigenvalues --   -0.17429  -0.13590  -0.11311
  Beta virt. eigenvalues --   -0.07663  -0.06421  -0.04854  -0.03936  -0.03719
  Beta virt. eigenvalues --   -0.02367  -0.02030  -0.01827  -0.00634  -0.00347
  Beta virt. eigenvalues --   -0.00093   0.00138   0.00235   0.00476   0.00600
  Beta virt. eigenvalues --    0.00664   0.00764   0.00963   0.01177   0.01256
  Beta virt. eigenvalues --    0.01322   0.01387   0.01500   0.01577   0.01834
  Beta virt. eigenvalues --    0.02062   0.02312   0.02422   0.02514   0.02581
  Beta virt. eigenvalues --    0.02675   0.02727   0.02742   0.02783   0.02855
  Beta virt. eigenvalues --    0.02890   0.02973   0.03140   0.03240   0.03384
  Beta virt. eigenvalues --    0.03507   0.03791   0.04041   0.04226   0.04423
  Beta virt. eigenvalues --    0.04513   0.05025   0.05306   0.05536   0.05672
  Beta virt. eigenvalues --    0.05957   0.06419   0.06638   0.07117   0.07594
  Beta virt. eigenvalues --    0.07627   0.07655   0.08058   0.08152   0.08451
  Beta virt. eigenvalues --    0.08503   0.08976   0.09235   0.09443   0.09779
  Beta virt. eigenvalues --    0.09927   0.11160   0.11351   0.12130   0.12479
  Beta virt. eigenvalues --    0.13068   0.13404   0.13863   0.14086   0.15077
  Beta virt. eigenvalues --    0.15498   0.15796   0.16067   0.16890   0.17099
  Beta virt. eigenvalues --    0.18969   0.26099   0.27494   0.28275   0.28935
  Beta virt. eigenvalues --    0.29539   0.30124   0.30996   0.32185   0.33246
  Beta virt. eigenvalues --    0.34182   0.34698   0.35513   0.36106   0.36305
  Beta virt. eigenvalues --    0.36583   0.36835   0.38126   0.38291   0.39538
  Beta virt. eigenvalues --    0.39811   0.40565   0.41017   0.42916   0.42979
  Beta virt. eigenvalues --    0.43143   0.43848   0.43988   0.44500   0.44752
  Beta virt. eigenvalues --    0.45320   0.45960   0.46476   0.46749   0.47137
  Beta virt. eigenvalues --    0.47383   0.48370   0.48720   0.49729   0.50701
  Beta virt. eigenvalues --    0.50927   0.51598   0.52621   0.52793   0.53242
  Beta virt. eigenvalues --    0.55065   0.55903   0.56364   0.57943   0.59628
  Beta virt. eigenvalues --    0.63248   0.68715   0.69816   0.72628   0.76147
  Beta virt. eigenvalues --    0.76745   0.79441   2.09232   2.10301   2.11268
  Beta virt. eigenvalues --    2.12749   2.17218   2.24438   2.27608   4.40515
  Beta virt. eigenvalues --    4.41577   4.42155   4.42728   4.43254   4.44131
  Beta virt. eigenvalues --    4.44584   4.44829   4.45397   4.46205   4.46649
  Beta virt. eigenvalues --    4.47503   4.48658   4.49267   4.55202   4.59310
  Beta virt. eigenvalues --    4.62837   4.67832   4.68581   4.73624   4.74333
  Beta virt. eigenvalues --   96.30033  96.31298  96.32707  96.34738  96.41192
  Beta virt. eigenvalues --   96.50193  96.54435
          Condensed to atoms (all electrons):
               1          2          3          4          5          6
     1  Na  12.371659   0.004320  -0.377240   1.011325  -1.848471  -0.263530
     2  Na   0.004320  11.193900   0.269378  -0.405428  -0.112390   0.505231
     3  Na  -0.377240   0.269378  11.370619  -0.564876   0.543280   0.014821
     4  Na   1.011325  -0.405428  -0.564876  12.458849  -1.784813  -0.266387
     5  Na  -1.848471  -0.112390   0.543280  -1.784813  14.755765  -1.524294
     6  Na  -0.263530   0.505231   0.014821  -0.266387  -1.524294  13.223906
     7  Na   0.493061  -0.072934  -0.219357   0.180294  -0.333290  -0.059954
               7
     1  Na   0.493061
     2  Na  -0.072934
     3  Na  -0.219357
     4  Na   0.180294
     5  Na  -0.333290
     6  Na  -0.059954
     7  Na  11.247811
          Atomic-Atomic Spin Densities.
               1          2          3          4          5          6
     1  Na   0.784606  -0.127235   0.089834   0.357942  -0.554183  -0.617674
     2  Na  -0.127235   0.495117   0.113728  -0.457855   0.382789   0.064953
     3  Na   0.089834   0.113728   0.557716  -0.013544  -0.142241   0.070423
     4  Na   0.357942  -0.457855  -0.013544   0.458664  -0.109692  -0.647841
     5  Na  -0.554183   0.382789  -0.142241  -0.109692   0.210950   0.746848
     6  Na  -0.617674   0.064953   0.070423  -0.647841   0.746848   0.328387
     7  Na   0.076076  -0.016984   0.027940  -0.067087  -0.015666  -0.026688
               7
     1  Na   0.076076
     2  Na  -0.016984
     3  Na   0.027940
     4  Na  -0.067087
     5  Na  -0.015666
     6  Na  -0.026688
     7  Na  -0.103125
 Mulliken charges and spin densities:
               1          2
     1  Na  -0.391124   0.009365
     2  Na  -0.382075   0.454514
     3  Na  -0.036624   0.703856
     4  Na   0.371036  -0.479413
     5  Na   1.304213   0.518805
     6  Na  -0.629793  -0.081592
     7  Na  -0.235631  -0.125534
 Sum of Mulliken charges =  -0.00000   1.00000
 Mulliken charges and spin densities with hydrogens summed into heavy atoms:
               1          2
     1  Na  -0.391124   0.009365
     2  Na  -0.382075   0.454514
     3  Na  -0.036624   0.703856
     4  Na   0.371036  -0.479413
     5  Na   1.304213   0.518805
     6  Na  -0.629793  -0.081592
     7  Na  -0.235631  -0.125534
 Electronic spatial extent (au):  <R**2>=           2818.7911
 Charge=             -0.0000 electrons
 Dipole moment (field-independent basis, Debye):
    X=              0.1461    Y=             -0.5038    Z=              0.7007  Tot=              0.8753
 Quadrupole moment (field-independent basis, Debye-Ang):
   XX=            -63.5906   YY=            -71.2410   ZZ=            -64.5961
   XY=              8.4192   XZ=             -7.5540   YZ=              0.5146
 Traceless Quadrupole moment (field-independent basis, Debye-Ang):
   XX=              2.8853   YY=             -4.7651   ZZ=              1.8798
   XY=              8.4192   XZ=             -7.5540   YZ=              0.5146
 Octapole moment (field-independent basis, Debye-Ang**2):
  XXX=              0.8093  YYY=              5.7520  ZZZ=              6.2811  XYY=              1.4096
  XXY=             -8.6577  XXZ=              6.3523  XZZ=              2.7708  YZZ=             -0.3736
  YYZ=              5.3132  XYZ=              0.6332
 Hexadecapole moment (field-independent basis, Debye-Ang**3):
 XXXX=          -2264.7743 YYYY=          -1465.2852 ZZZZ=          -1063.5807 XXXY=            183.0499
 XXXZ=           -170.8889 YYYX=             -7.8835 YYYZ=             23.0349 ZZZX=            -24.3645
 ZZZY=             20.9156 XXYY=           -609.9621 XXZZ=           -517.8438 YYZZ=           -435.9190
 XXYZ=            -53.0537 YYXZ=            -38.4689 ZZXY=             73.6269
 N-N= 3.180697831260D+02 E-N=-3.365253611564D+03  KE= 1.133031600754D+03
                          Isotropic Fermi Contact Couplings
        Atom                 a.u.       MegaHertz       Gauss      10(-4) cm-1
     1  Na(23)            -0.01511     -17.87276      -6.37745      -5.96171
     2  Na(23)             0.28408     336.07199     119.91884     112.10155
     3  Na(23)             0.49080     580.63470     207.18490     193.67889
     4  Na(23)            -0.06022     -71.24462     -25.42185     -23.76465
     5  Na(23)             0.02412      28.53575      10.18227       9.51850
     6  Na(23)             0.03009      35.59200      12.70011      11.87221
     7  Na(23)            -0.02453     -29.01651     -10.35381      -9.67887
 --------------------------------------------------------
       Center         ----  Spin Dipole Couplings  ----
                      3XX-RR        3YY-RR        3ZZ-RR
 --------------------------------------------------------
     1   Atom        0.002284     -0.002693      0.000409
     2   Atom        0.000499      0.005031     -0.005530
     3   Atom       -0.000501      0.008325     -0.007824
     4   Atom       -0.040114     -0.044778      0.084892
     5   Atom       -0.011408     -0.001642      0.013050
     6   Atom        0.002259     -0.006702      0.004443
     7   Atom       -0.001214     -0.000613      0.001827
 --------------------------------------------------------
                        XY            XZ            YZ
 --------------------------------------------------------
     1   Atom        0.000470      0.002794     -0.001313
     2   Atom        0.002209      0.004602      0.006376
     3   Atom        0.002276      0.001973     -0.001866
     4   Atom        0.000190     -0.024421      0.010843
     5   Atom        0.000447     -0.005379     -0.006454
     6   Atom       -0.004292     -0.002376     -0.000138
     7   Atom       -0.000714      0.000537      0.000871
 --------------------------------------------------------


 ---------------------------------------------------------------------------------
              Anisotropic Spin Dipole Couplings in Principal Axis System
 ---------------------------------------------------------------------------------

       Atom             a.u.   MegaHertz   Gauss  10(-4) cm-1        Axes

              Baa    -0.0036    -0.509    -0.182    -0.170 -0.2912  0.8309  0.4742
     1 Na(23) Bbb    -0.0007    -0.100    -0.036    -0.033 -0.5202 -0.5535  0.6504
              Bcc     0.0043     0.609     0.217     0.203  0.8029 -0.0572  0.5934
 
              Baa    -0.0097    -1.363    -0.486    -0.455 -0.3279 -0.3344  0.8836
     2 Na(23) Bbb    -0.0002    -0.024    -0.008    -0.008  0.8507 -0.5113  0.1222
              Bcc     0.0098     1.387     0.495     0.463  0.4109  0.7917  0.4521
 
              Baa    -0.0087    -1.223    -0.436    -0.408 -0.2697  0.1408  0.9526
     3 Na(23) Bbb    -0.0003    -0.047    -0.017    -0.016  0.9384 -0.1836  0.2928
              Bcc     0.0090     1.269     0.453     0.423  0.2161  0.9729 -0.0826
 
              Baa    -0.0474    -6.693    -2.388    -2.233 -0.6101  0.7725 -0.1760
     4 Na(23) Bbb    -0.0429    -6.062    -2.163    -2.022  0.7708  0.6301  0.0938
              Bcc     0.0903    12.756     4.552     4.255 -0.1833  0.0784  0.9799
 
              Baa    -0.0126    -1.782    -0.636    -0.595  0.9694  0.0938  0.2267
     5 Na(23) Bbb    -0.0038    -0.541    -0.193    -0.180 -0.1625  0.9378  0.3068
              Bcc     0.0165     2.323     0.829     0.775 -0.1838 -0.3342  0.9244
 
              Baa    -0.0085    -1.201    -0.429    -0.401  0.3844  0.9197  0.0803
     6 Na(23) Bbb     0.0021     0.295     0.105     0.098  0.6719 -0.3384  0.6588
              Bcc     0.0064     0.906     0.323     0.302 -0.6331  0.1992  0.7480
 
              Baa    -0.0019    -0.272    -0.097    -0.091  0.7731  0.5845 -0.2463
     7 Na(23) Bbb    -0.0002    -0.030    -0.011    -0.010 -0.6273  0.7620 -0.1607
              Bcc     0.0021     0.301     0.108     0.101  0.0938  0.2787  0.9558
 

 ---------------------------------------------------------------------------------

 No NMR shielding tensors so no spin-rotation constants.
 Leave Link  601 at Mon Nov 13 15:03:14 2023, MaxMem=  1879048192 cpu:               2.6 elap:               0.2
 (Enter /home/sekinelabo/g16/l701.exe)
 ... and contract with generalized density number  0.
 Compute integral first derivatives.
 Leave Link  701 at Mon Nov 13 15:03:14 2023, MaxMem=  1879048192 cpu:               1.7 elap:               0.1
 (Enter /home/sekinelabo/g16/l702.exe)
 L702 exits ... SP integral derivatives will be done elsewhere.
 Leave Link  702 at Mon Nov 13 15:03:14 2023, MaxMem=  1879048192 cpu:               0.5 elap:               0.0
 (Enter /home/sekinelabo/g16/l703.exe)
 Integral derivatives from FoFJK, PRISM(SPDF).
 Compute integral first derivatives, UseDBF=F ICtDFT=           0.
 Calling FoFJK, ICntrl=      2127 FMM=F ISym2X=0 I1Cent= 0 IOpClX= 1 NMat=1 NMatS=1 NMatT=0.
 FoFJK:  IHMeth= 1 ICntrl=    2127 DoSepK=F KAlg= 0 I1Cent=           0 FoldK=F
 IRaf=         0 NMat=       1 IRICut=       1 DoRegI=T DoRafI=F ISym2E= 0 IDoP0=0 IntGTp=1.
 FoFCou: FMM=F IPFlag=           0 FMFlag=      100000 FMFlg1=         800
         NFxFlg=           0 DoJE=F BraDBF=F KetDBF=F FulRan=T
         wScrn=  0.000000 ICntrl=      2127 IOpCl=  1 I1Cent=           0 NGrid=           0
         NMat0=    1 NMatS0=      1 NMatT0=    0 NMatD0=    1 NMtDS0=    0 NMtDT0=    0
 Symmetry not used in FoFCou.
 Leave Link  703 at Mon Nov 13 15:03:16 2023, MaxMem=  1879048192 cpu:              33.7 elap:               2.2
 (Enter /home/sekinelabo/g16/l716.exe)
 Dipole        = 5.74827026D-02-1.98196746D-01 2.75688123D-01
 ***** Axes restored to original set *****
 -------------------------------------------------------------------
 Center     Atomic                   Forces (Hartrees/Bohr)
 Number     Number              X              Y              Z
 -------------------------------------------------------------------
      1       11          -0.003352936    0.001183561   -0.005832062
      2       11          -0.000433210   -0.002344128    0.001977004
      3       11          -0.001317705   -0.003550373   -0.002489885
      4       11           0.002880520    0.003321513   -0.001618883
      5       11           0.002678166    0.011907318    0.004117088
      6       11          -0.000338108   -0.007451805    0.005939055
      7       11          -0.000116726   -0.003066087   -0.002092317
 -------------------------------------------------------------------
 Cartesian Forces:  Max     0.011907318 RMS     0.004193841
 Z-matrix is all fixed cartesians, so copy forces.
 Force constants in Cartesian coordinates: 
                1             2             3             4             5 
      1  0.369162D-01
      2  0.185600D-02  0.330842D-01
      3  0.272184D-01 -0.910429D-02  0.442909D-01
      4  0.804049D-05  0.362908D-04 -0.258567D-04  0.111037D-01
      5  0.112018D-04  0.505592D-04 -0.360227D-04 -0.109032D-01  0.179144D-01
      6  0.460230D-05  0.207725D-04 -0.148001D-04  0.723742D-02 -0.979272D-02
      7 -0.269901D-05 -0.121820D-04  0.867950D-05  0.129053D-03 -0.243653D-02
      8 -0.122371D-04 -0.552323D-04  0.393523D-04 -0.849189D-04  0.448428D-02
      9  0.874646D-05  0.394772D-04 -0.281269D-04  0.440298D-04 -0.281882D-02
     10 -0.252733D-02  0.231879D-02  0.251023D-02 -0.105125D-01  0.130313D-01
     11 -0.183083D-02  0.178520D-02  0.177529D-02  0.835602D-02 -0.216213D-01
     12 -0.349855D-02  0.308187D-02  0.352728D-02 -0.245569D-02  0.109696D-01
     13 -0.268020D-01 -0.148161D-01 -0.141926D-01 -0.712035D-03  0.319783D-03
     14  0.230129D-02 -0.109153D-01 -0.127446D-02  0.259343D-02 -0.831228D-03
     15 -0.177334D-01 -0.149459D-01 -0.217399D-01 -0.476039D-02  0.173305D-02
     16 -0.826192D-02  0.859321D-02 -0.169947D-01 -0.161972D-04 -0.225655D-04
     17 -0.178497D-02 -0.214885D-01  0.105058D-01  0.234772D-05  0.327077D-05
     18 -0.709415D-02  0.156045D-01 -0.301708D-01 -0.395167D-04 -0.550535D-04
     19  0.669720D-03  0.202396D-02  0.147583D-02  0.000000D+00  0.000000D+00
     20 -0.540458D-03 -0.246094D-02 -0.190570D-02  0.000000D+00  0.000000D+00
     21  0.109435D-02  0.530350D-02  0.413550D-02  0.000000D+00  0.000000D+00
                6             7             8             9            10 
      6  0.239955D-01
      7 -0.220683D-02  0.924446D-02
      8  0.396355D-02 -0.204258D-02  0.168773D-01
      9 -0.248548D-02  0.454824D-02  0.141681D-01  0.267935D-01
     10 -0.576185D-02 -0.135366D-01  0.292064D-02 -0.466997D-02  0.586302D-01
     11  0.819679D-02  0.131191D-02 -0.208660D-01 -0.113340D-01 -0.175746D-01
     12 -0.260398D-01 -0.792045D-02 -0.169378D-01 -0.245024D-01  0.695731D-02
     13  0.735931D-03  0.416032D-02 -0.805562D-03  0.865703D-04 -0.294897D-01
     14 -0.238974D-02  0.318016D-02 -0.436794D-03 -0.572998D-04 -0.237750D-02
     15  0.456719D-02  0.555709D-02 -0.129331D-02  0.265538D-03 -0.276803D-03
     16 -0.927113D-05  0.543704D-05  0.246512D-04 -0.176194D-04 -0.253079D-02
     17  0.134381D-05  0.000000D+00 -0.357308D-05  0.255385D-05  0.166675D-02
     18 -0.226190D-04  0.132649D-04  0.601421D-04 -0.429864D-04  0.126607D-02
     19  0.000000D+00  0.000000D+00  0.000000D+00  0.000000D+00 -0.333424D-04
     20  0.000000D+00  0.000000D+00  0.000000D+00  0.000000D+00  0.146790D-04
     21  0.000000D+00  0.000000D+00  0.000000D+00  0.000000D+00 -0.249884D-04
               11            12            13            14            15 
     11  0.590309D-01
     12  0.100563D-01  0.748260D-01
     13  0.152678D-01  0.600797D-02  0.695334D-01
     14 -0.219245D-01 -0.661113D-02  0.778423D-02  0.729913D-01
     15 -0.111943D-01 -0.275856D-01  0.779239D-02  0.165638D-01  0.551755D-01
     16 -0.553512D-02  0.990757D-03 -0.193002D-01 -0.112637D-01  0.135822D-01
     17  0.359770D-02 -0.594636D-03 -0.843114D-02 -0.382269D-01  0.106686D-01
     18  0.249621D-02 -0.164432D-03  0.202777D-02 -0.850797D-02 -0.156780D-01
     19  0.483283D-05 -0.813461D-04  0.261018D-02 -0.221788D-02 -0.416108D-02
     20 -0.212766D-05  0.358128D-04  0.680950D-03 -0.656607D-03 -0.153201D-02
     21  0.362196D-05 -0.609648D-04 -0.245805D-02  0.227675D-02  0.499542D-02
               16            17            18            19            20 
     16  0.384768D-01
     17  0.124285D-01  0.858877D-01
     18  0.123915D-02 -0.407320D-02  0.706790D-01
     19 -0.837317D-02 -0.388072D-02  0.258742D-02  0.512661D-02
     20 -0.422498D-02 -0.297697D-01 -0.552467D-02  0.406981D-02  0.328894D-01
     21  0.120951D-02 -0.165104D-01 -0.246001D-01  0.179176D-03  0.892657D-02
               21 
     21  0.155302D-01
 Leave Link  716 at Mon Nov 13 15:03:16 2023, MaxMem=  1879048192 cpu:               0.5 elap:               0.0
 (Enter /home/sekinelabo/g16/l103.exe)

 GradGradGradGradGradGradGradGradGradGradGradGradGradGradGradGradGradGrad
 Berny optimization.
 Search for a local minimum.
 Step number   1 out of a maximum of    2
 All quantities printed in internal units (Hartrees-Bohrs-Radians)
 Second derivative matrix not updated -- first step.
 ITU=  0
     Eigenvalues ---    0.00028   0.00245   0.00748   0.01106   0.02219
     Eigenvalues ---    0.02330   0.02833   0.04881   0.05487   0.06956
     Eigenvalues ---    0.09218   0.10857   0.12490   0.12580   0.13913
 Quadratic step=9.620D-01 exceeds max=3.000D-01 adjusted using Lamda=-8.918D-03.
 Angle between NR and scaled steps=  45.85 degrees.
 Angle between quadratic step and forces=  37.01 degrees.
 Linear search not attempted -- first point.
 B after Tr=     0.000000   -0.000000    0.000000
         Rot=    1.000000    0.000000    0.000000    0.000000 Ang=   0.00 deg.
 Variable       Old X    -DE/DX   Delta X   Delta X   Delta X     New X
                                 (Linear)    (Quad)   (Total)
    X1        0.00000  -0.00335   0.00000  -0.02472  -0.02472  -0.02472
    Y1        8.74010   0.00118   0.00000   0.02633   0.02633   8.76643
    Z1        3.45767  -0.00583   0.00000  -0.02272  -0.02272   3.43495
    X2       11.57471  -0.00043   0.00000  -0.07679  -0.07679  11.49792
    Y2        4.21841  -0.00234   0.00000  -0.04447  -0.04447   4.17394
    Z2        8.49328   0.00198   0.00000   0.04302   0.04302   8.53631
    X3        8.58152  -0.00132   0.00000  -0.08968  -0.08968   8.49184
    Y3        4.36423  -0.00355   0.00000  -0.08924  -0.08924   4.27499
    Z3        0.00000  -0.00249   0.00000  -0.00391  -0.00391  -0.00391
    X4        9.10565   0.00288   0.00000   0.07195   0.07195   9.17761
    Y4        7.57061   0.00332   0.00000   0.09085   0.09085   7.66145
    Z4        4.64778  -0.00162   0.00000  -0.02735  -0.02735   4.62042
    X5        4.44614   0.00268   0.00000   0.02295   0.02295   4.46909
    Y5       10.06948   0.01191   0.00000   0.15921   0.15921  10.22869
    Z5        6.70609   0.00412   0.00000   0.03186   0.03186   6.73795
    X6        1.66486  -0.00034   0.00000   0.04464   0.04464   1.70950
    Y6        5.20020  -0.00745   0.00000  -0.05402  -0.05402   5.14618
    Z6        7.55680   0.00594   0.00000   0.04551   0.04551   7.60232
    X7        0.99123  -0.00012   0.00000   0.05163   0.05163   1.04286
    Y7        0.00000  -0.00307   0.00000  -0.08865  -0.08865  -0.08865
    Z7        5.40087  -0.00209   0.00000  -0.06641  -0.06641   5.33446
         Item               Value     Threshold  Converged?
 Maximum Force            0.011907     0.000450     NO 
 RMS     Force            0.004194     0.000300     NO 
 Maximum Displacement     0.159206     0.001800     NO 
 RMS     Displacement     0.065665     0.001200     NO 
 Predicted change in Energy=-2.712764D-03
 GradGradGradGradGradGradGradGradGradGradGradGradGradGradGradGradGradGrad

 Leave Link  103 at Mon Nov 13 15:03:16 2023, MaxMem=  1879048192 cpu:               0.3 elap:               0.0
 (Enter /home/sekinelabo/g16/l9999.exe)
 1\1\GINC-SEKINELABO-XA7R-R37\Force\UB3LYP\6-311+G(d)\Na7(2)\SEKINELABO
 \13-Nov-2023\0\\#P B3LYP/6-311+g(d) force\\Gaussian input prepared by 
 ASE\\0,2\Na,0.,4.6250632007,1.8297219078\Na,6.1250707893,2.2322867395,
 4.4944517828\Na,4.5411426904,2.309449408,0.\Na,4.8185042951,4.00619295
 91,2.4594970791\Na,2.3527940311,5.3285401024,3.5487114674\Na,0.8810067
 623,2.7518263984,3.9988875845\Na,0.524535193,0.,2.8580171707\\Version=
 ES64L-G16RevB.01\State=2-A\HF=-1136.0971488\S2=0.766542\S2-1=0.\S2A=0.
 750079\RMSD=6.537e-09\RMSF=4.194e-03\Dipole=0.0574827,0.1981967,-0.275
 6881\Quadrupole=2.1451345,-3.5427046,1.3975702,-6.2595022,5.6161926,0.
 3826108\PG=C01 [X(Na7)]\\@


 HOW IS IT THAT THE SKY FEEDS THE STARS?

                           -- LUCRETIUS
 Job cpu time:       0 days  0 hours  4 minutes 11.6 seconds.
 Elapsed time:       0 days  0 hours  0 minutes 20.4 seconds.
 File lengths (MBytes):  RWF=     32 Int=      0 D2E=      0 Chk=      5 Scr=      1
 Normal termination of Gaussian 16 at Mon Nov 13 15:03:16 2023.
