 Entering Gaussian System, Link 0=g16
 Initial command:
 /home/sekinelabo/g16/l1.exe "/home/sekinelabo/g16temp/Gau-4162997.inp" -scrdir="/home/sekinelabo/g16temp/"
 Entering Link 1 = /home/sekinelabo/g16/l1.exe PID=   4162999.
  
 Copyright (c) 1988-2017, Gaussian, Inc.  All Rights Reserved.
  
 This is part of the Gaussian(R) 16 program.  It is based on
 the Gaussian(R) 09 system (copyright 2009, Gaussian, Inc.),
 the Gaussian(R) 03 system (copyright 2003, Gaussian, Inc.),
 the Gaussian(R) 98 system (copyright 1998, Gaussian, Inc.),
 the Gaussian(R) 94 system (copyright 1995, Gaussian, Inc.),
 the Gaussian 92(TM) system (copyright 1992, Gaussian, Inc.),
 the Gaussian 90(TM) system (copyright 1990, Gaussian, Inc.),
 the Gaussian 88(TM) system (copyright 1988, Gaussian, Inc.),
 the Gaussian 86(TM) system (copyright 1986, Carnegie Mellon
 University), and the Gaussian 82(TM) system (copyright 1983,
 Carnegie Mellon University). Gaussian is a federally registered
 trademark of Gaussian, Inc.
  
 This software contains proprietary and confidential information,
 including trade secrets, belonging to Gaussian, Inc.
  
 This software is provided under written license and may be
 used, copied, transmitted, or stored only in accord with that
 written license.
  
 The following legend is applicable only to US Government
 contracts under FAR:
  
                    RESTRICTED RIGHTS LEGEND
  
 Use, reproduction and disclosure by the US Government is
 subject to restrictions as set forth in subparagraphs (a)
 and (c) of the Commercial Computer Software - Restricted
 Rights clause in FAR 52.227-19.
  
 Gaussian, Inc.
 340 Quinnipiac St., Bldg. 40, Wallingford CT 06492
  
  
 ---------------------------------------------------------------
 Warning -- This program may not be used in any manner that
 competes with the business of Gaussian, Inc. or will provide
 assistance to any competitor of Gaussian, Inc.  The licensee
 of this program is prohibited from giving any competitor of
 Gaussian, Inc. access to this program.  By using this program,
 the user acknowledges that Gaussian, Inc. is engaged in the
 business of creating and licensing software in the field of
 computational chemistry and represents and warrants to the
 licensee that it is not a competitor of Gaussian, Inc. and that
 it will not use this program in any manner prohibited above.
 ---------------------------------------------------------------
  

 Cite this work as:
 Gaussian 16, Revision B.01,
 M. J. Frisch, G. W. Trucks, H. B. Schlegel, G. E. Scuseria, 
 M. A. Robb, J. R. Cheeseman, G. Scalmani, V. Barone, 
 G. A. Petersson, H. Nakatsuji, X. Li, M. Caricato, A. V. Marenich, 
 J. Bloino, B. G. Janesko, R. Gomperts, B. Mennucci, H. P. Hratchian, 
 J. V. Ortiz, A. F. Izmaylov, J. L. Sonnenberg, D. Williams-Young, 
 F. Ding, F. Lipparini, F. Egidi, J. Goings, B. Peng, A. Petrone, 
 T. Henderson, D. Ranasinghe, V. G. Zakrzewski, J. Gao, N. Rega, 
 G. Zheng, W. Liang, M. Hada, M. Ehara, K. Toyota, R. Fukuda, 
 J. Hasegawa, M. Ishida, T. Nakajima, Y. Honda, O. Kitao, H. Nakai, 
 T. Vreven, K. Throssell, J. A. Montgomery, Jr., J. E. Peralta, 
 F. Ogliaro, M. J. Bearpark, J. J. Heyd, E. N. Brothers, K. N. Kudin, 
 V. N. Staroverov, T. A. Keith, R. Kobayashi, J. Normand, 
 K. Raghavachari, A. P. Rendell, J. C. Burant, S. S. Iyengar, 
 J. Tomasi, M. Cossi, J. M. Millam, M. Klene, C. Adamo, R. Cammi, 
 J. W. Ochterski, R. L. Martin, K. Morokuma, O. Farkas, 
 J. B. Foresman, and D. J. Fox, Gaussian, Inc., Wallingford CT, 2016.
 
 ******************************************
 Gaussian 16:  ES64L-G16RevB.01 20-Dec-2017
                13-Nov-2023 
 ******************************************
 %mem=14GB
 %chk=checkpoint.chk
 %nprocshared=16
 Will use up to   16 processors via shared memory.
 -------------------------
 #P B3LYP/6-311+g(d) force
 -------------------------
 1/10=7,30=1,38=1/1,3;
 2/12=2,17=6,18=5,40=1/2;
 3/5=4,6=6,7=11,11=2,25=1,30=1,71=1,74=-5/1,2,3;
 4//1;
 5/5=2,38=5/2;
 6/7=2,8=2,9=2,10=2,28=1/1;
 7/29=1/1,2,3,16;
 1/10=7,30=1/3;
 99//99;
 Leave Link    1 at Mon Nov 13 19:51:15 2023, MaxMem=  1879048192 cpu:               0.3 elap:               0.0
 (Enter /home/sekinelabo/g16/l101.exe)
 ------------------------------
 Gaussian input prepared by ASE
 ------------------------------
 Symbolic Z-matrix:
 Charge =  0 Multiplicity = 2
 Na                    1.97763   2.0288    0. 
 Na                    1.47936   4.34748   1.51631 
 Na                    7.07486   2.2614    1.81429 
 Na                    4.17961   2.73008   1.6193 
 Na                    2.13786   2.54274   3.5792 
 Na                    2.67578   0.        1.85315 
 Na                    0.        1.60933   1.97121 
 
 ITRead=  0  0  0  0  0  0  0
 MicOpt= -1 -1 -1 -1 -1 -1 -1
 NAtoms=      7 NQM=        7 NQMF=       0 NMMI=      0 NMMIF=      0
                NMic=       0 NMicF=      0.
                    Isotopes and Nuclear Properties:
 (Nuclear quadrupole moments (NQMom) in fm**2, nuclear magnetic moments (NMagM)
  in nuclear magnetons)

  Atom         1           2           3           4           5           6           7
 IAtWgt=          23          23          23          23          23          23          23
 AtmWgt=  22.9897697  22.9897697  22.9897697  22.9897697  22.9897697  22.9897697  22.9897697
 NucSpn=           3           3           3           3           3           3           3
 AtZEff=  -0.0000000  -0.0000000  -0.0000000  -0.0000000  -0.0000000  -0.0000000  -0.0000000
 NQMom=   10.4000000  10.4000000  10.4000000  10.4000000  10.4000000  10.4000000  10.4000000
 NMagM=    2.2175200   2.2175200   2.2175200   2.2175200   2.2175200   2.2175200   2.2175200
 AtZNuc=  11.0000000  11.0000000  11.0000000  11.0000000  11.0000000  11.0000000  11.0000000
 Leave Link  101 at Mon Nov 13 19:51:15 2023, MaxMem=  1879048192 cpu:               2.7 elap:               0.2
 (Enter /home/sekinelabo/g16/l103.exe)

 GradGradGradGradGradGradGradGradGradGradGradGradGradGradGradGradGradGrad
 Berny optimization.
 Initialization pass.
 Trust Radius=3.00D-01 FncErr=1.00D-07 GrdErr=1.00D-07 EigMax=2.50D+02 EigMin=1.00D-04
 Number of steps in this run=      2 maximum allowed number of steps=      2.
 GradGradGradGradGradGradGradGradGradGradGradGradGradGradGradGradGradGrad

 Leave Link  103 at Mon Nov 13 19:51:15 2023, MaxMem=  1879048192 cpu:               0.2 elap:               0.0
 (Enter /home/sekinelabo/g16/l202.exe)
                          Input orientation:                          
 ---------------------------------------------------------------------
 Center     Atomic      Atomic             Coordinates (Angstroms)
 Number     Number       Type             X           Y           Z
 ---------------------------------------------------------------------
      1         11           0        1.977628    2.028804    0.000000
      2         11           0        1.479361    4.347485    1.516310
      3         11           0        7.074864    2.261397    1.814285
      4         11           0        4.179609    2.730082    1.619300
      5         11           0        2.137861    2.542738    3.579201
      6         11           0        2.675779    0.000000    1.853145
      7         11           0        0.000000    1.609333    1.971205
 ---------------------------------------------------------------------
                    Distance matrix (angstroms):
                    1          2          3          4          5
     1  Na   0.000000
     2  Na   2.814915   0.000000
     3  Na   5.415491   5.979148   0.000000
     4  Na   2.821815   3.149276   2.939420   0.000000
     5  Na   3.619459   2.818910   5.250531   2.836379   0.000000
     6  Na   2.835068   4.521670   4.946451   3.125626   3.119959
     7  Na   2.823583   3.145301   7.106582   4.341549   2.833257
                    6          7
     6  Na   0.000000
     7  Na   3.124689   0.000000
 Stoichiometry    Na7(2)
 Framework group  C1[X(Na7)]
 Deg. of freedom    15
 Full point group                 C1      NOp   1
 Largest Abelian subgroup         C1      NOp   1
 Largest concise Abelian subgroup C1      NOp   1
                         Standard orientation:                         
 ---------------------------------------------------------------------
 Center     Atomic      Atomic             Coordinates (Angstroms)
 Number     Number       Type             X           Y           Z
 ---------------------------------------------------------------------
      1         11           0        0.811672    0.188316   -1.764778
      2         11           0        1.309939   -2.130365   -0.248468
      3         11           0       -4.285564   -0.044277    0.049507
      4         11           0       -1.390308   -0.512962   -0.145478
      5         11           0        0.651439   -0.325618    1.814423
      6         11           0        0.113521    2.217120    0.088367
      7         11           0        2.789300    0.607787    0.206427
 ---------------------------------------------------------------------
 Rotational constants (GHZ):           1.3106514           0.5872478           0.5345840
 Leave Link  202 at Mon Nov 13 19:51:15 2023, MaxMem=  1879048192 cpu:               0.0 elap:               0.0
 (Enter /home/sekinelabo/g16/l301.exe)
 Standard basis: 6-311+G(d) (5D, 7F)
 Ernie: Thresh=  0.10000D-02 Tol=  0.10000D-05 Strict=F.
 There are   217 symmetry adapted cartesian basis functions of A   symmetry.
 There are   210 symmetry adapted basis functions of A   symmetry.
   210 basis functions,   350 primitive gaussians,   217 cartesian basis functions
    39 alpha electrons       38 beta electrons
       nuclear repulsion energy       385.8441071058 Hartrees.
 IExCor=  402 DFT=T Ex+Corr=B3LYP ExCW=0 ScaHFX=  0.200000
 ScaDFX=  0.800000  0.720000  1.000000  0.810000 ScalE2=  1.000000  1.000000
 IRadAn=      5 IRanWt=     -1 IRanGd=            0 ICorTp=0 IEmpDi=  4
 NAtoms=    7 NActive=    7 NUniq=    7 SFac= 1.00D+00 NAtFMM=   60 NAOKFM=F Big=F
 Integral buffers will be    131072 words long.
 Raffenetti 2 integral format.
 Two-electron integral symmetry is turned on.
 Leave Link  301 at Mon Nov 13 19:51:15 2023, MaxMem=  1879048192 cpu:               0.6 elap:               0.0
 (Enter /home/sekinelabo/g16/l302.exe)
 NPDir=0 NMtPBC=     1 NCelOv=     1 NCel=       1 NClECP=     1 NCelD=      1
         NCelK=      1 NCelE2=     1 NClLst=     1 CellRange=     0.0.
 One-electron integrals computed using PRISM.
 One-electron integral symmetry used in STVInt
 NBasis=   210 RedAO= T EigKep=  1.68D-06  NBF=   210
 NBsUse=   209 1.00D-06 EigRej=  6.92D-07 NBFU=   209
 Precomputing XC quadrature grid using
 IXCGrd= 4 IRadAn=           5 IRanWt=          -1 IRanGd=           0 AccXCQ= 0.00D+00.
 Generated NRdTot=       0 NPtTot=           0 NUsed=           0 NTot=          32
 NSgBfM=   210   210   210   210   210 MxSgAt=     7 MxSgA2=     7.
 Leave Link  302 at Mon Nov 13 19:51:15 2023, MaxMem=  1879048192 cpu:               2.2 elap:               0.1
 (Enter /home/sekinelabo/g16/l303.exe)
 DipDrv:  MaxL=1.
 Leave Link  303 at Mon Nov 13 19:51:15 2023, MaxMem=  1879048192 cpu:               0.6 elap:               0.0
 (Enter /home/sekinelabo/g16/l401.exe)
 ExpMin= 7.60D-03 ExpMax= 3.62D+04 ExpMxC= 1.21D+03 IAcc=3 IRadAn=         5 AccDes= 0.00D+00
 Harris functional with IExCor=  402 and IRadAn=       5 diagonalized for initial guess.
 HarFok:  IExCor=  402 AccDes= 0.00D+00 IRadAn=         5 IDoV= 1 UseB2=F ITyADJ=14
 ICtDFT=  3500011 ScaDFX=  1.000000  1.000000  1.000000  1.000000
 FoFCou: FMM=F IPFlag=           0 FMFlag=      100000 FMFlg1=           0
         NFxFlg=           0 DoJE=T BraDBF=F KetDBF=T FulRan=T
         wScrn=  0.000000 ICntrl=       500 IOpCl=  0 I1Cent=   200000004 NGrid=           0
         NMat0=    1 NMatS0=      1 NMatT0=    0 NMatD0=    1 NMtDS0=    0 NMtDT0=    0
 Petite list used in FoFCou.
 Harris En= -1135.85219932760    
 JPrj=0 DoOrth=F DoCkMO=F.
 Initial guess <Sx>= 0.0000 <Sy>= 0.0000 <Sz>= 0.5000 <S**2>= 0.7500 S= 0.5000
 Leave Link  401 at Mon Nov 13 19:51:16 2023, MaxMem=  1879048192 cpu:               4.7 elap:               0.3
 (Enter /home/sekinelabo/g16/l502.exe)
 Keep R1 and R2 ints in memory in canonical form, NReq=507620374.
 FoFCou: FMM=F IPFlag=           0 FMFlag=           0 FMFlg1=           0
         NFxFlg=           0 DoJE=F BraDBF=F KetDBF=F FulRan=T
         wScrn=  0.000000 ICntrl=       600 IOpCl=  0 I1Cent=           0 NGrid=           0
         NMat0=    1 NMatS0=  22155 NMatT0=    0 NMatD0=    1 NMtDS0=    0 NMtDT0=    0
 Symmetry not used in FoFCou.
 Two-electron integral symmetry not used.
 UHF open shell SCF:
 Using DIIS extrapolation, IDIIS=  1040.
 NGot=  1879048192 LenX=  1388082362 LenY=  1388034832
 Requested convergence on RMS density matrix=1.00D-08 within 128 cycles.
 Requested convergence on MAX density matrix=1.00D-06.
 Requested convergence on             energy=1.00D-06.
 No special actions if energy rises.

 Cycle   1  Pass 1  IDiag  1:
 E= -1136.02199329355    
 DIIS: error= 1.63D-02 at cycle   1 NSaved=   1.
 NSaved= 1 IEnMin= 1 EnMin= -1136.02199329355     IErMin= 1 ErrMin= 1.63D-02
 ErrMax= 1.63D-02  0.00D+00 EMaxC= 1.00D-01 BMatC= 2.15D-01 BMatP= 2.15D-01
 IDIUse=3 WtCom= 8.37D-01 WtEn= 1.63D-01
 Coeff-Com:  0.100D+01
 Coeff-En:   0.100D+01
 Coeff:      0.100D+01
 Gap=     0.014 Goal=   None    Shift=    0.000
 Gap=     0.035 Goal=   None    Shift=    0.000
 GapD=    0.014 DampG=0.250 DampE=0.500 DampFc=0.2500 IDamp=-1.
 Damping current iteration by 2.50D-01
 RMSDP=6.60D-02 MaxDP=7.11D+00              OVMax= 4.39D-01

 Cycle   2  Pass 1  IDiag  1:
 E= -1136.04128231453     Delta-E=       -0.019289020978 Rises=F Damp=T
 DIIS: error= 6.87D-03 at cycle   2 NSaved=   2.
 NSaved= 2 IEnMin= 2 EnMin= -1136.04128231453     IErMin= 2 ErrMin= 6.87D-03
 ErrMax= 6.87D-03  0.00D+00 EMaxC= 1.00D-01 BMatC= 7.84D-02 BMatP= 2.15D-01
 IDIUse=3 WtCom= 9.31D-01 WtEn= 6.87D-02
 Coeff-Com: -0.112D+01 0.212D+01
 Coeff-En:   0.000D+00 0.100D+01
 Coeff:     -0.104D+01 0.204D+01
 Gap=     0.052 Goal=   None    Shift=    0.000
 Gap=     0.051 Goal=   None    Shift=    0.000
 RMSDP=4.01D-02 MaxDP=4.55D+00 DE=-1.93D-02 OVMax= 4.95D-01

 Cycle   3  Pass 1  IDiag  1:
 E= -1136.04470049568     Delta-E=       -0.003418181151 Rises=F Damp=F
 DIIS: error= 9.10D-03 at cycle   3 NSaved=   3.
 NSaved= 3 IEnMin= 3 EnMin= -1136.04470049568     IErMin= 2 ErrMin= 6.87D-03
 ErrMax= 9.10D-03  0.00D+00 EMaxC= 1.00D-01 BMatC= 2.96D-02 BMatP= 7.84D-02
 IDIUse=3 WtCom= 9.09D-01 WtEn= 9.10D-02
 Coeff-Com: -0.663D+00 0.118D+01 0.483D+00
 Coeff-En:   0.000D+00 0.412D+00 0.588D+00
 Coeff:     -0.603D+00 0.111D+01 0.493D+00
 Gap=     0.034 Goal=   None    Shift=    0.000
 Gap=     0.039 Goal=   None    Shift=    0.000
 RMSDP=1.62D-02 MaxDP=1.24D+00 DE=-3.42D-03 OVMax= 3.45D-01

 Cycle   4  Pass 1  IDiag  1:
 E= -1136.06259793997     Delta-E=       -0.017897444293 Rises=F Damp=F
 DIIS: error= 7.42D-03 at cycle   4 NSaved=   4.
 NSaved= 4 IEnMin= 4 EnMin= -1136.06259793997     IErMin= 2 ErrMin= 6.87D-03
 ErrMax= 7.42D-03  0.00D+00 EMaxC= 1.00D-01 BMatC= 1.16D-02 BMatP= 2.96D-02
 IDIUse=3 WtCom= 9.26D-01 WtEn= 7.42D-02
 Coeff-Com: -0.791D-01 0.148D+00 0.369D+00 0.563D+00
 Coeff-En:   0.000D+00 0.000D+00 0.348D+00 0.652D+00
 Coeff:     -0.732D-01 0.137D+00 0.367D+00 0.569D+00
 Gap=     0.041 Goal=   None    Shift=    0.000
 Gap=     0.039 Goal=   None    Shift=    0.000
 RMSDP=1.31D-02 MaxDP=1.75D+00 DE=-1.79D-02 OVMax= 1.43D-01

 Cycle   5  Pass 1  IDiag  1:
 E= -1136.07468200233     Delta-E=       -0.012084062356 Rises=F Damp=F
 DIIS: error= 1.66D-03 at cycle   5 NSaved=   5.
 NSaved= 5 IEnMin= 5 EnMin= -1136.07468200233     IErMin= 5 ErrMin= 1.66D-03
 ErrMax= 1.66D-03  0.00D+00 EMaxC= 1.00D-01 BMatC= 1.55D-03 BMatP= 1.16D-02
 IDIUse=3 WtCom= 9.83D-01 WtEn= 1.66D-02
 Coeff-Com:  0.859D-02-0.126D-01 0.183D+00 0.350D+00 0.471D+00
 Coeff-En:   0.000D+00 0.000D+00 0.000D+00 0.702D-01 0.930D+00
 Coeff:      0.845D-02-0.124D-01 0.180D+00 0.345D+00 0.478D+00
 Gap=     0.042 Goal=   None    Shift=    0.000
 Gap=     0.039 Goal=   None    Shift=    0.000
 RMSDP=4.52D-03 MaxDP=6.34D-01 DE=-1.21D-02 OVMax= 3.33D-02

 Cycle   6  Pass 1  IDiag  1:
 E= -1136.07593503310     Delta-E=       -0.001253030768 Rises=F Damp=F
 DIIS: error= 3.81D-04 at cycle   6 NSaved=   6.
 NSaved= 6 IEnMin= 6 EnMin= -1136.07593503310     IErMin= 6 ErrMin= 3.81D-04
 ErrMax= 3.81D-04  0.00D+00 EMaxC= 1.00D-01 BMatC= 4.09D-05 BMatP= 1.55D-03
 IDIUse=3 WtCom= 9.96D-01 WtEn= 3.81D-03
 Coeff-Com:  0.183D-02-0.311D-02-0.112D-01-0.358D-01 0.945D-01 0.954D+00
 Coeff-En:   0.000D+00 0.000D+00 0.000D+00 0.000D+00 0.000D+00 0.100D+01
 Coeff:      0.182D-02-0.310D-02-0.112D-01-0.356D-01 0.942D-01 0.954D+00
 Gap=     0.042 Goal=   None    Shift=    0.000
 Gap=     0.039 Goal=   None    Shift=    0.000
 RMSDP=1.35D-03 MaxDP=1.85D-01 DE=-1.25D-03 OVMax= 1.10D-02

 Cycle   7  Pass 1  IDiag  1:
 E= -1136.07599391867     Delta-E=       -0.000058885579 Rises=F Damp=F
 DIIS: error= 1.02D-04 at cycle   7 NSaved=   7.
 NSaved= 7 IEnMin= 7 EnMin= -1136.07599391867     IErMin= 7 ErrMin= 1.02D-04
 ErrMax= 1.02D-04  0.00D+00 EMaxC= 1.00D-01 BMatC= 3.09D-06 BMatP= 4.09D-05
 IDIUse=3 WtCom= 9.99D-01 WtEn= 1.02D-03
 Coeff-Com:  0.565D-04-0.247D-03-0.689D-02-0.157D-01 0.105D-01 0.285D+00
 Coeff-Com:  0.727D+00
 Coeff-En:   0.000D+00 0.000D+00 0.000D+00 0.000D+00 0.000D+00 0.000D+00
 Coeff-En:   0.100D+01
 Coeff:      0.565D-04-0.247D-03-0.688D-02-0.157D-01 0.105D-01 0.285D+00
 Coeff:      0.728D+00
 Gap=     0.042 Goal=   None    Shift=    0.000
 Gap=     0.039 Goal=   None    Shift=    0.000
 RMSDP=2.55D-04 MaxDP=2.63D-02 DE=-5.89D-05 OVMax= 5.36D-03

 Cycle   8  Pass 1  IDiag  1:
 E= -1136.07600224075     Delta-E=       -0.000008322077 Rises=F Damp=F
 DIIS: error= 6.00D-05 at cycle   8 NSaved=   8.
 NSaved= 8 IEnMin= 8 EnMin= -1136.07600224075     IErMin= 8 ErrMin= 6.00D-05
 ErrMax= 6.00D-05  0.00D+00 EMaxC= 1.00D-01 BMatC= 1.55D-06 BMatP= 3.09D-06
 IDIUse=1 WtCom= 1.00D+00 WtEn= 0.00D+00
 Coeff-Com: -0.313D-03 0.442D-03-0.151D-02 0.520D-03-0.180D-01-0.694D-01
 Coeff-Com:  0.399D+00 0.689D+00
 Coeff:     -0.313D-03 0.442D-03-0.151D-02 0.520D-03-0.180D-01-0.694D-01
 Coeff:      0.399D+00 0.689D+00
 Gap=     0.042 Goal=   None    Shift=    0.000
 Gap=     0.039 Goal=   None    Shift=    0.000
 RMSDP=1.69D-04 MaxDP=1.54D-02 DE=-8.32D-06 OVMax= 4.92D-03

 Cycle   9  Pass 1  IDiag  1:
 E= -1136.07600880810     Delta-E=       -0.000006567346 Rises=F Damp=F
 DIIS: error= 3.93D-05 at cycle   9 NSaved=   9.
 NSaved= 9 IEnMin= 9 EnMin= -1136.07600880810     IErMin= 9 ErrMin= 3.93D-05
 ErrMax= 3.93D-05  0.00D+00 EMaxC= 1.00D-01 BMatC= 4.84D-07 BMatP= 1.55D-06
 IDIUse=1 WtCom= 1.00D+00 WtEn= 0.00D+00
 Coeff-Com:  0.287D-04-0.661D-05 0.138D-02 0.475D-02-0.674D-02-0.103D+00
 Coeff-Com: -0.130D+00 0.923D-01 0.114D+01
 Coeff:      0.287D-04-0.661D-05 0.138D-02 0.475D-02-0.674D-02-0.103D+00
 Coeff:     -0.130D+00 0.923D-01 0.114D+01
 Gap=     0.042 Goal=   None    Shift=    0.000
 Gap=     0.039 Goal=   None    Shift=    0.000
 RMSDP=1.89D-04 MaxDP=1.66D-02 DE=-6.57D-06 OVMax= 5.91D-03

 Cycle  10  Pass 1  IDiag  1:
 E= -1136.07601439612     Delta-E=       -0.000005588026 Rises=F Damp=F
 DIIS: error= 2.68D-05 at cycle  10 NSaved=  10.
 NSaved=10 IEnMin=10 EnMin= -1136.07601439612     IErMin=10 ErrMin= 2.68D-05
 ErrMax= 2.68D-05  0.00D+00 EMaxC= 1.00D-01 BMatC= 2.65D-07 BMatP= 4.84D-07
 IDIUse=1 WtCom= 1.00D+00 WtEn= 0.00D+00
 Coeff-Com:  0.582D-04-0.376D-04 0.249D-02 0.329D-02 0.107D-01-0.161D-01
 Coeff-Com: -0.390D+00-0.537D+00 0.660D+00 0.127D+01
 Coeff:      0.582D-04-0.376D-04 0.249D-02 0.329D-02 0.107D-01-0.161D-01
 Coeff:     -0.390D+00-0.537D+00 0.660D+00 0.127D+01
 Gap=     0.042 Goal=   None    Shift=    0.000
 Gap=     0.039 Goal=   None    Shift=    0.000
 RMSDP=2.49D-04 MaxDP=2.16D-02 DE=-5.59D-06 OVMax= 8.26D-03

 Cycle  11  Pass 1  IDiag  1:
 E= -1136.07601860839     Delta-E=       -0.000004212268 Rises=F Damp=F
 DIIS: error= 1.31D-05 at cycle  11 NSaved=  11.
 NSaved=11 IEnMin=11 EnMin= -1136.07601860839     IErMin=11 ErrMin= 1.31D-05
 ErrMax= 1.31D-05  0.00D+00 EMaxC= 1.00D-01 BMatC= 3.68D-08 BMatP= 2.65D-07
 IDIUse=1 WtCom= 1.00D+00 WtEn= 0.00D+00
 Coeff-Com: -0.254D-03 0.338D-03-0.532D-03-0.121D-02 0.508D-02 0.472D-01
 Coeff-Com:  0.306D-01 0.284D-01-0.262D+00-0.192D+00 0.134D+01
 Coeff:     -0.254D-03 0.338D-03-0.532D-03-0.121D-02 0.508D-02 0.472D-01
 Coeff:      0.306D-01 0.284D-01-0.262D+00-0.192D+00 0.134D+01
 Gap=     0.042 Goal=   None    Shift=    0.000
 Gap=     0.039 Goal=   None    Shift=    0.000
 RMSDP=8.59D-05 MaxDP=6.27D-03 DE=-4.21D-06 OVMax= 2.86D-03

 Cycle  12  Pass 1  IDiag  1:
 E= -1136.07601909911     Delta-E=       -0.000000490722 Rises=F Damp=F
 DIIS: error= 7.21D-06 at cycle  12 NSaved=  12.
 NSaved=12 IEnMin=12 EnMin= -1136.07601909911     IErMin=12 ErrMin= 7.21D-06
 ErrMax= 7.21D-06  0.00D+00 EMaxC= 1.00D-01 BMatC= 1.60D-08 BMatP= 3.68D-08
 IDIUse=1 WtCom= 1.00D+00 WtEn= 0.00D+00
 Coeff-Com: -0.101D-03 0.129D-03-0.602D-03-0.112D-02 0.845D-03 0.269D-01
 Coeff-Com:  0.740D-01 0.964D-01-0.252D+00-0.277D+00 0.729D+00 0.603D+00
 Coeff:     -0.101D-03 0.129D-03-0.602D-03-0.112D-02 0.845D-03 0.269D-01
 Coeff:      0.740D-01 0.964D-01-0.252D+00-0.277D+00 0.729D+00 0.603D+00
 Gap=     0.042 Goal=   None    Shift=    0.000
 Gap=     0.039 Goal=   None    Shift=    0.000
 RMSDP=2.09D-05 MaxDP=1.46D-03 DE=-4.91D-07 OVMax= 6.47D-04

 Cycle  13  Pass 1  IDiag  1:
 E= -1136.07601915536     Delta-E=       -0.000000056245 Rises=F Damp=F
 DIIS: error= 3.57D-06 at cycle  13 NSaved=  13.
 NSaved=13 IEnMin=13 EnMin= -1136.07601915536     IErMin=13 ErrMin= 3.57D-06
 ErrMax= 3.57D-06  0.00D+00 EMaxC= 1.00D-01 BMatC= 4.11D-09 BMatP= 1.60D-08
 IDIUse=1 WtCom= 1.00D+00 WtEn= 0.00D+00
 Coeff-Com:  0.100D-03-0.138D-03-0.548D-04-0.383D-04-0.230D-02-0.893D-02
 Coeff-Com:  0.267D-01 0.382D-01-0.300D-01-0.330D-01-0.229D+00 0.294D+00
 Coeff-Com:  0.945D+00
 Coeff:      0.100D-03-0.138D-03-0.548D-04-0.383D-04-0.230D-02-0.893D-02
 Coeff:      0.267D-01 0.382D-01-0.300D-01-0.330D-01-0.229D+00 0.294D+00
 Coeff:      0.945D+00
 Gap=     0.042 Goal=   None    Shift=    0.000
 Gap=     0.039 Goal=   None    Shift=    0.000
 RMSDP=1.54D-05 MaxDP=9.20D-04 DE=-5.62D-08 OVMax= 4.71D-04

 Cycle  14  Pass 1  IDiag  1:
 E= -1136.07601917882     Delta-E=       -0.000000023460 Rises=F Damp=F
 DIIS: error= 1.39D-06 at cycle  14 NSaved=  14.
 NSaved=14 IEnMin=14 EnMin= -1136.07601917882     IErMin=14 ErrMin= 1.39D-06
 ErrMax= 1.39D-06  0.00D+00 EMaxC= 1.00D-01 BMatC= 6.54D-10 BMatP= 4.11D-09
 IDIUse=1 WtCom= 1.00D+00 WtEn= 0.00D+00
 Coeff-Com: -0.753D-05 0.110D-04 0.325D-04 0.176D-03-0.177D-03-0.474D-02
 Coeff-Com: -0.106D-01-0.131D-01 0.402D-01 0.486D-01-0.160D+00-0.793D-01
 Coeff-Com:  0.346D-01 0.114D+01
 Coeff:     -0.753D-05 0.110D-04 0.325D-04 0.176D-03-0.177D-03-0.474D-02
 Coeff:     -0.106D-01-0.131D-01 0.402D-01 0.486D-01-0.160D+00-0.793D-01
 Coeff:      0.346D-01 0.114D+01
 Gap=     0.042 Goal=   None    Shift=    0.000
 Gap=     0.039 Goal=   None    Shift=    0.000
 RMSDP=6.43D-06 MaxDP=4.57D-04 DE=-2.35D-08 OVMax= 2.10D-04

 Cycle  15  Pass 1  IDiag  1:
 E= -1136.07601918476     Delta-E=       -0.000000005943 Rises=F Damp=F
 DIIS: error= 6.44D-07 at cycle  15 NSaved=  15.
 NSaved=15 IEnMin=15 EnMin= -1136.07601918476     IErMin=15 ErrMin= 6.44D-07
 ErrMax= 6.44D-07  0.00D+00 EMaxC= 1.00D-01 BMatC= 1.40D-10 BMatP= 6.54D-10
 IDIUse=1 WtCom= 1.00D+00 WtEn= 0.00D+00
 Coeff-Com: -0.798D-05 0.114D-04 0.390D-04 0.466D-04 0.321D-03 0.895D-03
 Coeff-Com: -0.616D-02-0.587D-02 0.872D-02 0.489D-02 0.427D-01-0.462D-01
 Coeff-Com: -0.211D+00-0.998D-01 0.131D+01
 Coeff:     -0.798D-05 0.114D-04 0.390D-04 0.466D-04 0.321D-03 0.895D-03
 Coeff:     -0.616D-02-0.587D-02 0.872D-02 0.489D-02 0.427D-01-0.462D-01
 Coeff:     -0.211D+00-0.998D-01 0.131D+01
 Gap=     0.042 Goal=   None    Shift=    0.000
 Gap=     0.039 Goal=   None    Shift=    0.000
 RMSDP=4.04D-06 MaxDP=1.78D-04 DE=-5.94D-09 OVMax= 1.61D-04

 Cycle  16  Pass 1  IDiag  1:
 E= -1136.07601918659     Delta-E=       -0.000000001830 Rises=F Damp=F
 DIIS: error= 3.31D-07 at cycle  16 NSaved=  16.
 NSaved=16 IEnMin=16 EnMin= -1136.07601918659     IErMin=16 ErrMin= 3.31D-07
 ErrMax= 3.31D-07  0.00D+00 EMaxC= 1.00D-01 BMatC= 3.92D-11 BMatP= 1.40D-10
 IDIUse=1 WtCom= 1.00D+00 WtEn= 0.00D+00
 Coeff-Com:  0.113D-05-0.157D-05 0.968D-05-0.197D-04 0.800D-04 0.903D-03
 Coeff-Com:  0.758D-03 0.688D-03-0.489D-02-0.442D-02 0.214D-01 0.140D-01
 Coeff-Com: -0.167D-01-0.192D+00 0.499D-01 0.113D+01
 Coeff:      0.113D-05-0.157D-05 0.968D-05-0.197D-04 0.800D-04 0.903D-03
 Coeff:      0.758D-03 0.688D-03-0.489D-02-0.442D-02 0.214D-01 0.140D-01
 Coeff:     -0.167D-01-0.192D+00 0.499D-01 0.113D+01
 Gap=     0.042 Goal=   None    Shift=    0.000
 Gap=     0.039 Goal=   None    Shift=    0.000
 RMSDP=2.80D-06 MaxDP=1.65D-04 DE=-1.83D-09 OVMax= 7.64D-05

 Cycle  17  Pass 1  IDiag  1:
 E= -1136.07601918708     Delta-E=       -0.000000000486 Rises=F Damp=F
 DIIS: error= 2.30D-07 at cycle  17 NSaved=  17.
 NSaved=17 IEnMin=17 EnMin= -1136.07601918708     IErMin=17 ErrMin= 2.30D-07
 ErrMax= 2.30D-07  0.00D+00 EMaxC= 1.00D-01 BMatC= 2.03D-11 BMatP= 3.92D-11
 IDIUse=1 WtCom= 1.00D+00 WtEn= 0.00D+00
 Coeff-Com:  0.666D-06-0.130D-05-0.157D-04-0.181D-04-0.597D-04 0.169D-03
 Coeff-Com:  0.248D-02 0.239D-02-0.508D-02-0.454D-02-0.236D-02 0.201D-01
 Coeff-Com:  0.578D-01-0.396D-01-0.392D+00 0.330D+00 0.103D+01
 Coeff:      0.666D-06-0.130D-05-0.157D-04-0.181D-04-0.597D-04 0.169D-03
 Coeff:      0.248D-02 0.239D-02-0.508D-02-0.454D-02-0.236D-02 0.201D-01
 Coeff:      0.578D-01-0.396D-01-0.392D+00 0.330D+00 0.103D+01
 Gap=     0.042 Goal=   None    Shift=    0.000
 Gap=     0.039 Goal=   None    Shift=    0.000
 RMSDP=2.47D-06 MaxDP=1.59D-04 DE=-4.86D-10 OVMax= 5.01D-05

 Cycle  18  Pass 1  IDiag  1:
 E= -1136.07601918733     Delta-E=       -0.000000000252 Rises=F Damp=F
 DIIS: error= 1.85D-07 at cycle  18 NSaved=  18.
 NSaved=18 IEnMin=18 EnMin= -1136.07601918733     IErMin=18 ErrMin= 1.85D-07
 ErrMax= 1.85D-07  0.00D+00 EMaxC= 1.00D-01 BMatC= 8.26D-12 BMatP= 2.03D-11
 IDIUse=1 WtCom= 1.00D+00 WtEn= 0.00D+00
 Coeff-Com:  0.149D-05-0.165D-05 0.179D-05 0.133D-04-0.488D-04-0.679D-03
 Coeff-Com: -0.137D-02-0.145D-02 0.488D-02 0.484D-02-0.120D-01-0.152D-01
 Coeff-Com: -0.918D-02 0.107D+00 0.109D+00-0.532D+00-0.515D+00 0.186D+01
 Coeff:      0.149D-05-0.165D-05 0.179D-05 0.133D-04-0.488D-04-0.679D-03
 Coeff:     -0.137D-02-0.145D-02 0.488D-02 0.484D-02-0.120D-01-0.152D-01
 Coeff:     -0.918D-02 0.107D+00 0.109D+00-0.532D+00-0.515D+00 0.186D+01
 Gap=     0.042 Goal=   None    Shift=    0.000
 Gap=     0.039 Goal=   None    Shift=    0.000
 RMSDP=3.10D-06 MaxDP=2.10D-04 DE=-2.52D-10 OVMax= 6.17D-05

 Cycle  19  Pass 1  IDiag  1:
 E= -1136.07601918752     Delta-E=       -0.000000000192 Rises=F Damp=F
 DIIS: error= 1.27D-07 at cycle  19 NSaved=  19.
 NSaved=19 IEnMin=19 EnMin= -1136.07601918752     IErMin=19 ErrMin= 1.27D-07
 ErrMax= 1.27D-07  0.00D+00 EMaxC= 1.00D-01 BMatC= 3.41D-12 BMatP= 8.26D-12
 IDIUse=1 WtCom= 1.00D+00 WtEn= 0.00D+00
 Coeff-Com: -0.155D-05 0.198D-05 0.828D-05-0.112D-05 0.805D-04 0.468D-03
 Coeff-Com: -0.448D-03-0.208D-04-0.901D-03-0.152D-02 0.117D-01-0.556D-02
 Coeff-Com: -0.328D-01-0.464D-01 0.249D+00-0.330D-02-0.477D+00-0.744D+00
 Coeff-Com:  0.205D+01
 Coeff:     -0.155D-05 0.198D-05 0.828D-05-0.112D-05 0.805D-04 0.468D-03
 Coeff:     -0.448D-03-0.208D-04-0.901D-03-0.152D-02 0.117D-01-0.556D-02
 Coeff:     -0.328D-01-0.464D-01 0.249D+00-0.330D-02-0.477D+00-0.744D+00
 Coeff:      0.205D+01
 Gap=     0.042 Goal=   None    Shift=    0.000
 Gap=     0.039 Goal=   None    Shift=    0.000
 RMSDP=3.47D-06 MaxDP=2.38D-04 DE=-1.92D-10 OVMax= 6.86D-05

 Cycle  20  Pass 1  IDiag  1:
 E= -1136.07601918764     Delta-E=       -0.000000000120 Rises=F Damp=F
 DIIS: error= 4.71D-08 at cycle  20 NSaved=  20.
 NSaved=20 IEnMin=20 EnMin= -1136.07601918764     IErMin=20 ErrMin= 4.71D-08
 ErrMax= 4.71D-08  0.00D+00 EMaxC= 1.00D-01 BMatC= 5.09D-13 BMatP= 3.41D-12
 IDIUse=1 WtCom= 1.00D+00 WtEn= 0.00D+00
 Coeff-Com: -0.250D-06 0.301D-06-0.669D-07 0.961D-06 0.232D-05 0.232D-04
 Coeff-Com:  0.116D-03 0.549D-04-0.188D-03-0.243D-03-0.108D-03 0.225D-02
 Coeff-Com:  0.523D-02-0.818D-02-0.593D-01 0.102D+00 0.197D+00-0.411D+00
 Coeff-Com: -0.146D+00 0.132D+01
 Coeff:     -0.250D-06 0.301D-06-0.669D-07 0.961D-06 0.232D-05 0.232D-04
 Coeff:      0.116D-03 0.549D-04-0.188D-03-0.243D-03-0.108D-03 0.225D-02
 Coeff:      0.523D-02-0.818D-02-0.593D-01 0.102D+00 0.197D+00-0.411D+00
 Coeff:     -0.146D+00 0.132D+01
 Gap=     0.042 Goal=   None    Shift=    0.000
 Gap=     0.039 Goal=   None    Shift=    0.000
 RMSDP=1.23D-06 MaxDP=8.11D-05 DE=-1.20D-10 OVMax= 2.34D-05

 Cycle  21  Pass 1  IDiag  1:
 E= -1136.07601918765     Delta-E=       -0.000000000010 Rises=F Damp=F
 DIIS: error= 1.65D-08 at cycle  21 NSaved=  20.
 NSaved=20 IEnMin=20 EnMin= -1136.07601918765     IErMin=20 ErrMin= 1.65D-08
 ErrMax= 1.65D-08  0.00D+00 EMaxC= 1.00D-01 BMatC= 1.13D-13 BMatP= 5.09D-13
 IDIUse=1 WtCom= 1.00D+00 WtEn= 0.00D+00
 Coeff-Com:  0.866D-07-0.101D-05-0.300D-06-0.923D-05-0.597D-04 0.301D-04
 Coeff-Com: -0.296D-04 0.106D-03 0.297D-03-0.132D-02 0.695D-03 0.382D-02
 Coeff-Com:  0.579D-02-0.335D-01 0.386D-03 0.825D-01 0.102D+00-0.357D+00
 Coeff-Com:  0.166D+00 0.103D+01
 Coeff:      0.866D-07-0.101D-05-0.300D-06-0.923D-05-0.597D-04 0.301D-04
 Coeff:     -0.296D-04 0.106D-03 0.297D-03-0.132D-02 0.695D-03 0.382D-02
 Coeff:      0.579D-02-0.335D-01 0.386D-03 0.825D-01 0.102D+00-0.357D+00
 Coeff:      0.166D+00 0.103D+01
 Gap=     0.042 Goal=   None    Shift=    0.000
 Gap=     0.039 Goal=   None    Shift=    0.000
 RMSDP=2.51D-07 MaxDP=1.84D-05 DE=-1.00D-11 OVMax= 4.33D-06

 Cycle  22  Pass 1  IDiag  1:
 E= -1136.07601918764     Delta-E=        0.000000000009 Rises=F Damp=F
 DIIS: error= 1.41D-08 at cycle  22 NSaved=  20.
 NSaved=20 IEnMin=19 EnMin= -1136.07601918765     IErMin=20 ErrMin= 1.41D-08
 ErrMax= 1.41D-08  0.00D+00 EMaxC= 1.00D-01 BMatC= 4.47D-14 BMatP= 1.13D-13
 IDIUse=1 WtCom= 1.00D+00 WtEn= 0.00D+00
 Coeff-Com: -0.499D-06-0.390D-06-0.266D-05-0.981D-05-0.834D-06-0.354D-04
 Coeff-Com:  0.539D-04 0.979D-04-0.355D-03-0.311D-03-0.872D-04 0.395D-02
 Coeff-Com:  0.491D-02-0.267D-01-0.291D-01 0.140D+00-0.507D-01-0.313D+00
 Coeff-Com:  0.149D+00 0.112D+01
 Coeff:     -0.499D-06-0.390D-06-0.266D-05-0.981D-05-0.834D-06-0.354D-04
 Coeff:      0.539D-04 0.979D-04-0.355D-03-0.311D-03-0.872D-04 0.395D-02
 Coeff:      0.491D-02-0.267D-01-0.291D-01 0.140D+00-0.507D-01-0.313D+00
 Coeff:      0.149D+00 0.112D+01
 Gap=     0.042 Goal=   None    Shift=    0.000
 Gap=     0.039 Goal=   None    Shift=    0.000
 RMSDP=1.16D-07 MaxDP=1.21D-05 DE= 9.09D-12 OVMax= 2.60D-06

 Cycle  23  Pass 1  IDiag  1:
 E= -1136.07601918765     Delta-E=       -0.000000000012 Rises=F Damp=F
 DIIS: error= 8.24D-09 at cycle  23 NSaved=  20.
 NSaved=20 IEnMin=20 EnMin= -1136.07601918765     IErMin=20 ErrMin= 8.24D-09
 ErrMax= 8.24D-09  0.00D+00 EMaxC= 1.00D-01 BMatC= 1.49D-14 BMatP= 4.47D-14
 IDIUse=1 WtCom= 1.00D+00 WtEn= 0.00D+00
 Large coefficients: NSaved= 20 BigCof=    0.00 CofMax=   10.00 Det=-9.19D-15
 Inversion failed.  Reducing to 19 matrices.
 Large coefficients: NSaved= 19 BigCof=    0.00 CofMax=   10.00 Det=-9.29D-15
 Inversion failed.  Reducing to 18 matrices.
 Large coefficients: NSaved= 18 BigCof=    0.00 CofMax=   10.00 Det=-9.29D-15
 Inversion failed.  Reducing to 17 matrices.
 Large coefficients: NSaved= 17 BigCof=    0.00 CofMax=   10.00 Det=-9.37D-15
 Inversion failed.  Reducing to 16 matrices.
 Coeff-Com:  0.522D-04 0.659D-05-0.129D-03 0.292D-03-0.313D-03-0.108D-02
 Coeff-Com: -0.232D-04 0.675D-02-0.248D-02-0.185D-01-0.228D-01 0.777D-01
 Coeff-Com:  0.141D-01-0.410D+00-0.193D+00 0.155D+01
 Coeff:      0.522D-04 0.659D-05-0.129D-03 0.292D-03-0.313D-03-0.108D-02
 Coeff:     -0.232D-04 0.675D-02-0.248D-02-0.185D-01-0.228D-01 0.777D-01
 Coeff:      0.141D-01-0.410D+00-0.193D+00 0.155D+01
 Gap=     0.042 Goal=   None    Shift=    0.000
 Gap=     0.039 Goal=   None    Shift=    0.000
 RMSDP=9.56D-08 MaxDP=8.09D-06 DE=-1.23D-11 OVMax= 2.59D-06

 Cycle  24  Pass 1  IDiag  1:
 E= -1136.07601918766     Delta-E=       -0.000000000009 Rises=F Damp=F
 DIIS: error= 4.49D-09 at cycle  24 NSaved=  17.
 NSaved=17 IEnMin=17 EnMin= -1136.07601918766     IErMin=17 ErrMin= 4.49D-09
 ErrMax= 4.49D-09  0.00D+00 EMaxC= 1.00D-01 BMatC= 4.31D-15 BMatP= 1.49D-14
 IDIUse=1 WtCom= 1.00D+00 WtEn= 0.00D+00
 Large coefficients: NSaved= 17 BigCof=    0.00 CofMax=   10.00 Det=-1.44D-15
 Inversion failed.  Reducing to 16 matrices.
 Large coefficients: NSaved= 16 BigCof=    0.00 CofMax=   10.00 Det=-1.96D-15
 Inversion failed.  Reducing to 15 matrices.
 Coeff-Com:  0.263D-04-0.498D-04 0.339D-04 0.163D-03-0.501D-03-0.155D-02
 Coeff-Com:  0.348D-02 0.136D-01-0.325D-01-0.132D-02 0.919D-01-0.202D-01
 Coeff-Com: -0.276D+00-0.206D+00 0.143D+01
 Coeff:      0.263D-04-0.498D-04 0.339D-04 0.163D-03-0.501D-03-0.155D-02
 Coeff:      0.348D-02 0.136D-01-0.325D-01-0.132D-02 0.919D-01-0.202D-01
 Coeff:     -0.276D+00-0.206D+00 0.143D+01
 Gap=     0.042 Goal=   None    Shift=    0.000
 Gap=     0.039 Goal=   None    Shift=    0.000
 RMSDP=4.72D-08 MaxDP=3.52D-06 DE=-9.09D-12 OVMax= 1.57D-06

 Cycle  25  Pass 1  IDiag  1:
 E= -1136.07601918766     Delta-E=       -0.000000000001 Rises=F Damp=F
 DIIS: error= 1.83D-09 at cycle  25 NSaved=  16.
 NSaved=16 IEnMin=16 EnMin= -1136.07601918766     IErMin=16 ErrMin= 1.83D-09
 ErrMax= 1.83D-09  0.00D+00 EMaxC= 1.00D-01 BMatC= 1.10D-15 BMatP= 4.31D-15
 IDIUse=1 WtCom= 1.00D+00 WtEn= 0.00D+00
 Large coefficients: NSaved= 16 BigCof=    0.00 CofMax=   10.00 Det=-7.87D-16
 Inversion failed.  Reducing to 15 matrices.
 Coeff-Com: -0.176D-04 0.467D-04 0.184D-03 0.715D-04-0.162D-02 0.998D-03
 Coeff-Com:  0.612D-02-0.312D-02-0.177D-01 0.305D-01 0.823D-01-0.784D-01
 Coeff-Com: -0.302D+00 0.172D+00 0.111D+01
 Coeff:     -0.176D-04 0.467D-04 0.184D-03 0.715D-04-0.162D-02 0.998D-03
 Coeff:      0.612D-02-0.312D-02-0.177D-01 0.305D-01 0.823D-01-0.784D-01
 Coeff:     -0.302D+00 0.172D+00 0.111D+01
 Gap=     0.042 Goal=   None    Shift=    0.000
 Gap=     0.039 Goal=   None    Shift=    0.000
 RMSDP=2.14D-08 MaxDP=1.52D-06 DE=-9.09D-13 OVMax= 7.08D-07

 Cycle  26  Pass 1  IDiag  1:
 E= -1136.07601918764     Delta-E=        0.000000000021 Rises=F Damp=F
 DIIS: error= 9.21D-10 at cycle  26 NSaved=  16.
 NSaved=16 IEnMin=15 EnMin= -1136.07601918766     IErMin=16 ErrMin= 9.21D-10
 ErrMax= 9.21D-10  0.00D+00 EMaxC= 1.00D-01 BMatC= 4.66D-16 BMatP= 1.10D-15
 IDIUse=1 WtCom= 1.00D+00 WtEn= 0.00D+00
 Large coefficients: NSaved= 16 BigCof=    0.00 CofMax=   10.00 Det=-6.56D-16
 Inversion failed.  Reducing to 15 matrices.
 Coeff-Com:  0.690D-05 0.495D-04 0.190D-03-0.686D-03-0.525D-03 0.264D-03
 Coeff-Com:  0.108D-01-0.143D-01-0.134D-01 0.450D-01 0.561D-01-0.878D-01
 Coeff-Com: -0.302D+00 0.451D+00 0.856D+00
 Coeff:      0.690D-05 0.495D-04 0.190D-03-0.686D-03-0.525D-03 0.264D-03
 Coeff:      0.108D-01-0.143D-01-0.134D-01 0.450D-01 0.561D-01-0.878D-01
 Coeff:     -0.302D+00 0.451D+00 0.856D+00
 Gap=     0.042 Goal=   None    Shift=    0.000
 Gap=     0.039 Goal=   None    Shift=    0.000
 RMSDP=8.04D-09 MaxDP=8.38D-07 DE= 2.14D-11 OVMax= 2.30D-07

 SCF Done:  E(UB3LYP) =  -1136.07601919     A.U. after   26 cycles
            NFock= 26  Conv=0.80D-08     -V/T= 2.0024
 <Sx>= 0.0000 <Sy>= 0.0000 <Sz>= 0.5000 <S**2>= 0.7751 S= 0.5125
 <L.S>= 0.000000000000E+00
 KE= 1.133373912316D+03 PE=-3.501001948039D+03 EE= 8.457079094296D+02
 Annihilation of the first spin contaminant:
 S**2 before annihilation     0.7751,   after     0.7503
 Leave Link  502 at Mon Nov 13 19:51:37 2023, MaxMem=  1879048192 cpu:             246.2 elap:              21.1
 (Enter /home/sekinelabo/g16/l601.exe)
 Copying SCF densities to generalized density rwf, IOpCl= 1 IROHF=0.

 **********************************************************************

            Population analysis using the SCF Density.

 **********************************************************************

 Orbital symmetries:
 Alpha Orbitals:
       Occupied  (A) (A) (A) (A) (A) (A) (A) (A) (A) (A) (A) (A)
                 (A) (A) (A) (A) (A) (A) (A) (A) (A) (A) (A) (A)
                 (A) (A) (A) (A) (A) (A) (A) (A) (A) (A) (A) (A)
                 (A) (A) (A)
       Virtual   (A) (A) (A) (A) (A) (A) (A) (A) (A) (A) (A) (A)
                 (A) (A) (A) (A) (A) (A) (A) (A) (A) (A) (A) (A)
                 (A) (A) (A) (A) (A) (A) (A) (A) (A) (A) (A) (A)
                 (A) (A) (A) (A) (A) (A) (A) (A) (A) (A) (A) (A)
                 (A) (A) (A) (A) (A) (A) (A) (A) (A) (A) (A) (A)
                 (A) (A) (A) (A) (A) (A) (A) (A) (A) (A) (A) (A)
                 (A) (A) (A) (A) (A) (A) (A) (A) (A) (A) (A) (A)
                 (A) (A) (A) (A) (A) (A) (A) (A) (A) (A) (A) (A)
                 (A) (A) (A) (A) (A) (A) (A) (A) (A) (A) (A) (A)
                 (A) (A) (A) (A) (A) (A) (A) (A) (A) (A) (A) (A)
                 (A) (A) (A) (A) (A) (A) (A) (A) (A) (A) (A) (A)
                 (A) (A) (A) (A) (A) (A) (A) (A) (A) (A) (A) (A)
                 (A) (A) (A) (A) (A) (A) (A) (A) (A) (A) (A) (A)
                 (A) (A) (A) (A) (A) (A) (A) (A) (A) (A) (A) (A)
                 (A) (A)
 Beta  Orbitals:
       Occupied  (A) (A) (A) (A) (A) (A) (A) (A) (A) (A) (A) (A)
                 (A) (A) (A) (A) (A) (A) (A) (A) (A) (A) (A) (A)
                 (A) (A) (A) (A) (A) (A) (A) (A) (A) (A) (A) (A)
                 (A) (A)
       Virtual   (A) (A) (A) (A) (A) (A) (A) (A) (A) (A) (A) (A)
                 (A) (A) (A) (A) (A) (A) (A) (A) (A) (A) (A) (A)
                 (A) (A) (A) (A) (A) (A) (A) (A) (A) (A) (A) (A)
                 (A) (A) (A) (A) (A) (A) (A) (A) (A) (A) (A) (A)
                 (A) (A) (A) (A) (A) (A) (A) (A) (A) (A) (A) (A)
                 (A) (A) (A) (A) (A) (A) (A) (A) (A) (A) (A) (A)
                 (A) (A) (A) (A) (A) (A) (A) (A) (A) (A) (A) (A)
                 (A) (A) (A) (A) (A) (A) (A) (A) (A) (A) (A) (A)
                 (A) (A) (A) (A) (A) (A) (A) (A) (A) (A) (A) (A)
                 (A) (A) (A) (A) (A) (A) (A) (A) (A) (A) (A) (A)
                 (A) (A) (A) (A) (A) (A) (A) (A) (A) (A) (A) (A)
                 (A) (A) (A) (A) (A) (A) (A) (A) (A) (A) (A) (A)
                 (A) (A) (A) (A) (A) (A) (A) (A) (A) (A) (A) (A)
                 (A) (A) (A) (A) (A) (A) (A) (A) (A) (A) (A) (A)
                 (A) (A) (A)
 The electronic state is 2-A.
 Alpha  occ. eigenvalues --  -38.45990 -38.45001 -38.44427 -38.44374 -38.43348
 Alpha  occ. eigenvalues --  -38.42656 -38.42608  -2.21761  -2.21096  -2.20616
 Alpha  occ. eigenvalues --   -2.20610  -2.19512  -2.18761  -2.18660  -1.15473
 Alpha  occ. eigenvalues --   -1.15408  -1.15397  -1.14926  -1.14876  -1.14654
 Alpha  occ. eigenvalues --   -1.14403  -1.14339  -1.14247  -1.14233  -1.14189
 Alpha  occ. eigenvalues --   -1.14169  -1.13224  -1.13181  -1.13063  -1.12468
 Alpha  occ. eigenvalues --   -1.12413  -1.12394  -1.12348  -1.12311  -1.12238
 Alpha  occ. eigenvalues --   -0.21007  -0.13637  -0.12053  -0.11852
 Alpha virt. eigenvalues --   -0.07610  -0.03588  -0.03458  -0.03380  -0.02652
 Alpha virt. eigenvalues --   -0.02581  -0.02550  -0.00634  -0.00425  -0.00094
 Alpha virt. eigenvalues --    0.00215   0.00341   0.00414   0.00801   0.01128
 Alpha virt. eigenvalues --    0.01240   0.01294   0.01406   0.01503   0.01532
 Alpha virt. eigenvalues --    0.01747   0.01785   0.01924   0.01944   0.01992
 Alpha virt. eigenvalues --    0.02292   0.02448   0.02503   0.02729   0.02767
 Alpha virt. eigenvalues --    0.02856   0.03033   0.03094   0.03271   0.03421
 Alpha virt. eigenvalues --    0.03602   0.03730   0.03816   0.04006   0.04119
 Alpha virt. eigenvalues --    0.04301   0.04728   0.05403   0.05563   0.05604
 Alpha virt. eigenvalues --    0.05765   0.05936   0.06096   0.06183   0.06491
 Alpha virt. eigenvalues --    0.06624   0.07093   0.07272   0.07460   0.07828
 Alpha virt. eigenvalues --    0.07900   0.08910   0.09357   0.09432   0.09932
 Alpha virt. eigenvalues --    0.10348   0.10490   0.10740   0.12608   0.13476
 Alpha virt. eigenvalues --    0.13527   0.14039   0.14191   0.14449   0.14542
 Alpha virt. eigenvalues --    0.15065   0.15179   0.15480   0.16464   0.16981
 Alpha virt. eigenvalues --    0.17183   0.17881   0.18339   0.19549   0.21615
 Alpha virt. eigenvalues --    0.23073   0.26190   0.27839   0.28087   0.31040
 Alpha virt. eigenvalues --    0.32637   0.33711   0.34131   0.35231   0.35743
 Alpha virt. eigenvalues --    0.36623   0.38021   0.38541   0.38811   0.39387
 Alpha virt. eigenvalues --    0.40365   0.41287   0.41529   0.42415   0.43207
 Alpha virt. eigenvalues --    0.43828   0.44014   0.44925   0.45307   0.45380
 Alpha virt. eigenvalues --    0.47016   0.47533   0.47830   0.48237   0.48861
 Alpha virt. eigenvalues --    0.48904   0.49467   0.50253   0.51219   0.51496
 Alpha virt. eigenvalues --    0.52400   0.54380   0.54685   0.55502   0.55828
 Alpha virt. eigenvalues --    0.56755   0.57193   0.60343   0.64325   0.65310
 Alpha virt. eigenvalues --    0.66201   0.71683   0.71787   0.74102   0.77155
 Alpha virt. eigenvalues --    0.78616   0.80650   0.82055   0.82742   0.84110
 Alpha virt. eigenvalues --    2.11299   2.17320   2.26114   2.27669   2.28374
 Alpha virt. eigenvalues --    2.32527   2.36451   4.40763   4.41304   4.41846
 Alpha virt. eigenvalues --    4.42476   4.43116   4.43895   4.44403   4.45604
 Alpha virt. eigenvalues --    4.47326   4.52563   4.53936   4.54213   4.58857
 Alpha virt. eigenvalues --    4.64001   4.68503   4.74665   4.76057   4.76763
 Alpha virt. eigenvalues --    4.81161   4.82553   4.86464  96.33165  96.39602
 Alpha virt. eigenvalues --   96.53965  96.55210  96.57106  96.62285  96.66549
  Beta  occ. eigenvalues --  -38.46015 -38.44970 -38.44331 -38.44274 -38.43322
  Beta  occ. eigenvalues --  -38.42638 -38.42595  -2.21807  -2.21047  -2.20438
  Beta  occ. eigenvalues --   -2.20435  -2.19471  -2.18736  -2.18643  -1.15504
  Beta  occ. eigenvalues --   -1.15437  -1.15429  -1.14892  -1.14769  -1.14628
  Beta  occ. eigenvalues --   -1.14291  -1.14217  -1.14119  -1.14112  -1.14068
  Beta  occ. eigenvalues --   -1.14044  -1.13213  -1.13086  -1.13041  -1.12460
  Beta  occ. eigenvalues --   -1.12389  -1.12339  -1.12327  -1.12253  -1.12228
  Beta  occ. eigenvalues --   -0.20106  -0.13553  -0.11551
  Beta virt. eigenvalues --   -0.07643  -0.07428  -0.03531  -0.03321  -0.02761
  Beta virt. eigenvalues --   -0.02577  -0.01744  -0.01500  -0.00601  -0.00164
  Beta virt. eigenvalues --   -0.00032   0.00197   0.00411   0.00577   0.00846
  Beta virt. eigenvalues --    0.01125   0.01271   0.01334   0.01489   0.01589
  Beta virt. eigenvalues --    0.01663   0.01829   0.01902   0.01959   0.02015
  Beta virt. eigenvalues --    0.02090   0.02361   0.02443   0.02619   0.02737
  Beta virt. eigenvalues --    0.02786   0.02843   0.03073   0.03133   0.03318
  Beta virt. eigenvalues --    0.03442   0.03609   0.03855   0.04045   0.04194
  Beta virt. eigenvalues --    0.04336   0.04421   0.04893   0.05474   0.05630
  Beta virt. eigenvalues --    0.05711   0.05983   0.06007   0.06204   0.06427
  Beta virt. eigenvalues --    0.06588   0.06740   0.07244   0.07475   0.07662
  Beta virt. eigenvalues --    0.07862   0.07926   0.08877   0.09398   0.09478
  Beta virt. eigenvalues --    0.10384   0.10749   0.10877   0.10962   0.12801
  Beta virt. eigenvalues --    0.13556   0.13662   0.14282   0.14432   0.14607
  Beta virt. eigenvalues --    0.14818   0.15477   0.15571   0.15687   0.16740
  Beta virt. eigenvalues --    0.17169   0.17218   0.17951   0.18668   0.19828
  Beta virt. eigenvalues --    0.22413   0.23823   0.26316   0.28523   0.28856
  Beta virt. eigenvalues --    0.31045   0.32759   0.33864   0.34407   0.35180
  Beta virt. eigenvalues --    0.35900   0.36874   0.38485   0.38885   0.39158
  Beta virt. eigenvalues --    0.39714   0.40528   0.41345   0.41709   0.42546
  Beta virt. eigenvalues --    0.43539   0.43813   0.44309   0.45225   0.45419
  Beta virt. eigenvalues --    0.45575   0.47380   0.47770   0.48124   0.48304
  Beta virt. eigenvalues --    0.48999   0.49169   0.49480   0.50410   0.51311
  Beta virt. eigenvalues --    0.51717   0.53099   0.54918   0.55051   0.55706
  Beta virt. eigenvalues --    0.56148   0.56924   0.57392   0.60580   0.64363
  Beta virt. eigenvalues --    0.65462   0.66314   0.71709   0.72159   0.74509
  Beta virt. eigenvalues --    0.77314   0.78934   0.80870   0.82258   0.83070
  Beta virt. eigenvalues --    0.84408   2.11197   2.17399   2.26282   2.27702
  Beta virt. eigenvalues --    2.28602   2.32925   2.36534   4.40904   4.41358
  Beta virt. eigenvalues --    4.41976   4.42485   4.43157   4.43930   4.44398
  Beta virt. eigenvalues --    4.45676   4.47356   4.52657   4.54004   4.54325
  Beta virt. eigenvalues --    4.58879   4.64026   4.68610   4.74703   4.76193
  Beta virt. eigenvalues --    4.76897   4.81248   4.82624   4.86498  96.33131
  Beta virt. eigenvalues --   96.39641  96.54001  96.55236  96.57194  96.62414
  Beta virt. eigenvalues --   96.66593
          Condensed to atoms (all electrons):
               1          2          3          4          5          6
     1  Na  11.728083  -0.580797   0.124966   0.552624  -0.377491   0.306186
     2  Na  -0.580797  14.979454  -0.807338  -0.987499  -0.935055  -0.570310
     3  Na   0.124966  -0.807338  11.957953  -0.426725   0.277410  -0.357753
     4  Na   0.552624  -0.987499  -0.426725  12.986474   0.185913   0.416508
     5  Na  -0.377491  -0.935055   0.277410   0.185913  11.857368   0.063924
     6  Na   0.306186  -0.570310  -0.357753   0.416508   0.063924  12.195136
     7  Na  -0.306312  -0.222831   0.048508  -1.990284   0.288647  -0.904226
               7
     1  Na  -0.306312
     2  Na  -0.222831
     3  Na   0.048508
     4  Na  -1.990284
     5  Na   0.288647
     6  Na  -0.904226
     7  Na  13.699400
          Atomic-Atomic Spin Densities.
               1          2          3          4          5          6
     1  Na   0.465217  -0.096011  -0.026265   0.029565  -0.097730   0.004296
     2  Na  -0.096011  -0.179899  -0.180600  -0.059142   0.144980  -0.033420
     3  Na  -0.026265  -0.180600  -0.017893   0.155410   0.050183   0.125489
     4  Na   0.029565  -0.059142   0.155410  -0.313963   0.140955  -0.127947
     5  Na  -0.097730   0.144980   0.050183   0.140955   0.316617  -0.017970
     6  Na   0.004296  -0.033420   0.125489  -0.127947  -0.017970  -0.229928
     7  Na   0.117514   0.301184  -0.267273   0.510149  -0.073435   0.224659
               7
     1  Na   0.117514
     2  Na   0.301184
     3  Na  -0.267273
     4  Na   0.510149
     5  Na  -0.073435
     6  Na   0.224659
     7  Na  -0.689331
 Mulliken charges and spin densities:
               1          2
     1  Na  -0.447258   0.396586
     2  Na   0.124375  -0.102909
     3  Na   0.182978  -0.160949
     4  Na   0.262988   0.335026
     5  Na  -0.360717   0.463600
     6  Na  -0.149465  -0.054821
     7  Na   0.387099   0.123467
 Sum of Mulliken charges =  -0.00000   1.00000
 Mulliken charges and spin densities with hydrogens summed into heavy atoms:
               1          2
     1  Na  -0.447258   0.396586
     2  Na   0.124375  -0.102909
     3  Na   0.182978  -0.160949
     4  Na   0.262988   0.335026
     5  Na  -0.360717   0.463600
     6  Na  -0.149465  -0.054821
     7  Na   0.387099   0.123467
 Electronic spatial extent (au):  <R**2>=           2014.0695
 Charge=             -0.0000 electrons
 Dipole moment (field-independent basis, Debye):
    X=             -0.8995    Y=              0.3422    Z=              0.1921  Tot=              0.9814
 Quadrupole moment (field-independent basis, Debye-Ang):
   XX=            -45.7359   YY=            -75.0928   ZZ=            -69.8441
   XY=             -1.0420   XZ=             -0.3417   YZ=              1.0942
 Traceless Quadrupole moment (field-independent basis, Debye-Ang):
   XX=             17.8217   YY=            -11.5352   ZZ=             -6.2865
   XY=             -1.0420   XZ=             -0.3417   YZ=              1.0942
 Octapole moment (field-independent basis, Debye-Ang**2):
  XXX=            -66.6901  YYY=              2.2301  ZZZ=              1.9707  XYY=             -1.5642
  XXY=              7.1844  XXZ=              2.7565  XZZ=              1.8058  YZZ=             -0.3317
  YYZ=             -0.1554  XYZ=              1.3323
 Hexadecapole moment (field-independent basis, Debye-Ang**3):
 XXXX=          -1245.9283 YYYY=           -911.0545 ZZZZ=           -632.2739 XXXY=             26.1473
 XXXZ=              0.6721 YYYX=            -42.3288 YYYZ=             21.1674 ZZZX=             -5.1307
 ZZZY=             -5.2647 XXYY=           -511.0732 XXZZ=           -463.4347 YYZZ=           -293.9452
 XXYZ=              8.4557 YYXZ=             -3.3873 ZZXY=             -0.9668
 N-N= 3.858441071058D+02 E-N=-3.501001947920D+03  KE= 1.133373912316D+03
                          Isotropic Fermi Contact Couplings
        Atom                 a.u.       MegaHertz       Gauss      10(-4) cm-1
     1  Na(23)             0.40063     473.95416     169.11863     158.09409
     2  Na(23)            -0.01191     -14.09358      -5.02894      -4.70111
     3  Na(23)            -0.10929    -129.28952     -46.13371     -43.12634
     4  Na(23)             0.04387      51.89425      18.51716      17.31006
     5  Na(23)             0.38625     456.94875     163.05068     152.42170
     6  Na(23)            -0.01960     -23.18661      -8.27356      -7.73422
     7  Na(23)             0.04391      51.94715      18.53603      17.32770
 --------------------------------------------------------
       Center         ----  Spin Dipole Couplings  ----
                      3XX-RR        3YY-RR        3ZZ-RR
 --------------------------------------------------------
     1   Atom        0.011168      0.011204     -0.022372
     2   Atom       -0.024820     -0.034238      0.059058
     3   Atom        0.002233     -0.003368      0.001135
     4   Atom       -0.047914     -0.025742      0.073656
     5   Atom        0.014682      0.006602     -0.021284
     6   Atom       -0.022872     -0.026965      0.049837
     7   Atom       -0.036975     -0.036781      0.073757
 --------------------------------------------------------
                        XY            XZ            YZ
 --------------------------------------------------------
     1   Atom        0.000716     -0.000508      0.003998
     2   Atom        0.001738      0.008130     -0.017173
     3   Atom        0.000424      0.000622     -0.000120
     4   Atom        0.001178     -0.014574      0.002084
     5   Atom        0.004236      0.004937      0.001659
     6   Atom        0.004216      0.004971     -0.005570
     7   Atom       -0.000571     -0.013706     -0.000518
 --------------------------------------------------------


 ---------------------------------------------------------------------------------
              Anisotropic Spin Dipole Couplings in Principal Axis System
 ---------------------------------------------------------------------------------

       Atom             a.u.   MegaHertz   Gauss  10(-4) cm-1        Axes

              Baa    -0.0229    -3.227    -1.151    -1.076  0.0173 -0.1169  0.9930
     1 Na(23) Bbb     0.0107     1.515     0.541     0.505  0.8230 -0.5622 -0.0805
              Bcc     0.0121     1.712     0.611     0.571  0.5677  0.8187  0.0865
 
              Baa    -0.0381    -5.377    -1.919    -1.794 -0.2404  0.9522  0.1885
     2 Na(23) Bbb    -0.0247    -3.491    -1.246    -1.164  0.9667  0.2524 -0.0421
              Bcc     0.0628     8.868     3.164     2.958  0.0876 -0.1721  0.9812
 
              Baa    -0.0034    -0.481    -0.172    -0.160 -0.0790  0.9962  0.0370
     3 Na(23) Bbb     0.0009     0.123     0.044     0.041 -0.3979 -0.0656  0.9151
              Bcc     0.0025     0.358     0.128     0.119  0.9140  0.0576  0.4016
 
              Baa    -0.0497    -7.021    -2.505    -2.342  0.9913 -0.0589  0.1181
     4 Na(23) Bbb    -0.0257    -3.629    -1.295    -1.210  0.0608  0.9981 -0.0120
              Bcc     0.0754    10.650     3.800     3.552 -0.1172  0.0191  0.9929
 
              Baa    -0.0220    -3.105    -1.108    -1.036 -0.1290 -0.0384  0.9909
     5 Na(23) Bbb     0.0048     0.677     0.242     0.226 -0.3876  0.9217 -0.0147
              Bcc     0.0172     2.428     0.866     0.810  0.9128  0.3859  0.1337
 
              Baa    -0.0303    -4.276    -1.526    -1.426 -0.5382  0.8378  0.0916
     6 Na(23) Bbb    -0.0203    -2.860    -1.021    -0.954  0.8404  0.5416 -0.0166
              Bcc     0.0505     7.136     2.546     2.380  0.0635 -0.0681  0.9957
 
              Baa    -0.0388    -5.485    -1.957    -1.829  0.9491  0.2925  0.1169
     7 Na(23) Bbb    -0.0366    -5.167    -1.844    -1.724 -0.2908  0.9562 -0.0316
              Bcc     0.0754    10.652     3.801     3.553 -0.1210 -0.0040  0.9926
 

 ---------------------------------------------------------------------------------

 No NMR shielding tensors so no spin-rotation constants.
 Leave Link  601 at Mon Nov 13 19:51:37 2023, MaxMem=  1879048192 cpu:               2.9 elap:               0.2
 (Enter /home/sekinelabo/g16/l701.exe)
 ... and contract with generalized density number  0.
 Compute integral first derivatives.
 Leave Link  701 at Mon Nov 13 19:51:37 2023, MaxMem=  1879048192 cpu:               1.7 elap:               0.1
 (Enter /home/sekinelabo/g16/l702.exe)
 L702 exits ... SP integral derivatives will be done elsewhere.
 Leave Link  702 at Mon Nov 13 19:51:37 2023, MaxMem=  1879048192 cpu:               0.5 elap:               0.0
 (Enter /home/sekinelabo/g16/l703.exe)
 Integral derivatives from FoFJK, PRISM(SPDF).
 Compute integral first derivatives, UseDBF=F ICtDFT=           0.
 Calling FoFJK, ICntrl=      2127 FMM=F ISym2X=0 I1Cent= 0 IOpClX= 1 NMat=1 NMatS=1 NMatT=0.
 FoFJK:  IHMeth= 1 ICntrl=    2127 DoSepK=F KAlg= 0 I1Cent=           0 FoldK=F
 IRaf=         0 NMat=       1 IRICut=       1 DoRegI=T DoRafI=F ISym2E= 0 IDoP0=0 IntGTp=1.
 FoFCou: FMM=F IPFlag=           0 FMFlag=      100000 FMFlg1=         800
         NFxFlg=           0 DoJE=F BraDBF=F KetDBF=F FulRan=T
         wScrn=  0.000000 ICntrl=      2127 IOpCl=  1 I1Cent=           0 NGrid=           0
         NMat0=    1 NMatS0=      1 NMatT0=    0 NMatD0=    1 NMtDS0=    0 NMtDT0=    0
 Symmetry not used in FoFCou.
 Leave Link  703 at Mon Nov 13 19:51:40 2023, MaxMem=  1879048192 cpu:              36.7 elap:               2.3
 (Enter /home/sekinelabo/g16/l716.exe)
 Dipole        =-3.53909323D-01 1.34642053D-01 7.55832403D-02
 ***** Axes restored to original set *****
 -------------------------------------------------------------------
 Center     Atomic                   Forces (Hartrees/Bohr)
 Number     Number              X              Y              Z
 -------------------------------------------------------------------
      1       11          -0.000911570   -0.003635233   -0.025693821
      2       11          -0.005645814    0.025704487   -0.002375814
      3       11           0.001964900   -0.001706693    0.000661735
      4       11           0.013800985    0.007322387   -0.001657361
      5       11           0.002724445    0.000258925    0.022763227
      6       11           0.005246358   -0.020522417    0.004062758
      7       11          -0.017179304   -0.007421457    0.002239275
 -------------------------------------------------------------------
 Cartesian Forces:  Max     0.025704487 RMS     0.011897532
 Z-matrix is all fixed cartesians, so copy forces.
 Force constants in Cartesian coordinates: 
                1             2             3             4             5 
      1  0.150712D+00
      2 -0.436589D-02  0.160507D+00
      3  0.295009D-03  0.778930D-02  0.233356D+00
      4 -0.282145D-01  0.369324D-02 -0.400141D-02  0.101803D+00
      5  0.807822D-02 -0.533366D-01  0.769179D-02 -0.179232D-01  0.179157D+00
      6  0.111568D-01 -0.491554D-01 -0.432736D-01  0.302322D-02 -0.849470D-02
      7  0.125980D-03  0.102283D-02 -0.614273D-03  0.858811D-03  0.141920D-02
      8 -0.169458D-02  0.710422D-02 -0.772316D-03  0.525586D-02  0.879877D-02
      9 -0.594387D-02  0.188886D-02  0.726466D-02 -0.118630D-03  0.764162D-04
     10 -0.526908D-01 -0.315542D-02  0.114406D-01 -0.403727D-01 -0.190691D-01
     11 -0.709268D-02 -0.455669D-01  0.266815D-02  0.257411D-01 -0.422691D-01
     12 -0.360355D-01 -0.155726D-01 -0.582041D-01 -0.300533D-02  0.277387D-02
     13  0.409129D-03 -0.308629D-03 -0.199559D-02 -0.265751D-01  0.425464D-02
     14 -0.130772D-03  0.193169D-02 -0.457593D-02  0.917940D-02 -0.412505D-01
     15 -0.197717D-02 -0.457220D-02 -0.367959D-01 -0.128113D-03 -0.777628D-02
     16 -0.263151D-01  0.881035D-02  0.545796D-03  0.164709D-01  0.884430D-02
     17  0.494840D-02 -0.434158D-01 -0.849001D-02  0.885285D-02 -0.132385D-01
     18 -0.145655D-01  0.474372D-01 -0.511783D-01 -0.108548D-02  0.250069D-02
     19 -0.440266D-01 -0.569647D-02 -0.567011D-02 -0.239702D-01  0.143960D-01
     20  0.257297D-03 -0.272232D-01 -0.431099D-02 -0.347992D-01 -0.378607D-01
     21  0.470702D-01  0.121848D-01 -0.511686D-01  0.531574D-02  0.322822D-02
                6             7             8             9            10 
      6  0.104154D+00
      7 -0.228952D-03  0.406140D-01
      8  0.378906D-03 -0.133859D-02  0.321617D-01
      9  0.431039D-02  0.114480D-02 -0.114663D-02  0.211529D-01
     10  0.279629D-02 -0.396235D-01  0.685540D-02 -0.259151D-02  0.227579D+00
     11  0.169087D-03 -0.308579D-02 -0.590465D-01  0.221954D-02  0.149164D-01
     12 -0.190892D-01  0.324407D-03  0.219905D-02 -0.404389D-01 -0.496593D-02
     13 -0.149125D-01 -0.496925D-03 -0.394121D-03  0.643128D-02 -0.489781D-01
     14  0.482946D-01  0.869881D-03  0.449426D-02 -0.211366D-02 -0.709892D-02
     15 -0.526872D-01 -0.434526D-03  0.190204D-04  0.649781D-02 -0.908426D-02
     16 -0.111883D-02 -0.137504D-02 -0.811030D-02  0.922721D-03 -0.316232D-01
     17  0.263789D-02  0.746225D-03  0.443235D-02 -0.426354D-03  0.159083D-01
     18  0.153497D-01 -0.130745D-03 -0.409809D-03  0.956325D-03  0.114442D-02
     19 -0.715988D-03 -0.103319D-03 -0.573674D-03  0.155207D-03 -0.142910D-01
     20  0.616968D-02  0.366244D-03  0.205518D-02 -0.498181D-03 -0.835660D-02
     21 -0.876386D-02 -0.607145D-04 -0.268224D-03  0.256794D-03  0.126042D-02
               11            12            13            14            15 
     11  0.216591D+00
     12 -0.350266D-02  0.176516D+00
     13  0.201476D-02  0.372840D-01  0.143425D+00
     14 -0.382477D-01  0.104453D-01  0.200232D-03  0.139687D+00
     15 -0.542720D-02 -0.591680D-01  0.864372D-02  0.750494D-02  0.215550D+00
     16 -0.231414D-01  0.312236D-02 -0.181168D-01  0.160630D-02 -0.451949D-02
     17 -0.446860D-01  0.176650D-02  0.643081D-02 -0.369459D-01  0.111995D-01
     18  0.287004D-02 -0.125757D-01  0.942687D-02 -0.409494D-01 -0.323152D-01
     19 -0.935238D-02  0.327603D-02 -0.496667D-01 -0.462612D-02  0.749983D-02
     20  0.132252D-01  0.189054D-02 -0.121977D-01 -0.296685D-01 -0.947796D-03
     21  0.100305D-02  0.129596D-01 -0.448777D-01 -0.186058D-01 -0.410820D-01
               16            17            18            19            20 
     16  0.100876D+00
     17 -0.225124D-01  0.159411D+00
     18  0.229545D-02 -0.834119D-02  0.880451D-01
     19 -0.399164D-01 -0.143742D-01  0.291499D-02  0.171974D+00
     20  0.345031D-01 -0.255576D-01 -0.310757D-02  0.202268D-01  0.105030D+00
     21 -0.124800D-02  0.165365D-02 -0.828196D-02 -0.745995D-02  0.804319D-03
               21 
     21  0.960801D-01
 Leave Link  716 at Mon Nov 13 19:51:40 2023, MaxMem=  1879048192 cpu:               0.5 elap:               0.0
 (Enter /home/sekinelabo/g16/l103.exe)

 GradGradGradGradGradGradGradGradGradGradGradGradGradGradGradGradGradGrad
 Berny optimization.
 Search for a local minimum.
 Step number   1 out of a maximum of    2
 All quantities printed in internal units (Hartrees-Bohrs-Radians)
 Second derivative matrix not updated -- first step.
 ITU=  0
     Eigenvalues ---    0.03971   0.04891   0.05152   0.15392   0.15850
     Eigenvalues ---    0.16755   0.16933   0.21353   0.22533   0.22943
     Eigenvalues ---    0.25337   0.26381   0.26961   0.29920   0.30618
 Quadratic step=3.462D-01 exceeds max=3.000D-01 adjusted using Lamda=-1.617D-02.
 Angle between NR and scaled steps=   5.91 degrees.
 Angle between quadratic step and forces=  19.43 degrees.
 Linear search not attempted -- first point.
 B after Tr=     0.000000    0.000000   -0.000000
         Rot=    1.000000   -0.000000    0.000000   -0.000000 Ang=   0.00 deg.
 Variable       Old X    -DE/DX   Delta X   Delta X   Delta X     New X
                                 (Linear)    (Quad)   (Total)
    X1        3.73718  -0.00091   0.00000  -0.02024  -0.02024   3.71694
    Y1        3.83388  -0.00364   0.00000  -0.01153  -0.01153   3.82236
    Z1        0.00000  -0.02569   0.00000  -0.10430  -0.10430  -0.10430
    X2        2.79559  -0.00565   0.00000  -0.04776  -0.04776   2.74783
    Y2        8.21556   0.02570   0.00000   0.14039   0.14039   8.35595
    Z2        2.86541  -0.00238   0.00000  -0.01196  -0.01196   2.85345
    X3       13.36955   0.00196   0.00000   0.08977   0.08977  13.45932
    Y3        4.27342  -0.00171   0.00000  -0.00740  -0.00740   4.26602
    Z3        3.42850   0.00066   0.00000   0.00530   0.00530   3.43381
    X4        7.89832   0.01380   0.00000   0.07805   0.07805   7.97636
    Y4        5.15911   0.00732   0.00000   0.03477   0.03477   5.19387
    Z4        3.06003  -0.00166   0.00000  -0.01155  -0.01155   3.04848
    X5        4.03997   0.00272   0.00000  -0.00511  -0.00511   4.03487
    Y5        4.80508   0.00026   0.00000   0.01338   0.01338   4.81846
    Z5        6.76371   0.02276   0.00000   0.09780   0.09780   6.86151
    X6        5.05649   0.00525   0.00000   0.01921   0.01921   5.07570
    Y6        0.00000  -0.02052   0.00000  -0.12535  -0.12535  -0.12535
    Z6        3.50194   0.00406   0.00000   0.01317   0.01317   3.51510
    X7        0.00000  -0.01718   0.00000  -0.11392  -0.11392  -0.11392
    Y7        3.04120  -0.00742   0.00000  -0.04427  -0.04427   2.99693
    Z7        3.72504   0.00224   0.00000   0.01154   0.01154   3.73658
         Item               Value     Threshold  Converged?
 Maximum Force            0.025704     0.000450     NO 
 RMS     Force            0.011898     0.000300     NO 
 Maximum Displacement     0.140391     0.001800     NO 
 RMS     Displacement     0.065547     0.001200     NO 
 Predicted change in Energy=-8.451478D-03
 GradGradGradGradGradGradGradGradGradGradGradGradGradGradGradGradGradGrad

 Leave Link  103 at Mon Nov 13 19:51:40 2023, MaxMem=  1879048192 cpu:               0.3 elap:               0.0
 (Enter /home/sekinelabo/g16/l9999.exe)
 1\1\GINC-SEKINELABO-XA7R-R37\Force\UB3LYP\6-311+G(d)\Na7(2)\SEKINELABO
 \13-Nov-2023\0\\#P B3LYP/6-311+g(d) force\\Gaussian input prepared by 
 ASE\\0,2\Na,1.9776281072,2.0288043669,0.\Na,1.4793607259,4.3474849364,
 1.5163100628\Na,7.0748636376,2.2613967389,1.8142851389\Na,4.17960854,2
 .7300822905,1.6192997988\Na,2.1378609688,2.5427383381,3.5792011407\Na,
 2.6757786652,0.,1.85314519\Na,0.,1.6093325158,1.9712052052\\Version=ES
 64L-G16RevB.01\State=2-A\HF=-1136.0760192\S2=0.775143\S2-1=0.\S2A=0.75
 0291\RMSD=8.043e-09\RMSF=1.190e-02\Dipole=0.3539093,-0.1346421,0.07558
 32\Quadrupole=13.2499859,-8.5761073,-4.6738786,-0.7746903,0.2540472,-0
 .8135319\PG=C01 [X(Na7)]\\@


 I HAVE NOT FAILED, I HAVE ONLY DISCOVERED 10,000
 WAYS THAT DIDN'T WORK.  -- THOMAS A. EDISON
 Job cpu time:       0 days  0 hours  5 minutes  0.8 seconds.
 Elapsed time:       0 days  0 hours  0 minutes 24.6 seconds.
 File lengths (MBytes):  RWF=     32 Int=      0 D2E=      0 Chk=      6 Scr=      1
 Normal termination of Gaussian 16 at Mon Nov 13 19:51:40 2023.
