 Entering Gaussian System, Link 0=g16
 Initial command:
 /home/sekinelabo/g16/l1.exe "/home/sekinelabo/g16temp/Gau-4066066.inp" -scrdir="/home/sekinelabo/g16temp/"
 Entering Link 1 = /home/sekinelabo/g16/l1.exe PID=   4066068.
  
 Copyright (c) 1988-2017, Gaussian, Inc.  All Rights Reserved.
  
 This is part of the Gaussian(R) 16 program.  It is based on
 the Gaussian(R) 09 system (copyright 2009, Gaussian, Inc.),
 the Gaussian(R) 03 system (copyright 2003, Gaussian, Inc.),
 the Gaussian(R) 98 system (copyright 1998, Gaussian, Inc.),
 the Gaussian(R) 94 system (copyright 1995, Gaussian, Inc.),
 the Gaussian 92(TM) system (copyright 1992, Gaussian, Inc.),
 the Gaussian 90(TM) system (copyright 1990, Gaussian, Inc.),
 the Gaussian 88(TM) system (copyright 1988, Gaussian, Inc.),
 the Gaussian 86(TM) system (copyright 1986, Carnegie Mellon
 University), and the Gaussian 82(TM) system (copyright 1983,
 Carnegie Mellon University). Gaussian is a federally registered
 trademark of Gaussian, Inc.
  
 This software contains proprietary and confidential information,
 including trade secrets, belonging to Gaussian, Inc.
  
 This software is provided under written license and may be
 used, copied, transmitted, or stored only in accord with that
 written license.
  
 The following legend is applicable only to US Government
 contracts under FAR:
  
                    RESTRICTED RIGHTS LEGEND
  
 Use, reproduction and disclosure by the US Government is
 subject to restrictions as set forth in subparagraphs (a)
 and (c) of the Commercial Computer Software - Restricted
 Rights clause in FAR 52.227-19.
  
 Gaussian, Inc.
 340 Quinnipiac St., Bldg. 40, Wallingford CT 06492
  
  
 ---------------------------------------------------------------
 Warning -- This program may not be used in any manner that
 competes with the business of Gaussian, Inc. or will provide
 assistance to any competitor of Gaussian, Inc.  The licensee
 of this program is prohibited from giving any competitor of
 Gaussian, Inc. access to this program.  By using this program,
 the user acknowledges that Gaussian, Inc. is engaged in the
 business of creating and licensing software in the field of
 computational chemistry and represents and warrants to the
 licensee that it is not a competitor of Gaussian, Inc. and that
 it will not use this program in any manner prohibited above.
 ---------------------------------------------------------------
  

 Cite this work as:
 Gaussian 16, Revision B.01,
 M. J. Frisch, G. W. Trucks, H. B. Schlegel, G. E. Scuseria, 
 M. A. Robb, J. R. Cheeseman, G. Scalmani, V. Barone, 
 G. A. Petersson, H. Nakatsuji, X. Li, M. Caricato, A. V. Marenich, 
 J. Bloino, B. G. Janesko, R. Gomperts, B. Mennucci, H. P. Hratchian, 
 J. V. Ortiz, A. F. Izmaylov, J. L. Sonnenberg, D. Williams-Young, 
 F. Ding, F. Lipparini, F. Egidi, J. Goings, B. Peng, A. Petrone, 
 T. Henderson, D. Ranasinghe, V. G. Zakrzewski, J. Gao, N. Rega, 
 G. Zheng, W. Liang, M. Hada, M. Ehara, K. Toyota, R. Fukuda, 
 J. Hasegawa, M. Ishida, T. Nakajima, Y. Honda, O. Kitao, H. Nakai, 
 T. Vreven, K. Throssell, J. A. Montgomery, Jr., J. E. Peralta, 
 F. Ogliaro, M. J. Bearpark, J. J. Heyd, E. N. Brothers, K. N. Kudin, 
 V. N. Staroverov, T. A. Keith, R. Kobayashi, J. Normand, 
 K. Raghavachari, A. P. Rendell, J. C. Burant, S. S. Iyengar, 
 J. Tomasi, M. Cossi, J. M. Millam, M. Klene, C. Adamo, R. Cammi, 
 J. W. Ochterski, R. L. Martin, K. Morokuma, O. Farkas, 
 J. B. Foresman, and D. J. Fox, Gaussian, Inc., Wallingford CT, 2016.
 
 ******************************************
 Gaussian 16:  ES64L-G16RevB.01 20-Dec-2017
                13-Nov-2023 
 ******************************************
 %mem=14GB
 %chk=checkpoint.chk
 %nprocshared=16
 Will use up to   16 processors via shared memory.
 -------------------------
 #P B3LYP/6-311+g(d) force
 -------------------------
 1/10=7,30=1,38=1/1,3;
 2/12=2,17=6,18=5,40=1/2;
 3/5=4,6=6,7=11,11=2,25=1,30=1,71=1,74=-5/1,2,3;
 4//1;
 5/5=2,38=5/2;
 6/7=2,8=2,9=2,10=2,28=1/1;
 7/29=1/1,2,3,16;
 1/10=7,30=1/3;
 99//99;
 Leave Link    1 at Mon Nov 13 16:57:25 2023, MaxMem=  1879048192 cpu:               0.3 elap:               0.0
 (Enter /home/sekinelabo/g16/l101.exe)
 ------------------------------
 Gaussian input prepared by ASE
 ------------------------------
 Symbolic Z-matrix:
 Charge =  0 Multiplicity = 2
 Na                    2.96018   1.20867   0.95727 
 Na                    3.98976   3.86042   0. 
 Na                    0.        1.02013   1.38832 
 Na                    1.35613   3.69244   1.42569 
 Na                    3.91229   3.27058   2.92936 
 Na                    6.46935   2.90165   1.40074 
 Na                    5.68773   0.        1.32447 
 
 ITRead=  0  0  0  0  0  0  0
 MicOpt= -1 -1 -1 -1 -1 -1 -1
 NAtoms=      7 NQM=        7 NQMF=       0 NMMI=      0 NMMIF=      0
                NMic=       0 NMicF=      0.
                    Isotopes and Nuclear Properties:
 (Nuclear quadrupole moments (NQMom) in fm**2, nuclear magnetic moments (NMagM)
  in nuclear magnetons)

  Atom         1           2           3           4           5           6           7
 IAtWgt=          23          23          23          23          23          23          23
 AtmWgt=  22.9897697  22.9897697  22.9897697  22.9897697  22.9897697  22.9897697  22.9897697
 NucSpn=           3           3           3           3           3           3           3
 AtZEff=  -0.0000000  -0.0000000  -0.0000000  -0.0000000  -0.0000000  -0.0000000  -0.0000000
 NQMom=   10.4000000  10.4000000  10.4000000  10.4000000  10.4000000  10.4000000  10.4000000
 NMagM=    2.2175200   2.2175200   2.2175200   2.2175200   2.2175200   2.2175200   2.2175200
 AtZNuc=  11.0000000  11.0000000  11.0000000  11.0000000  11.0000000  11.0000000  11.0000000
 Leave Link  101 at Mon Nov 13 16:57:25 2023, MaxMem=  1879048192 cpu:               2.6 elap:               0.2
 (Enter /home/sekinelabo/g16/l103.exe)

 GradGradGradGradGradGradGradGradGradGradGradGradGradGradGradGradGradGrad
 Berny optimization.
 Initialization pass.
 Trust Radius=3.00D-01 FncErr=1.00D-07 GrdErr=1.00D-07 EigMax=2.50D+02 EigMin=1.00D-04
 Number of steps in this run=      2 maximum allowed number of steps=      2.
 GradGradGradGradGradGradGradGradGradGradGradGradGradGradGradGradGradGrad

 Leave Link  103 at Mon Nov 13 16:57:25 2023, MaxMem=  1879048192 cpu:               0.2 elap:               0.0
 (Enter /home/sekinelabo/g16/l202.exe)
                          Input orientation:                          
 ---------------------------------------------------------------------
 Center     Atomic      Atomic             Coordinates (Angstroms)
 Number     Number       Type             X           Y           Z
 ---------------------------------------------------------------------
      1         11           0        2.960175    1.208675    0.957268
      2         11           0        3.989758    3.860420    0.000000
      3         11           0        0.000000    1.020127    1.388320
      4         11           0        1.356126    3.692441    1.425686
      5         11           0        3.912294    3.270581    2.929357
      6         11           0        6.469354    2.901653    1.400739
      7         11           0        5.687728    0.000000    1.324474
 ---------------------------------------------------------------------
                    Distance matrix (angstroms):
                    1          2          3          4          5
     1  Na   0.000000
     2  Na   3.001359   0.000000
     3  Na   2.997331   5.090468   0.000000
     4  Na   2.993574   2.999469   2.996955   0.000000
     5  Na   3.007843   2.989155   4.769212   2.995494   0.000000
     6  Na   3.921374   3.004946   6.737420   5.174076   3.001889
     7  Na   3.005874   4.420428   5.778839   5.692727   4.052717
                    6          7
     6  Na   0.000000
     7  Na   3.006051   0.000000
 Stoichiometry    Na7(2)
 Framework group  C1[X(Na7)]
 Deg. of freedom    15
 Full point group                 C1      NOp   1
 Largest Abelian subgroup         C1      NOp   1
 Largest concise Abelian subgroup C1      NOp   1
                         Standard orientation:                         
 ---------------------------------------------------------------------
 Center     Atomic      Atomic             Coordinates (Angstroms)
 Number     Number       Type             X           Y           Z
 ---------------------------------------------------------------------
      1         11           0        0.522030    1.070453   -0.389281
      2         11           0       -0.507553   -1.581292   -1.346549
      3         11           0        3.482205    1.259001    0.041771
      4         11           0        2.126079   -1.413313    0.079137
      5         11           0       -0.430089   -0.991453    1.582808
      6         11           0       -2.987149   -0.622525    0.054190
      7         11           0       -2.205523    2.279128   -0.022075
 ---------------------------------------------------------------------
 Rotational constants (GHZ):           1.2028695           0.6169756           0.4891335
 Leave Link  202 at Mon Nov 13 16:57:25 2023, MaxMem=  1879048192 cpu:               0.1 elap:               0.0
 (Enter /home/sekinelabo/g16/l301.exe)
 Standard basis: 6-311+G(d) (5D, 7F)
 Ernie: Thresh=  0.10000D-02 Tol=  0.10000D-05 Strict=F.
 There are   217 symmetry adapted cartesian basis functions of A   symmetry.
 There are   210 symmetry adapted basis functions of A   symmetry.
   210 basis functions,   350 primitive gaussians,   217 cartesian basis functions
    39 alpha electrons       38 beta electrons
       nuclear repulsion energy       372.9472824345 Hartrees.
 IExCor=  402 DFT=T Ex+Corr=B3LYP ExCW=0 ScaHFX=  0.200000
 ScaDFX=  0.800000  0.720000  1.000000  0.810000 ScalE2=  1.000000  1.000000
 IRadAn=      5 IRanWt=     -1 IRanGd=            0 ICorTp=0 IEmpDi=  4
 NAtoms=    7 NActive=    7 NUniq=    7 SFac= 1.00D+00 NAtFMM=   60 NAOKFM=F Big=F
 Integral buffers will be    131072 words long.
 Raffenetti 2 integral format.
 Two-electron integral symmetry is turned on.
 Leave Link  301 at Mon Nov 13 16:57:25 2023, MaxMem=  1879048192 cpu:               0.5 elap:               0.0
 (Enter /home/sekinelabo/g16/l302.exe)
 NPDir=0 NMtPBC=     1 NCelOv=     1 NCel=       1 NClECP=     1 NCelD=      1
         NCelK=      1 NCelE2=     1 NClLst=     1 CellRange=     0.0.
 One-electron integrals computed using PRISM.
 One-electron integral symmetry used in STVInt
 NBasis=   210 RedAO= T EigKep=  1.92D-06  NBF=   210
 NBsUse=   210 1.00D-06 EigRej= -1.00D+00 NBFU=   210
 Precomputing XC quadrature grid using
 IXCGrd= 4 IRadAn=           5 IRanWt=          -1 IRanGd=           0 AccXCQ= 0.00D+00.
 Generated NRdTot=       0 NPtTot=           0 NUsed=           0 NTot=          32
 NSgBfM=   211   211   211   211   211 MxSgAt=     7 MxSgA2=     7.
 Leave Link  302 at Mon Nov 13 16:57:26 2023, MaxMem=  1879048192 cpu:               2.3 elap:               0.1
 (Enter /home/sekinelabo/g16/l303.exe)
 DipDrv:  MaxL=1.
 Leave Link  303 at Mon Nov 13 16:57:26 2023, MaxMem=  1879048192 cpu:               0.5 elap:               0.0
 (Enter /home/sekinelabo/g16/l401.exe)
 ExpMin= 7.60D-03 ExpMax= 3.62D+04 ExpMxC= 1.21D+03 IAcc=3 IRadAn=         5 AccDes= 0.00D+00
 Harris functional with IExCor=  402 and IRadAn=       5 diagonalized for initial guess.
 HarFok:  IExCor=  402 AccDes= 0.00D+00 IRadAn=         5 IDoV= 1 UseB2=F ITyADJ=14
 ICtDFT=  3500011 ScaDFX=  1.000000  1.000000  1.000000  1.000000
 FoFCou: FMM=F IPFlag=           0 FMFlag=      100000 FMFlg1=           0
         NFxFlg=           0 DoJE=T BraDBF=F KetDBF=T FulRan=T
         wScrn=  0.000000 ICntrl=       500 IOpCl=  0 I1Cent=   200000004 NGrid=           0
         NMat0=    1 NMatS0=      1 NMatT0=    0 NMatD0=    1 NMtDS0=    0 NMtDT0=    0
 Petite list used in FoFCou.
 Harris En= -1135.87051139614    
 JPrj=0 DoOrth=F DoCkMO=F.
 Initial guess <Sx>= 0.0000 <Sy>= 0.0000 <Sz>= 0.5000 <S**2>= 0.7500 S= 0.5000
 Leave Link  401 at Mon Nov 13 16:57:26 2023, MaxMem=  1879048192 cpu:               4.8 elap:               0.3
 (Enter /home/sekinelabo/g16/l502.exe)
 Keep R1 and R2 ints in memory in canonical form, NReq=507620374.
 FoFCou: FMM=F IPFlag=           0 FMFlag=           0 FMFlg1=           0
         NFxFlg=           0 DoJE=F BraDBF=F KetDBF=F FulRan=T
         wScrn=  0.000000 ICntrl=       600 IOpCl=  0 I1Cent=           0 NGrid=           0
         NMat0=    1 NMatS0=  22155 NMatT0=    0 NMatD0=    1 NMtDS0=    0 NMtDT0=    0
 Symmetry not used in FoFCou.
 Two-electron integral symmetry not used.
 UHF open shell SCF:
 Using DIIS extrapolation, IDIIS=  1040.
 NGot=  1879048192 LenX=  1388082362 LenY=  1388034832
 Requested convergence on RMS density matrix=1.00D-08 within 128 cycles.
 Requested convergence on MAX density matrix=1.00D-06.
 Requested convergence on             energy=1.00D-06.
 No special actions if energy rises.

 Cycle   1  Pass 1  IDiag  1:
 E= -1136.05185749528    
 DIIS: error= 1.34D-02 at cycle   1 NSaved=   1.
 NSaved= 1 IEnMin= 1 EnMin= -1136.05185749528     IErMin= 1 ErrMin= 1.34D-02
 ErrMax= 1.34D-02  0.00D+00 EMaxC= 1.00D-01 BMatC= 2.05D-01 BMatP= 2.05D-01
 IDIUse=3 WtCom= 8.66D-01 WtEn= 1.34D-01
 Coeff-Com:  0.100D+01
 Coeff-En:   0.100D+01
 Coeff:      0.100D+01
 Gap=     0.020 Goal=   None    Shift=    0.000
 Gap=     0.056 Goal=   None    Shift=    0.000
 GapD=    0.020 DampG=0.250 DampE=0.500 DampFc=0.2500 IDamp=-1.
 Damping current iteration by 2.50D-01
 RMSDP=7.52D-02 MaxDP=7.90D+00              OVMax= 2.88D-01

 Cycle   2  Pass 1  IDiag  1:
 E= -1136.06790660630     Delta-E=       -0.016049111021 Rises=F Damp=T
 DIIS: error= 9.45D-03 at cycle   2 NSaved=   2.
 NSaved= 2 IEnMin= 2 EnMin= -1136.06790660630     IErMin= 2 ErrMin= 9.45D-03
 ErrMax= 9.45D-03  0.00D+00 EMaxC= 1.00D-01 BMatC= 7.63D-02 BMatP= 2.05D-01
 IDIUse=3 WtCom= 9.05D-01 WtEn= 9.45D-02
 Coeff-Com: -0.121D+01 0.221D+01
 Coeff-En:   0.000D+00 0.100D+01
 Coeff:     -0.109D+01 0.209D+01
 Gap=     0.040 Goal=   None    Shift=    0.000
 Gap=     0.053 Goal=   None    Shift=    0.000
 RMSDP=3.10D-02 MaxDP=3.80D+00 DE=-1.60D-02 OVMax= 2.12D-01

 Cycle   3  Pass 1  IDiag  1:
 E= -1136.09230343629     Delta-E=       -0.024396829986 Rises=F Damp=F
 DIIS: error= 4.34D-03 at cycle   3 NSaved=   3.
 NSaved= 3 IEnMin= 3 EnMin= -1136.09230343629     IErMin= 3 ErrMin= 4.34D-03
 ErrMax= 4.34D-03  0.00D+00 EMaxC= 1.00D-01 BMatC= 6.85D-03 BMatP= 7.63D-02
 IDIUse=3 WtCom= 9.57D-01 WtEn= 4.34D-02
 Coeff-Com: -0.367D+00 0.660D+00 0.707D+00
 Coeff-En:   0.000D+00 0.000D+00 0.100D+01
 Coeff:     -0.351D+00 0.631D+00 0.720D+00
 Gap=     0.032 Goal=   None    Shift=    0.000
 Gap=     0.054 Goal=   None    Shift=    0.000
 RMSDP=1.62D-02 MaxDP=1.70D+00 DE=-2.44D-02 OVMax= 9.26D-02

 Cycle   4  Pass 1  IDiag  1:
 E= -1136.09418037329     Delta-E=       -0.001876936995 Rises=F Damp=F
 DIIS: error= 2.92D-03 at cycle   4 NSaved=   4.
 NSaved= 4 IEnMin= 4 EnMin= -1136.09418037329     IErMin= 4 ErrMin= 2.92D-03
 ErrMax= 2.92D-03  0.00D+00 EMaxC= 1.00D-01 BMatC= 3.78D-03 BMatP= 6.85D-03
 IDIUse=3 WtCom= 9.71D-01 WtEn= 2.92D-02
 Coeff-Com: -0.780D-02 0.129D-01 0.425D+00 0.570D+00
 Coeff-En:   0.000D+00 0.000D+00 0.390D+00 0.610D+00
 Coeff:     -0.757D-02 0.125D-01 0.424D+00 0.572D+00
 Gap=     0.036 Goal=   None    Shift=    0.000
 Gap=     0.050 Goal=   None    Shift=    0.000
 RMSDP=5.47D-03 MaxDP=6.49D-01 DE=-1.88D-03 OVMax= 5.75D-02

 Cycle   5  Pass 1  IDiag  1:
 E= -1136.09656175036     Delta-E=       -0.002381377079 Rises=F Damp=F
 DIIS: error= 8.94D-04 at cycle   5 NSaved=   5.
 NSaved= 5 IEnMin= 5 EnMin= -1136.09656175036     IErMin= 5 ErrMin= 8.94D-04
 ErrMax= 8.94D-04  0.00D+00 EMaxC= 1.00D-01 BMatC= 2.87D-04 BMatP= 3.78D-03
 IDIUse=3 WtCom= 9.91D-01 WtEn= 8.94D-03
 Coeff-Com: -0.204D-02 0.217D-02 0.282D+00 0.393D+00 0.325D+00
 Coeff-En:   0.000D+00 0.000D+00 0.000D+00 0.300D-01 0.970D+00
 Coeff:     -0.202D-02 0.215D-02 0.279D+00 0.390D+00 0.331D+00
 Gap=     0.036 Goal=   None    Shift=    0.000
 Gap=     0.050 Goal=   None    Shift=    0.000
 RMSDP=1.09D-03 MaxDP=7.48D-02 DE=-2.38D-03 OVMax= 2.07D-02

 Cycle   6  Pass 1  IDiag  1:
 E= -1136.09690514532     Delta-E=       -0.000343394957 Rises=F Damp=F
 DIIS: error= 1.18D-04 at cycle   6 NSaved=   6.
 NSaved= 6 IEnMin= 6 EnMin= -1136.09690514532     IErMin= 6 ErrMin= 1.18D-04
 ErrMax= 1.18D-04  0.00D+00 EMaxC= 1.00D-01 BMatC= 6.11D-06 BMatP= 2.87D-04
 IDIUse=3 WtCom= 9.99D-01 WtEn= 1.18D-03
 Coeff-Com: -0.179D-02 0.198D-02 0.358D-01 0.491D-01 0.120D+00 0.795D+00
 Coeff-En:   0.000D+00 0.000D+00 0.000D+00 0.000D+00 0.000D+00 0.100D+01
 Coeff:     -0.179D-02 0.198D-02 0.358D-01 0.491D-01 0.120D+00 0.795D+00
 Gap=     0.036 Goal=   None    Shift=    0.000
 Gap=     0.050 Goal=   None    Shift=    0.000
 RMSDP=4.56D-04 MaxDP=3.49D-02 DE=-3.43D-04 OVMax= 4.97D-03

 Cycle   7  Pass 1  IDiag  1:
 E= -1136.09691087637     Delta-E=       -0.000005731051 Rises=F Damp=F
 DIIS: error= 1.34D-04 at cycle   7 NSaved=   7.
 NSaved= 7 IEnMin= 7 EnMin= -1136.09691087637     IErMin= 6 ErrMin= 1.18D-04
 ErrMax= 1.34D-04  0.00D+00 EMaxC= 1.00D-01 BMatC= 4.15D-06 BMatP= 6.11D-06
 IDIUse=3 WtCom= 9.99D-01 WtEn= 1.18D-03
 Coeff-Com: -0.126D-02 0.151D-02-0.253D-01-0.356D-01 0.249D-01 0.545D+00
 Coeff-Com:  0.491D+00
 Coeff-En:   0.000D+00 0.000D+00 0.000D+00 0.000D+00 0.000D+00 0.229D+00
 Coeff-En:   0.771D+00
 Coeff:     -0.126D-02 0.150D-02-0.253D-01-0.356D-01 0.248D-01 0.545D+00
 Coeff:      0.491D+00
 Gap=     0.036 Goal=   None    Shift=    0.000
 Gap=     0.050 Goal=   None    Shift=    0.000
 RMSDP=1.66D-04 MaxDP=1.11D-02 DE=-5.73D-06 OVMax= 3.21D-03

 Cycle   8  Pass 1  IDiag  1:
 E= -1136.09691664309     Delta-E=       -0.000005766720 Rises=F Damp=F
 DIIS: error= 4.04D-05 at cycle   8 NSaved=   8.
 NSaved= 8 IEnMin= 8 EnMin= -1136.09691664309     IErMin= 8 ErrMin= 4.04D-05
 ErrMax= 4.04D-05  0.00D+00 EMaxC= 1.00D-01 BMatC= 2.45D-07 BMatP= 4.15D-06
 IDIUse=1 WtCom= 1.00D+00 WtEn= 0.00D+00
 Coeff-Com:  0.239D-03-0.300D-03-0.742D-02-0.870D-02-0.183D-01-0.122D+00
 Coeff-Com:  0.669D-01 0.109D+01
 Coeff:      0.239D-03-0.300D-03-0.742D-02-0.870D-02-0.183D-01-0.122D+00
 Coeff:      0.669D-01 0.109D+01
 Gap=     0.036 Goal=   None    Shift=    0.000
 Gap=     0.050 Goal=   None    Shift=    0.000
 RMSDP=1.27D-04 MaxDP=7.65D-03 DE=-5.77D-06 OVMax= 2.94D-03

 Cycle   9  Pass 1  IDiag  1:
 E= -1136.09691823267     Delta-E=       -0.000001589578 Rises=F Damp=F
 DIIS: error= 2.11D-05 at cycle   9 NSaved=   9.
 NSaved= 9 IEnMin= 9 EnMin= -1136.09691823267     IErMin= 9 ErrMin= 2.11D-05
 ErrMax= 2.11D-05  0.00D+00 EMaxC= 1.00D-01 BMatC= 7.53D-08 BMatP= 2.45D-07
 IDIUse=1 WtCom= 1.00D+00 WtEn= 0.00D+00
 Coeff-Com:  0.573D-03-0.721D-03 0.357D-02 0.510D-02-0.121D-01-0.133D+00
 Coeff-Com: -0.798D-01 0.957D-01 0.112D+01
 Coeff:      0.573D-03-0.721D-03 0.357D-02 0.510D-02-0.121D-01-0.133D+00
 Coeff:     -0.798D-01 0.957D-01 0.112D+01
 Gap=     0.036 Goal=   None    Shift=    0.000
 Gap=     0.050 Goal=   None    Shift=    0.000
 RMSDP=9.11D-05 MaxDP=5.56D-03 DE=-1.59D-06 OVMax= 2.18D-03

 Cycle  10  Pass 1  IDiag  1:
 E= -1136.09691905305     Delta-E=       -0.000000820379 Rises=F Damp=F
 DIIS: error= 1.23D-05 at cycle  10 NSaved=  10.
 NSaved=10 IEnMin=10 EnMin= -1136.09691905305     IErMin=10 ErrMin= 1.23D-05
 ErrMax= 1.23D-05  0.00D+00 EMaxC= 1.00D-01 BMatC= 3.15D-08 BMatP= 7.53D-08
 IDIUse=1 WtCom= 1.00D+00 WtEn= 0.00D+00
 Coeff-Com: -0.119D-04 0.306D-04 0.315D-02 0.358D-02 0.458D-02 0.790D-02
 Coeff-Com: -0.416D-01-0.321D+00 0.220D+00 0.112D+01
 Coeff:     -0.119D-04 0.306D-04 0.315D-02 0.358D-02 0.458D-02 0.790D-02
 Coeff:     -0.416D-01-0.321D+00 0.220D+00 0.112D+01
 Gap=     0.036 Goal=   None    Shift=    0.000
 Gap=     0.050 Goal=   None    Shift=    0.000
 RMSDP=6.00D-05 MaxDP=4.06D-03 DE=-8.20D-07 OVMax= 1.80D-03

 Cycle  11  Pass 1  IDiag  1:
 E= -1136.09691946746     Delta-E=       -0.000000414406 Rises=F Damp=F
 DIIS: error= 6.50D-06 at cycle  11 NSaved=  11.
 NSaved=11 IEnMin=11 EnMin= -1136.09691946746     IErMin=11 ErrMin= 6.50D-06
 ErrMax= 6.50D-06  0.00D+00 EMaxC= 1.00D-01 BMatC= 1.41D-08 BMatP= 3.15D-08
 IDIUse=1 WtCom= 1.00D+00 WtEn= 0.00D+00
 Coeff-Com: -0.347D-03 0.449D-03-0.322D-03-0.741D-03 0.921D-02 0.640D-01
 Coeff-Com:  0.157D-01-0.184D+00-0.412D+00 0.386D+00 0.112D+01
 Coeff:     -0.347D-03 0.449D-03-0.322D-03-0.741D-03 0.921D-02 0.640D-01
 Coeff:      0.157D-01-0.184D+00-0.412D+00 0.386D+00 0.112D+01
 Gap=     0.036 Goal=   None    Shift=    0.000
 Gap=     0.050 Goal=   None    Shift=    0.000
 RMSDP=5.25D-05 MaxDP=3.12D-03 DE=-4.14D-07 OVMax= 1.59D-03

 Cycle  12  Pass 1  IDiag  1:
 E= -1136.09691967332     Delta-E=       -0.000000205867 Rises=F Damp=F
 DIIS: error= 3.56D-06 at cycle  12 NSaved=  12.
 NSaved=12 IEnMin=12 EnMin= -1136.09691967332     IErMin=12 ErrMin= 3.56D-06
 ErrMax= 3.56D-06  0.00D+00 EMaxC= 1.00D-01 BMatC= 4.88D-09 BMatP= 1.41D-08
 IDIUse=1 WtCom= 1.00D+00 WtEn= 0.00D+00
 Coeff-Com: -0.132D-03 0.165D-03-0.668D-03-0.824D-03 0.275D-02 0.240D-01
 Coeff-Com:  0.147D-01-0.698D-02-0.215D+00-0.921D-01 0.441D+00 0.833D+00
 Coeff:     -0.132D-03 0.165D-03-0.668D-03-0.824D-03 0.275D-02 0.240D-01
 Coeff:      0.147D-01-0.698D-02-0.215D+00-0.921D-01 0.441D+00 0.833D+00
 Gap=     0.036 Goal=   None    Shift=    0.000
 Gap=     0.050 Goal=   None    Shift=    0.000
 RMSDP=1.91D-05 MaxDP=1.50D-03 DE=-2.06D-07 OVMax= 6.64D-04

 Cycle  13  Pass 1  IDiag  1:
 E= -1136.09691972269     Delta-E=       -0.000000049367 Rises=F Damp=F
 DIIS: error= 2.80D-06 at cycle  13 NSaved=  13.
 NSaved=13 IEnMin=13 EnMin= -1136.09691972269     IErMin=13 ErrMin= 2.80D-06
 ErrMax= 2.80D-06  0.00D+00 EMaxC= 1.00D-01 BMatC= 2.17D-09 BMatP= 4.88D-09
 IDIUse=1 WtCom= 1.00D+00 WtEn= 0.00D+00
 Coeff-Com:  0.140D-03-0.184D-03-0.996D-04 0.104D-03-0.436D-02-0.268D-01
 Coeff-Com: -0.194D-02 0.111D+00 0.119D+00-0.249D+00-0.447D+00 0.296D+00
 Coeff-Com:  0.120D+01
 Coeff:      0.140D-03-0.184D-03-0.996D-04 0.104D-03-0.436D-02-0.268D-01
 Coeff:     -0.194D-02 0.111D+00 0.119D+00-0.249D+00-0.447D+00 0.296D+00
 Coeff:      0.120D+01
 Gap=     0.036 Goal=   None    Shift=    0.000
 Gap=     0.050 Goal=   None    Shift=    0.000
 RMSDP=1.78D-05 MaxDP=1.20D-03 DE=-4.94D-08 OVMax= 6.75D-04

 Cycle  14  Pass 1  IDiag  1:
 E= -1136.09691975443     Delta-E=       -0.000000031740 Rises=F Damp=F
 DIIS: error= 1.46D-06 at cycle  14 NSaved=  14.
 NSaved=14 IEnMin=14 EnMin= -1136.09691975443     IErMin=14 ErrMin= 1.46D-06
 ErrMax= 1.46D-06  0.00D+00 EMaxC= 1.00D-01 BMatC= 5.37D-10 BMatP= 2.17D-09
 IDIUse=1 WtCom= 1.00D+00 WtEn= 0.00D+00
 Coeff-Com:  0.194D-04-0.220D-04-0.155D-04-0.593D-04-0.528D-03-0.337D-02
 Coeff-Com: -0.206D-02-0.121D-01 0.712D-01 0.525D-01-0.979D-01-0.381D+00
 Coeff-Com: -0.172D+00 0.154D+01
 Coeff:      0.194D-04-0.220D-04-0.155D-04-0.593D-04-0.528D-03-0.337D-02
 Coeff:     -0.206D-02-0.121D-01 0.712D-01 0.525D-01-0.979D-01-0.381D+00
 Coeff:     -0.172D+00 0.154D+01
 Gap=     0.036 Goal=   None    Shift=    0.000
 Gap=     0.050 Goal=   None    Shift=    0.000
 RMSDP=1.29D-05 MaxDP=9.81D-04 DE=-3.17D-08 OVMax= 4.43D-04

 Cycle  15  Pass 1  IDiag  1:
 E= -1136.09691976442     Delta-E=       -0.000000009986 Rises=F Damp=F
 DIIS: error= 7.07D-07 at cycle  15 NSaved=  15.
 NSaved=15 IEnMin=15 EnMin= -1136.09691976442     IErMin=15 ErrMin= 7.07D-07
 ErrMax= 7.07D-07  0.00D+00 EMaxC= 1.00D-01 BMatC= 8.58D-11 BMatP= 5.37D-10
 IDIUse=1 WtCom= 1.00D+00 WtEn= 0.00D+00
 Coeff-Com: -0.216D-04 0.285D-04 0.111D-03 0.726D-04 0.988D-03 0.465D-02
 Coeff-Com:  0.447D-03-0.234D-01-0.314D-01 0.515D-01 0.112D+00-0.285D-01
 Coeff-Com: -0.219D+00-0.233D+00 0.137D+01
 Coeff:     -0.216D-04 0.285D-04 0.111D-03 0.726D-04 0.988D-03 0.465D-02
 Coeff:      0.447D-03-0.234D-01-0.314D-01 0.515D-01 0.112D+00-0.285D-01
 Coeff:     -0.219D+00-0.233D+00 0.137D+01
 Gap=     0.036 Goal=   None    Shift=    0.000
 Gap=     0.050 Goal=   None    Shift=    0.000
 RMSDP=5.29D-06 MaxDP=3.56D-04 DE=-9.99D-09 OVMax= 1.46D-04

 Cycle  16  Pass 1  IDiag  1:
 E= -1136.09691976562     Delta-E=       -0.000000001208 Rises=F Damp=F
 DIIS: error= 2.55D-07 at cycle  16 NSaved=  16.
 NSaved=16 IEnMin=16 EnMin= -1136.09691976562     IErMin=16 ErrMin= 2.55D-07
 ErrMax= 2.55D-07  0.00D+00 EMaxC= 1.00D-01 BMatC= 1.45D-11 BMatP= 8.58D-11
 IDIUse=1 WtCom= 1.00D+00 WtEn= 0.00D+00
 Coeff-Com: -0.545D-05 0.666D-05 0.157D-05 0.500D-05 0.803D-04 0.827D-03
 Coeff-Com:  0.375D-03 0.409D-02-0.146D-01-0.144D-01 0.182D-01 0.747D-01
 Coeff-Com:  0.450D-01-0.315D+00 0.892D-01 0.111D+01
 Coeff:     -0.545D-05 0.666D-05 0.157D-05 0.500D-05 0.803D-04 0.827D-03
 Coeff:      0.375D-03 0.409D-02-0.146D-01-0.144D-01 0.182D-01 0.747D-01
 Coeff:      0.450D-01-0.315D+00 0.892D-01 0.111D+01
 Gap=     0.036 Goal=   None    Shift=    0.000
 Gap=     0.050 Goal=   None    Shift=    0.000
 RMSDP=1.75D-06 MaxDP=1.77D-04 DE=-1.21D-09 OVMax= 3.38D-05

 Cycle  17  Pass 1  IDiag  1:
 E= -1136.09691976576     Delta-E=       -0.000000000139 Rises=F Damp=F
 DIIS: error= 1.07D-07 at cycle  17 NSaved=  17.
 NSaved=17 IEnMin=17 EnMin= -1136.09691976576     IErMin=17 ErrMin= 1.07D-07
 ErrMax= 1.07D-07  0.00D+00 EMaxC= 1.00D-01 BMatC= 3.85D-12 BMatP= 1.45D-11
 IDIUse=1 WtCom= 1.00D+00 WtEn= 0.00D+00
 Coeff-Com:  0.122D-05-0.177D-05-0.371D-04-0.321D-04-0.102D-03-0.296D-03
 Coeff-Com:  0.218D-03 0.294D-02 0.337D-02-0.982D-02-0.129D-01 0.874D-02
 Coeff-Com:  0.375D-01 0.950D-02-0.209D+00 0.124D+00 0.105D+01
 Coeff:      0.122D-05-0.177D-05-0.371D-04-0.321D-04-0.102D-03-0.296D-03
 Coeff:      0.218D-03 0.294D-02 0.337D-02-0.982D-02-0.129D-01 0.874D-02
 Coeff:      0.375D-01 0.950D-02-0.209D+00 0.124D+00 0.105D+01
 Gap=     0.036 Goal=   None    Shift=    0.000
 Gap=     0.050 Goal=   None    Shift=    0.000
 RMSDP=7.37D-07 MaxDP=6.08D-05 DE=-1.39D-10 OVMax= 1.63D-05

 Cycle  18  Pass 1  IDiag  1:
 E= -1136.09691976577     Delta-E=       -0.000000000009 Rises=F Damp=F
 DIIS: error= 6.08D-08 at cycle  18 NSaved=  18.
 NSaved=18 IEnMin=18 EnMin= -1136.09691976577     IErMin=18 ErrMin= 6.08D-08
 ErrMax= 6.08D-08  0.00D+00 EMaxC= 1.00D-01 BMatC= 1.21D-12 BMatP= 3.85D-12
 IDIUse=1 WtCom= 1.00D+00 WtEn= 0.00D+00
 Coeff-Com:  0.367D-05-0.465D-05-0.439D-05-0.233D-05-0.805D-04-0.659D-03
 Coeff-Com: -0.172D-03 0.268D-03 0.665D-02 0.368D-03-0.112D-01-0.220D-01
 Coeff-Com:  0.309D-02 0.975D-01-0.817D-01-0.346D+00 0.201D+00 0.115D+01
 Coeff:      0.367D-05-0.465D-05-0.439D-05-0.233D-05-0.805D-04-0.659D-03
 Coeff:     -0.172D-03 0.268D-03 0.665D-02 0.368D-03-0.112D-01-0.220D-01
 Coeff:      0.309D-02 0.975D-01-0.817D-01-0.346D+00 0.201D+00 0.115D+01
 Gap=     0.036 Goal=   None    Shift=    0.000
 Gap=     0.050 Goal=   None    Shift=    0.000
 RMSDP=4.74D-07 MaxDP=2.98D-05 DE=-8.87D-12 OVMax= 1.48D-05

 Cycle  19  Pass 1  IDiag  1:
 E= -1136.09691976580     Delta-E=       -0.000000000032 Rises=F Damp=F
 DIIS: error= 3.89D-08 at cycle  19 NSaved=  19.
 NSaved=19 IEnMin=19 EnMin= -1136.09691976580     IErMin=19 ErrMin= 3.89D-08
 ErrMax= 3.89D-08  0.00D+00 EMaxC= 1.00D-01 BMatC= 2.72D-13 BMatP= 1.21D-12
 IDIUse=1 WtCom= 1.00D+00 WtEn= 0.00D+00
 Coeff-Com: -0.129D-05 0.172D-05 0.923D-05 0.708D-05 0.392D-04 0.257D-03
 Coeff-Com:  0.125D-04-0.129D-02-0.169D-02 0.354D-02 0.554D-02-0.446D-02
 Coeff-Com: -0.104D-01-0.468D-02 0.625D-01-0.274D-01-0.256D+00-0.147D+00
 Coeff-Com:  0.138D+01
 Coeff:     -0.129D-05 0.172D-05 0.923D-05 0.708D-05 0.392D-04 0.257D-03
 Coeff:      0.125D-04-0.129D-02-0.169D-02 0.354D-02 0.554D-02-0.446D-02
 Coeff:     -0.104D-01-0.468D-02 0.625D-01-0.274D-01-0.256D+00-0.147D+00
 Coeff:      0.138D+01
 Gap=     0.036 Goal=   None    Shift=    0.000
 Gap=     0.050 Goal=   None    Shift=    0.000
 RMSDP=2.82D-07 MaxDP=1.49D-05 DE=-3.18D-11 OVMax= 1.02D-05

 Cycle  20  Pass 1  IDiag  1:
 E= -1136.09691976581     Delta-E=       -0.000000000010 Rises=F Damp=F
 DIIS: error= 2.03D-08 at cycle  20 NSaved=  20.
 NSaved=20 IEnMin=20 EnMin= -1136.09691976581     IErMin=20 ErrMin= 2.03D-08
 ErrMax= 2.03D-08  0.00D+00 EMaxC= 1.00D-01 BMatC= 5.07D-14 BMatP= 2.72D-13
 IDIUse=1 WtCom= 1.00D+00 WtEn= 0.00D+00
 Coeff-Com: -0.364D-06 0.445D-06-0.111D-05-0.648D-06-0.214D-06 0.394D-04
 Coeff-Com:  0.217D-04 0.322D-03-0.422D-03-0.136D-02 0.521D-03 0.394D-02
 Coeff-Com:  0.280D-02-0.126D-01-0.833D-02 0.774D-01 0.285D-01-0.206D+00
 Coeff-Com: -0.309D+00 0.142D+01
 Coeff:     -0.364D-06 0.445D-06-0.111D-05-0.648D-06-0.214D-06 0.394D-04
 Coeff:      0.217D-04 0.322D-03-0.422D-03-0.136D-02 0.521D-03 0.394D-02
 Coeff:      0.280D-02-0.126D-01-0.833D-02 0.774D-01 0.285D-01-0.206D+00
 Coeff:     -0.309D+00 0.142D+01
 Gap=     0.036 Goal=   None    Shift=    0.000
 Gap=     0.050 Goal=   None    Shift=    0.000
 RMSDP=1.36D-07 MaxDP=6.76D-06 DE=-1.05D-11 OVMax= 5.07D-06

 Cycle  21  Pass 1  IDiag  1:
 E= -1136.09691976581     Delta-E=        0.000000000010 Rises=F Damp=F
 DIIS: error= 9.18D-09 at cycle  21 NSaved=  20.
 NSaved=20 IEnMin=19 EnMin= -1136.09691976581     IErMin=20 ErrMin= 9.18D-09
 ErrMax= 9.18D-09  0.00D+00 EMaxC= 1.00D-01 BMatC= 1.12D-14 BMatP= 5.07D-14
 IDIUse=1 WtCom= 1.00D+00 WtEn= 0.00D+00
 Large coefficients: NSaved= 20 BigCof=    0.00 CofMax=   10.00 Det=-6.59D-15
 Inversion failed.  Reducing to 19 matrices.
 Large coefficients: NSaved= 19 BigCof=    0.00 CofMax=   10.00 Det=-6.69D-15
 Inversion failed.  Reducing to 18 matrices.
 Large coefficients: NSaved= 18 BigCof=    0.00 CofMax=   10.00 Det=-6.72D-15
 Inversion failed.  Reducing to 17 matrices.
 Large coefficients: NSaved= 17 BigCof=    0.00 CofMax=   10.00 Det=-7.37D-15
 Inversion failed.  Reducing to 16 matrices.
 Large coefficients: NSaved= 16 BigCof=    0.00 CofMax=   10.00 Det=-7.47D-15
 Inversion failed.  Reducing to 15 matrices.
 Coeff-Com: -0.828D-05-0.531D-04 0.923D-04 0.130D-03-0.304D-03-0.295D-03
 Coeff-Com:  0.953D-03-0.168D-03-0.208D-02-0.284D-02 0.156D-01 0.270D-01
 Coeff-Com: -0.881D-01-0.279D+00 0.133D+01
 Coeff:     -0.828D-05-0.531D-04 0.923D-04 0.130D-03-0.304D-03-0.295D-03
 Coeff:      0.953D-03-0.168D-03-0.208D-02-0.284D-02 0.156D-01 0.270D-01
 Coeff:     -0.881D-01-0.279D+00 0.133D+01
 Gap=     0.036 Goal=   None    Shift=    0.000
 Gap=     0.050 Goal=   None    Shift=    0.000
 RMSDP=7.26D-08 MaxDP=4.10D-06 DE= 9.55D-12 OVMax= 2.12D-06

 Cycle  22  Pass 1  IDiag  1:
 E= -1136.09691976581     Delta-E=       -0.000000000009 Rises=F Damp=F
 DIIS: error= 3.99D-09 at cycle  22 NSaved=  16.
 NSaved=16 IEnMin=14 EnMin= -1136.09691976581     IErMin=16 ErrMin= 3.99D-09
 ErrMax= 3.99D-09  0.00D+00 EMaxC= 1.00D-01 BMatC= 3.29D-15 BMatP= 1.12D-14
 IDIUse=1 WtCom= 1.00D+00 WtEn= 0.00D+00
 Large coefficients: NSaved= 16 BigCof=    0.00 CofMax=   10.00 Det=-3.32D-15
 Inversion failed.  Reducing to 15 matrices.
 Coeff-Com: -0.358D-04 0.772D-04 0.141D-05-0.116D-03-0.249D-03 0.256D-03
 Coeff-Com:  0.981D-03-0.964D-03-0.936D-02 0.503D-03 0.426D-01 0.326D-01
 Coeff-Com: -0.352D+00 0.203D+00 0.108D+01
 Coeff:     -0.358D-04 0.772D-04 0.141D-05-0.116D-03-0.249D-03 0.256D-03
 Coeff:      0.981D-03-0.964D-03-0.936D-02 0.503D-03 0.426D-01 0.326D-01
 Coeff:     -0.352D+00 0.203D+00 0.108D+01
 Gap=     0.036 Goal=   None    Shift=    0.000
 Gap=     0.050 Goal=   None    Shift=    0.000
 RMSDP=3.61D-08 MaxDP=1.83D-06 DE=-8.64D-12 OVMax= 9.58D-07

 Cycle  23  Pass 1  IDiag  1:
 E= -1136.09691976579     Delta-E=        0.000000000019 Rises=F Damp=F
 DIIS: error= 1.52D-09 at cycle  23 NSaved=  16.
 NSaved=16 IEnMin=13 EnMin= -1136.09691976581     IErMin=16 ErrMin= 1.52D-09
 ErrMax= 1.52D-09  0.00D+00 EMaxC= 1.00D-01 BMatC= 1.01D-15 BMatP= 3.29D-15
 IDIUse=1 WtCom= 1.00D+00 WtEn= 0.00D+00
 Large coefficients: NSaved= 16 BigCof=    0.00 CofMax=   10.00 Det=-1.32D-15
 Inversion failed.  Reducing to 15 matrices.
 Coeff-Com:  0.696D-06 0.184D-04 0.884D-04-0.192D-03-0.335D-03 0.303D-03
 Coeff-Com:  0.261D-02-0.462D-02-0.105D-01 0.620D-02 0.578D-01-0.418D-01
 Coeff-Com: -0.290D+00 0.218D+00 0.106D+01
 Coeff:      0.696D-06 0.184D-04 0.884D-04-0.192D-03-0.335D-03 0.303D-03
 Coeff:      0.261D-02-0.462D-02-0.105D-01 0.620D-02 0.578D-01-0.418D-01
 Coeff:     -0.290D+00 0.218D+00 0.106D+01
 Gap=     0.036 Goal=   None    Shift=    0.000
 Gap=     0.050 Goal=   None    Shift=    0.000
 RMSDP=1.92D-08 MaxDP=1.31D-06 DE= 1.91D-11 OVMax= 4.11D-07

 Cycle  24  Pass 1  IDiag  1:
 E= -1136.09691976580     Delta-E=       -0.000000000007 Rises=F Damp=F
 DIIS: error= 7.81D-10 at cycle  24 NSaved=  16.
 NSaved=16 IEnMin=12 EnMin= -1136.09691976581     IErMin=16 ErrMin= 7.81D-10
 ErrMax= 7.81D-10  0.00D+00 EMaxC= 1.00D-01 BMatC= 2.55D-16 BMatP= 1.01D-15
 IDIUse=1 WtCom= 1.00D+00 WtEn= 0.00D+00
 Large coefficients: NSaved= 16 BigCof=    0.00 CofMax=   10.00 Det=-3.87D-16
 Inversion failed.  Reducing to 15 matrices.
 Coeff-Com:  0.207D-05 0.401D-04 0.198D-05-0.109D-03-0.759D-04 0.174D-03
 Coeff-Com:  0.191D-02 0.344D-03-0.102D-01-0.857D-02 0.988D-01-0.140D+00
 Coeff-Com: -0.191D+00 0.331D+00 0.918D+00
 Coeff:      0.207D-05 0.401D-04 0.198D-05-0.109D-03-0.759D-04 0.174D-03
 Coeff:      0.191D-02 0.344D-03-0.102D-01-0.857D-02 0.988D-01-0.140D+00
 Coeff:     -0.191D+00 0.331D+00 0.918D+00
 Gap=     0.036 Goal=   None    Shift=    0.000
 Gap=     0.050 Goal=   None    Shift=    0.000
 RMSDP=1.18D-08 MaxDP=1.50D-06 DE=-7.28D-12 OVMax= 1.61D-07

 Cycle  25  Pass 1  IDiag  1:
 E= -1136.09691976581     Delta-E=       -0.000000000008 Rises=F Damp=F
 DIIS: error= 4.24D-10 at cycle  25 NSaved=  16.
 NSaved=16 IEnMin=11 EnMin= -1136.09691976581     IErMin=16 ErrMin= 4.24D-10
 ErrMax= 4.24D-10  0.00D+00 EMaxC= 1.00D-01 BMatC= 7.88D-17 BMatP= 2.55D-16
 IDIUse=1 WtCom= 1.00D+00 WtEn= 0.00D+00
 Large coefficients: NSaved= 16 BigCof=    0.00 CofMax=   10.00 Det=-1.79D-16
 Inversion failed.  Reducing to 15 matrices.
 Coeff-Com: -0.183D-04 0.108D-04 0.583D-04 0.655D-04-0.702D-03 0.140D-02
 Coeff-Com:  0.258D-02-0.642D-02-0.122D-01 0.531D-01-0.163D-02-0.157D+00
 Coeff-Com: -0.742D-01 0.420D+00 0.775D+00
 Coeff:     -0.183D-04 0.108D-04 0.583D-04 0.655D-04-0.702D-03 0.140D-02
 Coeff:      0.258D-02-0.642D-02-0.122D-01 0.531D-01-0.163D-02-0.157D+00
 Coeff:     -0.742D-01 0.420D+00 0.775D+00
 Gap=     0.036 Goal=   None    Shift=    0.000
 Gap=     0.050 Goal=   None    Shift=    0.000
 RMSDP=5.63D-09 MaxDP=3.92D-07 DE=-7.73D-12 OVMax= 4.51D-08

 SCF Done:  E(UB3LYP) =  -1136.09691977     A.U. after   25 cycles
            NFock= 25  Conv=0.56D-08     -V/T= 2.0025
 <Sx>= 0.0000 <Sy>= 0.0000 <Sz>= 0.5000 <S**2>= 0.7611 S= 0.5055
 <L.S>= 0.000000000000E+00
 KE= 1.133259292393D+03 PE=-3.475275276001D+03 EE= 8.329717814080D+02
 Annihilation of the first spin contaminant:
 S**2 before annihilation     0.7611,   after     0.7501
 Leave Link  502 at Mon Nov 13 16:57:47 2023, MaxMem=  1879048192 cpu:             242.3 elap:              20.6
 (Enter /home/sekinelabo/g16/l601.exe)
 Copying SCF densities to generalized density rwf, IOpCl= 1 IROHF=0.

 **********************************************************************

            Population analysis using the SCF Density.

 **********************************************************************

 Orbital symmetries:
 Alpha Orbitals:
       Occupied  (A) (A) (A) (A) (A) (A) (A) (A) (A) (A) (A) (A)
                 (A) (A) (A) (A) (A) (A) (A) (A) (A) (A) (A) (A)
                 (A) (A) (A) (A) (A) (A) (A) (A) (A) (A) (A) (A)
                 (A) (A) (A)
       Virtual   (A) (A) (A) (A) (A) (A) (A) (A) (A) (A) (A) (A)
                 (A) (A) (A) (A) (A) (A) (A) (A) (A) (A) (A) (A)
                 (A) (A) (A) (A) (A) (A) (A) (A) (A) (A) (A) (A)
                 (A) (A) (A) (A) (A) (A) (A) (A) (A) (A) (A) (A)
                 (A) (A) (A) (A) (A) (A) (A) (A) (A) (A) (A) (A)
                 (A) (A) (A) (A) (A) (A) (A) (A) (A) (A) (A) (A)
                 (A) (A) (A) (A) (A) (A) (A) (A) (A) (A) (A) (A)
                 (A) (A) (A) (A) (A) (A) (A) (A) (A) (A) (A) (A)
                 (A) (A) (A) (A) (A) (A) (A) (A) (A) (A) (A) (A)
                 (A) (A) (A) (A) (A) (A) (A) (A) (A) (A) (A) (A)
                 (A) (A) (A) (A) (A) (A) (A) (A) (A) (A) (A) (A)
                 (A) (A) (A) (A) (A) (A) (A) (A) (A) (A) (A) (A)
                 (A) (A) (A) (A) (A) (A) (A) (A) (A) (A) (A) (A)
                 (A) (A) (A) (A) (A) (A) (A) (A) (A) (A) (A) (A)
                 (A) (A) (A)
 Beta  Orbitals:
       Occupied  (A) (A) (A) (A) (A) (A) (A) (A) (A) (A) (A) (A)
                 (A) (A) (A) (A) (A) (A) (A) (A) (A) (A) (A) (A)
                 (A) (A) (A) (A) (A) (A) (A) (A) (A) (A) (A) (A)
                 (A) (A)
       Virtual   (A) (A) (A) (A) (A) (A) (A) (A) (A) (A) (A) (A)
                 (A) (A) (A) (A) (A) (A) (A) (A) (A) (A) (A) (A)
                 (A) (A) (A) (A) (A) (A) (A) (A) (A) (A) (A) (A)
                 (A) (A) (A) (A) (A) (A) (A) (A) (A) (A) (A) (A)
                 (A) (A) (A) (A) (A) (A) (A) (A) (A) (A) (A) (A)
                 (A) (A) (A) (A) (A) (A) (A) (A) (A) (A) (A) (A)
                 (A) (A) (A) (A) (A) (A) (A) (A) (A) (A) (A) (A)
                 (A) (A) (A) (A) (A) (A) (A) (A) (A) (A) (A) (A)
                 (A) (A) (A) (A) (A) (A) (A) (A) (A) (A) (A) (A)
                 (A) (A) (A) (A) (A) (A) (A) (A) (A) (A) (A) (A)
                 (A) (A) (A) (A) (A) (A) (A) (A) (A) (A) (A) (A)
                 (A) (A) (A) (A) (A) (A) (A) (A) (A) (A) (A) (A)
                 (A) (A) (A) (A) (A) (A) (A) (A) (A) (A) (A) (A)
                 (A) (A) (A) (A) (A) (A) (A) (A) (A) (A) (A) (A)
                 (A) (A) (A) (A)
 The electronic state is 2-A.
 Alpha  occ. eigenvalues --  -38.45158 -38.44964 -38.43906 -38.43766 -38.43454
 Alpha  occ. eigenvalues --  -38.43332 -38.42953  -2.21138  -2.20837  -2.19982
 Alpha  occ. eigenvalues --   -2.19658  -2.19617  -2.19431  -2.19050  -1.14843
 Alpha  occ. eigenvalues --   -1.14811  -1.14780  -1.14557  -1.14513  -1.14458
 Alpha  occ. eigenvalues --   -1.13794  -1.13643  -1.13609  -1.13439  -1.13385
 Alpha  occ. eigenvalues --   -1.13317  -1.13295  -1.13265  -1.13163  -1.13102
 Alpha  occ. eigenvalues --   -1.13071  -1.12999  -1.12720  -1.12690  -1.12603
 Alpha  occ. eigenvalues --   -0.20127  -0.14669  -0.11999  -0.10603
 Alpha virt. eigenvalues --   -0.06979  -0.05473  -0.03641  -0.03586  -0.02557
 Alpha virt. eigenvalues --   -0.02054  -0.01759  -0.01125  -0.00308  -0.00117
 Alpha virt. eigenvalues --    0.00124   0.00322   0.00689   0.00734   0.00780
 Alpha virt. eigenvalues --    0.01030   0.01175   0.01363   0.01447   0.01481
 Alpha virt. eigenvalues --    0.01660   0.01789   0.01926   0.02037   0.02104
 Alpha virt. eigenvalues --    0.02214   0.02411   0.02498   0.02684   0.02716
 Alpha virt. eigenvalues --    0.02722   0.02972   0.03050   0.03084   0.03180
 Alpha virt. eigenvalues --    0.03192   0.03458   0.03653   0.03706   0.04106
 Alpha virt. eigenvalues --    0.04317   0.04392   0.04514   0.04797   0.05106
 Alpha virt. eigenvalues --    0.05276   0.05380   0.05520   0.05715   0.05927
 Alpha virt. eigenvalues --    0.06167   0.06784   0.06912   0.07238   0.07497
 Alpha virt. eigenvalues --    0.07768   0.08104   0.08462   0.08777   0.08918
 Alpha virt. eigenvalues --    0.09472   0.09791   0.10418   0.11178   0.11832
 Alpha virt. eigenvalues --    0.12545   0.12675   0.12838   0.13066   0.13595
 Alpha virt. eigenvalues --    0.13717   0.14124   0.14181   0.14608   0.14731
 Alpha virt. eigenvalues --    0.15501   0.16070   0.16812   0.17604   0.19283
 Alpha virt. eigenvalues --    0.24535   0.25020   0.27242   0.28449   0.29435
 Alpha virt. eigenvalues --    0.30026   0.31240   0.31825   0.32352   0.32865
 Alpha virt. eigenvalues --    0.34685   0.35511   0.36902   0.37627   0.37990
 Alpha virt. eigenvalues --    0.39173   0.39696   0.40879   0.41165   0.43145
 Alpha virt. eigenvalues --    0.43780   0.43983   0.44664   0.44698   0.45527
 Alpha virt. eigenvalues --    0.45905   0.46057   0.46534   0.46816   0.47365
 Alpha virt. eigenvalues --    0.47620   0.48593   0.48755   0.49209   0.50629
 Alpha virt. eigenvalues --    0.51864   0.52149   0.52678   0.53525   0.53751
 Alpha virt. eigenvalues --    0.54634   0.54957   0.56529   0.57706   0.63597
 Alpha virt. eigenvalues --    0.65830   0.68451   0.69463   0.71641   0.71927
 Alpha virt. eigenvalues --    0.72607   0.73139   0.73256   0.75869   0.77977
 Alpha virt. eigenvalues --    0.84143   2.09892   2.15010   2.20400   2.24509
 Alpha virt. eigenvalues --    2.27794   2.28618   2.34120   4.40456   4.40806
 Alpha virt. eigenvalues --    4.41431   4.41664   4.42892   4.43524   4.44457
 Alpha virt. eigenvalues --    4.45700   4.46213   4.47502   4.48904   4.55170
 Alpha virt. eigenvalues --    4.59185   4.61195   4.62461   4.65471   4.67227
 Alpha virt. eigenvalues --    4.75257   4.77006   4.80253   4.83374  96.30605
 Alpha virt. eigenvalues --   96.38064  96.44642  96.50587  96.55449  96.56546
 Alpha virt. eigenvalues --   96.63646
  Beta  occ. eigenvalues --  -38.45144 -38.44971 -38.43890 -38.43765 -38.43421
  Beta  occ. eigenvalues --  -38.43260 -38.42892  -2.21118  -2.20850  -2.19959
  Beta  occ. eigenvalues --   -2.19658  -2.19567  -2.19299  -2.18939  -1.14836
  Beta  occ. eigenvalues --   -1.14778  -1.14742  -1.14567  -1.14523  -1.14457
  Beta  occ. eigenvalues --   -1.13780  -1.13604  -1.13569  -1.13430  -1.13356
  Beta  occ. eigenvalues --   -1.13316  -1.13258  -1.13186  -1.13143  -1.13026
  Beta  occ. eigenvalues --   -1.12974  -1.12904  -1.12646  -1.12614  -1.12506
  Beta  occ. eigenvalues --   -0.19360  -0.14421  -0.11837
  Beta virt. eigenvalues --   -0.06841  -0.06494  -0.05431  -0.03513  -0.02775
  Beta virt. eigenvalues --   -0.02493  -0.01475  -0.01243  -0.00697  -0.00304
  Beta virt. eigenvalues --    0.00137   0.00184   0.00344   0.00724   0.00800
  Beta virt. eigenvalues --    0.00929   0.01061   0.01330   0.01497   0.01562
  Beta virt. eigenvalues --    0.01618   0.01841   0.01874   0.02006   0.02079
  Beta virt. eigenvalues --    0.02129   0.02375   0.02443   0.02532   0.02717
  Beta virt. eigenvalues --    0.02737   0.02844   0.03056   0.03084   0.03123
  Beta virt. eigenvalues --    0.03183   0.03412   0.03537   0.03689   0.03836
  Beta virt. eigenvalues --    0.04245   0.04389   0.04520   0.04644   0.05001
  Beta virt. eigenvalues --    0.05212   0.05375   0.05562   0.05673   0.05845
  Beta virt. eigenvalues --    0.06158   0.06239   0.06867   0.07069   0.07355
  Beta virt. eigenvalues --    0.07564   0.07936   0.08220   0.08542   0.08921
  Beta virt. eigenvalues --    0.09084   0.09773   0.09883   0.10659   0.11514
  Beta virt. eigenvalues --    0.12231   0.12778   0.12866   0.12933   0.13423
  Beta virt. eigenvalues --    0.13928   0.13956   0.14191   0.14489   0.14753
  Beta virt. eigenvalues --    0.14915   0.15765   0.16399   0.17313   0.17932
  Beta virt. eigenvalues --    0.19502   0.24811   0.25122   0.27581   0.28628
  Beta virt. eigenvalues --    0.29652   0.30300   0.31518   0.32058   0.32563
  Beta virt. eigenvalues --    0.33279   0.34996   0.35924   0.37372   0.37797
  Beta virt. eigenvalues --    0.38155   0.39332   0.39896   0.40947   0.41567
  Beta virt. eigenvalues --    0.43164   0.43818   0.44052   0.44780   0.44899
  Beta virt. eigenvalues --    0.45700   0.46091   0.46293   0.46711   0.47075
  Beta virt. eigenvalues --    0.47587   0.47803   0.48749   0.48892   0.49292
  Beta virt. eigenvalues --    0.50729   0.51970   0.52334   0.52931   0.53835
  Beta virt. eigenvalues --    0.54073   0.55029   0.55276   0.56803   0.58026
  Beta virt. eigenvalues --    0.63850   0.65924   0.68796   0.69853   0.71723
  Beta virt. eigenvalues --    0.72043   0.72719   0.73322   0.73566   0.75875
  Beta virt. eigenvalues --    0.78048   0.84208   2.09926   2.14997   2.20462
  Beta virt. eigenvalues --    2.24582   2.27935   2.28936   2.34244   4.40471
  Beta virt. eigenvalues --    4.40846   4.41514   4.41721   4.42933   4.43610
  Beta virt. eigenvalues --    4.44475   4.45753   4.46235   4.47569   4.48992
  Beta virt. eigenvalues --    4.55238   4.59268   4.61205   4.62495   4.65574
  Beta virt. eigenvalues --    4.67236   4.75292   4.77070   4.80291   4.83419
  Beta virt. eigenvalues --   96.30620  96.38060  96.44668  96.50611  96.55491
  Beta virt. eigenvalues --   96.56638  96.63691
          Condensed to atoms (all electrons):
               1          2          3          4          5          6
     1  Na  16.218375   0.402764  -1.078435  -2.711770  -1.284129   1.301861
     2  Na   0.402764  12.851350  -0.334679  -1.093551  -1.134063  -0.362810
     3  Na  -1.078435  -0.334679  12.413503   1.200181   0.592136  -1.482879
     4  Na  -2.711770  -1.093551   1.200181  20.587298  -1.812194  -4.856484
     5  Na  -1.284129  -1.134063   0.592136  -1.812194  15.215444  -0.365347
     6  Na   1.301861  -0.362810  -1.482879  -4.856484  -0.365347  15.548081
     7  Na  -0.366936   0.902516  -0.378019  -2.109772   0.751270   0.128252
               7
     1  Na  -0.366936
     2  Na   0.902516
     3  Na  -0.378019
     4  Na  -2.109772
     5  Na   0.751270
     6  Na   0.128252
     7  Na  12.350125
          Atomic-Atomic Spin Densities.
               1          2          3          4          5          6
     1  Na   0.911104   0.640852   0.083154  -0.130658  -1.317727   0.022540
     2  Na   0.640852   0.584345  -0.210821   0.251692  -1.152887   0.104053
     3  Na   0.083154  -0.210821  -0.181805   0.147946   0.013167   0.271477
     4  Na  -0.130658   0.251692   0.147946  -2.110207   0.737988   0.940115
     5  Na  -1.317727  -1.152887   0.013167   0.737988   2.202348  -0.122192
     6  Na   0.022540   0.104053   0.271477   0.940115  -0.122192  -0.967964
     7  Na   0.169684  -0.145339  -0.275810   0.475208  -0.119847   0.039883
               7
     1  Na   0.169684
     2  Na  -0.145339
     3  Na  -0.275810
     4  Na   0.475208
     5  Na  -0.119847
     6  Na   0.039883
     7  Na  -0.282777
 Mulliken charges and spin densities:
               1          2
     1  Na  -1.481729   0.378948
     2  Na  -0.231527   0.071895
     3  Na   0.068192  -0.152691
     4  Na   1.796292   0.312084
     5  Na  -0.963117   0.240851
     6  Na   1.089326   0.287912
     7  Na  -0.277436  -0.138998
 Sum of Mulliken charges =  -0.00000   1.00000
 Mulliken charges and spin densities with hydrogens summed into heavy atoms:
               1          2
     1  Na  -1.481729   0.378948
     2  Na  -0.231527   0.071895
     3  Na   0.068192  -0.152691
     4  Na   1.796292   0.312084
     5  Na  -0.963117   0.240851
     6  Na   1.089326   0.287912
     7  Na  -0.277436  -0.138998
 Electronic spatial extent (au):  <R**2>=           2084.3122
 Charge=              0.0000 electrons
 Dipole moment (field-independent basis, Debye):
    X=              0.2224    Y=             -0.0604    Z=              0.0460  Tot=              0.2350
 Quadrupole moment (field-independent basis, Debye-Ang):
   XX=            -46.8107   YY=            -69.6663   ZZ=            -75.6790
   XY=              1.5375   XZ=              0.7026   YZ=              0.9101
 Traceless Quadrupole moment (field-independent basis, Debye-Ang):
   XX=             17.2413   YY=             -5.6143   ZZ=            -11.6269
   XY=              1.5375   XZ=              0.7026   YZ=              0.9101
 Octapole moment (field-independent basis, Debye-Ang**2):
  XXX=             15.5489  YYY=             10.4795  ZZZ=              2.5654  XYY=              1.7941
  XXY=              1.2818  XXZ=             -0.2019  XZZ=              0.0382  YZZ=             -6.1769
  YYZ=             -2.8863  XYZ=             -0.6354
 Hexadecapole moment (field-independent basis, Debye-Ang**3):
 XXXX=          -1568.1855 YYYY=          -1141.6874 ZZZZ=           -618.0865 XXXY=            107.7573
 XXXZ=              9.8696 YYYX=            -46.2033 YYYZ=             15.6232 ZZZX=              2.6657
 ZZZY=              4.4633 XXYY=           -428.9965 XXZZ=           -459.4823 YYZZ=           -292.3839
 XXYZ=              3.3573 YYXZ=              5.3680 ZZXY=              8.4264
 N-N= 3.729472824345D+02 E-N=-3.475275276055D+03  KE= 1.133259292393D+03
                          Isotropic Fermi Contact Couplings
        Atom                 a.u.       MegaHertz       Gauss      10(-4) cm-1
     1  Na(23)             0.04778      56.52061      20.16796      18.85325
     2  Na(23)             0.22758     269.23554      96.06994      89.80731
     3  Na(23)            -0.04551     -53.83419     -19.20938     -17.95715
     4  Na(23)            -0.00178      -2.10236      -0.75017      -0.70127
     5  Na(23)             0.29065     343.85274     122.69521     114.69693
     6  Na(23)            -0.00214      -2.52702      -0.90171      -0.84292
     7  Na(23)            -0.02667     -31.55550     -11.25979     -10.52578
 --------------------------------------------------------
       Center         ----  Spin Dipole Couplings  ----
                      3XX-RR        3YY-RR        3ZZ-RR
 --------------------------------------------------------
     1   Atom       -0.036020     -0.035141      0.071161
     2   Atom       -0.006570      0.004321      0.002250
     3   Atom       -0.002436     -0.007289      0.009725
     4   Atom       -0.032988     -0.026732      0.059721
     5   Atom        0.003449      0.000852     -0.004301
     6   Atom       -0.024637     -0.028053      0.052690
     7   Atom       -0.008148     -0.009623      0.017771
 --------------------------------------------------------
                        XY            XZ            YZ
 --------------------------------------------------------
     1   Atom       -0.002361      0.009922      0.017832
     2   Atom        0.003631     -0.007183     -0.021935
     3   Atom        0.001118      0.000599     -0.002660
     4   Atom       -0.005601      0.004558      0.004465
     5   Atom       -0.000274      0.002443      0.004328
     6   Atom        0.003933     -0.000079      0.002789
     7   Atom       -0.002757     -0.003923     -0.001623
 --------------------------------------------------------


 ---------------------------------------------------------------------------------
              Anisotropic Spin Dipole Couplings in Principal Axis System
 ---------------------------------------------------------------------------------

       Atom             a.u.   MegaHertz   Gauss  10(-4) cm-1        Axes

              Baa    -0.0414    -5.846    -2.086    -1.950  0.6476  0.7417 -0.1746
     1 Na(23) Bbb    -0.0335    -4.727    -1.687    -1.577  0.7573 -0.6519  0.0393
              Bcc     0.0749    10.573     3.773     3.527  0.0847  0.1577  0.9839
 
              Baa    -0.0193    -2.726    -0.973    -0.909  0.2287  0.6432  0.7307
     2 Na(23) Bbb    -0.0077    -1.082    -0.386    -0.361  0.9479 -0.3180 -0.0168
              Bcc     0.0270     3.808     1.359     1.270  0.2216  0.6965 -0.6825
 
              Baa    -0.0080    -1.123    -0.401    -0.375 -0.2121  0.9653  0.1524
     3 Na(23) Bbb    -0.0022    -0.309    -0.110    -0.103  0.9767  0.2148 -0.0012
              Bcc     0.0101     1.433     0.511     0.478  0.0339 -0.1486  0.9883
 
              Baa    -0.0367    -5.179    -1.848    -1.727  0.8568  0.5116 -0.0642
     4 Na(23) Bbb    -0.0235    -3.315    -1.183    -1.106 -0.5135  0.8579 -0.0179
              Bcc     0.0601     8.494     3.031     2.833  0.0459  0.0483  0.9978
 
              Baa    -0.0072    -1.023    -0.365    -0.341 -0.2084 -0.4666  0.8596
     5 Na(23) Bbb     0.0026     0.371     0.132     0.124 -0.5727  0.7707  0.2795
              Bcc     0.0046     0.652     0.233     0.217  0.7929  0.4340  0.4278
 
              Baa    -0.0307    -4.335    -1.547    -1.446 -0.5442  0.8385 -0.0286
     6 Na(23) Bbb    -0.0221    -3.119    -1.113    -1.040  0.8389  0.5439 -0.0194
              Bcc     0.0528     7.454     2.660     2.486  0.0007  0.0345  0.9994
 
              Baa    -0.0122    -1.723    -0.615    -0.575  0.6376  0.7602  0.1246
     7 Na(23) Bbb    -0.0062    -0.876    -0.313    -0.292  0.7572 -0.6482  0.0800
              Bcc     0.0184     2.599     0.927     0.867 -0.1416 -0.0433  0.9890
 

 ---------------------------------------------------------------------------------

 No NMR shielding tensors so no spin-rotation constants.
 Leave Link  601 at Mon Nov 13 16:57:47 2023, MaxMem=  1879048192 cpu:               2.6 elap:               0.2
 (Enter /home/sekinelabo/g16/l701.exe)
 ... and contract with generalized density number  0.
 Compute integral first derivatives.
 Leave Link  701 at Mon Nov 13 16:57:47 2023, MaxMem=  1879048192 cpu:               1.9 elap:               0.1
 (Enter /home/sekinelabo/g16/l702.exe)
 L702 exits ... SP integral derivatives will be done elsewhere.
 Leave Link  702 at Mon Nov 13 16:57:47 2023, MaxMem=  1879048192 cpu:               0.5 elap:               0.0
 (Enter /home/sekinelabo/g16/l703.exe)
 Integral derivatives from FoFJK, PRISM(SPDF).
 Compute integral first derivatives, UseDBF=F ICtDFT=           0.
 Calling FoFJK, ICntrl=      2127 FMM=F ISym2X=0 I1Cent= 0 IOpClX= 1 NMat=1 NMatS=1 NMatT=0.
 FoFJK:  IHMeth= 1 ICntrl=    2127 DoSepK=F KAlg= 0 I1Cent=           0 FoldK=F
 IRaf=         0 NMat=       1 IRICut=       1 DoRegI=T DoRafI=F ISym2E= 0 IDoP0=0 IntGTp=1.
 FoFCou: FMM=F IPFlag=           0 FMFlag=      100000 FMFlg1=         800
         NFxFlg=           0 DoJE=F BraDBF=F KetDBF=F FulRan=T
         wScrn=  0.000000 ICntrl=      2127 IOpCl=  1 I1Cent=           0 NGrid=           0
         NMat0=    1 NMatS0=      1 NMatT0=    0 NMatD0=    1 NMtDS0=    0 NMtDT0=    0
 Symmetry not used in FoFCou.
 Leave Link  703 at Mon Nov 13 16:57:50 2023, MaxMem=  1879048192 cpu:              36.5 elap:               2.3
 (Enter /home/sekinelabo/g16/l716.exe)
 Dipole        = 8.74846321D-02-2.37682047D-02 1.80949556D-02
 ***** Axes restored to original set *****
 -------------------------------------------------------------------
 Center     Atomic                   Forces (Hartrees/Bohr)
 Number     Number              X              Y              Z
 -------------------------------------------------------------------
      1       11           0.000811578   -0.012571062   -0.005264680
      2       11           0.002419444    0.010508937   -0.015603333
      3       11          -0.006210118   -0.006822641    0.001160810
      4       11          -0.010069177    0.012227547    0.000875983
      5       11           0.001784964    0.003280845    0.017980203
      6       11           0.008657678    0.001664295    0.000090801
      7       11           0.002605632   -0.008287920    0.000760216
 -------------------------------------------------------------------
 Cartesian Forces:  Max     0.017980203 RMS     0.008092680
 Z-matrix is all fixed cartesians, so copy forces.
 Force constants in Cartesian coordinates: 
                1             2             3             4             5 
      1  0.218292D+00
      2  0.706610D-02  0.251842D+00
      3  0.354022D-02  0.226233D-01  0.191036D+00
      4 -0.355069D-01 -0.253314D-02  0.759031D-02  0.119937D+00
      5 -0.471598D-02 -0.494655D-01  0.292140D-01 -0.119157D-02  0.113298D+00
      6 -0.539886D-02 -0.778192D-02 -0.252045D-01 -0.712039D-02 -0.376002D-01
      7 -0.425983D-01 -0.986885D-02 -0.130649D-03  0.509339D-03 -0.593219D-02
      8  0.215071D-01 -0.459143D-01 -0.443697D-02 -0.715689D-02  0.601966D-02
      9  0.105007D-01  0.144294D-02 -0.388444D-01  0.371224D-02  0.445707D-02
     10 -0.381088D-01 -0.665316D-02 -0.680352D-02 -0.387986D-01  0.170408D-01
     11  0.175244D-01 -0.537757D-01 -0.580396D-02 -0.139940D-01 -0.219966D-01
     12  0.192848D-02 -0.125485D-01 -0.286507D-01  0.286948D-01 -0.607487D-02
     13 -0.345887D-01 -0.360655D-02 -0.961525D-02 -0.143361D-01  0.535966D-03
     14 -0.213912D-02 -0.378554D-01 -0.317226D-01  0.793945D-03 -0.180803D-01
     15  0.540317D-02 -0.244103D-02 -0.438232D-01 -0.294004D-03 -0.103959D-01
     16 -0.193821D-01  0.132146D-02  0.503733D-02 -0.371116D-01 -0.111629D-01
     17 -0.159464D-01 -0.181807D-01 -0.494692D-02  0.171166D-01 -0.238472D-01
     18 -0.509026D-02 -0.753841D-02 -0.171980D-01 -0.283502D-01  0.934544D-02
     19 -0.481072D-01  0.142741D-01  0.381554D-03  0.530724D-02  0.542589D-02
     20 -0.232960D-01 -0.466503D-01 -0.492686D-02  0.696504D-02 -0.592854D-02
     21 -0.108835D-01  0.624358D-02 -0.373152D-01 -0.423281D-02  0.110545D-01
                6             7             8             9            10 
      6  0.129545D+00
      7 -0.101856D-02  0.651201D-01
      8  0.159329D-02  0.114538D-01  0.685674D-01
      9  0.489603D-02 -0.418197D-02  0.245577D-02  0.260086D-01
     10  0.180919D-02 -0.206464D-01 -0.214866D-01  0.108678D-03  0.139212D+00
     11  0.998926D-02  0.111844D-01 -0.438739D-01 -0.287607D-02 -0.161023D-01
     12 -0.294841D-01  0.248480D-02  0.517129D-03 -0.758851D-02 -0.290030D-02
     13  0.551893D-02 -0.185736D-02 -0.464985D-02 -0.690747D-02 -0.367953D-01
     14  0.201766D-01 -0.592586D-02  0.449354D-02 -0.472706D-02  0.159935D-01
     15 -0.557121D-01  0.109196D-02  0.652679D-03  0.392561D-02  0.620134D-02
     16  0.549489D-02 -0.524947D-04 -0.262348D-02 -0.140749D-02 -0.655197D-02
     17  0.126456D-01 -0.188804D-03  0.493702D-02  0.151018D-02  0.484007D-02
     18 -0.287098D-01  0.639788D-03  0.216320D-02  0.543247D-02  0.538080D-03
     19  0.714791D-03 -0.474988D-03  0.295597D-02 -0.182467D-02  0.168945D-02
     20  0.977450D-03 -0.722492D-03  0.577066D-02 -0.226283D-02  0.636776D-02
     21  0.466934D-02  0.111464D-02 -0.294510D-02  0.617014D-02  0.104654D-02
               11            12            13            14            15 
     11  0.134000D+00
     12  0.666469D-02  0.818623D-01
     13 -0.518239D-02 -0.323761D-01  0.129194D+00
     14 -0.257376D-01  0.102876D-01 -0.298205D-02  0.107413D+00
     15 -0.990294D-02 -0.386117D-01 -0.787701D-03  0.272357D-01  0.183813D+00
     16  0.123121D-02 -0.315970D-03 -0.398183D-01 -0.106214D-01 -0.683931D-02
     17  0.716078D-02 -0.885165D-03  0.100430D-01 -0.195680D-01 -0.879129D-02
     18 -0.114996D-02  0.135204D-01  0.354858D-01 -0.158578D-02 -0.372072D-01
     19  0.533865D-02  0.248422D-02 -0.179789D-02  0.488097D-02 -0.477546D-02
     20  0.422289D-02  0.203909D-02  0.584186D-02 -0.106653D-01  0.364281D-02
     21  0.307897D-02  0.895219D-02  0.868175D-02 -0.196644D-01 -0.123845D-01
               16            17            18            19            20 
     16  0.130304D+00
     17  0.111387D-01  0.920738D-01
     18 -0.218481D-02 -0.159364D-04  0.719555D-01
     19 -0.273876D-01 -0.270031D-01 -0.103841D-02  0.707710D-01
     20  0.107164D-01 -0.425757D-01 -0.121856D-02 -0.587254D-02  0.958264D-01
     21  0.215361D-03  0.483562D-03 -0.779332D-02  0.405797D-02  0.174890D-02
               21 
     21  0.377013D-01
 Leave Link  716 at Mon Nov 13 16:57:50 2023, MaxMem=  1879048192 cpu:               0.5 elap:               0.0
 (Enter /home/sekinelabo/g16/l103.exe)

 GradGradGradGradGradGradGradGradGradGradGradGradGradGradGradGradGradGrad
 Berny optimization.
 Search for a local minimum.
 Step number   1 out of a maximum of    2
 All quantities printed in internal units (Hartrees-Bohrs-Radians)
 Second derivative matrix not updated -- first step.
 ITU=  0
     Eigenvalues ---    0.04267   0.05396   0.07616   0.09518   0.10954
     Eigenvalues ---    0.13567   0.14823   0.16052   0.17376   0.17835
     Eigenvalues ---    0.20029   0.22705   0.25356   0.26829   0.30993
 Quadratic step=3.198D-01 exceeds max=3.000D-01 adjusted using Lamda=-5.542D-03.
 Angle between NR and scaled steps=   1.28 degrees.
 Angle between quadratic step and forces=  27.80 degrees.
 Linear search not attempted -- first point.
 B after Tr=     0.000000    0.000000    0.000000
         Rot=    1.000000    0.000000   -0.000000    0.000000 Ang=   0.00 deg.
 Variable       Old X    -DE/DX   Delta X   Delta X   Delta X     New X
                                 (Linear)    (Quad)   (Total)
    X1        5.59392   0.00081   0.00000  -0.01120  -0.01120   5.58272
    Y1        2.28406  -0.01257   0.00000  -0.04889  -0.04889   2.23517
    Z1        1.80898  -0.00526   0.00000  -0.02414  -0.02414   1.78483
    X2        7.53955   0.00242   0.00000   0.02401   0.02401   7.56356
    Y2        7.29514   0.01051   0.00000   0.09444   0.09444   7.38958
    Z2        0.00000  -0.01560   0.00000  -0.07682  -0.07682  -0.07682
    X3        0.00000  -0.00621   0.00000  -0.11954  -0.11954  -0.11954
    Y3        1.92776  -0.00682   0.00000  -0.07906  -0.07906   1.84870
    Z3        2.62354   0.00116   0.00000   0.00284   0.00284   2.62638
    X4        2.56271  -0.01007   0.00000  -0.09326  -0.09326   2.46945
    Y4        6.97770   0.01223   0.00000   0.07919   0.07919   7.05689
    Z4        2.69416   0.00088   0.00000   0.00586   0.00586   2.70002
    X5        7.39316   0.00178   0.00000   0.02525   0.02525   7.41842
    Y5        6.18050   0.00328   0.00000   0.04295   0.04295   6.22345
    Z5        5.53568   0.01798   0.00000   0.08377   0.08377   5.61945
    X6       12.22531   0.00866   0.00000   0.10926   0.10926  12.33457
    Y6        5.48333   0.00166   0.00000   0.01163   0.01163   5.49496
    Z6        2.64701   0.00009   0.00000  -0.00246  -0.00246   2.64456
    X7       10.74825   0.00261   0.00000   0.06548   0.06548  10.81373
    Y7        0.00000  -0.00829   0.00000  -0.10027  -0.10027  -0.10027
    Z7        2.50289   0.00076   0.00000   0.01095   0.01095   2.51384
         Item               Value     Threshold  Converged?
 Maximum Force            0.017980     0.000450     NO 
 RMS     Force            0.008093     0.000300     NO 
 Maximum Displacement     0.119541     0.001800     NO 
 RMS     Displacement     0.065497     0.001200     NO 
 Predicted change in Energy=-5.172901D-03
 GradGradGradGradGradGradGradGradGradGradGradGradGradGradGradGradGradGrad

 Leave Link  103 at Mon Nov 13 16:57:50 2023, MaxMem=  1879048192 cpu:               0.3 elap:               0.0
 (Enter /home/sekinelabo/g16/l9999.exe)
 1\1\GINC-SEKINELABO-XA7R-R37\Force\UB3LYP\6-311+G(d)\Na7(2)\SEKINELABO
 \13-Nov-2023\0\\#P B3LYP/6-311+g(d) force\\Gaussian input prepared by 
 ASE\\0,2\Na,2.9601751761,1.2086749772,0.957268499\Na,3.9897578428,3.86
 04202743,0.\Na,0.,1.0201268091,1.3883198209\Na,1.3561262888,3.69244138
 09,1.4256859801\Na,3.9122936362,3.2705807118,2.9293574364\Na,6.4693537
 849,2.9016527427,1.4007388061\Na,5.6877279526,0.,1.3244743335\\Version
 =ES64L-G16RevB.01\State=2-A\HF=-1136.0969198\S2=0.761103\S2-1=0.\S2A=0
 .750088\RMSD=5.633e-09\RMSF=8.093e-03\Dipole=-0.0874846,0.0237682,0.01
 8095\Quadrupole=12.8184628,-4.1741119,-8.6443509,1.1431005,-0.5223597,
 -0.6766528\PG=C01 [X(Na7)]\\@


 MATERIAL COPIED FROM ONE SCHOLARLY BOOK WITHOUT CREDIT COMPRISES PLAGIARISM.
 MATERIAL COPIED FROM TWO SCHOLARLY BOOKS COMPRISES AN ESSAY.
 MATERIAL COPIED FROM THREE SCHOLARLY BOOKS COMPRISES A DISSERTATION.
 MATERIAL COPIED FROM FOUR SCHOLARLY BOOKS COMPRISES A FIFTH SCHOLARLY BOOK.

                               -- C&EN, 25 FEB 1980
 Job cpu time:       0 days  0 hours  4 minutes 56.8 seconds.
 Elapsed time:       0 days  0 hours  0 minutes 24.1 seconds.
 File lengths (MBytes):  RWF=     32 Int=      0 D2E=      0 Chk=      5 Scr=      1
 Normal termination of Gaussian 16 at Mon Nov 13 16:57:50 2023.
