 Entering Gaussian System, Link 0=g16
 Initial command:
 /home/sekinelabo/g16/l1.exe "/home/sekinelabo/g16temp/Gau-4115456.inp" -scrdir="/home/sekinelabo/g16temp/"
 Entering Link 1 = /home/sekinelabo/g16/l1.exe PID=   4115458.
  
 Copyright (c) 1988-2017, Gaussian, Inc.  All Rights Reserved.
  
 This is part of the Gaussian(R) 16 program.  It is based on
 the Gaussian(R) 09 system (copyright 2009, Gaussian, Inc.),
 the Gaussian(R) 03 system (copyright 2003, Gaussian, Inc.),
 the Gaussian(R) 98 system (copyright 1998, Gaussian, Inc.),
 the Gaussian(R) 94 system (copyright 1995, Gaussian, Inc.),
 the Gaussian 92(TM) system (copyright 1992, Gaussian, Inc.),
 the Gaussian 90(TM) system (copyright 1990, Gaussian, Inc.),
 the Gaussian 88(TM) system (copyright 1988, Gaussian, Inc.),
 the Gaussian 86(TM) system (copyright 1986, Carnegie Mellon
 University), and the Gaussian 82(TM) system (copyright 1983,
 Carnegie Mellon University). Gaussian is a federally registered
 trademark of Gaussian, Inc.
  
 This software contains proprietary and confidential information,
 including trade secrets, belonging to Gaussian, Inc.
  
 This software is provided under written license and may be
 used, copied, transmitted, or stored only in accord with that
 written license.
  
 The following legend is applicable only to US Government
 contracts under FAR:
  
                    RESTRICTED RIGHTS LEGEND
  
 Use, reproduction and disclosure by the US Government is
 subject to restrictions as set forth in subparagraphs (a)
 and (c) of the Commercial Computer Software - Restricted
 Rights clause in FAR 52.227-19.
  
 Gaussian, Inc.
 340 Quinnipiac St., Bldg. 40, Wallingford CT 06492
  
  
 ---------------------------------------------------------------
 Warning -- This program may not be used in any manner that
 competes with the business of Gaussian, Inc. or will provide
 assistance to any competitor of Gaussian, Inc.  The licensee
 of this program is prohibited from giving any competitor of
 Gaussian, Inc. access to this program.  By using this program,
 the user acknowledges that Gaussian, Inc. is engaged in the
 business of creating and licensing software in the field of
 computational chemistry and represents and warrants to the
 licensee that it is not a competitor of Gaussian, Inc. and that
 it will not use this program in any manner prohibited above.
 ---------------------------------------------------------------
  

 Cite this work as:
 Gaussian 16, Revision B.01,
 M. J. Frisch, G. W. Trucks, H. B. Schlegel, G. E. Scuseria, 
 M. A. Robb, J. R. Cheeseman, G. Scalmani, V. Barone, 
 G. A. Petersson, H. Nakatsuji, X. Li, M. Caricato, A. V. Marenich, 
 J. Bloino, B. G. Janesko, R. Gomperts, B. Mennucci, H. P. Hratchian, 
 J. V. Ortiz, A. F. Izmaylov, J. L. Sonnenberg, D. Williams-Young, 
 F. Ding, F. Lipparini, F. Egidi, J. Goings, B. Peng, A. Petrone, 
 T. Henderson, D. Ranasinghe, V. G. Zakrzewski, J. Gao, N. Rega, 
 G. Zheng, W. Liang, M. Hada, M. Ehara, K. Toyota, R. Fukuda, 
 J. Hasegawa, M. Ishida, T. Nakajima, Y. Honda, O. Kitao, H. Nakai, 
 T. Vreven, K. Throssell, J. A. Montgomery, Jr., J. E. Peralta, 
 F. Ogliaro, M. J. Bearpark, J. J. Heyd, E. N. Brothers, K. N. Kudin, 
 V. N. Staroverov, T. A. Keith, R. Kobayashi, J. Normand, 
 K. Raghavachari, A. P. Rendell, J. C. Burant, S. S. Iyengar, 
 J. Tomasi, M. Cossi, J. M. Millam, M. Klene, C. Adamo, R. Cammi, 
 J. W. Ochterski, R. L. Martin, K. Morokuma, O. Farkas, 
 J. B. Foresman, and D. J. Fox, Gaussian, Inc., Wallingford CT, 2016.
 
 ******************************************
 Gaussian 16:  ES64L-G16RevB.01 20-Dec-2017
                13-Nov-2023 
 ******************************************
 %mem=14GB
 %chk=checkpoint.chk
 %nprocshared=16
 Will use up to   16 processors via shared memory.
 -------------------------
 #P B3LYP/6-311+g(d) force
 -------------------------
 1/10=7,30=1,38=1/1,3;
 2/12=2,17=6,18=5,40=1/2;
 3/5=4,6=6,7=11,11=2,25=1,30=1,71=1,74=-5/1,2,3;
 4//1;
 5/5=2,38=5/2;
 6/7=2,8=2,9=2,10=2,28=1/1;
 7/29=1/1,2,3,16;
 1/10=7,30=1/3;
 99//99;
 Leave Link    1 at Mon Nov 13 18:34:04 2023, MaxMem=  1879048192 cpu:               0.3 elap:               0.0
 (Enter /home/sekinelabo/g16/l101.exe)
 ------------------------------
 Gaussian input prepared by ASE
 ------------------------------
 Symbolic Z-matrix:
 Charge =  0 Multiplicity = 2
 Na                    2.99891   2.43479   0. 
 Na                    5.43695   2.42283   1.76033 
 Na                    0.01175   2.43478   0.25464 
 Na                    0.        2.41059   3.24403 
 Na                    2.73225   4.842     1.76691 
 Na                    2.98783   2.40956   3.50405 
 Na                    2.73187   0.        1.73372 
 
 ITRead=  0  0  0  0  0  0  0
 MicOpt= -1 -1 -1 -1 -1 -1 -1
 NAtoms=      7 NQM=        7 NQMF=       0 NMMI=      0 NMMIF=      0
                NMic=       0 NMicF=      0.
                    Isotopes and Nuclear Properties:
 (Nuclear quadrupole moments (NQMom) in fm**2, nuclear magnetic moments (NMagM)
  in nuclear magnetons)

  Atom         1           2           3           4           5           6           7
 IAtWgt=          23          23          23          23          23          23          23
 AtmWgt=  22.9897697  22.9897697  22.9897697  22.9897697  22.9897697  22.9897697  22.9897697
 NucSpn=           3           3           3           3           3           3           3
 AtZEff=  -0.0000000  -0.0000000  -0.0000000  -0.0000000  -0.0000000  -0.0000000  -0.0000000
 NQMom=   10.4000000  10.4000000  10.4000000  10.4000000  10.4000000  10.4000000  10.4000000
 NMagM=    2.2175200   2.2175200   2.2175200   2.2175200   2.2175200   2.2175200   2.2175200
 AtZNuc=  11.0000000  11.0000000  11.0000000  11.0000000  11.0000000  11.0000000  11.0000000
 Leave Link  101 at Mon Nov 13 18:34:04 2023, MaxMem=  1879048192 cpu:               2.6 elap:               0.2
 (Enter /home/sekinelabo/g16/l103.exe)

 GradGradGradGradGradGradGradGradGradGradGradGradGradGradGradGradGradGrad
 Berny optimization.
 Initialization pass.
 Trust Radius=3.00D-01 FncErr=1.00D-07 GrdErr=1.00D-07 EigMax=2.50D+02 EigMin=1.00D-04
 Number of steps in this run=      2 maximum allowed number of steps=      2.
 GradGradGradGradGradGradGradGradGradGradGradGradGradGradGradGradGradGrad

 Leave Link  103 at Mon Nov 13 18:34:04 2023, MaxMem=  1879048192 cpu:               0.2 elap:               0.0
 (Enter /home/sekinelabo/g16/l202.exe)
                          Input orientation:                          
 ---------------------------------------------------------------------
 Center     Atomic      Atomic             Coordinates (Angstroms)
 Number     Number       Type             X           Y           Z
 ---------------------------------------------------------------------
      1         11           0        2.998907    2.434794    0.000000
      2         11           0        5.436951    2.422829    1.760328
      3         11           0        0.011749    2.434775    0.254644
      4         11           0        0.000000    2.410595    3.244028
      5         11           0        2.732254    4.841998    1.766908
      6         11           0        2.987832    2.409563    3.504045
      7         11           0        2.731865    0.000000    1.733722
 ---------------------------------------------------------------------
                    Distance matrix (angstroms):
                    1          2          3          4          5
     1  Na   0.000000
     2  Na   3.007151   0.000000
     3  Na   2.997993   5.630279   0.000000
     4  Na   4.417890   5.635774   2.989505   0.000000
     5  Na   2.997949   3.628748   3.934821   3.944467   0.000000
     6  Na   3.504153   3.006478   4.406394   2.999124   2.999951
     7  Na   3.000888   3.631569   3.938888   3.943993   4.842112
                    6          7
     6  Na   0.000000
     7  Na   3.000926   0.000000
 Stoichiometry    Na7(2)
 Framework group  C1[X(Na7)]
 Deg. of freedom    15
 Full point group                 C1      NOp   1
 Largest Abelian subgroup         C1      NOp   1
 Largest concise Abelian subgroup C1      NOp   1
                         Standard orientation:                         
 ---------------------------------------------------------------------
 Center     Atomic      Atomic             Coordinates (Angstroms)
 Number     Number       Type             X           Y           Z
 ---------------------------------------------------------------------
      1         11           0        0.584685   -0.012715    1.751954
      2         11           0        3.022728   -0.000750   -0.008375
      3         11           0       -2.402474   -0.012696    1.497309
      4         11           0       -2.414223    0.011485   -1.492074
      5         11           0        0.318032   -2.419919   -0.014954
      6         11           0        0.573609    0.012516   -1.752091
      7         11           0        0.317643    2.422079    0.018232
 ---------------------------------------------------------------------
 Rotational constants (GHZ):           0.9844019           0.6823098           0.6594850
 Leave Link  202 at Mon Nov 13 18:34:04 2023, MaxMem=  1879048192 cpu:               0.1 elap:               0.0
 (Enter /home/sekinelabo/g16/l301.exe)
 Standard basis: 6-311+G(d) (5D, 7F)
 Ernie: Thresh=  0.10000D-02 Tol=  0.10000D-05 Strict=F.
 There are   217 symmetry adapted cartesian basis functions of A   symmetry.
 There are   210 symmetry adapted basis functions of A   symmetry.
   210 basis functions,   350 primitive gaussians,   217 cartesian basis functions
    39 alpha electrons       38 beta electrons
       nuclear repulsion energy       375.6207163746 Hartrees.
 IExCor=  402 DFT=T Ex+Corr=B3LYP ExCW=0 ScaHFX=  0.200000
 ScaDFX=  0.800000  0.720000  1.000000  0.810000 ScalE2=  1.000000  1.000000
 IRadAn=      5 IRanWt=     -1 IRanGd=            0 ICorTp=0 IEmpDi=  4
 NAtoms=    7 NActive=    7 NUniq=    7 SFac= 1.00D+00 NAtFMM=   60 NAOKFM=F Big=F
 Integral buffers will be    131072 words long.
 Raffenetti 2 integral format.
 Two-electron integral symmetry is turned on.
 Leave Link  301 at Mon Nov 13 18:34:04 2023, MaxMem=  1879048192 cpu:               0.5 elap:               0.0
 (Enter /home/sekinelabo/g16/l302.exe)
 NPDir=0 NMtPBC=     1 NCelOv=     1 NCel=       1 NClECP=     1 NCelD=      1
         NCelK=      1 NCelE2=     1 NClLst=     1 CellRange=     0.0.
 One-electron integrals computed using PRISM.
 One-electron integral symmetry used in STVInt
 NBasis=   210 RedAO= T EigKep=  2.39D-06  NBF=   210
 NBsUse=   210 1.00D-06 EigRej= -1.00D+00 NBFU=   210
 Precomputing XC quadrature grid using
 IXCGrd= 4 IRadAn=           5 IRanWt=          -1 IRanGd=           0 AccXCQ= 0.00D+00.
 Generated NRdTot=       0 NPtTot=           0 NUsed=           0 NTot=          32
 NSgBfM=   210   210   210   210   210 MxSgAt=     7 MxSgA2=     7.
 Leave Link  302 at Mon Nov 13 18:34:04 2023, MaxMem=  1879048192 cpu:               2.2 elap:               0.1
 (Enter /home/sekinelabo/g16/l303.exe)
 DipDrv:  MaxL=1.
 Leave Link  303 at Mon Nov 13 18:34:04 2023, MaxMem=  1879048192 cpu:               0.6 elap:               0.0
 (Enter /home/sekinelabo/g16/l401.exe)
 ExpMin= 7.60D-03 ExpMax= 3.62D+04 ExpMxC= 1.21D+03 IAcc=3 IRadAn=         5 AccDes= 0.00D+00
 Harris functional with IExCor=  402 and IRadAn=       5 diagonalized for initial guess.
 HarFok:  IExCor=  402 AccDes= 0.00D+00 IRadAn=         5 IDoV= 1 UseB2=F ITyADJ=14
 ICtDFT=  3500011 ScaDFX=  1.000000  1.000000  1.000000  1.000000
 FoFCou: FMM=F IPFlag=           0 FMFlag=      100000 FMFlg1=           0
         NFxFlg=           0 DoJE=T BraDBF=F KetDBF=T FulRan=T
         wScrn=  0.000000 ICntrl=       500 IOpCl=  0 I1Cent=   200000004 NGrid=           0
         NMat0=    1 NMatS0=      1 NMatT0=    0 NMatD0=    1 NMtDS0=    0 NMtDT0=    0
 Petite list used in FoFCou.
 Harris En= -1135.88544548942    
 JPrj=0 DoOrth=F DoCkMO=F.
 Initial guess <Sx>= 0.0000 <Sy>= 0.0000 <Sz>= 0.5000 <S**2>= 0.7500 S= 0.5000
 Leave Link  401 at Mon Nov 13 18:34:05 2023, MaxMem=  1879048192 cpu:               4.8 elap:               0.3
 (Enter /home/sekinelabo/g16/l502.exe)
 Keep R1 and R2 ints in memory in canonical form, NReq=507620374.
 FoFCou: FMM=F IPFlag=           0 FMFlag=           0 FMFlg1=           0
         NFxFlg=           0 DoJE=F BraDBF=F KetDBF=F FulRan=T
         wScrn=  0.000000 ICntrl=       600 IOpCl=  0 I1Cent=           0 NGrid=           0
         NMat0=    1 NMatS0=  22155 NMatT0=    0 NMatD0=    1 NMtDS0=    0 NMtDT0=    0
 Symmetry not used in FoFCou.
 Two-electron integral symmetry not used.
 UHF open shell SCF:
 Using DIIS extrapolation, IDIIS=  1040.
 NGot=  1879048192 LenX=  1388082362 LenY=  1388034832
 Requested convergence on RMS density matrix=1.00D-08 within 128 cycles.
 Requested convergence on MAX density matrix=1.00D-06.
 Requested convergence on             energy=1.00D-06.
 No special actions if energy rises.

 Cycle   1  Pass 1  IDiag  1:
 E= -1136.06936994348    
 DIIS: error= 1.62D-02 at cycle   1 NSaved=   1.
 NSaved= 1 IEnMin= 1 EnMin= -1136.06936994348     IErMin= 1 ErrMin= 1.62D-02
 ErrMax= 1.62D-02  0.00D+00 EMaxC= 1.00D-01 BMatC= 2.04D-01 BMatP= 2.04D-01
 IDIUse=3 WtCom= 8.38D-01 WtEn= 1.62D-01
 Coeff-Com:  0.100D+01
 Coeff-En:   0.100D+01
 Coeff:      0.100D+01
 Gap=     0.059 Goal=   None    Shift=    0.000
 Gap=     0.021 Goal=   None    Shift=    0.000
 GapD=    0.021 DampG=0.250 DampE=0.500 DampFc=0.2500 IDamp=-1.
 Damping current iteration by 2.50D-01
 RMSDP=6.32D-02 MaxDP=7.40D+00              OVMax= 2.52D-01

 Cycle   2  Pass 1  IDiag  1:
 E= -1136.08469774392     Delta-E=       -0.015327800446 Rises=F Damp=T
 DIIS: error= 1.13D-02 at cycle   2 NSaved=   2.
 NSaved= 2 IEnMin= 2 EnMin= -1136.08469774392     IErMin= 2 ErrMin= 1.13D-02
 ErrMax= 1.13D-02  0.00D+00 EMaxC= 1.00D-01 BMatC= 7.67D-02 BMatP= 2.04D-01
 IDIUse=3 WtCom= 8.87D-01 WtEn= 1.13D-01
 Coeff-Com: -0.125D+01 0.225D+01
 Coeff-En:   0.000D+00 0.100D+01
 Coeff:     -0.111D+01 0.211D+01
 Gap=     0.060 Goal=   None    Shift=    0.000
 Gap=     0.032 Goal=   None    Shift=    0.000
 RMSDP=2.73D-02 MaxDP=3.05D+00 DE=-1.53D-02 OVMax= 1.95D-01

 Cycle   3  Pass 1  IDiag  1:
 E= -1136.10865280923     Delta-E=       -0.023955065304 Rises=F Damp=F
 DIIS: error= 4.11D-03 at cycle   3 NSaved=   3.
 NSaved= 3 IEnMin= 3 EnMin= -1136.10865280923     IErMin= 3 ErrMin= 4.11D-03
 ErrMax= 4.11D-03  0.00D+00 EMaxC= 1.00D-01 BMatC= 5.16D-03 BMatP= 7.67D-02
 IDIUse=3 WtCom= 9.59D-01 WtEn= 4.11D-02
 Coeff-Com: -0.284D+00 0.527D+00 0.757D+00
 Coeff-En:   0.000D+00 0.000D+00 0.100D+01
 Coeff:     -0.273D+00 0.505D+00 0.767D+00
 Gap=     0.056 Goal=   None    Shift=    0.000
 Gap=     0.026 Goal=   None    Shift=    0.000
 RMSDP=1.26D-02 MaxDP=1.61D+00 DE=-2.40D-02 OVMax= 1.40D-01

 Cycle   4  Pass 1  IDiag  1:
 E= -1136.10555623033     Delta-E=        0.003096578894 Rises=F Damp=F
 DIIS: error= 6.20D-03 at cycle   4 NSaved=   4.
 NSaved= 4 IEnMin= 3 EnMin= -1136.10865280923     IErMin= 3 ErrMin= 4.11D-03
 ErrMax= 6.20D-03  0.00D+00 EMaxC= 1.00D-01 BMatC= 7.03D-03 BMatP= 5.16D-03
 IDIUse=3 WtCom= 1.13D-01 WtEn= 8.87D-01
 Coeff-Com:  0.230D-01-0.229D-01 0.540D+00 0.460D+00
 Coeff-En:   0.000D+00 0.000D+00 0.601D+00 0.399D+00
 Coeff:      0.259D-02-0.258D-02 0.594D+00 0.406D+00
 Gap=     0.058 Goal=   None    Shift=    0.000
 Gap=     0.029 Goal=   None    Shift=    0.000
 RMSDP=3.51D-03 MaxDP=3.81D-01 DE= 3.10D-03 OVMax= 8.12D-02

 Cycle   5  Pass 1  IDiag  1:
 E= -1136.11293680883     Delta-E=       -0.007380578496 Rises=F Damp=F
 DIIS: error= 9.95D-04 at cycle   5 NSaved=   5.
 NSaved= 5 IEnMin= 5 EnMin= -1136.11293680883     IErMin= 5 ErrMin= 9.95D-04
 ErrMax= 9.95D-04  0.00D+00 EMaxC= 1.00D-01 BMatC= 2.96D-04 BMatP= 5.16D-03
 IDIUse=3 WtCom= 9.90D-01 WtEn= 9.95D-03
 Coeff-Com:  0.504D-02-0.725D-02 0.302D+00 0.199D+00 0.502D+00
 Coeff-En:   0.000D+00 0.000D+00 0.000D+00 0.000D+00 0.100D+01
 Coeff:      0.499D-02-0.717D-02 0.299D+00 0.197D+00 0.507D+00
 Gap=     0.059 Goal=   None    Shift=    0.000
 Gap=     0.028 Goal=   None    Shift=    0.000
 RMSDP=1.64D-03 MaxDP=1.87D-01 DE=-7.38D-03 OVMax= 8.74D-03

 Cycle   6  Pass 1  IDiag  1:
 E= -1136.11308050012     Delta-E=       -0.000143691290 Rises=F Damp=F
 DIIS: error= 1.61D-04 at cycle   6 NSaved=   6.
 NSaved= 6 IEnMin= 6 EnMin= -1136.11308050012     IErMin= 6 ErrMin= 1.61D-04
 ErrMax= 1.61D-04  0.00D+00 EMaxC= 1.00D-01 BMatC= 3.71D-06 BMatP= 2.96D-04
 IDIUse=3 WtCom= 9.98D-01 WtEn= 1.61D-03
 Coeff-Com: -0.550D-02 0.689D-02-0.366D-01-0.410D-01 0.437D-01 0.103D+01
 Coeff-En:   0.000D+00 0.000D+00 0.000D+00 0.000D+00 0.000D+00 0.100D+01
 Coeff:     -0.549D-02 0.688D-02-0.365D-01-0.409D-01 0.436D-01 0.103D+01
 Gap=     0.059 Goal=   None    Shift=    0.000
 Gap=     0.029 Goal=   None    Shift=    0.000
 RMSDP=4.56D-04 MaxDP=4.62D-02 DE=-1.44D-04 OVMax= 4.49D-03

 Cycle   7  Pass 1  IDiag  1:
 E= -1136.11308904187     Delta-E=       -0.000008541757 Rises=F Damp=F
 DIIS: error= 4.24D-05 at cycle   7 NSaved=   7.
 NSaved= 7 IEnMin= 7 EnMin= -1136.11308904187     IErMin= 7 ErrMin= 4.24D-05
 ErrMax= 4.24D-05  0.00D+00 EMaxC= 1.00D-01 BMatC= 2.65D-07 BMatP= 3.71D-06
 IDIUse=1 WtCom= 1.00D+00 WtEn= 0.00D+00
 Coeff-Com:  0.216D-02-0.284D-02-0.808D-02 0.315D-03-0.435D-01-0.319D+00
 Coeff-Com:  0.137D+01
 Coeff:      0.216D-02-0.284D-02-0.808D-02 0.315D-03-0.435D-01-0.319D+00
 Coeff:      0.137D+01
 Gap=     0.059 Goal=   None    Shift=    0.000
 Gap=     0.029 Goal=   None    Shift=    0.000
 RMSDP=1.39D-04 MaxDP=1.82D-02 DE=-8.54D-06 OVMax= 2.96D-03

 Cycle   8  Pass 1  IDiag  1:
 E= -1136.11309083196     Delta-E=       -0.000001790085 Rises=F Damp=F
 DIIS: error= 1.90D-05 at cycle   8 NSaved=   8.
 NSaved= 8 IEnMin= 8 EnMin= -1136.11309083196     IErMin= 8 ErrMin= 1.90D-05
 ErrMax= 1.90D-05  0.00D+00 EMaxC= 1.00D-01 BMatC= 5.14D-08 BMatP= 2.65D-07
 IDIUse=1 WtCom= 1.00D+00 WtEn= 0.00D+00
 Coeff-Com:  0.626D-03-0.784D-03 0.616D-03 0.309D-02-0.112D-01-0.127D+00
 Coeff-Com:  0.143D+00 0.991D+00
 Coeff:      0.626D-03-0.784D-03 0.616D-03 0.309D-02-0.112D-01-0.127D+00
 Coeff:      0.143D+00 0.991D+00
 Gap=     0.059 Goal=   None    Shift=    0.000
 Gap=     0.029 Goal=   None    Shift=    0.000
 RMSDP=5.32D-05 MaxDP=3.78D-03 DE=-1.79D-06 OVMax= 1.22D-03

 Cycle   9  Pass 1  IDiag  1:
 E= -1136.11309111302     Delta-E=       -0.000000281057 Rises=F Damp=F
 DIIS: error= 9.13D-06 at cycle   9 NSaved=   9.
 NSaved= 9 IEnMin= 9 EnMin= -1136.11309111302     IErMin= 9 ErrMin= 9.13D-06
 ErrMax= 9.13D-06  0.00D+00 EMaxC= 1.00D-01 BMatC= 2.48D-08 BMatP= 5.14D-08
 IDIUse=1 WtCom= 1.00D+00 WtEn= 0.00D+00
 Coeff-Com:  0.614D-04-0.598D-04 0.238D-02 0.169D-02 0.216D-02-0.178D-01
 Coeff-Com: -0.151D+00 0.416D+00 0.746D+00
 Coeff:      0.614D-04-0.598D-04 0.238D-02 0.169D-02 0.216D-02-0.178D-01
 Coeff:     -0.151D+00 0.416D+00 0.746D+00
 Gap=     0.059 Goal=   None    Shift=    0.000
 Gap=     0.029 Goal=   None    Shift=    0.000
 RMSDP=3.58D-05 MaxDP=2.23D-03 DE=-2.81D-07 OVMax= 5.97D-04

 Cycle  10  Pass 1  IDiag  1:
 E= -1136.11309119223     Delta-E=       -0.000000079218 Rises=F Damp=F
 DIIS: error= 7.36D-06 at cycle  10 NSaved=  10.
 NSaved=10 IEnMin=10 EnMin= -1136.11309119223     IErMin=10 ErrMin= 7.36D-06
 ErrMax= 7.36D-06  0.00D+00 EMaxC= 1.00D-01 BMatC= 1.48D-08 BMatP= 2.48D-08
 IDIUse=1 WtCom= 1.00D+00 WtEn= 0.00D+00
 Coeff-Com: -0.161D-03 0.214D-03 0.174D-02 0.125D-03 0.581D-02 0.333D-01
 Coeff-Com: -0.160D+00-0.966D-01 0.534D+00 0.682D+00
 Coeff:     -0.161D-03 0.214D-03 0.174D-02 0.125D-03 0.581D-02 0.333D-01
 Coeff:     -0.160D+00-0.966D-01 0.534D+00 0.682D+00
 Gap=     0.059 Goal=   None    Shift=    0.000
 Gap=     0.029 Goal=   None    Shift=    0.000
 RMSDP=3.09D-05 MaxDP=1.82D-03 DE=-7.92D-08 OVMax= 4.30D-04

 Cycle  11  Pass 1  IDiag  1:
 E= -1136.11309123652     Delta-E=       -0.000000044289 Rises=F Damp=F
 DIIS: error= 2.62D-06 at cycle  11 NSaved=  11.
 NSaved=11 IEnMin=11 EnMin= -1136.11309123652     IErMin=11 ErrMin= 2.62D-06
 ErrMax= 2.62D-06  0.00D+00 EMaxC= 1.00D-01 BMatC= 2.25D-09 BMatP= 1.48D-08
 IDIUse=1 WtCom= 1.00D+00 WtEn= 0.00D+00
 Coeff-Com: -0.156D-03 0.203D-03 0.114D-03-0.400D-03 0.239D-02 0.258D-01
 Coeff-Com: -0.590D-01-0.101D+00 0.315D-01 0.248D+00 0.853D+00
 Coeff:     -0.156D-03 0.203D-03 0.114D-03-0.400D-03 0.239D-02 0.258D-01
 Coeff:     -0.590D-01-0.101D+00 0.315D-01 0.248D+00 0.853D+00
 Gap=     0.059 Goal=   None    Shift=    0.000
 Gap=     0.029 Goal=   None    Shift=    0.000
 RMSDP=1.97D-05 MaxDP=1.14D-03 DE=-4.43D-08 OVMax= 3.32D-04

 Cycle  12  Pass 1  IDiag  1:
 E= -1136.11309125006     Delta-E=       -0.000000013533 Rises=F Damp=F
 DIIS: error= 2.29D-06 at cycle  12 NSaved=  12.
 NSaved=12 IEnMin=12 EnMin= -1136.11309125006     IErMin=12 ErrMin= 2.29D-06
 ErrMax= 2.29D-06  0.00D+00 EMaxC= 1.00D-01 BMatC= 9.59D-10 BMatP= 2.25D-09
 IDIUse=1 WtCom= 1.00D+00 WtEn= 0.00D+00
 Coeff-Com: -0.308D-04 0.380D-04-0.347D-03-0.179D-03-0.294D-03 0.267D-02
 Coeff-Com:  0.124D-01-0.144D-01-0.127D+00-0.711D-01 0.394D+00 0.805D+00
 Coeff:     -0.308D-04 0.380D-04-0.347D-03-0.179D-03-0.294D-03 0.267D-02
 Coeff:      0.124D-01-0.144D-01-0.127D+00-0.711D-01 0.394D+00 0.805D+00
 Gap=     0.059 Goal=   None    Shift=    0.000
 Gap=     0.029 Goal=   None    Shift=    0.000
 RMSDP=1.12D-05 MaxDP=7.08D-04 DE=-1.35D-08 OVMax= 3.20D-04

 Cycle  13  Pass 1  IDiag  1:
 E= -1136.11309125787     Delta-E=       -0.000000007813 Rises=F Damp=F
 DIIS: error= 2.23D-06 at cycle  13 NSaved=  13.
 NSaved=13 IEnMin=13 EnMin= -1136.11309125787     IErMin=13 ErrMin= 2.23D-06
 ErrMax= 2.23D-06  0.00D+00 EMaxC= 1.00D-01 BMatC= 6.31D-10 BMatP= 9.59D-10
 IDIUse=1 WtCom= 1.00D+00 WtEn= 0.00D+00
 Coeff-Com:  0.239D-04-0.327D-04-0.237D-03-0.537D-05-0.774D-03-0.500D-02
 Coeff-Com:  0.229D-01 0.152D-01-0.876D-01-0.103D+00 0.456D-01 0.500D+00
 Coeff-Com:  0.614D+00
 Coeff:      0.239D-04-0.327D-04-0.237D-03-0.537D-05-0.774D-03-0.500D-02
 Coeff:      0.229D-01 0.152D-01-0.876D-01-0.103D+00 0.456D-01 0.500D+00
 Coeff:      0.614D+00
 Gap=     0.059 Goal=   None    Shift=    0.000
 Gap=     0.029 Goal=   None    Shift=    0.000
 RMSDP=4.87D-06 MaxDP=2.86D-04 DE=-7.81D-09 OVMax= 2.46D-04

 Cycle  14  Pass 1  IDiag  1:
 E= -1136.11309126311     Delta-E=       -0.000000005243 Rises=F Damp=F
 DIIS: error= 2.18D-06 at cycle  14 NSaved=  14.
 NSaved=14 IEnMin=14 EnMin= -1136.11309126311     IErMin=14 ErrMin= 2.18D-06
 ErrMax= 2.18D-06  0.00D+00 EMaxC= 1.00D-01 BMatC= 4.18D-10 BMatP= 6.31D-10
 IDIUse=1 WtCom= 1.00D+00 WtEn= 0.00D+00
 Coeff-Com:  0.149D-04-0.186D-04 0.117D-03 0.638D-04 0.732D-04-0.885D-03
 Coeff-Com: -0.531D-02 0.716D-02 0.547D-01 0.287D-01-0.174D+00-0.342D+00
 Coeff-Com:  0.108D-01 0.142D+01
 Coeff:      0.149D-04-0.186D-04 0.117D-03 0.638D-04 0.732D-04-0.885D-03
 Coeff:     -0.531D-02 0.716D-02 0.547D-01 0.287D-01-0.174D+00-0.342D+00
 Coeff:      0.108D-01 0.142D+01
 Gap=     0.059 Goal=   None    Shift=    0.000
 Gap=     0.029 Goal=   None    Shift=    0.000
 RMSDP=5.88D-06 MaxDP=2.56D-04 DE=-5.24D-09 OVMax= 4.94D-04

 Cycle  15  Pass 1  IDiag  1:
 E= -1136.11309127272     Delta-E=       -0.000000009604 Rises=F Damp=F
 DIIS: error= 2.08D-06 at cycle  15 NSaved=  15.
 NSaved=15 IEnMin=15 EnMin= -1136.11309127272     IErMin=15 ErrMin= 2.08D-06
 ErrMax= 2.08D-06  0.00D+00 EMaxC= 1.00D-01 BMatC= 3.70D-10 BMatP= 4.18D-10
 IDIUse=1 WtCom= 1.00D+00 WtEn= 0.00D+00
 Coeff-Com: -0.625D-04 0.822D-04 0.726D-04-0.148D-03 0.874D-03 0.754D-02
 Coeff-Com: -0.151D-01-0.425D-01 0.159D-02 0.799D-01 0.294D+00 0.605D-01
 Coeff-Com: -0.734D+00-0.264D+01 0.399D+01
 Coeff:     -0.625D-04 0.822D-04 0.726D-04-0.148D-03 0.874D-03 0.754D-02
 Coeff:     -0.151D-01-0.425D-01 0.159D-02 0.799D-01 0.294D+00 0.605D-01
 Coeff:     -0.734D+00-0.264D+01 0.399D+01
 Gap=     0.059 Goal=   None    Shift=    0.000
 Gap=     0.029 Goal=   None    Shift=    0.000
 RMSDP=1.61D-05 MaxDP=8.17D-04 DE=-9.60D-09 OVMax= 1.58D-03

 Cycle  16  Pass 1  IDiag  1:
 E= -1136.11309130022     Delta-E=       -0.000000027505 Rises=F Damp=F
 DIIS: error= 1.75D-06 at cycle  16 NSaved=  16.
 NSaved=16 IEnMin=16 EnMin= -1136.11309130022     IErMin=16 ErrMin= 1.75D-06
 ErrMax= 1.75D-06  0.00D+00 EMaxC= 1.00D-01 BMatC= 2.69D-10 BMatP= 3.70D-10
 IDIUse=1 WtCom= 1.00D+00 WtEn= 0.00D+00
 Coeff-Com:  0.205D-04-0.307D-04-0.391D-03 0.214D-04-0.116D-02-0.418D-02
 Coeff-Com:  0.259D-01 0.480D-01-0.194D+00-0.215D+00 0.253D+00 0.113D+01
 Coeff-Com:  0.711D+00-0.223D+01-0.352D+01 0.500D+01
 Coeff:      0.205D-04-0.307D-04-0.391D-03 0.214D-04-0.116D-02-0.418D-02
 Coeff:      0.259D-01 0.480D-01-0.194D+00-0.215D+00 0.253D+00 0.113D+01
 Coeff:      0.711D+00-0.223D+01-0.352D+01 0.500D+01
 Gap=     0.059 Goal=   None    Shift=    0.000
 Gap=     0.029 Goal=   None    Shift=    0.000
 RMSDP=6.09D-05 MaxDP=3.11D-03 DE=-2.75D-08 OVMax= 6.00D-03

 Cycle  17  Pass 1  IDiag  1:
 E= -1136.11309136197     Delta-E=       -0.000000061746 Rises=F Damp=F
 DIIS: error= 5.08D-07 at cycle  17 NSaved=  17.
 NSaved=17 IEnMin=17 EnMin= -1136.11309136197     IErMin=17 ErrMin= 5.08D-07
 ErrMax= 5.08D-07  0.00D+00 EMaxC= 1.00D-01 BMatC= 6.07D-11 BMatP= 2.69D-10
 IDIUse=1 WtCom= 1.00D+00 WtEn= 0.00D+00
 Coeff-Com:  0.300D-04-0.403D-04-0.184D-03 0.167D-04-0.597D-03-0.296D-02
 Coeff-Com:  0.115D-01 0.279D-01-0.479D-01-0.830D-01-0.595D-01 0.221D+00
 Coeff-Com:  0.503D+00 0.774D+00-0.320D+01 0.193D+01 0.925D+00
 Coeff:      0.300D-04-0.403D-04-0.184D-03 0.167D-04-0.597D-03-0.296D-02
 Coeff:      0.115D-01 0.279D-01-0.479D-01-0.830D-01-0.595D-01 0.221D+00
 Coeff:      0.503D+00 0.774D+00-0.320D+01 0.193D+01 0.925D+00
 Gap=     0.059 Goal=   None    Shift=    0.000
 Gap=     0.029 Goal=   None    Shift=    0.000
 RMSDP=1.79D-05 MaxDP=9.12D-04 DE=-6.17D-08 OVMax= 1.75D-03

 Cycle  18  Pass 1  IDiag  1:
 E= -1136.11309136724     Delta-E=       -0.000000005269 Rises=F Damp=F
 DIIS: error= 3.05D-07 at cycle  18 NSaved=  18.
 NSaved=18 IEnMin=18 EnMin= -1136.11309136724     IErMin=18 ErrMin= 3.05D-07
 ErrMax= 3.05D-07  0.00D+00 EMaxC= 1.00D-01 BMatC= 1.16D-11 BMatP= 6.07D-11
 IDIUse=1 WtCom= 1.00D+00 WtEn= 0.00D+00
 Coeff-Com:  0.375D-05-0.429D-05-0.313D-04-0.325D-04 0.367D-04 0.277D-03
 Coeff-Com: -0.178D-02 0.705D-02 0.158D-01-0.215D-02-0.910D-01-0.111D+00
 Coeff-Com:  0.144D+00 0.928D+00-0.105D+01 0.212D-01 0.252D+00 0.891D+00
 Coeff:      0.375D-05-0.429D-05-0.313D-04-0.325D-04 0.367D-04 0.277D-03
 Coeff:     -0.178D-02 0.705D-02 0.158D-01-0.215D-02-0.910D-01-0.111D+00
 Coeff:      0.144D+00 0.928D+00-0.105D+01 0.212D-01 0.252D+00 0.891D+00
 Gap=     0.059 Goal=   None    Shift=    0.000
 Gap=     0.029 Goal=   None    Shift=    0.000
 RMSDP=5.88D-06 MaxDP=2.99D-04 DE=-5.27D-09 OVMax= 5.66D-04

 Cycle  19  Pass 1  IDiag  1:
 E= -1136.11309136773     Delta-E=       -0.000000000494 Rises=F Damp=F
 DIIS: error= 1.01D-07 at cycle  19 NSaved=  19.
 NSaved=19 IEnMin=19 EnMin= -1136.11309136773     IErMin=19 ErrMin= 1.01D-07
 ErrMax= 1.01D-07  0.00D+00 EMaxC= 1.00D-01 BMatC= 1.01D-12 BMatP= 1.16D-11
 IDIUse=1 WtCom= 1.00D+00 WtEn= 0.00D+00
 Coeff-Com: -0.188D-05 0.242D-05 0.265D-04 0.104D-04 0.447D-04 0.171D-03
 Coeff-Com: -0.703D-03-0.247D-02 0.199D-02 0.634D-02 0.137D-01-0.886D-02
 Coeff-Com: -0.600D-01-0.163D+00 0.388D+00-0.164D+00-0.137D+00-0.143D+00
 Coeff-Com:  0.127D+01
 Coeff:     -0.188D-05 0.242D-05 0.265D-04 0.104D-04 0.447D-04 0.171D-03
 Coeff:     -0.703D-03-0.247D-02 0.199D-02 0.634D-02 0.137D-01-0.886D-02
 Coeff:     -0.600D-01-0.163D+00 0.388D+00-0.164D+00-0.137D+00-0.143D+00
 Coeff:      0.127D+01
 Gap=     0.059 Goal=   None    Shift=    0.000
 Gap=     0.029 Goal=   None    Shift=    0.000
 RMSDP=1.45D-06 MaxDP=7.03D-05 DE=-4.94D-10 OVMax= 1.30D-04

 Cycle  20  Pass 1  IDiag  1:
 E= -1136.11309136774     Delta-E=       -0.000000000006 Rises=F Damp=F
 DIIS: error= 4.82D-08 at cycle  20 NSaved=  20.
 NSaved=20 IEnMin=20 EnMin= -1136.11309136774     IErMin=20 ErrMin= 4.82D-08
 ErrMax= 4.82D-08  0.00D+00 EMaxC= 1.00D-01 BMatC= 1.58D-13 BMatP= 1.01D-12
 IDIUse=1 WtCom= 1.00D+00 WtEn= 0.00D+00
 Coeff-Com: -0.712D-06 0.930D-06-0.766D-06-0.835D-06-0.557D-05-0.420D-04
 Coeff-Com:  0.224D-03-0.133D-02-0.741D-03 0.148D-02 0.830D-02 0.662D-02
 Coeff-Com: -0.134D-01-0.684D-01 0.924D-01-0.266D-01 0.171D-01-0.397D-02
 Coeff-Com: -0.415D+00 0.140D+01
 Coeff:     -0.712D-06 0.930D-06-0.766D-06-0.835D-06-0.557D-05-0.420D-04
 Coeff:      0.224D-03-0.133D-02-0.741D-03 0.148D-02 0.830D-02 0.662D-02
 Coeff:     -0.134D-01-0.684D-01 0.924D-01-0.266D-01 0.171D-01-0.397D-02
 Coeff:     -0.415D+00 0.140D+01
 Gap=     0.059 Goal=   None    Shift=    0.000
 Gap=     0.029 Goal=   None    Shift=    0.000
 RMSDP=2.88D-07 MaxDP=1.57D-05 DE=-6.14D-12 OVMax= 1.54D-05

 Cycle  21  Pass 1  IDiag  1:
 E= -1136.11309136775     Delta-E=       -0.000000000017 Rises=F Damp=F
 DIIS: error= 1.39D-08 at cycle  21 NSaved=  20.
 NSaved=20 IEnMin=20 EnMin= -1136.11309136775     IErMin=20 ErrMin= 1.39D-08
 ErrMax= 1.39D-08  0.00D+00 EMaxC= 1.00D-01 BMatC= 2.08D-14 BMatP= 1.58D-13
 IDIUse=1 WtCom= 1.00D+00 WtEn= 0.00D+00
 Coeff-Com:  0.335D-07-0.106D-05-0.151D-05 0.350D-05 0.283D-04-0.174D-03
 Coeff-Com:  0.371D-03 0.719D-03-0.116D-03-0.365D-02-0.323D-02 0.618D-02
 Coeff-Com:  0.301D-01-0.477D-01 0.156D-01 0.168D-01 0.540D-02-0.964D-01
 Coeff-Com: -0.868D-01 0.116D+01
 Coeff:      0.335D-07-0.106D-05-0.151D-05 0.350D-05 0.283D-04-0.174D-03
 Coeff:      0.371D-03 0.719D-03-0.116D-03-0.365D-02-0.323D-02 0.618D-02
 Coeff:      0.301D-01-0.477D-01 0.156D-01 0.168D-01 0.540D-02-0.964D-01
 Coeff:     -0.868D-01 0.116D+01
 Gap=     0.059 Goal=   None    Shift=    0.000
 Gap=     0.029 Goal=   None    Shift=    0.000
 RMSDP=6.39D-08 MaxDP=3.51D-06 DE=-1.68D-11 OVMax= 9.67D-07

 Cycle  22  Pass 1  IDiag  1:
 E= -1136.11309136776     Delta-E=       -0.000000000005 Rises=F Damp=F
 DIIS: error= 5.96D-09 at cycle  22 NSaved=  20.
 NSaved=20 IEnMin=20 EnMin= -1136.11309136776     IErMin=20 ErrMin= 5.96D-09
 ErrMax= 5.96D-09  0.00D+00 EMaxC= 1.00D-01 BMatC= 5.80D-15 BMatP= 2.08D-14
 IDIUse=1 WtCom= 1.00D+00 WtEn= 0.00D+00
 Coeff-Com:  0.699D-06-0.730D-07 0.336D-05 0.190D-04-0.849D-04 0.218D-03
 Coeff-Com:  0.175D-03-0.139D-03-0.113D-02-0.137D-02 0.900D-03 0.843D-02
 Coeff-Com: -0.681D-02 0.455D-03-0.514D-02-0.547D-02 0.814D-01-0.308D+00
 Coeff-Com:  0.365D+00 0.872D+00
 Coeff:      0.699D-06-0.730D-07 0.336D-05 0.190D-04-0.849D-04 0.218D-03
 Coeff:      0.175D-03-0.139D-03-0.113D-02-0.137D-02 0.900D-03 0.843D-02
 Coeff:     -0.681D-02 0.455D-03-0.514D-02-0.547D-02 0.814D-01-0.308D+00
 Coeff:      0.365D+00 0.872D+00
 Gap=     0.059 Goal=   None    Shift=    0.000
 Gap=     0.029 Goal=   None    Shift=    0.000
 RMSDP=3.18D-08 MaxDP=2.59D-06 DE=-5.46D-12 OVMax= 1.08D-06

 Cycle  23  Pass 1  IDiag  1:
 E= -1136.11309136776     Delta-E=        0.000000000002 Rises=F Damp=F
 DIIS: error= 2.06D-09 at cycle  23 NSaved=  20.
 NSaved=20 IEnMin=19 EnMin= -1136.11309136776     IErMin=20 ErrMin= 2.06D-09
 ErrMax= 2.06D-09  0.00D+00 EMaxC= 1.00D-01 BMatC= 4.52D-16 BMatP= 5.80D-15
 IDIUse=1 WtCom= 1.00D+00 WtEn= 0.00D+00
 Large coefficients: NSaved= 20 BigCof=    0.00 CofMax=   10.00 Det=-1.78D-15
 Inversion failed.  Reducing to 19 matrices.
 Large coefficients: NSaved= 19 BigCof=    0.00 CofMax=   10.00 Det=-1.97D-15
 Inversion failed.  Reducing to 18 matrices.
 Large coefficients: NSaved= 18 BigCof=    0.00 CofMax=   10.00 Det=-2.07D-15
 Inversion failed.  Reducing to 17 matrices.
 Large coefficients: NSaved= 17 BigCof=    0.00 CofMax=   10.00 Det=-2.07D-15
 Inversion failed.  Reducing to 16 matrices.
 Large coefficients: NSaved= 16 BigCof=    0.00 CofMax=   10.00 Det=-2.07D-15
 Inversion failed.  Reducing to 15 matrices.
 Coeff-Com:  0.465D-04 0.419D-04-0.141D-03-0.509D-03-0.717D-04 0.229D-02
 Coeff-Com: -0.229D-03-0.199D-02-0.575D-03 0.412D-02 0.704D-02-0.263D-01
 Coeff-Com: -0.726D-01 0.112D+00 0.977D+00
 Coeff:      0.465D-04 0.419D-04-0.141D-03-0.509D-03-0.717D-04 0.229D-02
 Coeff:     -0.229D-03-0.199D-02-0.575D-03 0.412D-02 0.704D-02-0.263D-01
 Coeff:     -0.726D-01 0.112D+00 0.977D+00
 Gap=     0.059 Goal=   None    Shift=    0.000
 Gap=     0.029 Goal=   None    Shift=    0.000
 RMSDP=8.73D-09 MaxDP=8.42D-07 DE= 2.27D-12 OVMax= 1.05D-07

 SCF Done:  E(UB3LYP) =  -1136.11309137     A.U. after   23 cycles
            NFock= 23  Conv=0.87D-08     -V/T= 2.0026
 <Sx>= 0.0000 <Sy>= 0.0000 <Sz>= 0.5000 <S**2>= 0.7650 S= 0.5075
 <L.S>= 0.000000000000E+00
 KE= 1.133162079644D+03 PE=-3.480775705116D+03 EE= 8.358798177290D+02
 Annihilation of the first spin contaminant:
 S**2 before annihilation     0.7650,   after     0.7501
 Leave Link  502 at Mon Nov 13 18:34:24 2023, MaxMem=  1879048192 cpu:             224.0 elap:              19.1
 (Enter /home/sekinelabo/g16/l601.exe)
 Copying SCF densities to generalized density rwf, IOpCl= 1 IROHF=0.

 **********************************************************************

            Population analysis using the SCF Density.

 **********************************************************************

 Orbital symmetries:
 Alpha Orbitals:
       Occupied  (A) (A) (A) (A) (A) (A) (A) (A) (A) (A) (A) (A)
                 (A) (A) (A) (A) (A) (A) (A) (A) (A) (A) (A) (A)
                 (A) (A) (A) (A) (A) (A) (A) (A) (A) (A) (A) (A)
                 (A) (A) (A)
       Virtual   (A) (A) (A) (A) (A) (A) (A) (A) (A) (A) (A) (A)
                 (A) (A) (A) (A) (A) (A) (A) (A) (A) (A) (A) (A)
                 (A) (A) (A) (A) (A) (A) (A) (A) (A) (A) (A) (A)
                 (A) (A) (A) (A) (A) (A) (A) (A) (A) (A) (A) (A)
                 (A) (A) (A) (A) (A) (A) (A) (A) (A) (A) (A) (A)
                 (A) (A) (A) (A) (A) (A) (A) (A) (A) (A) (A) (A)
                 (A) (A) (A) (A) (A) (A) (A) (A) (A) (A) (A) (A)
                 (A) (A) (A) (A) (A) (A) (A) (A) (A) (A) (A) (A)
                 (A) (A) (A) (A) (A) (A) (A) (A) (A) (A) (A) (A)
                 (A) (A) (A) (A) (A) (A) (A) (A) (A) (A) (A) (A)
                 (A) (A) (A) (A) (A) (A) (A) (A) (A) (A) (A) (A)
                 (A) (A) (A) (A) (A) (A) (A) (A) (A) (A) (A) (A)
                 (A) (A) (A) (A) (A) (A) (A) (A) (A) (A) (A) (A)
                 (A) (A) (A) (A) (A) (A) (A) (A) (A) (A) (A) (A)
                 (A) (A) (A)
 Beta  Orbitals:
       Occupied  (A) (A) (A) (A) (A) (A) (A) (A) (A) (A) (A) (A)
                 (A) (A) (A) (A) (A) (A) (A) (A) (A) (A) (A) (A)
                 (A) (A) (A) (A) (A) (A) (A) (A) (A) (A) (A) (A)
                 (A) (A)
       Virtual   (A) (A) (A) (A) (A) (A) (A) (A) (A) (A) (A) (A)
                 (A) (A) (A) (A) (A) (A) (A) (A) (A) (A) (A) (A)
                 (A) (A) (A) (A) (A) (A) (A) (A) (A) (A) (A) (A)
                 (A) (A) (A) (A) (A) (A) (A) (A) (A) (A) (A) (A)
                 (A) (A) (A) (A) (A) (A) (A) (A) (A) (A) (A) (A)
                 (A) (A) (A) (A) (A) (A) (A) (A) (A) (A) (A) (A)
                 (A) (A) (A) (A) (A) (A) (A) (A) (A) (A) (A) (A)
                 (A) (A) (A) (A) (A) (A) (A) (A) (A) (A) (A) (A)
                 (A) (A) (A) (A) (A) (A) (A) (A) (A) (A) (A) (A)
                 (A) (A) (A) (A) (A) (A) (A) (A) (A) (A) (A) (A)
                 (A) (A) (A) (A) (A) (A) (A) (A) (A) (A) (A) (A)
                 (A) (A) (A) (A) (A) (A) (A) (A) (A) (A) (A) (A)
                 (A) (A) (A) (A) (A) (A) (A) (A) (A) (A) (A) (A)
                 (A) (A) (A) (A) (A) (A) (A) (A) (A) (A) (A) (A)
                 (A) (A) (A) (A)
 The electronic state is 2-A.
 Alpha  occ. eigenvalues --  -38.44415 -38.44412 -38.44179 -38.43977 -38.43977
 Alpha  occ. eigenvalues --  -38.42446 -38.42445  -2.20339  -2.20322  -2.20128
 Alpha  occ. eigenvalues --   -2.20118  -2.20102  -2.18391  -2.18388  -1.14162
 Alpha  occ. eigenvalues --   -1.14099  -1.14096  -1.13943  -1.13922  -1.13891
 Alpha  occ. eigenvalues --   -1.13890  -1.13868  -1.13781  -1.13757  -1.13739
 Alpha  occ. eigenvalues --   -1.13738  -1.13674  -1.13667  -1.13645  -1.12118
 Alpha  occ. eigenvalues --   -1.12112  -1.12084  -1.12075  -1.11955  -1.11952
 Alpha  occ. eigenvalues --   -0.20011  -0.13534  -0.12652  -0.11566
 Alpha virt. eigenvalues --   -0.05672  -0.04699  -0.03833  -0.03339  -0.03311
 Alpha virt. eigenvalues --   -0.02919  -0.01540  -0.00556  -0.00319   0.00325
 Alpha virt. eigenvalues --    0.00433   0.00472   0.00861   0.00982   0.00997
 Alpha virt. eigenvalues --    0.01047   0.01183   0.01327   0.01397   0.01526
 Alpha virt. eigenvalues --    0.01552   0.01584   0.01591   0.01829   0.01937
 Alpha virt. eigenvalues --    0.02397   0.02518   0.02804   0.02837   0.02870
 Alpha virt. eigenvalues --    0.02906   0.03009   0.03026   0.03117   0.03152
 Alpha virt. eigenvalues --    0.03218   0.03458   0.03481   0.03831   0.04020
 Alpha virt. eigenvalues --    0.04251   0.04551   0.04570   0.04766   0.05220
 Alpha virt. eigenvalues --    0.05441   0.05503   0.05742   0.05884   0.06002
 Alpha virt. eigenvalues --    0.06256   0.06456   0.07044   0.07075   0.07104
 Alpha virt. eigenvalues --    0.07591   0.08526   0.08561   0.09098   0.09547
 Alpha virt. eigenvalues --    0.09883   0.10088   0.10674   0.11028   0.12525
 Alpha virt. eigenvalues --    0.12628   0.12646   0.12879   0.14078   0.14266
 Alpha virt. eigenvalues --    0.14355   0.14442   0.14782   0.15067   0.15541
 Alpha virt. eigenvalues --    0.15584   0.16788   0.17002   0.17638   0.19899
 Alpha virt. eigenvalues --    0.24159   0.24525   0.24688   0.26739   0.29472
 Alpha virt. eigenvalues --    0.30106   0.31767   0.31884   0.31929   0.33116
 Alpha virt. eigenvalues --    0.35215   0.35848   0.36958   0.37665   0.38210
 Alpha virt. eigenvalues --    0.40231   0.41731   0.42555   0.43418   0.44027
 Alpha virt. eigenvalues --    0.44442   0.44892   0.45066   0.45169   0.45897
 Alpha virt. eigenvalues --    0.45963   0.46310   0.46336   0.46747   0.48038
 Alpha virt. eigenvalues --    0.48728   0.49168   0.50334   0.51293   0.51609
 Alpha virt. eigenvalues --    0.52517   0.52553   0.53666   0.54146   0.55140
 Alpha virt. eigenvalues --    0.55229   0.55603   0.55650   0.56768   0.59716
 Alpha virt. eigenvalues --    0.59851   0.60192   0.67478   0.67545   0.70427
 Alpha virt. eigenvalues --    0.71510   0.73680   0.74228   0.76180   0.78719
 Alpha virt. eigenvalues --    0.79014   2.06801   2.18304   2.20084   2.21696
 Alpha virt. eigenvalues --    2.25290   2.29852   2.36132   4.40689   4.41402
 Alpha virt. eigenvalues --    4.42320   4.43442   4.44431   4.45456   4.46130
 Alpha virt. eigenvalues --    4.46504   4.46658   4.49045   4.50168   4.52879
 Alpha virt. eigenvalues --    4.54323   4.58641   4.66133   4.66733   4.67966
 Alpha virt. eigenvalues --    4.68460   4.71681   4.73816   4.75192  96.26801
 Alpha virt. eigenvalues --   96.41252  96.44421  96.45698  96.50463  96.57660
 Alpha virt. eigenvalues --   96.65795
  Beta  occ. eigenvalues --  -38.44376 -38.44373 -38.44173 -38.43899 -38.43899
  Beta  occ. eigenvalues --  -38.42440 -38.42439  -2.20270  -2.20253  -2.20109
  Beta  occ. eigenvalues --   -2.19979  -2.19973  -2.18384  -2.18382  -1.14097
  Beta  occ. eigenvalues --   -1.14043  -1.14015  -1.13901  -1.13877  -1.13848
  Beta  occ. eigenvalues --   -1.13844  -1.13822  -1.13704  -1.13689  -1.13656
  Beta  occ. eigenvalues --   -1.13638  -1.13636  -1.13581  -1.13569  -1.12118
  Beta  occ. eigenvalues --   -1.12112  -1.12045  -1.12036  -1.11955  -1.11953
  Beta  occ. eigenvalues --   -0.19217  -0.13321  -0.11290
  Beta virt. eigenvalues --   -0.08414  -0.05627  -0.03939  -0.03465  -0.03280
  Beta virt. eigenvalues --   -0.02500  -0.02129  -0.01492  -0.00299  -0.00211
  Beta virt. eigenvalues --    0.00348   0.00548   0.00640   0.00834   0.01012
  Beta virt. eigenvalues --    0.01068   0.01147   0.01313   0.01320   0.01487
  Beta virt. eigenvalues --    0.01584   0.01589   0.01649   0.01714   0.01947
  Beta virt. eigenvalues --    0.01982   0.02527   0.02544   0.02813   0.02851
  Beta virt. eigenvalues --    0.02867   0.02943   0.03020   0.03044   0.03142
  Beta virt. eigenvalues --    0.03240   0.03282   0.03623   0.03713   0.03999
  Beta virt. eigenvalues --    0.04117   0.04266   0.04606   0.04749   0.04905
  Beta virt. eigenvalues --    0.05247   0.05490   0.05508   0.05961   0.06029
  Beta virt. eigenvalues --    0.06200   0.06361   0.06437   0.07227   0.07256
  Beta virt. eigenvalues --    0.07258   0.07610   0.08563   0.08690   0.09268
  Beta virt. eigenvalues --    0.09980   0.10082   0.10359   0.10803   0.11387
  Beta virt. eigenvalues --    0.12553   0.12639   0.12713   0.13021   0.14317
  Beta virt. eigenvalues --    0.14660   0.14691   0.14770   0.15056   0.15328
  Beta virt. eigenvalues --    0.15557   0.15569   0.17117   0.17456   0.17739
  Beta virt. eigenvalues --    0.20215   0.24394   0.25008   0.25198   0.27306
  Beta virt. eigenvalues --    0.29742   0.30599   0.31845   0.32115   0.32355
  Beta virt. eigenvalues --    0.33941   0.35463   0.35980   0.37315   0.38016
  Beta virt. eigenvalues --    0.38395   0.40401   0.42054   0.42853   0.43453
  Beta virt. eigenvalues --    0.44272   0.44486   0.44874   0.45219   0.45333
  Beta virt. eigenvalues --    0.46130   0.46282   0.46401   0.46455   0.46895
  Beta virt. eigenvalues --    0.48118   0.48836   0.49200   0.50513   0.51693
  Beta virt. eigenvalues --    0.51965   0.52745   0.52861   0.54147   0.54180
  Beta virt. eigenvalues --    0.55275   0.55319   0.55832   0.55979   0.56880
  Beta virt. eigenvalues --    0.59751   0.59825   0.60551   0.67601   0.67624
  Beta virt. eigenvalues --    0.70681   0.71984   0.73993   0.74406   0.76382
  Beta virt. eigenvalues --    0.78960   0.79347   2.06914   2.18366   2.20265
  Beta virt. eigenvalues --    2.21686   2.25324   2.30100   2.36460   4.40780
  Beta virt. eigenvalues --    4.41526   4.42411   4.43516   4.44495   4.45496
  Beta virt. eigenvalues --    4.46201   4.46560   4.46666   4.49050   4.50162
  Beta virt. eigenvalues --    4.52936   4.54364   4.58696   4.66188   4.66837
  Beta virt. eigenvalues --    4.68005   4.68517   4.71799   4.73894   4.75262
  Beta virt. eigenvalues --   96.26842  96.41281  96.44477  96.45701  96.50478
  Beta virt. eigenvalues --   96.57743  96.65900
          Condensed to atoms (all electrons):
               1          2          3          4          5          6
     1  Na  12.367351  -0.401679  -0.220491   0.287274  -0.304972  -0.490055
     2  Na  -0.401679  15.063899  -1.517198  -1.506399  -0.541631  -0.418036
     3  Na  -0.220491  -1.517198  11.296963   0.539352   0.254173   0.294564
     4  Na   0.287274  -1.506399   0.539352  11.286306   0.250839  -0.215030
     5  Na  -0.304972  -0.541631   0.254173   0.250839  12.229718  -0.303594
     6  Na  -0.490055  -0.418036   0.294564  -0.215030  -0.303594  12.367574
     7  Na  -0.302791  -0.538054   0.250549   0.254792   0.010589  -0.296842
               7
     1  Na  -0.302791
     2  Na  -0.538054
     3  Na   0.250549
     4  Na   0.254792
     5  Na   0.010589
     6  Na  -0.296842
     7  Na  12.217470
          Atomic-Atomic Spin Densities.
               1          2          3          4          5          6
     1  Na   0.353262   0.260704   0.020451   0.069886   0.119973  -0.476693
     2  Na   0.260704  -0.124508  -0.034514  -0.038878  -0.158319   0.257384
     3  Na   0.020451  -0.034514   0.043559  -0.040947  -0.019101   0.069304
     4  Na   0.069886  -0.038878  -0.040947   0.046280  -0.030336   0.022065
     5  Na   0.119973  -0.158319  -0.019101  -0.030336  -0.151647   0.186243
     6  Na  -0.476693   0.257384   0.069304   0.022065   0.186243   0.351458
     7  Na   0.183735  -0.158186  -0.030217  -0.020072   0.011414   0.122686
               7
     1  Na   0.183735
     2  Na  -0.158186
     3  Na  -0.030217
     4  Na  -0.020072
     5  Na   0.011414
     6  Na   0.122686
     7  Na  -0.151568
 Mulliken charges and spin densities:
               1          2
     1  Na   0.065362   0.531318
     2  Na   0.859099   0.003683
     3  Na   0.102089   0.008534
     4  Na   0.102866   0.007998
     5  Na  -0.595122  -0.041773
     6  Na   0.061419   0.532447
     7  Na  -0.595713  -0.042208
 Sum of Mulliken charges =  -0.00000   1.00000
 Mulliken charges and spin densities with hydrogens summed into heavy atoms:
               1          2
     1  Na   0.065362   0.531318
     2  Na   0.859099   0.003683
     3  Na   0.102089   0.008534
     4  Na   0.102866   0.007998
     5  Na  -0.595122  -0.041773
     6  Na   0.061419   0.532447
     7  Na  -0.595713  -0.042208
 Electronic spatial extent (au):  <R**2>=           1871.2216
 Charge=             -0.0000 electrons
 Dipole moment (field-independent basis, Debye):
    X=             -0.1018    Y=              0.0003    Z=             -0.0032  Tot=              0.1019
 Quadrupole moment (field-independent basis, Debye-Ang):
   XX=            -55.7338   YY=            -75.1865   ZZ=            -64.2891
   XY=             -0.0012   XZ=             -0.0064   YZ=              0.2724
 Traceless Quadrupole moment (field-independent basis, Debye-Ang):
   XX=              9.3360   YY=            -10.1167   ZZ=              0.7807
   XY=             -0.0012   XZ=             -0.0064   YZ=              0.2724
 Octapole moment (field-independent basis, Debye-Ang**2):
  XXX=             13.2843  YYY=              0.0222  ZZZ=              0.0407  XYY=             -0.8545
  XXY=             -0.0075  XXZ=             -0.1689  XZZ=            -10.4365  YZZ=             -0.0049
  YYZ=             -0.0025  XYZ=              0.0689
 Hexadecapole moment (field-independent basis, Debye-Ang**3):
 XXXX=          -1203.7657 YYYY=           -980.4436 ZZZZ=           -840.8780 XXXY=             -0.0259
 XXXZ=             -0.1112 YYYX=             -0.0101 YYYZ=              3.4254 ZZZX=             -0.0397
 ZZZY=              1.2412 XXYY=           -471.2304 XXZZ=           -338.1329 YYZZ=           -354.8020
 XXYZ=              0.1669 YYXZ=              0.0100 ZZXY=              0.0091
 N-N= 3.756207163746D+02 E-N=-3.480775705160D+03  KE= 1.133162079644D+03
                          Isotropic Fermi Contact Couplings
        Atom                 a.u.       MegaHertz       Gauss      10(-4) cm-1
     1  Na(23)             0.29679     351.11416     125.28626     117.11908
     2  Na(23)             0.00226       2.67721       0.95529       0.89302
     3  Na(23)             0.13244     156.68044      55.90748      52.26297
     4  Na(23)             0.13197     156.12115      55.70791      52.07641
     5  Na(23)            -0.02073     -24.52175      -8.74997      -8.17958
     6  Na(23)             0.29706     351.42942     125.39876     117.22424
     7  Na(23)            -0.02075     -24.54696      -8.75897      -8.18798
 --------------------------------------------------------
       Center         ----  Spin Dipole Couplings  ----
                      3XX-RR        3YY-RR        3ZZ-RR
 --------------------------------------------------------
     1   Atom        0.013989     -0.003582     -0.010407
     2   Atom       -0.008208     -0.013637      0.021845
     3   Atom        0.015510     -0.011172     -0.004338
     4   Atom        0.015355     -0.011095     -0.004260
     5   Atom       -0.019239     -0.017074      0.036312
     6   Atom        0.013982     -0.003597     -0.010385
     7   Atom       -0.019174     -0.016991      0.036165
 --------------------------------------------------------
                        XY            XZ            YZ
 --------------------------------------------------------
     1   Atom       -0.000422     -0.016951      0.000489
     2   Atom        0.000004      0.000214      0.001121
     3   Atom        0.000722      0.022331      0.000482
     4   Atom       -0.000725     -0.022242      0.000493
     5   Atom       -0.001117     -0.000108     -0.001141
     6   Atom        0.000451      0.016770      0.000530
     7   Atom        0.001116      0.000026     -0.001295
 --------------------------------------------------------


 ---------------------------------------------------------------------------------
              Anisotropic Spin Dipole Couplings in Principal Axis System
 ---------------------------------------------------------------------------------

       Atom             a.u.   MegaHertz   Gauss  10(-4) cm-1        Axes

              Baa    -0.0191    -2.697    -0.962    -0.900  0.4558 -0.0157  0.8900
     1 Na(23) Bbb    -0.0036    -0.507    -0.181    -0.169  0.0274  0.9996  0.0035
              Bcc     0.0227     3.204     1.143     1.069  0.8897 -0.0228 -0.4560
 
              Baa    -0.0137    -1.931    -0.689    -0.644  0.0006  0.9995 -0.0315
     2 Na(23) Bbb    -0.0082    -1.159    -0.414    -0.387  1.0000 -0.0008 -0.0071
              Bcc     0.0219     3.090     1.103     1.031  0.0071  0.0315  0.9995
 
              Baa    -0.0189    -2.662    -0.950    -0.888 -0.5449 -0.0014  0.8385
     3 Na(23) Bbb    -0.0112    -1.580    -0.564    -0.527 -0.0184  0.9998 -0.0103
              Bcc     0.0300     4.242     1.514     1.415  0.8383  0.0211  0.5448
 
              Baa    -0.0188    -2.649    -0.945    -0.884  0.5461 -0.0022  0.8377
     4 Na(23) Bbb    -0.0111    -1.569    -0.560    -0.523  0.0191  0.9998 -0.0099
              Bcc     0.0299     4.219     1.505     1.407  0.8375 -0.0214 -0.5460
 
              Baa    -0.0197    -2.784    -0.994    -0.929  0.9195  0.3929  0.0098
     5 Na(23) Bbb    -0.0166    -2.347    -0.837    -0.783 -0.3930  0.9194  0.0190
              Bcc     0.0363     5.131     1.831     1.712 -0.0015 -0.0213  0.9998
 
              Baa    -0.0189    -2.674    -0.954    -0.892 -0.4537 -0.0174  0.8910
     6 Na(23) Bbb    -0.0036    -0.509    -0.182    -0.170 -0.0298  0.9995  0.0044
              Bcc     0.0225     3.183     1.136     1.062  0.8907  0.0246  0.4540
 
              Baa    -0.0196    -2.775    -0.990    -0.926  0.9203 -0.3911 -0.0095
     7 Na(23) Bbb    -0.0165    -2.337    -0.834    -0.779  0.3912  0.9200  0.0224
              Bcc     0.0362     5.111     1.824     1.705 -0.0000 -0.0243  0.9997
 

 ---------------------------------------------------------------------------------

 No NMR shielding tensors so no spin-rotation constants.
 Leave Link  601 at Mon Nov 13 18:34:24 2023, MaxMem=  1879048192 cpu:               2.7 elap:               0.2
 (Enter /home/sekinelabo/g16/l701.exe)
 ... and contract with generalized density number  0.
 Compute integral first derivatives.
 Leave Link  701 at Mon Nov 13 18:34:24 2023, MaxMem=  1879048192 cpu:               1.8 elap:               0.1
 (Enter /home/sekinelabo/g16/l702.exe)
 L702 exits ... SP integral derivatives will be done elsewhere.
 Leave Link  702 at Mon Nov 13 18:34:24 2023, MaxMem=  1879048192 cpu:               0.4 elap:               0.0
 (Enter /home/sekinelabo/g16/l703.exe)
 Integral derivatives from FoFJK, PRISM(SPDF).
 Compute integral first derivatives, UseDBF=F ICtDFT=           0.
 Calling FoFJK, ICntrl=      2127 FMM=F ISym2X=0 I1Cent= 0 IOpClX= 1 NMat=1 NMatS=1 NMatT=0.
 FoFJK:  IHMeth= 1 ICntrl=    2127 DoSepK=F KAlg= 0 I1Cent=           0 FoldK=F
 IRaf=         0 NMat=       1 IRICut=       1 DoRegI=T DoRafI=F ISym2E= 0 IDoP0=0 IntGTp=1.
 FoFCou: FMM=F IPFlag=           0 FMFlag=      100000 FMFlg1=         800
         NFxFlg=           0 DoJE=F BraDBF=F KetDBF=F FulRan=T
         wScrn=  0.000000 ICntrl=      2127 IOpCl=  1 I1Cent=           0 NGrid=           0
         NMat0=    1 NMatS0=      1 NMatT0=    0 NMatD0=    1 NMtDS0=    0 NMtDT0=    0
 Symmetry not used in FoFCou.
 Leave Link  703 at Mon Nov 13 18:34:27 2023, MaxMem=  1879048192 cpu:              36.9 elap:               2.4
 (Enter /home/sekinelabo/g16/l716.exe)
 Dipole        =-4.00588121D-02 1.12148583D-04-1.25265381D-03
 ***** Axes restored to original set *****
 -------------------------------------------------------------------
 Center     Atomic                   Forces (Hartrees/Bohr)
 Number     Number              X              Y              Z
 -------------------------------------------------------------------
      1       11           0.002300791    0.000181491   -0.009332231
      2       11           0.008077208   -0.000005828    0.000015897
      3       11          -0.004193853    0.000139959   -0.003346406
      4       11          -0.004199818   -0.000140067    0.003348016
      5       11          -0.002091617    0.011403987   -0.000087809
      6       11           0.002185714   -0.000248450    0.009292192
      7       11          -0.002078424   -0.011331091    0.000110341
 -------------------------------------------------------------------
 Cartesian Forces:  Max     0.011403987 RMS     0.005226651
 Z-matrix is all fixed cartesians, so copy forces.
 Force constants in Cartesian coordinates: 
                1             2             3             4             5 
      1  0.154682D+00
      2  0.815610D-04  0.126074D+00
      3 -0.116953D-01 -0.447229D-03  0.192515D+00
      4 -0.410591D-01 -0.902829D-04  0.994143D-02  0.132124D+00
      5  0.220947D-03 -0.174078D-01  0.182924D-03  0.309344D-04  0.659604D-01
      6 -0.341272D-01  0.182238D-03 -0.404834D-01  0.175110D-03 -0.463315D-04
      7 -0.454087D-01  0.111773D-03 -0.133272D-01 -0.500921D-02  0.134350D-04
      8 -0.174204D-03 -0.203078D-01  0.184876D-03  0.447679D-04  0.842470D-02
      9  0.267454D-01  0.165782D-03 -0.401570D-01 -0.510477D-02  0.490961D-05
     10 -0.185976D-02 -0.775730D-04  0.102410D-01 -0.502222D-02 -0.229405D-04
     11 -0.907914D-04  0.630346D-02  0.707368D-04 -0.333238D-04  0.837972D-02
     12  0.130682D-01  0.833719D-04 -0.435287D-02  0.501834D-02  0.545167D-05
     13 -0.245410D-01  0.433545D-02  0.272269D-02 -0.198897D-01  0.251306D-01
     14 -0.278778D-02 -0.429686D-01  0.908739D-02 -0.162680D-01 -0.240284D-01
     15  0.264930D-02 -0.329963D-01 -0.365730D-01 -0.154179D-03 -0.402987D-04
     16 -0.173041D-01 -0.216762D-05 -0.543778D-03 -0.412905D-01 -0.269150D-03
     17 -0.634398D-05 -0.853233D-02  0.167845D-03  0.599345D-04 -0.173748D-01
     18  0.666019D-03  0.189362D-03 -0.347952D-01 -0.993830D-02  0.146712D-03
     19 -0.245091D-01 -0.435876D-02  0.266116D-02 -0.198538D-01 -0.251038D-01
     20  0.275661D-02 -0.431607D-01 -0.924654D-02  0.162560D-01 -0.239539D-01
     21  0.269356D-02  0.328228D-01 -0.361537D-01  0.623788D-04 -0.253368D-03
                6             7             8             9            10 
      6  0.697765D-01
      7 -0.220779D-02  0.102005D+00
      8  0.554944D-05 -0.182171D-03  0.521167D-01
      9  0.753208D-02  0.212077D-01 -0.386108D-03  0.967927D-01
     10  0.218045D-02 -0.297028D-01  0.162368D-03 -0.188360D-01  0.101876D+00
     11  0.501071D-05 -0.142423D-03 -0.112221D-01  0.278411D-03  0.148395D-03
     12  0.758756D-02  0.188965D-01  0.273064D-03 -0.457056D-01 -0.211792D-01
     13  0.110572D-03 -0.100564D-01 -0.172882D-01 -0.557665D-02 -0.999327D-02
     14 -0.182358D-03  0.101624D-01 -0.176479D-01  0.612950D-02  0.100726D-01
     15 -0.205249D-02 -0.709801D-02 -0.100879D-01 -0.703007D-02  0.721320D-02
     16  0.341042D-01 -0.181594D-02  0.114096D-03 -0.130864D-01 -0.452929D-01
     17  0.158519D-03  0.816880D-04  0.628041D-02  0.778494D-04 -0.101462D-03
     18 -0.403497D-01 -0.102383D-01  0.777464D-04 -0.451318D-02  0.133049D-01
     19 -0.235369D-03 -0.100117D-01  0.173233D-01 -0.534926D-02 -0.100046D-01
     20 -0.122629D-03 -0.100447D-01 -0.176441D-01 -0.627034D-02 -0.101814D-01
     21 -0.201049D-02 -0.723287D-02  0.993276D-02 -0.691895D-02  0.707563D-02
               11            12            13            14            15 
     11  0.519269D-01
     12 -0.348924D-03  0.963525D-01
     13 -0.173384D-01  0.533155D-02  0.797037D-01
     14 -0.175927D-01 -0.622984D-02  0.125332D-02  0.160176D+00
     15  0.988306D-02 -0.680492D-02 -0.136451D-04  0.582443D-03  0.770143D-01
     16  0.180030D-03 -0.267219D-01 -0.245342D-01 -0.267604D-02 -0.259835D-02
     17 -0.202674D-01  0.131169D-03  0.415426D-02 -0.432084D-01  0.328425D-01
     18  0.142312D-03 -0.402066D-01 -0.257213D-02 -0.920153D-02 -0.361855D-01
     19  0.172765D-01  0.558643D-02  0.931088D-02  0.243518D-03  0.169104D-05
     20 -0.175279D-01  0.608571D-02 -0.246991D-03 -0.147305D-01 -0.183549D-03
     21 -0.100306D-01 -0.687012D-02 -0.239314D-05 -0.185597D-03  0.116317D-01
               16            17            18            19            20 
     16  0.154715D+00
     17 -0.584468D-04  0.125928D+00
     18  0.114016D-01 -0.477067D-03  0.192547D+00
     19 -0.244768D-01 -0.412963D-02 -0.262374D-02  0.795451D-01
     20  0.271167D-02 -0.428256D-01  0.912247D-02 -0.125120D-02  0.159843D+00
     21 -0.255540D-02 -0.329008D-01 -0.364967D-01 -0.409175D-04  0.614885D-03
               21 
     21  0.768182D-01
 Leave Link  716 at Mon Nov 13 18:34:27 2023, MaxMem=  1879048192 cpu:               0.5 elap:               0.0
 (Enter /home/sekinelabo/g16/l103.exe)

 GradGradGradGradGradGradGradGradGradGradGradGradGradGradGradGradGradGrad
 Berny optimization.
 Search for a local minimum.
 Step number   1 out of a maximum of    2
 All quantities printed in internal units (Hartrees-Bohrs-Radians)
 Second derivative matrix not updated -- first step.
 ITU=  0
     Eigenvalues ---    0.07914   0.08063   0.08427   0.10367   0.11234
     Eigenvalues ---    0.11442   0.13932   0.14374   0.17539   0.18360
     Eigenvalues ---    0.20130   0.21131   0.22144   0.23136   0.25215
 Angle between quadratic step and forces=  17.28 degrees.
 Linear search not attempted -- first point.
 B after Tr=     0.000000    0.000000    0.000000
         Rot=    1.000000    0.000000    0.000000   -0.000000 Ang=   0.00 deg.
 Variable       Old X    -DE/DX   Delta X   Delta X   Delta X     New X
                                 (Linear)    (Quad)   (Total)
    X1        5.66711   0.00230   0.00000   0.02373   0.02373   5.69084
    Y1        4.60109   0.00018   0.00000   0.00103   0.00103   4.60213
    Z1        0.00000  -0.00933   0.00000  -0.05912  -0.05912  -0.05912
    X2       10.27435   0.00808   0.00000   0.09674   0.09674  10.37109
    Y2        4.57848  -0.00001   0.00000   0.00002   0.00002   4.57850
    Z2        3.32654   0.00002   0.00000   0.00016   0.00016   3.32670
    X3        0.02220  -0.00419   0.00000  -0.06460  -0.06460  -0.04240
    Y3        4.60106   0.00014   0.00000   0.00201   0.00201   4.60307
    Z3        0.48121  -0.00335   0.00000  -0.04467  -0.04467   0.43654
    X4        0.00000  -0.00420   0.00000  -0.06496  -0.06496  -0.06496
    Y4        4.55536  -0.00014   0.00000  -0.00194  -0.00194   4.55342
    Z4        6.13032   0.00335   0.00000   0.04455   0.04455   6.17487
    X5        5.16321  -0.00209   0.00000  -0.00705  -0.00705   5.15616
    Y5        9.15005   0.01140   0.00000   0.09178   0.09178   9.24183
    Z5        3.33897  -0.00009   0.00000  -0.00087  -0.00087   3.33811
    X6        5.64618   0.00219   0.00000   0.02312   0.02312   5.66930
    Y6        4.55341  -0.00025   0.00000  -0.00128  -0.00128   4.55213
    Z6        6.62169   0.00929   0.00000   0.05901   0.05901   6.68070
    X7        5.16248  -0.00208   0.00000  -0.00698  -0.00698   5.15550
    Y7        0.00000  -0.01133   0.00000  -0.09163  -0.09163  -0.09163
    Z7        3.27626   0.00011   0.00000   0.00093   0.00093   3.27719
         Item               Value     Threshold  Converged?
 Maximum Force            0.011404     0.000450     NO 
 RMS     Force            0.005227     0.000300     NO 
 Maximum Displacement     0.096745     0.001800     NO 
 RMS     Displacement     0.047176     0.001200     NO 
 Predicted change in Energy=-2.472158D-03
 GradGradGradGradGradGradGradGradGradGradGradGradGradGradGradGradGradGrad

 Leave Link  103 at Mon Nov 13 18:34:27 2023, MaxMem=  1879048192 cpu:               0.3 elap:               0.0
 (Enter /home/sekinelabo/g16/l9999.exe)
 1\1\GINC-SEKINELABO-XA7R-R37\Force\UB3LYP\6-311+G(d)\Na7(2)\SEKINELABO
 \13-Nov-2023\0\\#P B3LYP/6-311+g(d) force\\Gaussian input prepared by 
 ASE\\0,2\Na,2.9989073654,2.4347944174,0.\Na,5.4369509665,2.4228287873,
 1.7603281951\Na,0.011748612,2.4347753573,0.2546444557\Na,0.,2.41059460
 21,3.2440280942\Na,2.7322542727,4.8419984029,1.7669077941\Na,2.9878315
 611,2.409562811,3.5040450088\Na,2.7318653178,0.,1.7337221327\\Version=
 ES64L-G16RevB.01\State=2-A\HF=-1136.1130914\S2=0.76499\S2-1=0.\S2A=0.7
 50082\RMSD=8.726e-09\RMSF=5.227e-03\Dipole=-0.0400588,-0.0001121,0.001
 2527\Quadrupole=6.9410789,-7.5214891,0.5804102,0.0009182,0.0047464,0.2
 025257\PG=C01 [X(Na7)]\\@


 WE DON'T KNOW ONE MILLIONTH OF ONE PERCENT ABOUT
 ANYTHING.
                                     T. A. EDISON.
 Job cpu time:       0 days  0 hours  4 minutes 38.6 seconds.
 Elapsed time:       0 days  0 hours  0 minutes 22.6 seconds.
 File lengths (MBytes):  RWF=     32 Int=      0 D2E=      0 Chk=      5 Scr=      1
 Normal termination of Gaussian 16 at Mon Nov 13 18:34:27 2023.
