 Entering Gaussian System, Link 0=g16
 Initial command:
 /home/sekinelabo/g16/l1.exe "/home/sekinelabo/g16temp/Gau-4112253.inp" -scrdir="/home/sekinelabo/g16temp/"
 Entering Link 1 = /home/sekinelabo/g16/l1.exe PID=   4112255.
  
 Copyright (c) 1988-2017, Gaussian, Inc.  All Rights Reserved.
  
 This is part of the Gaussian(R) 16 program.  It is based on
 the Gaussian(R) 09 system (copyright 2009, Gaussian, Inc.),
 the Gaussian(R) 03 system (copyright 2003, Gaussian, Inc.),
 the Gaussian(R) 98 system (copyright 1998, Gaussian, Inc.),
 the Gaussian(R) 94 system (copyright 1995, Gaussian, Inc.),
 the Gaussian 92(TM) system (copyright 1992, Gaussian, Inc.),
 the Gaussian 90(TM) system (copyright 1990, Gaussian, Inc.),
 the Gaussian 88(TM) system (copyright 1988, Gaussian, Inc.),
 the Gaussian 86(TM) system (copyright 1986, Carnegie Mellon
 University), and the Gaussian 82(TM) system (copyright 1983,
 Carnegie Mellon University). Gaussian is a federally registered
 trademark of Gaussian, Inc.
  
 This software contains proprietary and confidential information,
 including trade secrets, belonging to Gaussian, Inc.
  
 This software is provided under written license and may be
 used, copied, transmitted, or stored only in accord with that
 written license.
  
 The following legend is applicable only to US Government
 contracts under FAR:
  
                    RESTRICTED RIGHTS LEGEND
  
 Use, reproduction and disclosure by the US Government is
 subject to restrictions as set forth in subparagraphs (a)
 and (c) of the Commercial Computer Software - Restricted
 Rights clause in FAR 52.227-19.
  
 Gaussian, Inc.
 340 Quinnipiac St., Bldg. 40, Wallingford CT 06492
  
  
 ---------------------------------------------------------------
 Warning -- This program may not be used in any manner that
 competes with the business of Gaussian, Inc. or will provide
 assistance to any competitor of Gaussian, Inc.  The licensee
 of this program is prohibited from giving any competitor of
 Gaussian, Inc. access to this program.  By using this program,
 the user acknowledges that Gaussian, Inc. is engaged in the
 business of creating and licensing software in the field of
 computational chemistry and represents and warrants to the
 licensee that it is not a competitor of Gaussian, Inc. and that
 it will not use this program in any manner prohibited above.
 ---------------------------------------------------------------
  

 Cite this work as:
 Gaussian 16, Revision B.01,
 M. J. Frisch, G. W. Trucks, H. B. Schlegel, G. E. Scuseria, 
 M. A. Robb, J. R. Cheeseman, G. Scalmani, V. Barone, 
 G. A. Petersson, H. Nakatsuji, X. Li, M. Caricato, A. V. Marenich, 
 J. Bloino, B. G. Janesko, R. Gomperts, B. Mennucci, H. P. Hratchian, 
 J. V. Ortiz, A. F. Izmaylov, J. L. Sonnenberg, D. Williams-Young, 
 F. Ding, F. Lipparini, F. Egidi, J. Goings, B. Peng, A. Petrone, 
 T. Henderson, D. Ranasinghe, V. G. Zakrzewski, J. Gao, N. Rega, 
 G. Zheng, W. Liang, M. Hada, M. Ehara, K. Toyota, R. Fukuda, 
 J. Hasegawa, M. Ishida, T. Nakajima, Y. Honda, O. Kitao, H. Nakai, 
 T. Vreven, K. Throssell, J. A. Montgomery, Jr., J. E. Peralta, 
 F. Ogliaro, M. J. Bearpark, J. J. Heyd, E. N. Brothers, K. N. Kudin, 
 V. N. Staroverov, T. A. Keith, R. Kobayashi, J. Normand, 
 K. Raghavachari, A. P. Rendell, J. C. Burant, S. S. Iyengar, 
 J. Tomasi, M. Cossi, J. M. Millam, M. Klene, C. Adamo, R. Cammi, 
 J. W. Ochterski, R. L. Martin, K. Morokuma, O. Farkas, 
 J. B. Foresman, and D. J. Fox, Gaussian, Inc., Wallingford CT, 2016.
 
 ******************************************
 Gaussian 16:  ES64L-G16RevB.01 20-Dec-2017
                13-Nov-2023 
 ******************************************
 %mem=14GB
 %chk=checkpoint.chk
 %nprocshared=16
 Will use up to   16 processors via shared memory.
 -------------------------
 #P B3LYP/6-311+g(d) force
 -------------------------
 1/10=7,30=1,38=1/1,3;
 2/12=2,17=6,18=5,40=1/2;
 3/5=4,6=6,7=11,11=2,25=1,30=1,71=1,74=-5/1,2,3;
 4//1;
 5/5=2,38=5/2;
 6/7=2,8=2,9=2,10=2,28=1/1;
 7/29=1/1,2,3,16;
 1/10=7,30=1/3;
 99//99;
 Leave Link    1 at Mon Nov 13 18:29:09 2023, MaxMem=  1879048192 cpu:               0.3 elap:               0.0
 (Enter /home/sekinelabo/g16/l101.exe)
 ------------------------------
 Gaussian input prepared by ASE
 ------------------------------
 Symbolic Z-matrix:
 Charge =  0 Multiplicity = 2
 Na                    1.90569   1.21411   2.11972 
 Na                    0.        2.14609   0. 
 Na                    3.33136   5.53834   3.16113 
 Na                    2.26057   3.91507   0.87563 
 Na                    4.51512   0.        2.96336 
 Na                    4.41413   1.83966   0.59633 
 Na                    7.08449   3.08187   0.01941 
 
 ITRead=  0  0  0  0  0  0  0
 MicOpt= -1 -1 -1 -1 -1 -1 -1
 NAtoms=      7 NQM=        7 NQMF=       0 NMMI=      0 NMMIF=      0
                NMic=       0 NMicF=      0.
                    Isotopes and Nuclear Properties:
 (Nuclear quadrupole moments (NQMom) in fm**2, nuclear magnetic moments (NMagM)
  in nuclear magnetons)

  Atom         1           2           3           4           5           6           7
 IAtWgt=          23          23          23          23          23          23          23
 AtmWgt=  22.9897697  22.9897697  22.9897697  22.9897697  22.9897697  22.9897697  22.9897697
 NucSpn=           3           3           3           3           3           3           3
 AtZEff=  -0.0000000  -0.0000000  -0.0000000  -0.0000000  -0.0000000  -0.0000000  -0.0000000
 NQMom=   10.4000000  10.4000000  10.4000000  10.4000000  10.4000000  10.4000000  10.4000000
 NMagM=    2.2175200   2.2175200   2.2175200   2.2175200   2.2175200   2.2175200   2.2175200
 AtZNuc=  11.0000000  11.0000000  11.0000000  11.0000000  11.0000000  11.0000000  11.0000000
 Leave Link  101 at Mon Nov 13 18:29:09 2023, MaxMem=  1879048192 cpu:               2.6 elap:               0.2
 (Enter /home/sekinelabo/g16/l103.exe)

 GradGradGradGradGradGradGradGradGradGradGradGradGradGradGradGradGradGrad
 Berny optimization.
 Initialization pass.
 Trust Radius=3.00D-01 FncErr=1.00D-07 GrdErr=1.00D-07 EigMax=2.50D+02 EigMin=1.00D-04
 Number of steps in this run=      2 maximum allowed number of steps=      2.
 GradGradGradGradGradGradGradGradGradGradGradGradGradGradGradGradGradGrad

 Leave Link  103 at Mon Nov 13 18:29:09 2023, MaxMem=  1879048192 cpu:               0.2 elap:               0.0
 (Enter /home/sekinelabo/g16/l202.exe)
                          Input orientation:                          
 ---------------------------------------------------------------------
 Center     Atomic      Atomic             Coordinates (Angstroms)
 Number     Number       Type             X           Y           Z
 ---------------------------------------------------------------------
      1         11           0        1.905695    1.214112    2.119717
      2         11           0        0.000000    2.146094    0.000000
      3         11           0        3.331360    5.538338    3.161125
      4         11           0        2.260575    3.915075    0.875635
      5         11           0        4.515116    0.000000    2.963361
      6         11           0        4.414128    1.839664    0.596331
      7         11           0        7.084489    3.081869    0.019411
 ---------------------------------------------------------------------
                    Distance matrix (angstroms):
                    1          2          3          4          5
     1  Na   0.000000
     2  Na   2.998910   0.000000
     3  Na   4.670759   5.709465   0.000000
     4  Na   2.994809   3.001038   3.000838   0.000000
     5  Na   2.999147   5.811497   5.666884   4.976883   0.000000
     6  Na   3.000709   4.464755   4.629334   3.003852   2.999566
     7  Na   5.892344   7.146051   5.476366   4.969658   4.976589
                    6          7
     6  Na   0.000000
     7  Na   3.001123   0.000000
 Stoichiometry    Na7(2)
 Framework group  C1[X(Na7)]
 Deg. of freedom    15
 Full point group                 C1      NOp   1
 Largest Abelian subgroup         C1      NOp   1
 Largest concise Abelian subgroup C1      NOp   1
                         Standard orientation:                         
 ---------------------------------------------------------------------
 Center     Atomic      Atomic             Coordinates (Angstroms)
 Number     Number       Type             X           Y           Z
 ---------------------------------------------------------------------
      1         11           0       -1.453071   -1.319482    0.728919
      2         11           0       -3.358766   -0.387499   -1.390797
      3         11           0       -0.027406    3.004745    1.770328
      4         11           0       -1.098192    1.381482   -0.515162
      5         11           0        1.156350   -2.533593    1.572564
      6         11           0        1.055362   -0.693929   -0.794466
      7         11           0        3.725723    0.548276   -1.371386
 ---------------------------------------------------------------------
 Rotational constants (GHZ):           0.7118929           0.5261382           0.4313660
 Leave Link  202 at Mon Nov 13 18:29:09 2023, MaxMem=  1879048192 cpu:               0.0 elap:               0.0
 (Enter /home/sekinelabo/g16/l301.exe)
 Standard basis: 6-311+G(d) (5D, 7F)
 Ernie: Thresh=  0.10000D-02 Tol=  0.10000D-05 Strict=F.
 There are   217 symmetry adapted cartesian basis functions of A   symmetry.
 There are   210 symmetry adapted basis functions of A   symmetry.
   210 basis functions,   350 primitive gaussians,   217 cartesian basis functions
    39 alpha electrons       38 beta electrons
       nuclear repulsion energy       337.6400812924 Hartrees.
 IExCor=  402 DFT=T Ex+Corr=B3LYP ExCW=0 ScaHFX=  0.200000
 ScaDFX=  0.800000  0.720000  1.000000  0.810000 ScalE2=  1.000000  1.000000
 IRadAn=      5 IRanWt=     -1 IRanGd=            0 ICorTp=0 IEmpDi=  4
 NAtoms=    7 NActive=    7 NUniq=    7 SFac= 1.00D+00 NAtFMM=   60 NAOKFM=F Big=F
 Integral buffers will be    131072 words long.
 Raffenetti 2 integral format.
 Two-electron integral symmetry is turned on.
 Leave Link  301 at Mon Nov 13 18:29:09 2023, MaxMem=  1879048192 cpu:               0.5 elap:               0.0
 (Enter /home/sekinelabo/g16/l302.exe)
 NPDir=0 NMtPBC=     1 NCelOv=     1 NCel=       1 NClECP=     1 NCelD=      1
         NCelK=      1 NCelE2=     1 NClLst=     1 CellRange=     0.0.
 One-electron integrals computed using PRISM.
 One-electron integral symmetry used in STVInt
 NBasis=   210 RedAO= T EigKep=  2.21D-06  NBF=   210
 NBsUse=   210 1.00D-06 EigRej= -1.00D+00 NBFU=   210
 Precomputing XC quadrature grid using
 IXCGrd= 4 IRadAn=           5 IRanWt=          -1 IRanGd=           0 AccXCQ= 0.00D+00.
 Generated NRdTot=       0 NPtTot=           0 NUsed=           0 NTot=          32
 NSgBfM=   209   209   209   209   209 MxSgAt=     7 MxSgA2=     7.
 Leave Link  302 at Mon Nov 13 18:29:09 2023, MaxMem=  1879048192 cpu:               2.3 elap:               0.2
 (Enter /home/sekinelabo/g16/l303.exe)
 DipDrv:  MaxL=1.
 Leave Link  303 at Mon Nov 13 18:29:09 2023, MaxMem=  1879048192 cpu:               0.6 elap:               0.0
 (Enter /home/sekinelabo/g16/l401.exe)
 ExpMin= 7.60D-03 ExpMax= 3.62D+04 ExpMxC= 1.21D+03 IAcc=3 IRadAn=         5 AccDes= 0.00D+00
 Harris functional with IExCor=  402 and IRadAn=       5 diagonalized for initial guess.
 HarFok:  IExCor=  402 AccDes= 0.00D+00 IRadAn=         5 IDoV= 1 UseB2=F ITyADJ=14
 ICtDFT=  3500011 ScaDFX=  1.000000  1.000000  1.000000  1.000000
 FoFCou: FMM=F IPFlag=           0 FMFlag=      100000 FMFlg1=           0
         NFxFlg=           0 DoJE=T BraDBF=F KetDBF=T FulRan=T
         wScrn=  0.000000 ICntrl=       500 IOpCl=  0 I1Cent=   200000004 NGrid=           0
         NMat0=    1 NMatS0=      1 NMatT0=    0 NMatD0=    1 NMtDS0=    0 NMtDT0=    0
 Petite list used in FoFCou.
 Harris En= -1135.87191060523    
 JPrj=0 DoOrth=F DoCkMO=F.
 Initial guess <Sx>= 0.0000 <Sy>= 0.0000 <Sz>= 0.5000 <S**2>= 0.7500 S= 0.5000
 Leave Link  401 at Mon Nov 13 18:29:10 2023, MaxMem=  1879048192 cpu:               5.0 elap:               0.3
 (Enter /home/sekinelabo/g16/l502.exe)
 Keep R1 and R2 ints in memory in canonical form, NReq=507620360.
 FoFCou: FMM=F IPFlag=           0 FMFlag=           0 FMFlg1=           0
         NFxFlg=           0 DoJE=F BraDBF=F KetDBF=F FulRan=T
         wScrn=  0.000000 ICntrl=       600 IOpCl=  0 I1Cent=           0 NGrid=           0
         NMat0=    1 NMatS0=  22155 NMatT0=    0 NMatD0=    1 NMtDS0=    0 NMtDT0=    0
 Symmetry not used in FoFCou.
 Two-electron integral symmetry not used.
 UHF open shell SCF:
 Using DIIS extrapolation, IDIIS=  1040.
 NGot=  1879048192 LenX=  1388082376 LenY=  1388034846
 Requested convergence on RMS density matrix=1.00D-08 within 128 cycles.
 Requested convergence on MAX density matrix=1.00D-06.
 Requested convergence on             energy=1.00D-06.
 No special actions if energy rises.

 Cycle   1  Pass 1  IDiag  1:
 E= -1136.06269835171    
 DIIS: error= 1.08D-02 at cycle   1 NSaved=   1.
 NSaved= 1 IEnMin= 1 EnMin= -1136.06269835171     IErMin= 1 ErrMin= 1.08D-02
 ErrMax= 1.08D-02  0.00D+00 EMaxC= 1.00D-01 BMatC= 1.93D-01 BMatP= 1.93D-01
 IDIUse=3 WtCom= 8.92D-01 WtEn= 1.08D-01
 Coeff-Com:  0.100D+01
 Coeff-En:   0.100D+01
 Coeff:      0.100D+01
 Gap=     0.051 Goal=   None    Shift=    0.000
 Gap=     0.031 Goal=   None    Shift=    0.000
 GapD=    0.031 DampG=0.250 DampE=0.500 DampFc=0.2500 IDamp=-1.
 Damping current iteration by 2.50D-01
 RMSDP=4.14D-02 MaxDP=4.01D+00              OVMax= 2.36D-01

 Cycle   2  Pass 1  IDiag  1:
 E= -1136.07543747131     Delta-E=       -0.012739119600 Rises=F Damp=T
 DIIS: error= 7.72D-03 at cycle   2 NSaved=   2.
 NSaved= 2 IEnMin= 2 EnMin= -1136.07543747131     IErMin= 2 ErrMin= 7.72D-03
 ErrMax= 7.72D-03  0.00D+00 EMaxC= 1.00D-01 BMatC= 7.32D-02 BMatP= 1.93D-01
 IDIUse=3 WtCom= 9.23D-01 WtEn= 7.72D-02
 Coeff-Com: -0.124D+01 0.224D+01
 Coeff-En:   0.000D+00 0.100D+01
 Coeff:     -0.115D+01 0.215D+01
 Gap=     0.054 Goal=   None    Shift=    0.000
 Gap=     0.038 Goal=   None    Shift=    0.000
 RMSDP=1.22D-02 MaxDP=1.25D+00 DE=-1.27D-02 OVMax= 2.14D-01

 Cycle   3  Pass 1  IDiag  1:
 E= -1136.09383948643     Delta-E=       -0.018402015119 Rises=F Damp=F
 DIIS: error= 4.55D-03 at cycle   3 NSaved=   3.
 NSaved= 3 IEnMin= 3 EnMin= -1136.09383948643     IErMin= 3 ErrMin= 4.55D-03
 ErrMax= 4.55D-03  0.00D+00 EMaxC= 1.00D-01 BMatC= 6.23D-03 BMatP= 7.32D-02
 IDIUse=3 WtCom= 9.55D-01 WtEn= 4.55D-02
 Coeff-Com: -0.376D+00 0.659D+00 0.717D+00
 Coeff-En:   0.000D+00 0.000D+00 0.100D+01
 Coeff:     -0.359D+00 0.629D+00 0.730D+00
 Gap=     0.055 Goal=   None    Shift=    0.000
 Gap=     0.034 Goal=   None    Shift=    0.000
 RMSDP=1.28D-02 MaxDP=1.28D+00 DE=-1.84D-02 OVMax= 1.41D-01

 Cycle   4  Pass 1  IDiag  1:
 E= -1136.09456287601     Delta-E=       -0.000723389577 Rises=F Damp=F
 DIIS: error= 3.76D-03 at cycle   4 NSaved=   4.
 NSaved= 4 IEnMin= 4 EnMin= -1136.09456287601     IErMin= 4 ErrMin= 3.76D-03
 ErrMax= 3.76D-03  0.00D+00 EMaxC= 1.00D-01 BMatC= 4.91D-03 BMatP= 6.23D-03
 IDIUse=3 WtCom= 9.62D-01 WtEn= 3.76D-02
 Coeff-Com: -0.231D-01 0.335D-01 0.468D+00 0.522D+00
 Coeff-En:   0.000D+00 0.000D+00 0.472D+00 0.528D+00
 Coeff:     -0.222D-01 0.323D-01 0.468D+00 0.522D+00
 Gap=     0.054 Goal=   None    Shift=    0.000
 Gap=     0.035 Goal=   None    Shift=    0.000
 RMSDP=4.38D-03 MaxDP=4.17D-01 DE=-7.23D-04 OVMax= 1.04D-01

 Cycle   5  Pass 1  IDiag  1:
 E= -1136.09918163695     Delta-E=       -0.004618760939 Rises=F Damp=F
 DIIS: error= 7.35D-04 at cycle   5 NSaved=   5.
 NSaved= 5 IEnMin= 5 EnMin= -1136.09918163695     IErMin= 5 ErrMin= 7.35D-04
 ErrMax= 7.35D-04  0.00D+00 EMaxC= 1.00D-01 BMatC= 2.08D-04 BMatP= 4.91D-03
 IDIUse=3 WtCom= 9.93D-01 WtEn= 7.35D-03
 Coeff-Com: -0.104D-01 0.127D-01 0.269D+00 0.321D+00 0.408D+00
 Coeff-En:   0.000D+00 0.000D+00 0.000D+00 0.000D+00 0.100D+01
 Coeff:     -0.103D-01 0.126D-01 0.267D+00 0.318D+00 0.412D+00
 Gap=     0.053 Goal=   None    Shift=    0.000
 Gap=     0.035 Goal=   None    Shift=    0.000
 RMSDP=1.27D-03 MaxDP=1.26D-01 DE=-4.62D-03 OVMax= 2.04D-02

 Cycle   6  Pass 1  IDiag  1:
 E= -1136.09943757083     Delta-E=       -0.000255933885 Rises=F Damp=F
 DIIS: error= 1.51D-04 at cycle   6 NSaved=   6.
 NSaved= 6 IEnMin= 6 EnMin= -1136.09943757083     IErMin= 6 ErrMin= 1.51D-04
 ErrMax= 1.51D-04  0.00D+00 EMaxC= 1.00D-01 BMatC= 8.05D-06 BMatP= 2.08D-04
 IDIUse=3 WtCom= 9.98D-01 WtEn= 1.51D-03
 Coeff-Com: -0.166D-02 0.171D-02-0.284D-01-0.252D-01 0.963D-01 0.957D+00
 Coeff-En:   0.000D+00 0.000D+00 0.000D+00 0.000D+00 0.000D+00 0.100D+01
 Coeff:     -0.166D-02 0.171D-02-0.284D-01-0.251D-01 0.961D-01 0.957D+00
 Gap=     0.053 Goal=   None    Shift=    0.000
 Gap=     0.035 Goal=   None    Shift=    0.000
 RMSDP=5.73D-04 MaxDP=4.90D-02 DE=-2.56D-04 OVMax= 9.55D-03

 Cycle   7  Pass 1  IDiag  1:
 E= -1136.09946140071     Delta-E=       -0.000023829881 Rises=F Damp=F
 DIIS: error= 1.40D-04 at cycle   7 NSaved=   7.
 NSaved= 7 IEnMin= 7 EnMin= -1136.09946140071     IErMin= 7 ErrMin= 1.40D-04
 ErrMax= 1.40D-04  0.00D+00 EMaxC= 1.00D-01 BMatC= 5.29D-06 BMatP= 8.05D-06
 IDIUse=3 WtCom= 9.99D-01 WtEn= 1.40D-03
 Coeff-Com:  0.580D-03-0.906D-03-0.564D-01-0.609D-01-0.930D-02 0.588D+00
 Coeff-Com:  0.539D+00
 Coeff-En:   0.000D+00 0.000D+00 0.000D+00 0.000D+00 0.000D+00 0.000D+00
 Coeff-En:   0.100D+01
 Coeff:      0.580D-03-0.904D-03-0.563D-01-0.608D-01-0.928D-02 0.588D+00
 Coeff:      0.539D+00
 Gap=     0.053 Goal=   None    Shift=    0.000
 Gap=     0.035 Goal=   None    Shift=    0.000
 RMSDP=2.52D-04 MaxDP=1.99D-02 DE=-2.38D-05 OVMax= 5.81D-03

 Cycle   8  Pass 1  IDiag  1:
 E= -1136.09947267786     Delta-E=       -0.000011277144 Rises=F Damp=F
 DIIS: error= 4.57D-05 at cycle   8 NSaved=   8.
 NSaved= 8 IEnMin= 8 EnMin= -1136.09947267786     IErMin= 8 ErrMin= 4.57D-05
 ErrMax= 4.57D-05  0.00D+00 EMaxC= 1.00D-01 BMatC= 9.22D-07 BMatP= 5.29D-06
 IDIUse=1 WtCom= 1.00D+00 WtEn= 0.00D+00
 Coeff-Com:  0.140D-02-0.173D-02-0.551D-02-0.578D-02-0.574D-01-0.231D+00
 Coeff-Com:  0.148D+00 0.115D+01
 Coeff:      0.140D-02-0.173D-02-0.551D-02-0.578D-02-0.574D-01-0.231D+00
 Coeff:      0.148D+00 0.115D+01
 Gap=     0.053 Goal=   None    Shift=    0.000
 Gap=     0.036 Goal=   None    Shift=    0.000
 RMSDP=3.63D-04 MaxDP=3.58D-02 DE=-1.13D-05 OVMax= 4.82D-03

 Cycle   9  Pass 1  IDiag  1:
 E= -1136.09947864882     Delta-E=       -0.000005970963 Rises=F Damp=F
 DIIS: error= 2.52D-05 at cycle   9 NSaved=   9.
 NSaved= 9 IEnMin= 9 EnMin= -1136.09947864882     IErMin= 9 ErrMin= 2.52D-05
 ErrMax= 2.52D-05  0.00D+00 EMaxC= 1.00D-01 BMatC= 2.25D-07 BMatP= 9.22D-07
 IDIUse=1 WtCom= 1.00D+00 WtEn= 0.00D+00
 Coeff-Com:  0.526D-03-0.614D-03 0.555D-02 0.709D-02-0.252D-01-0.177D+00
 Coeff-Com: -0.570D-01 0.395D+00 0.852D+00
 Coeff:      0.526D-03-0.614D-03 0.555D-02 0.709D-02-0.252D-01-0.177D+00
 Coeff:     -0.570D-01 0.395D+00 0.852D+00
 Gap=     0.053 Goal=   None    Shift=    0.000
 Gap=     0.036 Goal=   None    Shift=    0.000
 RMSDP=1.73D-04 MaxDP=2.11D-02 DE=-5.97D-06 OVMax= 2.33D-03

 Cycle  10  Pass 1  IDiag  1:
 E= -1136.09947986943     Delta-E=       -0.000001220611 Rises=F Damp=F
 DIIS: error= 1.27D-05 at cycle  10 NSaved=  10.
 NSaved=10 IEnMin=10 EnMin= -1136.09947986943     IErMin=10 ErrMin= 1.27D-05
 ErrMax= 1.27D-05  0.00D+00 EMaxC= 1.00D-01 BMatC= 9.19D-08 BMatP= 2.25D-07
 IDIUse=1 WtCom= 1.00D+00 WtEn= 0.00D+00
 Coeff-Com: -0.172D-03 0.243D-03 0.374D-02 0.455D-02 0.199D-02-0.839D-02
 Coeff-Com: -0.699D-01-0.155D+00 0.443D+00 0.779D+00
 Coeff:     -0.172D-03 0.243D-03 0.374D-02 0.455D-02 0.199D-02-0.839D-02
 Coeff:     -0.699D-01-0.155D+00 0.443D+00 0.779D+00
 Gap=     0.053 Goal=   None    Shift=    0.000
 Gap=     0.036 Goal=   None    Shift=    0.000
 RMSDP=9.28D-05 MaxDP=8.22D-03 DE=-1.22D-06 OVMax= 1.16D-03

 Cycle  11  Pass 1  IDiag  1:
 E= -1136.09948023546     Delta-E=       -0.000000366027 Rises=F Damp=F
 DIIS: error= 6.79D-06 at cycle  11 NSaved=  11.
 NSaved=11 IEnMin=11 EnMin= -1136.09948023546     IErMin=11 ErrMin= 6.79D-06
 ErrMax= 6.79D-06  0.00D+00 EMaxC= 1.00D-01 BMatC= 1.37D-08 BMatP= 9.19D-08
 IDIUse=1 WtCom= 1.00D+00 WtEn= 0.00D+00
 Coeff-Com: -0.286D-03 0.368D-03-0.112D-04-0.467D-03 0.788D-02 0.527D-01
 Coeff-Com:  0.119D-02-0.160D+00-0.166D+00 0.119D+00 0.114D+01
 Coeff:     -0.286D-03 0.368D-03-0.112D-04-0.467D-03 0.788D-02 0.527D-01
 Coeff:      0.119D-02-0.160D+00-0.166D+00 0.119D+00 0.114D+01
 Gap=     0.053 Goal=   None    Shift=    0.000
 Gap=     0.036 Goal=   None    Shift=    0.000
 RMSDP=7.12D-05 MaxDP=7.65D-03 DE=-3.66D-07 OVMax= 8.57D-04

 Cycle  12  Pass 1  IDiag  1:
 E= -1136.09948034431     Delta-E=       -0.000000108852 Rises=F Damp=F
 DIIS: error= 2.16D-06 at cycle  12 NSaved=  12.
 NSaved=12 IEnMin=12 EnMin= -1136.09948034431     IErMin=12 ErrMin= 2.16D-06
 ErrMax= 2.16D-06  0.00D+00 EMaxC= 1.00D-01 BMatC= 2.14D-09 BMatP= 1.37D-08
 IDIUse=1 WtCom= 1.00D+00 WtEn= 0.00D+00
 Coeff-Com: -0.470D-04 0.554D-04-0.537D-03-0.520D-03 0.195D-02 0.126D-01
 Coeff-Com:  0.103D-01-0.177D-01-0.878D-01-0.764D-01 0.153D+00 0.100D+01
 Coeff:     -0.470D-04 0.554D-04-0.537D-03-0.520D-03 0.195D-02 0.126D-01
 Coeff:      0.103D-01-0.177D-01-0.878D-01-0.764D-01 0.153D+00 0.100D+01
 Gap=     0.053 Goal=   None    Shift=    0.000
 Gap=     0.036 Goal=   None    Shift=    0.000
 RMSDP=2.54D-05 MaxDP=2.32D-03 DE=-1.09D-07 OVMax= 2.81D-04

 Cycle  13  Pass 1  IDiag  1:
 E= -1136.09948035807     Delta-E=       -0.000000013755 Rises=F Damp=F
 DIIS: error= 9.17D-07 at cycle  13 NSaved=  13.
 NSaved=13 IEnMin=13 EnMin= -1136.09948035807     IErMin=13 ErrMin= 9.17D-07
 ErrMax= 9.17D-07  0.00D+00 EMaxC= 1.00D-01 BMatC= 6.02D-10 BMatP= 2.14D-09
 IDIUse=1 WtCom= 1.00D+00 WtEn= 0.00D+00
 Coeff-Com:  0.461D-04-0.606D-04-0.317D-03-0.192D-03-0.116D-02-0.639D-02
 Coeff-Com:  0.632D-02 0.242D-01 0.598D-02-0.503D-01-0.200D+00 0.320D+00
 Coeff-Com:  0.902D+00
 Coeff:      0.461D-04-0.606D-04-0.317D-03-0.192D-03-0.116D-02-0.639D-02
 Coeff:      0.632D-02 0.242D-01 0.598D-02-0.503D-01-0.200D+00 0.320D+00
 Coeff:      0.902D+00
 Gap=     0.053 Goal=   None    Shift=    0.000
 Gap=     0.036 Goal=   None    Shift=    0.000
 RMSDP=1.28D-05 MaxDP=1.44D-03 DE=-1.38D-08 OVMax= 1.16D-04

 Cycle  14  Pass 1  IDiag  1:
 E= -1136.09948036068     Delta-E=       -0.000000002609 Rises=F Damp=F
 DIIS: error= 3.63D-07 at cycle  14 NSaved=  14.
 NSaved=14 IEnMin=14 EnMin= -1136.09948036068     IErMin=14 ErrMin= 3.63D-07
 ErrMax= 3.63D-07  0.00D+00 EMaxC= 1.00D-01 BMatC= 8.15D-11 BMatP= 6.02D-10
 IDIUse=1 WtCom= 1.00D+00 WtEn= 0.00D+00
 Coeff-Com:  0.124D-04-0.151D-04 0.436D-04 0.411D-04-0.307D-03-0.226D-02
 Coeff-Com: -0.715D-03 0.403D-03 0.211D-01 0.994D-02-0.322D-01-0.153D+00
 Coeff-Com: -0.602D-01 0.122D+01
 Coeff:      0.124D-04-0.151D-04 0.436D-04 0.411D-04-0.307D-03-0.226D-02
 Coeff:     -0.715D-03 0.403D-03 0.211D-01 0.994D-02-0.322D-01-0.153D+00
 Coeff:     -0.602D-01 0.122D+01
 Gap=     0.053 Goal=   None    Shift=    0.000
 Gap=     0.036 Goal=   None    Shift=    0.000
 RMSDP=5.83D-06 MaxDP=6.68D-04 DE=-2.61D-09 OVMax= 7.24D-05

 Cycle  15  Pass 1  IDiag  1:
 E= -1136.09948036124     Delta-E=       -0.000000000566 Rises=F Damp=F
 DIIS: error= 1.85D-07 at cycle  15 NSaved=  15.
 NSaved=15 IEnMin=15 EnMin= -1136.09948036124     IErMin=15 ErrMin= 1.85D-07
 ErrMax= 1.85D-07  0.00D+00 EMaxC= 1.00D-01 BMatC= 1.75D-11 BMatP= 8.15D-11
 IDIUse=1 WtCom= 1.00D+00 WtEn= 0.00D+00
 Coeff-Com: -0.723D-05 0.964D-05 0.596D-04 0.375D-04 0.236D-03 0.695D-03
 Coeff-Com: -0.101D-04-0.441D-02-0.164D-02 0.705D-02 0.280D-01-0.292D-01
 Coeff-Com: -0.148D+00-0.797D-01 0.123D+01
 Coeff:     -0.723D-05 0.964D-05 0.596D-04 0.375D-04 0.236D-03 0.695D-03
 Coeff:     -0.101D-04-0.441D-02-0.164D-02 0.705D-02 0.280D-01-0.292D-01
 Coeff:     -0.148D+00-0.797D-01 0.123D+01
 Gap=     0.053 Goal=   None    Shift=    0.000
 Gap=     0.036 Goal=   None    Shift=    0.000
 RMSDP=2.06D-06 MaxDP=2.26D-04 DE=-5.66D-10 OVMax= 4.13D-05

 Cycle  16  Pass 1  IDiag  1:
 E= -1136.09948036136     Delta-E=       -0.000000000123 Rises=F Damp=F
 DIIS: error= 8.28D-08 at cycle  16 NSaved=  16.
 NSaved=16 IEnMin=16 EnMin= -1136.09948036136     IErMin=16 ErrMin= 8.28D-08
 ErrMax= 8.28D-08  0.00D+00 EMaxC= 1.00D-01 BMatC= 4.44D-12 BMatP= 1.75D-11
 IDIUse=1 WtCom= 1.00D+00 WtEn= 0.00D+00
 Coeff-Com: -0.232D-05 0.286D-05-0.194D-04-0.109D-04 0.457D-04 0.183D-03
 Coeff-Com:  0.845D-03 0.281D-03-0.370D-02-0.393D-02-0.270D-02 0.489D-01
 Coeff-Com:  0.463D-01-0.278D+00-0.122D+00 0.131D+01
 Coeff:     -0.232D-05 0.286D-05-0.194D-04-0.109D-04 0.457D-04 0.183D-03
 Coeff:      0.845D-03 0.281D-03-0.370D-02-0.393D-02-0.270D-02 0.489D-01
 Coeff:      0.463D-01-0.278D+00-0.122D+00 0.131D+01
 Gap=     0.053 Goal=   None    Shift=    0.000
 Gap=     0.036 Goal=   None    Shift=    0.000
 RMSDP=6.22D-07 MaxDP=5.78D-05 DE=-1.23D-10 OVMax= 2.21D-05

 Cycle  17  Pass 1  IDiag  1:
 E= -1136.09948036139     Delta-E=       -0.000000000029 Rises=F Damp=F
 DIIS: error= 4.31D-08 at cycle  17 NSaved=  17.
 NSaved=17 IEnMin=17 EnMin= -1136.09948036139     IErMin=17 ErrMin= 4.31D-08
 ErrMax= 4.31D-08  0.00D+00 EMaxC= 1.00D-01 BMatC= 8.68D-13 BMatP= 4.44D-12
 IDIUse=1 WtCom= 1.00D+00 WtEn= 0.00D+00
 Coeff-Com:  0.196D-05-0.262D-05-0.157D-04-0.114D-04-0.283D-04-0.160D-03
 Coeff-Com:  0.175D-03 0.612D-03 0.491D-03-0.175D-02-0.518D-02 0.774D-02
 Coeff-Com:  0.259D-01 0.254D-02-0.234D+00 0.682D-01 0.114D+01
 Coeff:      0.196D-05-0.262D-05-0.157D-04-0.114D-04-0.283D-04-0.160D-03
 Coeff:      0.175D-03 0.612D-03 0.491D-03-0.175D-02-0.518D-02 0.774D-02
 Coeff:      0.259D-01 0.254D-02-0.234D+00 0.682D-01 0.114D+01
 Gap=     0.053 Goal=   None    Shift=    0.000
 Gap=     0.036 Goal=   None    Shift=    0.000
 RMSDP=3.18D-07 MaxDP=2.46D-05 DE=-2.86D-11 OVMax= 1.03D-05

 Cycle  18  Pass 1  IDiag  1:
 E= -1136.09948036140     Delta-E=       -0.000000000010 Rises=F Damp=F
 DIIS: error= 2.69D-08 at cycle  18 NSaved=  18.
 NSaved=18 IEnMin=18 EnMin= -1136.09948036140     IErMin=18 ErrMin= 2.69D-08
 ErrMax= 2.69D-08  0.00D+00 EMaxC= 1.00D-01 BMatC= 2.46D-13 BMatP= 8.68D-13
 IDIUse=1 WtCom= 1.00D+00 WtEn= 0.00D+00
 Coeff-Com:  0.186D-05-0.239D-05 0.344D-06 0.461D-08-0.335D-04-0.194D-03
 Coeff-Com: -0.913D-04 0.210D-03 0.148D-02 0.389D-03-0.297D-02-0.906D-02
 Coeff-Com: -0.385D-03 0.757D-01-0.447D-01-0.352D+00 0.343D+00 0.989D+00
 Coeff:      0.186D-05-0.239D-05 0.344D-06 0.461D-08-0.335D-04-0.194D-03
 Coeff:     -0.913D-04 0.210D-03 0.148D-02 0.389D-03-0.297D-02-0.906D-02
 Coeff:     -0.385D-03 0.757D-01-0.447D-01-0.352D+00 0.343D+00 0.989D+00
 Gap=     0.053 Goal=   None    Shift=    0.000
 Gap=     0.036 Goal=   None    Shift=    0.000
 RMSDP=1.56D-07 MaxDP=1.21D-05 DE=-1.00D-11 OVMax= 4.88D-06

 Cycle  19  Pass 1  IDiag  1:
 E= -1136.09948036139     Delta-E=        0.000000000009 Rises=F Damp=F
 DIIS: error= 7.62D-09 at cycle  19 NSaved=  19.
 NSaved=19 IEnMin=18 EnMin= -1136.09948036140     IErMin=19 ErrMin= 7.62D-09
 ErrMax= 7.62D-09  0.00D+00 EMaxC= 1.00D-01 BMatC= 2.29D-14 BMatP= 2.46D-13
 IDIUse=1 WtCom= 1.00D+00 WtEn= 0.00D+00
 Coeff-Com: -0.777D-06 0.102D-05 0.168D-05 0.111D-05 0.125D-04 0.721D-04
 Coeff-Com:  0.197D-04-0.216D-03-0.322D-03 0.195D-03 0.140D-02 0.669D-03
 Coeff-Com: -0.535D-02-0.116D-01 0.524D-01 0.267D-01-0.226D+00-0.134D+00
 Coeff-Com:  0.130D+01
 Coeff:     -0.777D-06 0.102D-05 0.168D-05 0.111D-05 0.125D-04 0.721D-04
 Coeff:      0.197D-04-0.216D-03-0.322D-03 0.195D-03 0.140D-02 0.669D-03
 Coeff:     -0.535D-02-0.116D-01 0.524D-01 0.267D-01-0.226D+00-0.134D+00
 Coeff:      0.130D+01
 Gap=     0.053 Goal=   None    Shift=    0.000
 Gap=     0.036 Goal=   None    Shift=    0.000
 RMSDP=7.71D-08 MaxDP=8.36D-06 DE= 9.09D-12 OVMax= 1.52D-06

 Cycle  20  Pass 1  IDiag  1:
 E= -1136.09948036141     Delta-E=       -0.000000000015 Rises=F Damp=F
 DIIS: error= 2.98D-09 at cycle  20 NSaved=  20.
 NSaved=20 IEnMin=20 EnMin= -1136.09948036141     IErMin=20 ErrMin= 2.98D-09
 ErrMax= 2.98D-09  0.00D+00 EMaxC= 1.00D-01 BMatC= 2.72D-15 BMatP= 2.29D-14
 IDIUse=1 WtCom= 1.00D+00 WtEn= 0.00D+00
 Large coefficients: NSaved= 20 BigCof=    0.00 CofMax=   10.00 Det=-3.01D-15
 Inversion failed.  Reducing to 19 matrices.
 Large coefficients: NSaved= 19 BigCof=    0.00 CofMax=   10.00 Det=-4.49D-15
 Inversion failed.  Reducing to 18 matrices.
 Large coefficients: NSaved= 18 BigCof=    0.00 CofMax=   10.00 Det=-4.71D-15
 Inversion failed.  Reducing to 17 matrices.
 Large coefficients: NSaved= 17 BigCof=    0.00 CofMax=   10.00 Det=-4.73D-15
 Inversion failed.  Reducing to 16 matrices.
 Large coefficients: NSaved= 16 BigCof=    0.00 CofMax=   10.00 Det=-4.90D-15
 Inversion failed.  Reducing to 15 matrices.
 Coeff-Com: -0.149D-05 0.160D-05 0.423D-05-0.753D-05-0.479D-06 0.470D-04
 Coeff-Com:  0.238D-05 0.182D-03-0.254D-02-0.120D-02 0.171D-01-0.803D-02
 Coeff-Com: -0.741D-01-0.196D+00 0.126D+01
 Coeff:     -0.149D-05 0.160D-05 0.423D-05-0.753D-05-0.479D-06 0.470D-04
 Coeff:      0.238D-05 0.182D-03-0.254D-02-0.120D-02 0.171D-01-0.803D-02
 Coeff:     -0.741D-01-0.196D+00 0.126D+01
 Gap=     0.053 Goal=   None    Shift=    0.000
 Gap=     0.036 Goal=   None    Shift=    0.000
 RMSDP=2.58D-08 MaxDP=2.72D-06 DE=-1.50D-11 OVMax= 6.10D-07

 Cycle  21  Pass 1  IDiag  1:
 E= -1136.09948036141     Delta-E=        0.000000000003 Rises=F Damp=F
 DIIS: error= 1.03D-09 at cycle  21 NSaved=  16.
 NSaved=16 IEnMin=15 EnMin= -1136.09948036141     IErMin=16 ErrMin= 1.03D-09
 ErrMax= 1.03D-09  0.00D+00 EMaxC= 1.00D-01 BMatC= 4.11D-16 BMatP= 2.72D-15
 IDIUse=1 WtCom= 1.00D+00 WtEn= 0.00D+00
 Large coefficients: NSaved= 16 BigCof=    0.00 CofMax=   10.00 Det=-7.24D-16
 Inversion failed.  Reducing to 15 matrices.
 Coeff-Com:  0.340D-05 0.104D-04-0.202D-04-0.434D-04-0.496D-04 0.303D-03
 Coeff-Com:  0.820D-03-0.181D-02-0.439D-02 0.982D-02 0.178D-01-0.151D-01
 Coeff-Com: -0.148D+00 0.180D+00 0.960D+00
 Coeff:      0.340D-05 0.104D-04-0.202D-04-0.434D-04-0.496D-04 0.303D-03
 Coeff:      0.820D-03-0.181D-02-0.439D-02 0.982D-02 0.178D-01-0.151D-01
 Coeff:     -0.148D+00 0.180D+00 0.960D+00
 Gap=     0.053 Goal=   None    Shift=    0.000
 Gap=     0.036 Goal=   None    Shift=    0.000
 RMSDP=5.89D-09 MaxDP=5.07D-07 DE= 3.18D-12 OVMax= 7.28D-08

 SCF Done:  E(UB3LYP) =  -1136.09948036     A.U. after   21 cycles
            NFock= 21  Conv=0.59D-08     -V/T= 2.0026
 <Sx>= 0.0000 <Sy>= 0.0000 <Sz>= 0.5000 <S**2>= 0.7803 S= 0.5150
 <L.S>= 0.000000000000E+00
 KE= 1.133138999047D+03 PE=-3.404667849039D+03 EE= 7.977892883385D+02
 Annihilation of the first spin contaminant:
 S**2 before annihilation     0.7803,   after     0.7505
 Leave Link  502 at Mon Nov 13 18:29:27 2023, MaxMem=  1879048192 cpu:             207.5 elap:              17.9
 (Enter /home/sekinelabo/g16/l601.exe)
 Copying SCF densities to generalized density rwf, IOpCl= 1 IROHF=0.

 **********************************************************************

            Population analysis using the SCF Density.

 **********************************************************************

 Orbital symmetries:
 Alpha Orbitals:
       Occupied  (A) (A) (A) (A) (A) (A) (A) (A) (A) (A) (A) (A)
                 (A) (A) (A) (A) (A) (A) (A) (A) (A) (A) (A) (A)
                 (A) (A) (A) (A) (A) (A) (A) (A) (A) (A) (A) (A)
                 (A) (A) (A)
       Virtual   (A) (A) (A) (A) (A) (A) (A) (A) (A) (A) (A) (A)
                 (A) (A) (A) (A) (A) (A) (A) (A) (A) (A) (A) (A)
                 (A) (A) (A) (A) (A) (A) (A) (A) (A) (A) (A) (A)
                 (A) (A) (A) (A) (A) (A) (A) (A) (A) (A) (A) (A)
                 (A) (A) (A) (A) (A) (A) (A) (A) (A) (A) (A) (A)
                 (A) (A) (A) (A) (A) (A) (A) (A) (A) (A) (A) (A)
                 (A) (A) (A) (A) (A) (A) (A) (A) (A) (A) (A) (A)
                 (A) (A) (A) (A) (A) (A) (A) (A) (A) (A) (A) (A)
                 (A) (A) (A) (A) (A) (A) (A) (A) (A) (A) (A) (A)
                 (A) (A) (A) (A) (A) (A) (A) (A) (A) (A) (A) (A)
                 (A) (A) (A) (A) (A) (A) (A) (A) (A) (A) (A) (A)
                 (A) (A) (A) (A) (A) (A) (A) (A) (A) (A) (A) (A)
                 (A) (A) (A) (A) (A) (A) (A) (A) (A) (A) (A) (A)
                 (A) (A) (A) (A) (A) (A) (A) (A) (A) (A) (A) (A)
                 (A) (A) (A)
 Beta  Orbitals:
       Occupied  (A) (A) (A) (A) (A) (A) (A) (A) (A) (A) (A) (A)
                 (A) (A) (A) (A) (A) (A) (A) (A) (A) (A) (A) (A)
                 (A) (A) (A) (A) (A) (A) (A) (A) (A) (A) (A) (A)
                 (A) (A)
       Virtual   (A) (A) (A) (A) (A) (A) (A) (A) (A) (A) (A) (A)
                 (A) (A) (A) (A) (A) (A) (A) (A) (A) (A) (A) (A)
                 (A) (A) (A) (A) (A) (A) (A) (A) (A) (A) (A) (A)
                 (A) (A) (A) (A) (A) (A) (A) (A) (A) (A) (A) (A)
                 (A) (A) (A) (A) (A) (A) (A) (A) (A) (A) (A) (A)
                 (A) (A) (A) (A) (A) (A) (A) (A) (A) (A) (A) (A)
                 (A) (A) (A) (A) (A) (A) (A) (A) (A) (A) (A) (A)
                 (A) (A) (A) (A) (A) (A) (A) (A) (A) (A) (A) (A)
                 (A) (A) (A) (A) (A) (A) (A) (A) (A) (A) (A) (A)
                 (A) (A) (A) (A) (A) (A) (A) (A) (A) (A) (A) (A)
                 (A) (A) (A) (A) (A) (A) (A) (A) (A) (A) (A) (A)
                 (A) (A) (A) (A) (A) (A) (A) (A) (A) (A) (A) (A)
                 (A) (A) (A) (A) (A) (A) (A) (A) (A) (A) (A) (A)
                 (A) (A) (A) (A) (A) (A) (A) (A) (A) (A) (A) (A)
                 (A) (A) (A) (A)
 The electronic state is 2-A.
 Alpha  occ. eigenvalues --  -38.44798 -38.44319 -38.44255 -38.43616 -38.43613
 Alpha  occ. eigenvalues --  -38.43448 -38.43384  -2.20615  -2.20228  -2.20083
 Alpha  occ. eigenvalues --   -2.19671  -2.19532  -2.19514  -2.19440  -1.14312
 Alpha  occ. eigenvalues --   -1.14238  -1.14223  -1.13943  -1.13895  -1.13842
 Alpha  occ. eigenvalues --   -1.13783  -1.13708  -1.13689  -1.13530  -1.13450
 Alpha  occ. eigenvalues --   -1.13298  -1.13285  -1.13229  -1.13147  -1.13136
 Alpha  occ. eigenvalues --   -1.13127  -1.13087  -1.13082  -1.13046  -1.12985
 Alpha  occ. eigenvalues --   -0.18639  -0.13524  -0.12407  -0.11491
 Alpha virt. eigenvalues --   -0.06163  -0.04866  -0.04110  -0.03379  -0.03118
 Alpha virt. eigenvalues --   -0.02061  -0.01952  -0.01082  -0.00769   0.00026
 Alpha virt. eigenvalues --    0.00111   0.00294   0.00460   0.00713   0.00857
 Alpha virt. eigenvalues --    0.00986   0.01045   0.01073   0.01201   0.01329
 Alpha virt. eigenvalues --    0.01456   0.01579   0.01619   0.01623   0.01988
 Alpha virt. eigenvalues --    0.02356   0.02441   0.02510   0.02582   0.02711
 Alpha virt. eigenvalues --    0.02781   0.02942   0.02971   0.03056   0.03173
 Alpha virt. eigenvalues --    0.03243   0.03362   0.03396   0.03514   0.03673
 Alpha virt. eigenvalues --    0.03720   0.03775   0.04272   0.04502   0.04784
 Alpha virt. eigenvalues --    0.04970   0.05113   0.05481   0.05906   0.06108
 Alpha virt. eigenvalues --    0.06160   0.06548   0.06728   0.07540   0.07720
 Alpha virt. eigenvalues --    0.07990   0.08073   0.08426   0.08726   0.08814
 Alpha virt. eigenvalues --    0.09172   0.09277   0.09758   0.10084   0.10181
 Alpha virt. eigenvalues --    0.11642   0.11956   0.12643   0.12864   0.13369
 Alpha virt. eigenvalues --    0.13589   0.13781   0.14095   0.14461   0.14932
 Alpha virt. eigenvalues --    0.15479   0.16203   0.16857   0.17928   0.18991
 Alpha virt. eigenvalues --    0.24387   0.26598   0.27944   0.28957   0.30431
 Alpha virt. eigenvalues --    0.30718   0.32074   0.32872   0.33535   0.34746
 Alpha virt. eigenvalues --    0.34854   0.35205   0.35884   0.36839   0.36988
 Alpha virt. eigenvalues --    0.37093   0.38265   0.39470   0.39934   0.40513
 Alpha virt. eigenvalues --    0.40767   0.41202   0.42881   0.43455   0.43892
 Alpha virt. eigenvalues --    0.44058   0.44969   0.45082   0.45444   0.45618
 Alpha virt. eigenvalues --    0.45998   0.46596   0.46867   0.47139   0.48378
 Alpha virt. eigenvalues --    0.49467   0.49609   0.49838   0.50281   0.51183
 Alpha virt. eigenvalues --    0.53078   0.53375   0.55063   0.55958   0.56597
 Alpha virt. eigenvalues --    0.58562   0.60667   0.62128   0.65969   0.69165
 Alpha virt. eigenvalues --    0.71429   0.72372   0.74417   0.78295   0.79403
 Alpha virt. eigenvalues --    0.81586   2.09541   2.10377   2.13299   2.16137
 Alpha virt. eigenvalues --    2.23410   2.28047   2.30512   4.40644   4.41556
 Alpha virt. eigenvalues --    4.42292   4.43081   4.44299   4.44605   4.45220
 Alpha virt. eigenvalues --    4.45445   4.45913   4.46477   4.46617   4.47928
 Alpha virt. eigenvalues --    4.50319   4.54420   4.59380   4.62911   4.66366
 Alpha virt. eigenvalues --    4.68096   4.72785   4.74926   4.79156  96.30419
 Alpha virt. eigenvalues --   96.31884  96.35562  96.39321  96.48867  96.55376
 Alpha virt. eigenvalues --   96.58330
  Beta  occ. eigenvalues --  -38.44727 -38.44287 -38.44180 -38.43601 -38.43592
  Beta  occ. eigenvalues --  -38.43437 -38.43377  -2.20485  -2.20168  -2.19945
  Beta  occ. eigenvalues --   -2.19655  -2.19513  -2.19475  -2.19434  -1.14220
  Beta  occ. eigenvalues --   -1.14149  -1.14137  -1.13906  -1.13856  -1.13798
  Beta  occ. eigenvalues --   -1.13689  -1.13612  -1.13599  -1.13508  -1.13433
  Beta  occ. eigenvalues --   -1.13284  -1.13279  -1.13193  -1.13130  -1.13115
  Beta  occ. eigenvalues --   -1.13096  -1.13070  -1.13046  -1.13011  -1.12972
  Beta  occ. eigenvalues --   -0.18205  -0.12909  -0.11712
  Beta virt. eigenvalues --   -0.08139  -0.05805  -0.04602  -0.03781  -0.03092
  Beta virt. eigenvalues --   -0.02820  -0.01760  -0.01416  -0.00894  -0.00499
  Beta virt. eigenvalues --    0.00170   0.00211   0.00415   0.00637   0.00816
  Beta virt. eigenvalues --    0.00917   0.01028   0.01111   0.01152   0.01239
  Beta virt. eigenvalues --    0.01430   0.01534   0.01632   0.01669   0.01741
  Beta virt. eigenvalues --    0.02072   0.02448   0.02535   0.02563   0.02692
  Beta virt. eigenvalues --    0.02723   0.02868   0.03004   0.03057   0.03111
  Beta virt. eigenvalues --    0.03190   0.03299   0.03422   0.03442   0.03595
  Beta virt. eigenvalues --    0.03715   0.03816   0.03834   0.04376   0.04535
  Beta virt. eigenvalues --    0.04841   0.05045   0.05164   0.05555   0.05971
  Beta virt. eigenvalues --    0.06193   0.06226   0.06642   0.06885   0.07642
  Beta virt. eigenvalues --    0.07818   0.08130   0.08221   0.08563   0.08813
  Beta virt. eigenvalues --    0.09159   0.09373   0.09440   0.09973   0.10184
  Beta virt. eigenvalues --    0.10354   0.11734   0.12139   0.12812   0.13077
  Beta virt. eigenvalues --    0.13555   0.13695   0.13862   0.14234   0.14571
  Beta virt. eigenvalues --    0.15100   0.15593   0.16368   0.16998   0.18103
  Beta virt. eigenvalues --    0.19171   0.24673   0.26709   0.28306   0.29102
  Beta virt. eigenvalues --    0.30658   0.30930   0.32335   0.33222   0.33848
  Beta virt. eigenvalues --    0.35115   0.35325   0.35782   0.36351   0.37174
  Beta virt. eigenvalues --    0.37398   0.37587   0.38561   0.39698   0.40234
  Beta virt. eigenvalues --    0.40841   0.41135   0.41399   0.43055   0.43635
  Beta virt. eigenvalues --    0.44096   0.44221   0.45128   0.45263   0.45510
  Beta virt. eigenvalues --    0.45759   0.46085   0.46747   0.47021   0.47267
  Beta virt. eigenvalues --    0.48546   0.49583   0.49806   0.50030   0.50377
  Beta virt. eigenvalues --    0.51370   0.53172   0.53483   0.55175   0.55991
  Beta virt. eigenvalues --    0.56707   0.58666   0.60764   0.62228   0.66028
  Beta virt. eigenvalues --    0.69206   0.71551   0.72428   0.74419   0.78353
  Beta virt. eigenvalues --    0.79503   0.81633   2.09706   2.10672   2.13509
  Beta virt. eigenvalues --    2.16261   2.23473   2.28077   2.30530   4.40696
  Beta virt. eigenvalues --    4.41601   4.42377   4.43099   4.44340   4.44690
  Beta virt. eigenvalues --    4.45281   4.45532   4.45978   4.46557   4.46659
  Beta virt. eigenvalues --    4.48008   4.50348   4.54470   4.59421   4.62972
  Beta virt. eigenvalues --    4.66404   4.68103   4.72839   4.74961   4.79175
  Beta virt. eigenvalues --   96.30472  96.31983  96.35635  96.39363  96.48890
  Beta virt. eigenvalues --   96.55388  96.58340
          Condensed to atoms (all electrons):
               1          2          3          4          5          6
     1  Na  15.402667   0.801114  -0.365792  -1.831903  -0.106972  -1.003647
     2  Na   0.801114  11.306574  -0.164980  -1.009552  -0.381390   0.594339
     3  Na  -0.365792  -0.164980  11.097172   0.009797   0.031653  -0.229011
     4  Na  -1.831903  -1.009552   0.009797  13.242899   0.742460  -0.405778
     5  Na  -0.106972  -0.381390   0.031653   0.742460  11.308522  -0.702445
     6  Na  -1.003647   0.594339  -0.229011  -0.405778  -0.702445  13.913059
     7  Na  -2.984022  -0.793359   0.478424   1.095901   0.350674  -0.520263
               7
     1  Na  -2.984022
     2  Na  -0.793359
     3  Na   0.478424
     4  Na   1.095901
     5  Na   0.350674
     6  Na  -0.520263
     7  Na  13.518609
          Atomic-Atomic Spin Densities.
               1          2          3          4          5          6
     1  Na   1.326823   0.154807  -0.128002  -0.150943   0.263680  -0.367910
     2  Na   0.154807   0.034324  -0.036364  -0.004971   0.027135   0.015353
     3  Na  -0.128002  -0.036364   0.524631   0.018511   0.004363  -0.174309
     4  Na  -0.150943  -0.004971   0.018511  -0.071094  -0.089416   0.120995
     5  Na   0.263680   0.027135   0.004363  -0.089416   0.228745  -0.136312
     6  Na  -0.367910   0.015353  -0.174309   0.120995  -0.136312   0.456051
     7  Na  -0.843636  -0.050914   0.112701   0.042400  -0.077603   0.069764
               7
     1  Na  -0.843636
     2  Na  -0.050914
     3  Na   0.112701
     4  Na   0.042400
     5  Na  -0.077603
     6  Na   0.069764
     7  Na   0.961862
 Mulliken charges and spin densities:
               1          2
     1  Na   1.088554   0.254820
     2  Na   0.647254   0.139369
     3  Na   0.142737   0.321530
     4  Na  -0.843825  -0.134518
     5  Na  -0.242502   0.220592
     6  Na  -0.646254  -0.016368
     7  Na  -0.145964   0.214574
 Sum of Mulliken charges =  -0.00000   1.00000
 Mulliken charges and spin densities with hydrogens summed into heavy atoms:
               1          2
     1  Na   1.088554   0.254820
     2  Na   0.647254   0.139369
     3  Na   0.142737   0.321530
     4  Na  -0.843825  -0.134518
     5  Na  -0.242502   0.220592
     6  Na  -0.646254  -0.016368
     7  Na  -0.145964   0.214574
 Electronic spatial extent (au):  <R**2>=           2571.1775
 Charge=              0.0000 electrons
 Dipole moment (field-independent basis, Debye):
    X=              0.2004    Y=             -0.0296    Z=              0.3846  Tot=              0.4347
 Quadrupole moment (field-independent basis, Debye-Ang):
   XX=            -56.1574   YY=            -70.9110   ZZ=            -65.4654
   XY=              2.0687   XZ=              3.5051   YZ=              0.5038
 Traceless Quadrupole moment (field-independent basis, Debye-Ang):
   XX=              8.0205   YY=             -6.7330   ZZ=             -1.2875
   XY=              2.0687   XZ=              3.5051   YZ=              0.5038
 Octapole moment (field-independent basis, Debye-Ang**2):
  XXX=              8.7959  YYY=              0.6535  ZZZ=              9.4393  XYY=             10.5986
  XXY=             -2.3293  XXZ=            -24.3689  XZZ=             -3.0470  YZZ=              1.4557
  YYZ=             20.7715  XYZ=             -7.6600
 Hexadecapole moment (field-independent basis, Debye-Ang**3):
 XXXX=          -1718.9560 YYYY=          -1505.1459 ZZZZ=           -906.2774 XXXY=             84.4193
 XXXZ=             23.7485 YYYX=            -16.5102 YYYZ=             23.5705 ZZZX=             42.0877
 ZZZY=             15.0579 XXYY=           -597.2342 XXZZ=           -444.2543 YYZZ=           -357.9768
 XXYZ=            -28.0473 YYXZ=             34.6357 ZZXY=              0.8130
 N-N= 3.376400812924D+02 E-N=-3.404667849370D+03  KE= 1.133138999047D+03
                          Isotropic Fermi Contact Couplings
        Atom                 a.u.       MegaHertz       Gauss      10(-4) cm-1
     1  Na(23)            -0.00395      -4.67731      -1.66898      -1.56018
     2  Na(23)             0.14565     172.31272      61.48546      57.47734
     3  Na(23)             0.31935     377.79868     134.80796     126.02007
     4  Na(23)            -0.04571     -54.08038     -19.29723     -18.03927
     5  Na(23)             0.09586     113.41040      40.46765      37.82964
     6  Na(23)            -0.00319      -3.77745      -1.34789      -1.26002
     7  Na(23)             0.29991     354.80587     126.60356     118.35050
 --------------------------------------------------------
       Center         ----  Spin Dipole Couplings  ----
                      3XX-RR        3YY-RR        3ZZ-RR
 --------------------------------------------------------
     1   Atom        0.002691     -0.025620      0.022929
     2   Atom        0.006347     -0.001941     -0.004406
     3   Atom        0.002473      0.003845     -0.006318
     4   Atom       -0.036652     -0.007416      0.044068
     5   Atom        0.008940     -0.000561     -0.008380
     6   Atom        0.004645     -0.035466      0.030820
     7   Atom       -0.000394      0.000978     -0.000584
 --------------------------------------------------------
                        XY            XZ            YZ
 --------------------------------------------------------
     1   Atom       -0.000698      0.035828     -0.003451
     2   Atom        0.000163     -0.005484      0.000719
     3   Atom        0.003662      0.001682     -0.001956
     4   Atom        0.008237      0.026395      0.044553
     5   Atom       -0.009718     -0.003993      0.004130
     6   Atom        0.012557     -0.032686     -0.014982
     7   Atom        0.004312      0.005809      0.003337
 --------------------------------------------------------


 ---------------------------------------------------------------------------------
              Anisotropic Spin Dipole Couplings in Principal Axis System
 ---------------------------------------------------------------------------------

       Atom             a.u.   MegaHertz   Gauss  10(-4) cm-1        Axes

              Baa    -0.0267    -3.777    -1.348    -1.260 -0.4157  0.8361  0.3579
     1 Na(23) Bbb    -0.0234    -3.308    -1.180    -1.103  0.6816  0.5470 -0.4861
              Bcc     0.0502     7.085     2.528     2.363  0.6022 -0.0418  0.7973
 
              Baa    -0.0068    -0.963    -0.344    -0.321  0.3819 -0.1473  0.9124
     2 Na(23) Bbb    -0.0018    -0.259    -0.092    -0.086  0.0682  0.9890  0.1311
              Bcc     0.0087     1.222     0.436     0.408  0.9217 -0.0122 -0.3878
 
              Baa    -0.0073    -1.030    -0.367    -0.344 -0.2539  0.2477  0.9350
     3 Na(23) Bbb     0.0004     0.055     0.020     0.019  0.7346 -0.5794  0.3530
              Bcc     0.0069     0.974     0.348     0.325  0.6292  0.7765 -0.0349
 
              Baa    -0.0458    -6.473    -2.310    -2.159  0.8832  0.2618 -0.3890
     4 Na(23) Bbb    -0.0304    -4.294    -1.532    -1.432 -0.4069  0.8402 -0.3584
              Bcc     0.0762    10.767     3.842     3.592  0.2331  0.4749  0.8486
 
              Baa    -0.0102    -1.435    -0.512    -0.479 -0.0184 -0.4108  0.9115
     5 Na(23) Bbb    -0.0061    -0.863    -0.308    -0.288  0.5720  0.7435  0.3466
              Bcc     0.0163     2.298     0.820     0.766  0.8201 -0.5277 -0.2213
 
              Baa    -0.0397    -5.610    -2.002    -1.871 -0.1873  0.9749  0.1203
     6 Na(23) Bbb    -0.0173    -2.444    -0.872    -0.815  0.8118  0.0847  0.5777
              Bcc     0.0570     8.054     2.874     2.686 -0.5531 -0.2058  0.8073
 
              Baa    -0.0064    -0.901    -0.322    -0.301  0.7372 -0.1314 -0.6627
     7 Na(23) Bbb    -0.0026    -0.368    -0.131    -0.123 -0.2977  0.8173 -0.4933
              Bcc     0.0090     1.270     0.453     0.424  0.6065  0.5610  0.5634
 

 ---------------------------------------------------------------------------------

 No NMR shielding tensors so no spin-rotation constants.
 Leave Link  601 at Mon Nov 13 18:29:28 2023, MaxMem=  1879048192 cpu:               2.6 elap:               0.2
 (Enter /home/sekinelabo/g16/l701.exe)
 ... and contract with generalized density number  0.
 Compute integral first derivatives.
 Leave Link  701 at Mon Nov 13 18:29:28 2023, MaxMem=  1879048192 cpu:               1.8 elap:               0.1
 (Enter /home/sekinelabo/g16/l702.exe)
 L702 exits ... SP integral derivatives will be done elsewhere.
 Leave Link  702 at Mon Nov 13 18:29:28 2023, MaxMem=  1879048192 cpu:               0.5 elap:               0.0
 (Enter /home/sekinelabo/g16/l703.exe)
 Integral derivatives from FoFJK, PRISM(SPDF).
 Compute integral first derivatives, UseDBF=F ICtDFT=           0.
 Calling FoFJK, ICntrl=      2127 FMM=F ISym2X=0 I1Cent= 0 IOpClX= 1 NMat=1 NMatS=1 NMatT=0.
 FoFJK:  IHMeth= 1 ICntrl=    2127 DoSepK=F KAlg= 0 I1Cent=           0 FoldK=F
 IRaf=         0 NMat=       1 IRICut=       1 DoRegI=T DoRafI=F ISym2E= 0 IDoP0=0 IntGTp=1.
 FoFCou: FMM=F IPFlag=           0 FMFlag=      100000 FMFlg1=         800
         NFxFlg=           0 DoJE=F BraDBF=F KetDBF=F FulRan=T
         wScrn=  0.000000 ICntrl=      2127 IOpCl=  1 I1Cent=           0 NGrid=           0
         NMat0=    1 NMatS0=      1 NMatT0=    0 NMatD0=    1 NMtDS0=    0 NMtDT0=    0
 Symmetry not used in FoFCou.
 Leave Link  703 at Mon Nov 13 18:29:30 2023, MaxMem=  1879048192 cpu:              34.6 elap:               2.2
 (Enter /home/sekinelabo/g16/l716.exe)
 Dipole        = 7.88351763D-02-1.16612909D-02 1.51307205D-01
 ***** Axes restored to original set *****
 -------------------------------------------------------------------
 Center     Atomic                   Forces (Hartrees/Bohr)
 Number     Number              X              Y              Z
 -------------------------------------------------------------------
      1       11          -0.007099883   -0.007755254    0.009026941
      2       11          -0.007720375   -0.001834665   -0.006372187
      3       11           0.003042607    0.001414268    0.002130515
      4       11          -0.000726864    0.013232570   -0.004401369
      5       11           0.005616594   -0.006076979    0.005754235
      6       11           0.004956448   -0.001593779   -0.006260714
      7       11           0.001931473    0.002613838    0.000122579
 -------------------------------------------------------------------
 Cartesian Forces:  Max     0.013232570 RMS     0.005710803
 Z-matrix is all fixed cartesians, so copy forces.
 Force constants in Cartesian coordinates: 
                1             2             3             4             5 
      1  0.127634D+00
      2  0.540475D-03  0.908118D-01
      3 -0.491159D-02 -0.296992D-01  0.114430D+00
      4 -0.255291D-01 -0.229130D-02  0.323456D-02  0.572054D-01
      5  0.142102D-01 -0.138845D-01  0.126281D-01  0.738581D-02  0.339124D-01
      6 -0.168378D-01  0.260465D-02 -0.393448D-01  0.179792D-01 -0.239346D-02
      7  0.170940D-03 -0.338849D-03 -0.686896D-03  0.301204D-02 -0.864001D-03
      8 -0.205786D-02 -0.229708D-02 -0.557409D-02  0.767029D-03  0.527546D-04
      9  0.138150D-02  0.179025D-02  0.428080D-02 -0.195597D-02  0.367328D-03
     10 -0.231679D-01 -0.125518D-01  0.123203D-02 -0.293327D-01 -0.237796D-01
     11 -0.708017D-03 -0.392767D-01  0.861495D-02 -0.381895D-02 -0.269170D-01
     12 -0.175622D-02  0.220217D-01 -0.233961D-01 -0.731563D-02 -0.143973D-01
     13 -0.420789D-01  0.168320D-01 -0.123866D-01  0.155530D-02 -0.224812D-03
     14 -0.174522D-02 -0.169694D-01  0.671797D-02 -0.431175D-03  0.159050D-02
     15  0.109009D-01  0.178341D-02 -0.227793D-01 -0.541308D-02  0.301861D-02
     16 -0.372817D-01 -0.155778D-02  0.133628D-01 -0.690789D-02  0.335853D-02
     17 -0.110711D-01 -0.218876D-01  0.450436D-02 -0.161234D-02  0.510671D-02
     18  0.826472D-02 -0.311539D-02 -0.399566D-01 -0.651701D-02  0.875520D-03
     19  0.252332D-03 -0.632837D-03  0.155630D-03 -0.304272D-05 -0.860745D-04
     20  0.831559D-03  0.350360D-02  0.280795D-02  0.000000D+00  0.139155D-03
     21  0.295844D-02  0.461464D-02  0.676634D-02 -0.120926D-04 -0.987850D-04
                6             7             8             9            10 
      6  0.424040D-01
      7 -0.603054D-02  0.153501D-01
      8 -0.208677D-02  0.531409D-02  0.196603D-01
      9  0.430752D-02  0.640657D-02  0.988272D-02  0.270595D-01
     10  0.306476D-02 -0.217348D-01 -0.180583D-02 -0.590696D-02  0.103613D+00
     11  0.133013D-02 -0.685209D-02 -0.156148D-01 -0.120355D-01  0.130543D-01
     12 -0.183087D-01 -0.448882D-02  0.161676D-02 -0.361254D-01  0.879881D-02
     13 -0.154444D-02 -0.339945D-04 -0.276814D-04  0.355875D-04  0.559117D-02
     14  0.104223D-02  0.193724D-04 -0.396161D-04  0.190610D-04  0.602844D-02
     15  0.616101D-02  0.730394D-04 -0.443982D-04 -0.268637D-05 -0.333771D-02
     16  0.339049D-02  0.322875D-02 -0.219827D-02  0.485996D-04 -0.327588D-01
     17 -0.561440D-03  0.271923D-02 -0.176432D-02 -0.208976D-04  0.141099D-01
     18  0.474226D-02  0.468938D-02 -0.383958D-02  0.530008D-03 -0.426643D-02
     19 -0.217074D-04  0.700365D-05  0.852366D-05 -0.933521D-05 -0.221041D-02
     20  0.646608D-04  0.225211D-05  0.274089D-05 -0.300185D-05  0.494468D-02
     21  0.387494D-04  0.372666D-04  0.453546D-04 -0.496729D-04  0.415492D-03
               11            12            13            14            15 
     11  0.117638D+00
     12 -0.335533D-02  0.949110D-01
     13  0.202767D-02 -0.475796D-02  0.541608D-01
     14 -0.150664D-02  0.551296D-02 -0.133043D-01  0.352642D-01
     15 -0.452785D-03  0.401415D-02  0.414821D-02 -0.251715D-01  0.454085D-01
     16 -0.133938D-02  0.900085D-02 -0.222148D-01  0.881653D-02 -0.672154D-02
     17 -0.395546D-01 -0.106491D-01 -0.156478D-02 -0.179053D-01  0.210442D-01
     18  0.557339D-02 -0.218829D-01  0.857388D-02  0.996046D-02 -0.340399D-01
     19 -0.236348D-02  0.518974D-03  0.302037D-02  0.616317D-03  0.350141D-03
     20  0.523174D-02 -0.749704D-03 -0.373818D-02 -0.433753D-03 -0.177626D-03
     21  0.325101D-03  0.787910D-03  0.593130D-02  0.191877D-02  0.123822D-02
               16            17            18            19            20 
     16  0.129281D+00
     17  0.342813D-02  0.102273D+00
     18 -0.136593D-01 -0.974940D-02  0.113544D+00
     19 -0.333470D-01 -0.600898D-02  0.291471D-02  0.322807D-01
     20 -0.105078D-01 -0.262675D-01  0.295000D-03  0.846653D-02  0.178241D-01
     21 -0.542199D-02 -0.456780D-02 -0.229372D-01 -0.390841D-02 -0.223728D-02
               21 
     21  0.141557D-01
 Leave Link  716 at Mon Nov 13 18:29:30 2023, MaxMem=  1879048192 cpu:               0.5 elap:               0.0
 (Enter /home/sekinelabo/g16/l103.exe)

 GradGradGradGradGradGradGradGradGradGradGradGradGradGradGradGradGradGrad
 Berny optimization.
 Search for a local minimum.
 Step number   1 out of a maximum of    2
 All quantities printed in internal units (Hartrees-Bohrs-Radians)
 Second derivative matrix not updated -- first step.
 ITU=  0
     Eigenvalues ---    0.00741   0.01149   0.02443   0.03303   0.03585
     Eigenvalues ---    0.04518   0.07073   0.07954   0.10714   0.11890
     Eigenvalues ---    0.15091   0.15846   0.17010   0.17979   0.19346
 Quadratic step=3.940D-01 exceeds max=3.000D-01 adjusted using Lamda=-9.764D-03.
 Angle between NR and scaled steps=  14.04 degrees.
 Angle between quadratic step and forces=  31.49 degrees.
 Linear search not attempted -- first point.
 B after Tr=     0.000000    0.000000    0.000000
         Rot=    1.000000   -0.000000   -0.000000    0.000000 Ang=   0.00 deg.
 Variable       Old X    -DE/DX   Delta X   Delta X   Delta X     New X
                                 (Linear)    (Quad)   (Total)
    X1        3.60124  -0.00710   0.00000  -0.06804  -0.06804   3.53320
    Y1        2.29434  -0.00776   0.00000  -0.07052  -0.07052   2.22382
    Z1        4.00568   0.00903   0.00000   0.03922   0.03922   4.04490
    X2        0.00000  -0.00772   0.00000  -0.13988  -0.13988  -0.13988
    Y2        4.05553  -0.00183   0.00000  -0.01774  -0.01774   4.03779
    Z2        0.00000  -0.00637   0.00000  -0.07058  -0.07058  -0.07058
    X3        6.29536   0.00304   0.00000   0.08747   0.08747   6.38283
    Y3       10.46594   0.00141   0.00000   0.06376   0.06376  10.52971
    Z3        5.97366   0.00213   0.00000   0.01218   0.01218   5.98585
    X4        4.27187  -0.00073   0.00000  -0.03822  -0.03822   4.23365
    Y4        7.39842   0.01323   0.00000   0.07900   0.07900   7.47742
    Z4        1.65471  -0.00440   0.00000  -0.03670  -0.03670   1.61801
    X5        8.53233   0.00562   0.00000   0.05940   0.05940   8.59173
    Y5        0.00000  -0.00608   0.00000  -0.10819  -0.10819  -0.10819
    Z5        5.59994   0.00575   0.00000   0.07614   0.07614   5.67608
    X6        8.34149   0.00496   0.00000   0.03958   0.03958   8.38107
    Y6        3.47646  -0.00159   0.00000  -0.02258  -0.02258   3.45388
    Z6        1.12690  -0.00626   0.00000  -0.02508  -0.02508   1.10182
    X7       13.38774   0.00193   0.00000   0.05969   0.05969  13.44743
    Y7        5.82389   0.00261   0.00000   0.07627   0.07627   5.90016
    Z7        0.03668   0.00012   0.00000   0.00482   0.00482   0.04150
         Item               Value     Threshold  Converged?
 Maximum Force            0.013233     0.000450     NO 
 RMS     Force            0.005711     0.000300     NO 
 Maximum Displacement     0.139881     0.001800     NO 
 RMS     Displacement     0.065486     0.001200     NO 
 Predicted change in Energy=-3.788089D-03
 GradGradGradGradGradGradGradGradGradGradGradGradGradGradGradGradGradGrad

 Leave Link  103 at Mon Nov 13 18:29:30 2023, MaxMem=  1879048192 cpu:               0.3 elap:               0.0
 (Enter /home/sekinelabo/g16/l9999.exe)
 1\1\GINC-SEKINELABO-XA7R-R37\Force\UB3LYP\6-311+G(d)\Na7(2)\SEKINELABO
 \13-Nov-2023\0\\#P B3LYP/6-311+g(d) force\\Gaussian input prepared by 
 ASE\\0,2\Na,1.9056949736,1.2141115693,2.1197165358\Na,0.,2.1460939987,
 0.\Na,3.3313603278,5.5383378832,3.1611251117\Na,2.260574621,3.91507461
 19,0.8756348043\Na,4.515116157,0.,2.9633611903\Na,4.4141276625,1.83966
 43418,0.5963314784\Na,7.084489269,3.0818693373,0.019410696\\Version=ES
 64L-G16RevB.01\State=2-A\HF=-1136.0994804\S2=0.780291\S2-1=0.\S2A=0.75
 0516\RMSD=5.887e-09\RMSF=5.711e-03\Dipole=0.0788352,-0.0116613,0.15130
 72\Quadrupole=5.9630658,-5.0058575,-0.9572083,1.5380068,2.6059429,0.37
 45608\PG=C01 [X(Na7)]\\@


 WOMEN HOLD UP HALF THE SKY. -- MAO TSE TUNG
 Job cpu time:       0 days  0 hours  4 minutes 20.3 seconds.
 Elapsed time:       0 days  0 hours  0 minutes 21.3 seconds.
 File lengths (MBytes):  RWF=     32 Int=      0 D2E=      0 Chk=      5 Scr=      1
 Normal termination of Gaussian 16 at Mon Nov 13 18:29:31 2023.
