 Entering Gaussian System, Link 0=g16
 Initial command:
 /home/sekinelabo/g16/l1.exe "/home/sekinelabo/g16temp/Gau-4077910.inp" -scrdir="/home/sekinelabo/g16temp/"
 Entering Link 1 = /home/sekinelabo/g16/l1.exe PID=   4077912.
  
 Copyright (c) 1988-2017, Gaussian, Inc.  All Rights Reserved.
  
 This is part of the Gaussian(R) 16 program.  It is based on
 the Gaussian(R) 09 system (copyright 2009, Gaussian, Inc.),
 the Gaussian(R) 03 system (copyright 2003, Gaussian, Inc.),
 the Gaussian(R) 98 system (copyright 1998, Gaussian, Inc.),
 the Gaussian(R) 94 system (copyright 1995, Gaussian, Inc.),
 the Gaussian 92(TM) system (copyright 1992, Gaussian, Inc.),
 the Gaussian 90(TM) system (copyright 1990, Gaussian, Inc.),
 the Gaussian 88(TM) system (copyright 1988, Gaussian, Inc.),
 the Gaussian 86(TM) system (copyright 1986, Carnegie Mellon
 University), and the Gaussian 82(TM) system (copyright 1983,
 Carnegie Mellon University). Gaussian is a federally registered
 trademark of Gaussian, Inc.
  
 This software contains proprietary and confidential information,
 including trade secrets, belonging to Gaussian, Inc.
  
 This software is provided under written license and may be
 used, copied, transmitted, or stored only in accord with that
 written license.
  
 The following legend is applicable only to US Government
 contracts under FAR:
  
                    RESTRICTED RIGHTS LEGEND
  
 Use, reproduction and disclosure by the US Government is
 subject to restrictions as set forth in subparagraphs (a)
 and (c) of the Commercial Computer Software - Restricted
 Rights clause in FAR 52.227-19.
  
 Gaussian, Inc.
 340 Quinnipiac St., Bldg. 40, Wallingford CT 06492
  
  
 ---------------------------------------------------------------
 Warning -- This program may not be used in any manner that
 competes with the business of Gaussian, Inc. or will provide
 assistance to any competitor of Gaussian, Inc.  The licensee
 of this program is prohibited from giving any competitor of
 Gaussian, Inc. access to this program.  By using this program,
 the user acknowledges that Gaussian, Inc. is engaged in the
 business of creating and licensing software in the field of
 computational chemistry and represents and warrants to the
 licensee that it is not a competitor of Gaussian, Inc. and that
 it will not use this program in any manner prohibited above.
 ---------------------------------------------------------------
  

 Cite this work as:
 Gaussian 16, Revision B.01,
 M. J. Frisch, G. W. Trucks, H. B. Schlegel, G. E. Scuseria, 
 M. A. Robb, J. R. Cheeseman, G. Scalmani, V. Barone, 
 G. A. Petersson, H. Nakatsuji, X. Li, M. Caricato, A. V. Marenich, 
 J. Bloino, B. G. Janesko, R. Gomperts, B. Mennucci, H. P. Hratchian, 
 J. V. Ortiz, A. F. Izmaylov, J. L. Sonnenberg, D. Williams-Young, 
 F. Ding, F. Lipparini, F. Egidi, J. Goings, B. Peng, A. Petrone, 
 T. Henderson, D. Ranasinghe, V. G. Zakrzewski, J. Gao, N. Rega, 
 G. Zheng, W. Liang, M. Hada, M. Ehara, K. Toyota, R. Fukuda, 
 J. Hasegawa, M. Ishida, T. Nakajima, Y. Honda, O. Kitao, H. Nakai, 
 T. Vreven, K. Throssell, J. A. Montgomery, Jr., J. E. Peralta, 
 F. Ogliaro, M. J. Bearpark, J. J. Heyd, E. N. Brothers, K. N. Kudin, 
 V. N. Staroverov, T. A. Keith, R. Kobayashi, J. Normand, 
 K. Raghavachari, A. P. Rendell, J. C. Burant, S. S. Iyengar, 
 J. Tomasi, M. Cossi, J. M. Millam, M. Klene, C. Adamo, R. Cammi, 
 J. W. Ochterski, R. L. Martin, K. Morokuma, O. Farkas, 
 J. B. Foresman, and D. J. Fox, Gaussian, Inc., Wallingford CT, 2016.
 
 ******************************************
 Gaussian 16:  ES64L-G16RevB.01 20-Dec-2017
                13-Nov-2023 
 ******************************************
 %mem=14GB
 %chk=checkpoint.chk
 %nprocshared=16
 Will use up to   16 processors via shared memory.
 -------------------------
 #P B3LYP/6-311+g(d) force
 -------------------------
 1/10=7,30=1,38=1/1,3;
 2/12=2,17=6,18=5,40=1/2;
 3/5=4,6=6,7=11,11=2,25=1,30=1,71=1,74=-5/1,2,3;
 4//1;
 5/5=2,38=5/2;
 6/7=2,8=2,9=2,10=2,28=1/1;
 7/29=1/1,2,3,16;
 1/10=7,30=1/3;
 99//99;
 Leave Link    1 at Mon Nov 13 17:21:15 2023, MaxMem=  1879048192 cpu:               0.6 elap:               0.0
 (Enter /home/sekinelabo/g16/l101.exe)
 ------------------------------
 Gaussian input prepared by ASE
 ------------------------------
 Symbolic Z-matrix:
 Charge =  0 Multiplicity = 2
 Na                    4.27114   2.44147   0.38942 
 Na                    4.64532   0.        2.10509 
 Na                    6.94421   3.47527   1.28773 
 Na                    4.85104   2.74279   3.3086 
 Na                    2.42843   4.05524   2.12091 
 Na                    1.29975   2.26527   0. 
 Na                    0.        2.39356   2.6989 
 
 ITRead=  0  0  0  0  0  0  0
 MicOpt= -1 -1 -1 -1 -1 -1 -1
 NAtoms=      7 NQM=        7 NQMF=       0 NMMI=      0 NMMIF=      0
                NMic=       0 NMicF=      0.
                    Isotopes and Nuclear Properties:
 (Nuclear quadrupole moments (NQMom) in fm**2, nuclear magnetic moments (NMagM)
  in nuclear magnetons)

  Atom         1           2           3           4           5           6           7
 IAtWgt=          23          23          23          23          23          23          23
 AtmWgt=  22.9897697  22.9897697  22.9897697  22.9897697  22.9897697  22.9897697  22.9897697
 NucSpn=           3           3           3           3           3           3           3
 AtZEff=  -0.0000000  -0.0000000  -0.0000000  -0.0000000  -0.0000000  -0.0000000  -0.0000000
 NQMom=   10.4000000  10.4000000  10.4000000  10.4000000  10.4000000  10.4000000  10.4000000
 NMagM=    2.2175200   2.2175200   2.2175200   2.2175200   2.2175200   2.2175200   2.2175200
 AtZNuc=  11.0000000  11.0000000  11.0000000  11.0000000  11.0000000  11.0000000  11.0000000
 Leave Link  101 at Mon Nov 13 17:21:15 2023, MaxMem=  1879048192 cpu:               2.6 elap:               0.2
 (Enter /home/sekinelabo/g16/l103.exe)

 GradGradGradGradGradGradGradGradGradGradGradGradGradGradGradGradGradGrad
 Berny optimization.
 Initialization pass.
 Trust Radius=3.00D-01 FncErr=1.00D-07 GrdErr=1.00D-07 EigMax=2.50D+02 EigMin=1.00D-04
 Number of steps in this run=      2 maximum allowed number of steps=      2.
 GradGradGradGradGradGradGradGradGradGradGradGradGradGradGradGradGradGrad

 Leave Link  103 at Mon Nov 13 17:21:15 2023, MaxMem=  1879048192 cpu:               0.2 elap:               0.0
 (Enter /home/sekinelabo/g16/l202.exe)
                          Input orientation:                          
 ---------------------------------------------------------------------
 Center     Atomic      Atomic             Coordinates (Angstroms)
 Number     Number       Type             X           Y           Z
 ---------------------------------------------------------------------
      1         11           0        4.271145    2.441470    0.389419
      2         11           0        4.645325    0.000000    2.105086
      3         11           0        6.944213    3.475275    1.287733
      4         11           0        4.851044    2.742792    3.308597
      5         11           0        2.428426    4.055244    2.120906
      6         11           0        1.299753    2.265268    0.000000
      7         11           0        0.000000    2.393558    2.698896
 ---------------------------------------------------------------------
                    Distance matrix (angstroms):
                    1          2          3          4          5
     1  Na   0.000000
     2  Na   3.007374   0.000000
     3  Na   3.003500   4.246232   0.000000
     4  Na   2.991435   3.002278   3.000297   0.000000
     5  Na   2.999655   4.621677   4.628485   3.000369   0.000000
     6  Na   3.001977   4.555840   5.914584   4.877142   2.996024
     7  Na   4.855786   5.259351   7.168234   4.901666   2.998754
                    6          7
     6  Na   0.000000
     7  Na   2.998309   0.000000
 Stoichiometry    Na7(2)
 Framework group  C1[X(Na7)]
 Deg. of freedom    15
 Full point group                 C1      NOp   1
 Largest Abelian subgroup         C1      NOp   1
 Largest concise Abelian subgroup C1      NOp   1
                         Standard orientation:                         
 ---------------------------------------------------------------------
 Center     Atomic      Atomic             Coordinates (Angstroms)
 Number     Number       Type             X           Y           Z
 ---------------------------------------------------------------------
      1         11           0        0.779730    0.040474    1.312101
      2         11           0        1.153910    2.481944   -0.403566
      3         11           0        3.452798   -0.993331    0.413787
      4         11           0        1.359629   -0.260849   -1.607078
      5         11           0       -1.062989   -1.573300   -0.419387
      6         11           0       -2.191662    0.216676    1.701519
      7         11           0       -3.491415    0.088386   -0.997376
 ---------------------------------------------------------------------
 Rotational constants (GHZ):           1.1914351           0.5167870           0.5044274
 Leave Link  202 at Mon Nov 13 17:21:15 2023, MaxMem=  1879048192 cpu:               0.0 elap:               0.0
 (Enter /home/sekinelabo/g16/l301.exe)
 Standard basis: 6-311+G(d) (5D, 7F)
 Ernie: Thresh=  0.10000D-02 Tol=  0.10000D-05 Strict=F.
 There are   217 symmetry adapted cartesian basis functions of A   symmetry.
 There are   210 symmetry adapted basis functions of A   symmetry.
   210 basis functions,   350 primitive gaussians,   217 cartesian basis functions
    39 alpha electrons       38 beta electrons
       nuclear repulsion energy       362.9122782572 Hartrees.
 IExCor=  402 DFT=T Ex+Corr=B3LYP ExCW=0 ScaHFX=  0.200000
 ScaDFX=  0.800000  0.720000  1.000000  0.810000 ScalE2=  1.000000  1.000000
 IRadAn=      5 IRanWt=     -1 IRanGd=            0 ICorTp=0 IEmpDi=  4
 NAtoms=    7 NActive=    7 NUniq=    7 SFac= 1.00D+00 NAtFMM=   60 NAOKFM=F Big=F
 Integral buffers will be    131072 words long.
 Raffenetti 2 integral format.
 Two-electron integral symmetry is turned on.
 Leave Link  301 at Mon Nov 13 17:21:15 2023, MaxMem=  1879048192 cpu:               0.5 elap:               0.0
 (Enter /home/sekinelabo/g16/l302.exe)
 NPDir=0 NMtPBC=     1 NCelOv=     1 NCel=       1 NClECP=     1 NCelD=      1
         NCelK=      1 NCelE2=     1 NClLst=     1 CellRange=     0.0.
 One-electron integrals computed using PRISM.
 One-electron integral symmetry used in STVInt
 NBasis=   210 RedAO= T EigKep=  1.22D-06  NBF=   210
 NBsUse=   210 1.00D-06 EigRej= -1.00D+00 NBFU=   210
 Precomputing XC quadrature grid using
 IXCGrd= 4 IRadAn=           5 IRanWt=          -1 IRanGd=           0 AccXCQ= 0.00D+00.
 Generated NRdTot=       0 NPtTot=           0 NUsed=           0 NTot=          32
 NSgBfM=   210   210   210   210   210 MxSgAt=     7 MxSgA2=     7.
 Leave Link  302 at Mon Nov 13 17:21:15 2023, MaxMem=  1879048192 cpu:               2.7 elap:               0.2
 (Enter /home/sekinelabo/g16/l303.exe)
 DipDrv:  MaxL=1.
 Leave Link  303 at Mon Nov 13 17:21:16 2023, MaxMem=  1879048192 cpu:               0.6 elap:               0.0
 (Enter /home/sekinelabo/g16/l401.exe)
 ExpMin= 7.60D-03 ExpMax= 3.62D+04 ExpMxC= 1.21D+03 IAcc=3 IRadAn=         5 AccDes= 0.00D+00
 Harris functional with IExCor=  402 and IRadAn=       5 diagonalized for initial guess.
 HarFok:  IExCor=  402 AccDes= 0.00D+00 IRadAn=         5 IDoV= 1 UseB2=F ITyADJ=14
 ICtDFT=  3500011 ScaDFX=  1.000000  1.000000  1.000000  1.000000
 FoFCou: FMM=F IPFlag=           0 FMFlag=      100000 FMFlg1=           0
         NFxFlg=           0 DoJE=T BraDBF=F KetDBF=T FulRan=T
         wScrn=  0.000000 ICntrl=       500 IOpCl=  0 I1Cent=   200000004 NGrid=           0
         NMat0=    1 NMatS0=      1 NMatT0=    0 NMatD0=    1 NMtDS0=    0 NMtDT0=    0
 Petite list used in FoFCou.
 Harris En= -1135.86312965364    
 JPrj=0 DoOrth=F DoCkMO=F.
 Initial guess <Sx>= 0.0000 <Sy>= 0.0000 <Sz>= 0.5000 <S**2>= 0.7500 S= 0.5000
 Leave Link  401 at Mon Nov 13 17:21:16 2023, MaxMem=  1879048192 cpu:               4.9 elap:               0.3
 (Enter /home/sekinelabo/g16/l502.exe)
 Keep R1 and R2 ints in memory in canonical form, NReq=507620374.
 FoFCou: FMM=F IPFlag=           0 FMFlag=           0 FMFlg1=           0
         NFxFlg=           0 DoJE=F BraDBF=F KetDBF=F FulRan=T
         wScrn=  0.000000 ICntrl=       600 IOpCl=  0 I1Cent=           0 NGrid=           0
         NMat0=    1 NMatS0=  22155 NMatT0=    0 NMatD0=    1 NMtDS0=    0 NMtDT0=    0
 Symmetry not used in FoFCou.
 Two-electron integral symmetry not used.
 UHF open shell SCF:
 Using DIIS extrapolation, IDIIS=  1040.
 NGot=  1879048192 LenX=  1388082362 LenY=  1388034832
 Requested convergence on RMS density matrix=1.00D-08 within 128 cycles.
 Requested convergence on MAX density matrix=1.00D-06.
 Requested convergence on             energy=1.00D-06.
 No special actions if energy rises.

 Cycle   1  Pass 1  IDiag  1:
 E= -1136.04428319172    
 DIIS: error= 1.14D-02 at cycle   1 NSaved=   1.
 NSaved= 1 IEnMin= 1 EnMin= -1136.04428319172     IErMin= 1 ErrMin= 1.14D-02
 ErrMax= 1.14D-02  0.00D+00 EMaxC= 1.00D-01 BMatC= 2.04D-01 BMatP= 2.04D-01
 IDIUse=3 WtCom= 8.86D-01 WtEn= 1.14D-01
 Coeff-Com:  0.100D+01
 Coeff-En:   0.100D+01
 Coeff:      0.100D+01
 Gap=     0.027 Goal=   None    Shift=    0.000
 Gap=     0.024 Goal=   None    Shift=    0.000
 GapD=    0.024 DampG=0.250 DampE=0.500 DampFc=0.2500 IDamp=-1.
 Damping current iteration by 2.50D-01
 RMSDP=3.47D-02 MaxDP=2.52D+00              OVMax= 3.36D-01

 Cycle   2  Pass 1  IDiag  1:
 E= -1136.05972732184     Delta-E=       -0.015444130111 Rises=F Damp=T
 DIIS: error= 7.87D-03 at cycle   2 NSaved=   2.
 NSaved= 2 IEnMin= 2 EnMin= -1136.05972732184     IErMin= 2 ErrMin= 7.87D-03
 ErrMax= 7.87D-03  0.00D+00 EMaxC= 1.00D-01 BMatC= 7.56D-02 BMatP= 2.04D-01
 IDIUse=3 WtCom= 9.21D-01 WtEn= 7.87D-02
 Coeff-Com: -0.118D+01 0.218D+01
 Coeff-En:   0.000D+00 0.100D+01
 Coeff:     -0.109D+01 0.209D+01
 Gap=     0.038 Goal=   None    Shift=    0.000
 Gap=     0.037 Goal=   None    Shift=    0.000
 RMSDP=1.61D-02 MaxDP=2.36D+00 DE=-1.54D-02 OVMax= 2.98D-01

 Cycle   3  Pass 1  IDiag  1:
 E= -1136.07725321723     Delta-E=       -0.017525895389 Rises=F Damp=F
 DIIS: error= 5.45D-03 at cycle   3 NSaved=   3.
 NSaved= 3 IEnMin= 3 EnMin= -1136.07725321723     IErMin= 3 ErrMin= 5.45D-03
 ErrMax= 5.45D-03  0.00D+00 EMaxC= 1.00D-01 BMatC= 1.25D-02 BMatP= 7.56D-02
 IDIUse=3 WtCom= 9.45D-01 WtEn= 5.45D-02
 Coeff-Com: -0.507D+00 0.896D+00 0.611D+00
 Coeff-En:   0.000D+00 0.000D+00 0.100D+01
 Coeff:     -0.479D+00 0.847D+00 0.632D+00
 Gap=     0.030 Goal=   None    Shift=    0.000
 Gap=     0.029 Goal=   None    Shift=    0.000
 RMSDP=1.57D-02 MaxDP=1.04D+00 DE=-1.75D-02 OVMax= 1.74D-01

 Cycle   4  Pass 1  IDiag  1:
 E= -1136.07931469466     Delta-E=       -0.002061477433 Rises=F Damp=F
 DIIS: error= 4.66D-03 at cycle   4 NSaved=   4.
 NSaved= 4 IEnMin= 4 EnMin= -1136.07931469466     IErMin= 4 ErrMin= 4.66D-03
 ErrMax= 4.66D-03  0.00D+00 EMaxC= 1.00D-01 BMatC= 8.58D-03 BMatP= 1.25D-02
 IDIUse=3 WtCom= 9.53D-01 WtEn= 4.66D-02
 Coeff-Com: -0.681D-01 0.113D+00 0.443D+00 0.512D+00
 Coeff-En:   0.000D+00 0.000D+00 0.462D+00 0.538D+00
 Coeff:     -0.649D-01 0.108D+00 0.444D+00 0.513D+00
 Gap=     0.034 Goal=   None    Shift=    0.000
 Gap=     0.031 Goal=   None    Shift=    0.000
 RMSDP=5.01D-03 MaxDP=4.19D-01 DE=-2.06D-03 OVMax= 1.42D-01

 Cycle   5  Pass 1  IDiag  1:
 E= -1136.08679065519     Delta-E=       -0.007475960535 Rises=F Damp=F
 DIIS: error= 2.39D-03 at cycle   5 NSaved=   5.
 NSaved= 5 IEnMin= 5 EnMin= -1136.08679065519     IErMin= 5 ErrMin= 2.39D-03
 ErrMax= 2.39D-03  0.00D+00 EMaxC= 1.00D-01 BMatC= 1.74D-03 BMatP= 8.58D-03
 IDIUse=3 WtCom= 9.76D-01 WtEn= 2.39D-02
 Coeff-Com: -0.123D-01 0.157D-01 0.271D+00 0.368D+00 0.358D+00
 Coeff-En:   0.000D+00 0.000D+00 0.000D+00 0.203D+00 0.797D+00
 Coeff:     -0.120D-01 0.153D-01 0.264D+00 0.364D+00 0.368D+00
 Gap=     0.033 Goal=   None    Shift=    0.000
 Gap=     0.029 Goal=   None    Shift=    0.000
 RMSDP=3.21D-03 MaxDP=3.99D-01 DE=-7.48D-03 OVMax= 5.66D-02

 Cycle   6  Pass 1  IDiag  1:
 E= -1136.08883553536     Delta-E=       -0.002044880165 Rises=F Damp=F
 DIIS: error= 2.85D-04 at cycle   6 NSaved=   6.
 NSaved= 6 IEnMin= 6 EnMin= -1136.08883553536     IErMin= 6 ErrMin= 2.85D-04
 ErrMax= 2.85D-04  0.00D+00 EMaxC= 1.00D-01 BMatC= 2.37D-05 BMatP= 1.74D-03
 IDIUse=3 WtCom= 9.97D-01 WtEn= 2.85D-03
 Coeff-Com: -0.928D-03 0.374D-03 0.464D-02 0.633D-02 0.854D-01 0.904D+00
 Coeff-En:   0.000D+00 0.000D+00 0.000D+00 0.000D+00 0.000D+00 0.100D+01
 Coeff:     -0.925D-03 0.372D-03 0.463D-02 0.631D-02 0.852D-01 0.904D+00
 Gap=     0.033 Goal=   None    Shift=    0.000
 Gap=     0.030 Goal=   None    Shift=    0.000
 RMSDP=9.14D-04 MaxDP=7.03D-02 DE=-2.04D-03 OVMax= 1.62D-02

 Cycle   7  Pass 1  IDiag  1:
 E= -1136.08888610577     Delta-E=       -0.000050570409 Rises=F Damp=F
 DIIS: error= 1.54D-04 at cycle   7 NSaved=   7.
 NSaved= 7 IEnMin= 7 EnMin= -1136.08888610577     IErMin= 7 ErrMin= 1.54D-04
 ErrMax= 1.54D-04  0.00D+00 EMaxC= 1.00D-01 BMatC= 1.01D-05 BMatP= 2.37D-05
 IDIUse=3 WtCom= 9.98D-01 WtEn= 1.54D-03
 Coeff-Com:  0.119D-02-0.188D-02-0.281D-01-0.422D-01 0.449D-02 0.502D+00
 Coeff-Com:  0.564D+00
 Coeff-En:   0.000D+00 0.000D+00 0.000D+00 0.000D+00 0.000D+00 0.000D+00
 Coeff-En:   0.100D+01
 Coeff:      0.119D-02-0.188D-02-0.281D-01-0.421D-01 0.448D-02 0.502D+00
 Coeff:      0.565D+00
 Gap=     0.033 Goal=   None    Shift=    0.000
 Gap=     0.030 Goal=   None    Shift=    0.000
 RMSDP=6.77D-04 MaxDP=8.64D-02 DE=-5.06D-05 OVMax= 9.53D-03

 Cycle   8  Pass 1  IDiag  1:
 E= -1136.08891265049     Delta-E=       -0.000026544719 Rises=F Damp=F
 DIIS: error= 8.36D-05 at cycle   8 NSaved=   8.
 NSaved= 8 IEnMin= 8 EnMin= -1136.08891265049     IErMin= 8 ErrMin= 8.36D-05
 ErrMax= 8.36D-05  0.00D+00 EMaxC= 1.00D-01 BMatC= 2.01D-06 BMatP= 1.01D-05
 IDIUse=1 WtCom= 1.00D+00 WtEn= 0.00D+00
 Coeff-Com:  0.137D-02-0.176D-02-0.501D-02-0.892D-02-0.171D-01-0.132D+00
 Coeff-Com:  0.958D-01 0.107D+01
 Coeff:      0.137D-02-0.176D-02-0.501D-02-0.892D-02-0.171D-01-0.132D+00
 Coeff:      0.958D-01 0.107D+01
 Gap=     0.033 Goal=   None    Shift=    0.000
 Gap=     0.030 Goal=   None    Shift=    0.000
 RMSDP=5.01D-04 MaxDP=4.10D-02 DE=-2.65D-05 OVMax= 1.54D-02

 Cycle   9  Pass 1  IDiag  1:
 E= -1136.08894122351     Delta-E=       -0.000028573020 Rises=F Damp=F
 DIIS: error= 8.66D-05 at cycle   9 NSaved=   9.
 NSaved= 9 IEnMin= 9 EnMin= -1136.08894122351     IErMin= 8 ErrMin= 8.36D-05
 ErrMax= 8.66D-05  0.00D+00 EMaxC= 1.00D-01 BMatC= 1.39D-06 BMatP= 2.01D-06
 IDIUse=1 WtCom= 1.00D+00 WtEn= 0.00D+00
 Coeff-Com:  0.946D-03-0.119D-02-0.325D-03-0.857D-03-0.850D-02-0.944D-01
 Coeff-Com: -0.202D-01 0.176D+00 0.949D+00
 Coeff:      0.946D-03-0.119D-02-0.325D-03-0.857D-03-0.850D-02-0.944D-01
 Coeff:     -0.202D-01 0.176D+00 0.949D+00
 Gap=     0.033 Goal=   None    Shift=    0.000
 Gap=     0.030 Goal=   None    Shift=    0.000
 RMSDP=3.86D-04 MaxDP=2.67D-02 DE=-2.86D-05 OVMax= 1.30D-02

 Cycle  10  Pass 1  IDiag  1:
 E= -1136.08896552552     Delta-E=       -0.000024302015 Rises=F Damp=F
 DIIS: error= 9.20D-05 at cycle  10 NSaved=  10.
 NSaved=10 IEnMin=10 EnMin= -1136.08896552552     IErMin= 8 ErrMin= 8.36D-05
 ErrMax= 9.20D-05  0.00D+00 EMaxC= 1.00D-01 BMatC= 1.38D-06 BMatP= 1.39D-06
 IDIUse=1 WtCom= 1.00D+00 WtEn= 0.00D+00
 Coeff-Com:  0.630D-03-0.788D-03-0.821D-03-0.201D-02-0.276D-02-0.242D-01
 Coeff-Com:  0.162D-01-0.537D-01 0.499D+00 0.568D+00
 Coeff:      0.630D-03-0.788D-03-0.821D-03-0.201D-02-0.276D-02-0.242D-01
 Coeff:      0.162D-01-0.537D-01 0.499D+00 0.568D+00
 Gap=     0.033 Goal=   None    Shift=    0.000
 Gap=     0.030 Goal=   None    Shift=    0.000
 RMSDP=2.12D-04 MaxDP=1.26D-02 DE=-2.43D-05 OVMax= 7.42D-03

 Cycle  11  Pass 1  IDiag  1:
 E= -1136.08897964481     Delta-E=       -0.000014119286 Rises=F Damp=F
 DIIS: error= 9.51D-05 at cycle  11 NSaved=  11.
 NSaved=11 IEnMin=11 EnMin= -1136.08897964481     IErMin= 8 ErrMin= 8.36D-05
 ErrMax= 9.51D-05  0.00D+00 EMaxC= 1.00D-01 BMatC= 1.39D-06 BMatP= 1.38D-06
 IDIUse=1 WtCom= 1.00D+00 WtEn= 0.00D+00
 Coeff-Com:  0.691D-03-0.861D-03-0.342D-03-0.114D-02-0.390D-02-0.412D-01
 Coeff-Com: -0.275D-02-0.529D-01 0.685D+00 0.823D+00-0.405D+00
 Coeff:      0.691D-03-0.861D-03-0.342D-03-0.114D-02-0.390D-02-0.412D-01
 Coeff:     -0.275D-02-0.529D-01 0.685D+00 0.823D+00-0.405D+00
 Gap=     0.033 Goal=   None    Shift=    0.000
 Gap=     0.030 Goal=   None    Shift=    0.000
 RMSDP=1.12D-04 MaxDP=6.69D-03 DE=-1.41D-05 OVMax= 4.23D-03

 Cycle  12  Pass 1  IDiag  1:
 E= -1136.08897180466     Delta-E=        0.000007840144 Rises=F Damp=F
 DIIS: error= 9.43D-05 at cycle  12 NSaved=  12.
 NSaved=12 IEnMin=11 EnMin= -1136.08897964481     IErMin= 8 ErrMin= 8.36D-05
 ErrMax= 9.43D-05  0.00D+00 EMaxC= 1.00D-01 BMatC= 1.39D-06 BMatP= 1.38D-06
 IDIUse=1 WtCom= 1.00D+00 WtEn= 0.00D+00
 Large coefficients: NSaved= 12 BigCof=   13.60 CofMax=   10.00 Det=-6.73D-10
 Inversion failed.  Reducing to 11 matrices.
 Large coefficients: NSaved= 11 BigCof=   13.67 CofMax=   10.00 Det=-6.85D-10
 Inversion failed.  Reducing to 10 matrices.
 Large coefficients: NSaved= 10 BigCof=   13.73 CofMax=   10.00 Det=-6.86D-10
 Inversion failed.  Reducing to  9 matrices.
 Large coefficients: NSaved=  9 BigCof=   12.91 CofMax=   10.00 Det=-7.34D-10
 Inversion failed.  Reducing to  8 matrices.
 Large coefficients: NSaved=  8 BigCof=   12.81 CofMax=   10.00 Det=-7.35D-10
 Inversion failed.  Reducing to  7 matrices.
 Large coefficients: NSaved=  7 BigCof=   12.61 CofMax=   10.00 Det=-7.50D-10
 Inversion failed.  Reducing to  6 matrices.
 Large coefficients: NSaved=  6 BigCof=   12.69 CofMax=   10.00 Det=-7.55D-10
 Inversion failed.  Reducing to  5 matrices.
 Large coefficients: NSaved=  5 BigCof=   10.64 CofMax=   10.00 Det=-9.40D-10
 Inversion failed.  Reducing to  4 matrices.
 Coeff-Com:  0.421D+00 0.191D+01-0.664D+01 0.531D+01
 Coeff:      0.421D+00 0.191D+01-0.664D+01 0.531D+01
 Gap=     0.033 Goal=   None    Shift=    0.000
 Gap=     0.030 Goal=   None    Shift=    0.000
 RMSDP=8.22D-04 MaxDP=4.90D-02 DE= 7.84D-06 OVMax= 3.05D-02

 Cycle  13  Pass 1  IDiag  1:
 E= -1136.08891748428     Delta-E=        0.000054320387 Rises=F Damp=F
 DIIS: error= 8.49D-05 at cycle  13 NSaved=   5.
 NSaved= 5 IEnMin= 3 EnMin= -1136.08897964481     IErMin= 5 ErrMin= 8.49D-05
 ErrMax= 8.49D-05  0.00D+00 EMaxC= 1.00D-01 BMatC= 1.21D-06 BMatP= 1.38D-06
 IDIUse=1 WtCom= 1.00D+00 WtEn= 0.00D+00
 Large coefficients: NSaved=  5 BigCof=   11.28 CofMax=   10.00 Det=-1.07D-09
 Inversion failed.  Reducing to  4 matrices.
 Coeff-Com:  0.186D+01-0.953D+01 0.758D+01 0.108D+01
 Coeff:      0.186D+01-0.953D+01 0.758D+01 0.108D+01
 Gap=     0.033 Goal=   None    Shift=    0.000
 Gap=     0.030 Goal=   None    Shift=    0.000
 RMSDP=1.06D-03 MaxDP=5.79D-02 DE= 5.43D-05 OVMax= 3.98D-02

 Cycle  14  Pass 1  IDiag  1:
 E= -1136.08885533127     Delta-E=        0.000062153011 Rises=F Damp=F
 DIIS: error= 8.08D-05 at cycle  14 NSaved=   5.
 NSaved= 5 IEnMin= 2 EnMin= -1136.08897964481     IErMin= 5 ErrMin= 8.08D-05
 ErrMax= 8.08D-05  0.00D+00 EMaxC= 1.00D-01 BMatC= 1.53D-06 BMatP= 1.21D-06
 IDIUse=1 WtCom= 1.00D+00 WtEn= 0.00D+00
 Coeff-Com:  0.108D+01-0.843D+01 0.648D+01 0.134D+01 0.529D+00
 Coeff:      0.108D+01-0.843D+01 0.648D+01 0.134D+01 0.529D+00
 Gap=     0.033 Goal=   None    Shift=    0.000
 Gap=     0.030 Goal=   None    Shift=    0.000
 RMSDP=1.02D-03 MaxDP=5.85D-02 DE= 6.22D-05 OVMax= 3.94D-02

 Cycle  15  Pass 1  IDiag  1:
 E= -1136.08880581009     Delta-E=        0.000049521180 Rises=F Damp=F
 DIIS: error= 6.38D-05 at cycle  15 NSaved=   6.
 NSaved= 6 IEnMin= 2 EnMin= -1136.08897964481     IErMin= 6 ErrMin= 6.38D-05
 ErrMax= 6.38D-05  0.00D+00 EMaxC= 1.00D-01 BMatC= 1.45D-06 BMatP= 1.21D-06
 IDIUse=1 WtCom= 1.00D+00 WtEn= 0.00D+00
 Coeff-Com:  0.104D+01-0.811D+01 0.628D+01 0.128D+01 0.419D+00 0.955D-01
 Coeff:      0.104D+01-0.811D+01 0.628D+01 0.128D+01 0.419D+00 0.955D-01
 Gap=     0.033 Goal=   None    Shift=    0.000
 Gap=     0.030 Goal=   None    Shift=    0.000
 RMSDP=2.09D-05 MaxDP=1.56D-03 DE= 4.95D-05 OVMax= 5.71D-04

 Cycle  16  Pass 1  IDiag  1:
 E= -1136.08880662855     Delta-E=       -0.000000818466 Rises=F Damp=F
 DIIS: error= 6.36D-05 at cycle  16 NSaved=   7.
 NSaved= 7 IEnMin= 2 EnMin= -1136.08897964481     IErMin= 7 ErrMin= 6.36D-05
 ErrMax= 6.36D-05  0.00D+00 EMaxC= 1.00D-01 BMatC= 1.31D-06 BMatP= 1.21D-06
 IDIUse=1 WtCom= 1.00D+00 WtEn= 0.00D+00
 Large coefficients: NSaved=  7 BigCof=   13.02 CofMax=   10.00 Det=-8.22D-10
 Inversion failed.  Reducing to  6 matrices.
 Coeff-Com: -0.173D+00-0.335D+01 0.244D+01 0.964D+00-0.685D+01 0.797D+01
 Coeff:     -0.173D+00-0.335D+01 0.244D+01 0.964D+00-0.685D+01 0.797D+01
 Gap=     0.034 Goal=   None    Shift=    0.000
 Gap=     0.030 Goal=   None    Shift=    0.000
 RMSDP=1.19D-03 MaxDP=6.78D-02 DE=-8.18D-07 OVMax= 4.72D-02

 Cycle  17  Pass 1  IDiag  1:
 E= -1136.08876089250     Delta-E=        0.000045736050 Rises=F Damp=F
 DIIS: error= 5.95D-05 at cycle  17 NSaved=   7.
 NSaved= 7 IEnMin= 2 EnMin= -1136.08897964481     IErMin= 7 ErrMin= 5.95D-05
 ErrMax= 5.95D-05  0.00D+00 EMaxC= 1.00D-01 BMatC= 2.36D-06 BMatP= 1.21D-06
 IDIUse=1 WtCom= 1.00D+00 WtEn= 0.00D+00
 Large coefficients: NSaved=  7 BigCof=   25.45 CofMax=   10.00 Det=-1.02D-09
 Inversion failed.  Reducing to  6 matrices.
 Coeff-Com:  0.655D+00-0.630D+01 0.497D+01 0.110D+01 0.726D+00-0.152D+00
 Coeff:      0.655D+00-0.630D+01 0.497D+01 0.110D+01 0.726D+00-0.152D+00
 Gap=     0.033 Goal=   None    Shift=    0.000
 Gap=     0.030 Goal=   None    Shift=    0.000
 RMSDP=1.16D-03 MaxDP=6.72D-02 DE= 4.57D-05 OVMax= 4.59D-02

 Cycle  18  Pass 1  IDiag  1:
 E= -1136.08880569172     Delta-E=       -0.000044799219 Rises=F Damp=F
 DIIS: error= 6.07D-05 at cycle  18 NSaved=   7.
 NSaved= 7 IEnMin= 2 EnMin= -1136.08897964481     IErMin= 6 ErrMin= 5.95D-05
 ErrMax= 6.07D-05  0.00D+00 EMaxC= 1.00D-01 BMatC= 1.05D-06 BMatP= 1.21D-06
 IDIUse=1 WtCom= 1.00D+00 WtEn= 0.00D+00
 Coeff-Com: -0.164D+01 0.366D+01-0.312D+01-0.184D+00-0.668D+01-0.320D+00
 Coeff-Com:  0.928D+01
 Coeff:     -0.164D+01 0.366D+01-0.312D+01-0.184D+00-0.668D+01-0.320D+00
 Coeff:      0.928D+01
 Gap=     0.034 Goal=   None    Shift=    0.000
 Gap=     0.030 Goal=   None    Shift=    0.000
 RMSDP=2.67D-03 MaxDP=1.54D-01 DE=-4.48D-05 OVMax= 1.05D-01

 Cycle  19  Pass 1  IDiag  1:
 E= -1136.08871344743     Delta-E=        0.000092244292 Rises=F Damp=F
 DIIS: error= 1.02D-04 at cycle  19 NSaved=   8.
 NSaved= 8 IEnMin= 2 EnMin= -1136.08897964481     IErMin= 6 ErrMin= 5.95D-05
 ErrMax= 1.02D-04  0.00D+00 EMaxC= 1.00D-01 BMatC= 6.36D-06 BMatP= 1.05D-06
 IDIUse=1 WtCom= 1.00D+00 WtEn= 0.00D+00
 Large coefficients: NSaved=  8 BigCof=   11.72 CofMax=   10.00 Det=-4.09D-10
 Inversion failed.  Reducing to  7 matrices.
 Coeff-Com: -0.191D+01 0.501D+01-0.404D+01-0.334D+00-0.571D+01 0.816D+01
 Coeff-Com: -0.177D+00
 Coeff:     -0.191D+01 0.501D+01-0.404D+01-0.334D+00-0.571D+01 0.816D+01
 Coeff:     -0.177D+00
 Gap=     0.034 Goal=   None    Shift=    0.000
 Gap=     0.030 Goal=   None    Shift=    0.000
 RMSDP=4.46D-04 MaxDP=2.78D-02 DE= 9.22D-05 OVMax= 1.78D-02

 Cycle  20  Pass 1  IDiag  1:
 E= -1136.08872872659     Delta-E=       -0.000015279162 Rises=F Damp=F
 DIIS: error= 8.72D-05 at cycle  20 NSaved=   8.
 NSaved= 8 IEnMin= 2 EnMin= -1136.08897964481     IErMin= 6 ErrMin= 6.07D-05
 ErrMax= 8.72D-05  0.00D+00 EMaxC= 1.00D-01 BMatC= 4.10D-06 BMatP= 1.05D-06
 IDIUse=1 WtCom= 1.00D+00 WtEn= 0.00D+00
 Coeff-Com:  0.221D+00-0.248D+01 0.138D+01 0.223D+00-0.835D+01 0.934D+01
 Coeff-Com: -0.891D+00 0.156D+01
 Coeff:      0.221D+00-0.248D+01 0.138D+01 0.223D+00-0.835D+01 0.934D+01
 Coeff:     -0.891D+00 0.156D+01
 Gap=     0.035 Goal=   None    Shift=    0.000
 Gap=     0.030 Goal=   None    Shift=    0.000
 RMSDP=1.28D-03 MaxDP=7.59D-02 DE=-1.53D-05 OVMax= 5.09D-02

 Cycle  21  Pass 1  IDiag  1:
 E= -1136.08868380058     Delta-E=        0.000044926009 Rises=F Damp=F
 DIIS: error= 1.34D-04 at cycle  21 NSaved=   9.
 NSaved= 9 IEnMin= 2 EnMin= -1136.08897964481     IErMin= 6 ErrMin= 6.07D-05
 ErrMax= 1.34D-04  0.00D+00 EMaxC= 1.00D-01 BMatC= 1.08D-05 BMatP= 1.05D-06
 IDIUse=1 WtCom= 1.00D+00 WtEn= 0.00D+00
 Coeff-Com:  0.801D+00-0.499D+01 0.328D+01 0.360D+00-0.924D+01 0.999D+01
 Coeff-Com: -0.188D+01 0.223D+01 0.445D+00
 Coeff:      0.801D+00-0.499D+01 0.328D+01 0.360D+00-0.924D+01 0.999D+01
 Coeff:     -0.188D+01 0.223D+01 0.445D+00
 Gap=     0.036 Goal=   None    Shift=    0.000
 Gap=     0.030 Goal=   None    Shift=    0.000
 RMSDP=5.09D-04 MaxDP=3.10D-02 DE= 4.49D-05 OVMax= 2.01D-02

 Cycle  22  Pass 1  IDiag  1:
 E= -1136.08866036984     Delta-E=        0.000023430741 Rises=F Damp=F
 DIIS: error= 1.64D-04 at cycle  22 NSaved=  10.
 NSaved=10 IEnMin= 2 EnMin= -1136.08897964481     IErMin= 6 ErrMin= 6.07D-05
 ErrMax= 1.64D-04  0.00D+00 EMaxC= 1.00D-01 BMatC= 1.53D-05 BMatP= 1.05D-06
 IDIUse=1 WtCom= 1.00D+00 WtEn= 0.00D+00
 Coeff-Com:  0.120D+01-0.428D+01 0.272D+01 0.392D+00-0.694D+01 0.671D+01
 Coeff-Com: -0.833D+00 0.150D+01 0.260D+01-0.207D+01
 Coeff:      0.120D+01-0.428D+01 0.272D+01 0.392D+00-0.694D+01 0.671D+01
 Coeff:     -0.833D+00 0.150D+01 0.260D+01-0.207D+01
 Gap=     0.034 Goal=   None    Shift=    0.000
 Gap=     0.030 Goal=   None    Shift=    0.000
 RMSDP=1.27D-03 MaxDP=7.97D-02 DE= 2.34D-05 OVMax= 4.99D-02

 Cycle  23  Pass 1  IDiag  1:
 E= -1136.08871412002     Delta-E=       -0.000053750181 Rises=F Damp=F
 DIIS: error= 9.47D-05 at cycle  23 NSaved=  11.
 NSaved=11 IEnMin= 2 EnMin= -1136.08897964481     IErMin= 6 ErrMin= 6.07D-05
 ErrMax= 9.47D-05  0.00D+00 EMaxC= 1.00D-01 BMatC= 4.64D-06 BMatP= 1.05D-06
 IDIUse=1 WtCom= 1.00D+00 WtEn= 0.00D+00
 Coeff-Com:  0.183D+01-0.684D+01 0.481D+01 0.509D+00-0.447D+01 0.371D+01
 Coeff-Com: -0.206D+01 0.176D+01 0.318D+01-0.252D+01 0.111D+01
 Coeff:      0.183D+01-0.684D+01 0.481D+01 0.509D+00-0.447D+01 0.371D+01
 Coeff:     -0.206D+01 0.176D+01 0.318D+01-0.252D+01 0.111D+01
 Gap=     0.035 Goal=   None    Shift=    0.000
 Gap=     0.030 Goal=   None    Shift=    0.000
 RMSDP=1.84D-04 MaxDP=1.23D-02 DE=-5.38D-05 OVMax= 6.84D-03

 Cycle  24  Pass 1  IDiag  1:
 E= -1136.08870936159     Delta-E=        0.000004758437 Rises=F Damp=F
 DIIS: error= 9.35D-05 at cycle  24 NSaved=  12.
 NSaved=12 IEnMin= 2 EnMin= -1136.08897964481     IErMin= 6 ErrMin= 6.07D-05
 ErrMax= 9.35D-05  0.00D+00 EMaxC= 1.00D-01 BMatC= 4.89D-06 BMatP= 1.05D-06
 IDIUse=1 WtCom= 1.00D+00 WtEn= 0.00D+00
 Coeff-Com:  0.170D+01-0.781D+01 0.579D+01 0.566D+00-0.291D+01 0.231D+01
 Coeff-Com: -0.170D+01 0.126D+01 0.216D+01-0.208D+01 0.720D+00 0.989D+00
 Coeff:      0.170D+01-0.781D+01 0.579D+01 0.566D+00-0.291D+01 0.231D+01
 Coeff:     -0.170D+01 0.126D+01 0.216D+01-0.208D+01 0.720D+00 0.989D+00
 Gap=     0.035 Goal=   None    Shift=    0.000
 Gap=     0.030 Goal=   None    Shift=    0.000
 RMSDP=1.34D-04 MaxDP=7.21D-03 DE= 4.76D-06 OVMax= 5.05D-03

 Cycle  25  Pass 1  IDiag  1:
 E= -1136.08870413962     Delta-E=        0.000005221968 Rises=F Damp=F
 DIIS: error= 1.06D-04 at cycle  25 NSaved=  13.
 NSaved=13 IEnMin= 2 EnMin= -1136.08897964481     IErMin= 6 ErrMin= 6.07D-05
 ErrMax= 1.06D-04  0.00D+00 EMaxC= 1.00D-01 BMatC= 6.18D-06 BMatP= 1.05D-06
 IDIUse=1 WtCom= 1.00D+00 WtEn= 0.00D+00
 Coeff-Com:  0.161D+01-0.765D+01 0.572D+01 0.518D+00-0.329D+01 0.282D+01
 Coeff-Com: -0.143D+01 0.115D+01 0.197D+01-0.206D+01 0.493D+00 0.424D+00
 Coeff-Com:  0.732D+00
 Coeff:      0.161D+01-0.765D+01 0.572D+01 0.518D+00-0.329D+01 0.282D+01
 Coeff:     -0.143D+01 0.115D+01 0.197D+01-0.206D+01 0.493D+00 0.424D+00
 Coeff:      0.732D+00
 Gap=     0.035 Goal=   None    Shift=    0.000
 Gap=     0.030 Goal=   None    Shift=    0.000
 RMSDP=9.60D-05 MaxDP=5.71D-03 DE= 5.22D-06 OVMax= 3.74D-03

 Cycle  26  Pass 1  IDiag  1:
 E= -1136.08870680707     Delta-E=       -0.000002667453 Rises=F Damp=F
 DIIS: error= 1.06D-04 at cycle  26 NSaved=  14.
 NSaved=14 IEnMin= 2 EnMin= -1136.08897964481     IErMin= 6 ErrMin= 6.07D-05
 ErrMax= 1.06D-04  0.00D+00 EMaxC= 1.00D-01 BMatC= 6.13D-06 BMatP= 1.05D-06
 IDIUse=1 WtCom= 1.00D+00 WtEn= 0.00D+00
 Coeff-Com:  0.147D+01-0.635D+01 0.463D+01 0.340D+00-0.572D+01 0.535D+01
 Coeff-Com: -0.198D+01 0.189D+01 0.203D+01-0.179D+01 0.437D+00-0.566D+00
 Coeff-Com: -0.407D+01 0.533D+01
 Coeff:      0.147D+01-0.635D+01 0.463D+01 0.340D+00-0.572D+01 0.535D+01
 Coeff:     -0.198D+01 0.189D+01 0.203D+01-0.179D+01 0.437D+00-0.566D+00
 Coeff:     -0.407D+01 0.533D+01
 Gap=     0.035 Goal=   None    Shift=    0.000
 Gap=     0.030 Goal=   None    Shift=    0.000
 RMSDP=3.52D-04 MaxDP=2.20D-02 DE=-2.67D-06 OVMax= 1.40D-02

 Cycle  27  Pass 1  IDiag  1:
 E= -1136.08871672054     Delta-E=       -0.000009913470 Rises=F Damp=F
 DIIS: error= 1.01D-04 at cycle  27 NSaved=  15.
 NSaved=15 IEnMin= 2 EnMin= -1136.08897964481     IErMin= 6 ErrMin= 6.07D-05
 ErrMax= 1.01D-04  0.00D+00 EMaxC= 1.00D-01 BMatC= 5.65D-06 BMatP= 1.05D-06
 IDIUse=1 WtCom= 1.00D+00 WtEn= 0.00D+00
 Coeff-Com:  0.145D+01-0.625D+01 0.455D+01 0.330D+00-0.576D+01 0.540D+01
 Coeff-Com: -0.195D+01 0.188D+01 0.203D+01-0.180D+01 0.417D+00-0.617D+00
 Coeff-Com: -0.408D+01 0.552D+01-0.120D+00
 Coeff:      0.145D+01-0.625D+01 0.455D+01 0.330D+00-0.576D+01 0.540D+01
 Coeff:     -0.195D+01 0.188D+01 0.203D+01-0.180D+01 0.417D+00-0.617D+00
 Coeff:     -0.408D+01 0.552D+01-0.120D+00
 Gap=     0.035 Goal=   None    Shift=    0.000
 Gap=     0.030 Goal=   None    Shift=    0.000
 RMSDP=8.46D-06 MaxDP=1.21D-03 DE=-9.91D-06 OVMax= 2.98D-04

 Cycle  28  Pass 1  IDiag  1:
 E= -1136.08871671920     Delta-E=        0.000000001342 Rises=F Damp=F
 DIIS: error= 1.01D-04 at cycle  28 NSaved=  16.
 NSaved=16 IEnMin= 2 EnMin= -1136.08897964481     IErMin= 6 ErrMin= 6.07D-05
 ErrMax= 1.01D-04  0.00D+00 EMaxC= 1.00D-01 BMatC= 5.57D-06 BMatP= 1.05D-06
 IDIUse=1 WtCom= 1.00D+00 WtEn= 0.00D+00
 Large coefficients: NSaved= 16 BigCof=   30.04 CofMax=   10.00 Det=-3.37D-12
 Inversion failed.  Reducing to 15 matrices.
 Large coefficients: NSaved= 15 BigCof=   60.44 CofMax=   10.00 Det=-3.97D-12
 Inversion failed.  Reducing to 14 matrices.
 Large coefficients: NSaved= 14 BigCof=   61.32 CofMax=   10.00 Det=-3.98D-12
 Inversion failed.  Reducing to 13 matrices.
 Large coefficients: NSaved= 13 BigCof=   61.87 CofMax=   10.00 Det=-3.99D-12
 Inversion failed.  Reducing to 12 matrices.
 Large coefficients: NSaved= 12 BigCof=   66.95 CofMax=   10.00 Det=-4.10D-12
 Inversion failed.  Reducing to 11 matrices.
 Large coefficients: NSaved= 11 BigCof=   65.68 CofMax=   10.00 Det=-4.13D-12
 Inversion failed.  Reducing to 10 matrices.
 Large coefficients: NSaved= 10 BigCof=  133.92 CofMax=   10.00 Det=-9.52D-12
 Inversion failed.  Reducing to  9 matrices.
 Large coefficients: NSaved=  9 BigCof=  138.69 CofMax=   10.00 Det=-1.01D-11
 Inversion failed.  Reducing to  8 matrices.
 Large coefficients: NSaved=  8 BigCof=  135.02 CofMax=   10.00 Det=-1.41D-11
 Inversion failed.  Reducing to  7 matrices.
 Large coefficients: NSaved=  7 BigCof=  163.25 CofMax=   10.00 Det=-2.99D-11
 Inversion failed.  Reducing to  6 matrices.
 Large coefficients: NSaved=  6 BigCof=  169.28 CofMax=   10.00 Det=-3.23D-11
 Inversion failed.  Reducing to  5 matrices.
 Large coefficients: NSaved=  5 BigCof=  178.45 CofMax=   10.00 Det=-3.53D-11
 Inversion failed.  Reducing to  4 matrices.
 Large coefficients: NSaved=  4 BigCof=  177.33 CofMax=   10.00 Det=-3.81D-11
 Inversion failed.  Reducing to  3 matrices.
 Large coefficients: NSaved=  3 BigCof=  176.53 CofMax=   10.00 Det=-3.88D-11
 Inversion failed.  Reducing to  2 matrices.
 Large coefficients: NSaved=  2 BigCof=  136.62 CofMax=   10.00 Det=-2.90D-10
 Coeff-Com: -0.136D+03 0.137D+03
 Coeff:     -0.136D+03 0.137D+03
 Gap=     0.034 Goal=   None    Shift=    0.000
 Gap=     0.030 Goal=   None    Shift=    0.000
 RMSDP=1.06D-03 MaxDP=1.54D-01 DE= 1.34D-09 OVMax= 3.71D-02

 Cycle  29  Pass 1  IDiag  1:
 E= -1136.08870977612     Delta-E=        0.000006943084 Rises=F Damp=F
 DIIS: error= 3.66D-05 at cycle  29 NSaved=   3.
 NSaved= 3 IEnMin= 1 EnMin= -1136.08871672054     IErMin= 3 ErrMin= 3.66D-05
 ErrMax= 3.66D-05  0.00D+00 EMaxC= 1.00D-01 BMatC= 2.55D-07 BMatP= 5.57D-06
 IDIUse=1 WtCom= 1.00D+00 WtEn= 0.00D+00
 Large coefficients: NSaved=  3 BigCof=   69.09 CofMax=   10.00 Det=-1.29D-11
 Inversion failed.  Reducing to  2 matrices.
 Coeff-Com:  0.524D-01 0.948D+00
 Coeff:      0.524D-01 0.948D+00
 Gap=     0.034 Goal=   None    Shift=    0.000
 Gap=     0.030 Goal=   None    Shift=    0.000
 RMSDP=1.56D-04 MaxDP=1.09D-02 DE= 6.94D-06 OVMax= 6.76D-03

 Cycle  30  Pass 1  IDiag  1:
 E= -1136.08871322389     Delta-E=       -0.000003447776 Rises=F Damp=F
 DIIS: error= 5.05D-05 at cycle  30 NSaved=   3.
 NSaved= 3 IEnMin= 1 EnMin= -1136.08871671920     IErMin= 2 ErrMin= 3.66D-05
 ErrMax= 5.05D-05  0.00D+00 EMaxC= 1.00D-01 BMatC= 5.40D-07 BMatP= 2.55D-07
 IDIUse=1 WtCom= 1.00D+00 WtEn= 0.00D+00
 Coeff-Com:  0.324D-01 0.669D+00 0.298D+00
 Coeff:      0.324D-01 0.669D+00 0.298D+00
 Gap=     0.034 Goal=   None    Shift=    0.000
 Gap=     0.030 Goal=   None    Shift=    0.000
 RMSDP=3.97D-05 MaxDP=3.02D-03 DE=-3.45D-06 OVMax= 1.43D-03

 Cycle  31  Pass 1  IDiag  1:
 E= -1136.08871439289     Delta-E=       -0.000001168997 Rises=F Damp=F
 DIIS: error= 3.15D-05 at cycle  31 NSaved=   4.
 NSaved= 4 IEnMin= 1 EnMin= -1136.08871671920     IErMin= 4 ErrMin= 3.15D-05
 ErrMax= 3.15D-05  0.00D+00 EMaxC= 1.00D-01 BMatC= 1.78D-07 BMatP= 2.55D-07
 IDIUse=1 WtCom= 1.00D+00 WtEn= 0.00D+00
 Coeff-Com:  0.378D-01 0.252D+00 0.799D-01 0.630D+00
 Coeff:      0.378D-01 0.252D+00 0.799D-01 0.630D+00
 Gap=     0.034 Goal=   None    Shift=    0.000
 Gap=     0.030 Goal=   None    Shift=    0.000
 RMSDP=7.72D-05 MaxDP=6.06D-03 DE=-1.17D-06 OVMax= 3.35D-03

 Cycle  32  Pass 1  IDiag  1:
 E= -1136.08871644049     Delta-E=       -0.000002047597 Rises=F Damp=F
 DIIS: error= 3.21D-05 at cycle  32 NSaved=   5.
 NSaved= 5 IEnMin= 1 EnMin= -1136.08871671920     IErMin= 4 ErrMin= 3.15D-05
 ErrMax= 3.21D-05  0.00D+00 EMaxC= 1.00D-01 BMatC= 1.75D-07 BMatP= 1.78D-07
 IDIUse=1 WtCom= 1.00D+00 WtEn= 0.00D+00
 Coeff-Com:  0.509D-01-0.387D+00-0.359D+00-0.144D+00 0.184D+01
 Coeff:      0.509D-01-0.387D+00-0.359D+00-0.144D+00 0.184D+01
 Gap=     0.034 Goal=   None    Shift=    0.000
 Gap=     0.030 Goal=   None    Shift=    0.000
 RMSDP=2.76D-04 MaxDP=2.22D-02 DE=-2.05D-06 OVMax= 1.14D-02

 Cycle  33  Pass 1  IDiag  1:
 E= -1136.08872339718     Delta-E=       -0.000006956700 Rises=F Damp=F
 DIIS: error= 3.10D-05 at cycle  33 NSaved=   6.
 NSaved= 6 IEnMin= 6 EnMin= -1136.08872339718     IErMin= 6 ErrMin= 3.10D-05
 ErrMax= 3.10D-05  0.00D+00 EMaxC= 1.00D-01 BMatC= 1.70D-07 BMatP= 1.75D-07
 IDIUse=1 WtCom= 1.00D+00 WtEn= 0.00D+00
 Coeff-Com:  0.474D-01-0.363D+00-0.339D+00-0.340D+00 0.153D+01 0.462D+00
 Coeff:      0.474D-01-0.363D+00-0.339D+00-0.340D+00 0.153D+01 0.462D+00
 Gap=     0.034 Goal=   None    Shift=    0.000
 Gap=     0.030 Goal=   None    Shift=    0.000
 RMSDP=1.29D-04 MaxDP=9.67D-03 DE=-6.96D-06 OVMax= 5.48D-03

 Cycle  34  Pass 1  IDiag  1:
 E= -1136.08872675672     Delta-E=       -0.000003359533 Rises=F Damp=F
 DIIS: error= 3.12D-05 at cycle  34 NSaved=   7.
 NSaved= 7 IEnMin= 7 EnMin= -1136.08872675672     IErMin= 6 ErrMin= 3.10D-05
 ErrMax= 3.12D-05  0.00D+00 EMaxC= 1.00D-01 BMatC= 1.67D-07 BMatP= 1.70D-07
 IDIUse=1 WtCom= 1.00D+00 WtEn= 0.00D+00
 Coeff-Com:  0.627D-01-0.627D+00-0.530D+00-0.488D+00 0.256D+01 0.138D+01
 Coeff-Com: -0.136D+01
 Coeff:      0.627D-01-0.627D+00-0.530D+00-0.488D+00 0.256D+01 0.138D+01
 Coeff:     -0.136D+01
 Gap=     0.034 Goal=   None    Shift=    0.000
 Gap=     0.030 Goal=   None    Shift=    0.000
 RMSDP=1.91D-04 MaxDP=1.35D-02 DE=-3.36D-06 OVMax= 7.96D-03

 Cycle  35  Pass 1  IDiag  1:
 E= -1136.08872183299     Delta-E=        0.000004923729 Rises=F Damp=F
 DIIS: error= 3.13D-05 at cycle  35 NSaved=   8.
 NSaved= 8 IEnMin= 7 EnMin= -1136.08872675672     IErMin= 6 ErrMin= 3.10D-05
 ErrMax= 3.13D-05  0.00D+00 EMaxC= 1.00D-01 BMatC= 1.66D-07 BMatP= 1.67D-07
 IDIUse=1 WtCom= 1.00D+00 WtEn= 0.00D+00
 Large coefficients: NSaved=  8 BigCof=   10.25 CofMax=   10.00 Det=-5.65D-11
 Inversion failed.  Reducing to  7 matrices.
 Coeff-Com:  0.362D-01-0.121D+00-0.277D+00 0.718D+00 0.103D+01-0.140D+01
 Coeff-Com:  0.102D+01
 Coeff:      0.362D-01-0.121D+00-0.277D+00 0.718D+00 0.103D+01-0.140D+01
 Coeff:      0.102D+01
 Gap=     0.034 Goal=   None    Shift=    0.000
 Gap=     0.030 Goal=   None    Shift=    0.000
 RMSDP=1.27D-04 MaxDP=1.03D-02 DE= 4.92D-06 OVMax= 5.34D-03

 Cycle  36  Pass 1  IDiag  1:
 E= -1136.08871857606     Delta-E=        0.000003256928 Rises=F Damp=F
 DIIS: error= 3.17D-05 at cycle  36 NSaved=   8.
 NSaved= 8 IEnMin= 6 EnMin= -1136.08872675672     IErMin= 5 ErrMin= 3.10D-05
 ErrMax= 3.17D-05  0.00D+00 EMaxC= 1.00D-01 BMatC= 1.68D-07 BMatP= 1.66D-07
 IDIUse=1 WtCom= 1.00D+00 WtEn= 0.00D+00
 Large coefficients: NSaved=  8 BigCof=   17.85 CofMax=   10.00 Det=-2.66D-11
 Inversion failed.  Reducing to  7 matrices.
 Coeff-Com:  0.258D-01-0.155D+00-0.163D+00 0.706D+00-0.901D+00 0.712D+00
 Coeff-Com:  0.776D+00
 Coeff:      0.258D-01-0.155D+00-0.163D+00 0.706D+00-0.901D+00 0.712D+00
 Coeff:      0.776D+00
 Gap=     0.034 Goal=   None    Shift=    0.000
 Gap=     0.030 Goal=   None    Shift=    0.000
 RMSDP=8.55D-05 MaxDP=6.09D-03 DE= 3.26D-06 OVMax= 3.56D-03

 Cycle  37  Pass 1  IDiag  1:
 E= -1136.08872078452     Delta-E=       -0.000002208457 Rises=F Damp=F
 DIIS: error= 2.92D-05 at cycle  37 NSaved=   8.
 NSaved= 8 IEnMin= 5 EnMin= -1136.08872675672     IErMin= 8 ErrMin= 2.92D-05
 ErrMax= 2.92D-05  0.00D+00 EMaxC= 1.00D-01 BMatC= 1.74D-07 BMatP= 1.66D-07
 IDIUse=1 WtCom= 1.00D+00 WtEn= 0.00D+00
 Large coefficients: NSaved=  8 BigCof=   21.72 CofMax=   10.00 Det=-2.30D-11
 Inversion failed.  Reducing to  7 matrices.
 Coeff-Com:  0.352D-01-0.100D+00 0.119D+01-0.284D+01 0.115D+01 0.988D+00
 Coeff-Com:  0.571D+00
 Coeff:      0.352D-01-0.100D+00 0.119D+01-0.284D+01 0.115D+01 0.988D+00
 Coeff:      0.571D+00
 Gap=     0.034 Goal=   None    Shift=    0.000
 Gap=     0.030 Goal=   None    Shift=    0.000
 RMSDP=4.37D-04 MaxDP=3.11D-02 DE=-2.21D-06 OVMax= 1.84D-02

 Cycle  38  Pass 1  IDiag  1:
 E= -1136.08870925756     Delta-E=        0.000011526963 Rises=F Damp=F
 DIIS: error= 3.39D-05 at cycle  38 NSaved=   8.
 NSaved= 8 IEnMin= 4 EnMin= -1136.08872675672     IErMin= 7 ErrMin= 2.92D-05
 ErrMax= 3.39D-05  0.00D+00 EMaxC= 1.00D-01 BMatC= 1.78D-07 BMatP= 1.66D-07
 IDIUse=1 WtCom= 1.00D+00 WtEn= 0.00D+00
 Large coefficients: NSaved=  8 BigCof=   14.10 CofMax=   10.00 Det=-7.44D-11
 Inversion failed.  Reducing to  7 matrices.
 Coeff-Com:  0.782D-01 0.172D+01-0.325D+01 0.163D+01 0.360D+01 0.488D-02
 Coeff-Com: -0.279D+01
 Coeff:      0.782D-01 0.172D+01-0.325D+01 0.163D+01 0.360D+01 0.488D-02
 Coeff:     -0.279D+01
 Gap=     0.034 Goal=   None    Shift=    0.000
 Gap=     0.030 Goal=   None    Shift=    0.000
 RMSDP=9.76D-04 MaxDP=7.53D-02 DE= 1.15D-05 OVMax= 4.07D-02

 Cycle  39  Pass 1  IDiag  1:
 E= -1136.08873455349     Delta-E=       -0.000025295935 Rises=F Damp=F
 DIIS: error= 3.65D-05 at cycle  39 NSaved=   8.
 NSaved= 8 IEnMin= 8 EnMin= -1136.08873455349     IErMin= 6 ErrMin= 2.92D-05
 ErrMax= 3.65D-05  0.00D+00 EMaxC= 1.00D-01 BMatC= 2.00D-07 BMatP= 1.66D-07
 IDIUse=1 WtCom= 1.00D+00 WtEn= 0.00D+00
 Large coefficients: NSaved=  8 BigCof=   27.66 CofMax=   10.00 Det=-6.99D-11
 Inversion failed.  Reducing to  7 matrices.
 Large coefficients: NSaved=  7 BigCof=   28.38 CofMax=   10.00 Det=-7.03D-11
 Inversion failed.  Reducing to  6 matrices.
 Coeff-Com:  0.219D+01-0.192D+01 0.299D+01 0.134D+00-0.369D+01 0.131D+01
 Coeff:      0.219D+01-0.192D+01 0.299D+01 0.134D+00-0.369D+01 0.131D+01
 Gap=     0.033 Goal=   None    Shift=    0.000
 Gap=     0.030 Goal=   None    Shift=    0.000
 RMSDP=1.88D-03 MaxDP=1.38D-01 DE=-2.53D-05 OVMax= 7.50D-02

 Cycle  40  Pass 1  IDiag  1:
 E= -1136.08878923571     Delta-E=       -0.000054682215 Rises=F Damp=F
 DIIS: error= 6.62D-05 at cycle  40 NSaved=   7.
 NSaved= 7 IEnMin= 7 EnMin= -1136.08878923571     IErMin= 4 ErrMin= 2.92D-05
 ErrMax= 6.62D-05  0.00D+00 EMaxC= 1.00D-01 BMatC= 1.32D-06 BMatP= 1.66D-07
 IDIUse=1 WtCom= 1.00D+00 WtEn= 0.00D+00
 Coeff-Com:  0.219D+01-0.233D+01 0.333D+01 0.131D+00-0.376D+01 0.149D+01
 Coeff-Com: -0.494D-01
 Coeff:      0.219D+01-0.233D+01 0.333D+01 0.131D+00-0.376D+01 0.149D+01
 Coeff:     -0.494D-01
 Gap=     0.034 Goal=   None    Shift=    0.000
 Gap=     0.030 Goal=   None    Shift=    0.000
 RMSDP=7.60D-05 MaxDP=4.52D-03 DE=-5.47D-05 OVMax= 3.09D-03

 Cycle  41  Pass 1  IDiag  1:
 E= -1136.08878639860     Delta-E=        0.000002837108 Rises=F Damp=F
 DIIS: error= 6.49D-05 at cycle  41 NSaved=   8.
 NSaved= 8 IEnMin= 7 EnMin= -1136.08878923571     IErMin= 4 ErrMin= 2.92D-05
 ErrMax= 6.49D-05  0.00D+00 EMaxC= 1.00D-01 BMatC= 1.33D-06 BMatP= 1.66D-07
 IDIUse=1 WtCom= 1.00D+00 WtEn= 0.00D+00
 Coeff-Com: -0.667D+00 0.151D+00 0.324D+01-0.226D+00-0.406D+01 0.288D+01
 Coeff-Com: -0.769D+01 0.737D+01
 Coeff:     -0.667D+00 0.151D+00 0.324D+01-0.226D+00-0.406D+01 0.288D+01
 Coeff:     -0.769D+01 0.737D+01
 Gap=     0.034 Goal=   None    Shift=    0.000
 Gap=     0.030 Goal=   None    Shift=    0.000
 RMSDP=1.89D-04 MaxDP=2.80D-02 DE= 2.84D-06 OVMax= 4.23D-03

 Cycle  42  Pass 1  IDiag  1:
 E= -1136.08878165430     Delta-E=        0.000004744302 Rises=F Damp=F
 DIIS: error= 7.24D-05 at cycle  42 NSaved=   9.
 NSaved= 9 IEnMin= 7 EnMin= -1136.08878923571     IErMin= 4 ErrMin= 2.92D-05
 ErrMax= 7.24D-05  0.00D+00 EMaxC= 1.00D-01 BMatC= 2.73D-06 BMatP= 1.66D-07
 IDIUse=1 WtCom= 1.00D+00 WtEn= 0.00D+00
 Coeff-Com: -0.557D+01 0.922D+01-0.249D+01-0.661D+00-0.948D-01 0.152D+01
 Coeff-Com: -0.959D+01 0.745D+01 0.122D+01
 Coeff:     -0.557D+01 0.922D+01-0.249D+01-0.661D+00-0.948D-01 0.152D+01
 Coeff:     -0.959D+01 0.745D+01 0.122D+01
 Gap=     0.034 Goal=   None    Shift=    0.000
 Gap=     0.030 Goal=   None    Shift=    0.000
 RMSDP=2.73D-03 MaxDP=1.79D-01 DE= 4.74D-06 OVMax= 1.09D-01

 Cycle  43  Pass 1  IDiag  1:
 E= -1136.08870612006     Delta-E=        0.000075534239 Rises=F Damp=F
 DIIS: error= 5.52D-05 at cycle  43 NSaved=  10.
 NSaved=10 IEnMin= 7 EnMin= -1136.08878923571     IErMin= 4 ErrMin= 2.92D-05
 ErrMax= 5.52D-05  0.00D+00 EMaxC= 1.00D-01 BMatC= 1.87D-06 BMatP= 1.66D-07
 IDIUse=1 WtCom= 1.00D+00 WtEn= 0.00D+00
 Large coefficients: NSaved= 10 BigCof=   10.05 CofMax=   10.00 Det=-1.11D-10
 Inversion failed.  Reducing to  9 matrices.
 Large coefficients: NSaved=  9 BigCof=   10.06 CofMax=   10.00 Det=-1.16D-10
 Inversion failed.  Reducing to  8 matrices.
 Coeff-Com: -0.441D+01 0.612D+01-0.147D+01 0.163D+01-0.918D+01 0.720D+01
 Coeff-Com:  0.113D+01-0.228D-01
 Coeff:     -0.441D+01 0.612D+01-0.147D+01 0.163D+01-0.918D+01 0.720D+01
 Coeff:      0.113D+01-0.228D-01
 Gap=     0.035 Goal=   None    Shift=    0.000
 Gap=     0.030 Goal=   None    Shift=    0.000
 RMSDP=3.13D-04 MaxDP=2.67D-02 DE= 7.55D-05 OVMax= 1.31D-02

 Cycle  44  Pass 1  IDiag  1:
 E= -1136.08869753231     Delta-E=        0.000008587751 Rises=F Damp=F
 DIIS: error= 5.81D-05 at cycle  44 NSaved=   9.
 NSaved= 9 IEnMin= 5 EnMin= -1136.08878923571     IErMin= 1 ErrMin= 3.10D-05
 ErrMax= 5.81D-05  0.00D+00 EMaxC= 1.00D-01 BMatC= 1.92D-06 BMatP= 1.66D-07
 IDIUse=1 WtCom= 1.00D+00 WtEn= 0.00D+00
 Coeff-Com: -0.496D+01 0.715D+01-0.189D+01 0.162D+01-0.961D+01 0.752D+01
 Coeff-Com:  0.122D+01-0.286D+00 0.244D+00
 Coeff:     -0.496D+01 0.715D+01-0.189D+01 0.162D+01-0.961D+01 0.752D+01
 Coeff:      0.122D+01-0.286D+00 0.244D+00
 Gap=     0.035 Goal=   None    Shift=    0.000
 Gap=     0.030 Goal=   None    Shift=    0.000
 RMSDP=7.42D-06 MaxDP=1.05D-03 DE= 8.59D-06 OVMax= 1.42D-04

 Cycle  45  Pass 1  IDiag  1:
 E= -1136.08869744274     Delta-E=        0.000000089571 Rises=F Damp=F
 DIIS: error= 5.77D-05 at cycle  45 NSaved=  10.
 NSaved=10 IEnMin= 5 EnMin= -1136.08878923571     IErMin= 1 ErrMin= 3.10D-05
 ErrMax= 5.77D-05  0.00D+00 EMaxC= 1.00D-01 BMatC= 1.97D-06 BMatP= 1.66D-07
 IDIUse=1 WtCom= 1.00D+00 WtEn= 0.00D+00
 Large coefficients: NSaved= 10 BigCof=   32.70 CofMax=   10.00 Det=-5.55D-11
 Inversion failed.  Reducing to  9 matrices.
 Large coefficients: NSaved=  9 BigCof=   10.46 CofMax=   10.00 Det=-1.29D-10
 Inversion failed.  Reducing to  8 matrices.
 Large coefficients: NSaved=  8 BigCof=   10.78 CofMax=   10.00 Det=-4.20D-10
 Inversion failed.  Reducing to  7 matrices.
 Coeff-Com:  0.351D+00 0.140D+01-0.767D+01 0.588D+01 0.113D+01 0.966D+00
 Coeff-Com: -0.106D+01
 Coeff:      0.351D+00 0.140D+01-0.767D+01 0.588D+01 0.113D+01 0.966D+00
 Coeff:     -0.106D+01
 Gap=     0.035 Goal=   None    Shift=    0.000
 Gap=     0.030 Goal=   None    Shift=    0.000
 RMSDP=3.73D-04 MaxDP=3.85D-02 DE= 8.96D-08 OVMax= 1.53D-02

 Cycle  46  Pass 1  IDiag  1:
 E= -1136.08868758567     Delta-E=        0.000009857067 Rises=F Damp=F
 DIIS: error= 5.98D-05 at cycle  46 NSaved=   8.
 NSaved= 8 IEnMin= 3 EnMin= -1136.08878923571     IErMin= 1 ErrMin= 3.12D-05
 ErrMax= 5.98D-05  0.00D+00 EMaxC= 1.00D-01 BMatC= 1.77D-06 BMatP= 1.67D-07
 IDIUse=1 WtCom= 1.00D+00 WtEn= 0.00D+00
 Coeff-Com:  0.235D+00 0.161D+01-0.953D+01 0.745D+01 0.139D+01 0.212D+01
 Coeff-Com: -0.278D+01 0.512D+00
 Coeff:      0.235D+00 0.161D+01-0.953D+01 0.745D+01 0.139D+01 0.212D+01
 Coeff:     -0.278D+01 0.512D+00
 Gap=     0.035 Goal=   None    Shift=    0.000
 Gap=     0.030 Goal=   None    Shift=    0.000
 RMSDP=2.54D-04 MaxDP=1.69D-02 DE= 9.86D-06 OVMax= 1.11D-02

 Cycle  47  Pass 1  IDiag  1:
 E= -1136.08867828775     Delta-E=        0.000009297918 Rises=F Damp=F
 DIIS: error= 6.64D-05 at cycle  47 NSaved=   9.
 NSaved= 9 IEnMin= 3 EnMin= -1136.08878923571     IErMin= 1 ErrMin= 3.12D-05
 ErrMax= 6.64D-05  0.00D+00 EMaxC= 1.00D-01 BMatC= 2.28D-06 BMatP= 1.67D-07
 IDIUse=1 WtCom= 1.00D+00 WtEn= 0.00D+00
 Coeff-Com: -0.106D+00 0.133D+01-0.620D+01 0.507D+01 0.667D+00-0.286D+00
 Coeff-Com:  0.175D+01 0.168D+01-0.290D+01
 Coeff:     -0.106D+00 0.133D+01-0.620D+01 0.507D+01 0.667D+00-0.286D+00
 Coeff:      0.175D+01 0.168D+01-0.290D+01
 Gap=     0.034 Goal=   None    Shift=    0.000
 Gap=     0.030 Goal=   None    Shift=    0.000
 RMSDP=1.61D-03 MaxDP=1.29D-01 DE= 9.30D-06 OVMax= 6.76D-02

 Cycle  48  Pass 1  IDiag  1:
 E= -1136.08872410947     Delta-E=       -0.000045821718 Rises=F Damp=F
 DIIS: error= 5.19D-05 at cycle  48 NSaved=  10.
 NSaved=10 IEnMin= 3 EnMin= -1136.08878923571     IErMin= 1 ErrMin= 3.12D-05
 ErrMax= 5.19D-05  0.00D+00 EMaxC= 1.00D-01 BMatC= 1.50D-06 BMatP= 1.67D-07
 IDIUse=1 WtCom= 1.00D+00 WtEn= 0.00D+00
 Coeff-Com: -0.519D-01 0.109D+01-0.514D+01 0.421D+01 0.380D+00 0.465D+00
 Coeff-Com:  0.638D+00 0.161D+01-0.272D+01 0.525D+00
 Coeff:     -0.519D-01 0.109D+01-0.514D+01 0.421D+01 0.380D+00 0.465D+00
 Coeff:      0.638D+00 0.161D+01-0.272D+01 0.525D+00
 Gap=     0.034 Goal=   None    Shift=    0.000
 Gap=     0.030 Goal=   None    Shift=    0.000
 RMSDP=2.38D-05 MaxDP=2.55D-03 DE=-4.58D-05 OVMax= 1.11D-03

 Cycle  49  Pass 1  IDiag  1:
 E= -1136.08872398315     Delta-E=        0.000000126321 Rises=F Damp=F
 DIIS: error= 5.11D-05 at cycle  49 NSaved=  11.
 NSaved=11 IEnMin= 3 EnMin= -1136.08878923571     IErMin= 1 ErrMin= 3.12D-05
 ErrMax= 5.11D-05  0.00D+00 EMaxC= 1.00D-01 BMatC= 1.50D-06 BMatP= 1.67D-07
 IDIUse=1 WtCom= 1.00D+00 WtEn= 0.00D+00
 Coeff-Com: -0.213D-01 0.105D+01-0.566D+01 0.436D+01 0.406D+00 0.408D+01
 Coeff-Com: -0.471D+01 0.137D+01-0.151D+01-0.303D+01 0.466D+01
 Coeff:     -0.213D-01 0.105D+01-0.566D+01 0.436D+01 0.406D+00 0.408D+01
 Coeff:     -0.471D+01 0.137D+01-0.151D+01-0.303D+01 0.466D+01
 Gap=     0.035 Goal=   None    Shift=    0.000
 Gap=     0.030 Goal=   None    Shift=    0.000
 RMSDP=6.39D-04 MaxDP=3.60D-02 DE= 1.26D-07 OVMax= 2.56D-02

 Cycle  50  Pass 1  IDiag  1:
 E= -1136.08870578495     Delta-E=        0.000018198203 Rises=F Damp=F
 DIIS: error= 6.18D-05 at cycle  50 NSaved=  12.
 NSaved=12 IEnMin= 3 EnMin= -1136.08878923571     IErMin= 1 ErrMin= 3.12D-05
 ErrMax= 6.18D-05  0.00D+00 EMaxC= 1.00D-01 BMatC= 1.99D-06 BMatP= 1.67D-07
 IDIUse=1 WtCom= 1.00D+00 WtEn= 0.00D+00
 Coeff-Com: -0.155D+00 0.152D+01-0.795D+01 0.631D+01 0.731D+00 0.445D+01
 Coeff-Com: -0.511D+01 0.154D+01-0.167D+01-0.513D+01 0.547D+01 0.986D+00
 Coeff:     -0.155D+00 0.152D+01-0.795D+01 0.631D+01 0.731D+00 0.445D+01
 Coeff:     -0.511D+01 0.154D+01-0.167D+01-0.513D+01 0.547D+01 0.986D+00
 Gap=     0.035 Goal=   None    Shift=    0.000
 Gap=     0.030 Goal=   None    Shift=    0.000
 RMSDP=6.19D-04 MaxDP=3.52D-02 DE= 1.82D-05 OVMax= 2.48D-02

 Cycle  51  Pass 1  IDiag  1:
 E= -1136.08868527945     Delta-E=        0.000020505492 Rises=F Damp=F
 DIIS: error= 7.43D-05 at cycle  51 NSaved=  13.
 NSaved=13 IEnMin= 3 EnMin= -1136.08878923571     IErMin= 1 ErrMin= 3.12D-05
 ErrMax= 7.43D-05  0.00D+00 EMaxC= 1.00D-01 BMatC= 2.90D-06 BMatP= 1.67D-07
 IDIUse=1 WtCom= 1.00D+00 WtEn= 0.00D+00
 Coeff-Com: -0.898D-01 0.124D+01-0.661D+01 0.518D+01 0.558D+00 0.476D+01
 Coeff-Com: -0.581D+01 0.115D+01-0.967D+00-0.539D+01 0.594D+01 0.177D+01
 Coeff-Com: -0.729D+00
 Coeff:     -0.898D-01 0.124D+01-0.661D+01 0.518D+01 0.558D+00 0.476D+01
 Coeff:     -0.581D+01 0.115D+01-0.967D+00-0.539D+01 0.594D+01 0.177D+01
 Coeff:     -0.729D+00
 Gap=     0.035 Goal=   None    Shift=    0.000
 Gap=     0.030 Goal=   None    Shift=    0.000
 RMSDP=2.79D-04 MaxDP=1.57D-02 DE= 2.05D-05 OVMax= 1.11D-02

 Cycle  52  Pass 1  IDiag  1:
 E= -1136.08869526229     Delta-E=       -0.000009982836 Rises=F Damp=F
 DIIS: error= 6.55D-05 at cycle  52 NSaved=  14.
 NSaved=14 IEnMin= 3 EnMin= -1136.08878923571     IErMin= 1 ErrMin= 3.12D-05
 ErrMax= 6.55D-05  0.00D+00 EMaxC= 1.00D-01 BMatC= 2.30D-06 BMatP= 1.67D-07
 IDIUse=1 WtCom= 1.00D+00 WtEn= 0.00D+00
 Coeff-Com:  0.708D-01 0.837D+00-0.479D+01 0.355D+01 0.506D+00 0.388D+01
 Coeff-Com: -0.500D+01 0.630D+00-0.247D+00-0.506D+01 0.510D+01 0.202D+01
 Coeff-Com: -0.315D+01 0.266D+01
 Coeff:      0.708D-01 0.837D+00-0.479D+01 0.355D+01 0.506D+00 0.388D+01
 Coeff:     -0.500D+01 0.630D+00-0.247D+00-0.506D+01 0.510D+01 0.202D+01
 Coeff:     -0.315D+01 0.266D+01
 Gap=     0.035 Goal=   None    Shift=    0.000
 Gap=     0.030 Goal=   None    Shift=    0.000
 RMSDP=2.09D-04 MaxDP=1.39D-02 DE=-9.98D-06 OVMax= 8.28D-03

 Cycle  53  Pass 1  IDiag  1:
 E= -1136.08870213466     Delta-E=       -0.000006872376 Rises=F Damp=F
 DIIS: error= 5.78D-05 at cycle  53 NSaved=  15.
 NSaved=15 IEnMin= 3 EnMin= -1136.08878923571     IErMin= 1 ErrMin= 3.12D-05
 ErrMax= 5.78D-05  0.00D+00 EMaxC= 1.00D-01 BMatC= 1.77D-06 BMatP= 1.67D-07
 IDIUse=1 WtCom= 1.00D+00 WtEn= 0.00D+00
 Coeff-Com:  0.230D+00 0.739D+00-0.457D+01 0.333D+01 0.395D+00 0.453D+01
 Coeff-Com: -0.585D+01 0.296D+00 0.234D+00-0.477D+01 0.482D+01 0.312D+01
 Coeff-Com: -0.383D+01 0.388D+01-0.156D+01
 Coeff:      0.230D+00 0.739D+00-0.457D+01 0.333D+01 0.395D+00 0.453D+01
 Coeff:     -0.585D+01 0.296D+00 0.234D+00-0.477D+01 0.482D+01 0.312D+01
 Coeff:     -0.383D+01 0.388D+01-0.156D+01
 Gap=     0.035 Goal=   None    Shift=    0.000
 Gap=     0.030 Goal=   None    Shift=    0.000
 RMSDP=1.65D-04 MaxDP=8.92D-03 DE=-6.87D-06 OVMax= 6.57D-03

 Cycle  54  Pass 1  IDiag  1:
 E= -1136.08869666156     Delta-E=        0.000005473099 Rises=F Damp=F
 DIIS: error= 6.28D-05 at cycle  54 NSaved=  16.
 NSaved=16 IEnMin= 3 EnMin= -1136.08878923571     IErMin= 1 ErrMin= 3.12D-05
 ErrMax= 6.28D-05  0.00D+00 EMaxC= 1.00D-01 BMatC= 2.10D-06 BMatP= 1.67D-07
 IDIUse=1 WtCom= 1.00D+00 WtEn= 0.00D+00
 Coeff-Com:  0.366D+00 0.631D+00-0.418D+01 0.296D+01 0.307D+00 0.443D+01
 Coeff-Com: -0.561D+01 0.304D+00 0.111D+00-0.409D+01 0.441D+01 0.305D+01
 Coeff-Com: -0.413D+01 0.432D+01-0.321D+01 0.132D+01
 Coeff:      0.366D+00 0.631D+00-0.418D+01 0.296D+01 0.307D+00 0.443D+01
 Coeff:     -0.561D+01 0.304D+00 0.111D+00-0.409D+01 0.441D+01 0.305D+01
 Coeff:     -0.413D+01 0.432D+01-0.321D+01 0.132D+01
 Gap=     0.035 Goal=   None    Shift=    0.000
 Gap=     0.030 Goal=   None    Shift=    0.000
 RMSDP=7.01D-05 MaxDP=4.32D-03 DE= 5.47D-06 OVMax= 2.79D-03

 Cycle  55  Pass 1  IDiag  1:
 E= -1136.08869420048     Delta-E=        0.000002461082 Rises=F Damp=F
 DIIS: error= 6.58D-05 at cycle  55 NSaved=  17.
 NSaved=17 IEnMin= 3 EnMin= -1136.08878923571     IErMin= 1 ErrMin= 3.12D-05
 ErrMax= 6.58D-05  0.00D+00 EMaxC= 1.00D-01 BMatC= 2.30D-06 BMatP= 1.67D-07
 IDIUse=1 WtCom= 1.00D+00 WtEn= 0.00D+00
 Coeff-Com:  0.314D+00 0.679D+00-0.433D+01 0.307D+01 0.334D+00 0.478D+01
 Coeff-Com: -0.614D+01 0.383D+00 0.111D+00-0.442D+01 0.492D+01 0.278D+01
 Coeff-Com: -0.415D+01 0.406D+01-0.290D+01 0.496D+00 0.102D+01
 Coeff:      0.314D+00 0.679D+00-0.433D+01 0.307D+01 0.334D+00 0.478D+01
 Coeff:     -0.614D+01 0.383D+00 0.111D+00-0.442D+01 0.492D+01 0.278D+01
 Coeff:     -0.415D+01 0.406D+01-0.290D+01 0.496D+00 0.102D+01
 Gap=     0.035 Goal=   None    Shift=    0.000
 Gap=     0.030 Goal=   None    Shift=    0.000
 RMSDP=1.65D-05 MaxDP=1.49D-03 DE= 2.46D-06 OVMax= 8.33D-04

 Cycle  56  Pass 1  IDiag  1:
 E= -1136.08869453722     Delta-E=       -0.000000336737 Rises=F Damp=F
 DIIS: error= 6.56D-05 at cycle  56 NSaved=  18.
 NSaved=18 IEnMin= 3 EnMin= -1136.08878923571     IErMin= 1 ErrMin= 3.12D-05
 ErrMax= 6.56D-05  0.00D+00 EMaxC= 1.00D-01 BMatC= 2.29D-06 BMatP= 1.67D-07
 IDIUse=1 WtCom= 1.00D+00 WtEn= 0.00D+00
 Coeff-Com:  0.145D+00 0.840D+00-0.502D+01 0.374D+01 0.340D+00 0.444D+01
 Coeff-Com: -0.570D+01 0.456D+00 0.259D-01-0.449D+01 0.482D+01 0.234D+01
 Coeff-Com: -0.327D+01 0.291D+01-0.649D+00-0.166D+01-0.658D+01 0.831D+01
 Coeff:      0.145D+00 0.840D+00-0.502D+01 0.374D+01 0.340D+00 0.444D+01
 Coeff:     -0.570D+01 0.456D+00 0.259D-01-0.449D+01 0.482D+01 0.234D+01
 Coeff:     -0.327D+01 0.291D+01-0.649D+00-0.166D+01-0.658D+01 0.831D+01
 Gap=     0.035 Goal=   None    Shift=    0.000
 Gap=     0.030 Goal=   None    Shift=    0.000
 RMSDP=1.16D-04 MaxDP=6.82D-03 DE=-3.37D-07 OVMax= 4.58D-03

 Cycle  57  Pass 1  IDiag  1:
 E= -1136.08869047678     Delta-E=        0.000004060442 Rises=F Damp=F
 DIIS: error= 6.91D-05 at cycle  57 NSaved=  19.
 NSaved=19 IEnMin= 3 EnMin= -1136.08878923571     IErMin= 1 ErrMin= 3.12D-05
 ErrMax= 6.91D-05  0.00D+00 EMaxC= 1.00D-01 BMatC= 2.53D-06 BMatP= 1.67D-07
 IDIUse=1 WtCom= 1.00D+00 WtEn= 0.00D+00
 Coeff-Com:  0.125D+00 0.876D+00-0.518D+01 0.387D+01 0.363D+00 0.447D+01
 Coeff-Com: -0.575D+01 0.491D+00-0.743D-02-0.451D+01 0.486D+01 0.225D+01
 Coeff-Com: -0.320D+01 0.281D+01-0.619D+00-0.179D+01-0.631D+01 0.842D+01
 Coeff-Com: -0.164D+00
 Coeff:      0.125D+00 0.876D+00-0.518D+01 0.387D+01 0.363D+00 0.447D+01
 Coeff:     -0.575D+01 0.491D+00-0.743D-02-0.451D+01 0.486D+01 0.225D+01
 Coeff:     -0.320D+01 0.281D+01-0.619D+00-0.179D+01-0.631D+01 0.842D+01
 Coeff:     -0.164D+00
 Gap=     0.035 Goal=   None    Shift=    0.000
 Gap=     0.030 Goal=   None    Shift=    0.000
 RMSDP=9.82D-06 MaxDP=5.47D-04 DE= 4.06D-06 OVMax= 3.90D-04

 Cycle  58  Pass 1  IDiag  1:
 E= -1136.08869012059     Delta-E=        0.000000356191 Rises=F Damp=F
 DIIS: error= 6.95D-05 at cycle  58 NSaved=  20.
 NSaved=20 IEnMin= 3 EnMin= -1136.08878923571     IErMin= 1 ErrMin= 3.12D-05
 ErrMax= 6.95D-05  0.00D+00 EMaxC= 1.00D-01 BMatC= 2.56D-06 BMatP= 1.67D-07
 IDIUse=1 WtCom= 1.00D+00 WtEn= 0.00D+00
 Large coefficients: NSaved= 20 BigCof=   10.02 CofMax=   10.00 Det=-1.83D-12
 Inversion failed.  Reducing to 19 matrices.
 Large coefficients: NSaved= 19 BigCof=   10.02 CofMax=   10.00 Det=-1.84D-12
 Inversion failed.  Reducing to 18 matrices.
 Large coefficients: NSaved= 18 BigCof=   14.81 CofMax=   10.00 Det=-1.89D-12
 Inversion failed.  Reducing to 17 matrices.
 Large coefficients: NSaved= 17 BigCof=   21.87 CofMax=   10.00 Det=-2.16D-12
 Inversion failed.  Reducing to 16 matrices.
 Large coefficients: NSaved= 16 BigCof=   50.94 CofMax=   10.00 Det=-3.38D-12
 Inversion failed.  Reducing to 15 matrices.
 Large coefficients: NSaved= 15 BigCof=   44.34 CofMax=   10.00 Det=-4.83D-12
 Inversion failed.  Reducing to 14 matrices.
 Large coefficients: NSaved= 14 BigCof=   43.06 CofMax=   10.00 Det=-4.87D-12
 Inversion failed.  Reducing to 13 matrices.
 Large coefficients: NSaved= 13 BigCof=   41.34 CofMax=   10.00 Det=-4.91D-12
 Inversion failed.  Reducing to 12 matrices.
 Large coefficients: NSaved= 12 BigCof=   44.77 CofMax=   10.00 Det=-4.93D-12
 Inversion failed.  Reducing to 11 matrices.
 Large coefficients: NSaved= 11 BigCof=   44.99 CofMax=   10.00 Det=-4.94D-12
 Inversion failed.  Reducing to 10 matrices.
 Large coefficients: NSaved= 10 BigCof=   45.56 CofMax=   10.00 Det=-5.22D-12
 Inversion failed.  Reducing to  9 matrices.
 Large coefficients: NSaved=  9 BigCof=   51.86 CofMax=   10.00 Det=-5.44D-12
 Inversion failed.  Reducing to  8 matrices.
 Large coefficients: NSaved=  8 BigCof=   55.64 CofMax=   10.00 Det=-5.62D-12
 Inversion failed.  Reducing to  7 matrices.
 Large coefficients: NSaved=  7 BigCof=   64.05 CofMax=   10.00 Det=-6.07D-12
 Inversion failed.  Reducing to  6 matrices.
 Large coefficients: NSaved=  6 BigCof=   64.07 CofMax=   10.00 Det=-6.07D-12
 Inversion failed.  Reducing to  5 matrices.
 Large coefficients: NSaved=  5 BigCof=  159.01 CofMax=   10.00 Det=-1.26D-11
 Inversion failed.  Reducing to  4 matrices.
 Large coefficients: NSaved=  4 BigCof=  164.54 CofMax=   10.00 Det=-1.91D-11
 Inversion failed.  Reducing to  3 matrices.
 Large coefficients: NSaved=  3 BigCof=  162.89 CofMax=   10.00 Det=-2.03D-11
 Inversion failed.  Reducing to  2 matrices.
 Large coefficients: NSaved=  2 BigCof=  163.18 CofMax=   10.00 Det=-8.98D-11
 Coeff-Com:  0.163D+03-0.162D+03
 Coeff:      0.163D+03-0.162D+03
 Gap=     0.034 Goal=   None    Shift=    0.000
 Gap=     0.030 Goal=   None    Shift=    0.000
 RMSDP=1.68D-03 MaxDP=9.25D-02 DE= 3.56D-07 OVMax= 6.80D-02

 Cycle  59  Pass 1  IDiag  1:
 E= -1136.08874053177     Delta-E=       -0.000050411183 Rises=F Damp=F
 DIIS: error= 4.14D-05 at cycle  59 NSaved=   3.
 NSaved= 3 IEnMin= 3 EnMin= -1136.08874053177     IErMin= 3 ErrMin= 4.14D-05
 ErrMax= 4.14D-05  0.00D+00 EMaxC= 1.00D-01 BMatC= 3.83D-07 BMatP= 2.53D-06
 IDIUse=1 WtCom= 1.00D+00 WtEn= 0.00D+00
 Large coefficients: NSaved=  3 BigCof=  112.18 CofMax=   10.00 Det=-1.86D-11
 Inversion failed.  Reducing to  2 matrices.
 Coeff-Com: -0.165D+00 0.116D+01
 Coeff:     -0.165D+00 0.116D+01
 Gap=     0.034 Goal=   None    Shift=    0.000
 Gap=     0.030 Goal=   None    Shift=    0.000
 RMSDP=4.17D-04 MaxDP=2.86D-02 DE=-5.04D-05 OVMax= 1.58D-02

 Cycle  60  Pass 1  IDiag  1:
 E= -1136.08875168900     Delta-E=       -0.000011157230 Rises=F Damp=F
 DIIS: error= 4.00D-05 at cycle  60 NSaved=   3.
 NSaved= 3 IEnMin= 3 EnMin= -1136.08875168900     IErMin= 3 ErrMin= 4.00D-05
 ErrMax= 4.00D-05  0.00D+00 EMaxC= 1.00D-01 BMatC= 5.59D-07 BMatP= 3.83D-07
 IDIUse=1 WtCom= 1.00D+00 WtEn= 0.00D+00
 Coeff-Com: -0.145D+00 0.746D+00 0.399D+00
 Coeff:     -0.145D+00 0.746D+00 0.399D+00
 Gap=     0.034 Goal=   None    Shift=    0.000
 Gap=     0.030 Goal=   None    Shift=    0.000
 RMSDP=1.55D-04 MaxDP=1.57D-02 DE=-1.12D-05 OVMax= 5.40D-03

 Cycle  61  Pass 1  IDiag  1:
 E= -1136.08875578177     Delta-E=       -0.000004092773 Rises=F Damp=F
 DIIS: error= 4.09D-05 at cycle  61 NSaved=   4.
 NSaved= 4 IEnMin= 4 EnMin= -1136.08875578177     IErMin= 3 ErrMin= 4.00D-05
 ErrMax= 4.09D-05  0.00D+00 EMaxC= 1.00D-01 BMatC= 2.26D-07 BMatP= 3.83D-07
 IDIUse=1 WtCom= 1.00D+00 WtEn= 0.00D+00
 Coeff-Com: -0.152D+00 0.824D+00 0.446D+00-0.118D+00
 Coeff:     -0.152D+00 0.824D+00 0.446D+00-0.118D+00
 Gap=     0.034 Goal=   None    Shift=    0.000
 Gap=     0.030 Goal=   None    Shift=    0.000
 RMSDP=3.10D-05 MaxDP=1.85D-03 DE=-4.09D-06 OVMax= 1.23D-03

 Cycle  62  Pass 1  IDiag  1:
 E= -1136.08875484860     Delta-E=        0.000000933177 Rises=F Damp=F
 DIIS: error= 4.07D-05 at cycle  62 NSaved=   5.
 NSaved= 5 IEnMin= 4 EnMin= -1136.08875578177     IErMin= 3 ErrMin= 4.00D-05
 ErrMax= 4.07D-05  0.00D+00 EMaxC= 1.00D-01 BMatC= 2.28D-07 BMatP= 2.26D-07
 IDIUse=1 WtCom= 1.00D+00 WtEn= 0.00D+00
 Large coefficients: NSaved=  5 BigCof=   20.35 CofMax=   10.00 Det=-1.09D-10
 Inversion failed.  Reducing to  4 matrices.
 Coeff-Com:  0.441D+00 0.356D+00-0.279D+01 0.300D+01
 Coeff:      0.441D+00 0.356D+00-0.279D+01 0.300D+01
 Gap=     0.034 Goal=   None    Shift=    0.000
 Gap=     0.030 Goal=   None    Shift=    0.000
 RMSDP=2.36D-04 MaxDP=1.33D-02 DE= 9.33D-07 OVMax= 8.80D-03

 Cycle  63  Pass 1  IDiag  1:
 E= -1136.08874830425     Delta-E=        0.000006544349 Rises=F Damp=F
 DIIS: error= 3.75D-05 at cycle  63 NSaved=   5.
 NSaved= 5 IEnMin= 3 EnMin= -1136.08875578177     IErMin= 5 ErrMin= 3.75D-05
 ErrMax= 3.75D-05  0.00D+00 EMaxC= 1.00D-01 BMatC= 2.76D-07 BMatP= 2.26D-07
 IDIUse=1 WtCom= 1.00D+00 WtEn= 0.00D+00
 Large coefficients: NSaved=  5 BigCof=   21.64 CofMax=   10.00 Det=-9.19D-11
 Inversion failed.  Reducing to  4 matrices.
 Coeff-Com:  0.177D+00-0.640D+01 0.673D+01 0.492D+00
 Coeff:      0.177D+00-0.640D+01 0.673D+01 0.492D+00
 Gap=     0.034 Goal=   None    Shift=    0.000
 Gap=     0.030 Goal=   None    Shift=    0.000
 RMSDP=3.97D-05 MaxDP=4.39D-03 DE= 6.54D-06 OVMax= 6.78D-04

 Cycle  64  Pass 1  IDiag  1:
 E= -1136.08874876520     Delta-E=       -0.000000460956 Rises=F Damp=F
 DIIS: error= 3.91D-05 at cycle  64 NSaved=   5.
 NSaved= 5 IEnMin= 2 EnMin= -1136.08875578177     IErMin= 4 ErrMin= 3.75D-05
 ErrMax= 3.91D-05  0.00D+00 EMaxC= 1.00D-01 BMatC= 2.15D-07 BMatP= 2.26D-07
 IDIUse=1 WtCom= 1.00D+00 WtEn= 0.00D+00
 Large coefficients: NSaved=  5 BigCof=   25.55 CofMax=   10.00 Det=-6.73D-11
 Inversion failed.  Reducing to  4 matrices.
 Large coefficients: NSaved=  4 BigCof=   11.61 CofMax=   10.00 Det=-1.37D-10
 Inversion failed.  Reducing to  3 matrices.
 Coeff-Com:  0.270D+00 0.233D+00 0.497D+00
 Coeff:      0.270D+00 0.233D+00 0.497D+00
 Gap=     0.034 Goal=   None    Shift=    0.000
 Gap=     0.030 Goal=   None    Shift=    0.000
 RMSDP=1.83D-04 MaxDP=1.11D-02 DE=-4.61D-07 OVMax= 7.19D-03

 Cycle  65  Pass 1  IDiag  1:
 E= -1136.08875405863     Delta-E=       -0.000005293426 Rises=F Damp=F
 DIIS: error= 3.73D-05 at cycle  65 NSaved=   4.
 NSaved= 4 IEnMin= 1 EnMin= -1136.08875578177     IErMin= 4 ErrMin= 3.73D-05
 ErrMax= 3.73D-05  0.00D+00 EMaxC= 1.00D-01 BMatC= 2.16D-07 BMatP= 2.15D-07
 IDIUse=1 WtCom= 1.00D+00 WtEn= 0.00D+00
 Coeff-Com:  0.344D+00 0.266D+00 0.504D+00-0.115D+00
 Coeff:      0.344D+00 0.266D+00 0.504D+00-0.115D+00
 Gap=     0.034 Goal=   None    Shift=    0.000
 Gap=     0.030 Goal=   None    Shift=    0.000
 RMSDP=4.41D-06 MaxDP=5.22D-04 DE=-5.29D-06 OVMax= 1.52D-04

 Cycle  66  Pass 1  IDiag  1:
 E= -1136.08875395064     Delta-E=        0.000000107986 Rises=F Damp=F
 DIIS: error= 3.71D-05 at cycle  66 NSaved=   5.
 NSaved= 5 IEnMin= 1 EnMin= -1136.08875578177     IErMin= 5 ErrMin= 3.71D-05
 ErrMax= 3.71D-05  0.00D+00 EMaxC= 1.00D-01 BMatC= 2.17D-07 BMatP= 2.15D-07
 IDIUse=1 WtCom= 1.00D+00 WtEn= 0.00D+00
 Coeff-Com:  0.826D+00 0.439D+00 0.648D+00-0.739D+01 0.647D+01
 Coeff:      0.826D+00 0.439D+00 0.648D+00-0.739D+01 0.647D+01
 Gap=     0.034 Goal=   None    Shift=    0.000
 Gap=     0.030 Goal=   None    Shift=    0.000
 RMSDP=5.85D-05 MaxDP=4.29D-03 DE= 1.08D-07 OVMax= 2.20D-03

 Cycle  67  Pass 1  IDiag  1:
 E= -1136.08875230824     Delta-E=        0.000001642404 Rises=F Damp=F
 DIIS: error= 3.79D-05 at cycle  67 NSaved=   6.
 NSaved= 6 IEnMin= 1 EnMin= -1136.08875578177     IErMin= 5 ErrMin= 3.71D-05
 ErrMax= 3.79D-05  0.00D+00 EMaxC= 1.00D-01 BMatC= 2.12D-07 BMatP= 2.15D-07
 IDIUse=1 WtCom= 1.00D+00 WtEn= 0.00D+00
 Coeff-Com:  0.569D+00 0.341D+00 0.643D+00-0.903D+01 0.766D+01 0.815D+00
 Coeff:      0.569D+00 0.341D+00 0.643D+00-0.903D+01 0.766D+01 0.815D+00
 Gap=     0.034 Goal=   None    Shift=    0.000
 Gap=     0.030 Goal=   None    Shift=    0.000
 RMSDP=4.77D-05 MaxDP=3.01D-03 DE= 1.64D-06 OVMax= 1.92D-03

 Cycle  68  Pass 1  IDiag  1:
 E= -1136.08875088595     Delta-E=        0.000001422293 Rises=F Damp=F
 DIIS: error= 3.76D-05 at cycle  68 NSaved=   7.
 NSaved= 7 IEnMin= 1 EnMin= -1136.08875578177     IErMin= 5 ErrMin= 3.71D-05
 ErrMax= 3.76D-05  0.00D+00 EMaxC= 1.00D-01 BMatC= 2.08D-07 BMatP= 2.12D-07
 IDIUse=1 WtCom= 1.00D+00 WtEn= 0.00D+00
 Coeff-Com: -0.957D+00-0.273D+00 0.560D+00-0.205D+01 0.521D+00-0.254D+01
 Coeff-Com:  0.574D+01
 Coeff:     -0.957D+00-0.273D+00 0.560D+00-0.205D+01 0.521D+00-0.254D+01
 Coeff:      0.574D+01
 Gap=     0.034 Goal=   None    Shift=    0.000
 Gap=     0.030 Goal=   None    Shift=    0.000
 RMSDP=3.49D-04 MaxDP=1.94D-02 DE= 1.42D-06 OVMax= 1.40D-02

 Cycle  69  Pass 1  IDiag  1:
 E= -1136.08874085547     Delta-E=        0.000010030474 Rises=F Damp=F
 DIIS: error= 3.73D-05 at cycle  69 NSaved=   8.
 NSaved= 8 IEnMin= 1 EnMin= -1136.08875578177     IErMin= 5 ErrMin= 3.71D-05
 ErrMax= 3.73D-05  0.00D+00 EMaxC= 1.00D-01 BMatC= 1.94D-07 BMatP= 2.08D-07
 IDIUse=1 WtCom= 1.00D+00 WtEn= 0.00D+00
 Large coefficients: NSaved=  8 BigCof=   19.27 CofMax=   10.00 Det=-2.28D-11
 Inversion failed.  Reducing to  7 matrices.
 Large coefficients: NSaved=  7 BigCof=   14.99 CofMax=   10.00 Det=-2.79D-11
 Inversion failed.  Reducing to  6 matrices.
 Large coefficients: NSaved=  6 BigCof=   15.30 CofMax=   10.00 Det=-3.79D-11
 Inversion failed.  Reducing to  5 matrices.
 Coeff-Com: -0.778D+00-0.138D+01-0.564D-01 0.161D+01 0.160D+01
 Coeff:     -0.778D+00-0.138D+01-0.564D-01 0.161D+01 0.160D+01
 Gap=     0.034 Goal=   None    Shift=    0.000
 Gap=     0.030 Goal=   None    Shift=    0.000
 RMSDP=3.79D-04 MaxDP=2.23D-02 DE= 1.00D-05 OVMax= 1.53D-02

 Cycle  70  Pass 1  IDiag  1:
 E= -1136.08873029430     Delta-E=        0.000010561170 Rises=F Damp=F
 DIIS: error= 3.53D-05 at cycle  70 NSaved=   6.
 NSaved= 6 IEnMin= 1 EnMin= -1136.08875578177     IErMin= 6 ErrMin= 3.53D-05
 ErrMax= 3.53D-05  0.00D+00 EMaxC= 1.00D-01 BMatC= 2.05D-07 BMatP= 1.94D-07
 IDIUse=1 WtCom= 1.00D+00 WtEn= 0.00D+00
 Coeff-Com: -0.187D+01 0.958D+01-0.944D+01-0.158D+01 0.286D+01 0.145D+01
 Coeff:     -0.187D+01 0.958D+01-0.944D+01-0.158D+01 0.286D+01 0.145D+01
 Gap=     0.035 Goal=   None    Shift=    0.000
 Gap=     0.030 Goal=   None    Shift=    0.000
 RMSDP=1.44D-03 MaxDP=7.98D-02 DE= 1.06D-05 OVMax= 5.82D-02

 Cycle  71  Pass 1  IDiag  1:
 E= -1136.08868685904     Delta-E=        0.000043435267 Rises=F Damp=F
 DIIS: error= 5.41D-05 at cycle  71 NSaved=   7.
 NSaved= 7 IEnMin= 1 EnMin= -1136.08875578177     IErMin= 6 ErrMin= 3.53D-05
 ErrMax= 5.41D-05  0.00D+00 EMaxC= 1.00D-01 BMatC= 7.02D-07 BMatP= 1.94D-07
 IDIUse=1 WtCom= 1.00D+00 WtEn= 0.00D+00
 Coeff-Com:  0.144D+01 0.801D+01-0.655D+01-0.741D+01 0.357D+01 0.270D+01
 Coeff-Com: -0.769D+00
 Coeff:      0.144D+01 0.801D+01-0.655D+01-0.741D+01 0.357D+01 0.270D+01
 Coeff:     -0.769D+00
 Gap=     0.034 Goal=   None    Shift=    0.000
 Gap=     0.030 Goal=   None    Shift=    0.000
 RMSDP=1.15D-03 MaxDP=6.48D-02 DE= 4.34D-05 OVMax= 4.62D-02

 Cycle  72  Pass 1  IDiag  1:
 E= -1136.08872180330     Delta-E=       -0.000034944264 Rises=F Damp=F
 DIIS: error= 4.05D-05 at cycle  72 NSaved=   8.
 NSaved= 8 IEnMin= 1 EnMin= -1136.08875578177     IErMin= 6 ErrMin= 3.53D-05
 ErrMax= 4.05D-05  0.00D+00 EMaxC= 1.00D-01 BMatC= 4.66D-07 BMatP= 1.94D-07
 IDIUse=1 WtCom= 1.00D+00 WtEn= 0.00D+00
 Large coefficients: NSaved=  8 BigCof=   18.81 CofMax=   10.00 Det=-5.16D-11
 Inversion failed.  Reducing to  7 matrices.
 Coeff-Com:  0.525D+00 0.557D+01-0.567D+01-0.130D+01 0.183D+01-0.105D+01
 Coeff-Com:  0.109D+01
 Coeff:      0.525D+00 0.557D+01-0.567D+01-0.130D+01 0.183D+01-0.105D+01
 Coeff:      0.109D+01
 Gap=     0.033 Goal=   None    Shift=    0.000
 Gap=     0.030 Goal=   None    Shift=    0.000
 RMSDP=1.81D-03 MaxDP=9.86D-02 DE=-3.49D-05 OVMax= 7.07D-02

 Cycle  73  Pass 1  IDiag  1:
 E= -1136.08877386596     Delta-E=       -0.000052062665 Rises=F Damp=F
 DIIS: error= 5.65D-05 at cycle  73 NSaved=   8.
 NSaved= 8 IEnMin= 8 EnMin= -1136.08877386596     IErMin= 3 ErrMin= 3.71D-05
 ErrMax= 5.65D-05  0.00D+00 EMaxC= 1.00D-01 BMatC= 9.07D-07 BMatP= 1.94D-07
 IDIUse=1 WtCom= 1.00D+00 WtEn= 0.00D+00
 Coeff-Com: -0.993D+00 0.790D+01-0.838D+01-0.372D+00 0.255D+01-0.204D+01
 Coeff-Com:  0.164D+01 0.691D+00
 Coeff:     -0.993D+00 0.790D+01-0.838D+01-0.372D+00 0.255D+01-0.204D+01
 Coeff:      0.164D+01 0.691D+00
 Gap=     0.033 Goal=   None    Shift=    0.000
 Gap=     0.030 Goal=   None    Shift=    0.000
 RMSDP=1.72D-03 MaxDP=1.01D-01 DE=-5.21D-05 OVMax= 6.35D-02

 Cycle  74  Pass 1  IDiag  1:
 E= -1136.08883733001     Delta-E=       -0.000063464042 Rises=F Damp=F
 DIIS: error= 1.01D-04 at cycle  74 NSaved=   9.
 NSaved= 9 IEnMin= 9 EnMin= -1136.08883733001     IErMin= 3 ErrMin= 3.71D-05
 ErrMax= 1.01D-04  0.00D+00 EMaxC= 1.00D-01 BMatC= 5.83D-06 BMatP= 1.94D-07
 IDIUse=1 WtCom= 1.00D+00 WtEn= 0.00D+00
 Large coefficients: NSaved=  9 BigCof=   11.90 CofMax=   10.00 Det=-5.53D-11
 Inversion failed.  Reducing to  8 matrices.
 Large coefficients: NSaved=  8 BigCof=   11.35 CofMax=   10.00 Det=-5.53D-11
 Inversion failed.  Reducing to  7 matrices.
 Coeff-Com: -0.160D+01-0.960D+00-0.722D+00 0.225D+01 0.182D+01 0.253D+00
 Coeff-Com: -0.442D-01
 Coeff:     -0.160D+01-0.960D+00-0.722D+00 0.225D+01 0.182D+01 0.253D+00
 Coeff:     -0.442D-01
 Gap=     0.033 Goal=   None    Shift=    0.000
 Gap=     0.029 Goal=   None    Shift=    0.000
 RMSDP=3.39D-03 MaxDP=1.91D-01 DE=-6.35D-05 OVMax= 1.28D-01

 Cycle  75  Pass 1  IDiag  1:
 E= -1136.08872620244     Delta-E=        0.000111127564 Rises=F Damp=F
 DIIS: error= 3.60D-05 at cycle  75 NSaved=   8.
 NSaved= 8 IEnMin= 7 EnMin= -1136.08883733001     IErMin= 8 ErrMin= 3.60D-05
 ErrMax= 3.60D-05  0.00D+00 EMaxC= 1.00D-01 BMatC= 2.22D-07 BMatP= 1.94D-07
 IDIUse=1 WtCom= 1.00D+00 WtEn= 0.00D+00
 Large coefficients: NSaved=  8 BigCof=   12.08 CofMax=   10.00 Det=-5.23D-11
 Inversion failed.  Reducing to  7 matrices.
 Coeff-Com:  0.141D+01 0.190D+01-0.137D+01-0.228D+01 0.398D+00-0.271D+00
 Coeff-Com:  0.122D+01
 Coeff:      0.141D+01 0.190D+01-0.137D+01-0.228D+01 0.398D+00-0.271D+00
 Coeff:      0.122D+01
 Gap=     0.034 Goal=   None    Shift=    0.000
 Gap=     0.030 Goal=   None    Shift=    0.000
 RMSDP=1.47D-04 MaxDP=8.75D-03 DE= 1.11D-04 OVMax= 5.54D-03

 Cycle  76  Pass 1  IDiag  1:
 E= -1136.08872262833     Delta-E=        0.000003574116 Rises=F Damp=F
 DIIS: error= 4.15D-05 at cycle  76 NSaved=   8.
 NSaved= 8 IEnMin= 6 EnMin= -1136.08883733001     IErMin= 7 ErrMin= 3.60D-05
 ErrMax= 4.15D-05  0.00D+00 EMaxC= 1.00D-01 BMatC= 2.81D-07 BMatP= 2.08D-07
 IDIUse=1 WtCom= 1.00D+00 WtEn= 0.00D+00
 Coeff-Com:  0.143D+01 0.276D+01-0.217D+01-0.423D+01 0.544D+00-0.478D+00
 Coeff-Com:  0.217D+01 0.972D+00
 Coeff:      0.143D+01 0.276D+01-0.217D+01-0.423D+01 0.544D+00-0.478D+00
 Coeff:      0.217D+01 0.972D+00
 Gap=     0.036 Goal=   None    Shift=    0.000
 Gap=     0.030 Goal=   None    Shift=    0.000
 RMSDP=2.06D-03 MaxDP=1.19D-01 DE= 3.57D-06 OVMax= 8.41D-02

 Cycle  77  Pass 1  IDiag  1:
 E= -1136.08864434327     Delta-E=        0.000078285057 Rises=F Damp=F
 DIIS: error= 8.85D-05 at cycle  77 NSaved=   9.
 NSaved= 9 IEnMin= 6 EnMin= -1136.08883733001     IErMin= 7 ErrMin= 3.60D-05
 ErrMax= 8.85D-05  0.00D+00 EMaxC= 1.00D-01 BMatC= 3.26D-06 BMatP= 2.08D-07
 IDIUse=1 WtCom= 1.00D+00 WtEn= 0.00D+00
 Coeff-Com:  0.888D+00 0.347D+01-0.256D+01-0.383D+01 0.532D+00-0.802D-01
 Coeff-Com:  0.222D+01 0.900D+00-0.528D+00
 Coeff:      0.888D+00 0.347D+01-0.256D+01-0.383D+01 0.532D+00-0.802D-01
 Coeff:      0.222D+01 0.900D+00-0.528D+00
 Gap=     0.034 Goal=   None    Shift=    0.000
 Gap=     0.029 Goal=   None    Shift=    0.000
 RMSDP=2.42D-03 MaxDP=1.38D-01 DE= 7.83D-05 OVMax= 9.76D-02

 Cycle  78  Pass 1  IDiag  1:
 E= -1136.08873131848     Delta-E=       -0.000086975211 Rises=F Damp=F
 DIIS: error= 4.19D-05 at cycle  78 NSaved=  10.
 NSaved=10 IEnMin= 6 EnMin= -1136.08883733001     IErMin= 7 ErrMin= 3.60D-05
 ErrMax= 4.19D-05  0.00D+00 EMaxC= 1.00D-01 BMatC= 4.55D-07 BMatP= 2.08D-07
 IDIUse=1 WtCom= 1.00D+00 WtEn= 0.00D+00
 Large coefficients: NSaved= 10 BigCof=   11.42 CofMax=   10.00 Det=-5.43D-11
 Inversion failed.  Reducing to  9 matrices.
 Large coefficients: NSaved=  9 BigCof=   10.43 CofMax=   10.00 Det=-5.44D-11
 Inversion failed.  Reducing to  8 matrices.
 Coeff-Com:  0.346D+00 0.546D+01-0.505D+01-0.627D+00-0.311D-01 0.172D+00
 Coeff-Com: -0.735D+00 0.146D+01
 Coeff:      0.346D+00 0.546D+01-0.505D+01-0.627D+00-0.311D-01 0.172D+00
 Coeff:     -0.735D+00 0.146D+01
 Gap=     0.033 Goal=   None    Shift=    0.000
 Gap=     0.030 Goal=   None    Shift=    0.000
 RMSDP=2.68D-03 MaxDP=1.51D-01 DE=-8.70D-05 OVMax= 1.04D-01

 Cycle  79  Pass 1  IDiag  1:
 E= -1136.08881991233     Delta-E=       -0.000088593850 Rises=F Damp=F
 DIIS: error= 8.84D-05 at cycle  79 NSaved=   9.
 NSaved= 9 IEnMin= 6 EnMin= -1136.08883733001     IErMin= 3 ErrMin= 3.71D-05
 ErrMax= 8.84D-05  0.00D+00 EMaxC= 1.00D-01 BMatC= 3.23D-06 BMatP= 2.08D-07
 IDIUse=1 WtCom= 1.00D+00 WtEn= 0.00D+00
 Coeff-Com:  0.543D+00-0.249D+01 0.127D+01-0.246D+00 0.221D+00-0.845D+00
 Coeff-Com: -0.735D+00 0.224D+01 0.105D+01
 Coeff:      0.543D+00-0.249D+01 0.127D+01-0.246D+00 0.221D+00-0.845D+00
 Coeff:     -0.735D+00 0.224D+01 0.105D+01
 Gap=     0.034 Goal=   None    Shift=    0.000
 Gap=     0.030 Goal=   None    Shift=    0.000
 RMSDP=9.24D-04 MaxDP=5.49D-02 DE=-8.86D-05 OVMax= 3.57D-02

 Cycle  80  Pass 1  IDiag  1:
 E= -1136.08878239404     Delta-E=        0.000037518289 Rises=F Damp=F
 DIIS: error= 6.88D-05 at cycle  80 NSaved=  10.
 NSaved=10 IEnMin= 6 EnMin= -1136.08883733001     IErMin= 3 ErrMin= 3.71D-05
 ErrMax= 6.88D-05  0.00D+00 EMaxC= 1.00D-01 BMatC= 2.19D-06 BMatP= 2.08D-07
 IDIUse=1 WtCom= 1.00D+00 WtEn= 0.00D+00
 Coeff-Com:  0.157D+01-0.333D+01 0.284D+01-0.216D+01 0.408D+00-0.131D+01
 Coeff-Com: -0.732D+00 0.189D+01 0.814D+00 0.101D+01
 Coeff:      0.157D+01-0.333D+01 0.284D+01-0.216D+01 0.408D+00-0.131D+01
 Coeff:     -0.732D+00 0.189D+01 0.814D+00 0.101D+01
 Gap=     0.034 Goal=   None    Shift=    0.000
 Gap=     0.030 Goal=   None    Shift=    0.000
 RMSDP=2.14D-04 MaxDP=3.25D-02 DE= 3.75D-05 OVMax= 7.30D-03

 Cycle  81  Pass 1  IDiag  1:
 E= -1136.08878379493     Delta-E=       -0.000001400891 Rises=F Damp=F
 DIIS: error= 7.92D-05 at cycle  81 NSaved=  11.
 NSaved=11 IEnMin= 6 EnMin= -1136.08883733001     IErMin= 3 ErrMin= 3.71D-05
 ErrMax= 7.92D-05  0.00D+00 EMaxC= 1.00D-01 BMatC= 3.71D-06 BMatP= 2.08D-07
 IDIUse=1 WtCom= 1.00D+00 WtEn= 0.00D+00
 Coeff-Com:  0.101D+01-0.159D+01 0.114D+01-0.766D+00 0.313D+00-0.116D+01
 Coeff-Com: -0.699D+00 0.984D+00 0.147D+00 0.626D+00 0.994D+00
 Coeff:      0.101D+01-0.159D+01 0.114D+01-0.766D+00 0.313D+00-0.116D+01
 Coeff:     -0.699D+00 0.984D+00 0.147D+00 0.626D+00 0.994D+00
 Gap=     0.034 Goal=   None    Shift=    0.000
 Gap=     0.030 Goal=   None    Shift=    0.000
 RMSDP=2.07D-04 MaxDP=2.33D-02 DE=-1.40D-06 OVMax= 8.08D-03

 Cycle  82  Pass 1  IDiag  1:
 E= -1136.08878796872     Delta-E=       -0.000004173791 Rises=F Damp=F
 DIIS: error= 9.07D-05 at cycle  82 NSaved=  12.
 NSaved=12 IEnMin= 6 EnMin= -1136.08883733001     IErMin= 3 ErrMin= 3.71D-05
 ErrMax= 9.07D-05  0.00D+00 EMaxC= 1.00D-01 BMatC= 4.73D-06 BMatP= 2.08D-07
 IDIUse=1 WtCom= 1.00D+00 WtEn= 0.00D+00
 Coeff-Com:  0.115D+01-0.201D+01 0.156D+01-0.910D+00 0.336D+00-0.119D+01
 Coeff-Com: -0.706D+00 0.103D+01 0.192D+00 0.622D+00 0.649D+00 0.282D+00
 Coeff:      0.115D+01-0.201D+01 0.156D+01-0.910D+00 0.336D+00-0.119D+01
 Coeff:     -0.706D+00 0.103D+01 0.192D+00 0.622D+00 0.649D+00 0.282D+00
 Gap=     0.034 Goal=   None    Shift=    0.000
 Gap=     0.030 Goal=   None    Shift=    0.000
 RMSDP=2.72D-05 MaxDP=1.89D-03 DE=-4.17D-06 OVMax= 1.12D-03

 Cycle  83  Pass 1  IDiag  1:
 E= -1136.08878881627     Delta-E=       -0.000000847550 Rises=F Damp=F
 DIIS: error= 9.09D-05 at cycle  83 NSaved=  13.
[...]
 DIIS: error= 6.33D-05 at cycle 127 NSaved=   4.
 NSaved= 4 IEnMin= 1 EnMin= -1136.08882315842     IErMin= 2 ErrMin= 5.81D-05
 ErrMax= 6.33D-05  0.00D+00 EMaxC= 1.00D-01 BMatC= 7.12D-07 BMatP= 5.69D-07
 IDIUse=1 WtCom= 1.00D+00 WtEn= 0.00D+00
 Coeff-Com: -0.425D+01 0.228D+01 0.145D+01 0.153D+01
 Coeff:     -0.425D+01 0.228D+01 0.145D+01 0.153D+01
 Gap=     0.034 Goal=   None    Shift=    0.000
 Gap=     0.030 Goal=   None    Shift=    0.000
 RMSDP=2.42D-03 MaxDP=1.45D-01 DE= 1.66D-05 OVMax= 9.59D-02

 Cycle 128  Pass 1  IDiag  1:
 E= -1136.08870834424     Delta-E=        0.000082962808 Rises=F Damp=F
 DIIS: error= 5.84D-05 at cycle 128 NSaved=   5.
 NSaved= 5 IEnMin= 1 EnMin= -1136.08882315842     IErMin= 2 ErrMin= 5.81D-05
 ErrMax= 5.84D-05  0.00D+00 EMaxC= 1.00D-01 BMatC= 1.99D-06 BMatP= 5.69D-07
 IDIUse=1 WtCom= 1.00D+00 WtEn= 0.00D+00
 Coeff-Com: -0.461D+01 0.256D+01 0.146D+01 0.173D+01-0.128D+00
 Coeff:     -0.461D+01 0.256D+01 0.146D+01 0.173D+01-0.128D+00
 Gap=     0.035 Goal=   None    Shift=    0.000
 Gap=     0.030 Goal=   None    Shift=    0.000
 RMSDP=7.87D-05 MaxDP=8.86D-03 DE= 8.30D-05 OVMax= 1.75D-03

 >>>>>>>>>> Convergence criterion not met.
 SCF Done:  E(UB3LYP) =  -1136.08870834     A.U. after  129 cycles
            NFock=128  Conv=0.79D-04     -V/T= 2.0026
 <Sx>= 0.0000 <Sy>= 0.0000 <Sz>= 0.5000 <S**2>= 0.8555 S= 0.5514
 <L.S>= 0.000000000000E+00
 KE= 1.133197303211D+03 PE=-3.455016291542D+03 EE= 8.228180017293D+02
 Annihilation of the first spin contaminant:
 S**2 before annihilation     0.8555,   after     0.7525
 Leave Link  502 at Mon Nov 13 17:22:56 2023, MaxMem=  1879048192 cpu:            1134.5 elap:             100.4
 (Enter /home/sekinelabo/g16/l601.exe)
 Copying SCF densities to generalized density rwf, IOpCl= 1 IROHF=0.

 **********************************************************************

            Population analysis using the SCF Density.

 **********************************************************************

 Orbital symmetries:
 Alpha Orbitals:
       Occupied  (A) (A) (A) (A) (A) (A) (A) (A) (A) (A) (A) (A)
                 (A) (A) (A) (A) (A) (A) (A) (A) (A) (A) (A) (A)
                 (A) (A) (A) (A) (A) (A) (A) (A) (A) (A) (A) (A)
                 (A) (A) (A)
       Virtual   (A) (A) (A) (A) (A) (A) (A) (A) (A) (A) (A) (A)
                 (A) (A) (A) (A) (A) (A) (A) (A) (A) (A) (A) (A)
                 (A) (A) (A) (A) (A) (A) (A) (A) (A) (A) (A) (A)
                 (A) (A) (A) (A) (A) (A) (A) (A) (A) (A) (A) (A)
                 (A) (A) (A) (A) (A) (A) (A) (A) (A) (A) (A) (A)
                 (A) (A) (A) (A) (A) (A) (A) (A) (A) (A) (A) (A)
                 (A) (A) (A) (A) (A) (A) (A) (A) (A) (A) (A) (A)
                 (A) (A) (A) (A) (A) (A) (A) (A) (A) (A) (A) (A)
                 (A) (A) (A) (A) (A) (A) (A) (A) (A) (A) (A) (A)
                 (A) (A) (A) (A) (A) (A) (A) (A) (A) (A) (A) (A)
                 (A) (A) (A) (A) (A) (A) (A) (A) (A) (A) (A) (A)
                 (A) (A) (A) (A) (A) (A) (A) (A) (A) (A) (A) (A)
                 (A) (A) (A) (A) (A) (A) (A) (A) (A) (A) (A) (A)
                 (A) (A) (A) (A) (A) (A) (A) (A) (A) (A) (A) (A)
                 (A) (A) (A)
 Beta  Orbitals:
       Occupied  (A) (A) (A) (A) (A) (A) (A) (A) (A) (A) (A) (A)
                 (A) (A) (A) (A) (A) (A) (A) (A) (A) (A) (A) (A)
                 (A) (A) (A) (A) (A) (A) (A) (A) (A) (A) (A) (A)
                 (A) (A)
       Virtual   (A) (A) (A) (A) (A) (A) (A) (A) (A) (A) (A) (A)
                 (A) (A) (A) (A) (A) (A) (A) (A) (A) (A) (A) (A)
                 (A) (A) (A) (A) (A) (A) (A) (A) (A) (A) (A) (A)
                 (A) (A) (A) (A) (A) (A) (A) (A) (A) (A) (A) (A)
                 (A) (A) (A) (A) (A) (A) (A) (A) (A) (A) (A) (A)
                 (A) (A) (A) (A) (A) (A) (A) (A) (A) (A) (A) (A)
                 (A) (A) (A) (A) (A) (A) (A) (A) (A) (A) (A) (A)
                 (A) (A) (A) (A) (A) (A) (A) (A) (A) (A) (A) (A)
                 (A) (A) (A) (A) (A) (A) (A) (A) (A) (A) (A) (A)
                 (A) (A) (A) (A) (A) (A) (A) (A) (A) (A) (A) (A)
                 (A) (A) (A) (A) (A) (A) (A) (A) (A) (A) (A) (A)
                 (A) (A) (A) (A) (A) (A) (A) (A) (A) (A) (A) (A)
                 (A) (A) (A) (A) (A) (A) (A) (A) (A) (A) (A) (A)
                 (A) (A) (A) (A) (A) (A) (A) (A) (A) (A) (A) (A)
                 (A) (A) (A) (A)
 The electronic state is 2-A.
 Alpha  occ. eigenvalues --  -38.45665 -38.45393 -38.44177 -38.44003 -38.43907
 Alpha  occ. eigenvalues --  -38.43104 -38.42859  -2.21537  -2.21261  -2.20166
 Alpha  occ. eigenvalues --   -2.20056  -2.19987  -2.19286  -2.18779  -1.15246
 Alpha  occ. eigenvalues --   -1.15208  -1.15154  -1.14974  -1.14947  -1.14866
 Alpha  occ. eigenvalues --   -1.13977  -1.13885  -1.13835  -1.13748  -1.13710
 Alpha  occ. eigenvalues --   -1.13674  -1.13638  -1.13588  -1.13563  -1.13000
 Alpha  occ. eigenvalues --   -1.12960  -1.12865  -1.12472  -1.12402  -1.12369
 Alpha  occ. eigenvalues --   -0.19743  -0.14855  -0.11515  -0.10914
 Alpha virt. eigenvalues --   -0.07450  -0.04927  -0.04162  -0.03138  -0.02879
 Alpha virt. eigenvalues --   -0.02393  -0.02033  -0.00976  -0.00416  -0.00042
 Alpha virt. eigenvalues --    0.00184   0.00296   0.00560   0.00785   0.00872
 Alpha virt. eigenvalues --    0.00922   0.01072   0.01186   0.01277   0.01419
 Alpha virt. eigenvalues --    0.01515   0.01764   0.01822   0.01922   0.01971
 Alpha virt. eigenvalues --    0.02163   0.02380   0.02534   0.02602   0.02685
 Alpha virt. eigenvalues --    0.02783   0.02819   0.02935   0.03013   0.03093
 Alpha virt. eigenvalues --    0.03151   0.03273   0.03487   0.03592   0.03958
 Alpha virt. eigenvalues --    0.04100   0.04188   0.04486   0.04781   0.04867
 Alpha virt. eigenvalues --    0.05156   0.05625   0.05827   0.05966   0.06144
 Alpha virt. eigenvalues --    0.06303   0.06637   0.06729   0.07017   0.07115
 Alpha virt. eigenvalues --    0.07396   0.07951   0.08226   0.08333   0.08884
 Alpha virt. eigenvalues --    0.09273   0.09697   0.10262   0.10722   0.11438
 Alpha virt. eigenvalues --    0.12174   0.12714   0.13013   0.13224   0.13700
 Alpha virt. eigenvalues --    0.13745   0.14673   0.14826   0.14983   0.15163
 Alpha virt. eigenvalues --    0.15909   0.16372   0.16835   0.17644   0.19798
 Alpha virt. eigenvalues --    0.24522   0.25613   0.26092   0.27187   0.28943
 Alpha virt. eigenvalues --    0.29660   0.30072   0.31792   0.32272   0.33814
 Alpha virt. eigenvalues --    0.34703   0.35778   0.35899   0.36606   0.37811
 Alpha virt. eigenvalues --    0.38741   0.39174   0.40595   0.41312   0.41733
 Alpha virt. eigenvalues --    0.42440   0.43530   0.43661   0.44080   0.44233
 Alpha virt. eigenvalues --    0.44828   0.45279   0.46620   0.47288   0.47533
 Alpha virt. eigenvalues --    0.48024   0.48919   0.49248   0.49608   0.50349
 Alpha virt. eigenvalues --    0.50731   0.51295   0.51899   0.53353   0.54003
 Alpha virt. eigenvalues --    0.55157   0.55968   0.57573   0.58621   0.60638
 Alpha virt. eigenvalues --    0.62682   0.63266   0.64810   0.68562   0.70708
 Alpha virt. eigenvalues --    0.71651   0.73830   0.74921   0.76316   0.80529
 Alpha virt. eigenvalues --    0.82894   2.08931   2.13438   2.17834   2.20476
 Alpha virt. eigenvalues --    2.22604   2.30137   2.37659   4.40352   4.40852
 Alpha virt. eigenvalues --    4.41816   4.42302   4.43095   4.43406   4.44239
 Alpha virt. eigenvalues --    4.44760   4.45801   4.45973   4.48889   4.50958
 Alpha virt. eigenvalues --    4.59380   4.61592   4.64094   4.65510   4.69480
 Alpha virt. eigenvalues --    4.70947   4.72310   4.75662   4.81221  96.29681
 Alpha virt. eigenvalues --   96.35750  96.41527  96.45294  96.48495  96.58490
 Alpha virt. eigenvalues --   96.67886
  Beta  occ. eigenvalues --  -38.45662 -38.45401 -38.44135 -38.43959 -38.43855
  Beta  occ. eigenvalues --  -38.43062 -38.42817  -2.21533  -2.21277  -2.20090
  Beta  occ. eigenvalues --   -2.19983  -2.19898  -2.19213  -2.18703  -1.15247
  Beta  occ. eigenvalues --   -1.15189  -1.15152  -1.14985  -1.14951  -1.14871
  Beta  occ. eigenvalues --   -1.13915  -1.13829  -1.13773  -1.13701  -1.13628
  Beta  occ. eigenvalues --   -1.13615  -1.13579  -1.13520  -1.13475  -1.12952
  Beta  occ. eigenvalues --   -1.12880  -1.12811  -1.12411  -1.12343  -1.12322
  Beta  occ. eigenvalues --   -0.18937  -0.14729  -0.10580
  Beta virt. eigenvalues --   -0.07583  -0.07172  -0.04468  -0.03866  -0.03013
  Beta virt. eigenvalues --   -0.02635  -0.01790  -0.01267  -0.00625  -0.00344
  Beta virt. eigenvalues --    0.00021   0.00206   0.00374   0.00614   0.00864
  Beta virt. eigenvalues --    0.00923   0.00970   0.01107   0.01247   0.01418
  Beta virt. eigenvalues --    0.01501   0.01653   0.01824   0.01905   0.01961
  Beta virt. eigenvalues --    0.02063   0.02248   0.02413   0.02547   0.02672
  Beta virt. eigenvalues --    0.02722   0.02803   0.02824   0.02935   0.03099
  Beta virt. eigenvalues --    0.03161   0.03286   0.03337   0.03519   0.03657
  Beta virt. eigenvalues --    0.04074   0.04237   0.04312   0.04656   0.04903
  Beta virt. eigenvalues --    0.04971   0.05341   0.05748   0.05901   0.06072
  Beta virt. eigenvalues --    0.06209   0.06411   0.06716   0.06809   0.07184
  Beta virt. eigenvalues --    0.07303   0.07511   0.08018   0.08359   0.08433
  Beta virt. eigenvalues --    0.09028   0.09460   0.09896   0.10429   0.10952
  Beta virt. eigenvalues --    0.11909   0.12408   0.12926   0.13274   0.13390
  Beta virt. eigenvalues --    0.13905   0.14051   0.14831   0.14989   0.15260
  Beta virt. eigenvalues --    0.15449   0.16110   0.16630   0.17039   0.17985
  Beta virt. eigenvalues --    0.19957   0.24908   0.25790   0.26454   0.27631
  Beta virt. eigenvalues --    0.29136   0.29851   0.30320   0.32016   0.32417
  Beta virt. eigenvalues --    0.34144   0.35081   0.35915   0.36369   0.36845
  Beta virt. eigenvalues --    0.38042   0.38954   0.39504   0.40766   0.41580
  Beta virt. eigenvalues --    0.42050   0.42681   0.43644   0.43766   0.44213
  Beta virt. eigenvalues --    0.44395   0.44938   0.45435   0.46792   0.47525
  Beta virt. eigenvalues --    0.47670   0.48231   0.49109   0.49446   0.49769
  Beta virt. eigenvalues --    0.50659   0.50950   0.51468   0.52136   0.53555
  Beta virt. eigenvalues --    0.54245   0.55358   0.56175   0.57764   0.58836
  Beta virt. eigenvalues --    0.60909   0.62880   0.63438   0.64891   0.68848
  Beta virt. eigenvalues --    0.70787   0.71779   0.74022   0.75122   0.76510
  Beta virt. eigenvalues --    0.80590   0.83060   2.09016   2.13467   2.17901
  Beta virt. eigenvalues --    2.20626   2.22778   2.30315   2.37787   4.40394
  Beta virt. eigenvalues --    4.40951   4.41874   4.42339   4.43167   4.43469
  Beta virt. eigenvalues --    4.44253   4.44779   4.45854   4.46026   4.48953
  Beta virt. eigenvalues --    4.51015   4.59447   4.61688   4.64113   4.65572
  Beta virt. eigenvalues --    4.69513   4.70984   4.72372   4.75721   4.81292
  Beta virt. eigenvalues --   96.29711  96.35764  96.41549  96.45340  96.48550
  Beta virt. eigenvalues --   96.58550  96.67937
          Condensed to atoms (all electrons):
               1          2          3          4          5          6
     1  Na  16.018861  -1.274608  -0.357177  -1.094397  -2.073970  -0.116613
     2  Na  -1.274608  12.437303   0.373815  -1.357241   1.063553   0.086787
     3  Na  -0.357177   0.373815  12.102921  -0.817739   0.023162  -0.412671
     4  Na  -1.094397  -1.357241  -0.817739  15.040921  -0.905452   0.506721
     5  Na  -2.073970   1.063553   0.023162  -0.905452  14.438314  -1.099942
     6  Na  -0.116613   0.086787  -0.412671   0.506721  -1.099942  11.704236
     7  Na   0.850868  -0.119984  -0.774583  -0.278472  -0.812717   0.489894
               7
     1  Na   0.850868
     2  Na  -0.119984
     3  Na  -0.774583
     4  Na  -0.278472
     5  Na  -0.812717
     6  Na   0.489894
     7  Na  11.458975
          Atomic-Atomic Spin Densities.
               1          2          3          4          5          6
     1  Na   1.411209  -0.716735  -0.505480  -0.707378   0.603045  -0.418577
     2  Na  -0.716735   0.564885  -0.018018   0.300477  -0.015968   0.369316
     3  Na  -0.505480  -0.018018  -0.112678   0.447742   0.337518  -0.056428
     4  Na  -0.707378   0.300477   0.447742   0.146263   0.098197  -0.258030
     5  Na   0.603045  -0.015968   0.337518   0.098197  -0.062549  -0.029142
     6  Na  -0.418577   0.369316  -0.056428  -0.258030  -0.029142   0.458470
     7  Na   0.128417  -0.104619  -0.111978  -0.005853  -0.079816   0.042895
               7
     1  Na   0.128417
     2  Na  -0.104619
     3  Na  -0.111978
     4  Na  -0.005853
     5  Na  -0.079816
     6  Na   0.042895
     7  Na  -0.004770
 Mulliken charges and spin densities:
               1          2
     1  Na  -0.952964  -0.205500
     2  Na  -0.209626   0.379338
     3  Na   0.862273  -0.019322
     4  Na  -0.094342   0.021419
     5  Na   0.367052   0.851285
     6  Na  -0.158412   0.108505
     7  Na   0.186019  -0.135724
 Sum of Mulliken charges =  -0.00000   1.00000
 Mulliken charges and spin densities with hydrogens summed into heavy atoms:
               1          2
     1  Na  -0.952964  -0.205500
     2  Na  -0.209626   0.379338
     3  Na   0.862273  -0.019322
     4  Na  -0.094342   0.021419
     5  Na   0.367052   0.851285
     6  Na  -0.158412   0.108505
     7  Na   0.186019  -0.135724
 Electronic spatial extent (au):  <R**2>=           2197.7256
 Charge=             -0.0000 electrons
 Dipole moment (field-independent basis, Debye):
    X=             -0.5260    Y=              0.5549    Z=             -0.0853  Tot=              0.7693
 Quadrupole moment (field-independent basis, Debye-Ang):
   XX=            -46.5495   YY=            -76.5947   ZZ=            -70.4407
   XY=             -3.0626   XZ=              2.6445   YZ=             -4.6603
 Traceless Quadrupole moment (field-independent basis, Debye-Ang):
   XX=             17.9788   YY=            -12.0664   ZZ=             -5.9124
   XY=             -3.0626   XZ=              2.6445   YZ=             -4.6603
 Octapole moment (field-independent basis, Debye-Ang**2):
  XXX=             -4.2528  YYY=             10.6313  ZZZ=              0.2767  XYY=             -2.0634
  XXY=              8.2132  XXZ=              4.3964  XZZ=             -7.4310  YZZ=              0.9503
  YYZ=             -1.3579  XYZ=             -0.6852
 Hexadecapole moment (field-independent basis, Debye-Ang**3):
 XXXX=          -1673.9940 YYYY=           -942.6955 ZZZZ=           -831.8985 XXXY=           -115.6221
 XXXZ=            116.1425 YYYX=             25.2279 YYYZ=            -42.4321 ZZZX=            -20.4839
 ZZZY=            -28.4622 XXYY=           -530.6884 XXZZ=           -444.5058 YYZZ=           -322.3550
 XXYZ=            -33.3256 YYXZ=              6.2451 ZZXY=            -15.8993
 N-N= 3.629122782572D+02 E-N=-3.455016344864D+03  KE= 1.133197303211D+03
                          Isotropic Fermi Contact Couplings
        Atom                 a.u.       MegaHertz       Gauss      10(-4) cm-1
     1  Na(23)             0.11188     132.35223      47.22657      44.14795
     2  Na(23)             0.16057     189.95844      67.78189      63.36331
     3  Na(23)            -0.05557     -65.74261     -23.45860     -21.92937
     4  Na(23)             0.15578     184.29175      65.75988      61.47311
     5  Na(23)             0.09590     113.45246      40.48266      37.84367
     6  Na(23)             0.16474     194.89238      69.54245      65.00910
     7  Na(23)             0.00151       1.78151       0.63569       0.59425
 --------------------------------------------------------
       Center         ----  Spin Dipole Couplings  ----
                      3XX-RR        3YY-RR        3ZZ-RR
 --------------------------------------------------------
     1   Atom       -0.022500      0.011979      0.010521
     2   Atom       -0.009899     -0.004441      0.014340
     3   Atom        0.001781     -0.004353      0.002571
     4   Atom       -0.017447      0.036115     -0.018668
     5   Atom       -0.027397     -0.035359      0.062756
     6   Atom       -0.001098      0.002172     -0.001074
     7   Atom        0.001590     -0.007391      0.005801
 --------------------------------------------------------
                        XY            XZ            YZ
 --------------------------------------------------------
     1   Atom        0.024114     -0.015042     -0.015839
     2   Atom       -0.003776      0.006528      0.020097
     3   Atom        0.008665     -0.010519     -0.008365
     4   Atom        0.020867      0.008315     -0.025180
     5   Atom       -0.008187      0.007140     -0.021844
     6   Atom       -0.029843      0.009931     -0.011766
     7   Atom       -0.004841     -0.010674      0.007348
 --------------------------------------------------------


 ---------------------------------------------------------------------------------
              Anisotropic Spin Dipole Couplings in Principal Axis System
 ---------------------------------------------------------------------------------

       Atom             a.u.   MegaHertz   Gauss  10(-4) cm-1        Axes

              Baa    -0.0359    -5.065    -1.807    -1.689  0.9019 -0.4033  0.1547
     1 Na(23) Bbb    -0.0038    -0.543    -0.194    -0.181  0.1302  0.5953  0.7929
              Bcc     0.0397     5.607     2.001     1.870  0.4119  0.6949 -0.5894
 
              Baa    -0.0213    -3.002    -1.071    -1.002  0.5155  0.7023 -0.4910
     2 Na(23) Bbb    -0.0062    -0.876    -0.313    -0.292  0.8516 -0.4835  0.2024
              Bcc     0.0275     3.878     1.384     1.294  0.0953  0.5224  0.8473
 
              Baa    -0.0106    -1.503    -0.536    -0.501 -0.4341  0.8763  0.2091
     3 Na(23) Bbb    -0.0083    -1.170    -0.418    -0.390  0.6522  0.1455  0.7440
              Bcc     0.0189     2.673     0.954     0.892 -0.6215 -0.4594  0.6346
 
              Baa    -0.0404    -5.699    -2.033    -1.901 -0.6083  0.3930  0.6896
     4 Na(23) Bbb    -0.0098    -1.377    -0.491    -0.459  0.7546  0.0169  0.6560
              Bcc     0.0501     7.076     2.525     2.360  0.2462  0.9194 -0.3068
 
              Baa    -0.0429    -6.055    -2.161    -2.020  0.4032  0.9012  0.1591
     5 Na(23) Bbb    -0.0253    -3.575    -1.276    -1.192  0.9106 -0.3778 -0.1675
              Bcc     0.0682     9.630     3.436     3.212  0.0909 -0.2124  0.9729
 
              Baa    -0.0294    -4.149    -1.481    -1.384  0.7193  0.6937  0.0360
     6 Na(23) Bbb    -0.0073    -1.031    -0.368    -0.344 -0.2860  0.2485  0.9254
              Bcc     0.0367     5.180     1.848     1.728 -0.6331  0.6760 -0.3772
 
              Baa    -0.0107    -1.507    -0.538    -0.503  0.0137  0.9164 -0.4000
     7 Na(23) Bbb    -0.0070    -0.984    -0.351    -0.328  0.8074  0.2258  0.5450
              Bcc     0.0176     2.491     0.889     0.831 -0.5898  0.3304  0.7369
 

 ---------------------------------------------------------------------------------

 No NMR shielding tensors so no spin-rotation constants.
 Leave Link  601 at Mon Nov 13 17:22:57 2023, MaxMem=  1879048192 cpu:               2.7 elap:               0.2
 (Enter /home/sekinelabo/g16/l701.exe)
 SCFChk:  SCF convergence  7.87D-05 required  1.00D-08


 SCF Error SCF Error SCF Error SCF Error SCF Error SCF Error SCF Error SCF Error

                                    ERROR!!!!

    SCF has not converged.  Gradients and post-SCF results would be GARBAGE!!

 SCF Error SCF Error SCF Error SCF Error SCF Error SCF Error SCF Error SCF Error


 Error termination via Lnk1e in /home/sekinelabo/g16/l701.exe at Mon Nov 13 17:22:57 2023.
 Job cpu time:       0 days  0 hours 19 minutes 10.2 seconds.
 Elapsed time:       0 days  0 hours  1 minutes 41.5 seconds.
 File lengths (MBytes):  RWF=     32 Int=      0 D2E=      0 Chk=      5 Scr=      1
