 Entering Gaussian System, Link 0=g16
 Initial command:
 /home/sekinelabo/g16/l1.exe "/home/sekinelabo/g16temp/Gau-4005989.inp" -scrdir="/home/sekinelabo/g16temp/"
 Entering Link 1 = /home/sekinelabo/g16/l1.exe PID=   4005991.
  
 Copyright (c) 1988-2017, Gaussian, Inc.  All Rights Reserved.
  
 This is part of the Gaussian(R) 16 program.  It is based on
 the Gaussian(R) 09 system (copyright 2009, Gaussian, Inc.),
 the Gaussian(R) 03 system (copyright 2003, Gaussian, Inc.),
 the Gaussian(R) 98 system (copyright 1998, Gaussian, Inc.),
 the Gaussian(R) 94 system (copyright 1995, Gaussian, Inc.),
 the Gaussian 92(TM) system (copyright 1992, Gaussian, Inc.),
 the Gaussian 90(TM) system (copyright 1990, Gaussian, Inc.),
 the Gaussian 88(TM) system (copyright 1988, Gaussian, Inc.),
 the Gaussian 86(TM) system (copyright 1986, Carnegie Mellon
 University), and the Gaussian 82(TM) system (copyright 1983,
 Carnegie Mellon University). Gaussian is a federally registered
 trademark of Gaussian, Inc.
  
 This software contains proprietary and confidential information,
 including trade secrets, belonging to Gaussian, Inc.
  
 This software is provided under written license and may be
 used, copied, transmitted, or stored only in accord with that
 written license.
  
 The following legend is applicable only to US Government
 contracts under FAR:
  
                    RESTRICTED RIGHTS LEGEND
  
 Use, reproduction and disclosure by the US Government is
 subject to restrictions as set forth in subparagraphs (a)
 and (c) of the Commercial Computer Software - Restricted
 Rights clause in FAR 52.227-19.
  
 Gaussian, Inc.
 340 Quinnipiac St., Bldg. 40, Wallingford CT 06492
  
  
 ---------------------------------------------------------------
 Warning -- This program may not be used in any manner that
 competes with the business of Gaussian, Inc. or will provide
 assistance to any competitor of Gaussian, Inc.  The licensee
 of this program is prohibited from giving any competitor of
 Gaussian, Inc. access to this program.  By using this program,
 the user acknowledges that Gaussian, Inc. is engaged in the
 business of creating and licensing software in the field of
 computational chemistry and represents and warrants to the
 licensee that it is not a competitor of Gaussian, Inc. and that
 it will not use this program in any manner prohibited above.
 ---------------------------------------------------------------
  

 Cite this work as:
 Gaussian 16, Revision B.01,
 M. J. Frisch, G. W. Trucks, H. B. Schlegel, G. E. Scuseria, 
 M. A. Robb, J. R. Cheeseman, G. Scalmani, V. Barone, 
 G. A. Petersson, H. Nakatsuji, X. Li, M. Caricato, A. V. Marenich, 
 J. Bloino, B. G. Janesko, R. Gomperts, B. Mennucci, H. P. Hratchian, 
 J. V. Ortiz, A. F. Izmaylov, J. L. Sonnenberg, D. Williams-Young, 
 F. Ding, F. Lipparini, F. Egidi, J. Goings, B. Peng, A. Petrone, 
 T. Henderson, D. Ranasinghe, V. G. Zakrzewski, J. Gao, N. Rega, 
 G. Zheng, W. Liang, M. Hada, M. Ehara, K. Toyota, R. Fukuda, 
 J. Hasegawa, M. Ishida, T. Nakajima, Y. Honda, O. Kitao, H. Nakai, 
 T. Vreven, K. Throssell, J. A. Montgomery, Jr., J. E. Peralta, 
 F. Ogliaro, M. J. Bearpark, J. J. Heyd, E. N. Brothers, K. N. Kudin, 
 V. N. Staroverov, T. A. Keith, R. Kobayashi, J. Normand, 
 K. Raghavachari, A. P. Rendell, J. C. Burant, S. S. Iyengar, 
 J. Tomasi, M. Cossi, J. M. Millam, M. Klene, C. Adamo, R. Cammi, 
 J. W. Ochterski, R. L. Martin, K. Morokuma, O. Farkas, 
 J. B. Foresman, and D. J. Fox, Gaussian, Inc., Wallingford CT, 2016.
 
 ******************************************
 Gaussian 16:  ES64L-G16RevB.01 20-Dec-2017
                13-Nov-2023 
 ******************************************
 %mem=14GB
 %chk=checkpoint.chk
 %nprocshared=16
 Will use up to   16 processors via shared memory.
 -------------------------
 #P B3LYP/6-311+g(d) force
 -------------------------
 1/10=7,30=1,38=1/1,3;
 2/12=2,17=6,18=5,40=1/2;
 3/5=4,6=6,7=11,11=2,25=1,30=1,71=1,74=-5/1,2,3;
 4//1;
 5/5=2,38=5/2;
 6/7=2,8=2,9=2,10=2,28=1/1;
 7/29=1/1,2,3,16;
 1/10=7,30=1/3;
 99//99;
 Leave Link    1 at Mon Nov 13 15:10:37 2023, MaxMem=  1879048192 cpu:               0.3 elap:               0.0
 (Enter /home/sekinelabo/g16/l101.exe)
 ------------------------------
 Gaussian input prepared by ASE
 ------------------------------
 Symbolic Z-matrix:
 Charge =  0 Multiplicity = 2
 Na                    5.00192   3.99649   2.14445 
 Na                    6.95703   3.79448   4.40824 
 Na                    6.88628   3.07511   0. 
 Na                    6.59645   1.48705   2.52482 
 Na                    3.98732   0.        2.52347 
 Na                    2.56908   2.565     3.17444 
 Na                    0.        3.44997   1.90893 
 
 ITRead=  0  0  0  0  0  0  0
 MicOpt= -1 -1 -1 -1 -1 -1 -1
 NAtoms=      7 NQM=        7 NQMF=       0 NMMI=      0 NMMIF=      0
                NMic=       0 NMicF=      0.
                    Isotopes and Nuclear Properties:
 (Nuclear quadrupole moments (NQMom) in fm**2, nuclear magnetic moments (NMagM)
  in nuclear magnetons)

  Atom         1           2           3           4           5           6           7
 IAtWgt=          23          23          23          23          23          23          23
 AtmWgt=  22.9897697  22.9897697  22.9897697  22.9897697  22.9897697  22.9897697  22.9897697
 NucSpn=           3           3           3           3           3           3           3
 AtZEff=  -0.0000000  -0.0000000  -0.0000000  -0.0000000  -0.0000000  -0.0000000  -0.0000000
 NQMom=   10.4000000  10.4000000  10.4000000  10.4000000  10.4000000  10.4000000  10.4000000
 NMagM=    2.2175200   2.2175200   2.2175200   2.2175200   2.2175200   2.2175200   2.2175200
 AtZNuc=  11.0000000  11.0000000  11.0000000  11.0000000  11.0000000  11.0000000  11.0000000
 Leave Link  101 at Mon Nov 13 15:10:37 2023, MaxMem=  1879048192 cpu:               2.6 elap:               0.2
 (Enter /home/sekinelabo/g16/l103.exe)

 GradGradGradGradGradGradGradGradGradGradGradGradGradGradGradGradGradGrad
 Berny optimization.
 Initialization pass.
 Trust Radius=3.00D-01 FncErr=1.00D-07 GrdErr=1.00D-07 EigMax=2.50D+02 EigMin=1.00D-04
 Number of steps in this run=      2 maximum allowed number of steps=      2.
 GradGradGradGradGradGradGradGradGradGradGradGradGradGradGradGradGradGrad

 Leave Link  103 at Mon Nov 13 15:10:37 2023, MaxMem=  1879048192 cpu:               0.2 elap:               0.0
 (Enter /home/sekinelabo/g16/l202.exe)
                          Input orientation:                          
 ---------------------------------------------------------------------
 Center     Atomic      Atomic             Coordinates (Angstroms)
 Number     Number       Type             X           Y           Z
 ---------------------------------------------------------------------
      1         11           0        5.001921    3.996489    2.144451
      2         11           0        6.957027    3.794478    4.408241
      3         11           0        6.886283    3.075109    0.000000
      4         11           0        6.596448    1.487049    2.524823
      5         11           0        3.987320    0.000000    2.523469
      6         11           0        2.569081    2.565000    3.174445
      7         11           0        0.000000    3.449973    1.908930
 ---------------------------------------------------------------------
                    Distance matrix (angstroms):
                    1          2          3          4          5
     1  Na   0.000000
     2  Na   2.997999   0.000000
     3  Na   2.999738   4.467112   0.000000
     4  Na   2.997414   3.000252   2.996777   0.000000
     5  Na   4.140652   5.173934   4.922213   3.003142   0.000000
     6  Na   3.004789   4.721010   5.382893   4.219440   3.002399
     7  Na   5.037198   7.400370   7.155797   6.909814   5.308361
                    6          7
     6  Na   0.000000
     7  Na   2.997480   0.000000
 Stoichiometry    Na7(2)
 Framework group  C1[X(Na7)]
 Deg. of freedom    15
 Full point group                 C1      NOp   1
 Largest Abelian subgroup         C1      NOp   1
 Largest concise Abelian subgroup C1      NOp   1
                         Standard orientation:                         
 ---------------------------------------------------------------------
 Center     Atomic      Atomic             Coordinates (Angstroms)
 Number     Number       Type             X           Y           Z
 ---------------------------------------------------------------------
      1         11           0        0.430767   -1.372475    0.239029
      2         11           0        2.385873   -1.170464   -2.024762
      3         11           0        2.315128   -0.451095    2.383480
      4         11           0        2.025294    1.136965   -0.141343
      5         11           0       -0.583834    2.624014   -0.139989
      6         11           0       -2.002073    0.059014   -0.790965
      7         11           0       -4.571154   -0.825959    0.474550
 ---------------------------------------------------------------------
 Rotational constants (GHZ):           0.9537345           0.4284109           0.4155127
 Leave Link  202 at Mon Nov 13 15:10:37 2023, MaxMem=  1879048192 cpu:               0.1 elap:               0.0
 (Enter /home/sekinelabo/g16/l301.exe)
 Standard basis: 6-311+G(d) (5D, 7F)
 Ernie: Thresh=  0.10000D-02 Tol=  0.10000D-05 Strict=F.
 There are   217 symmetry adapted cartesian basis functions of A   symmetry.
 There are   210 symmetry adapted basis functions of A   symmetry.
   210 basis functions,   350 primitive gaussians,   217 cartesian basis functions
    39 alpha electrons       38 beta electrons
       nuclear repulsion energy       339.5470441582 Hartrees.
 IExCor=  402 DFT=T Ex+Corr=B3LYP ExCW=0 ScaHFX=  0.200000
 ScaDFX=  0.800000  0.720000  1.000000  0.810000 ScalE2=  1.000000  1.000000
 IRadAn=      5 IRanWt=     -1 IRanGd=            0 ICorTp=0 IEmpDi=  4
 NAtoms=    7 NActive=    7 NUniq=    7 SFac= 1.00D+00 NAtFMM=   60 NAOKFM=F Big=F
 Integral buffers will be    131072 words long.
 Raffenetti 2 integral format.
 Two-electron integral symmetry is turned on.
 Leave Link  301 at Mon Nov 13 15:10:37 2023, MaxMem=  1879048192 cpu:               0.5 elap:               0.0
 (Enter /home/sekinelabo/g16/l302.exe)
 NPDir=0 NMtPBC=     1 NCelOv=     1 NCel=       1 NClECP=     1 NCelD=      1
         NCelK=      1 NCelE2=     1 NClLst=     1 CellRange=     0.0.
 One-electron integrals computed using PRISM.
 One-electron integral symmetry used in STVInt
 NBasis=   210 RedAO= T EigKep=  1.15D-06  NBF=   210
 NBsUse=   210 1.00D-06 EigRej= -1.00D+00 NBFU=   210
 Precomputing XC quadrature grid using
 IXCGrd= 4 IRadAn=           5 IRanWt=          -1 IRanGd=           0 AccXCQ= 0.00D+00.
 Generated NRdTot=       0 NPtTot=           0 NUsed=           0 NTot=          32
 NSgBfM=   208   207   208   208   208 MxSgAt=     7 MxSgA2=     7.
 Leave Link  302 at Mon Nov 13 15:10:37 2023, MaxMem=  1879048192 cpu:               2.1 elap:               0.1
 (Enter /home/sekinelabo/g16/l303.exe)
 DipDrv:  MaxL=1.
 Leave Link  303 at Mon Nov 13 15:10:37 2023, MaxMem=  1879048192 cpu:               0.6 elap:               0.0
 (Enter /home/sekinelabo/g16/l401.exe)
 ExpMin= 7.60D-03 ExpMax= 3.62D+04 ExpMxC= 1.21D+03 IAcc=3 IRadAn=         5 AccDes= 0.00D+00
 Harris functional with IExCor=  402 and IRadAn=       5 diagonalized for initial guess.
 HarFok:  IExCor=  402 AccDes= 0.00D+00 IRadAn=         5 IDoV= 1 UseB2=F ITyADJ=14
 ICtDFT=  3500011 ScaDFX=  1.000000  1.000000  1.000000  1.000000
 FoFCou: FMM=F IPFlag=           0 FMFlag=      100000 FMFlg1=           0
         NFxFlg=           0 DoJE=T BraDBF=F KetDBF=T FulRan=T
         wScrn=  0.000000 ICntrl=       500 IOpCl=  0 I1Cent=   200000004 NGrid=           0
         NMat0=    1 NMatS0=      1 NMatT0=    0 NMatD0=    1 NMtDS0=    0 NMtDT0=    0
 Petite list used in FoFCou.
 Harris En= -1135.86555268458    
 JPrj=0 DoOrth=F DoCkMO=F.
 Initial guess <Sx>= 0.0000 <Sy>= 0.0000 <Sz>= 0.5000 <S**2>= 0.7500 S= 0.5000
 Leave Link  401 at Mon Nov 13 15:10:37 2023, MaxMem=  1879048192 cpu:               5.2 elap:               0.3
 (Enter /home/sekinelabo/g16/l502.exe)
 Keep R1 and R2 ints in memory in canonical form, NReq=507620360.
 FoFCou: FMM=F IPFlag=           0 FMFlag=           0 FMFlg1=           0
         NFxFlg=           0 DoJE=F BraDBF=F KetDBF=F FulRan=T
         wScrn=  0.000000 ICntrl=       600 IOpCl=  0 I1Cent=           0 NGrid=           0
         NMat0=    1 NMatS0=  22155 NMatT0=    0 NMatD0=    1 NMtDS0=    0 NMtDT0=    0
 Symmetry not used in FoFCou.
 Two-electron integral symmetry not used.
 UHF open shell SCF:
 Using DIIS extrapolation, IDIIS=  1040.
 NGot=  1879048192 LenX=  1388082376 LenY=  1388034846
 Requested convergence on RMS density matrix=1.00D-08 within 128 cycles.
 Requested convergence on MAX density matrix=1.00D-06.
 Requested convergence on             energy=1.00D-06.
 No special actions if energy rises.

 Cycle   1  Pass 1  IDiag  1:
 E= -1136.05596041114    
 DIIS: error= 9.93D-03 at cycle   1 NSaved=   1.
 NSaved= 1 IEnMin= 1 EnMin= -1136.05596041114     IErMin= 1 ErrMin= 9.93D-03
 ErrMax= 9.93D-03  0.00D+00 EMaxC= 1.00D-01 BMatC= 1.95D-01 BMatP= 1.95D-01
 IDIUse=3 WtCom= 9.01D-01 WtEn= 9.93D-02
 Coeff-Com:  0.100D+01
 Coeff-En:   0.100D+01
 Coeff:      0.100D+01
 Gap=     0.040 Goal=   None    Shift=    0.000
 Gap=     0.025 Goal=   None    Shift=    0.000
 GapD=    0.025 DampG=0.250 DampE=1.000 DampFc=0.2500 IDamp=-1.
 Damping current iteration by 2.50D-01
 RMSDP=6.13D-02 MaxDP=4.53D+00              OVMax= 2.99D-01

 Cycle   2  Pass 1  IDiag  1:
 E= -1136.06902152068     Delta-E=       -0.013061109539 Rises=F Damp=T
 DIIS: error= 7.15D-03 at cycle   2 NSaved=   2.
 NSaved= 2 IEnMin= 2 EnMin= -1136.06902152068     IErMin= 2 ErrMin= 7.15D-03
 ErrMax= 7.15D-03  0.00D+00 EMaxC= 1.00D-01 BMatC= 7.38D-02 BMatP= 1.95D-01
 IDIUse=3 WtCom= 9.28D-01 WtEn= 7.15D-02
 Coeff-Com: -0.122D+01 0.222D+01
 Coeff-En:   0.000D+00 0.100D+01
 Coeff:     -0.113D+01 0.213D+01
 Gap=     0.044 Goal=   None    Shift=    0.000
 Gap=     0.031 Goal=   None    Shift=    0.000
 RMSDP=2.49D-02 MaxDP=2.61D+00 DE=-1.31D-02 OVMax= 3.53D-01

 Cycle   3  Pass 1  IDiag  1:
 E= -1136.08086506440     Delta-E=       -0.011843543720 Rises=F Damp=F
 DIIS: error= 5.82D-03 at cycle   3 NSaved=   3.
 NSaved= 3 IEnMin= 3 EnMin= -1136.08086506440     IErMin= 3 ErrMin= 5.82D-03
 ErrMax= 5.82D-03  0.00D+00 EMaxC= 1.00D-01 BMatC= 1.12D-02 BMatP= 7.38D-02
 IDIUse=3 WtCom= 9.42D-01 WtEn= 5.82D-02
 Coeff-Com: -0.511D+00 0.891D+00 0.621D+00
 Coeff-En:   0.000D+00 0.000D+00 0.100D+01
 Coeff:     -0.482D+00 0.839D+00 0.643D+00
 Gap=     0.037 Goal=   None    Shift=    0.000
 Gap=     0.034 Goal=   None    Shift=    0.000
 RMSDP=1.93D-02 MaxDP=1.51D+00 DE=-1.18D-02 OVMax= 2.26D-01

 Cycle   4  Pass 1  IDiag  1:
 E= -1136.08252685902     Delta-E=       -0.001661794619 Rises=F Damp=F
 DIIS: error= 4.63D-03 at cycle   4 NSaved=   4.
 NSaved= 4 IEnMin= 4 EnMin= -1136.08252685902     IErMin= 4 ErrMin= 4.63D-03
 ErrMax= 4.63D-03  0.00D+00 EMaxC= 1.00D-01 BMatC= 9.16D-03 BMatP= 1.12D-02
 IDIUse=3 WtCom= 9.54D-01 WtEn= 4.63D-02
 Coeff-Com: -0.467D-01 0.740D-01 0.468D+00 0.505D+00
 Coeff-En:   0.000D+00 0.000D+00 0.474D+00 0.526D+00
 Coeff:     -0.445D-01 0.705D-01 0.468D+00 0.506D+00
 Gap=     0.040 Goal=   None    Shift=    0.000
 Gap=     0.030 Goal=   None    Shift=    0.000
 RMSDP=6.61D-03 MaxDP=4.47D-01 DE=-1.66D-03 OVMax= 1.44D-01

 Cycle   5  Pass 1  IDiag  1:
 E= -1136.09341140594     Delta-E=       -0.010884546917 Rises=F Damp=F
 DIIS: error= 8.89D-04 at cycle   5 NSaved=   5.
 NSaved= 5 IEnMin= 5 EnMin= -1136.09341140594     IErMin= 5 ErrMin= 8.89D-04
 ErrMax= 8.89D-04  0.00D+00 EMaxC= 1.00D-01 BMatC= 3.84D-04 BMatP= 9.16D-03
 IDIUse=3 WtCom= 9.91D-01 WtEn= 8.89D-03
 Coeff-Com: -0.120D-01 0.148D-01 0.234D+00 0.276D+00 0.487D+00
 Coeff-En:   0.000D+00 0.000D+00 0.000D+00 0.000D+00 0.100D+01
 Coeff:     -0.119D-01 0.147D-01 0.232D+00 0.274D+00 0.491D+00
 Gap=     0.039 Goal=   None    Shift=    0.000
 Gap=     0.030 Goal=   None    Shift=    0.000
 RMSDP=1.76D-03 MaxDP=7.89D-02 DE=-1.09D-02 OVMax= 3.00D-02

 Cycle   6  Pass 1  IDiag  1:
 E= -1136.09379902227     Delta-E=       -0.000387616331 Rises=F Damp=F
 DIIS: error= 2.78D-04 at cycle   6 NSaved=   6.
 NSaved= 6 IEnMin= 6 EnMin= -1136.09379902227     IErMin= 6 ErrMin= 2.78D-04
 ErrMax= 2.78D-04  0.00D+00 EMaxC= 1.00D-01 BMatC= 3.00D-05 BMatP= 3.84D-04
 IDIUse=3 WtCom= 9.97D-01 WtEn= 2.78D-03
 Coeff-Com: -0.125D-02 0.857D-03-0.120D-01-0.213D-01 0.186D+00 0.847D+00
 Coeff-En:   0.000D+00 0.000D+00 0.000D+00 0.000D+00 0.361D-01 0.964D+00
 Coeff:     -0.124D-02 0.855D-03-0.119D-01-0.212D-01 0.186D+00 0.848D+00
 Gap=     0.040 Goal=   None    Shift=    0.000
 Gap=     0.030 Goal=   None    Shift=    0.000
 RMSDP=7.72D-04 MaxDP=4.34D-02 DE=-3.88D-04 OVMax= 8.50D-03

 Cycle   7  Pass 1  IDiag  1:
 E= -1136.09384114744     Delta-E=       -0.000042125170 Rises=F Damp=F
 DIIS: error= 7.11D-05 at cycle   7 NSaved=   7.
 NSaved= 7 IEnMin= 7 EnMin= -1136.09384114744     IErMin= 7 ErrMin= 7.11D-05
 ErrMax= 7.11D-05  0.00D+00 EMaxC= 1.00D-01 BMatC= 1.74D-06 BMatP= 3.00D-05
 IDIUse=1 WtCom= 1.00D+00 WtEn= 0.00D+00
 Coeff-Com: -0.302D-03 0.223D-03-0.106D-01-0.169D-01 0.323D-01 0.237D+00
 Coeff-Com:  0.758D+00
 Coeff:     -0.302D-03 0.223D-03-0.106D-01-0.169D-01 0.323D-01 0.237D+00
 Coeff:      0.758D+00
 Gap=     0.039 Goal=   None    Shift=    0.000
 Gap=     0.030 Goal=   None    Shift=    0.000
 RMSDP=2.90D-04 MaxDP=1.86D-02 DE=-4.21D-05 OVMax= 5.57D-03

 Cycle   8  Pass 1  IDiag  1:
 E= -1136.09384615722     Delta-E=       -0.000005009785 Rises=F Damp=F
 DIIS: error= 4.87D-05 at cycle   8 NSaved=   8.
 NSaved= 8 IEnMin= 8 EnMin= -1136.09384615722     IErMin= 8 ErrMin= 4.87D-05
 ErrMax= 4.87D-05  0.00D+00 EMaxC= 1.00D-01 BMatC= 9.51D-07 BMatP= 1.74D-06
 IDIUse=1 WtCom= 1.00D+00 WtEn= 0.00D+00
 Coeff-Com:  0.181D-03-0.258D-03-0.366D-02-0.586D-02-0.980D-02-0.144D-01
 Coeff-Com:  0.410D+00 0.624D+00
 Coeff:      0.181D-03-0.258D-03-0.366D-02-0.586D-02-0.980D-02-0.144D-01
 Coeff:      0.410D+00 0.624D+00
 Gap=     0.040 Goal=   None    Shift=    0.000
 Gap=     0.030 Goal=   None    Shift=    0.000
 RMSDP=2.01D-04 MaxDP=1.22D-02 DE=-5.01D-06 OVMax= 5.55D-03

 Cycle   9  Pass 1  IDiag  1:
 E= -1136.09384995797     Delta-E=       -0.000003800748 Rises=F Damp=F
 DIIS: error= 2.85D-05 at cycle   9 NSaved=   9.
 NSaved= 9 IEnMin= 9 EnMin= -1136.09384995797     IErMin= 9 ErrMin= 2.85D-05
 ErrMax= 2.85D-05  0.00D+00 EMaxC= 1.00D-01 BMatC= 2.91D-07 BMatP= 9.51D-07
 IDIUse=1 WtCom= 1.00D+00 WtEn= 0.00D+00
 Coeff-Com:  0.377D-03-0.448D-03 0.166D-02 0.233D-02-0.557D-02-0.699D-01
 Coeff-Com: -0.243D+00 0.604D-01 0.125D+01
 Coeff:      0.377D-03-0.448D-03 0.166D-02 0.233D-02-0.557D-02-0.699D-01
 Coeff:     -0.243D+00 0.604D-01 0.125D+01
 Gap=     0.039 Goal=   None    Shift=    0.000
 Gap=     0.030 Goal=   None    Shift=    0.000
 RMSDP=3.28D-04 MaxDP=2.03D-02 DE=-3.80D-06 OVMax= 9.05D-03

 Cycle  10  Pass 1  IDiag  1:
 E= -1136.09385469459     Delta-E=       -0.000004736618 Rises=F Damp=F
 DIIS: error= 2.47D-05 at cycle  10 NSaved=  10.
 NSaved=10 IEnMin=10 EnMin= -1136.09385469459     IErMin=10 ErrMin= 2.47D-05
 ErrMax= 2.47D-05  0.00D+00 EMaxC= 1.00D-01 BMatC= 1.70D-07 BMatP= 2.91D-07
 IDIUse=1 WtCom= 1.00D+00 WtEn= 0.00D+00
 Coeff-Com: -0.161D-03 0.240D-03 0.206D-02 0.217D-02 0.622D-02-0.129D-02
 Coeff-Com: -0.173D+00-0.132D+00 0.397D-01 0.126D+01
 Coeff:     -0.161D-03 0.240D-03 0.206D-02 0.217D-02 0.622D-02-0.129D-02
 Coeff:     -0.173D+00-0.132D+00 0.397D-01 0.126D+01
 Gap=     0.039 Goal=   None    Shift=    0.000
 Gap=     0.030 Goal=   None    Shift=    0.000
 RMSDP=2.88D-04 MaxDP=1.66D-02 DE=-4.74D-06 OVMax= 8.83D-03

 Cycle  11  Pass 1  IDiag  1:
 E= -1136.09385849583     Delta-E=       -0.000003801241 Rises=F Damp=F
 DIIS: error= 1.99D-05 at cycle  11 NSaved=  11.
 NSaved=11 IEnMin=11 EnMin= -1136.09385849583     IErMin=11 ErrMin= 1.99D-05
 ErrMax= 1.99D-05  0.00D+00 EMaxC= 1.00D-01 BMatC= 1.16D-07 BMatP= 1.70D-07
 IDIUse=1 WtCom= 1.00D+00 WtEn= 0.00D+00
 Coeff-Com: -0.450D-03 0.580D-03-0.165D-03-0.897D-03 0.119D-01 0.604D-01
 Coeff-Com:  0.848D-01-0.736D-01-0.958D+00 0.339D+00 0.154D+01
 Coeff:     -0.450D-03 0.580D-03-0.165D-03-0.897D-03 0.119D-01 0.604D-01
 Coeff:      0.848D-01-0.736D-01-0.958D+00 0.339D+00 0.154D+01
 Gap=     0.039 Goal=   None    Shift=    0.000
 Gap=     0.030 Goal=   None    Shift=    0.000
 RMSDP=4.32D-04 MaxDP=2.27D-02 DE=-3.80D-06 OVMax= 1.34D-02

 Cycle  12  Pass 1  IDiag  1:
 E= -1136.09386300733     Delta-E=       -0.000004511496 Rises=F Damp=F
 DIIS: error= 1.41D-05 at cycle  12 NSaved=  12.
 NSaved=12 IEnMin=12 EnMin= -1136.09386300733     IErMin=12 ErrMin= 1.41D-05
 ErrMax= 1.41D-05  0.00D+00 EMaxC= 1.00D-01 BMatC= 7.18D-08 BMatP= 1.16D-07
 IDIUse=1 WtCom= 1.00D+00 WtEn= 0.00D+00
 Coeff-Com: -0.279D-04 0.196D-04-0.119D-02-0.163D-02 0.272D-03 0.184D-01
 Coeff-Com:  0.145D+00 0.100D+00-0.337D+00-0.778D+00 0.648D+00 0.121D+01
 Coeff:     -0.279D-04 0.196D-04-0.119D-02-0.163D-02 0.272D-03 0.184D-01
 Coeff:      0.145D+00 0.100D+00-0.337D+00-0.778D+00 0.648D+00 0.121D+01
 Gap=     0.039 Goal=   None    Shift=    0.000
 Gap=     0.030 Goal=   None    Shift=    0.000
 RMSDP=3.34D-04 MaxDP=1.48D-02 DE=-4.51D-06 OVMax= 1.02D-02

 Cycle  13  Pass 1  IDiag  1:
 E= -1136.09386565503     Delta-E=       -0.000002647699 Rises=F Damp=F
 DIIS: error= 1.26D-05 at cycle  13 NSaved=  13.
 NSaved=13 IEnMin=13 EnMin= -1136.09386565503     IErMin=13 ErrMin= 1.26D-05
 ErrMax= 1.26D-05  0.00D+00 EMaxC= 1.00D-01 BMatC= 4.23D-08 BMatP= 7.18D-08
 IDIUse=1 WtCom= 1.00D+00 WtEn= 0.00D+00
 Coeff-Com:  0.211D-03-0.271D-03-0.438D-03-0.316D-03-0.571D-02-0.210D-01
 Coeff-Com:  0.622D-02 0.730D-01 0.342D+00-0.416D+00-0.552D+00 0.473D+00
 Coeff-Com:  0.110D+01
 Coeff:      0.211D-03-0.271D-03-0.438D-03-0.316D-03-0.571D-02-0.210D-01
 Coeff:      0.622D-02 0.730D-01 0.342D+00-0.416D+00-0.552D+00 0.473D+00
 Coeff:      0.110D+01
 Gap=     0.039 Goal=   None    Shift=    0.000
 Gap=     0.030 Goal=   None    Shift=    0.000
 RMSDP=2.36D-04 MaxDP=1.36D-02 DE=-2.65D-06 OVMax= 6.61D-03

 Cycle  14  Pass 1  IDiag  1:
 E= -1136.09386712018     Delta-E=       -0.000001465153 Rises=F Damp=F
 DIIS: error= 1.03D-05 at cycle  14 NSaved=  14.
 NSaved=14 IEnMin=14 EnMin= -1136.09386712018     IErMin=14 ErrMin= 1.03D-05
 ErrMax= 1.03D-05  0.00D+00 EMaxC= 1.00D-01 BMatC= 2.87D-08 BMatP= 4.23D-08
 IDIUse=1 WtCom= 1.00D+00 WtEn= 0.00D+00
 Coeff-Com:  0.882D-04-0.111D-03 0.660D-03 0.109D-02-0.889D-03-0.151D-01
 Coeff-Com: -0.101D+00-0.518D-01 0.295D+00 0.411D+00-0.465D+00-0.832D+00
 Coeff-Com:  0.155D+00 0.160D+01
 Coeff:      0.882D-04-0.111D-03 0.660D-03 0.109D-02-0.889D-03-0.151D-01
 Coeff:     -0.101D+00-0.518D-01 0.295D+00 0.411D+00-0.465D+00-0.832D+00
 Coeff:      0.155D+00 0.160D+01
 Gap=     0.039 Goal=   None    Shift=    0.000
 Gap=     0.030 Goal=   None    Shift=    0.000
 RMSDP=2.80D-04 MaxDP=1.85D-02 DE=-1.47D-06 OVMax= 7.24D-03

 Cycle  15  Pass 1  IDiag  1:
 E= -1136.09386853195     Delta-E=       -0.000001411775 Rises=F Damp=F
 DIIS: error= 7.93D-06 at cycle  15 NSaved=  15.
 NSaved=15 IEnMin=15 EnMin= -1136.09386853195     IErMin=15 ErrMin= 7.93D-06
 ErrMax= 7.93D-06  0.00D+00 EMaxC= 1.00D-01 BMatC= 1.73D-08 BMatP= 2.87D-08
 IDIUse=1 WtCom= 1.00D+00 WtEn= 0.00D+00
 Coeff-Com: -0.232D-03 0.299D-03 0.100D-02 0.856D-03 0.532D-02 0.220D-01
 Coeff-Com: -0.765D-02-0.941D-01-0.314D+00 0.418D+00 0.522D+00-0.374D+00
 Coeff-Com: -0.110D+01-0.104D+00 0.203D+01
 Coeff:     -0.232D-03 0.299D-03 0.100D-02 0.856D-03 0.532D-02 0.220D-01
 Coeff:     -0.765D-02-0.941D-01-0.314D+00 0.418D+00 0.522D+00-0.374D+00
 Coeff:     -0.110D+01-0.104D+00 0.203D+01
 Gap=     0.040 Goal=   None    Shift=    0.000
 Gap=     0.030 Goal=   None    Shift=    0.000
 RMSDP=3.49D-04 MaxDP=2.71D-02 DE=-1.41D-06 OVMax= 8.10D-03

 Cycle  16  Pass 1  IDiag  1:
 E= -1136.09386973606     Delta-E=       -0.000001204109 Rises=F Damp=F
 DIIS: error= 4.37D-06 at cycle  16 NSaved=  16.
 NSaved=16 IEnMin=16 EnMin= -1136.09386973606     IErMin=16 ErrMin= 4.37D-06
 ErrMax= 4.37D-06  0.00D+00 EMaxC= 1.00D-01 BMatC= 6.96D-09 BMatP= 1.73D-08
 IDIUse=1 WtCom= 1.00D+00 WtEn= 0.00D+00
 Coeff-Com: -0.115D-03 0.151D-03-0.415D-03-0.340D-03 0.207D-02 0.134D-01
 Coeff-Com:  0.474D-01-0.419D-02-0.137D+00-0.213D+00 0.263D+00 0.439D+00
 Coeff-Com: -0.127D-01-0.744D+00-0.526D+00 0.187D+01
 Coeff:     -0.115D-03 0.151D-03-0.415D-03-0.340D-03 0.207D-02 0.134D-01
 Coeff:      0.474D-01-0.419D-02-0.137D+00-0.213D+00 0.263D+00 0.439D+00
 Coeff:     -0.127D-01-0.744D+00-0.526D+00 0.187D+01
 Gap=     0.040 Goal=   None    Shift=    0.000
 Gap=     0.030 Goal=   None    Shift=    0.000
 RMSDP=2.69D-04 MaxDP=2.24D-02 DE=-1.20D-06 OVMax= 5.99D-03

 Cycle  17  Pass 1  IDiag  1:
 E= -1136.09387021928     Delta-E=       -0.000000483213 Rises=F Damp=F
 DIIS: error= 1.87D-06 at cycle  17 NSaved=  17.
 NSaved=17 IEnMin=17 EnMin= -1136.09387021928     IErMin=17 ErrMin= 1.87D-06
 ErrMax= 1.87D-06  0.00D+00 EMaxC= 1.00D-01 BMatC= 1.69D-09 BMatP= 6.96D-09
 IDIUse=1 WtCom= 1.00D+00 WtEn= 0.00D+00
 Coeff-Com:  0.899D-04-0.118D-03-0.195D-03-0.964D-04-0.147D-02-0.523D-02
 Coeff-Com: -0.947D-02 0.752D-02 0.117D+00-0.488D-01-0.201D+00 0.179D-01
 Coeff-Com:  0.370D+00 0.150D+00-0.802D+00 0.171D+00 0.123D+01
 Coeff:      0.899D-04-0.118D-03-0.195D-03-0.964D-04-0.147D-02-0.523D-02
 Coeff:     -0.947D-02 0.752D-02 0.117D+00-0.488D-01-0.201D+00 0.179D-01
 Coeff:      0.370D+00 0.150D+00-0.802D+00 0.171D+00 0.123D+01
 Gap=     0.040 Goal=   None    Shift=    0.000
 Gap=     0.030 Goal=   None    Shift=    0.000
 RMSDP=9.69D-05 MaxDP=8.50D-03 DE=-4.83D-07 OVMax= 2.12D-03

 Cycle  18  Pass 1  IDiag  1:
 E= -1136.09387028492     Delta-E=       -0.000000065641 Rises=F Damp=F
 DIIS: error= 7.59D-07 at cycle  18 NSaved=  18.
 NSaved=18 IEnMin=18 EnMin= -1136.09387028492     IErMin=18 ErrMin= 7.59D-07
 ErrMax= 7.59D-07  0.00D+00 EMaxC= 1.00D-01 BMatC= 3.13D-10 BMatP= 1.69D-09
 IDIUse=1 WtCom= 1.00D+00 WtEn= 0.00D+00
 Coeff-Com:  0.279D-04-0.364D-04 0.103D-03 0.273D-04-0.576D-03-0.297D-02
 Coeff-Com: -0.945D-02 0.157D-02 0.279D-01 0.429D-01-0.477D-01-0.886D-01
 Coeff-Com: -0.375D-01 0.161D+00 0.242D+00-0.582D+00-0.324D-01 0.133D+01
 Coeff:      0.279D-04-0.364D-04 0.103D-03 0.273D-04-0.576D-03-0.297D-02
 Coeff:     -0.945D-02 0.157D-02 0.279D-01 0.429D-01-0.477D-01-0.886D-01
 Coeff:     -0.375D-01 0.161D+00 0.242D+00-0.582D+00-0.324D-01 0.133D+01
 Gap=     0.040 Goal=   None    Shift=    0.000
 Gap=     0.030 Goal=   None    Shift=    0.000
 RMSDP=2.88D-05 MaxDP=2.49D-03 DE=-6.56D-08 OVMax= 7.00D-04

 Cycle  19  Pass 1  IDiag  1:
 E= -1136.09387029290     Delta-E=       -0.000000007983 Rises=F Damp=F
 DIIS: error= 4.68D-07 at cycle  19 NSaved=  19.
 NSaved=19 IEnMin=19 EnMin= -1136.09387029290     IErMin=19 ErrMin= 4.68D-07
 ErrMax= 4.68D-07  0.00D+00 EMaxC= 1.00D-01 BMatC= 5.85D-11 BMatP= 3.13D-10
 IDIUse=1 WtCom= 1.00D+00 WtEn= 0.00D+00
 Coeff-Com: -0.304D-04 0.397D-04 0.190D-04 0.199D-04 0.300D-03 0.109D-02
 Coeff-Com:  0.430D-02 0.195D-03-0.329D-01 0.108D-01 0.466D-01-0.261D-02
 Coeff-Com: -0.896D-01-0.130D-01 0.172D+00-0.869D-01-0.222D+00 0.158D+00
 Coeff-Com:  0.105D+01
 Coeff:     -0.304D-04 0.397D-04 0.190D-04 0.199D-04 0.300D-03 0.109D-02
 Coeff:      0.430D-02 0.195D-03-0.329D-01 0.108D-01 0.466D-01-0.261D-02
 Coeff:     -0.896D-01-0.130D-01 0.172D+00-0.869D-01-0.222D+00 0.158D+00
 Coeff:      0.105D+01
 Gap=     0.040 Goal=   None    Shift=    0.000
 Gap=     0.030 Goal=   None    Shift=    0.000
 RMSDP=7.16D-06 MaxDP=5.69D-04 DE=-7.98D-09 OVMax= 1.97D-04

 Cycle  20  Pass 1  IDiag  1:
 E= -1136.09387029350     Delta-E=       -0.000000000601 Rises=F Damp=F
 DIIS: error= 1.52D-07 at cycle  20 NSaved=  20.
 NSaved=20 IEnMin=20 EnMin= -1136.09387029350     IErMin=20 ErrMin= 1.52D-07
 ErrMax= 1.52D-07  0.00D+00 EMaxC= 1.00D-01 BMatC= 7.77D-12 BMatP= 5.85D-11
 IDIUse=1 WtCom= 1.00D+00 WtEn= 0.00D+00
 Coeff-Com: -0.240D-05 0.317D-05 0.566D-05 0.160D-04 0.426D-04 0.406D-04
 Coeff-Com:  0.431D-03-0.560D-03-0.298D-02 0.556D-04 0.570D-02 0.311D-02
 Coeff-Com: -0.740D-02-0.153D-01 0.450D-02 0.453D-01-0.339D-01-0.150D+00
 Coeff-Com:  0.246D+00 0.905D+00
 Coeff:     -0.240D-05 0.317D-05 0.566D-05 0.160D-04 0.426D-04 0.406D-04
 Coeff:      0.431D-03-0.560D-03-0.298D-02 0.556D-04 0.570D-02 0.311D-02
 Coeff:     -0.740D-02-0.153D-01 0.450D-02 0.453D-01-0.339D-01-0.150D+00
 Coeff:      0.246D+00 0.905D+00
 Gap=     0.040 Goal=   None    Shift=    0.000
 Gap=     0.030 Goal=   None    Shift=    0.000
 RMSDP=2.32D-06 MaxDP=1.82D-04 DE=-6.01D-10 OVMax= 5.86D-05

 Cycle  21  Pass 1  IDiag  1:
 E= -1136.09387029356     Delta-E=       -0.000000000056 Rises=F Damp=F
 DIIS: error= 4.37D-08 at cycle  21 NSaved=  20.
 NSaved=20 IEnMin=20 EnMin= -1136.09387029356     IErMin=20 ErrMin= 4.37D-08
 ErrMax= 4.37D-08  0.00D+00 EMaxC= 1.00D-01 BMatC= 7.10D-13 BMatP= 7.77D-12
 IDIUse=1 WtCom= 1.00D+00 WtEn= 0.00D+00
 Coeff-Com:  0.125D-06-0.215D-05-0.823D-06 0.243D-04 0.141D-03-0.245D-03
 Coeff-Com: -0.525D-03 0.114D-02 0.595D-03-0.293D-02-0.924D-03 0.978D-02
 Coeff-Com:  0.207D-03-0.232D-01 0.229D-01 0.182D-01-0.423D-01-0.652D-01
 Coeff-Com:  0.538D-01 0.103D+01
 Coeff:      0.125D-06-0.215D-05-0.823D-06 0.243D-04 0.141D-03-0.245D-03
 Coeff:     -0.525D-03 0.114D-02 0.595D-03-0.293D-02-0.924D-03 0.978D-02
 Coeff:      0.207D-03-0.232D-01 0.229D-01 0.182D-01-0.423D-01-0.652D-01
 Coeff:      0.538D-01 0.103D+01
 Gap=     0.040 Goal=   None    Shift=    0.000
 Gap=     0.030 Goal=   None    Shift=    0.000
 RMSDP=4.03D-07 MaxDP=4.62D-05 DE=-5.57D-11 OVMax= 6.95D-06

 Cycle  22  Pass 1  IDiag  1:
 E= -1136.09387029356     Delta-E=        0.000000000001 Rises=F Damp=F
 DIIS: error= 1.48D-08 at cycle  22 NSaved=  20.
 NSaved=20 IEnMin=19 EnMin= -1136.09387029356     IErMin=20 ErrMin= 1.48D-08
 ErrMax= 1.48D-08  0.00D+00 EMaxC= 1.00D-01 BMatC= 1.16D-13 BMatP= 7.10D-13
 IDIUse=1 WtCom= 1.00D+00 WtEn= 0.00D+00
 Coeff-Com: -0.108D-05-0.191D-05 0.795D-06 0.194D-04-0.447D-04 0.374D-04
 Coeff-Com:  0.375D-03-0.387D-03-0.513D-03 0.373D-03 0.500D-03 0.134D-02
 Coeff-Com: -0.555D-03-0.427D-02 0.275D-02 0.171D-01-0.213D-01-0.127D+00
 Coeff-Com:  0.488D-01 0.108D+01
 Coeff:     -0.108D-05-0.191D-05 0.795D-06 0.194D-04-0.447D-04 0.374D-04
 Coeff:      0.375D-03-0.387D-03-0.513D-03 0.373D-03 0.500D-03 0.134D-02
 Coeff:     -0.555D-03-0.427D-02 0.275D-02 0.171D-01-0.213D-01-0.127D+00
 Coeff:      0.488D-01 0.108D+01
 Gap=     0.040 Goal=   None    Shift=    0.000
 Gap=     0.030 Goal=   None    Shift=    0.000
 RMSDP=1.63D-07 MaxDP=1.71D-05 DE= 9.09D-13 OVMax= 1.85D-06

 Cycle  23  Pass 1  IDiag  1:
 E= -1136.09387029356     Delta-E=       -0.000000000008 Rises=F Damp=F
 DIIS: error= 9.14D-09 at cycle  23 NSaved=  20.
 NSaved=20 IEnMin=20 EnMin= -1136.09387029356     IErMin=20 ErrMin= 9.14D-09
 ErrMax= 9.14D-09  0.00D+00 EMaxC= 1.00D-01 BMatC= 3.03D-14 BMatP= 1.16D-13
 IDIUse=1 WtCom= 1.00D+00 WtEn= 0.00D+00
 Coeff-Com: -0.536D-06-0.615D-05-0.289D-04 0.828D-04 0.156D-03-0.269D-03
 Coeff-Com: -0.518D-03 0.873D-03 0.573D-03-0.187D-02-0.716D-03 0.425D-02
 Coeff-Com: -0.335D-02-0.338D-02 0.717D-02 0.114D-01-0.203D-01-0.200D+00
 Coeff-Com:  0.184D+00 0.102D+01
 Coeff:     -0.536D-06-0.615D-05-0.289D-04 0.828D-04 0.156D-03-0.269D-03
 Coeff:     -0.518D-03 0.873D-03 0.573D-03-0.187D-02-0.716D-03 0.425D-02
 Coeff:     -0.335D-02-0.338D-02 0.717D-02 0.114D-01-0.203D-01-0.200D+00
 Coeff:      0.184D+00 0.102D+01
 Gap=     0.040 Goal=   None    Shift=    0.000
 Gap=     0.030 Goal=   None    Shift=    0.000
 RMSDP=5.00D-08 MaxDP=4.63D-06 DE=-7.96D-12 OVMax= 9.80D-07

 Cycle  24  Pass 1  IDiag  1:
 E= -1136.09387029356     Delta-E=        0.000000000007 Rises=F Damp=F
 DIIS: error= 4.62D-09 at cycle  24 NSaved=  20.
 NSaved=20 IEnMin=19 EnMin= -1136.09387029356     IErMin=20 ErrMin= 4.62D-09
 ErrMax= 4.62D-09  0.00D+00 EMaxC= 1.00D-01 BMatC= 5.64D-15 BMatP= 3.03D-14
 IDIUse=1 WtCom= 1.00D+00 WtEn= 0.00D+00
 Coeff-Com: -0.107D-05-0.176D-05 0.426D-04 0.942D-05-0.200D-03 0.231D-04
 Coeff-Com:  0.321D-03 0.772D-04-0.398D-03-0.633D-03 0.889D-03 0.538D-03
 Coeff-Com: -0.133D-02-0.219D-02 0.429D-02 0.265D-01-0.370D-01-0.203D+00
 Coeff-Com:  0.112D+00 0.110D+01
 Coeff:     -0.107D-05-0.176D-05 0.426D-04 0.942D-05-0.200D-03 0.231D-04
 Coeff:      0.321D-03 0.772D-04-0.398D-03-0.633D-03 0.889D-03 0.538D-03
 Coeff:     -0.133D-02-0.219D-02 0.429D-02 0.265D-01-0.370D-01-0.203D+00
 Coeff:      0.112D+00 0.110D+01
 Gap=     0.040 Goal=   None    Shift=    0.000
 Gap=     0.030 Goal=   None    Shift=    0.000
 RMSDP=6.72D-08 MaxDP=6.04D-06 DE= 7.28D-12 OVMax= 9.63D-07

 Cycle  25  Pass 1  IDiag  1:
 E= -1136.09387029356     Delta-E=       -0.000000000006 Rises=F Damp=F
 DIIS: error= 1.53D-09 at cycle  25 NSaved=  20.
 NSaved=20 IEnMin=18 EnMin= -1136.09387029356     IErMin=20 ErrMin= 1.53D-09
 ErrMax= 1.53D-09  0.00D+00 EMaxC= 1.00D-01 BMatC= 7.44D-16 BMatP= 5.64D-15
 IDIUse=1 WtCom= 1.00D+00 WtEn= 0.00D+00
 Large coefficients: NSaved= 20 BigCof=    0.00 CofMax=   10.00 Det=-1.90D-15
 Inversion failed.  Reducing to 19 matrices.
 Large coefficients: NSaved= 19 BigCof=    0.00 CofMax=   10.00 Det=-2.08D-15
 Inversion failed.  Reducing to 18 matrices.
 Large coefficients: NSaved= 18 BigCof=    0.00 CofMax=   10.00 Det=-2.16D-15
 Inversion failed.  Reducing to 17 matrices.
 Large coefficients: NSaved= 17 BigCof=    0.00 CofMax=   10.00 Det=-2.49D-15
 Inversion failed.  Reducing to 16 matrices.
 Large coefficients: NSaved= 16 BigCof=    0.00 CofMax=   10.00 Det=-2.60D-15
 Inversion failed.  Reducing to 15 matrices.
 Coeff-Com: -0.304D-04 0.138D-04 0.829D-04 0.339D-04-0.129D-03-0.282D-04
 Coeff-Com:  0.595D-04 0.930D-05-0.400D-03 0.302D-02 0.419D-02-0.250D-01
 Coeff-Com: -0.110D+00 0.727D-01 0.106D+01
 Coeff:     -0.304D-04 0.138D-04 0.829D-04 0.339D-04-0.129D-03-0.282D-04
 Coeff:      0.595D-04 0.930D-05-0.400D-03 0.302D-02 0.419D-02-0.250D-01
 Coeff:     -0.110D+00 0.727D-01 0.106D+01
 Gap=     0.040 Goal=   None    Shift=    0.000
 Gap=     0.030 Goal=   None    Shift=    0.000
 RMSDP=1.95D-08 MaxDP=1.39D-06 DE=-5.68D-12 OVMax= 2.76D-07

 Cycle  26  Pass 1  IDiag  1:
 E= -1136.09387029356     Delta-E=        0.000000000000 Rises=F Damp=F
 DIIS: error= 7.45D-10 at cycle  26 NSaved=  16.
 NSaved=16 IEnMin=13 EnMin= -1136.09387029356     IErMin=16 ErrMin= 7.45D-10
 ErrMax= 7.45D-10  0.00D+00 EMaxC= 1.00D-01 BMatC= 2.03D-16 BMatP= 7.44D-16
 IDIUse=1 WtCom= 1.00D+00 WtEn= 0.00D+00
 Large coefficients: NSaved= 16 BigCof=    0.00 CofMax=   10.00 Det=-4.15D-16
 Inversion failed.  Reducing to 15 matrices.
 Coeff-Com: -0.673D-05 0.262D-05 0.681D-05-0.281D-04 0.636D-04-0.136D-04
 Coeff-Com: -0.229D-03 0.138D-03 0.180D-02 0.313D-02 0.451D-03-0.436D-01
 Coeff-Com: -0.776D-01 0.275D+00 0.841D+00
 Coeff:     -0.673D-05 0.262D-05 0.681D-05-0.281D-04 0.636D-04-0.136D-04
 Coeff:     -0.229D-03 0.138D-03 0.180D-02 0.313D-02 0.451D-03-0.436D-01
 Coeff:     -0.776D-01 0.275D+00 0.841D+00
 Gap=     0.040 Goal=   None    Shift=    0.000
 Gap=     0.030 Goal=   None    Shift=    0.000
 RMSDP=9.71D-09 MaxDP=7.45D-07 DE= 0.00D+00 OVMax= 7.86D-08

 SCF Done:  E(UB3LYP) =  -1136.09387029     A.U. after   26 cycles
            NFock= 26  Conv=0.97D-08     -V/T= 2.0026
 <Sx>= 0.0000 <Sy>= 0.0000 <Sz>= 0.5000 <S**2>= 0.7750 S= 0.5124
 <L.S>= 0.000000000000E+00
 KE= 1.133128463155D+03 PE=-3.408265359030D+03 EE= 7.994959814238D+02
 Annihilation of the first spin contaminant:
 S**2 before annihilation     0.7750,   after     0.7504
 Leave Link  502 at Mon Nov 13 15:10:58 2023, MaxMem=  1879048192 cpu:             244.0 elap:              21.0
 (Enter /home/sekinelabo/g16/l601.exe)
 Copying SCF densities to generalized density rwf, IOpCl= 1 IROHF=0.

 **********************************************************************

            Population analysis using the SCF Density.

 **********************************************************************

 Orbital symmetries:
 Alpha Orbitals:
       Occupied  (A) (A) (A) (A) (A) (A) (A) (A) (A) (A) (A) (A)
                 (A) (A) (A) (A) (A) (A) (A) (A) (A) (A) (A) (A)
                 (A) (A) (A) (A) (A) (A) (A) (A) (A) (A) (A) (A)
                 (A) (A) (A)
       Virtual   (A) (A) (A) (A) (A) (A) (A) (A) (A) (A) (A) (A)
                 (A) (A) (A) (A) (A) (A) (A) (A) (A) (A) (A) (A)
                 (A) (A) (A) (A) (A) (A) (A) (A) (A) (A) (A) (A)
                 (A) (A) (A) (A) (A) (A) (A) (A) (A) (A) (A) (A)
                 (A) (A) (A) (A) (A) (A) (A) (A) (A) (A) (A) (A)
                 (A) (A) (A) (A) (A) (A) (A) (A) (A) (A) (A) (A)
                 (A) (A) (A) (A) (A) (A) (A) (A) (A) (A) (A) (A)
                 (A) (A) (A) (A) (A) (A) (A) (A) (A) (A) (A) (A)
                 (A) (A) (A) (A) (A) (A) (A) (A) (A) (A) (A) (A)
                 (A) (A) (A) (A) (A) (A) (A) (A) (A) (A) (A) (A)
                 (A) (A) (A) (A) (A) (A) (A) (A) (A) (A) (A) (A)
                 (A) (A) (A) (A) (A) (A) (A) (A) (A) (A) (A) (A)
                 (A) (A) (A) (A) (A) (A) (A) (A) (A) (A) (A) (A)
                 (A) (A) (A) (A) (A) (A) (A) (A) (A) (A) (A) (A)
                 (A) (A) (A)
 Beta  Orbitals:
       Occupied  (A) (A) (A) (A) (A) (A) (A) (A) (A) (A) (A) (A)
                 (A) (A) (A) (A) (A) (A) (A) (A) (A) (A) (A) (A)
                 (A) (A) (A) (A) (A) (A) (A) (A) (A) (A) (A) (A)
                 (A) (A)
       Virtual   (A) (A) (A) (A) (A) (A) (A) (A) (A) (A) (A) (A)
                 (A) (A) (A) (A) (A) (A) (A) (A) (A) (A) (A) (A)
                 (A) (A) (A) (A) (A) (A) (A) (A) (A) (A) (A) (A)
                 (A) (A) (A) (A) (A) (A) (A) (A) (A) (A) (A) (A)
                 (A) (A) (A) (A) (A) (A) (A) (A) (A) (A) (A) (A)
                 (A) (A) (A) (A) (A) (A) (A) (A) (A) (A) (A) (A)
                 (A) (A) (A) (A) (A) (A) (A) (A) (A) (A) (A) (A)
                 (A) (A) (A) (A) (A) (A) (A) (A) (A) (A) (A) (A)
                 (A) (A) (A) (A) (A) (A) (A) (A) (A) (A) (A) (A)
                 (A) (A) (A) (A) (A) (A) (A) (A) (A) (A) (A) (A)
                 (A) (A) (A) (A) (A) (A) (A) (A) (A) (A) (A) (A)
                 (A) (A) (A) (A) (A) (A) (A) (A) (A) (A) (A) (A)
                 (A) (A) (A) (A) (A) (A) (A) (A) (A) (A) (A) (A)
                 (A) (A) (A) (A) (A) (A) (A) (A) (A) (A) (A) (A)
                 (A) (A) (A) (A)
 The electronic state is 2-A.
 Alpha  occ. eigenvalues --  -38.45220 -38.45023 -38.44865 -38.44646 -38.43748
 Alpha  occ. eigenvalues --  -38.43473 -38.42340  -2.21138  -2.20938  -2.20693
 Alpha  occ. eigenvalues --   -2.20648  -2.19841  -2.19444  -2.18244  -1.14862
 Alpha  occ. eigenvalues --   -1.14797  -1.14705  -1.14679  -1.14607  -1.14514
 Alpha  occ. eigenvalues --   -1.14387  -1.14355  -1.14351  -1.14299  -1.14290
 Alpha  occ. eigenvalues --   -1.14287  -1.13544  -1.13511  -1.13451  -1.13166
 Alpha  occ. eigenvalues --   -1.13094  -1.13059  -1.11922  -1.11907  -1.11868
 Alpha  occ. eigenvalues --   -0.19222  -0.13884  -0.12229  -0.11242
 Alpha virt. eigenvalues --   -0.07281  -0.04676  -0.03897  -0.03409  -0.02889
 Alpha virt. eigenvalues --   -0.02647  -0.02356  -0.01260  -0.00648  -0.00063
 Alpha virt. eigenvalues --    0.00019   0.00081   0.00293   0.00702   0.00877
 Alpha virt. eigenvalues --    0.00969   0.01115   0.01206   0.01295   0.01382
 Alpha virt. eigenvalues --    0.01431   0.01519   0.01757   0.01840   0.01874
 Alpha virt. eigenvalues --    0.02123   0.02298   0.02345   0.02637   0.02685
 Alpha virt. eigenvalues --    0.02780   0.02833   0.02915   0.02979   0.03064
 Alpha virt. eigenvalues --    0.03240   0.03298   0.03340   0.03602   0.03633
 Alpha virt. eigenvalues --    0.04061   0.04089   0.04167   0.04526   0.04628
 Alpha virt. eigenvalues --    0.05003   0.05295   0.05551   0.05773   0.06077
 Alpha virt. eigenvalues --    0.06104   0.06728   0.06768   0.07036   0.07580
 Alpha virt. eigenvalues --    0.07821   0.07954   0.08511   0.08661   0.08864
 Alpha virt. eigenvalues --    0.09223   0.09509   0.09741   0.09906   0.10907
 Alpha virt. eigenvalues --    0.11855   0.12178   0.12596   0.12694   0.13472
 Alpha virt. eigenvalues --    0.13830   0.14295   0.14425   0.15159   0.15481
 Alpha virt. eigenvalues --    0.15791   0.15824   0.16237   0.17370   0.19509
 Alpha virt. eigenvalues --    0.24784   0.25629   0.27514   0.28496   0.29183
 Alpha virt. eigenvalues --    0.29631   0.31052   0.32340   0.33213   0.34200
 Alpha virt. eigenvalues --    0.35180   0.35554   0.36019   0.37013   0.37323
 Alpha virt. eigenvalues --    0.37864   0.38236   0.39561   0.40079   0.40302
 Alpha virt. eigenvalues --    0.41784   0.42973   0.43277   0.43542   0.43593
 Alpha virt. eigenvalues --    0.44339   0.44583   0.44924   0.45391   0.45754
 Alpha virt. eigenvalues --    0.46058   0.47031   0.47553   0.48328   0.48715
 Alpha virt. eigenvalues --    0.49283   0.50623   0.51943   0.52147   0.52516
 Alpha virt. eigenvalues --    0.53238   0.53778   0.55340   0.55814   0.56889
 Alpha virt. eigenvalues --    0.57838   0.59892   0.63463   0.65686   0.69599
 Alpha virt. eigenvalues --    0.71082   0.73433   0.74531   0.75765   0.78123
 Alpha virt. eigenvalues --    0.80193   2.08102   2.10621   2.14855   2.16291
 Alpha virt. eigenvalues --    2.20860   2.29676   2.31707   4.41065   4.41534
 Alpha virt. eigenvalues --    4.42071   4.42291   4.43595   4.43812   4.44349
 Alpha virt. eigenvalues --    4.45095   4.45230   4.45962   4.46891   4.48110
 Alpha virt. eigenvalues --    4.48206   4.57869   4.61051   4.62744   4.66856
 Alpha virt. eigenvalues --    4.71210   4.72418   4.74246   4.77392  96.28669
 Alpha virt. eigenvalues --   96.32138  96.37725  96.39806  96.45649  96.57130
 Alpha virt. eigenvalues --   96.60275
  Beta  occ. eigenvalues --  -38.45112 -38.44934 -38.44878 -38.44622 -38.43722
  Beta  occ. eigenvalues --  -38.43469 -38.42346  -2.20941  -2.20777  -2.20671
  Beta  occ. eigenvalues --   -2.20659  -2.19802  -2.19437  -2.18257  -1.14735
  Beta  occ. eigenvalues --   -1.14656  -1.14583  -1.14567  -1.14492  -1.14404
  Beta  occ. eigenvalues --   -1.14369  -1.14347  -1.14314  -1.14306  -1.14303
  Beta  occ. eigenvalues --   -1.14229  -1.13497  -1.13445  -1.13427  -1.13161
  Beta  occ. eigenvalues --   -1.13092  -1.13051  -1.11931  -1.11916  -1.11871
  Beta  occ. eigenvalues --   -0.18373  -0.13743  -0.11092
  Beta virt. eigenvalues --   -0.08053  -0.06963  -0.04324  -0.03598  -0.03057
  Beta virt. eigenvalues --   -0.02609  -0.02114  -0.01705  -0.00746  -0.00563
  Beta virt. eigenvalues --    0.00003   0.00065   0.00253   0.00326   0.00781
  Beta virt. eigenvalues --    0.00949   0.01028   0.01185   0.01280   0.01401
  Beta virt. eigenvalues --    0.01486   0.01520   0.01716   0.01850   0.01904
  Beta virt. eigenvalues --    0.01949   0.02164   0.02319   0.02446   0.02687
  Beta virt. eigenvalues --    0.02711   0.02791   0.02885   0.02943   0.03060
  Beta virt. eigenvalues --    0.03147   0.03319   0.03399   0.03406   0.03659
  Beta virt. eigenvalues --    0.03783   0.04113   0.04214   0.04329   0.04651
  Beta virt. eigenvalues --    0.04727   0.05175   0.05398   0.05684   0.05876
  Beta virt. eigenvalues --    0.06120   0.06223   0.06776   0.06835   0.07114
  Beta virt. eigenvalues --    0.07705   0.08017   0.08132   0.08577   0.08742
  Beta virt. eigenvalues --    0.09009   0.09552   0.09779   0.09880   0.09996
  Beta virt. eigenvalues --    0.11230   0.12092   0.12484   0.12675   0.12943
  Beta virt. eigenvalues --    0.13645   0.14030   0.14384   0.14568   0.15262
  Beta virt. eigenvalues --    0.15718   0.15933   0.16060   0.16449   0.17532
  Beta virt. eigenvalues --    0.19796   0.24962   0.26229   0.27917   0.29028
  Beta virt. eigenvalues --    0.29690   0.29816   0.31238   0.32566   0.33498
  Beta virt. eigenvalues --    0.34522   0.35196   0.36109   0.36393   0.37220
  Beta virt. eigenvalues --    0.37529   0.38167   0.38642   0.40089   0.40322
  Beta virt. eigenvalues --    0.40483   0.41926   0.43124   0.43343   0.43772
  Beta virt. eigenvalues --    0.43834   0.44446   0.44636   0.45076   0.45623
  Beta virt. eigenvalues --    0.46014   0.46154   0.47214   0.47731   0.48498
  Beta virt. eigenvalues --    0.48862   0.49386   0.50894   0.52031   0.52385
  Beta virt. eigenvalues --    0.52639   0.53479   0.53875   0.55553   0.55908
  Beta virt. eigenvalues --    0.57033   0.57975   0.60060   0.63754   0.65822
  Beta virt. eigenvalues --    0.69628   0.71083   0.73643   0.74750   0.75946
  Beta virt. eigenvalues --    0.78125   0.80173   2.08210   2.10724   2.14974
  Beta virt. eigenvalues --    2.16666   2.20894   2.29775   2.31736   4.41185
  Beta virt. eigenvalues --    4.41673   4.42099   4.42342   4.43612   4.43817
  Beta virt. eigenvalues --    4.44451   4.45170   4.45259   4.45994   4.46959
  Beta virt. eigenvalues --    4.48171   4.48258   4.57897   4.61107   4.62843
  Beta virt. eigenvalues --    4.66869   4.71331   4.72452   4.74263   4.77398
  Beta virt. eigenvalues --   96.28706  96.32171  96.37762  96.39933  96.45660
  Beta virt. eigenvalues --   96.57175  96.60290
          Condensed to atoms (all electrons):
               1          2          3          4          5          6
     1  Na  17.461641  -1.702840  -0.930828  -2.099448   1.609310  -4.087602
     2  Na  -1.702840  13.874914  -1.037414  -1.605915   1.510398   0.830207
     3  Na  -0.930828  -1.037414  11.899386   0.863979  -1.344903   0.928698
     4  Na  -2.099448  -1.605915   0.863979  13.844648  -1.611099   1.248807
     5  Na   1.609310   1.510398  -1.344903  -1.611099  12.848907  -1.523322
     6  Na  -4.087602   0.830207   0.928698   1.248807  -1.523322  15.152459
     7  Na   1.989625  -1.657003   0.440426   0.382005  -0.465244  -2.164932
               7
     1  Na   1.989625
     2  Na  -1.657003
     3  Na   0.440426
     4  Na   0.382005
     5  Na  -0.465244
     6  Na  -2.164932
     7  Na  12.772235
          Atomic-Atomic Spin Densities.
               1          2          3          4          5          6
     1  Na   0.094069   0.724862  -0.016209  -0.742038   0.028679   0.320750
     2  Na   0.724862   1.062708  -0.631048  -1.039278   1.107143  -0.366198
     3  Na  -0.016209  -0.631048   0.535050   0.568323  -0.589942   0.006214
     4  Na  -0.742038  -1.039278   0.568323   1.547611  -0.930142   0.374026
     5  Na   0.028679   1.107143  -0.589942  -0.930142   1.107555  -0.005264
     6  Na   0.320750  -0.366198   0.006214   0.374026  -0.005264   0.007850
     7  Na  -0.137527  -0.553760   0.406994   0.402232  -0.759129  -0.201159
               7
     1  Na  -0.137527
     2  Na  -0.553760
     3  Na   0.406994
     4  Na   0.402232
     5  Na  -0.759129
     6  Na  -0.201159
     7  Na   0.710102
 Mulliken charges and spin densities:
               1          2
     1  Na  -1.239858   0.272585
     2  Na   0.787653   0.304428
     3  Na   0.180656   0.279381
     4  Na  -0.022978   0.180735
     5  Na  -0.024048  -0.041101
     6  Na   0.615685   0.136219
     7  Na  -0.297112  -0.132248
 Sum of Mulliken charges =  -0.00000   1.00000
 Mulliken charges and spin densities with hydrogens summed into heavy atoms:
               1          2
     1  Na  -1.239858   0.272585
     2  Na   0.787653   0.304428
     3  Na   0.180656   0.279381
     4  Na  -0.022978   0.180735
     5  Na  -0.024048  -0.041101
     6  Na   0.615685   0.136219
     7  Na  -0.297112  -0.132248
 Electronic spatial extent (au):  <R**2>=           2643.5837
 Charge=             -0.0000 electrons
 Dipole moment (field-independent basis, Debye):
    X=              0.4529    Y=             -0.3219    Z=              0.4823  Tot=              0.7357
 Quadrupole moment (field-independent basis, Debye-Ang):
   XX=            -52.9701   YY=            -76.3944   ZZ=            -64.2619
   XY=              0.2840   XZ=             -3.0693   YZ=              0.9200
 Traceless Quadrupole moment (field-independent basis, Debye-Ang):
   XX=             11.5720   YY=            -11.8523   ZZ=              0.2802
   XY=              0.2840   XZ=             -3.0693   YZ=              0.9200
 Octapole moment (field-independent basis, Debye-Ang**2):
  XXX=            -42.7348  YYY=              7.2005  ZZZ=              5.9165  XYY=             -4.3704
  XXY=             -2.7684  XXZ=             14.9559  XZZ=             24.8074  YZZ=             -9.3654
  YYZ=              0.8100  XYZ=              7.0222
 Hexadecapole moment (field-independent basis, Debye-Ang**3):
 XXXX=          -2135.6756 YYYY=          -1123.5477 ZZZZ=           -822.1207 XXXY=             85.6407
 XXXZ=           -115.9100 YYYX=            -31.1093 YYYZ=              8.1842 ZZZX=              7.6984
 ZZZY=             16.0357 XXYY=           -631.9501 XXZZ=           -512.4722 YYZZ=           -343.5408
 XXYZ=             -4.7952 YYXZ=            -19.0553 ZZXY=            -27.2439
 N-N= 3.395470441582D+02 E-N=-3.408265359203D+03  KE= 1.133128463155D+03
                          Isotropic Fermi Contact Couplings
        Atom                 a.u.       MegaHertz       Gauss      10(-4) cm-1
     1  Na(23)            -0.01057     -12.50788      -4.46312      -4.17218
     2  Na(23)             0.37036     438.14182     156.33990     146.14838
     3  Na(23)             0.45783     541.63021     193.26713     180.66839
     4  Na(23)             0.01696      20.05953       7.15774       6.69114
     5  Na(23)            -0.03915     -46.31197     -16.52526     -15.44801
     6  Na(23)             0.01425      16.86379       6.01742       5.62515
     7  Na(23)            -0.05349     -63.28051     -22.58006     -21.10811
 --------------------------------------------------------
       Center         ----  Spin Dipole Couplings  ----
                      3XX-RR        3YY-RR        3ZZ-RR
 --------------------------------------------------------
     1   Atom       -0.047692     -0.040212      0.087904
     2   Atom        0.007150      0.009213     -0.016363
     3   Atom        0.004415      0.009415     -0.013830
     4   Atom       -0.043416     -0.045721      0.089136
     5   Atom       -0.000911     -0.003929      0.004840
     6   Atom       -0.002500     -0.006468      0.008968
     7   Atom        0.002373     -0.001155     -0.001218
 --------------------------------------------------------
                        XY            XZ            YZ
 --------------------------------------------------------
     1   Atom        0.000608      0.006766      0.011584
     2   Atom       -0.004827      0.002122     -0.003303
     3   Atom       -0.002012      0.000317     -0.005143
     4   Atom        0.006941      0.005348      0.016375
     5   Atom       -0.001470     -0.000361      0.001166
     6   Atom       -0.008782     -0.008212     -0.000543
     7   Atom        0.000083      0.000396      0.000168
 --------------------------------------------------------


 ---------------------------------------------------------------------------------
              Anisotropic Spin Dipole Couplings in Principal Axis System
 ---------------------------------------------------------------------------------

       Atom             a.u.   MegaHertz   Gauss  10(-4) cm-1        Axes

              Baa    -0.0480    -6.782    -2.420    -2.262  0.9988 -0.0046 -0.0493
     1 Na(23) Bbb    -0.0413    -5.825    -2.079    -1.943  0.0002  0.9960 -0.0893
              Bcc     0.0893    12.608     4.499     4.205  0.0495  0.0892  0.9948
 
              Baa    -0.0169    -2.384    -0.851    -0.795 -0.0647  0.1135  0.9914
     2 Na(23) Bbb     0.0033     0.459     0.164     0.153  0.7823  0.6225 -0.0202
              Bcc     0.0136     1.924     0.687     0.642 -0.6195  0.7743 -0.1291
 
              Baa    -0.0149    -2.107    -0.752    -0.703  0.0055  0.2072  0.9783
     3 Na(23) Bbb     0.0038     0.536     0.191     0.179  0.9569  0.2829 -0.0653
              Bcc     0.0111     1.570     0.560     0.524 -0.2903  0.9365 -0.1967
 
              Baa    -0.0522    -7.378    -2.633    -2.461 -0.5894  0.8047 -0.0709
     4 Na(23) Bbb    -0.0391    -5.525    -1.972    -1.843  0.8065  0.5813 -0.1078
              Bcc     0.0914    12.904     4.604     4.304  0.0456  0.1207  0.9916
 
              Baa    -0.0046    -0.653    -0.233    -0.218  0.3579  0.9283 -0.1008
     5 Na(23) Bbb    -0.0004    -0.060    -0.021    -0.020  0.9289 -0.3429  0.1397
              Bcc     0.0050     0.712     0.254     0.238 -0.0952  0.1436  0.9850
 
              Baa    -0.0149    -2.103    -0.750    -0.701  0.6633  0.7073  0.2444
     6 Na(23) Bbb     0.0009     0.127     0.045     0.043 -0.5377  0.6776 -0.5018
              Bcc     0.0140     1.975     0.705     0.659 -0.5205  0.2014  0.8297
 
              Baa    -0.0014    -0.194    -0.069    -0.065 -0.0721 -0.5863  0.8069
     7 Na(23) Bbb    -0.0010    -0.147    -0.053    -0.049 -0.0870  0.8096  0.5805
              Bcc     0.0024     0.342     0.122     0.114  0.9936  0.0284  0.1094
 

 ---------------------------------------------------------------------------------

 No NMR shielding tensors so no spin-rotation constants.
 Leave Link  601 at Mon Nov 13 15:10:59 2023, MaxMem=  1879048192 cpu:               2.6 elap:               0.2
 (Enter /home/sekinelabo/g16/l701.exe)
 ... and contract with generalized density number  0.
 Compute integral first derivatives.
 Leave Link  701 at Mon Nov 13 15:10:59 2023, MaxMem=  1879048192 cpu:               1.7 elap:               0.1
 (Enter /home/sekinelabo/g16/l702.exe)
 L702 exits ... SP integral derivatives will be done elsewhere.
 Leave Link  702 at Mon Nov 13 15:10:59 2023, MaxMem=  1879048192 cpu:               0.5 elap:               0.0
 (Enter /home/sekinelabo/g16/l703.exe)
 Integral derivatives from FoFJK, PRISM(SPDF).
 Compute integral first derivatives, UseDBF=F ICtDFT=           0.
 Calling FoFJK, ICntrl=      2127 FMM=F ISym2X=0 I1Cent= 0 IOpClX= 1 NMat=1 NMatS=1 NMatT=0.
 FoFJK:  IHMeth= 1 ICntrl=    2127 DoSepK=F KAlg= 0 I1Cent=           0 FoldK=F
 IRaf=         0 NMat=       1 IRICut=       1 DoRegI=T DoRafI=F ISym2E= 0 IDoP0=0 IntGTp=1.
 FoFCou: FMM=F IPFlag=           0 FMFlag=      100000 FMFlg1=         800
         NFxFlg=           0 DoJE=F BraDBF=F KetDBF=F FulRan=T
         wScrn=  0.000000 ICntrl=      2127 IOpCl=  1 I1Cent=           0 NGrid=           0
         NMat0=    1 NMatS0=      1 NMatT0=    0 NMatD0=    1 NMtDS0=    0 NMtDT0=    0
 Symmetry not used in FoFCou.
 Leave Link  703 at Mon Nov 13 15:11:01 2023, MaxMem=  1879048192 cpu:              34.3 elap:               2.2
 (Enter /home/sekinelabo/g16/l716.exe)
 Dipole        = 1.78171524D-01-1.26629064D-01 1.89762491D-01
 ***** Axes restored to original set *****
 -------------------------------------------------------------------
 Center     Atomic                   Forces (Hartrees/Bohr)
 Number     Number              X              Y              Z
 -------------------------------------------------------------------
      1       11          -0.006711730    0.010756020   -0.003502894
      2       11           0.003922904    0.006163820    0.006962873
      3       11           0.004344780    0.002567469   -0.008573644
      4       11           0.003654260   -0.012409517    0.002583120
      5       11          -0.000996688   -0.009044764   -0.001703448
      6       11          -0.003252031   -0.000483764    0.005966038
      7       11          -0.000961495    0.002450736   -0.001732045
 -------------------------------------------------------------------
 Cartesian Forces:  Max     0.012409517 RMS     0.005731735
 Z-matrix is all fixed cartesians, so copy forces.
 Force constants in Cartesian coordinates: 
                1             2             3             4             5 
      1  0.117183D+00
      2 -0.177675D-01  0.142493D+00
      3  0.132934D-02 -0.109630D-01  0.109627D+00
      4 -0.277165D-01 -0.618107D-02 -0.157350D-01  0.374560D-01
      5  0.137939D-01 -0.175646D-01  0.194495D-01  0.311621D-02  0.463260D-01
      6 -0.893791D-02 -0.486880D-02 -0.317922D-01  0.158498D-01  0.127082D-01
      7 -0.286351D-01 -0.200114D-02  0.174080D-01  0.443505D-02 -0.105029D-02
      8  0.136029D-01 -0.275808D-01 -0.226720D-01  0.331713D-03  0.448318D-02
      9  0.331536D-02  0.284179D-02 -0.260470D-01  0.436777D-02  0.964340D-03
     10 -0.306940D-01  0.122944D-01 -0.142659D-02 -0.133313D-01 -0.105721D-01
     11  0.151327D-01 -0.431969D-01  0.609107D-02  0.616346D-02 -0.339621D-01
     12 -0.269709D-02  0.668918D-02 -0.144310D-01  0.672973D-02 -0.243272D-01
     13  0.244251D-02  0.331831D-02 -0.399089D-02  0.171298D-02 -0.338920D-02
     14 -0.592317D-02 -0.178563D-01 -0.221875D-02 -0.435531D-02 -0.619879D-04
     15 -0.114383D-02  0.530173D-02 -0.939927D-02 -0.643138D-02 -0.544404D-02
     16 -0.303103D-01  0.825010D-02  0.487578D-02 -0.255929D-02 -0.189096D-02
     17 -0.158326D-01 -0.390716D-01  0.135547D-01  0.944504D-03  0.731122D-03
     18  0.562876D-02  0.329391D-02 -0.306859D-01 -0.476098D-02 -0.340004D-02
     19 -0.226970D-02  0.208696D-02 -0.246056D-02  0.306645D-05 -0.760533D-05
     20 -0.300628D-02  0.277693D-02 -0.324143D-02 -0.195046D-04  0.483749D-04
     21  0.250536D-02 -0.229477D-02  0.272838D-02 -0.198647D-04  0.492679D-04
                6             7             8             9            10 
      6  0.553011D-01
      7 -0.462061D-02  0.351940D-01
      8 -0.473444D-02 -0.122544D-02  0.420525D-01
      9 -0.681540D-02 -0.156401D-01 -0.750946D-02  0.629403D-01
     10 -0.381157D-02 -0.114029D-01 -0.846769D-02  0.640379D-02  0.103187D+00
     11 -0.391605D-02  0.342433D-02 -0.244376D-01  0.420493D-02 -0.838994D-02
     12 -0.232185D-01 -0.890801D-02  0.241272D-01 -0.335157D-01  0.135896D-02
     13 -0.508649D-03  0.685115D-03 -0.304811D-02  0.129261D-02 -0.408962D-01
     14  0.152408D-02 -0.230029D-02  0.391316D-03 -0.110127D-02  0.114950D-01
     15  0.277960D-02  0.799768D-02  0.659013D-02  0.202191D-02 -0.164967D-02
     16  0.203230D-02 -0.270030D-03 -0.119833D-02  0.268074D-03 -0.685616D-02
     17 -0.734141D-03  0.311422D-02  0.512284D-02  0.552224D-03  0.363234D-02
     18  0.372385D-02  0.372381D-02  0.423062D-02  0.136761D-02 -0.894218D-03
     19 -0.332698D-05 -0.606966D-05  0.494817D-05 -0.745952D-05 -0.672810D-05
     20  0.211618D-04  0.386070D-04 -0.314736D-04  0.474475D-04  0.805519D-05
     21  0.215524D-04  0.393197D-04 -0.320546D-04  0.483233D-04  0.192915D-04
               11            12            13            14            15 
     11  0.121792D+00
     12 -0.272447D-02  0.864552D-01
     13 -0.201865D-01 -0.478722D-03  0.615540D-01
     14 -0.265103D-01 -0.236223D-02  0.515292D-02  0.791745D-01
     15 -0.351396D-02 -0.181714D-01 -0.872579D-03  0.852084D-02  0.322800D-01
     16  0.384999D-02  0.404675D-02 -0.256129D-01 -0.412068D-02  0.205346D-02
     17  0.629135D-02 -0.141386D-02  0.134581D-01 -0.366293D-01 -0.158030D-01
     18 -0.145641D-03  0.276871D-02  0.150781D-02 -0.530145D-02 -0.124576D-01
     19  0.597468D-05 -0.516253D-04  0.114491D-03  0.515498D-04  0.463146D-04
     20  0.232392D-04  0.113765D-04  0.469449D-02  0.149212D-02  0.434827D-02
     21  0.412217D-05  0.112758D-03  0.305042D-02  0.938787D-03  0.294672D-02
               16            17            18            19            20 
     16  0.928722D-01
     17 -0.992541D-02  0.800761D-01
     18  0.353019D-02 -0.131455D-02  0.529827D-01
     19 -0.272635D-01  0.460883D-02 -0.873537D-02  0.294285D-01
     20  0.503529D-02 -0.165205D-01  0.263715D-02 -0.675066D-02  0.122114D-01
     21 -0.168066D-01  0.515863D-02 -0.176993D-01  0.112120D-01 -0.382398D-02
               21 
     21  0.118416D-01
 Leave Link  716 at Mon Nov 13 15:11:01 2023, MaxMem=  1879048192 cpu:               0.4 elap:               0.0
 (Enter /home/sekinelabo/g16/l103.exe)

 GradGradGradGradGradGradGradGradGradGradGradGradGradGradGradGradGradGrad
 Berny optimization.
 Search for a local minimum.
 Step number   1 out of a maximum of    2
 All quantities printed in internal units (Hartrees-Bohrs-Radians)
 Second derivative matrix not updated -- first step.
 ITU=  0
     Eigenvalues ---    0.00703   0.01643   0.02795   0.04325   0.05072
     Eigenvalues ---    0.06031   0.06871   0.09717   0.11853   0.12521
     Eigenvalues ---    0.13126   0.13716   0.14972   0.16662   0.20655
 Quadratic step=3.381D-01 exceeds max=3.000D-01 adjusted using Lamda=-5.600D-03.
 Angle between NR and scaled steps=   5.18 degrees.
 Angle between quadratic step and forces=  31.22 degrees.
 Linear search not attempted -- first point.
 B after Tr=     0.000000    0.000000    0.000000
         Rot=    1.000000    0.000000   -0.000000    0.000000 Ang=   0.00 deg.
 Variable       Old X    -DE/DX   Delta X   Delta X   Delta X     New X
                                 (Linear)    (Quad)   (Total)
    X1        9.45226  -0.00671   0.00000  -0.03878  -0.03878   9.41348
    Y1        7.55227   0.01076   0.00000   0.03934   0.03934   7.59161
    Z1        4.05242  -0.00350   0.00000  -0.01686  -0.01686   4.03556
    X2       13.14688   0.00392   0.00000   0.04588   0.04588  13.19275
    Y2        7.17052   0.00616   0.00000   0.10337   0.10337   7.27389
    Z2        8.33037   0.00696   0.00000   0.07223   0.07223   8.40260
    X3       13.01319   0.00434   0.00000   0.07135   0.07135  13.08453
    Y3        5.81111   0.00257   0.00000   0.02853   0.02853   5.83964
    Z3        0.00000  -0.00857   0.00000  -0.10487  -0.10487  -0.10487
    X4       12.46548   0.00365   0.00000   0.05490   0.05490  12.52038
    Y4        2.81011  -0.01241   0.00000  -0.06815  -0.06815   2.74196
    Z4        4.77122   0.00258   0.00000   0.01556   0.01556   4.78679
    X5        7.53494  -0.00100   0.00000  -0.01133  -0.01133   7.52361
    Y5        0.00000  -0.00904   0.00000  -0.14605  -0.14605  -0.14605
    Z5        4.76867  -0.00170   0.00000  -0.01721  -0.01721   4.75145
    X6        4.85486  -0.00325   0.00000  -0.07485  -0.07485   4.78001
    Y6        4.84715  -0.00048   0.00000  -0.04477  -0.04477   4.80238
    Z6        5.99883   0.00597   0.00000   0.06672   0.06672   6.06555
    X7        0.00000  -0.00096   0.00000  -0.04716  -0.04716  -0.04716
    Y7        6.51950   0.00245   0.00000   0.08773   0.08773   6.60724
    Z7        3.60735  -0.00173   0.00000  -0.01557  -0.01557   3.59178
         Item               Value     Threshold  Converged?
 Maximum Force            0.012410     0.000450     NO 
 RMS     Force            0.005732     0.000300     NO 
 Maximum Displacement     0.146053     0.001800     NO 
 RMS     Displacement     0.065510     0.001200     NO 
 Predicted change in Energy=-3.624073D-03
 GradGradGradGradGradGradGradGradGradGradGradGradGradGradGradGradGradGrad

 Leave Link  103 at Mon Nov 13 15:11:01 2023, MaxMem=  1879048192 cpu:               0.5 elap:               0.0
 (Enter /home/sekinelabo/g16/l9999.exe)
 1\1\GINC-SEKINELABO-XA7R-R37\Force\UB3LYP\6-311+G(d)\Na7(2)\SEKINELABO
 \13-Nov-2023\0\\#P B3LYP/6-311+g(d) force\\Gaussian input prepared by 
 ASE\\0,2\Na,5.0019213269,3.9964890572,2.1444508688\Na,6.957027396,3.79
 4477784,4.408241467\Na,6.8862825957,3.0751090211,0.\Na,6.5964479669,1.
 487048599,2.5248228612\Na,3.9873200029,0.,2.5234691945\Na,2.569081292,
 2.565000441,3.1744446956\Na,0.,3.4499734072,1.9089296863\\Version=ES64
 L-G16RevB.01\State=2-A\HF=-1136.0938703\S2=0.774991\S2-1=0.\S2A=0.7503
 56\RMSD=9.713e-09\RMSF=5.732e-03\Dipole=0.1781715,0.1266291,-0.1897625
 \Quadrupole=8.603525,-8.8118733,0.2083483,-0.2111637,2.2819414,0.68402
 69\PG=C01 [X(Na7)]\\@


 ONLY THE DAY DAWNS TO WHICH YOU ARE AWAKE.

                                 -- THOREAU
 Job cpu time:       0 days  0 hours  4 minutes 56.6 seconds.
 Elapsed time:       0 days  0 hours  0 minutes 24.4 seconds.
 File lengths (MBytes):  RWF=     32 Int=      0 D2E=      0 Chk=      5 Scr=      1
 Normal termination of Gaussian 16 at Mon Nov 13 15:11:01 2023.
