 Entering Gaussian System, Link 0=g16
 Initial command:
 /home/sekinelabo/g16/l1.exe "/home/sekinelabo/g16temp/Gau-4049308.inp" -scrdir="/home/sekinelabo/g16temp/"
 Entering Link 1 = /home/sekinelabo/g16/l1.exe PID=   4049310.
  
 Copyright (c) 1988-2017, Gaussian, Inc.  All Rights Reserved.
  
 This is part of the Gaussian(R) 16 program.  It is based on
 the Gaussian(R) 09 system (copyright 2009, Gaussian, Inc.),
 the Gaussian(R) 03 system (copyright 2003, Gaussian, Inc.),
 the Gaussian(R) 98 system (copyright 1998, Gaussian, Inc.),
 the Gaussian(R) 94 system (copyright 1995, Gaussian, Inc.),
 the Gaussian 92(TM) system (copyright 1992, Gaussian, Inc.),
 the Gaussian 90(TM) system (copyright 1990, Gaussian, Inc.),
 the Gaussian 88(TM) system (copyright 1988, Gaussian, Inc.),
 the Gaussian 86(TM) system (copyright 1986, Carnegie Mellon
 University), and the Gaussian 82(TM) system (copyright 1983,
 Carnegie Mellon University). Gaussian is a federally registered
 trademark of Gaussian, Inc.
  
 This software contains proprietary and confidential information,
 including trade secrets, belonging to Gaussian, Inc.
  
 This software is provided under written license and may be
 used, copied, transmitted, or stored only in accord with that
 written license.
  
 The following legend is applicable only to US Government
 contracts under FAR:
  
                    RESTRICTED RIGHTS LEGEND
  
 Use, reproduction and disclosure by the US Government is
 subject to restrictions as set forth in subparagraphs (a)
 and (c) of the Commercial Computer Software - Restricted
 Rights clause in FAR 52.227-19.
  
 Gaussian, Inc.
 340 Quinnipiac St., Bldg. 40, Wallingford CT 06492
  
  
 ---------------------------------------------------------------
 Warning -- This program may not be used in any manner that
 competes with the business of Gaussian, Inc. or will provide
 assistance to any competitor of Gaussian, Inc.  The licensee
 of this program is prohibited from giving any competitor of
 Gaussian, Inc. access to this program.  By using this program,
 the user acknowledges that Gaussian, Inc. is engaged in the
 business of creating and licensing software in the field of
 computational chemistry and represents and warrants to the
 licensee that it is not a competitor of Gaussian, Inc. and that
 it will not use this program in any manner prohibited above.
 ---------------------------------------------------------------
  

 Cite this work as:
 Gaussian 16, Revision B.01,
 M. J. Frisch, G. W. Trucks, H. B. Schlegel, G. E. Scuseria, 
 M. A. Robb, J. R. Cheeseman, G. Scalmani, V. Barone, 
 G. A. Petersson, H. Nakatsuji, X. Li, M. Caricato, A. V. Marenich, 
 J. Bloino, B. G. Janesko, R. Gomperts, B. Mennucci, H. P. Hratchian, 
 J. V. Ortiz, A. F. Izmaylov, J. L. Sonnenberg, D. Williams-Young, 
 F. Ding, F. Lipparini, F. Egidi, J. Goings, B. Peng, A. Petrone, 
 T. Henderson, D. Ranasinghe, V. G. Zakrzewski, J. Gao, N. Rega, 
 G. Zheng, W. Liang, M. Hada, M. Ehara, K. Toyota, R. Fukuda, 
 J. Hasegawa, M. Ishida, T. Nakajima, Y. Honda, O. Kitao, H. Nakai, 
 T. Vreven, K. Throssell, J. A. Montgomery, Jr., J. E. Peralta, 
 F. Ogliaro, M. J. Bearpark, J. J. Heyd, E. N. Brothers, K. N. Kudin, 
 V. N. Staroverov, T. A. Keith, R. Kobayashi, J. Normand, 
 K. Raghavachari, A. P. Rendell, J. C. Burant, S. S. Iyengar, 
 J. Tomasi, M. Cossi, J. M. Millam, M. Klene, C. Adamo, R. Cammi, 
 J. W. Ochterski, R. L. Martin, K. Morokuma, O. Farkas, 
 J. B. Foresman, and D. J. Fox, Gaussian, Inc., Wallingford CT, 2016.
 
 ******************************************
 Gaussian 16:  ES64L-G16RevB.01 20-Dec-2017
                13-Nov-2023 
 ******************************************
 %mem=14GB
 %chk=checkpoint.chk
 %nprocshared=16
 Will use up to   16 processors via shared memory.
 -------------------------
 #P B3LYP/6-311+g(d) force
 -------------------------
 1/10=7,30=1,38=1/1,3;
 2/12=2,17=6,18=5,40=1/2;
 3/5=4,6=6,7=11,11=2,25=1,30=1,71=1,74=-5/1,2,3;
 4//1;
 5/5=2,38=5/2;
 6/7=2,8=2,9=2,10=2,28=1/1;
 7/29=1/1,2,3,16;
 1/10=7,30=1/3;
 99//99;
 Leave Link    1 at Mon Nov 13 16:25:16 2023, MaxMem=  1879048192 cpu:               0.3 elap:               0.0
 (Enter /home/sekinelabo/g16/l101.exe)
 ------------------------------
 Gaussian input prepared by ASE
 ------------------------------
 Symbolic Z-matrix:
 Charge =  0 Multiplicity = 2
 Na                    5.49388   3.68259   1.64183 
 Na                    6.30564   1.30968   0. 
 Na                    8.39153   2.96007   1.38266 
 Na                    6.55586   1.21087   2.97727 
 Na                    4.15664   0.        1.63682 
 Na                    2.76913   2.58596   2.2922 
 Na                    0.        2.47605   1.14781 
 
 ITRead=  0  0  0  0  0  0  0
 MicOpt= -1 -1 -1 -1 -1 -1 -1
 NAtoms=      7 NQM=        7 NQMF=       0 NMMI=      0 NMMIF=      0
                NMic=       0 NMicF=      0.
                    Isotopes and Nuclear Properties:
 (Nuclear quadrupole moments (NQMom) in fm**2, nuclear magnetic moments (NMagM)
  in nuclear magnetons)

  Atom         1           2           3           4           5           6           7
 IAtWgt=          23          23          23          23          23          23          23
 AtmWgt=  22.9897697  22.9897697  22.9897697  22.9897697  22.9897697  22.9897697  22.9897697
 NucSpn=           3           3           3           3           3           3           3
 AtZEff=  -0.0000000  -0.0000000  -0.0000000  -0.0000000  -0.0000000  -0.0000000  -0.0000000
 NQMom=   10.4000000  10.4000000  10.4000000  10.4000000  10.4000000  10.4000000  10.4000000
 NMagM=    2.2175200   2.2175200   2.2175200   2.2175200   2.2175200   2.2175200   2.2175200
 AtZNuc=  11.0000000  11.0000000  11.0000000  11.0000000  11.0000000  11.0000000  11.0000000
 Leave Link  101 at Mon Nov 13 16:25:16 2023, MaxMem=  1879048192 cpu:               2.6 elap:               0.2
 (Enter /home/sekinelabo/g16/l103.exe)

 GradGradGradGradGradGradGradGradGradGradGradGradGradGradGradGradGradGrad
 Berny optimization.
 Initialization pass.
 Trust Radius=3.00D-01 FncErr=1.00D-07 GrdErr=1.00D-07 EigMax=2.50D+02 EigMin=1.00D-04
 Number of steps in this run=      2 maximum allowed number of steps=      2.
 GradGradGradGradGradGradGradGradGradGradGradGradGradGradGradGradGradGrad

 Leave Link  103 at Mon Nov 13 16:25:16 2023, MaxMem=  1879048192 cpu:               0.2 elap:               0.0
 (Enter /home/sekinelabo/g16/l202.exe)
                          Input orientation:                          
 ---------------------------------------------------------------------
 Center     Atomic      Atomic             Coordinates (Angstroms)
 Number     Number       Type             X           Y           Z
 ---------------------------------------------------------------------
      1         11           0        5.493881    3.682593    1.641831
      2         11           0        6.305640    1.309678    0.000000
      3         11           0        8.391531    2.960072    1.382662
      4         11           0        6.555856    1.210873    2.977267
      5         11           0        4.156645    0.000000    1.636825
      6         11           0        2.769131    2.585964    2.292202
      7         11           0        0.000000    2.476049    1.147814
 ---------------------------------------------------------------------
                    Distance matrix (angstroms):
                    1          2          3          4          5
     1  Na   0.000000
     2  Na   2.997547   0.000000
     3  Na   2.997595   2.997748   0.000000
     4  Na   3.003428   2.989397   2.995357   0.000000
     5  Na   3.917872   3.002105   5.173092   3.003201   0.000000
     6  Na   3.008296   4.403407   5.707766   4.086500   3.006979
     7  Na   5.646462   6.514522   8.408758   6.922920   4.862885
                    6          7
     6  Na   0.000000
     7  Na   2.998298   0.000000
 Stoichiometry    Na7(2)
 Framework group  C1[X(Na7)]
 Deg. of freedom    15
 Full point group                 C1      NOp   1
 Largest Abelian subgroup         C1      NOp   1
 Largest concise Abelian subgroup C1      NOp   1
                         Standard orientation:                         
 ---------------------------------------------------------------------
 Center     Atomic      Atomic             Coordinates (Angstroms)
 Number     Number       Type             X           Y           Z
 ---------------------------------------------------------------------
      1         11           0        0.683498   -1.650418   -0.059174
      2         11           0        1.495257    0.722497    1.582657
      3         11           0        3.581147   -0.927896    0.199995
      4         11           0        1.745473    0.821303   -1.394610
      5         11           0       -0.653739    2.032176   -0.054167
      6         11           0       -2.041252   -0.553788   -0.709545
      7         11           0       -4.810383   -0.443873    0.434843
 ---------------------------------------------------------------------
 Rotational constants (GHZ):           1.5053016           0.4268762           0.3945011
 Leave Link  202 at Mon Nov 13 16:25:16 2023, MaxMem=  1879048192 cpu:               0.0 elap:               0.0
 (Enter /home/sekinelabo/g16/l301.exe)
 Standard basis: 6-311+G(d) (5D, 7F)
 Ernie: Thresh=  0.10000D-02 Tol=  0.10000D-05 Strict=F.
 There are   217 symmetry adapted cartesian basis functions of A   symmetry.
 There are   210 symmetry adapted basis functions of A   symmetry.
   210 basis functions,   350 primitive gaussians,   217 cartesian basis functions
    39 alpha electrons       38 beta electrons
       nuclear repulsion energy       356.1278856729 Hartrees.
 IExCor=  402 DFT=T Ex+Corr=B3LYP ExCW=0 ScaHFX=  0.200000
 ScaDFX=  0.800000  0.720000  1.000000  0.810000 ScalE2=  1.000000  1.000000
 IRadAn=      5 IRanWt=     -1 IRanGd=            0 ICorTp=0 IEmpDi=  4
 NAtoms=    7 NActive=    7 NUniq=    7 SFac= 1.00D+00 NAtFMM=   60 NAOKFM=F Big=F
 Integral buffers will be    131072 words long.
 Raffenetti 2 integral format.
 Two-electron integral symmetry is turned on.
 Leave Link  301 at Mon Nov 13 16:25:16 2023, MaxMem=  1879048192 cpu:               0.5 elap:               0.0
 (Enter /home/sekinelabo/g16/l302.exe)
 NPDir=0 NMtPBC=     1 NCelOv=     1 NCel=       1 NClECP=     1 NCelD=      1
         NCelK=      1 NCelE2=     1 NClLst=     1 CellRange=     0.0.
 One-electron integrals computed using PRISM.
 One-electron integral symmetry used in STVInt
 NBasis=   210 RedAO= T EigKep=  1.55D-06  NBF=   210
 NBsUse=   210 1.00D-06 EigRej= -1.00D+00 NBFU=   210
 Precomputing XC quadrature grid using
 IXCGrd= 4 IRadAn=           5 IRanWt=          -1 IRanGd=           0 AccXCQ= 0.00D+00.
 Generated NRdTot=       0 NPtTot=           0 NUsed=           0 NTot=          32
 NSgBfM=   208   208   208   208   208 MxSgAt=     7 MxSgA2=     7.
 Leave Link  302 at Mon Nov 13 16:25:17 2023, MaxMem=  1879048192 cpu:               2.1 elap:               0.1
 (Enter /home/sekinelabo/g16/l303.exe)
 DipDrv:  MaxL=1.
 Leave Link  303 at Mon Nov 13 16:25:17 2023, MaxMem=  1879048192 cpu:               0.6 elap:               0.0
 (Enter /home/sekinelabo/g16/l401.exe)
 ExpMin= 7.60D-03 ExpMax= 3.62D+04 ExpMxC= 1.21D+03 IAcc=3 IRadAn=         5 AccDes= 0.00D+00
 Harris functional with IExCor=  402 and IRadAn=       5 diagonalized for initial guess.
 HarFok:  IExCor=  402 AccDes= 0.00D+00 IRadAn=         5 IDoV= 1 UseB2=F ITyADJ=14
 ICtDFT=  3500011 ScaDFX=  1.000000  1.000000  1.000000  1.000000
 FoFCou: FMM=F IPFlag=           0 FMFlag=      100000 FMFlg1=           0
         NFxFlg=           0 DoJE=T BraDBF=F KetDBF=T FulRan=T
         wScrn=  0.000000 ICntrl=       500 IOpCl=  0 I1Cent=   200000004 NGrid=           0
         NMat0=    1 NMatS0=      1 NMatT0=    0 NMatD0=    1 NMtDS0=    0 NMtDT0=    0
 Petite list used in FoFCou.
 Harris En= -1135.86193604724    
 JPrj=0 DoOrth=F DoCkMO=F.
 Initial guess <Sx>= 0.0000 <Sy>= 0.0000 <Sz>= 0.5000 <S**2>= 0.7500 S= 0.5000
 Leave Link  401 at Mon Nov 13 16:25:17 2023, MaxMem=  1879048192 cpu:               4.7 elap:               0.3
 (Enter /home/sekinelabo/g16/l502.exe)
 Keep R1 and R2 ints in memory in canonical form, NReq=507620360.
 FoFCou: FMM=F IPFlag=           0 FMFlag=           0 FMFlg1=           0
         NFxFlg=           0 DoJE=F BraDBF=F KetDBF=F FulRan=T
         wScrn=  0.000000 ICntrl=       600 IOpCl=  0 I1Cent=           0 NGrid=           0
         NMat0=    1 NMatS0=  22155 NMatT0=    0 NMatD0=    1 NMtDS0=    0 NMtDT0=    0
 Symmetry not used in FoFCou.
 Two-electron integral symmetry not used.
 UHF open shell SCF:
 Using DIIS extrapolation, IDIIS=  1040.
 NGot=  1879048192 LenX=  1388082376 LenY=  1388034846
 Requested convergence on RMS density matrix=1.00D-08 within 128 cycles.
 Requested convergence on MAX density matrix=1.00D-06.
 Requested convergence on             energy=1.00D-06.
 No special actions if energy rises.

 Cycle   1  Pass 1  IDiag  1:
 E= -1136.05191563610    
 DIIS: error= 9.74D-03 at cycle   1 NSaved=   1.
 NSaved= 1 IEnMin= 1 EnMin= -1136.05191563610     IErMin= 1 ErrMin= 9.74D-03
 ErrMax= 9.74D-03  0.00D+00 EMaxC= 1.00D-01 BMatC= 1.96D-01 BMatP= 1.96D-01
 IDIUse=3 WtCom= 9.03D-01 WtEn= 9.74D-02
 Coeff-Com:  0.100D+01
 Coeff-En:   0.100D+01
 Coeff:      0.100D+01
 Gap=     0.029 Goal=   None    Shift=    0.000
 Gap=     0.035 Goal=   None    Shift=    0.000
 GapD=    0.029 DampG=0.250 DampE=1.000 DampFc=0.2500 IDamp=-1.
 Damping current iteration by 2.50D-01
 RMSDP=7.51D-02 MaxDP=9.70D+00              OVMax= 3.20D-01

 Cycle   2  Pass 1  IDiag  1:
 E= -1136.06482285479     Delta-E=       -0.012907218686 Rises=F Damp=T
 DIIS: error= 6.93D-03 at cycle   2 NSaved=   2.
 NSaved= 2 IEnMin= 2 EnMin= -1136.06482285479     IErMin= 2 ErrMin= 6.93D-03
 ErrMax= 6.93D-03  0.00D+00 EMaxC= 1.00D-01 BMatC= 7.44D-02 BMatP= 1.96D-01
 IDIUse=3 WtCom= 9.31D-01 WtEn= 6.93D-02
 Coeff-Com: -0.123D+01 0.223D+01
 Coeff-En:   0.000D+00 0.100D+01
 Coeff:     -0.114D+01 0.214D+01
 Gap=     0.034 Goal=   None    Shift=    0.000
 Gap=     0.041 Goal=   None    Shift=    0.000
 RMSDP=3.52D-02 MaxDP=4.74D+00 DE=-1.29D-02 OVMax= 4.51D-01

 Cycle   3  Pass 1  IDiag  1:
 E= -1136.06890823187     Delta-E=       -0.004085377083 Rises=F Damp=F
 DIIS: error= 7.35D-03 at cycle   3 NSaved=   3.
 NSaved= 3 IEnMin= 3 EnMin= -1136.06890823187     IErMin= 2 ErrMin= 6.93D-03
 ErrMax= 7.35D-03  0.00D+00 EMaxC= 1.00D-01 BMatC= 1.65D-02 BMatP= 7.44D-02
 IDIUse=3 WtCom= 9.27D-01 WtEn= 7.35D-02
 Coeff-Com: -0.616D+00 0.106D+01 0.554D+00
 Coeff-En:   0.000D+00 0.345D+00 0.655D+00
 Coeff:     -0.571D+00 0.101D+01 0.562D+00
 Gap=     0.031 Goal=   None    Shift=    0.000
 Gap=     0.046 Goal=   None    Shift=    0.000
 RMSDP=1.68D-02 MaxDP=1.73D+00 DE=-4.09D-03 OVMax= 2.66D-01

 Cycle   4  Pass 1  IDiag  1:
 E= -1136.07553021577     Delta-E=       -0.006621983894 Rises=F Damp=F
 DIIS: error= 5.41D-03 at cycle   4 NSaved=   4.
 NSaved= 4 IEnMin= 4 EnMin= -1136.07553021577     IErMin= 4 ErrMin= 5.41D-03
 ErrMax= 5.41D-03  0.00D+00 EMaxC= 1.00D-01 BMatC= 1.09D-02 BMatP= 1.65D-02
 IDIUse=3 WtCom= 9.46D-01 WtEn= 5.41D-02
 Coeff-Com: -0.584D-01 0.991D-01 0.438D+00 0.522D+00
 Coeff-En:   0.000D+00 0.000D+00 0.430D+00 0.570D+00
 Coeff:     -0.552D-01 0.937D-01 0.437D+00 0.524D+00
 Gap=     0.030 Goal=   None    Shift=    0.000
 Gap=     0.037 Goal=   None    Shift=    0.000
 RMSDP=7.62D-03 MaxDP=8.41D-01 DE=-6.62D-03 OVMax= 1.63D-01

 Cycle   5  Pass 1  IDiag  1:
 E= -1136.08917187503     Delta-E=       -0.013641659266 Rises=F Damp=F
 DIIS: error= 8.45D-04 at cycle   5 NSaved=   5.
 NSaved= 5 IEnMin= 5 EnMin= -1136.08917187503     IErMin= 5 ErrMin= 8.45D-04
 ErrMax= 8.45D-04  0.00D+00 EMaxC= 1.00D-01 BMatC= 5.69D-04 BMatP= 1.09D-02
 IDIUse=3 WtCom= 9.92D-01 WtEn= 8.45D-03
 Coeff-Com: -0.326D-02 0.347D-02 0.203D+00 0.262D+00 0.534D+00
 Coeff-En:   0.000D+00 0.000D+00 0.000D+00 0.000D+00 0.100D+01
 Coeff:     -0.324D-02 0.344D-02 0.202D+00 0.260D+00 0.538D+00
 Gap=     0.030 Goal=   None    Shift=    0.000
 Gap=     0.036 Goal=   None    Shift=    0.000
 RMSDP=2.14D-03 MaxDP=1.87D-01 DE=-1.36D-02 OVMax= 3.25D-02

 Cycle   6  Pass 1  IDiag  1:
 E= -1136.08966020554     Delta-E=       -0.000488330510 Rises=F Damp=F
 DIIS: error= 4.67D-04 at cycle   6 NSaved=   6.
 NSaved= 6 IEnMin= 6 EnMin= -1136.08966020554     IErMin= 6 ErrMin= 4.67D-04
 ErrMax= 4.67D-04  0.00D+00 EMaxC= 1.00D-01 BMatC= 9.95D-05 BMatP= 5.69D-04
 IDIUse=3 WtCom= 9.95D-01 WtEn= 4.67D-03
 Coeff-Com: -0.364D-03-0.564D-03-0.149D-01-0.401D-01 0.261D+00 0.795D+00
 Coeff-En:   0.000D+00 0.000D+00 0.000D+00 0.000D+00 0.143D+00 0.857D+00
 Coeff:     -0.363D-03-0.561D-03-0.148D-01-0.399D-01 0.260D+00 0.796D+00
 Gap=     0.031 Goal=   None    Shift=    0.000
 Gap=     0.036 Goal=   None    Shift=    0.000
 RMSDP=9.58D-04 MaxDP=6.95D-02 DE=-4.88D-04 OVMax= 1.82D-02

 Cycle   7  Pass 1  IDiag  1:
 E= -1136.08981308855     Delta-E=       -0.000152883009 Rises=F Damp=F
 DIIS: error= 1.21D-04 at cycle   7 NSaved=   7.
 NSaved= 7 IEnMin= 7 EnMin= -1136.08981308855     IErMin= 7 ErrMin= 1.21D-04
 ErrMax= 1.21D-04  0.00D+00 EMaxC= 1.00D-01 BMatC= 3.69D-06 BMatP= 9.95D-05
 IDIUse=3 WtCom= 9.99D-01 WtEn= 1.21D-03
 Coeff-Com: -0.158D-02 0.191D-02-0.959D-02-0.183D-01 0.232D-01 0.139D+00
 Coeff-Com:  0.865D+00
 Coeff-En:   0.000D+00 0.000D+00 0.000D+00 0.000D+00 0.000D+00 0.000D+00
 Coeff-En:   0.100D+01
 Coeff:     -0.158D-02 0.191D-02-0.958D-02-0.183D-01 0.232D-01 0.139D+00
 Coeff:      0.865D+00
 Gap=     0.031 Goal=   None    Shift=    0.000
 Gap=     0.036 Goal=   None    Shift=    0.000
 RMSDP=4.72D-04 MaxDP=2.56D-02 DE=-1.53D-04 OVMax= 1.24D-02

 Cycle   8  Pass 1  IDiag  1:
 E= -1136.08984920369     Delta-E=       -0.000036115143 Rises=F Damp=F
 DIIS: error= 9.67D-05 at cycle   8 NSaved=   8.
 NSaved= 8 IEnMin= 8 EnMin= -1136.08984920369     IErMin= 8 ErrMin= 9.67D-05
 ErrMax= 9.67D-05  0.00D+00 EMaxC= 1.00D-01 BMatC= 2.93D-06 BMatP= 3.69D-06
 IDIUse=1 WtCom= 1.00D+00 WtEn= 0.00D+00
 Coeff-Com: -0.477D-03 0.597D-03-0.516D-02-0.851D-02-0.613D-02 0.178D-01
 Coeff-Com:  0.426D+00 0.576D+00
 Coeff:     -0.477D-03 0.597D-03-0.516D-02-0.851D-02-0.613D-02 0.178D-01
 Coeff:      0.426D+00 0.576D+00
 Gap=     0.031 Goal=   None    Shift=    0.000
 Gap=     0.037 Goal=   None    Shift=    0.000
 RMSDP=3.35D-04 MaxDP=1.82D-02 DE=-3.61D-05 OVMax= 9.35D-03

 Cycle   9  Pass 1  IDiag  1:
 E= -1136.08987422008     Delta-E=       -0.000025016388 Rises=F Damp=F
 DIIS: error= 9.67D-05 at cycle   9 NSaved=   9.
 NSaved= 9 IEnMin= 9 EnMin= -1136.08987422008     IErMin= 8 ErrMin= 9.67D-05
 ErrMax= 9.67D-05  0.00D+00 EMaxC= 1.00D-01 BMatC= 2.34D-06 BMatP= 2.93D-06
 IDIUse=1 WtCom= 1.00D+00 WtEn= 0.00D+00
 Coeff-Com:  0.131D-03-0.154D-03-0.243D-02-0.321D-02-0.116D-02 0.369D-02
 Coeff-Com:  0.143D-01 0.203D+00 0.785D+00
 Coeff:      0.131D-03-0.154D-03-0.243D-02-0.321D-02-0.116D-02 0.369D-02
 Coeff:      0.143D-01 0.203D+00 0.785D+00
 Gap=     0.031 Goal=   None    Shift=    0.000
 Gap=     0.037 Goal=   None    Shift=    0.000
 RMSDP=4.49D-04 MaxDP=2.48D-02 DE=-2.50D-05 OVMax= 1.27D-02

 Cycle  10  Pass 1  IDiag  1:
 E= -1136.08990721680     Delta-E=       -0.000032996714 Rises=F Damp=F
 DIIS: error= 9.75D-05 at cycle  10 NSaved=  10.
 NSaved=10 IEnMin=10 EnMin= -1136.08990721680     IErMin= 8 ErrMin= 9.67D-05
 ErrMax= 9.75D-05  0.00D+00 EMaxC= 1.00D-01 BMatC= 2.34D-06 BMatP= 2.34D-06
 IDIUse=1 WtCom= 1.00D+00 WtEn= 0.00D+00
 Coeff-Com: -0.136D-03 0.193D-03-0.244D-02-0.337D-02 0.668D-02 0.259D-01
 Coeff-Com:  0.944D-02 0.469D-01 0.437D+00 0.480D+00
 Coeff:     -0.136D-03 0.193D-03-0.244D-02-0.337D-02 0.668D-02 0.259D-01
 Coeff:      0.944D-02 0.469D-01 0.437D+00 0.480D+00
 Gap=     0.031 Goal=   None    Shift=    0.000
 Gap=     0.037 Goal=   None    Shift=    0.000
 RMSDP=2.40D-04 MaxDP=1.38D-02 DE=-3.30D-05 OVMax= 6.55D-03

 Cycle  11  Pass 1  IDiag  1:
 E= -1136.08992434489     Delta-E=       -0.000017128098 Rises=F Damp=F
 DIIS: error= 9.84D-05 at cycle  11 NSaved=  11.
 NSaved=11 IEnMin=11 EnMin= -1136.08992434489     IErMin= 8 ErrMin= 9.67D-05
 ErrMax= 9.84D-05  0.00D+00 EMaxC= 1.00D-01 BMatC= 2.34D-06 BMatP= 2.34D-06
 IDIUse=1 WtCom= 1.00D+00 WtEn= 0.00D+00
 Coeff-Com: -0.662D-05 0.278D-04-0.218D-02-0.276D-02 0.297D-02 0.126D-01
 Coeff-Com: -0.239D-01 0.942D-01 0.683D+00 0.147D+01-0.123D+01
 Coeff:     -0.662D-05 0.278D-04-0.218D-02-0.276D-02 0.297D-02 0.126D-01
 Coeff:     -0.239D-01 0.942D-01 0.683D+00 0.147D+01-0.123D+01
 Gap=     0.031 Goal=   None    Shift=    0.000
 Gap=     0.037 Goal=   None    Shift=    0.000
 RMSDP=3.88D-04 MaxDP=2.23D-02 DE=-1.71D-05 OVMax= 1.04D-02

 Cycle  12  Pass 1  IDiag  1:
 E= -1136.08989729661     Delta-E=        0.000027048290 Rises=F Damp=F
 DIIS: error= 9.74D-05 at cycle  12 NSaved=  12.
 NSaved=12 IEnMin=11 EnMin= -1136.08992434489     IErMin= 8 ErrMin= 9.67D-05
 ErrMax= 9.74D-05  0.00D+00 EMaxC= 1.00D-01 BMatC= 2.32D-06 BMatP= 2.34D-06
 IDIUse=1 WtCom= 1.00D+00 WtEn= 0.00D+00
 Large coefficients: NSaved= 12 BigCof=   11.94 CofMax=   10.00 Det=-8.37D-10
 Inversion failed.  Reducing to 11 matrices.
 Large coefficients: NSaved= 11 BigCof=   11.73 CofMax=   10.00 Det=-8.44D-10
 Inversion failed.  Reducing to 10 matrices.
 Large coefficients: NSaved= 10 BigCof=   11.66 CofMax=   10.00 Det=-8.45D-10
 Inversion failed.  Reducing to  9 matrices.
 Large coefficients: NSaved=  9 BigCof=   11.98 CofMax=   10.00 Det=-8.57D-10
 Inversion failed.  Reducing to  8 matrices.
 Large coefficients: NSaved=  8 BigCof=   11.15 CofMax=   10.00 Det=-9.25D-10
 Inversion failed.  Reducing to  7 matrices.
 Coeff-Com: -0.156D-02-0.118D+00 0.319D-01 0.830D+00 0.346D+01-0.875D+01
 Coeff-Com:  0.555D+01
 Coeff:     -0.156D-02-0.118D+00 0.319D-01 0.830D+00 0.346D+01-0.875D+01
 Coeff:      0.555D+01
 Gap=     0.031 Goal=   None    Shift=    0.000
 Gap=     0.036 Goal=   None    Shift=    0.000
 RMSDP=2.57D-03 MaxDP=1.42D-01 DE= 2.70D-05 OVMax= 6.89D-02

 Cycle  13  Pass 1  IDiag  1:
 E= -1136.08972783703     Delta-E=        0.000169459576 Rises=F Damp=F
 DIIS: error= 9.56D-05 at cycle  13 NSaved=   8.
 NSaved= 8 IEnMin= 6 EnMin= -1136.08992434489     IErMin= 8 ErrMin= 9.56D-05
 ErrMax= 9.56D-05  0.00D+00 EMaxC= 1.00D-01 BMatC= 2.37D-06 BMatP= 2.32D-06
 IDIUse=1 WtCom= 1.00D+00 WtEn= 0.00D+00
 Coeff-Com:  0.178D-01-0.142D+00-0.515D-01 0.993D+00 0.147D+01-0.790D+01
 Coeff-Com:  0.585D+01 0.760D+00
 Coeff:      0.178D-01-0.142D+00-0.515D-01 0.993D+00 0.147D+01-0.790D+01
 Coeff:      0.585D+01 0.760D+00
 Gap=     0.031 Goal=   None    Shift=    0.000
 Gap=     0.036 Goal=   None    Shift=    0.000
 RMSDP=1.95D-03 MaxDP=1.04D-01 DE= 1.69D-04 OVMax= 5.18D-02

 Cycle  14  Pass 1  IDiag  1:
 E= -1136.08961532046     Delta-E=        0.000112516571 Rises=F Damp=F
 DIIS: error= 9.88D-05 at cycle  14 NSaved=   9.
 NSaved= 9 IEnMin= 6 EnMin= -1136.08992434489     IErMin= 8 ErrMin= 9.56D-05
 ErrMax= 9.88D-05  0.00D+00 EMaxC= 1.00D-01 BMatC= 2.92D-06 BMatP= 2.32D-06
 IDIUse=1 WtCom= 1.00D+00 WtEn= 0.00D+00
 Coeff-Com:  0.201D-01-0.131D+00-0.197D-01 0.114D+01 0.157D+01-0.702D+01
 Coeff-Com:  0.484D+01 0.313D+00 0.287D+00
 Coeff:      0.201D-01-0.131D+00-0.197D-01 0.114D+01 0.157D+01-0.702D+01
 Coeff:      0.484D+01 0.313D+00 0.287D+00
 Gap=     0.031 Goal=   None    Shift=    0.000
 Gap=     0.037 Goal=   None    Shift=    0.000
 RMSDP=1.42D-04 MaxDP=7.22D-03 DE= 1.13D-04 OVMax= 3.17D-03

 Cycle  15  Pass 1  IDiag  1:
 E= -1136.08962278936     Delta-E=       -0.000007468905 Rises=F Damp=F
 DIIS: error= 9.21D-05 at cycle  15 NSaved=  10.
 NSaved=10 IEnMin= 6 EnMin= -1136.08992434489     IErMin=10 ErrMin= 9.21D-05
 ErrMax= 9.21D-05  0.00D+00 EMaxC= 1.00D-01 BMatC= 2.27D-06 BMatP= 2.32D-06
 IDIUse=1 WtCom= 1.00D+00 WtEn= 0.00D+00
 Coeff-Com:  0.177D-01-0.398D+00-0.447D+00 0.112D+01 0.370D+01-0.515D+01
 Coeff-Com:  0.123D+01-0.321D+01-0.311D+01 0.726D+01
 Coeff:      0.177D-01-0.398D+00-0.447D+00 0.112D+01 0.370D+01-0.515D+01
 Coeff:      0.123D+01-0.321D+01-0.311D+01 0.726D+01
 Gap=     0.030 Goal=   None    Shift=    0.000
 Gap=     0.037 Goal=   None    Shift=    0.000
 RMSDP=5.78D-03 MaxDP=3.30D-01 DE=-7.47D-06 OVMax= 1.51D-01

 Cycle  16  Pass 1  IDiag  1:
 E= -1136.08931993126     Delta-E=        0.000302858108 Rises=F Damp=F
 DIIS: error= 1.38D-04 at cycle  16 NSaved=  11.
 NSaved=11 IEnMin= 6 EnMin= -1136.08992434489     IErMin=10 ErrMin= 9.21D-05
 ErrMax= 1.38D-04  0.00D+00 EMaxC= 1.00D-01 BMatC= 1.80D-05 BMatP= 2.27D-06
 IDIUse=1 WtCom= 1.00D+00 WtEn= 0.00D+00
 Coeff-Com:  0.201D-01-0.380D+00-0.450D+00 0.101D+01 0.293D+01-0.405D+01
 Coeff-Com:  0.871D+00-0.279D+01-0.225D+01 0.620D+01-0.102D+00
 Coeff:      0.201D-01-0.380D+00-0.450D+00 0.101D+01 0.293D+01-0.405D+01
 Coeff:      0.871D+00-0.279D+01-0.225D+01 0.620D+01-0.102D+00
 Gap=     0.031 Goal=   None    Shift=    0.000
 Gap=     0.038 Goal=   None    Shift=    0.000
 RMSDP=9.62D-04 MaxDP=5.95D-02 DE= 3.03D-04 OVMax= 2.51D-02

 Cycle  17  Pass 1  IDiag  1:
 E= -1136.08937548284     Delta-E=       -0.000055551582 Rises=F Damp=F
 DIIS: error= 1.25D-04 at cycle  17 NSaved=  12.
 NSaved=12 IEnMin= 6 EnMin= -1136.08992434489     IErMin=10 ErrMin= 9.21D-05
 ErrMax= 1.25D-04  0.00D+00 EMaxC= 1.00D-01 BMatC= 1.34D-05 BMatP= 2.27D-06
 IDIUse=1 WtCom= 1.00D+00 WtEn= 0.00D+00
 Coeff-Com:  0.218D-01-0.200D-01-0.120D+00 0.276D+00-0.650D+00 0.680D+01
 Coeff-Com: -0.633D+01-0.317D+01-0.147D+01 0.505D+01-0.408D+01 0.470D+01
 Coeff:      0.218D-01-0.200D-01-0.120D+00 0.276D+00-0.650D+00 0.680D+01
 Coeff:     -0.633D+01-0.317D+01-0.147D+01 0.505D+01-0.408D+01 0.470D+01
 Gap=     0.030 Goal=   None    Shift=    0.000
 Gap=     0.036 Goal=   None    Shift=    0.000
 RMSDP=2.80D-03 MaxDP=1.62D-01 DE=-5.56D-05 OVMax= 7.26D-02

 Cycle  18  Pass 1  IDiag  1:
 E= -1136.08952242719     Delta-E=       -0.000146944356 Rises=F Damp=F
 DIIS: error= 8.02D-05 at cycle  18 NSaved=  13.
 NSaved=13 IEnMin= 6 EnMin= -1136.08992434489     IErMin=13 ErrMin= 8.02D-05
 ErrMax= 8.02D-05  0.00D+00 EMaxC= 1.00D-01 BMatC= 2.37D-06 BMatP= 2.27D-06
 IDIUse=1 WtCom= 1.00D+00 WtEn= 0.00D+00
 Coeff-Com:  0.136D-01-0.162D-01-0.162D+00 0.291D+00 0.311D+00 0.359D+01
 Coeff-Com: -0.404D+01-0.274D+01-0.156D+01 0.405D+01-0.377D+01 0.428D+01
 Coeff-Com:  0.750D+00
 Coeff:      0.136D-01-0.162D-01-0.162D+00 0.291D+00 0.311D+00 0.359D+01
 Coeff:     -0.404D+01-0.274D+01-0.156D+01 0.405D+01-0.377D+01 0.428D+01
 Coeff:      0.750D+00
 Gap=     0.031 Goal=   None    Shift=    0.000
 Gap=     0.037 Goal=   None    Shift=    0.000
 RMSDP=1.48D-03 MaxDP=8.59D-02 DE=-1.47D-04 OVMax= 3.77D-02

 Cycle  19  Pass 1  IDiag  1:
 E= -1136.08945054607     Delta-E=        0.000071881123 Rises=F Damp=F
 DIIS: error= 9.17D-05 at cycle  19 NSaved=  14.
 NSaved=14 IEnMin= 6 EnMin= -1136.08992434489     IErMin=13 ErrMin= 8.02D-05
 ErrMax= 9.17D-05  0.00D+00 EMaxC= 1.00D-01 BMatC= 5.21D-06 BMatP= 2.27D-06
 IDIUse=1 WtCom= 1.00D+00 WtEn= 0.00D+00
 Coeff-Com:  0.789D-02-0.529D-01-0.154D+00 0.456D+00 0.176D+01-0.258D+00
 Coeff-Com: -0.160D+01-0.266D+01-0.209D+01 0.429D+01-0.382D+01 0.414D+01
 Coeff-Com:  0.201D+00 0.784D+00
 Coeff:      0.789D-02-0.529D-01-0.154D+00 0.456D+00 0.176D+01-0.258D+00
 Coeff:     -0.160D+01-0.266D+01-0.209D+01 0.429D+01-0.382D+01 0.414D+01
 Coeff:      0.201D+00 0.784D+00
 Gap=     0.031 Goal=   None    Shift=    0.000
 Gap=     0.038 Goal=   None    Shift=    0.000
 RMSDP=1.00D-03 MaxDP=6.19D-02 DE= 7.19D-05 OVMax= 2.52D-02

 Cycle  20  Pass 1  IDiag  1:
 E= -1136.08939776324     Delta-E=        0.000052782836 Rises=F Damp=F
 DIIS: error= 1.07D-04 at cycle  20 NSaved=  15.
 NSaved=15 IEnMin= 6 EnMin= -1136.08992434489     IErMin=13 ErrMin= 8.02D-05
 ErrMax= 1.07D-04  0.00D+00 EMaxC= 1.00D-01 BMatC= 1.01D-05 BMatP= 2.27D-06
 IDIUse=1 WtCom= 1.00D+00 WtEn= 0.00D+00
 Coeff-Com:  0.719D-02-0.717D-01-0.151D+00 0.509D+00 0.207D+01-0.723D+00
 Coeff-Com: -0.138D+01-0.279D+01-0.234D+01 0.461D+01-0.412D+01 0.442D+01
 Coeff-Com:  0.170D+00 0.404D+00 0.391D+00
 Coeff:      0.719D-02-0.717D-01-0.151D+00 0.509D+00 0.207D+01-0.723D+00
 Coeff:     -0.138D+01-0.279D+01-0.234D+01 0.461D+01-0.412D+01 0.442D+01
 Coeff:      0.170D+00 0.404D+00 0.391D+00
 Gap=     0.031 Goal=   None    Shift=    0.000
 Gap=     0.038 Goal=   None    Shift=    0.000
 RMSDP=1.52D-04 MaxDP=8.04D-03 DE= 5.28D-05 OVMax= 4.19D-03

 Cycle  21  Pass 1  IDiag  1:
 E= -1136.08940558088     Delta-E=       -0.000007817649 Rises=F Damp=F
 DIIS: error= 1.06D-04 at cycle  21 NSaved=  16.
 NSaved=16 IEnMin= 6 EnMin= -1136.08992434489     IErMin=13 ErrMin= 8.02D-05
 ErrMax= 1.06D-04  0.00D+00 EMaxC= 1.00D-01 BMatC= 9.73D-06 BMatP= 2.27D-06
 IDIUse=1 WtCom= 1.00D+00 WtEn= 0.00D+00
 Coeff-Com:  0.701D-02-0.709D-01-0.152D+00 0.506D+00 0.209D+01-0.765D+00
 Coeff-Com: -0.136D+01-0.279D+01-0.233D+01 0.459D+01-0.412D+01 0.442D+01
 Coeff-Com:  0.157D+00 0.455D+00 0.555D+00-0.199D+00
 Coeff:      0.701D-02-0.709D-01-0.152D+00 0.506D+00 0.209D+01-0.765D+00
 Coeff:     -0.136D+01-0.279D+01-0.233D+01 0.459D+01-0.412D+01 0.442D+01
 Coeff:      0.157D+00 0.455D+00 0.555D+00-0.199D+00
 Gap=     0.031 Goal=   None    Shift=    0.000
 Gap=     0.038 Goal=   None    Shift=    0.000
 RMSDP=3.49D-05 MaxDP=1.88D-03 DE=-7.82D-06 OVMax= 9.47D-04

 Cycle  22  Pass 1  IDiag  1:
 E= -1136.08940377404     Delta-E=        0.000001806847 Rises=F Damp=F
 DIIS: error= 1.06D-04 at cycle  22 NSaved=  17.
 NSaved=17 IEnMin= 6 EnMin= -1136.08992434489     IErMin=13 ErrMin= 8.02D-05
 ErrMax= 1.06D-04  0.00D+00 EMaxC= 1.00D-01 BMatC= 9.82D-06 BMatP= 2.27D-06
 IDIUse=1 WtCom= 1.00D+00 WtEn= 0.00D+00
 Large coefficients: NSaved= 17 BigCof=   48.13 CofMax=   10.00 Det=-3.49D-12
 Inversion failed.  Reducing to 16 matrices.
 Large coefficients: NSaved= 16 BigCof=   58.17 CofMax=   10.00 Det=-5.56D-12
 Inversion failed.  Reducing to 15 matrices.
 Large coefficients: NSaved= 15 BigCof=   69.87 CofMax=   10.00 Det=-5.66D-12
 Inversion failed.  Reducing to 14 matrices.
 Large coefficients: NSaved= 14 BigCof=   68.84 CofMax=   10.00 Det=-6.08D-12
 Inversion failed.  Reducing to 13 matrices.
 Large coefficients: NSaved= 13 BigCof=  173.41 CofMax=   10.00 Det=-1.28D-11
 Inversion failed.  Reducing to 12 matrices.
 Large coefficients: NSaved= 12 BigCof=  176.04 CofMax=   10.00 Det=-2.44D-11
 Inversion failed.  Reducing to 11 matrices.
 Large coefficients: NSaved= 11 BigCof=  183.03 CofMax=   10.00 Det=-2.69D-11
 Inversion failed.  Reducing to 10 matrices.
 Large coefficients: NSaved= 10 BigCof=  201.73 CofMax=   10.00 Det=-3.65D-11
 Inversion failed.  Reducing to  9 matrices.
 Large coefficients: NSaved=  9 BigCof=  202.23 CofMax=   10.00 Det=-3.65D-11
 Inversion failed.  Reducing to  8 matrices.
 Large coefficients: NSaved=  8 BigCof=  207.54 CofMax=   10.00 Det=-3.89D-11
 Inversion failed.  Reducing to  7 matrices.
 Large coefficients: NSaved=  7 BigCof=  207.98 CofMax=   10.00 Det=-3.90D-11
 Inversion failed.  Reducing to  6 matrices.
 Large coefficients: NSaved=  6 BigCof=  207.88 CofMax=   10.00 Det=-3.92D-11
 Inversion failed.  Reducing to  5 matrices.
 Large coefficients: NSaved=  5 BigCof=  209.47 CofMax=   10.00 Det=-3.94D-11
 Inversion failed.  Reducing to  4 matrices.
 Large coefficients: NSaved=  4 BigCof=  211.41 CofMax=   10.00 Det=-4.03D-11
 Inversion failed.  Reducing to  3 matrices.
 Large coefficients: NSaved=  3 BigCof=  211.05 CofMax=   10.00 Det=-4.05D-11
 Inversion failed.  Reducing to  2 matrices.
 Large coefficients: NSaved=  2 BigCof=  193.19 CofMax=   10.00 Det=-2.48D-10
 Coeff-Com:  0.193D+03-0.192D+03
 Coeff:      0.193D+03-0.192D+03
 Gap=     0.030 Goal=   None    Shift=    0.000
 Gap=     0.035 Goal=   None    Shift=    0.000
 RMSDP=6.91D-03 MaxDP=3.55D-01 DE= 1.81D-06 OVMax= 1.91D-01

 Cycle  23  Pass 1  IDiag  1:
 E= -1136.08976227611     Delta-E=       -0.000358502073 Rises=F Damp=F
 DIIS: error= 1.50D-04 at cycle  23 NSaved=   3.
 NSaved= 3 IEnMin= 3 EnMin= -1136.08976227611     IErMin= 1 ErrMin= 1.06D-04
 ErrMax= 1.50D-04  0.00D+00 EMaxC= 1.00D-01 BMatC= 1.48D-05 BMatP= 9.73D-06
 IDIUse=1 WtCom= 1.00D+00 WtEn= 0.00D+00
 Large coefficients: NSaved=  3 BigCof=  190.25 CofMax=   10.00 Det=-1.92D-10
 Inversion failed.  Reducing to  2 matrices.
 Coeff-Com:  0.226D+01-0.126D+01
 Coeff:      0.226D+01-0.126D+01
 Gap=     0.026 Goal=   None    Shift=    0.000
 Gap=     0.032 Goal=   None    Shift=    0.000
 RMSDP=1.41D-02 MaxDP=7.86D-01 DE=-3.59D-04 OVMax= 3.72D-01

 Cycle  24  Pass 1  IDiag  1:
 E= -1136.08876975337     Delta-E=        0.000992522738 Rises=F Damp=F
 DIIS: error= 2.90D-04 at cycle  24 NSaved=   3.
 NSaved= 3 IEnMin= 2 EnMin= -1136.08976227611     IErMin= 1 ErrMin= 1.06D-04
 ErrMax= 2.90D-04  0.00D+00 EMaxC= 1.00D-01 BMatC= 5.00D-05 BMatP= 9.82D-06
 IDIUse=1 WtCom= 1.00D+00 WtEn= 0.00D+00
 Coeff-Com:  0.195D+01-0.585D+00-0.366D+00
 Coeff:      0.195D+01-0.585D+00-0.366D+00
 Gap=     0.030 Goal=   None    Shift=    0.000
 Gap=     0.037 Goal=   None    Shift=    0.000
 RMSDP=6.27D-03 MaxDP=4.11D-01 DE= 9.93D-04 OVMax= 1.61D-01

 Cycle  25  Pass 1  IDiag  1:
 E= -1136.08934715468     Delta-E=       -0.000577401303 Rises=F Damp=F
 DIIS: error= 1.18D-04 at cycle  25 NSaved=   4.
 NSaved= 4 IEnMin= 2 EnMin= -1136.08976227611     IErMin= 1 ErrMin= 1.06D-04
 ErrMax= 1.18D-04  0.00D+00 EMaxC= 1.00D-01 BMatC= 1.00D-05 BMatP= 9.82D-06
 IDIUse=1 WtCom= 1.00D+00 WtEn= 0.00D+00
 Coeff-Com:  0.138D+01-0.688D+00-0.494D+00 0.799D+00
 Coeff:      0.138D+01-0.688D+00-0.494D+00 0.799D+00
 Gap=     0.031 Goal=   None    Shift=    0.000
 Gap=     0.039 Goal=   None    Shift=    0.000
 RMSDP=7.36D-04 MaxDP=4.85D-02 DE=-5.77D-04 OVMax= 1.83D-02

 Cycle  26  Pass 1  IDiag  1:
 E= -1136.08929573307     Delta-E=        0.000051421609 Rises=F Damp=F
 DIIS: error= 1.78D-04 at cycle  26 NSaved=   5.
 NSaved= 5 IEnMin= 2 EnMin= -1136.08976227611     IErMin= 1 ErrMin= 1.06D-04
 ErrMax= 1.78D-04  0.00D+00 EMaxC= 1.00D-01 BMatC= 1.96D-05 BMatP= 9.82D-06
 IDIUse=1 WtCom= 1.00D+00 WtEn= 0.00D+00
 Coeff-Com:  0.127D+01-0.882D+00-0.550D+00 0.869D+00 0.298D+00
 Coeff:      0.127D+01-0.882D+00-0.550D+00 0.869D+00 0.298D+00
 Gap=     0.032 Goal=   None    Shift=    0.000
 Gap=     0.040 Goal=   None    Shift=    0.000
 RMSDP=1.42D-03 MaxDP=8.99D-02 DE= 5.14D-05 OVMax= 3.72D-02

 Cycle  27  Pass 1  IDiag  1:
 E= -1136.08919411054     Delta-E=        0.000101622529 Rises=F Damp=F
 DIIS: error= 2.09D-04 at cycle  27 NSaved=   6.
 NSaved= 6 IEnMin= 2 EnMin= -1136.08976227611     IErMin= 1 ErrMin= 1.06D-04
 ErrMax= 2.09D-04  0.00D+00 EMaxC= 1.00D-01 BMatC= 3.03D-05 BMatP= 9.82D-06
 IDIUse=1 WtCom= 1.00D+00 WtEn= 0.00D+00
 Coeff-Com:  0.118D+01-0.545D+00-0.618D-01 0.284D+00 0.233D+01-0.218D+01
 Coeff:      0.118D+01-0.545D+00-0.618D-01 0.284D+00 0.233D+01-0.218D+01
 Gap=     0.031 Goal=   None    Shift=    0.000
 Gap=     0.038 Goal=   None    Shift=    0.000
 RMSDP=2.65D-03 MaxDP=1.69D-01 DE= 1.02D-04 OVMax= 6.90D-02

 Cycle  28  Pass 1  IDiag  1:
 E= -1136.08937496564     Delta-E=       -0.000180855102 Rises=F Damp=F
 DIIS: error= 1.24D-04 at cycle  28 NSaved=   7.
 NSaved= 7 IEnMin= 2 EnMin= -1136.08976227611     IErMin= 1 ErrMin= 1.06D-04
 ErrMax= 1.24D-04  0.00D+00 EMaxC= 1.00D-01 BMatC= 1.05D-05 BMatP= 9.82D-06
 IDIUse=1 WtCom= 1.00D+00 WtEn= 0.00D+00
 Coeff-Com:  0.692D+00-0.592D+00-0.596D-01 0.184D+00 0.186D+01-0.202D+01
 Coeff-Com:  0.937D+00
 Coeff:      0.692D+00-0.592D+00-0.596D-01 0.184D+00 0.186D+01-0.202D+01
 Coeff:      0.937D+00
 Gap=     0.031 Goal=   None    Shift=    0.000
 Gap=     0.038 Goal=   None    Shift=    0.000
 RMSDP=4.19D-04 MaxDP=2.04D-02 DE=-1.81D-04 OVMax= 1.19D-02

 Cycle  29  Pass 1  IDiag  1:
 E= -1136.08935371575     Delta-E=        0.000021249889 Rises=F Damp=F
 DIIS: error= 1.24D-04 at cycle  29 NSaved=   8.
 NSaved= 8 IEnMin= 2 EnMin= -1136.08976227611     IErMin= 1 ErrMin= 1.06D-04
 ErrMax= 1.24D-04  0.00D+00 EMaxC= 1.00D-01 BMatC= 1.12D-05 BMatP= 9.82D-06
 IDIUse=1 WtCom= 1.00D+00 WtEn= 0.00D+00
 Coeff-Com:  0.404D+00-0.540D+00-0.815D-01 0.176D+00 0.153D+01-0.189D+01
 Coeff-Com:  0.670D+00 0.731D+00
 Coeff:      0.404D+00-0.540D+00-0.815D-01 0.176D+00 0.153D+01-0.189D+01
 Coeff:      0.670D+00 0.731D+00
 Gap=     0.031 Goal=   None    Shift=    0.000
 Gap=     0.038 Goal=   None    Shift=    0.000
 RMSDP=1.58D-04 MaxDP=1.09D-02 DE= 2.12D-05 OVMax= 3.60D-03

 Cycle  30  Pass 1  IDiag  1:
 E= -1136.08936231999     Delta-E=       -0.000008604235 Rises=F Damp=F
 DIIS: error= 1.22D-04 at cycle  30 NSaved=   9.
 NSaved= 9 IEnMin= 2 EnMin= -1136.08976227611     IErMin= 1 ErrMin= 1.06D-04
 ErrMax= 1.22D-04  0.00D+00 EMaxC= 1.00D-01 BMatC= 1.01D-05 BMatP= 9.82D-06
 IDIUse=1 WtCom= 1.00D+00 WtEn= 0.00D+00
 Coeff-Com:  0.396D+00-0.535D+00-0.846D-01 0.177D+00 0.150D+01-0.186D+01
 Coeff-Com:  0.634D+00 0.602D+00 0.173D+00
 Coeff:      0.396D+00-0.535D+00-0.846D-01 0.177D+00 0.150D+01-0.186D+01
 Coeff:      0.634D+00 0.602D+00 0.173D+00
 Gap=     0.031 Goal=   None    Shift=    0.000
 Gap=     0.038 Goal=   None    Shift=    0.000
 RMSDP=2.05D-05 MaxDP=1.40D-03 DE=-8.60D-06 OVMax= 4.51D-04

 Cycle  31  Pass 1  IDiag  1:
 E= -1136.08936327321     Delta-E=       -0.000000953222 Rises=F Damp=F
 DIIS: error= 1.21D-04 at cycle  31 NSaved=  10.
 NSaved=10 IEnMin= 2 EnMin= -1136.08976227611     IErMin= 1 ErrMin= 1.06D-04
 ErrMax= 1.21D-04  0.00D+00 EMaxC= 1.00D-01 BMatC= 9.93D-06 BMatP= 9.82D-06
 IDIUse=1 WtCom= 1.00D+00 WtEn= 0.00D+00
 Large coefficients: NSaved= 10 BigCof=   12.66 CofMax=   10.00 Det=-4.50D-11
 Inversion failed.  Reducing to  9 matrices.
 Large coefficients: NSaved=  9 BigCof=   13.73 CofMax=   10.00 Det=-4.50D-11
 Inversion failed.  Reducing to  8 matrices.
 Large coefficients: NSaved=  8 BigCof=   63.30 CofMax=   10.00 Det=-7.44D-11
 Inversion failed.  Reducing to  7 matrices.
 Large coefficients: NSaved=  7 BigCof=   58.87 CofMax=   10.00 Det=-1.29D-10
 Inversion failed.  Reducing to  6 matrices.
 Large coefficients: NSaved=  6 BigCof=   60.59 CofMax=   10.00 Det=-1.36D-10
 Inversion failed.  Reducing to  5 matrices.
 Large coefficients: NSaved=  5 BigCof=  118.62 CofMax=   10.00 Det=-3.56D-10
 Inversion failed.  Reducing to  4 matrices.
 Large coefficients: NSaved=  4 BigCof=  117.99 CofMax=   10.00 Det=-3.59D-10
 Inversion failed.  Reducing to  3 matrices.
 Large coefficients: NSaved=  3 BigCof=  117.96 CofMax=   10.00 Det=-3.59D-10
 Inversion failed.  Reducing to  2 matrices.
 Large coefficients: NSaved=  2 BigCof=  117.73 CofMax=   10.00 Det=-5.87D-10
 Coeff-Com: -0.117D+03 0.118D+03
 Coeff:     -0.117D+03 0.118D+03
 Gap=     0.030 Goal=   None    Shift=    0.000
 Gap=     0.036 Goal=   None    Shift=    0.000
 RMSDP=2.57D-03 MaxDP=1.80D-01 DE=-9.53D-07 OVMax= 5.70D-02

 Cycle  32  Pass 1  IDiag  1:
 E= -1136.08944687981     Delta-E=       -0.000083606602 Rises=F Damp=F
 DIIS: error= 1.06D-04 at cycle  32 NSaved=   3.
 NSaved= 3 IEnMin= 3 EnMin= -1136.08944687981     IErMin= 3 ErrMin= 1.06D-04
 ErrMax= 1.06D-04  0.00D+00 EMaxC= 1.00D-01 BMatC= 3.81D-06 BMatP= 9.93D-06
 IDIUse=1 WtCom= 1.00D+00 WtEn= 0.00D+00
 Large coefficients: NSaved=  3 BigCof=   70.41 CofMax=   10.00 Det=-2.59D-10
 Inversion failed.  Reducing to  2 matrices.
 Coeff-Com:  0.315D+00 0.685D+00
 Coeff:      0.315D+00 0.685D+00
 Gap=     0.030 Goal=   None    Shift=    0.000
 Gap=     0.036 Goal=   None    Shift=    0.000
 RMSDP=6.41D-04 MaxDP=4.67D-02 DE=-8.36D-05 OVMax= 1.34D-02

 Cycle  33  Pass 1  IDiag  1:
 E= -1136.08944708587     Delta-E=       -0.000000206064 Rises=F Damp=F
 DIIS: error= 7.41D-05 at cycle  33 NSaved=   3.
 NSaved= 3 IEnMin= 3 EnMin= -1136.08944708587     IErMin= 3 ErrMin= 7.41D-05
 ErrMax= 7.41D-05  0.00D+00 EMaxC= 1.00D-01 BMatC= 3.35D-06 BMatP= 3.81D-06
 IDIUse=1 WtCom= 1.00D+00 WtEn= 0.00D+00
 Coeff-Com:  0.160D+00 0.425D+00 0.415D+00
 Coeff:      0.160D+00 0.425D+00 0.415D+00
 Gap=     0.030 Goal=   None    Shift=    0.000
 Gap=     0.036 Goal=   None    Shift=    0.000
 RMSDP=2.24D-04 MaxDP=1.35D-02 DE=-2.06D-07 OVMax= 4.91D-03

 Cycle  34  Pass 1  IDiag  1:
 E= -1136.08945727262     Delta-E=       -0.000010186749 Rises=F Damp=F
 DIIS: error= 7.56D-05 at cycle  34 NSaved=   4.
 NSaved= 4 IEnMin= 4 EnMin= -1136.08945727262     IErMin= 3 ErrMin= 7.41D-05
 ErrMax= 7.56D-05  0.00D+00 EMaxC= 1.00D-01 BMatC= 1.07D-06 BMatP= 3.35D-06
 IDIUse=1 WtCom= 1.00D+00 WtEn= 0.00D+00
 Coeff-Com:  0.943D-01 0.262D+00 0.239D+00 0.404D+00
 Coeff:      0.943D-01 0.262D+00 0.239D+00 0.404D+00
 Gap=     0.030 Goal=   None    Shift=    0.000
 Gap=     0.036 Goal=   None    Shift=    0.000
 RMSDP=1.44D-04 MaxDP=7.53D-03 DE=-1.02D-05 OVMax= 3.75D-03

 Cycle  35  Pass 1  IDiag  1:
 E= -1136.08946409738     Delta-E=       -0.000006824761 Rises=F Damp=F
 DIIS: error= 7.73D-05 at cycle  35 NSaved=   5.
 NSaved= 5 IEnMin= 5 EnMin= -1136.08946409738     IErMin= 3 ErrMin= 7.41D-05
 ErrMax= 7.73D-05  0.00D+00 EMaxC= 1.00D-01 BMatC= 1.03D-06 BMatP= 1.07D-06
 IDIUse=1 WtCom= 1.00D+00 WtEn= 0.00D+00
 Coeff-Com:  0.988D-01 0.297D+00 0.280D+00 0.516D+00-0.192D+00
 Coeff:      0.988D-01 0.297D+00 0.280D+00 0.516D+00-0.192D+00
 Gap=     0.030 Goal=   None    Shift=    0.000
 Gap=     0.036 Goal=   None    Shift=    0.000
 RMSDP=4.39D-05 MaxDP=2.21D-03 DE=-6.82D-06 OVMax= 1.31D-03

 Cycle  36  Pass 1  IDiag  1:
 E= -1136.08946195345     Delta-E=        0.000002143935 Rises=F Damp=F
 DIIS: error= 7.77D-05 at cycle  36 NSaved=   6.
 NSaved= 6 IEnMin= 5 EnMin= -1136.08946409738     IErMin= 3 ErrMin= 7.41D-05
 ErrMax= 7.77D-05  0.00D+00 EMaxC= 1.00D-01 BMatC= 1.03D-06 BMatP= 1.03D-06
 IDIUse=1 WtCom= 1.00D+00 WtEn= 0.00D+00
 Large coefficients: NSaved=  6 BigCof=   10.85 CofMax=   10.00 Det=-1.58D-10
 Inversion failed.  Reducing to  5 matrices.
 Coeff-Com:  0.635D-01 0.269D-01 0.400D+00 0.137D+00 0.373D+00
 Coeff:      0.635D-01 0.269D-01 0.400D+00 0.137D+00 0.373D+00
 Gap=     0.030 Goal=   None    Shift=    0.000
 Gap=     0.036 Goal=   None    Shift=    0.000
 RMSDP=2.98D-04 MaxDP=1.52D-02 DE= 2.14D-06 OVMax= 8.42D-03

 Cycle  37  Pass 1  IDiag  1:
 E= -1136.08947598231     Delta-E=       -0.000014028855 Rises=F Damp=F
 DIIS: error= 7.81D-05 at cycle  37 NSaved=   6.
 NSaved= 6 IEnMin= 6 EnMin= -1136.08947598231     IErMin= 2 ErrMin= 7.41D-05
 ErrMax= 7.81D-05  0.00D+00 EMaxC= 1.00D-01 BMatC= 1.01D-06 BMatP= 1.03D-06
 IDIUse=1 WtCom= 1.00D+00 WtEn= 0.00D+00
 Large coefficients: NSaved=  6 BigCof=   14.88 CofMax=   10.00 Det=-1.02D-10
 Inversion failed.  Reducing to  5 matrices.
 Coeff-Com: -0.619D-01-0.169D-01-0.111D+01 0.937D+00 0.126D+01
 Coeff:     -0.619D-01-0.169D-01-0.111D+01 0.937D+00 0.126D+01
 Gap=     0.030 Goal=   None    Shift=    0.000
 Gap=     0.036 Goal=   None    Shift=    0.000
 RMSDP=3.96D-04 MaxDP=2.02D-02 DE=-1.40D-05 OVMax= 1.11D-02

 Cycle  38  Pass 1  IDiag  1:
 E= -1136.08949504145     Delta-E=       -0.000019059146 Rises=F Damp=F
 DIIS: error= 7.82D-05 at cycle  38 NSaved=   6.
 NSaved= 6 IEnMin= 6 EnMin= -1136.08949504145     IErMin= 1 ErrMin= 7.41D-05
 ErrMax= 7.82D-05  0.00D+00 EMaxC= 1.00D-01 BMatC= 1.05D-06 BMatP= 1.01D-06
 IDIUse=1 WtCom= 1.00D+00 WtEn= 0.00D+00
 Large coefficients: NSaved=  6 BigCof=   10.52 CofMax=   10.00 Det=-1.52D-10
 Inversion failed.  Reducing to  5 matrices.
 Coeff-Com: -0.995D-01 0.495D+01-0.310D+01 0.113D+01-0.188D+01
 Coeff:     -0.995D-01 0.495D+01-0.310D+01 0.113D+01-0.188D+01
 Gap=     0.030 Goal=   None    Shift=    0.000
 Gap=     0.036 Goal=   None    Shift=    0.000
 RMSDP=1.09D-03 MaxDP=5.50D-02 DE=-1.91D-05 OVMax= 3.07D-02

 Cycle  39  Pass 1  IDiag  1:
 E= -1136.08944350377     Delta-E=        0.000051537685 Rises=F Damp=F
 DIIS: error= 7.64D-05 at cycle  39 NSaved=   6.
 NSaved= 6 IEnMin= 5 EnMin= -1136.08949504145     IErMin= 1 ErrMin= 7.56D-05
 ErrMax= 7.64D-05  0.00D+00 EMaxC= 1.00D-01 BMatC= 1.02D-06 BMatP= 1.01D-06
 IDIUse=1 WtCom= 1.00D+00 WtEn= 0.00D+00
 Large coefficients: NSaved=  6 BigCof=   19.70 CofMax=   10.00 Det=-1.47D-10
 Inversion failed.  Reducing to  5 matrices.
 Coeff-Com:  0.676D+01-0.389D+01 0.151D+01-0.488D+01 0.149D+01
 Coeff:      0.676D+01-0.389D+01 0.151D+01-0.488D+01 0.149D+01
 Gap=     0.030 Goal=   None    Shift=    0.000
 Gap=     0.037 Goal=   None    Shift=    0.000
 RMSDP=2.45D-03 MaxDP=1.29D-01 DE= 5.15D-05 OVMax= 6.77D-02

 Cycle  40  Pass 1  IDiag  1:
 E= -1136.08932343260     Delta-E=        0.000120071168 Rises=F Damp=F
 DIIS: error= 8.37D-05 at cycle  40 NSaved=   6.
 NSaved= 6 IEnMin= 4 EnMin= -1136.08949504145     IErMin= 5 ErrMin= 7.64D-05
 ErrMax= 8.37D-05  0.00D+00 EMaxC= 1.00D-01 BMatC= 1.67D-06 BMatP= 1.01D-06
 IDIUse=1 WtCom= 1.00D+00 WtEn= 0.00D+00
 Coeff-Com:  0.264D+01-0.167D+01 0.298D+01-0.407D+01 0.144D+01-0.318D+00
 Coeff:      0.264D+01-0.167D+01 0.298D+01-0.407D+01 0.144D+01-0.318D+00
 Gap=     0.030 Goal=   None    Shift=    0.000
 Gap=     0.037 Goal=   None    Shift=    0.000
 RMSDP=1.68D-03 MaxDP=8.96D-02 DE= 1.20D-04 OVMax= 4.68D-02

 Cycle  41  Pass 1  IDiag  1:
 E= -1136.08940758369     Delta-E=       -0.000084151096 Rises=F Damp=F
 DIIS: error= 7.64D-05 at cycle  41 NSaved=   7.
 NSaved= 7 IEnMin= 4 EnMin= -1136.08949504145     IErMin= 7 ErrMin= 7.64D-05
 ErrMax= 7.64D-05  0.00D+00 EMaxC= 1.00D-01 BMatC= 1.16D-06 BMatP= 1.01D-06
 IDIUse=1 WtCom= 1.00D+00 WtEn= 0.00D+00
 Large coefficients: NSaved=  7 BigCof=   21.09 CofMax=   10.00 Det=-2.18D-10
 Inversion failed.  Reducing to  6 matrices.
 Coeff-Com:  0.287D+01-0.306D+01 0.254D+01-0.177D+01-0.144D+01 0.186D+01
 Coeff:      0.287D+01-0.306D+01 0.254D+01-0.177D+01-0.144D+01 0.186D+01
 Gap=     0.030 Goal=   None    Shift=    0.000
 Gap=     0.036 Goal=   None    Shift=    0.000
 RMSDP=3.04D-03 MaxDP=1.54D-01 DE=-8.42D-05 OVMax= 8.55D-02

 Cycle  42  Pass 1  IDiag  1:
 E= -1136.08955349844     Delta-E=       -0.000145914744 Rises=F Damp=F
 DIIS: error= 9.75D-05 at cycle  42 NSaved=   7.
 NSaved= 7 IEnMin= 7 EnMin= -1136.08955349844     IErMin= 6 ErrMin= 7.64D-05
 ErrMax= 9.75D-05  0.00D+00 EMaxC= 1.00D-01 BMatC= 2.14D-06 BMatP= 1.01D-06
 IDIUse=1 WtCom= 1.00D+00 WtEn= 0.00D+00
 Large coefficients: NSaved=  7 BigCof=   20.81 CofMax=   10.00 Det=-1.92D-10
 Inversion failed.  Reducing to  6 matrices.
 Coeff-Com:  0.966D+01-0.575D+01-0.613D+00-0.269D+01 0.257D+00 0.137D+00
 Coeff:      0.966D+01-0.575D+01-0.613D+00-0.269D+01 0.257D+00 0.137D+00
 Gap=     0.030 Goal=   None    Shift=    0.000
 Gap=     0.036 Goal=   None    Shift=    0.000
 RMSDP=3.19D-03 MaxDP=1.61D-01 DE=-1.46D-04 OVMax= 9.01D-02

 Cycle  43  Pass 1  IDiag  1:
 E= -1136.08940045560     Delta-E=        0.000153042836 Rises=F Damp=F
 DIIS: error= 7.70D-05 at cycle  43 NSaved=   7.
 NSaved= 7 IEnMin= 6 EnMin= -1136.08955349844     IErMin= 5 ErrMin= 7.64D-05
 ErrMax= 7.70D-05  0.00D+00 EMaxC= 1.00D-01 BMatC= 1.07D-06 BMatP= 1.01D-06
 IDIUse=1 WtCom= 1.00D+00 WtEn= 0.00D+00
 Large coefficients: NSaved=  7 BigCof=   11.65 CofMax=   10.00 Det=-1.99D-10
 Inversion failed.  Reducing to  6 matrices.
 Coeff-Com:  0.759D+01-0.462D+01 0.969D+00-0.378D+01 0.387D-01 0.806D+00
 Coeff:      0.759D+01-0.462D+01 0.969D+00-0.378D+01 0.387D-01 0.806D+00
 Gap=     0.030 Goal=   None    Shift=    0.000
 Gap=     0.037 Goal=   None    Shift=    0.000
 RMSDP=1.29D-03 MaxDP=6.94D-02 DE= 1.53D-04 OVMax= 3.55D-02

 Cycle  44  Pass 1  IDiag  1:
 E= -1136.08933608671     Delta-E=        0.000064368895 Rises=F Damp=F
 DIIS: error= 8.16D-05 at cycle  44 NSaved=   7.
 NSaved= 7 IEnMin= 5 EnMin= -1136.08955349844     IErMin= 6 ErrMin= 7.70D-05
 ErrMax= 8.16D-05  0.00D+00 EMaxC= 1.00D-01 BMatC= 1.45D-06 BMatP= 1.01D-06
 IDIUse=1 WtCom= 1.00D+00 WtEn= 0.00D+00
 Coeff-Com:  0.870D+01-0.636D+01 0.160D+01-0.323D+01 0.299D+00 0.775D+00
 Coeff-Com: -0.784D+00
 Coeff:      0.870D+01-0.636D+01 0.160D+01-0.323D+01 0.299D+00 0.775D+00
 Coeff:     -0.784D+00
 Gap=     0.030 Goal=   None    Shift=    0.000
 Gap=     0.036 Goal=   None    Shift=    0.000
 RMSDP=3.12D-03 MaxDP=1.56D-01 DE= 6.44D-05 OVMax= 8.79D-02

 Cycle  45  Pass 1  IDiag  1:
 E= -1136.08948797818     Delta-E=       -0.000151891470 Rises=F Damp=F
 DIIS: error= 7.77D-05 at cycle  45 NSaved=   8.
 NSaved= 8 IEnMin= 5 EnMin= -1136.08955349844     IErMin= 6 ErrMin= 7.70D-05
 ErrMax= 7.77D-05  0.00D+00 EMaxC= 1.00D-01 BMatC= 1.17D-06 BMatP= 1.01D-06
 IDIUse=1 WtCom= 1.00D+00 WtEn= 0.00D+00
 Large coefficients: NSaved=  8 BigCof=   50.85 CofMax=   10.00 Det=-1.49D-10
 Inversion failed.  Reducing to  7 matrices.
 Large coefficients: NSaved=  7 BigCof=   19.54 CofMax=   10.00 Det=-2.02D-10
 Inversion failed.  Reducing to  6 matrices.
 Coeff-Com:  0.508D+00 0.101D+01-0.465D+00 0.435D+00-0.161D+01 0.112D+01
 Coeff:      0.508D+00 0.101D+01-0.465D+00 0.435D+00-0.161D+01 0.112D+01
 Gap=     0.031 Goal=   None    Shift=    0.000
 Gap=     0.036 Goal=   None    Shift=    0.000
 RMSDP=5.37D-03 MaxDP=2.88D-01 DE=-1.52D-04 OVMax= 1.51D-01

 Cycle  46  Pass 1  IDiag  1:
 E= -1136.08977915773     Delta-E=       -0.000291179555 Rises=F Damp=F
 DIIS: error= 1.39D-04 at cycle  46 NSaved=   7.
 NSaved= 7 IEnMin= 7 EnMin= -1136.08977915773     IErMin= 1 ErrMin= 7.73D-05
 ErrMax= 1.39D-04  0.00D+00 EMaxC= 1.00D-01 BMatC= 1.19D-05 BMatP= 1.01D-06
 IDIUse=1 WtCom= 1.00D+00 WtEn= 0.00D+00
 Coeff-Com:  0.248D+01-0.124D+01 0.649D+00 0.962D-01-0.212D+01 0.858D+00
 Coeff-Com:  0.283D+00
 Coeff:      0.248D+01-0.124D+01 0.649D+00 0.962D-01-0.212D+01 0.858D+00
 Coeff:      0.283D+00
 Gap=     0.033 Goal=   None    Shift=    0.000
 Gap=     0.038 Goal=   None    Shift=    0.000
 RMSDP=2.32D-03 MaxDP=1.30D-01 DE=-2.91D-04 OVMax= 6.33D-02

 Cycle  47  Pass 1  IDiag  1:
 E= -1136.08990901609     Delta-E=       -0.000129858356 Rises=F Damp=F
 DIIS: error= 1.89D-04 at cycle  47 NSaved=   8.
 NSaved= 8 IEnMin= 8 EnMin= -1136.08990901609     IErMin= 1 ErrMin= 7.73D-05
 ErrMax= 1.89D-04  0.00D+00 EMaxC= 1.00D-01 BMatC= 3.07D-05 BMatP= 1.01D-06
 IDIUse=1 WtCom= 1.00D+00 WtEn= 0.00D+00
 Coeff-Com: -0.223D+01 0.225D+01 0.180D+01 0.350D+00-0.976D+00 0.728D+00
 Coeff-Com: -0.225D+01 0.133D+01
 Coeff:     -0.223D+01 0.225D+01 0.180D+01 0.350D+00-0.976D+00 0.728D+00
 Coeff:     -0.225D+01 0.133D+01
 Gap=     0.030 Goal=   None    Shift=    0.000
 Gap=     0.035 Goal=   None    Shift=    0.000
 RMSDP=4.93D-03 MaxDP=2.76D-01 DE=-1.30D-04 OVMax= 1.38D-01

 Cycle  48  Pass 1  IDiag  1:
 E= -1136.08962955208     Delta-E=        0.000279464011 Rises=F Damp=F
 DIIS: error= 9.16D-05 at cycle  48 NSaved=   9.
 NSaved= 9 IEnMin= 8 EnMin= -1136.08990901609     IErMin= 1 ErrMin= 7.73D-05
 ErrMax= 9.16D-05  0.00D+00 EMaxC= 1.00D-01 BMatC= 1.47D-06 BMatP= 1.01D-06
 IDIUse=1 WtCom= 1.00D+00 WtEn= 0.00D+00
 Coeff-Com: -0.302D+01 0.348D+01 0.539D+00 0.572D+00-0.659D+00 0.841D+00
 Coeff-Com: -0.302D+01 0.168D+01 0.590D+00
 Coeff:     -0.302D+01 0.348D+01 0.539D+00 0.572D+00-0.659D+00 0.841D+00
 Coeff:     -0.302D+01 0.168D+01 0.590D+00
 Gap=     0.030 Goal=   None    Shift=    0.000
 Gap=     0.036 Goal=   None    Shift=    0.000
 RMSDP=6.49D-04 MaxDP=3.53D-02 DE= 2.79D-04 OVMax= 1.92D-02

 Cycle  49  Pass 1  IDiag  1:
 E= -1136.08959162556     Delta-E=        0.000037926518 Rises=F Damp=F
 DIIS: error= 8.68D-05 at cycle  49 NSaved=  10.
 NSaved=10 IEnMin= 8 EnMin= -1136.08990901609     IErMin= 1 ErrMin= 7.73D-05
 ErrMax= 8.68D-05  0.00D+00 EMaxC= 1.00D-01 BMatC= 1.82D-06 BMatP= 1.01D-06
 IDIUse=1 WtCom= 1.00D+00 WtEn= 0.00D+00
 Coeff-Com: -0.252D+01 0.251D+01 0.180D+01 0.472D+00-0.904D+00 0.710D+00
 Coeff-Com: -0.316D+01 0.167D+01 0.177D+01-0.134D+01
 Coeff:     -0.252D+01 0.251D+01 0.180D+01 0.472D+00-0.904D+00 0.710D+00
 Coeff:     -0.316D+01 0.167D+01 0.177D+01-0.134D+01
 Gap=     0.030 Goal=   None    Shift=    0.000
 Gap=     0.036 Goal=   None    Shift=    0.000
 RMSDP=3.69D-04 MaxDP=1.95D-02 DE= 3.79D-05 OVMax= 1.10D-02

 Cycle  50  Pass 1  IDiag  1:
 E= -1136.08961315799     Delta-E=       -0.000021532425 Rises=F Damp=F
 DIIS: error= 8.79D-05 at cycle  50 NSaved=  11.
 NSaved=11 IEnMin= 8 EnMin= -1136.08990901609     IErMin= 1 ErrMin= 7.73D-05
 ErrMax= 8.79D-05  0.00D+00 EMaxC= 1.00D-01 BMatC= 1.43D-06 BMatP= 1.01D-06
 IDIUse=1 WtCom= 1.00D+00 WtEn= 0.00D+00
 Coeff-Com: -0.343D+01 0.278D+01 0.324D+01 0.569D+00-0.111D+01 0.381D+00
 Coeff-Com: -0.457D+01 0.209D+01 0.394D+01-0.548D+01 0.259D+01
 Coeff:     -0.343D+01 0.278D+01 0.324D+01 0.569D+00-0.111D+01 0.381D+00
 Coeff:     -0.457D+01 0.209D+01 0.394D+01-0.548D+01 0.259D+01
 Gap=     0.031 Goal=   None    Shift=    0.000
 Gap=     0.036 Goal=   None    Shift=    0.000
 RMSDP=7.65D-04 MaxDP=4.09D-02 DE=-2.15D-05 OVMax= 2.23D-02

 Cycle  51  Pass 1  IDiag  1:
 E= -1136.08965645582     Delta-E=       -0.000043297831 Rises=F Damp=F
 DIIS: error= 9.27D-05 at cycle  51 NSaved=  12.
 NSaved=12 IEnMin= 8 EnMin= -1136.08990901609     IErMin= 1 ErrMin= 7.73D-05
 ErrMax= 9.27D-05  0.00D+00 EMaxC= 1.00D-01 BMatC= 1.71D-06 BMatP= 1.01D-06
 IDIUse=1 WtCom= 1.00D+00 WtEn= 0.00D+00
 Coeff-Com: -0.427D+01 0.306D+01 0.441D+01 0.638D+00-0.168D+01 0.272D+00
 Coeff-Com: -0.527D+01 0.225D+01 0.443D+01-0.724D+01 0.329D+01 0.111D+01
 Coeff:     -0.427D+01 0.306D+01 0.441D+01 0.638D+00-0.168D+01 0.272D+00
 Coeff:     -0.527D+01 0.225D+01 0.443D+01-0.724D+01 0.329D+01 0.111D+01
 Gap=     0.032 Goal=   None    Shift=    0.000
 Gap=     0.037 Goal=   None    Shift=    0.000
 RMSDP=2.75D-03 MaxDP=1.53D-01 DE=-4.33D-05 OVMax= 7.79D-02

 Cycle  52  Pass 1  IDiag  1:
 E= -1136.08981395286     Delta-E=       -0.000157497045 Rises=F Damp=F
 DIIS: error= 1.23D-04 at cycle  52 NSaved=  13.
 NSaved=13 IEnMin= 8 EnMin= -1136.08990901609     IErMin= 1 ErrMin= 7.73D-05
 ErrMax= 1.23D-04  0.00D+00 EMaxC= 1.00D-01 BMatC= 1.05D-05 BMatP= 1.01D-06
 IDIUse=1 WtCom= 1.00D+00 WtEn= 0.00D+00
 Coeff-Com: -0.505D+01 0.333D+01 0.517D+01 0.840D+00-0.237D+01 0.812D+00
 Coeff-Com: -0.424D+01 0.123D+01 0.325D+01-0.457D+01 0.170D+01-0.644D+00
 Coeff-Com:  0.153D+01
 Coeff:     -0.505D+01 0.333D+01 0.517D+01 0.840D+00-0.237D+01 0.812D+00
 Coeff:     -0.424D+01 0.123D+01 0.325D+01-0.457D+01 0.170D+01-0.644D+00
 Coeff:      0.153D+01
 Gap=     0.033 Goal=   None    Shift=    0.000
 Gap=     0.039 Goal=   None    Shift=    0.000
 RMSDP=2.38D-03 MaxDP=1.34D-01 DE=-1.57D-04 OVMax= 6.42D-02

 Cycle  53  Pass 1  IDiag  1:
 E= -1136.08992435132     Delta-E=       -0.000110398462 Rises=F Damp=F
 DIIS: error= 2.06D-04 at cycle  53 NSaved=  14.
 NSaved=14 IEnMin=14 EnMin= -1136.08992435132     IErMin= 1 ErrMin= 7.73D-05
 ErrMax= 2.06D-04  0.00D+00 EMaxC= 1.00D-01 BMatC= 3.89D-05 BMatP= 1.01D-06
 IDIUse=1 WtCom= 1.00D+00 WtEn= 0.00D+00
 Coeff-Com: -0.569D+01 0.385D+01 0.393D+01 0.116D+01-0.201D+01 0.130D+01
 Coeff-Com: -0.104D+01-0.153D+01 0.127D+01-0.937D+00 0.895D-01-0.159D+01
 Coeff-Com:  0.759D+00 0.145D+01
 Coeff:     -0.569D+01 0.385D+01 0.393D+01 0.116D+01-0.201D+01 0.130D+01
 Coeff:     -0.104D+01-0.153D+01 0.127D+01-0.937D+00 0.895D-01-0.159D+01
 Coeff:      0.759D+00 0.145D+01
 Gap=     0.032 Goal=   None    Shift=    0.000
 Gap=     0.038 Goal=   None    Shift=    0.000
 RMSDP=2.01D-03 MaxDP=1.11D-01 DE=-1.10D-04 OVMax= 5.46D-02

 Cycle  54  Pass 1  IDiag  1:
 E= -1136.08981306878     Delta-E=        0.000111282546 Rises=F Damp=F
 DIIS: error= 1.64D-04 at cycle  54 NSaved=  15.
 NSaved=15 IEnMin=14 EnMin= -1136.08992435132     IErMin= 1 ErrMin= 7.73D-05
 ErrMax= 1.64D-04  0.00D+00 EMaxC= 1.00D-01 BMatC= 2.44D-05 BMatP= 1.01D-06
 IDIUse=1 WtCom= 1.00D+00 WtEn= 0.00D+00
 Coeff-Com: -0.691D+01 0.517D+01 0.329D+01 0.133D+01-0.161D+01 0.145D+01
 Coeff-Com: -0.585D+00-0.177D+01 0.101D+01-0.744D+00 0.175D+00-0.177D+01
 Coeff-Com:  0.718D+00 0.196D+01-0.716D+00
 Coeff:     -0.691D+01 0.517D+01 0.329D+01 0.133D+01-0.161D+01 0.145D+01
 Coeff:     -0.585D+00-0.177D+01 0.101D+01-0.744D+00 0.175D+00-0.177D+01
 Coeff:      0.718D+00 0.196D+01-0.716D+00
 Gap=     0.031 Goal=   None    Shift=    0.000
 Gap=     0.037 Goal=   None    Shift=    0.000
 RMSDP=1.40D-03 MaxDP=7.83D-02 DE= 1.11D-04 OVMax= 3.88D-02

 Cycle  55  Pass 1  IDiag  1:
 E= -1136.08974721877     Delta-E=        0.000065850003 Rises=F Damp=F
 DIIS: error= 1.22D-04 at cycle  55 NSaved=  16.
 NSaved=16 IEnMin=14 EnMin= -1136.08992435132     IErMin= 1 ErrMin= 7.73D-05
 ErrMax= 1.22D-04  0.00D+00 EMaxC= 1.00D-01 BMatC= 1.07D-05 BMatP= 1.01D-06
 IDIUse=1 WtCom= 1.00D+00 WtEn= 0.00D+00
 Coeff-Com: -0.327D+01 0.212D+01 0.299D+01 0.108D+01-0.159D+01 0.950D+00
 Coeff-Com: -0.625D+00-0.192D+01 0.226D+01-0.313D+01 0.176D+01 0.102D+00
 Coeff-Com: -0.132D+01 0.128D+01 0.295D+01-0.264D+01
 Coeff:     -0.327D+01 0.212D+01 0.299D+01 0.108D+01-0.159D+01 0.950D+00
 Coeff:     -0.625D+00-0.192D+01 0.226D+01-0.313D+01 0.176D+01 0.102D+00
 Coeff:     -0.132D+01 0.128D+01 0.295D+01-0.264D+01
 Gap=     0.031 Goal=   None    Shift=    0.000
 Gap=     0.037 Goal=   None    Shift=    0.000
 RMSDP=2.29D-03 MaxDP=1.19D-01 DE= 6.59D-05 OVMax= 6.10D-02

 Cycle  56  Pass 1  IDiag  1:
 E= -1136.08961409744     Delta-E=        0.000133121330 Rises=F Damp=F
 DIIS: error= 1.09D-04 at cycle  56 NSaved=  17.
 NSaved=17 IEnMin=14 EnMin= -1136.08992435132     IErMin= 1 ErrMin= 7.73D-05
 ErrMax= 1.09D-04  0.00D+00 EMaxC= 1.00D-01 BMatC= 1.08D-05 BMatP= 1.01D-06
 IDIUse=1 WtCom= 1.00D+00 WtEn= 0.00D+00
 Coeff-Com: -0.569D+01 0.466D+01 0.229D+01 0.929D+00-0.134D+01 0.809D+00
 Coeff-Com: -0.308D+01 0.433D+00 0.166D+01-0.350D+01 0.244D+01 0.198D+01
 Coeff-Com: -0.134D+00 0.139D+00 0.294D+01-0.537D+01 0.184D+01
 Coeff:     -0.569D+01 0.466D+01 0.229D+01 0.929D+00-0.134D+01 0.809D+00
 Coeff:     -0.308D+01 0.433D+00 0.166D+01-0.350D+01 0.244D+01 0.198D+01
 Coeff:     -0.134D+00 0.139D+00 0.294D+01-0.537D+01 0.184D+01
 Gap=     0.031 Goal=   None    Shift=    0.000
 Gap=     0.037 Goal=   None    Shift=    0.000
 RMSDP=1.39D-03 MaxDP=7.85D-02 DE= 1.33D-04 OVMax= 3.56D-02

 Cycle  57  Pass 1  IDiag  1:
 E= -1136.08954208832     Delta-E=        0.000072009126 Rises=F Damp=F
 DIIS: error= 1.05D-04 at cycle  57 NSaved=  18.
 NSaved=18 IEnMin=14 EnMin= -1136.08992435132     IErMin= 1 ErrMin= 7.73D-05
 ErrMax= 1.05D-04  0.00D+00 EMaxC= 1.00D-01 BMatC= 1.03D-05 BMatP= 1.01D-06
 IDIUse=1 WtCom= 1.00D+00 WtEn= 0.00D+00
 Coeff-Com: -0.601D+01 0.382D+01 0.371D+01 0.575D+00-0.198D+01 0.103D+01
 Coeff-Com: -0.239D+01 0.128D+01-0.111D+01 0.123D+01 0.109D+00-0.126D+00
 Coeff-Com:  0.145D+01 0.329D+00-0.112D+01-0.223D+01 0.993D-01 0.233D+01
 Coeff:     -0.601D+01 0.382D+01 0.371D+01 0.575D+00-0.198D+01 0.103D+01
 Coeff:     -0.239D+01 0.128D+01-0.111D+01 0.123D+01 0.109D+00-0.126D+00
 Coeff:      0.145D+01 0.329D+00-0.112D+01-0.223D+01 0.993D-01 0.233D+01
 Gap=     0.032 Goal=   None    Shift=    0.000
 Gap=     0.037 Goal=   None    Shift=    0.000
 RMSDP=1.69D-03 MaxDP=8.97D-02 DE= 7.20D-05 OVMax= 4.92D-02

 Cycle  58  Pass 1  IDiag  1:
 E= -1136.08960912030     Delta-E=       -0.000067031986 Rises=F Damp=F
 DIIS: error= 1.50D-04 at cycle  58 NSaved=  19.
 NSaved=19 IEnMin=14 EnMin= -1136.08992435132     IErMin= 1 ErrMin= 7.73D-05
 ErrMax= 1.50D-04  0.00D+00 EMaxC= 1.00D-01 BMatC= 1.56D-05 BMatP= 1.01D-06
 IDIUse=1 WtCom= 1.00D+00 WtEn= 0.00D+00
 Coeff-Com: -0.547D+01 0.254D+01 0.553D+01 0.344D+00-0.189D+01 0.369D+00
 Coeff-Com: -0.169D+01 0.740D+00-0.215D+00-0.264D+00 0.838D+00-0.336D+00
 Coeff-Com: -0.122D+00 0.900D+00-0.166D+01-0.102D+01 0.633D+00 0.919D+00
 Coeff-Com:  0.857D+00
 Coeff:     -0.547D+01 0.254D+01 0.553D+01 0.344D+00-0.189D+01 0.369D+00
 Coeff:     -0.169D+01 0.740D+00-0.215D+00-0.264D+00 0.838D+00-0.336D+00
 Coeff:     -0.122D+00 0.900D+00-0.166D+01-0.102D+01 0.633D+00 0.919D+00
 Coeff:      0.857D+00
 Gap=     0.032 Goal=   None    Shift=    0.000
 Gap=     0.038 Goal=   None    Shift=    0.000
 RMSDP=2.32D-04 MaxDP=1.33D-02 DE=-6.70D-05 OVMax= 5.31D-03

 Cycle  59  Pass 1  IDiag  1:
 E= -1136.08959338007     Delta-E=        0.000015740239 Rises=F Damp=F
 DIIS: error= 1.61D-04 at cycle  59 NSaved=  20.
 NSaved=20 IEnMin=14 EnMin= -1136.08992435132     IErMin= 1 ErrMin= 7.73D-05
 ErrMax= 1.61D-04  0.00D+00 EMaxC= 1.00D-01 BMatC= 1.91D-05 BMatP= 1.01D-06
 IDIUse=1 WtCom= 1.00D+00 WtEn= 0.00D+00
 Coeff-Com: -0.666D+01 0.306D+01 0.672D+01 0.191D+00-0.186D+01-0.932D-01
 Coeff-Com: -0.351D+01 0.211D+01 0.778D+00-0.217D+01 0.193D+01 0.574D+00
 Coeff-Com: -0.343D+00 0.378D+00-0.208D+01-0.642D+00 0.109D+01-0.132D-01
 Coeff-Com: -0.441D-01 0.158D+01
 Coeff:     -0.666D+01 0.306D+01 0.672D+01 0.191D+00-0.186D+01-0.932D-01
 Coeff:     -0.351D+01 0.211D+01 0.778D+00-0.217D+01 0.193D+01 0.574D+00
 Coeff:     -0.343D+00 0.378D+00-0.208D+01-0.642D+00 0.109D+01-0.132D-01
 Coeff:     -0.441D-01 0.158D+01
 Gap=     0.032 Goal=   None    Shift=    0.000
 Gap=     0.038 Goal=   None    Shift=    0.000
 RMSDP=6.46D-04 MaxDP=3.46D-02 DE= 1.57D-05 OVMax= 1.84D-02

 Cycle  60  Pass 1  IDiag  1:
 E= -1136.08961102889     Delta-E=       -0.000017648820 Rises=F Damp=F
 DIIS: error= 1.86D-04 at cycle  60 NSaved=  20.
 NSaved=20 IEnMin=13 EnMin= -1136.08992435132     IErMin= 1 ErrMin= 7.73D-05
 ErrMax= 1.86D-04  0.00D+00 EMaxC= 1.00D-01 BMatC= 2.48D-05 BMatP= 1.01D-06
 IDIUse=1 WtCom= 1.00D+00 WtEn= 0.00D+00
 Coeff-Com: -0.822D+01 0.613D+01 0.303D+01 0.503D+00-0.348D-01-0.350D+01
 Coeff-Com:  0.218D+01 0.653D+00-0.170D+01 0.228D+01 0.939D+00-0.118D+01
 Coeff-Com:  0.766D+00-0.196D+01-0.150D+01 0.162D+01-0.391D+00-0.231D+00
 Coeff-Com:  0.105D+01 0.596D+00
 Coeff:     -0.822D+01 0.613D+01 0.303D+01 0.503D+00-0.348D-01-0.350D+01
 Coeff:      0.218D+01 0.653D+00-0.170D+01 0.228D+01 0.939D+00-0.118D+01
 Coeff:      0.766D+00-0.196D+01-0.150D+01 0.162D+01-0.391D+00-0.231D+00
 Coeff:      0.105D+01 0.596D+00
 Gap=     0.029 Goal=   None    Shift=    0.000
 Gap=     0.036 Goal=   None    Shift=    0.000
 RMSDP=6.77D-03 MaxDP=3.45D-01 DE=-1.76D-05 OVMax= 1.92D-01

 Cycle  61  Pass 1  IDiag  1:
 E= -1136.08930400608     Delta-E=        0.000307022801 Rises=F Damp=F
 DIIS: error= 1.10D-04 at cycle  61 NSaved=  20.
 NSaved=20 IEnMin=12 EnMin= -1136.08992435132     IErMin= 4 ErrMin= 7.77D-05
 ErrMax= 1.10D-04  0.00D+00 EMaxC= 1.00D-01 BMatC= 1.01D-05 BMatP= 1.01D-06
 IDIUse=1 WtCom= 1.00D+00 WtEn= 0.00D+00
 Coeff-Com: -0.566D-01 0.134D+01-0.771D-01-0.278D+00-0.143D+01 0.701D+00
 Coeff-Com:  0.655D+00-0.139D+01 0.143D+01 0.137D+01-0.134D+01-0.126D+00
 Coeff-Com:  0.897D+00-0.283D+01 0.124D+01 0.127D+01-0.921D+00-0.102D+00
 Coeff-Com:  0.163D+01-0.978D+00
 Coeff:     -0.566D-01 0.134D+01-0.771D-01-0.278D+00-0.143D+01 0.701D+00
 Coeff:      0.655D+00-0.139D+01 0.143D+01 0.137D+01-0.134D+01-0.126D+00
 Coeff:      0.897D+00-0.283D+01 0.124D+01 0.127D+01-0.921D+00-0.102D+00
 Coeff:      0.163D+01-0.978D+00
 Gap=     0.031 Goal=   None    Shift=    0.000
 Gap=     0.038 Goal=   None    Shift=    0.000
 RMSDP=1.94D-03 MaxDP=9.39D-02 DE= 3.07D-04 OVMax= 5.52D-02

 Cycle  62  Pass 1  IDiag  1:
 E= -1136.08939656192     Delta-E=       -0.000092555838 Rises=F Damp=F
 DIIS: error= 1.33D-04 at cycle  62 NSaved=  20.
 NSaved=20 IEnMin=11 EnMin= -1136.08992435132     IErMin= 3 ErrMin= 7.77D-05
 ErrMax= 1.33D-04  0.00D+00 EMaxC= 1.00D-01 BMatC= 1.71D-05 BMatP= 1.05D-06
 IDIUse=1 WtCom= 1.00D+00 WtEn= 0.00D+00
 Coeff-Com:  0.102D+01-0.591D-01-0.249D+00-0.230D+01 0.140D+01 0.982D+00
 Coeff-Com: -0.170D+01 0.153D+01 0.135D+01-0.992D+00-0.121D+00-0.104D+01
 Coeff-Com: -0.413D+00 0.340D+00 0.114D+01-0.658D+00-0.462D+00 0.203D+01
 Coeff-Com: -0.162D+01 0.814D+00
 Coeff:      0.102D+01-0.591D-01-0.249D+00-0.230D+01 0.140D+01 0.982D+00
 Coeff:     -0.170D+01 0.153D+01 0.135D+01-0.992D+00-0.121D+00-0.104D+01
 Coeff:     -0.413D+00 0.340D+00 0.114D+01-0.658D+00-0.462D+00 0.203D+01
 Coeff:     -0.162D+01 0.814D+00
 Gap=     0.031 Goal=   None    Shift=    0.000
 Gap=     0.037 Goal=   None    Shift=    0.000
 RMSDP=2.42D-03 MaxDP=1.23D-01 DE=-9.26D-05 OVMax= 6.77D-02

 Cycle  63  Pass 1  IDiag  1:
 E= -1136.08951424250     Delta-E=       -0.000117680582 Rises=F Damp=F
 DIIS: error= 1.33D-04 at cycle  63 NSaved=  20.
 NSaved=20 IEnMin=11 EnMin= -1136.08992435132     IErMin= 3 ErrMin= 7.77D-05
 ErrMax= 1.33D-04  0.00D+00 EMaxC= 1.00D-01 BMatC= 1.50D-05 BMatP= 1.05D-06
 IDIUse=1 WtCom= 1.00D+00 WtEn= 0.00D+00
 Coeff-Com:  0.115D+01 0.117D+00-0.228D+00 0.725D+00-0.992D+00 0.341D+00
 Coeff-Com: -0.803D+00 0.114D+01 0.522D+00-0.252D+01 0.106D+01 0.122D+01
 Coeff-Com: -0.314D+01 0.150D+01 0.426D+00 0.406D+00-0.105D+00-0.146D-01
 Coeff-Com: -0.169D+01 0.188D+01
 Coeff:      0.115D+01 0.117D+00-0.228D+00 0.725D+00-0.992D+00 0.341D+00
 Coeff:     -0.803D+00 0.114D+01 0.522D+00-0.252D+01 0.106D+01 0.122D+01
 Coeff:     -0.314D+01 0.150D+01 0.426D+00 0.406D+00-0.105D+00-0.146D-01
 Coeff:     -0.169D+01 0.188D+01
 Gap=     0.030 Goal=   None    Shift=    0.000
 Gap=     0.038 Goal=   None    Shift=    0.000
 RMSDP=4.33D-03 MaxDP=2.29D-01 DE=-1.18D-04 OVMax= 1.20D-01

 Cycle  64  Pass 1  IDiag  1:
 E= -1136.08929215650     Delta-E=        0.000222086006 Rises=F Damp=F
 DIIS: error= 1.43D-04 at cycle  64 NSaved=  20.
 NSaved=20 IEnMin=11 EnMin= -1136.08992435132     IErMin= 3 ErrMin= 7.77D-05
 ErrMax= 1.43D-04  0.00D+00 EMaxC= 1.00D-01 BMatC= 2.22D-05 BMatP= 1.05D-06
 IDIUse=1 WtCom= 1.00D+00 WtEn= 0.00D+00
 Coeff-Com:  0.684D+00 0.144D+00-0.111D+00 0.114D+00-0.358D+00-0.214D-02
 Coeff-Com: -0.249D+00 0.841D+00 0.381D+00-0.163D+01 0.897D+00 0.196D-01
 Coeff-Com: -0.200D+01 0.100D+01 0.797D+00 0.226D+00-0.603D-01 0.429D-01
 Coeff-Com:  0.106D+01-0.798D+00
 Coeff:      0.684D+00 0.144D+00-0.111D+00 0.114D+00-0.358D+00-0.214D-02
 Coeff:     -0.249D+00 0.841D+00 0.381D+00-0.163D+01 0.897D+00 0.196D-01
 Coeff:     -0.200D+01 0.100D+01 0.797D+00 0.226D+00-0.603D-01 0.429D-01
 Coeff:      0.106D+01-0.798D+00
 Gap=     0.031 Goal=   None    Shift=    0.000
 Gap=     0.038 Goal=   None    Shift=    0.000
 RMSDP=8.49D-04 MaxDP=4.93D-02 DE= 2.22D-04 OVMax= 2.24D-02

 Cycle  65  Pass 1  IDiag  1:
 E= -1136.08934364261     Delta-E=       -0.000051486109 Rises=F Damp=F
 DIIS: error= 1.25D-04 at cycle  65 NSaved=  20.
 NSaved=20 IEnMin=10 EnMin= -1136.08992435132     IErMin= 1 ErrMin= 7.82D-05
 ErrMax= 1.25D-04  0.00D+00 EMaxC= 1.00D-01 BMatC= 1.56D-05 BMatP= 1.05D-06
 IDIUse=1 WtCom= 1.00D+00 WtEn= 0.00D+00
 Coeff-Com:  0.867D+00-0.170D-02 0.158D+01-0.119D+01 0.979D-02-0.579D+00
 Coeff-Com:  0.454D+00-0.662D+00-0.117D+01 0.150D+01-0.143D+01-0.571D+00
 Coeff-Com:  0.617D+00 0.940D+00 0.426D+00-0.875D+00 0.609D-01 0.808D+00
 Coeff-Com: -0.340D+01 0.361D+01
 Coeff:      0.867D+00-0.170D-02 0.158D+01-0.119D+01 0.979D-02-0.579D+00
 Coeff:      0.454D+00-0.662D+00-0.117D+01 0.150D+01-0.143D+01-0.571D+00
 Coeff:      0.617D+00 0.940D+00 0.426D+00-0.875D+00 0.609D-01 0.808D+00
 Coeff:     -0.340D+01 0.361D+01
 Gap=     0.031 Goal=   None    Shift=    0.000
 Gap=     0.039 Goal=   None    Shift=    0.000
 RMSDP=1.05D-03 MaxDP=7.06D-02 DE=-5.15D-05 OVMax= 2.69D-02

 Cycle  66  Pass 1  IDiag  1:
 E= -1136.08927611906     Delta-E=        0.000067523551 Rises=F Damp=F
 DIIS: error= 1.50D-04 at cycle  66 NSaved=  20.
 NSaved=20 IEnMin=10 EnMin= -1136.08992435132     IErMin= 1 ErrMin= 7.82D-05
 ErrMax= 1.50D-04  0.00D+00 EMaxC= 1.00D-01 BMatC= 2.01D-05 BMatP= 1.05D-06
 IDIUse=1 WtCom= 1.00D+00 WtEn= 0.00D+00
 Coeff-Com:  0.837D+00 0.123D+00 0.164D+01-0.145D+01-0.121D+00-0.106D+00
 Coeff-Com: -0.279D-02-0.505D+00-0.122D+01 0.145D+01-0.222D+01 0.915D+00
 Coeff-Com: -0.123D+00 0.977D+00 0.525D+00-0.927D+00 0.984D+00 0.116D+01
 Coeff-Com:  0.785D+00-0.174D+01
 Coeff:      0.837D+00 0.123D+00 0.164D+01-0.145D+01-0.121D+00-0.106D+00
 Coeff:     -0.279D-02-0.505D+00-0.122D+01 0.145D+01-0.222D+01 0.915D+00
 Coeff:     -0.123D+00 0.977D+00 0.525D+00-0.927D+00 0.984D+00 0.116D+01
 Coeff:      0.785D+00-0.174D+01
 Gap=     0.031 Goal=   None    Shift=    0.000
 Gap=     0.037 Goal=   None    Shift=    0.000
 RMSDP=3.67D-03 MaxDP=2.10D-01 DE= 6.75D-05 OVMax= 1.01D-01

 Cycle  67  Pass 1  IDiag  1:
 E= -1136.08947447850     Delta-E=       -0.000198359441 Rises=F Damp=F
 DIIS: error= 1.34D-04 at cycle  67 NSaved=  20.
 NSaved=20 IEnMin=10 EnMin= -1136.08992435132     IErMin= 1 ErrMin= 7.82D-05
 ErrMax= 1.34D-04  0.00D+00 EMaxC= 1.00D-01 BMatC= 1.69D-05 BMatP= 1.05D-06
 IDIUse=1 WtCom= 1.00D+00 WtEn= 0.00D+00
 Coeff-Com:  0.629D+00 0.132D+00 0.621D+00-0.775D+00 0.792D-01-0.696D+00
 Coeff-Com:  0.556D+00 0.299D+00-0.105D+01 0.933D+00-0.142D+01-0.204D+00
 Coeff-Com:  0.352D+00 0.930D+00 0.232D+00-0.362D+00 0.863D+00 0.318D+00
 Coeff-Com: -0.133D+01 0.892D+00
 Coeff:      0.629D+00 0.132D+00 0.621D+00-0.775D+00 0.792D-01-0.696D+00
 Coeff:      0.556D+00 0.299D+00-0.105D+01 0.933D+00-0.142D+01-0.204D+00
 Coeff:      0.352D+00 0.930D+00 0.232D+00-0.362D+00 0.863D+00 0.318D+00
 Coeff:     -0.133D+01 0.892D+00
 Gap=     0.031 Goal=   None    Shift=    0.000
 Gap=     0.038 Goal=   None    Shift=    0.000
 RMSDP=4.15D-04 MaxDP=2.07D-02 DE=-1.98D-04 OVMax= 1.20D-02

 Cycle  68  Pass 1  IDiag  1:
 E= -1136.08949216011     Delta-E=       -0.000017681611 Rises=F Damp=F
 DIIS: error= 1.40D-04 at cycle  68 NSaved=  20.
 NSaved=20 IEnMin=10 EnMin= -1136.08992435132     IErMin= 1 ErrMin= 7.82D-05
 ErrMax= 1.40D-04  0.00D+00 EMaxC= 1.00D-01 BMatC= 1.82D-05 BMatP= 1.05D-06
 IDIUse=1 WtCom= 1.00D+00 WtEn= 0.00D+00
 Coeff-Com:  0.932D+00 0.190D+00 0.374D+00-0.523D+00-0.121D+00 0.811D+00
 Coeff-Com:  0.546D+00-0.619D-01-0.259D+01 0.112D+01 0.995D+00-0.261D+01
 Coeff-Com:  0.834D+00 0.751D+00 0.422D+00-0.100D+01 0.817D+00 0.109D+01
 Coeff-Com: -0.101D+01 0.412D-01
 Coeff:      0.932D+00 0.190D+00 0.374D+00-0.523D+00-0.121D+00 0.811D+00
 Coeff:      0.546D+00-0.619D-01-0.259D+01 0.112D+01 0.995D+00-0.261D+01
 Coeff:      0.834D+00 0.751D+00 0.422D+00-0.100D+01 0.817D+00 0.109D+01
 Coeff:     -0.101D+01 0.412D-01
 Gap=     0.030 Goal=   None    Shift=    0.000
 Gap=     0.038 Goal=   None    Shift=    0.000
 RMSDP=6.18D-03 MaxDP=3.22D-01 DE=-1.77D-05 OVMax= 1.73D-01

 Cycle  69  Pass 1  IDiag  1:
 E= -1136.08913752959     Delta-E=        0.000354630521 Rises=F Damp=F
 DIIS: error= 1.68D-04 at cycle  69 NSaved=  20.
 NSaved=20 IEnMin=10 EnMin= -1136.08992435132     IErMin= 1 ErrMin= 7.82D-05
 ErrMax= 1.68D-04  0.00D+00 EMaxC= 1.00D-01 BMatC= 2.55D-05 BMatP= 1.05D-06
 IDIUse=1 WtCom= 1.00D+00 WtEn= 0.00D+00
 Coeff-Com:  0.544D+00 0.785D-01 0.760D-01-0.247D+00 0.507D+00-0.136D+01
 Coeff-Com:  0.104D+01 0.667D+00-0.101D+01 0.456D+00-0.437D+00-0.111D+01
 Coeff-Com:  0.511D+00 0.932D+00 0.136D+00-0.209D+00 0.487D+00 0.313D+00
 Coeff-Com:  0.256D+00-0.631D+00
 Coeff:      0.544D+00 0.785D-01 0.760D-01-0.247D+00 0.507D+00-0.136D+01
 Coeff:      0.104D+01 0.667D+00-0.101D+01 0.456D+00-0.437D+00-0.111D+01
 Coeff:      0.511D+00 0.932D+00 0.136D+00-0.209D+00 0.487D+00 0.313D+00
 Coeff:      0.256D+00-0.631D+00
 Gap=     0.030 Goal=   None    Shift=    0.000
 Gap=     0.037 Goal=   None    Shift=    0.000
 RMSDP=5.60D-03 MaxDP=2.79D-01 DE= 3.55D-04 OVMax= 1.59D-01

 Cycle  70  Pass 1  IDiag  1:
 E= -1136.08945603219     Delta-E=       -0.000318502608 Rises=F Damp=F
 DIIS: error= 1.50D-04 at cycle  70 NSaved=  20.
 NSaved=20 IEnMin=10 EnMin= -1136.08992435132     IErMin= 1 ErrMin= 7.82D-05
 ErrMax= 1.50D-04  0.00D+00 EMaxC= 1.00D-01 BMatC= 1.84D-05 BMatP= 1.05D-06
 IDIUse=1 WtCom= 1.00D+00 WtEn= 0.00D+00
 Coeff-Com:  0.600D+00 0.380D-01-0.518D+00 0.100D+00 0.619D+00-0.135D+01
 Coeff-Com:  0.108D+01 0.815D+00-0.857D+00 0.221D+00-0.403D-01-0.134D+01
 Coeff-Com:  0.684D+00 0.766D+00-0.372D-01-0.582D+00 0.725D+00-0.407D+00
 Coeff-Com: -0.652D+00 0.113D+01
 Coeff:      0.600D+00 0.380D-01-0.518D+00 0.100D+00 0.619D+00-0.135D+01
 Coeff:      0.108D+01 0.815D+00-0.857D+00 0.221D+00-0.403D-01-0.134D+01
 Coeff:      0.684D+00 0.766D+00-0.372D-01-0.582D+00 0.725D+00-0.407D+00
 Coeff:     -0.652D+00 0.113D+01
 Gap=     0.031 Goal=   None    Shift=    0.000
 Gap=     0.038 Goal=   None    Shift=    0.000
 RMSDP=6.55D-04 MaxDP=3.29D-02 DE=-3.19D-04 OVMax= 1.81D-02

 Cycle  71  Pass 1  IDiag  1:
 E= -1136.08942629574     Delta-E=        0.000029736450 Rises=F Damp=F
 DIIS: error= 1.45D-04 at cycle  71 NSaved=  20.
 NSaved=20 IEnMin=10 EnMin= -1136.08992435132     IErMin= 1 ErrMin= 7.82D-05
 ErrMax= 1.45D-04  0.00D+00 EMaxC= 1.00D-01 BMatC= 1.70D-05 BMatP= 1.05D-06
 IDIUse=1 WtCom= 1.00D+00 WtEn= 0.00D+00
 Coeff-Com:  0.103D+01 0.126D+00-0.627D+00 0.141D+00 0.603D+00-0.725D+00
 Coeff-Com:  0.145D+01 0.698D+00-0.260D+01 0.689D+00 0.118D+01-0.284D+01
 Coeff-Com:  0.977D+00 0.583D+00 0.234D+00-0.111D+01 0.149D+01-0.464D+00
 Coeff-Com:  0.116D+01-0.990D+00
 Coeff:      0.103D+01 0.126D+00-0.627D+00 0.141D+00 0.603D+00-0.725D+00
 Coeff:      0.145D+01 0.698D+00-0.260D+01 0.689D+00 0.118D+01-0.284D+01
 Coeff:      0.977D+00 0.583D+00 0.234D+00-0.111D+01 0.149D+01-0.464D+00
 Coeff:      0.116D+01-0.990D+00
 Gap=     0.030 Goal=   None    Shift=    0.000
 Gap=     0.039 Goal=   None    Shift=    0.000
 RMSDP=4.66D-03 MaxDP=2.29D-01 DE= 2.97D-05 OVMax= 1.32D-01

 Cycle  72  Pass 1  IDiag  1:
 E= -1136.08916273570     Delta-E=        0.000263560045 Rises=F Damp=F
 DIIS: error= 1.65D-04 at cycle  72 NSaved=  20.
 NSaved=20 IEnMin=10 EnMin= -1136.08992435132     IErMin= 1 ErrMin= 7.82D-05
 ErrMax= 1.65D-04  0.00D+00 EMaxC= 1.00D-01 BMatC= 2.41D-05 BMatP= 1.05D-06
 IDIUse=1 WtCom= 1.00D+00 WtEn= 0.00D+00
 Coeff-Com:  0.619D+00-0.726D-02-0.299D+00 0.690D-01 0.184D+00-0.364D+00
 Coeff-Com:  0.562D+00 0.462D+00-0.685D+00 0.149D+00 0.134D+00-0.156D+01
 Coeff-Com:  0.708D+00 0.959D+00-0.167D+00-0.586D+00 0.711D+00-0.270D+00
 Coeff-Com:  0.113D+01-0.748D+00
 Coeff:      0.619D+00-0.726D-02-0.299D+00 0.690D-01 0.184D+00-0.364D+00
 Coeff:      0.562D+00 0.462D+00-0.685D+00 0.149D+00 0.134D+00-0.156D+01
 Coeff:      0.708D+00 0.959D+00-0.167D+00-0.586D+00 0.711D+00-0.270D+00
 Coeff:      0.113D+01-0.748D+00
 Gap=     0.030 Goal=   None    Shift=    0.000
 Gap=     0.037 Goal=   None    Shift=    0.000
 RMSDP=4.07D-03 MaxDP=1.97D-01 DE= 2.64D-04 OVMax= 1.17D-01

 Cycle  73  Pass 1  IDiag  1:
 E= -1136.08939686743     Delta-E=       -0.000234131733 Rises=F Damp=F
 DIIS: error= 1.45D-04 at cycle  73 NSaved=  20.
 NSaved=20 IEnMin=10 EnMin= -1136.08992435132     IErMin= 1 ErrMin= 7.82D-05
 ErrMax= 1.45D-04  0.00D+00 EMaxC= 1.00D-01 BMatC= 1.71D-05 BMatP= 1.05D-06
 IDIUse=1 WtCom= 1.00D+00 WtEn= 0.00D+00
 Coeff-Com:  0.666D+00-0.309D-01-0.252D+00 0.740D-01 0.158D+00-0.247D+00
 Coeff-Com:  0.478D+00 0.429D+00-0.714D+00 0.120D+00 0.238D+00-0.164D+01
 Coeff-Com:  0.711D+00 0.993D+00-0.219D+00-0.586D+00 0.768D+00-0.255D+00
 Coeff-Com: -0.798D+00 0.111D+01
 Coeff:      0.666D+00-0.309D-01-0.252D+00 0.740D-01 0.158D+00-0.247D+00
 Coeff:      0.478D+00 0.429D+00-0.714D+00 0.120D+00 0.238D+00-0.164D+01
 Coeff:      0.711D+00 0.993D+00-0.219D+00-0.586D+00 0.768D+00-0.255D+00
 Coeff:     -0.798D+00 0.111D+01
 Gap=     0.031 Goal=   None    Shift=    0.000
 Gap=     0.038 Goal=   None    Shift=    0.000
 RMSDP=2.95D-04 MaxDP=1.59D-02 DE=-2.34D-04 OVMax= 8.12D-03

 Cycle  74  Pass 1  IDiag  1:
 E= -1136.08938167943     Delta-E=        0.000015188002 Rises=F Damp=F
 DIIS: error= 1.46D-04 at cycle  74 NSaved=  20.
 NSaved=20 IEnMin=10 EnMin= -1136.08992435132     IErMin= 1 ErrMin= 7.82D-05
 ErrMax= 1.46D-04  0.00D+00 EMaxC= 1.00D-01 BMatC= 1.74D-05 BMatP= 1.05D-06
 IDIUse=1 WtCom= 1.00D+00 WtEn= 0.00D+00
 Coeff-Com:  0.983D+00 0.134D+00 0.274D+00-0.543D+00 0.902D+00-0.183D+01
 Coeff-Com:  0.163D+01 0.786D+00-0.256D+01 0.989D+00 0.335D+00-0.191D+01
 Coeff-Com:  0.735D+00 0.521D+00 0.452D+00-0.956D+00 0.126D+01 0.654D-01
 Coeff-Com:  0.655D+01-0.681D+01
 Coeff:      0.983D+00 0.134D+00 0.274D+00-0.543D+00 0.902D+00-0.183D+01
 Coeff:      0.163D+01 0.786D+00-0.256D+01 0.989D+00 0.335D+00-0.191D+01
 Coeff:      0.735D+00 0.521D+00 0.452D+00-0.956D+00 0.126D+01 0.654D-01
 Coeff:      0.655D+01-0.681D+01
 Gap=     0.031 Goal=   None    Shift=    0.000
 Gap=     0.038 Goal=   None    Shift=    0.000
 RMSDP=1.44D-03 MaxDP=6.93D-02 DE= 1.52D-05 OVMax= 4.35D-02

 Cycle  75  Pass 1  IDiag  1:
 E= -1136.08931901408     Delta-E=        0.000062665350 Rises=F Damp=F
 DIIS: error= 1.36D-04 at cycle  75 NSaved=  20.
 NSaved=20 IEnMin=10 EnMin= -1136.08992435132     IErMin= 1 ErrMin= 7.82D-05
 ErrMax= 1.36D-04  0.00D+00 EMaxC= 1.00D-01 BMatC= 1.76D-05 BMatP= 1.05D-06
 IDIUse=1 WtCom= 1.00D+00 WtEn= 0.00D+00
 Coeff-Com:  0.768D+00 0.254D-02 0.968D+00-0.707D+00-0.900D+00 0.198D+01
 Coeff-Com: -0.576D+00-0.475D+00-0.110D+01 0.738D+00 0.337D-01-0.191D+01
 Coeff-Com:  0.651D+00 0.164D+01-0.996D-01-0.105D+01 0.787D+00 0.118D+01
 Coeff-Com:  0.400D+00-0.133D+01
 Coeff:      0.768D+00 0.254D-02 0.968D+00-0.707D+00-0.900D+00 0.198D+01
 Coeff:     -0.576D+00-0.475D+00-0.110D+01 0.738D+00 0.337D-01-0.191D+01
 Coeff:      0.651D+00 0.164D+01-0.996D-01-0.105D+01 0.787D+00 0.118D+01
 Coeff:      0.400D+00-0.133D+01
 Gap=     0.031 Goal=   None    Shift=    0.000
 Gap=     0.039 Goal=   None    Shift=    0.000
 RMSDP=4.83D-04 MaxDP=2.90D-02 DE= 6.27D-05 OVMax= 1.46D-02

 Cycle  76  Pass 1  IDiag  1:
 E= -1136.08933336964     Delta-E=       -0.000014355558 Rises=F Damp=F
 DIIS: error= 1.37D-04 at cycle  76 NSaved=  20.
 NSaved=20 IEnMin=10 EnMin= -1136.08992435132     IErMin= 1 ErrMin= 7.82D-05
 ErrMax= 1.37D-04  0.00D+00 EMaxC= 1.00D-01 BMatC= 1.86D-05 BMatP= 1.05D-06
 IDIUse=1 WtCom= 1.00D+00 WtEn= 0.00D+00
 Coeff-Com:  0.811D+00-0.724D-02 0.113D+01-0.765D+00-0.838D+00 0.181D+01
 Coeff-Com: -0.523D+00-0.576D+00-0.113D+01 0.806D+00-0.314D+00-0.159D+01
 Coeff-Com:  0.514D+00 0.170D+01-0.392D-01-0.101D+01 0.826D+00 0.136D+01
 Coeff-Com: -0.144D+01 0.271D+00
 Coeff:      0.811D+00-0.724D-02 0.113D+01-0.765D+00-0.838D+00 0.181D+01
 Coeff:     -0.523D+00-0.576D+00-0.113D+01 0.806D+00-0.314D+00-0.159D+01
 Coeff:      0.514D+00 0.170D+01-0.392D-01-0.101D+01 0.826D+00 0.136D+01
 Coeff:     -0.144D+01 0.271D+00
 Gap=     0.031 Goal=   None    Shift=    0.000
 Gap=     0.038 Goal=   None    Shift=    0.000
 RMSDP=3.73D-04 MaxDP=1.88D-02 DE=-1.44D-05 OVMax= 1.04D-02

 Cycle  77  Pass 1  IDiag  1:
 E= -1136.08935263242     Delta-E=       -0.000019262784 Rises=F Damp=F
 DIIS: error= 1.36D-04 at cycle  77 NSaved=  20.
 NSaved=20 IEnMin=10 EnMin= -1136.08992435132     IErMin= 1 ErrMin= 7.82D-05
 ErrMax= 1.36D-04  0.00D+00 EMaxC= 1.00D-01 BMatC= 1.85D-05 BMatP= 1.05D-06
 IDIUse=1 WtCom= 1.00D+00 WtEn= 0.00D+00
 Large coefficients: NSaved= 20 BigCof=   14.33 CofMax=   10.00 Det=-3.24D-10
 Inversion failed.  Reducing to 19 matrices.
 Large coefficients: NSaved= 19 BigCof=   14.81 CofMax=   10.00 Det=-3.36D-10
 Inversion failed.  Reducing to 18 matrices.
 Large coefficients: NSaved= 18 BigCof=   11.97 CofMax=   10.00 Det=-6.47D-10
 Inversion failed.  Reducing to 17 matrices.
 Large coefficients: NSaved= 17 BigCof=   12.44 CofMax=   10.00 Det=-6.75D-10
 Inversion failed.  Reducing to 16 matrices.
 Large coefficients: NSaved= 16 BigCof=   12.28 CofMax=   10.00 Det=-6.76D-10
 Inversion failed.  Reducing to 15 matrices.
 Large coefficients: NSaved= 15 BigCof=   11.49 CofMax=   10.00 Det=-7.57D-10
 Inversion failed.  Reducing to 14 matrices.
 Large coefficients: NSaved= 14 BigCof=   11.22 CofMax=   10.00 Det=-7.75D-10
 Inversion failed.  Reducing to 13 matrices.
 Coeff-Com: -0.556D+00 0.614D+00-0.318D+00 0.845D+00 0.128D+01-0.155D+01
 Coeff-Com:  0.465D+00-0.166D+01-0.224D-01 0.761D+00 0.113D+01-0.998D+01
 Coeff-Com:  0.999D+01
 Coeff:     -0.556D+00 0.614D+00-0.318D+00 0.845D+00 0.128D+01-0.155D+01
 Coeff:      0.465D+00-0.166D+01-0.224D-01 0.761D+00 0.113D+01-0.998D+01
 Coeff:      0.999D+01
 Gap=     0.031 Goal=   None    Shift=    0.000
 Gap=     0.037 Goal=   None    Shift=    0.000
 RMSDP=3.28D-03 MaxDP=1.66D-01 DE=-1.93D-05 OVMax= 9.06D-02

 Cycle  78  Pass 1  IDiag  1:
 E= -1136.08951251982     Delta-E=       -0.000159887400 Rises=F Damp=F
 DIIS: error= 1.38D-04 at cycle  78 NSaved=  14.
 NSaved=14 IEnMin= 7 EnMin= -1136.08992435132     IErMin= 4 ErrMin= 8.79D-05
 ErrMax= 1.38D-04  0.00D+00 EMaxC= 1.00D-01 BMatC= 1.52D-05 BMatP= 1.43D-06
 IDIUse=1 WtCom= 1.00D+00 WtEn= 0.00D+00
 Large coefficients: NSaved= 14 BigCof=   10.72 CofMax=   10.00 Det=-5.23D-10
 Inversion failed.  Reducing to 13 matrices.
 Coeff-Com: -0.492D+00 0.226D+00-0.590D+00 0.117D+01 0.231D+01-0.226D+01
[...]
 Coeff:     -0.147D+01 0.153D+01
 Gap=     0.031 Goal=   None    Shift=    0.000
 Gap=     0.038 Goal=   None    Shift=    0.000
 RMSDP=1.06D-03 MaxDP=5.38D-02 DE=-1.44D-04 OVMax= 2.96D-02

 Cycle 128  Pass 1  IDiag  1:
 E= -1136.08944768626     Delta-E=       -0.000051212046 Rises=F Damp=F
 DIIS: error= 1.49D-04 at cycle 128 NSaved=  20.
 NSaved=20 IEnMin= 7 EnMin= -1136.08992435132     IErMin= 4 ErrMin= 8.79D-05
 ErrMax= 1.49D-04  0.00D+00 EMaxC= 1.00D-01 BMatC= 1.85D-05 BMatP= 1.43D-06
 IDIUse=1 WtCom= 1.00D+00 WtEn= 0.00D+00
 Coeff-Com: -0.997D+00 0.547D+00-0.239D+00 0.159D+01 0.206D+01-0.279D+01
 Coeff-Com: -0.196D-01 0.325D+01-0.535D+01 0.245D+01-0.169D+00-0.156D+00
 Coeff-Com: -0.958D+00 0.142D+01-0.312D+01 0.188D+01-0.301D+00 0.675D+00
 Coeff-Com: -0.164D+01 0.287D+01
 Coeff:     -0.997D+00 0.547D+00-0.239D+00 0.159D+01 0.206D+01-0.279D+01
 Coeff:     -0.196D-01 0.325D+01-0.535D+01 0.245D+01-0.169D+00-0.156D+00
 Coeff:     -0.958D+00 0.142D+01-0.312D+01 0.188D+01-0.301D+00 0.675D+00
 Coeff:     -0.164D+01 0.287D+01
 Gap=     0.031 Goal=   None    Shift=    0.000
 Gap=     0.039 Goal=   None    Shift=    0.000
 RMSDP=4.90D-03 MaxDP=2.71D-01 DE=-5.12D-05 OVMax= 1.35D-01

 >>>>>>>>>> Convergence criterion not met.
 SCF Done:  E(UB3LYP) =  -1136.08944769     A.U. after  129 cycles
            NFock=128  Conv=0.49D-02     -V/T= 2.0025
 <Sx>= 0.0000 <Sy>= 0.0000 <Sz>= 0.5000 <S**2>= 0.9988 S= 0.6175
 <L.S>= 0.000000000000E+00
 KE= 1.133237334884D+03 PE=-3.441536151989D+03 EE= 8.160814837458D+02
 Annihilation of the first spin contaminant:
 S**2 before annihilation     0.9988,   after     0.7580
 Leave Link  502 at Mon Nov 13 16:26:53 2023, MaxMem=  1879048192 cpu:            1085.2 elap:              96.0
 (Enter /home/sekinelabo/g16/l601.exe)
 Copying SCF densities to generalized density rwf, IOpCl= 1 IROHF=0.

 **********************************************************************

            Population analysis using the SCF Density.

 **********************************************************************

 Orbital symmetries:
 Alpha Orbitals:
       Occupied  (A) (A) (A) (A) (A) (A) (A) (A) (A) (A) (A) (A)
                 (A) (A) (A) (A) (A) (A) (A) (A) (A) (A) (A) (A)
                 (A) (A) (A) (A) (A) (A) (A) (A) (A) (A) (A) (A)
                 (A) (A) (A)
       Virtual   (A) (A) (A) (A) (A) (A) (A) (A) (A) (A) (A) (A)
                 (A) (A) (A) (A) (A) (A) (A) (A) (A) (A) (A) (A)
                 (A) (A) (A) (A) (A) (A) (A) (A) (A) (A) (A) (A)
                 (A) (A) (A) (A) (A) (A) (A) (A) (A) (A) (A) (A)
                 (A) (A) (A) (A) (A) (A) (A) (A) (A) (A) (A) (A)
                 (A) (A) (A) (A) (A) (A) (A) (A) (A) (A) (A) (A)
                 (A) (A) (A) (A) (A) (A) (A) (A) (A) (A) (A) (A)
                 (A) (A) (A) (A) (A) (A) (A) (A) (A) (A) (A) (A)
                 (A) (A) (A) (A) (A) (A) (A) (A) (A) (A) (A) (A)
                 (A) (A) (A) (A) (A) (A) (A) (A) (A) (A) (A) (A)
                 (A) (A) (A) (A) (A) (A) (A) (A) (A) (A) (A) (A)
                 (A) (A) (A) (A) (A) (A) (A) (A) (A) (A) (A) (A)
                 (A) (A) (A) (A) (A) (A) (A) (A) (A) (A) (A) (A)
                 (A) (A) (A) (A) (A) (A) (A) (A) (A) (A) (A) (A)
                 (A) (A) (A)
 Beta  Orbitals:
       Occupied  (A) (A) (A) (A) (A) (A) (A) (A) (A) (A) (A) (A)
                 (A) (A) (A) (A) (A) (A) (A) (A) (A) (A) (A) (A)
                 (A) (A) (A) (A) (A) (A) (A) (A) (A) (A) (A) (A)
                 (A) (A)
       Virtual   (A) (A) (A) (A) (A) (A) (A) (A) (A) (A) (A) (A)
                 (A) (A) (A) (A) (A) (A) (A) (A) (A) (A) (A) (A)
                 (A) (A) (A) (A) (A) (A) (A) (A) (A) (A) (A) (A)
                 (A) (A) (A) (A) (A) (A) (A) (A) (A) (A) (A) (A)
                 (A) (A) (A) (A) (A) (A) (A) (A) (A) (A) (A) (A)
                 (A) (A) (A) (A) (A) (A) (A) (A) (A) (A) (A) (A)
                 (A) (A) (A) (A) (A) (A) (A) (A) (A) (A) (A) (A)
                 (A) (A) (A) (A) (A) (A) (A) (A) (A) (A) (A) (A)
                 (A) (A) (A) (A) (A) (A) (A) (A) (A) (A) (A) (A)
                 (A) (A) (A) (A) (A) (A) (A) (A) (A) (A) (A) (A)
                 (A) (A) (A) (A) (A) (A) (A) (A) (A) (A) (A) (A)
                 (A) (A) (A) (A) (A) (A) (A) (A) (A) (A) (A) (A)
                 (A) (A) (A) (A) (A) (A) (A) (A) (A) (A) (A) (A)
                 (A) (A) (A) (A) (A) (A) (A) (A) (A) (A) (A) (A)
                 (A) (A) (A) (A)
 The electronic state is 2-A.
 Alpha  occ. eigenvalues --  -38.44764 -38.44760 -38.44416 -38.44394 -38.44030
 Alpha  occ. eigenvalues --  -38.43400 -38.42922  -2.20879  -2.20849  -2.20492
 Alpha  occ. eigenvalues --   -2.20205  -2.20018  -2.19389  -2.18930  -1.14733
 Alpha  occ. eigenvalues --   -1.14569  -1.14545  -1.14532  -1.14483  -1.14397
 Alpha  occ. eigenvalues --   -1.14153  -1.14145  -1.14098  -1.13914  -1.13856
 Alpha  occ. eigenvalues --   -1.13852  -1.13693  -1.13664  -1.13633  -1.13108
 Alpha  occ. eigenvalues --   -1.13069  -1.12999  -1.12593  -1.12579  -1.12557
 Alpha  occ. eigenvalues --   -0.20262  -0.14385  -0.12053  -0.10986
 Alpha virt. eigenvalues --   -0.07827  -0.04605  -0.03996  -0.03340  -0.03069
 Alpha virt. eigenvalues --   -0.02173  -0.02023  -0.01322  -0.00802  -0.00378
 Alpha virt. eigenvalues --    0.00047   0.00242   0.00359   0.00650   0.00853
 Alpha virt. eigenvalues --    0.01066   0.01200   0.01277   0.01368   0.01465
 Alpha virt. eigenvalues --    0.01543   0.01613   0.01853   0.01884   0.01961
 Alpha virt. eigenvalues --    0.02049   0.02284   0.02452   0.02547   0.02640
 Alpha virt. eigenvalues --    0.02723   0.02847   0.03036   0.03049   0.03102
 Alpha virt. eigenvalues --    0.03344   0.03389   0.03532   0.03630   0.03837
 Alpha virt. eigenvalues --    0.04104   0.04170   0.04492   0.04725   0.05007
 Alpha virt. eigenvalues --    0.05174   0.05450   0.05535   0.05719   0.05739
 Alpha virt. eigenvalues --    0.06276   0.06501   0.06572   0.07165   0.07292
 Alpha virt. eigenvalues --    0.07542   0.07662   0.08472   0.08682   0.09078
 Alpha virt. eigenvalues --    0.09442   0.09835   0.10057   0.10663   0.11404
 Alpha virt. eigenvalues --    0.11464   0.12333   0.12579   0.13095   0.13466
 Alpha virt. eigenvalues --    0.13558   0.13692   0.14039   0.14754   0.14874
 Alpha virt. eigenvalues --    0.15381   0.16247   0.16626   0.17045   0.19479
 Alpha virt. eigenvalues --    0.23233   0.24730   0.27303   0.27838   0.30030
 Alpha virt. eigenvalues --    0.30284   0.31424   0.32037   0.33344   0.33938
 Alpha virt. eigenvalues --    0.34670   0.35095   0.35273   0.36271   0.36778
 Alpha virt. eigenvalues --    0.37877   0.38579   0.39725   0.40743   0.42018
 Alpha virt. eigenvalues --    0.43330   0.43770   0.44169   0.44304   0.44729
 Alpha virt. eigenvalues --    0.44914   0.45284   0.45538   0.45886   0.46333
 Alpha virt. eigenvalues --    0.46882   0.47454   0.48033   0.49572   0.50443
 Alpha virt. eigenvalues --    0.50584   0.51170   0.51554   0.52262   0.52419
 Alpha virt. eigenvalues --    0.52655   0.53060   0.54719   0.56763   0.59195
 Alpha virt. eigenvalues --    0.64609   0.67664   0.69111   0.69294   0.70877
 Alpha virt. eigenvalues --    0.71845   0.72581   0.72881   0.75696   0.77287
 Alpha virt. eigenvalues --    0.81312   2.08855   2.12862   2.20919   2.24370
 Alpha virt. eigenvalues --    2.25909   2.26797   2.32031   4.40285   4.40889
 Alpha virt. eigenvalues --    4.41259   4.41475   4.42660   4.43356   4.44357
 Alpha virt. eigenvalues --    4.44698   4.45776   4.46835   4.49321   4.52006
 Alpha virt. eigenvalues --    4.56095   4.58172   4.63388   4.64437   4.66815
 Alpha virt. eigenvalues --    4.74072   4.75698   4.77241   4.81423  96.29358
 Alpha virt. eigenvalues --   96.34706  96.45529  96.50202  96.52692  96.54421
 Alpha virt. eigenvalues --   96.61336
  Beta  occ. eigenvalues --  -38.44704 -38.44678 -38.44434 -38.44335 -38.44041
  Beta  occ. eigenvalues --  -38.43377 -38.42913  -2.20778  -2.20700  -2.20387
  Beta  occ. eigenvalues --   -2.20237  -2.20047  -2.19352  -2.18918  -1.14661
  Beta  occ. eigenvalues --   -1.14489  -1.14438  -1.14430  -1.14397  -1.14273
  Beta  occ. eigenvalues --   -1.14093  -1.14070  -1.13995  -1.13939  -1.13877
  Beta  occ. eigenvalues --   -1.13873  -1.13718  -1.13663  -1.13619  -1.13074
  Beta  occ. eigenvalues --   -1.13057  -1.12939  -1.12606  -1.12539  -1.12535
  Beta  occ. eigenvalues --   -0.19422  -0.14327  -0.11521
  Beta virt. eigenvalues --   -0.07532  -0.07177  -0.04577  -0.03568  -0.02931
  Beta virt. eigenvalues --   -0.02866  -0.01582  -0.01322  -0.01136  -0.00515
  Beta virt. eigenvalues --   -0.00304   0.00077   0.00310   0.00485   0.00725
  Beta virt. eigenvalues --    0.00900   0.01086   0.01217   0.01353   0.01414
  Beta virt. eigenvalues --    0.01558   0.01659   0.01685   0.01913   0.01984
  Beta virt. eigenvalues --    0.02033   0.02142   0.02310   0.02517   0.02569
  Beta virt. eigenvalues --    0.02671   0.02717   0.02874   0.03067   0.03103
  Beta virt. eigenvalues --    0.03201   0.03415   0.03508   0.03571   0.03704
  Beta virt. eigenvalues --    0.03907   0.04252   0.04323   0.04670   0.04814
  Beta virt. eigenvalues --    0.05120   0.05332   0.05572   0.05741   0.05775
  Beta virt. eigenvalues --    0.05943   0.06332   0.06613   0.06658   0.07345
  Beta virt. eigenvalues --    0.07465   0.07639   0.07743   0.08537   0.08698
  Beta virt. eigenvalues --    0.09148   0.09656   0.09989   0.10221   0.10913
  Beta virt. eigenvalues --    0.11765   0.12106   0.12488   0.12800   0.13357
  Beta virt. eigenvalues --    0.13623   0.13735   0.13877   0.14227   0.14833
  Beta virt. eigenvalues --    0.15072   0.15735   0.16560   0.16838   0.17444
  Beta virt. eigenvalues --    0.19703   0.23644   0.25035   0.27304   0.28188
  Beta virt. eigenvalues --    0.30315   0.30530   0.31749   0.32662   0.33706
  Beta virt. eigenvalues --    0.34170   0.34818   0.35201   0.35424   0.36253
  Beta virt. eigenvalues --    0.36879   0.37963   0.38638   0.39980   0.40987
  Beta virt. eigenvalues --    0.42202   0.43454   0.44107   0.44328   0.44441
  Beta virt. eigenvalues --    0.44837   0.45046   0.45313   0.45782   0.46306
  Beta virt. eigenvalues --    0.46526   0.46914   0.47559   0.48222   0.49634
  Beta virt. eigenvalues --    0.50648   0.50824   0.51262   0.51820   0.52629
  Beta virt. eigenvalues --    0.52736   0.52933   0.53340   0.54938   0.56983
  Beta virt. eigenvalues --    0.59404   0.64770   0.67858   0.69286   0.69539
  Beta virt. eigenvalues --    0.71138   0.72009   0.72808   0.73150   0.75910
  Beta virt. eigenvalues --    0.77323   0.81413   2.08856   2.12893   2.20901
  Beta virt. eigenvalues --    2.24495   2.26078   2.27035   2.32242   4.40357
  Beta virt. eigenvalues --    4.40962   4.41364   4.41535   4.42745   4.43397
  Beta virt. eigenvalues --    4.44401   4.44708   4.45769   4.46848   4.49349
  Beta virt. eigenvalues --    4.52032   4.56258   4.58217   4.63441   4.64475
  Beta virt. eigenvalues --    4.66843   4.74161   4.75760   4.77288   4.81445
  Beta virt. eigenvalues --   96.29365  96.34715  96.45530  96.50241  96.52744
  Beta virt. eigenvalues --   96.54497  96.61407
          Condensed to atoms (all electrons):
               1          2          3          4          5          6
     1  Na  13.953118  -1.258713  -2.324709   0.247447   1.428471  -0.638911
     2  Na  -1.258713  14.051740  -0.462384  -1.160316  -0.518110   0.988666
     3  Na  -2.324709  -0.462384  18.141617  -1.353922  -2.894739  -2.664795
     4  Na   0.247447  -1.160316  -1.353922  13.514435  -0.226959   0.597938
     5  Na   1.428471  -0.518110  -2.894739  -0.226959  13.229141  -0.084717
     6  Na  -0.638911   0.988666  -2.664795   0.597938  -0.084717  15.097825
     7  Na  -0.220725   0.118569   1.104823  -0.405800  -0.210956  -1.488891
               7
     1  Na  -0.220725
     2  Na   0.118569
     3  Na   1.104823
     4  Na  -0.405800
     5  Na  -0.210956
     6  Na  -1.488891
     7  Na  11.869589
          Atomic-Atomic Spin Densities.
               1          2          3          4          5          6
     1  Na   0.592221   0.216275   0.045396  -0.605297  -0.424045   0.445246
     2  Na   0.216275   1.052248  -1.275069  -0.092031   0.849359   0.209029
     3  Na   0.045396  -1.275069  -0.905875   1.401190   0.746048   0.249268
     4  Na  -0.605297  -0.092031   1.401190  -0.320820  -0.388600  -0.437585
     5  Na  -0.424045   0.849359   0.746048  -0.388600  -0.830600   0.054971
     6  Na   0.445246   0.209029   0.249268  -0.437585   0.054971  -0.490605
     7  Na   0.147361  -0.676704  -0.118976   0.587369   0.313910  -0.381680
               7
     1  Na   0.147361
     2  Na  -0.676704
     3  Na  -0.118976
     4  Na   0.587369
     5  Na   0.313910
     6  Na  -0.381680
     7  Na   0.172560
 Mulliken charges and spin densities:
               1          2
     1  Na  -0.185978   0.417157
     2  Na  -0.759453   0.283107
     3  Na   1.454109   0.141982
     4  Na  -0.212824   0.144227
     5  Na   0.277870   0.321044
     6  Na  -0.807115  -0.351357
     7  Na   0.233391   0.043840
 Sum of Mulliken charges =  -0.00000   1.00000
 Mulliken charges and spin densities with hydrogens summed into heavy atoms:
               1          2
     1  Na  -0.185978   0.417157
     2  Na  -0.759453   0.283107
     3  Na   1.454109   0.141982
     4  Na  -0.212824   0.144227
     5  Na   0.277870   0.321044
     6  Na  -0.807115  -0.351357
     7  Na   0.233391   0.043840
 Electronic spatial extent (au):  <R**2>=           2540.0904
 Charge=             -0.0000 electrons
 Dipole moment (field-independent basis, Debye):
    X=              0.3978    Y=              0.6224    Z=             -0.0456  Tot=              0.7401
 Quadrupole moment (field-independent basis, Debye-Ang):
   XX=            -56.1624   YY=            -72.9178   ZZ=            -69.1437
   XY=             -1.5300   XZ=             -4.1594   YZ=             -2.6946
 Traceless Quadrupole moment (field-independent basis, Debye-Ang):
   XX=              9.9123   YY=             -6.8432   ZZ=             -3.0691
   XY=             -1.5300   XZ=             -4.1594   YZ=             -2.6946
 Octapole moment (field-independent basis, Debye-Ang**2):
  XXX=            -13.4637  YYY=              5.9897  ZZZ=             -1.8535  XYY=             -1.9592
  XXY=              3.0739  XXZ=              1.2953  XZZ=              8.3158  YZZ=              8.9037
  YYZ=             -1.4881  XYZ=             -3.9710
 Hexadecapole moment (field-independent basis, Debye-Ang**3):
 XXXX=          -2453.1465 YYYY=           -886.9968 ZZZZ=           -570.9720 XXXY=            -23.4524
 XXXZ=           -124.6884 YYYX=            -40.3510 YYYZ=            -20.6288 ZZZX=            -20.5874
 ZZZY=            -14.6921 XXYY=           -672.9843 XXZZ=           -604.1245 YYZZ=           -252.6986
 XXYZ=            -25.9549 YYXZ=             -7.2905 ZZXY=             19.1451
 N-N= 3.561278856729D+02 E-N=-3.441524728616D+03  KE= 1.133237334884D+03
                          Isotropic Fermi Contact Couplings
        Atom                 a.u.       MegaHertz       Gauss      10(-4) cm-1
     1  Na(23)             0.28597     338.31481     120.71914     112.84967
     2  Na(23)             0.22620     267.59739      95.48540      89.26088
     3  Na(23)            -0.11352    -134.29536     -47.91992     -44.79611
     4  Na(23)             0.17703     209.43374      74.73117      69.85958
     5  Na(23)            -0.01217     -14.39309      -5.13581      -4.80102
     6  Na(23)             0.04075      48.20943      17.20232      16.08094
     7  Na(23)            -0.06073     -71.84289     -25.63533     -23.96421
 --------------------------------------------------------
       Center         ----  Spin Dipole Couplings  ----
                      3XX-RR        3YY-RR        3ZZ-RR
 --------------------------------------------------------
     1   Atom       -0.025751     -0.036644      0.062395
     2   Atom       -0.035427      0.040675     -0.005248
     3   Atom       -0.012330     -0.002085      0.014414
     4   Atom       -0.029814      0.028236      0.001578
     5   Atom       -0.006951     -0.018708      0.025659
     6   Atom        0.010792     -0.008815     -0.001977
     7   Atom        0.002204      0.000876     -0.003080
 --------------------------------------------------------
                        XY            XZ            YZ
 --------------------------------------------------------
     1   Atom        0.007494      0.044296     -0.019329
     2   Atom        0.005964     -0.000215     -0.017125
     3   Atom        0.011371     -0.009952      0.020776
     4   Atom        0.044578      0.039395      0.029557
     5   Atom        0.013877     -0.016326      0.023048
     6   Atom       -0.038309     -0.039250     -0.002351
     7   Atom        0.002033      0.003527     -0.001332
 --------------------------------------------------------


 ---------------------------------------------------------------------------------
              Anisotropic Spin Dipole Couplings in Principal Axis System
 ---------------------------------------------------------------------------------

       Atom             a.u.   MegaHertz   Gauss  10(-4) cm-1        Axes

              Baa    -0.0559    -7.889    -2.815    -2.631  0.6873 -0.6306 -0.3605
     1 Na(23) Bbb    -0.0268    -3.792    -1.353    -1.265  0.6265  0.7658 -0.1451
              Bcc     0.0827    11.680     4.168     3.896  0.3676 -0.1261  0.9214
 
              Baa    -0.0359    -5.075    -1.811    -1.693  0.9954 -0.0867 -0.0414
     2 Na(23) Bbb    -0.0108    -1.528    -0.545    -0.510  0.0663  0.3079  0.9491
              Bcc     0.0468     6.603     2.356     2.202  0.0696  0.9474 -0.3123
 
              Baa    -0.0294    -4.153    -1.482    -1.385  0.6610 -0.6087  0.4387
     3 Na(23) Bbb     0.0008     0.112     0.040     0.037  0.7486  0.5750 -0.3301
              Bcc     0.0286     4.041     1.442     1.348 -0.0513  0.5466  0.8358
 
              Baa    -0.0629    -8.887    -3.171    -2.965  0.8694 -0.2971 -0.3948
     4 Na(23) Bbb    -0.0163    -2.309    -0.824    -0.770  0.1292 -0.6344  0.7621
              Bcc     0.0793    11.196     3.995     3.735  0.4769  0.7136  0.5132
 
              Baa    -0.0400    -5.654    -2.017    -1.886 -0.5142  0.7613 -0.3949
     5 Na(23) Bbb     0.0022     0.314     0.112     0.105  0.8243  0.5659  0.0177
              Bcc     0.0378     5.339     1.905     1.781 -0.2369  0.3164  0.9186
 
              Baa    -0.0542    -7.653    -2.731    -2.553  0.6441  0.5702  0.5099
     6 Na(23) Bbb    -0.0031    -0.434    -0.155    -0.145  0.0619 -0.7032  0.7083
              Bcc     0.0573     8.087     2.886     2.697  0.7624 -0.4246 -0.4883
 
              Baa    -0.0055    -0.784    -0.280    -0.261 -0.4604  0.3175  0.8290
     7 Na(23) Bbb     0.0011     0.155     0.055     0.052 -0.1947  0.8750 -0.4432
              Bcc     0.0045     0.628     0.224     0.210  0.8661  0.3655  0.3410
 

 ---------------------------------------------------------------------------------

 No NMR shielding tensors so no spin-rotation constants.
 Leave Link  601 at Mon Nov 13 16:26:53 2023, MaxMem=  1879048192 cpu:               2.8 elap:               0.2
 (Enter /home/sekinelabo/g16/l701.exe)
 SCFChk:  SCF convergence  4.90D-03 required  1.00D-08


 SCF Error SCF Error SCF Error SCF Error SCF Error SCF Error SCF Error SCF Error

                                    ERROR!!!!

    SCF has not converged.  Gradients and post-SCF results would be GARBAGE!!

 SCF Error SCF Error SCF Error SCF Error SCF Error SCF Error SCF Error SCF Error


 Error termination via Lnk1e in /home/sekinelabo/g16/l701.exe at Mon Nov 13 16:26:53 2023.
 Job cpu time:       0 days  0 hours 18 minutes 19.9 seconds.
 Elapsed time:       0 days  0 hours  1 minutes 36.9 seconds.
 File lengths (MBytes):  RWF=     32 Int=      0 D2E=      0 Chk=      5 Scr=      1
