 Entering Gaussian System, Link 0=g16
 Initial command:
 /home/sekinelabo/g16/l1.exe "/home/sekinelabo/g16temp/Gau-4161028.inp" -scrdir="/home/sekinelabo/g16temp/"
 Entering Link 1 = /home/sekinelabo/g16/l1.exe PID=   4161030.
  
 Copyright (c) 1988-2017, Gaussian, Inc.  All Rights Reserved.
  
 This is part of the Gaussian(R) 16 program.  It is based on
 the Gaussian(R) 09 system (copyright 2009, Gaussian, Inc.),
 the Gaussian(R) 03 system (copyright 2003, Gaussian, Inc.),
 the Gaussian(R) 98 system (copyright 1998, Gaussian, Inc.),
 the Gaussian(R) 94 system (copyright 1995, Gaussian, Inc.),
 the Gaussian 92(TM) system (copyright 1992, Gaussian, Inc.),
 the Gaussian 90(TM) system (copyright 1990, Gaussian, Inc.),
 the Gaussian 88(TM) system (copyright 1988, Gaussian, Inc.),
 the Gaussian 86(TM) system (copyright 1986, Carnegie Mellon
 University), and the Gaussian 82(TM) system (copyright 1983,
 Carnegie Mellon University). Gaussian is a federally registered
 trademark of Gaussian, Inc.
  
 This software contains proprietary and confidential information,
 including trade secrets, belonging to Gaussian, Inc.
  
 This software is provided under written license and may be
 used, copied, transmitted, or stored only in accord with that
 written license.
  
 The following legend is applicable only to US Government
 contracts under FAR:
  
                    RESTRICTED RIGHTS LEGEND
  
 Use, reproduction and disclosure by the US Government is
 subject to restrictions as set forth in subparagraphs (a)
 and (c) of the Commercial Computer Software - Restricted
 Rights clause in FAR 52.227-19.
  
 Gaussian, Inc.
 340 Quinnipiac St., Bldg. 40, Wallingford CT 06492
  
  
 ---------------------------------------------------------------
 Warning -- This program may not be used in any manner that
 competes with the business of Gaussian, Inc. or will provide
 assistance to any competitor of Gaussian, Inc.  The licensee
 of this program is prohibited from giving any competitor of
 Gaussian, Inc. access to this program.  By using this program,
 the user acknowledges that Gaussian, Inc. is engaged in the
 business of creating and licensing software in the field of
 computational chemistry and represents and warrants to the
 licensee that it is not a competitor of Gaussian, Inc. and that
 it will not use this program in any manner prohibited above.
 ---------------------------------------------------------------
  

 Cite this work as:
 Gaussian 16, Revision B.01,
 M. J. Frisch, G. W. Trucks, H. B. Schlegel, G. E. Scuseria, 
 M. A. Robb, J. R. Cheeseman, G. Scalmani, V. Barone, 
 G. A. Petersson, H. Nakatsuji, X. Li, M. Caricato, A. V. Marenich, 
 J. Bloino, B. G. Janesko, R. Gomperts, B. Mennucci, H. P. Hratchian, 
 J. V. Ortiz, A. F. Izmaylov, J. L. Sonnenberg, D. Williams-Young, 
 F. Ding, F. Lipparini, F. Egidi, J. Goings, B. Peng, A. Petrone, 
 T. Henderson, D. Ranasinghe, V. G. Zakrzewski, J. Gao, N. Rega, 
 G. Zheng, W. Liang, M. Hada, M. Ehara, K. Toyota, R. Fukuda, 
 J. Hasegawa, M. Ishida, T. Nakajima, Y. Honda, O. Kitao, H. Nakai, 
 T. Vreven, K. Throssell, J. A. Montgomery, Jr., J. E. Peralta, 
 F. Ogliaro, M. J. Bearpark, J. J. Heyd, E. N. Brothers, K. N. Kudin, 
 V. N. Staroverov, T. A. Keith, R. Kobayashi, J. Normand, 
 K. Raghavachari, A. P. Rendell, J. C. Burant, S. S. Iyengar, 
 J. Tomasi, M. Cossi, J. M. Millam, M. Klene, C. Adamo, R. Cammi, 
 J. W. Ochterski, R. L. Martin, K. Morokuma, O. Farkas, 
 J. B. Foresman, and D. J. Fox, Gaussian, Inc., Wallingford CT, 2016.
 
 ******************************************
 Gaussian 16:  ES64L-G16RevB.01 20-Dec-2017
                13-Nov-2023 
 ******************************************
 %mem=14GB
 %chk=checkpoint.chk
 %nprocshared=16
 Will use up to   16 processors via shared memory.
 -------------------------
 #P B3LYP/6-311+g(d) force
 -------------------------
 1/10=7,30=1,38=1/1,3;
 2/12=2,17=6,18=5,40=1/2;
 3/5=4,6=6,7=11,11=2,25=1,30=1,71=1,74=-5/1,2,3;
 4//1;
 5/5=2,38=5/2;
 6/7=2,8=2,9=2,10=2,28=1/1;
 7/29=1/1,2,3,16;
 1/10=7,30=1/3;
 99//99;
 Leave Link    1 at Mon Nov 13 19:48:07 2023, MaxMem=  1879048192 cpu:               0.3 elap:               0.0
 (Enter /home/sekinelabo/g16/l101.exe)
 ------------------------------
 Gaussian input prepared by ASE
 ------------------------------
 Symbolic Z-matrix:
 Charge =  0 Multiplicity = 2
 Na                    4.9751    2.55931   0.0479 
 Na                    3.90938   4.19666   2.00071 
 Na                    5.70973   1.72466   2.6017 
 Na                    3.68208   0.        1.02517 
 Na                    2.70158   1.85004   2.88705 
 Na                    2.19009   2.51689   0. 
 Na                    0.        2.10746   1.85808 
 
 ITRead=  0  0  0  0  0  0  0
 MicOpt= -1 -1 -1 -1 -1 -1 -1
 NAtoms=      7 NQM=        7 NQMF=       0 NMMI=      0 NMMIF=      0
                NMic=       0 NMicF=      0.
                    Isotopes and Nuclear Properties:
 (Nuclear quadrupole moments (NQMom) in fm**2, nuclear magnetic moments (NMagM)
  in nuclear magnetons)

  Atom         1           2           3           4           5           6           7
 IAtWgt=          23          23          23          23          23          23          23
 AtmWgt=  22.9897697  22.9897697  22.9897697  22.9897697  22.9897697  22.9897697  22.9897697
 NucSpn=           3           3           3           3           3           3           3
 AtZEff=  -0.0000000  -0.0000000  -0.0000000  -0.0000000  -0.0000000  -0.0000000  -0.0000000
 NQMom=   10.4000000  10.4000000  10.4000000  10.4000000  10.4000000  10.4000000  10.4000000
 NMagM=    2.2175200   2.2175200   2.2175200   2.2175200   2.2175200   2.2175200   2.2175200
 AtZNuc=  11.0000000  11.0000000  11.0000000  11.0000000  11.0000000  11.0000000  11.0000000
 Leave Link  101 at Mon Nov 13 19:48:07 2023, MaxMem=  1879048192 cpu:               2.6 elap:               0.2
 (Enter /home/sekinelabo/g16/l103.exe)

 GradGradGradGradGradGradGradGradGradGradGradGradGradGradGradGradGradGrad
 Berny optimization.
 Initialization pass.
 Trust Radius=3.00D-01 FncErr=1.00D-07 GrdErr=1.00D-07 EigMax=2.50D+02 EigMin=1.00D-04
 Number of steps in this run=      2 maximum allowed number of steps=      2.
 GradGradGradGradGradGradGradGradGradGradGradGradGradGradGradGradGradGrad

 Leave Link  103 at Mon Nov 13 19:48:08 2023, MaxMem=  1879048192 cpu:               0.2 elap:               0.0
 (Enter /home/sekinelabo/g16/l202.exe)
                          Input orientation:                          
 ---------------------------------------------------------------------
 Center     Atomic      Atomic             Coordinates (Angstroms)
 Number     Number       Type             X           Y           Z
 ---------------------------------------------------------------------
      1         11           0        4.975104    2.559314    0.047901
      2         11           0        3.909379    4.196662    2.000707
      3         11           0        5.709730    1.724662    2.601701
      4         11           0        3.682078    0.000000    1.025171
      5         11           0        2.701576    1.850041    2.887054
      6         11           0        2.190093    2.516889    0.000000
      7         11           0        0.000000    2.107464    1.858082
 ---------------------------------------------------------------------
                    Distance matrix (angstroms):
                    1          2          3          4          5
     1  Na   0.000000
     2  Na   2.762269   0.000000
     3  Na   2.785357   3.116608   0.000000
     4  Na   3.029366   4.314546   3.093748   0.000000
     5  Na   3.705777   2.784067   3.024258   2.801900   0.000000
     6  Na   2.785745   3.127365   4.447956   3.100278   3.006889
     7  Na   5.313434   4.434900   5.770661   4.323522   2.902338
                    6          7
     6  Na   0.000000
     7  Na   2.901139   0.000000
 Stoichiometry    Na7(2)
 Framework group  C1[X(Na7)]
 Deg. of freedom    15
 Full point group                 C1      NOp   1
 Largest Abelian subgroup         C1      NOp   1
 Largest concise Abelian subgroup C1      NOp   1
                         Standard orientation:                         
 ---------------------------------------------------------------------
 Center     Atomic      Atomic             Coordinates (Angstroms)
 Number     Number       Type             X           Y           Z
 ---------------------------------------------------------------------
      1         11           0        1.665395   -0.422881    1.440758
      2         11           0        0.599670   -2.060229   -0.512048
      3         11           0        2.400021    0.411771   -1.113042
      4         11           0        0.372370    2.136433    0.463488
      5         11           0       -0.608132    0.286392   -1.398394
      6         11           0       -1.119615   -0.380456    1.488660
      7         11           0       -3.309709    0.028970   -0.369422
 ---------------------------------------------------------------------
 Rotational constants (GHZ):           1.2572632           0.7399319           0.7092518
 Leave Link  202 at Mon Nov 13 19:48:08 2023, MaxMem=  1879048192 cpu:               0.0 elap:               0.0
 (Enter /home/sekinelabo/g16/l301.exe)
 Standard basis: 6-311+G(d) (5D, 7F)
 Ernie: Thresh=  0.10000D-02 Tol=  0.10000D-05 Strict=F.
 There are   217 symmetry adapted cartesian basis functions of A   symmetry.
 There are   210 symmetry adapted basis functions of A   symmetry.
   210 basis functions,   350 primitive gaussians,   217 cartesian basis functions
    39 alpha electrons       38 beta electrons
       nuclear repulsion energy       404.0187705538 Hartrees.
 IExCor=  402 DFT=T Ex+Corr=B3LYP ExCW=0 ScaHFX=  0.200000
 ScaDFX=  0.800000  0.720000  1.000000  0.810000 ScalE2=  1.000000  1.000000
 IRadAn=      5 IRanWt=     -1 IRanGd=            0 ICorTp=0 IEmpDi=  4
 NAtoms=    7 NActive=    7 NUniq=    7 SFac= 1.00D+00 NAtFMM=   60 NAOKFM=F Big=F
 Integral buffers will be    131072 words long.
 Raffenetti 2 integral format.
 Two-electron integral symmetry is turned on.
 Leave Link  301 at Mon Nov 13 19:48:08 2023, MaxMem=  1879048192 cpu:               0.5 elap:               0.0
 (Enter /home/sekinelabo/g16/l302.exe)
 NPDir=0 NMtPBC=     1 NCelOv=     1 NCel=       1 NClECP=     1 NCelD=      1
         NCelK=      1 NCelE2=     1 NClLst=     1 CellRange=     0.0.
 One-electron integrals computed using PRISM.
 One-electron integral symmetry used in STVInt
 NBasis=   210 RedAO= T EigKep=  1.00D-06  NBF=   210
 NBsUse=   210 1.00D-06 EigRej= -1.00D+00 NBFU=   210
 Precomputing XC quadrature grid using
 IXCGrd= 4 IRadAn=           5 IRanWt=          -1 IRanGd=           0 AccXCQ= 0.00D+00.
 Generated NRdTot=       0 NPtTot=           0 NUsed=           0 NTot=          32
 NSgBfM=   211   211   211   211   211 MxSgAt=     7 MxSgA2=     7.
 Leave Link  302 at Mon Nov 13 19:48:08 2023, MaxMem=  1879048192 cpu:               2.2 elap:               0.1
 (Enter /home/sekinelabo/g16/l303.exe)
 DipDrv:  MaxL=1.
 Leave Link  303 at Mon Nov 13 19:48:08 2023, MaxMem=  1879048192 cpu:               0.6 elap:               0.0
 (Enter /home/sekinelabo/g16/l401.exe)
 ExpMin= 7.60D-03 ExpMax= 3.62D+04 ExpMxC= 1.21D+03 IAcc=3 IRadAn=         5 AccDes= 0.00D+00
 Harris functional with IExCor=  402 and IRadAn=       5 diagonalized for initial guess.
 HarFok:  IExCor=  402 AccDes= 0.00D+00 IRadAn=         5 IDoV= 1 UseB2=F ITyADJ=14
 ICtDFT=  3500011 ScaDFX=  1.000000  1.000000  1.000000  1.000000
 FoFCou: FMM=F IPFlag=           0 FMFlag=      100000 FMFlg1=           0
         NFxFlg=           0 DoJE=T BraDBF=F KetDBF=T FulRan=T
         wScrn=  0.000000 ICntrl=       500 IOpCl=  0 I1Cent=   200000004 NGrid=           0
         NMat0=    1 NMatS0=      1 NMatT0=    0 NMatD0=    1 NMtDS0=    0 NMtDT0=    0
 Petite list used in FoFCou.
 Harris En= -1135.85713973867    
 JPrj=0 DoOrth=F DoCkMO=F.
 Initial guess <Sx>= 0.0000 <Sy>= 0.0000 <Sz>= 0.5000 <S**2>= 0.7500 S= 0.5000
 Leave Link  401 at Mon Nov 13 19:48:08 2023, MaxMem=  1879048192 cpu:               4.7 elap:               0.3
 (Enter /home/sekinelabo/g16/l502.exe)
 Keep R1 and R2 ints in memory in canonical form, NReq=507620388.
 FoFCou: FMM=F IPFlag=           0 FMFlag=           0 FMFlg1=           0
         NFxFlg=           0 DoJE=F BraDBF=F KetDBF=F FulRan=T
         wScrn=  0.000000 ICntrl=       600 IOpCl=  0 I1Cent=           0 NGrid=           0
         NMat0=    1 NMatS0=  22155 NMatT0=    0 NMatD0=    1 NMtDS0=    0 NMtDT0=    0
 Symmetry not used in FoFCou.
 Two-electron integral symmetry not used.
 UHF open shell SCF:
 Using DIIS extrapolation, IDIIS=  1040.
 NGot=  1879048192 LenX=  1388082348 LenY=  1388034818
 Requested convergence on RMS density matrix=1.00D-08 within 128 cycles.
 Requested convergence on MAX density matrix=1.00D-06.
 Requested convergence on             energy=1.00D-06.
 No special actions if energy rises.

 Cycle   1  Pass 1  IDiag  1:
 E= -1136.03429444985    
 DIIS: error= 1.58D-02 at cycle   1 NSaved=   1.
 NSaved= 1 IEnMin= 1 EnMin= -1136.03429444985     IErMin= 1 ErrMin= 1.58D-02
 ErrMax= 1.58D-02  0.00D+00 EMaxC= 1.00D-01 BMatC= 2.13D-01 BMatP= 2.13D-01
 IDIUse=3 WtCom= 8.42D-01 WtEn= 1.58D-01
 Coeff-Com:  0.100D+01
 Coeff-En:   0.100D+01
 Coeff:      0.100D+01
 Gap=     0.054 Goal=   None    Shift=    0.000
 Gap=     0.028 Goal=   None    Shift=    0.000
 GapD=    0.028 DampG=0.250 DampE=0.500 DampFc=0.2500 IDamp=-1.
 Damping current iteration by 2.50D-01
 RMSDP=1.15D-01 MaxDP=1.05D+01              OVMax= 2.77D-01

 Cycle   2  Pass 1  IDiag  1:
 E= -1136.05143794917     Delta-E=       -0.017143499318 Rises=F Damp=T
 DIIS: error= 7.43D-03 at cycle   2 NSaved=   2.
 NSaved= 2 IEnMin= 2 EnMin= -1136.05143794917     IErMin= 2 ErrMin= 7.43D-03
 ErrMax= 7.43D-03  0.00D+00 EMaxC= 1.00D-01 BMatC= 7.97D-02 BMatP= 2.13D-01
 IDIUse=3 WtCom= 9.26D-01 WtEn= 7.43D-02
 Coeff-Com: -0.124D+01 0.224D+01
 Coeff-En:   0.000D+00 0.100D+01
 Coeff:     -0.115D+01 0.215D+01
 Gap=     0.060 Goal=   None    Shift=    0.000
 Gap=     0.033 Goal=   None    Shift=    0.000
 RMSDP=4.11D-02 MaxDP=4.26D+00 DE=-1.71D-02 OVMax= 1.98D-01

 Cycle   3  Pass 1  IDiag  1:
 E= -1136.07932668129     Delta-E=       -0.027888732125 Rises=F Damp=F
 DIIS: error= 4.45D-03 at cycle   3 NSaved=   3.
 NSaved= 3 IEnMin= 3 EnMin= -1136.07932668129     IErMin= 3 ErrMin= 4.45D-03
 ErrMax= 4.45D-03  0.00D+00 EMaxC= 1.00D-01 BMatC= 5.37D-03 BMatP= 7.97D-02
 IDIUse=3 WtCom= 9.55D-01 WtEn= 4.45D-02
 Coeff-Com: -0.322D+00 0.576D+00 0.745D+00
 Coeff-En:   0.000D+00 0.000D+00 0.100D+01
 Coeff:     -0.307D+00 0.551D+00 0.757D+00
 Gap=     0.053 Goal=   None    Shift=    0.000
 Gap=     0.031 Goal=   None    Shift=    0.000
 RMSDP=2.22D-02 MaxDP=2.12D+00 DE=-2.79D-02 OVMax= 8.50D-02

 Cycle   4  Pass 1  IDiag  1:
 E= -1136.08028926040     Delta-E=       -0.000962579105 Rises=F Damp=F
 DIIS: error= 3.19D-03 at cycle   4 NSaved=   4.
 NSaved= 4 IEnMin= 4 EnMin= -1136.08028926040     IErMin= 4 ErrMin= 3.19D-03
 ErrMax= 3.19D-03  0.00D+00 EMaxC= 1.00D-01 BMatC= 3.45D-03 BMatP= 5.37D-03
 IDIUse=3 WtCom= 9.68D-01 WtEn= 3.19D-02
 Coeff-Com: -0.136D-01 0.213D-01 0.442D+00 0.550D+00
 Coeff-En:   0.000D+00 0.000D+00 0.425D+00 0.575D+00
 Coeff:     -0.132D-01 0.206D-01 0.442D+00 0.551D+00
 Gap=     0.057 Goal=   None    Shift=    0.000
 Gap=     0.032 Goal=   None    Shift=    0.000
 RMSDP=6.69D-03 MaxDP=6.16D-01 DE=-9.63D-04 OVMax= 5.38D-02

 Cycle   5  Pass 1  IDiag  1:
 E= -1136.08232285764     Delta-E=       -0.002033597242 Rises=F Damp=F
 DIIS: error= 1.14D-03 at cycle   5 NSaved=   5.
 NSaved= 5 IEnMin= 5 EnMin= -1136.08232285764     IErMin= 5 ErrMin= 1.14D-03
 ErrMax= 1.14D-03  0.00D+00 EMaxC= 1.00D-01 BMatC= 2.65D-04 BMatP= 3.45D-03
 IDIUse=3 WtCom= 9.89D-01 WtEn= 1.14D-02
 Coeff-Com: -0.487D-02 0.608D-02 0.282D+00 0.367D+00 0.350D+00
 Coeff-En:   0.000D+00 0.000D+00 0.000D+00 0.358D-01 0.964D+00
 Coeff:     -0.482D-02 0.601D-02 0.279D+00 0.363D+00 0.357D+00
 Gap=     0.056 Goal=   None    Shift=    0.000
 Gap=     0.032 Goal=   None    Shift=    0.000
 RMSDP=1.42D-03 MaxDP=9.25D-02 DE=-2.03D-03 OVMax= 1.65D-02

 Cycle   6  Pass 1  IDiag  1:
 E= -1136.08260247014     Delta-E=       -0.000279612500 Rises=F Damp=F
 DIIS: error= 1.35D-04 at cycle   6 NSaved=   6.
 NSaved= 6 IEnMin= 6 EnMin= -1136.08260247014     IErMin= 6 ErrMin= 1.35D-04
 ErrMax= 1.35D-04  0.00D+00 EMaxC= 1.00D-01 BMatC= 3.73D-06 BMatP= 2.65D-04
 IDIUse=3 WtCom= 9.99D-01 WtEn= 1.35D-03
 Coeff-Com: -0.580D-03 0.298D-03-0.458D-01-0.632D-01 0.485D-01 0.106D+01
 Coeff-En:   0.000D+00 0.000D+00 0.000D+00 0.000D+00 0.000D+00 0.100D+01
 Coeff:     -0.580D-03 0.298D-03-0.457D-01-0.631D-01 0.485D-01 0.106D+01
 Gap=     0.056 Goal=   None    Shift=    0.000
 Gap=     0.032 Goal=   None    Shift=    0.000
 RMSDP=5.86D-04 MaxDP=4.63D-02 DE=-2.80D-04 OVMax= 3.93D-03

 Cycle   7  Pass 1  IDiag  1:
 E= -1136.08260968918     Delta-E=       -0.000007219040 Rises=F Damp=F
 DIIS: error= 3.54D-05 at cycle   7 NSaved=   7.
 NSaved= 7 IEnMin= 7 EnMin= -1136.08260968918     IErMin= 7 ErrMin= 3.54D-05
 ErrMax= 3.54D-05  0.00D+00 EMaxC= 1.00D-01 BMatC= 2.92D-07 BMatP= 3.73D-06
 IDIUse=1 WtCom= 1.00D+00 WtEn= 0.00D+00
 Coeff-Com:  0.482D-03-0.713D-03-0.205D-01-0.258D-01-0.133D-01 0.107D+00
 Coeff-Com:  0.952D+00
 Coeff:      0.482D-03-0.713D-03-0.205D-01-0.258D-01-0.133D-01 0.107D+00
 Coeff:      0.952D+00
 Gap=     0.056 Goal=   None    Shift=    0.000
 Gap=     0.032 Goal=   None    Shift=    0.000
 RMSDP=1.71D-04 MaxDP=1.30D-02 DE=-7.22D-06 OVMax= 2.79D-03

 Cycle   8  Pass 1  IDiag  1:
 E= -1136.08261065039     Delta-E=       -0.000000961212 Rises=F Damp=F
 DIIS: error= 2.99D-05 at cycle   8 NSaved=   8.
 NSaved= 8 IEnMin= 8 EnMin= -1136.08261065039     IErMin= 8 ErrMin= 2.99D-05
 ErrMax= 2.99D-05  0.00D+00 EMaxC= 1.00D-01 BMatC= 3.39D-07 BMatP= 2.92D-07
 IDIUse=1 WtCom= 1.00D+00 WtEn= 0.00D+00
 Coeff-Com:  0.606D-03-0.755D-03-0.355D-02-0.246D-02-0.222D-01-0.184D+00
 Coeff-Com:  0.666D+00 0.547D+00
 Coeff:      0.606D-03-0.755D-03-0.355D-02-0.246D-02-0.222D-01-0.184D+00
 Coeff:      0.666D+00 0.547D+00
 Gap=     0.056 Goal=   None    Shift=    0.000
 Gap=     0.032 Goal=   None    Shift=    0.000
 RMSDP=1.02D-04 MaxDP=7.69D-03 DE=-9.61D-07 OVMax= 2.01D-03

 Cycle   9  Pass 1  IDiag  1:
 E= -1136.08261137928     Delta-E=       -0.000000728888 Rises=F Damp=F
 DIIS: error= 1.87D-05 at cycle   9 NSaved=   9.
 NSaved= 9 IEnMin= 9 EnMin= -1136.08261137928     IErMin= 9 ErrMin= 1.87D-05
 ErrMax= 1.87D-05  0.00D+00 EMaxC= 1.00D-01 BMatC= 4.98D-08 BMatP= 2.92D-07
 IDIUse=1 WtCom= 1.00D+00 WtEn= 0.00D+00
 Coeff-Com:  0.190D-03-0.222D-03 0.249D-02 0.409D-02-0.653D-02-0.903D-01
 Coeff-Com:  0.494D-01 0.172D+00 0.869D+00
 Coeff:      0.190D-03-0.222D-03 0.249D-02 0.409D-02-0.653D-02-0.903D-01
 Coeff:      0.494D-01 0.172D+00 0.869D+00
 Gap=     0.056 Goal=   None    Shift=    0.000
 Gap=     0.032 Goal=   None    Shift=    0.000
 RMSDP=8.89D-05 MaxDP=5.31D-03 DE=-7.29D-07 OVMax= 2.27D-03

 Cycle  10  Pass 1  IDiag  1:
 E= -1136.08261180231     Delta-E=       -0.000000423035 Rises=F Damp=F
 DIIS: error= 1.67D-05 at cycle  10 NSaved=  10.
 NSaved=10 IEnMin=10 EnMin= -1136.08261180231     IErMin=10 ErrMin= 1.67D-05
 ErrMax= 1.67D-05  0.00D+00 EMaxC= 1.00D-01 BMatC= 3.10D-08 BMatP= 4.98D-08
 IDIUse=1 WtCom= 1.00D+00 WtEn= 0.00D+00
 Coeff-Com: -0.122D-03 0.171D-03 0.254D-02 0.258D-02 0.443D-02 0.938D-02
 Coeff-Com: -0.155D+00-0.131D+00 0.205D+00 0.106D+01
 Coeff:     -0.122D-03 0.171D-03 0.254D-02 0.258D-02 0.443D-02 0.938D-02
 Coeff:     -0.155D+00-0.131D+00 0.205D+00 0.106D+01
 Gap=     0.056 Goal=   None    Shift=    0.000
 Gap=     0.032 Goal=   None    Shift=    0.000
 RMSDP=1.01D-04 MaxDP=6.68D-03 DE=-4.23D-07 OVMax= 2.74D-03

 Cycle  11  Pass 1  IDiag  1:
 E= -1136.08261221224     Delta-E=       -0.000000409929 Rises=F Damp=F
 DIIS: error= 1.43D-05 at cycle  11 NSaved=  11.
 NSaved=11 IEnMin=11 EnMin= -1136.08261221224     IErMin=11 ErrMin= 1.43D-05
 ErrMax= 1.43D-05  0.00D+00 EMaxC= 1.00D-01 BMatC= 2.13D-08 BMatP= 3.10D-08
 IDIUse=1 WtCom= 1.00D+00 WtEn= 0.00D+00
 Coeff-Com: -0.148D-03 0.188D-03-0.148D-03-0.102D-02 0.458D-02 0.423D-01
 Coeff-Com: -0.562D-01-0.148D+00-0.474D+00 0.385D+00 0.125D+01
 Coeff:     -0.148D-03 0.188D-03-0.148D-03-0.102D-02 0.458D-02 0.423D-01
 Coeff:     -0.562D-01-0.148D+00-0.474D+00 0.385D+00 0.125D+01
 Gap=     0.056 Goal=   None    Shift=    0.000
 Gap=     0.032 Goal=   None    Shift=    0.000
 RMSDP=1.19D-04 MaxDP=7.31D-03 DE=-4.10D-07 OVMax= 3.68D-03

 Cycle  12  Pass 1  IDiag  1:
 E= -1136.08261264609     Delta-E=       -0.000000433843 Rises=F Damp=F
 DIIS: error= 1.10D-05 at cycle  12 NSaved=  12.
 NSaved=12 IEnMin=12 EnMin= -1136.08261264609     IErMin=12 ErrMin= 1.10D-05
 ErrMax= 1.10D-05  0.00D+00 EMaxC= 1.00D-01 BMatC= 1.54D-08 BMatP= 2.13D-08
 IDIUse=1 WtCom= 1.00D+00 WtEn= 0.00D+00
 Coeff-Com:  0.916D-05-0.270D-04-0.200D-02-0.254D-02-0.672D-03 0.221D-01
 Coeff-Com:  0.852D-01-0.651D-02-0.519D+00-0.565D+00 0.940D+00 0.105D+01
 Coeff:      0.916D-05-0.270D-04-0.200D-02-0.254D-02-0.672D-03 0.221D-01
 Coeff:      0.852D-01-0.651D-02-0.519D+00-0.565D+00 0.940D+00 0.105D+01
 Gap=     0.056 Goal=   None    Shift=    0.000
 Gap=     0.032 Goal=   None    Shift=    0.000
 RMSDP=1.31D-04 MaxDP=8.71D-03 DE=-4.34D-07 OVMax= 4.26D-03

 Cycle  13  Pass 1  IDiag  1:
 E= -1136.08261301140     Delta-E=       -0.000000365309 Rises=F Damp=F
 DIIS: error= 7.18D-06 at cycle  13 NSaved=  13.
 NSaved=13 IEnMin=13 EnMin= -1136.08261301140     IErMin=13 ErrMin= 7.18D-06
 ErrMax= 7.18D-06  0.00D+00 EMaxC= 1.00D-01 BMatC= 6.55D-09 BMatP= 1.54D-08
 IDIUse=1 WtCom= 1.00D+00 WtEn= 0.00D+00
 Coeff-Com:  0.202D-03-0.260D-03-0.481D-03 0.342D-03-0.566D-02-0.402D-01
 Coeff-Com:  0.101D+00 0.154D+00 0.331D+00-0.480D+00-0.109D+01 0.198D+00
 Coeff-Com:  0.183D+01
 Coeff:      0.202D-03-0.260D-03-0.481D-03 0.342D-03-0.566D-02-0.402D-01
 Coeff:      0.101D+00 0.154D+00 0.331D+00-0.480D+00-0.109D+01 0.198D+00
 Coeff:      0.183D+01
 Gap=     0.056 Goal=   None    Shift=    0.000
 Gap=     0.032 Goal=   None    Shift=    0.000
 RMSDP=1.58D-04 MaxDP=1.13D-02 DE=-3.65D-07 OVMax= 5.79D-03

 Cycle  14  Pass 1  IDiag  1:
 E= -1136.08261327405     Delta-E=       -0.000000262655 Rises=F Damp=F
 DIIS: error= 2.13D-06 at cycle  14 NSaved=  14.
 NSaved=14 IEnMin=14 EnMin= -1136.08261327405     IErMin=14 ErrMin= 2.13D-06
 ErrMax= 2.13D-06  0.00D+00 EMaxC= 1.00D-01 BMatC= 1.06D-09 BMatP= 6.55D-09
 IDIUse=1 WtCom= 1.00D+00 WtEn= 0.00D+00
 Coeff-Com: -0.581D-04 0.819D-04 0.349D-03 0.272D-03 0.152D-02 0.395D-02
 Coeff-Com: -0.448D-01-0.355D-01 0.101D+00 0.293D+00-0.972D-01-0.366D+00
 Coeff-Com: -0.329D+00 0.147D+01
 Coeff:     -0.581D-04 0.819D-04 0.349D-03 0.272D-03 0.152D-02 0.395D-02
 Coeff:     -0.448D-01-0.355D-01 0.101D+00 0.293D+00-0.972D-01-0.366D+00
 Coeff:     -0.329D+00 0.147D+01
 Gap=     0.056 Goal=   None    Shift=    0.000
 Gap=     0.032 Goal=   None    Shift=    0.000
 RMSDP=4.50D-05 MaxDP=3.23D-03 DE=-2.63D-07 OVMax= 1.88D-03

 Cycle  15  Pass 1  IDiag  1:
 E= -1136.08261330306     Delta-E=       -0.000000029012 Rises=F Damp=F
 DIIS: error= 9.97D-07 at cycle  15 NSaved=  15.
 NSaved=15 IEnMin=15 EnMin= -1136.08261330306     IErMin=15 ErrMin= 9.97D-07
 ErrMax= 9.97D-07  0.00D+00 EMaxC= 1.00D-01 BMatC= 1.85D-10 BMatP= 1.06D-09
 IDIUse=1 WtCom= 1.00D+00 WtEn= 0.00D+00
 Coeff-Com: -0.304D-04 0.388D-04 0.163D-03-0.215D-04 0.950D-03 0.694D-02
 Coeff-Com: -0.149D-01-0.277D-01-0.729D-01 0.609D-01 0.223D+00-0.134D-02
 Coeff-Com: -0.335D+00-0.987D-01 0.126D+01
 Coeff:     -0.304D-04 0.388D-04 0.163D-03-0.215D-04 0.950D-03 0.694D-02
 Coeff:     -0.149D-01-0.277D-01-0.729D-01 0.609D-01 0.223D+00-0.134D-02
 Coeff:     -0.335D+00-0.987D-01 0.126D+01
 Gap=     0.056 Goal=   None    Shift=    0.000
 Gap=     0.032 Goal=   None    Shift=    0.000
 RMSDP=1.60D-05 MaxDP=1.17D-03 DE=-2.90D-08 OVMax= 4.55D-04

 Cycle  16  Pass 1  IDiag  1:
 E= -1136.08261330560     Delta-E=       -0.000000002537 Rises=F Damp=F
 DIIS: error= 3.94D-07 at cycle  16 NSaved=  16.
 NSaved=16 IEnMin=16 EnMin= -1136.08261330560     IErMin=16 ErrMin= 3.94D-07
 ErrMax= 3.94D-07  0.00D+00 EMaxC= 1.00D-01 BMatC= 4.33D-11 BMatP= 1.85D-10
 IDIUse=1 WtCom= 1.00D+00 WtEn= 0.00D+00
 Coeff-Com:  0.447D-05-0.756D-05-0.273D-04-0.570D-04-0.180D-04 0.647D-03
 Coeff-Com:  0.744D-02 0.111D-02-0.470D-01-0.610D-01 0.945D-01 0.926D-01
 Coeff-Com: -0.267D-01-0.361D+00 0.340D+00 0.960D+00
 Coeff:      0.447D-05-0.756D-05-0.273D-04-0.570D-04-0.180D-04 0.647D-03
 Coeff:      0.744D-02 0.111D-02-0.470D-01-0.610D-01 0.945D-01 0.926D-01
 Coeff:     -0.267D-01-0.361D+00 0.340D+00 0.960D+00
 Gap=     0.056 Goal=   None    Shift=    0.000
 Gap=     0.032 Goal=   None    Shift=    0.000
 RMSDP=5.97D-06 MaxDP=4.97D-04 DE=-2.54D-09 OVMax= 1.45D-04

 Cycle  17  Pass 1  IDiag  1:
 E= -1136.08261330585     Delta-E=       -0.000000000253 Rises=F Damp=F
 DIIS: error= 1.14D-07 at cycle  17 NSaved=  17.
 NSaved=17 IEnMin=17 EnMin= -1136.08261330585     IErMin=17 ErrMin= 1.14D-07
 ErrMax= 1.14D-07  0.00D+00 EMaxC= 1.00D-01 BMatC= 4.73D-12 BMatP= 4.33D-11
 IDIUse=1 WtCom= 1.00D+00 WtEn= 0.00D+00
 Coeff-Com:  0.217D-05-0.277D-05-0.507D-04-0.212D-04-0.125D-03-0.493D-03
 Coeff-Com:  0.145D-02 0.262D-02 0.110D-01-0.667D-02-0.302D-01-0.301D-02
 Coeff-Com:  0.480D-01 0.149D-01-0.195D+00 0.636D-01 0.109D+01
 Coeff:      0.217D-05-0.277D-05-0.507D-04-0.212D-04-0.125D-03-0.493D-03
 Coeff:      0.145D-02 0.262D-02 0.110D-01-0.667D-02-0.302D-01-0.301D-02
 Coeff:      0.480D-01 0.149D-01-0.195D+00 0.636D-01 0.109D+01
 Gap=     0.056 Goal=   None    Shift=    0.000
 Gap=     0.032 Goal=   None    Shift=    0.000
 RMSDP=1.49D-06 MaxDP=1.74D-04 DE=-2.53D-10 OVMax= 1.62D-05

 Cycle  18  Pass 1  IDiag  1:
 E= -1136.08261330589     Delta-E=       -0.000000000039 Rises=F Damp=F
 DIIS: error= 2.99D-08 at cycle  18 NSaved=  18.
 NSaved=18 IEnMin=18 EnMin= -1136.08261330589     IErMin=18 ErrMin= 2.99D-08
 ErrMax= 2.99D-08  0.00D+00 EMaxC= 1.00D-01 BMatC= 3.56D-13 BMatP= 4.73D-12
 IDIUse=1 WtCom= 1.00D+00 WtEn= 0.00D+00
 Coeff-Com:  0.788D-06-0.848D-06 0.733D-05 0.120D-04-0.762D-05-0.234D-03
 Coeff-Com: -0.384D-03 0.209D-04 0.524D-02 0.619D-02-0.123D-01-0.964D-02
 Coeff-Com:  0.764D-02 0.323D-01-0.334D-01-0.978D-01 0.237D-01 0.108D+01
 Coeff:      0.788D-06-0.848D-06 0.733D-05 0.120D-04-0.762D-05-0.234D-03
 Coeff:     -0.384D-03 0.209D-04 0.524D-02 0.619D-02-0.123D-01-0.964D-02
 Coeff:      0.764D-02 0.323D-01-0.334D-01-0.978D-01 0.237D-01 0.108D+01
 Gap=     0.056 Goal=   None    Shift=    0.000
 Gap=     0.032 Goal=   None    Shift=    0.000
 RMSDP=2.66D-07 MaxDP=3.33D-05 DE=-3.93D-11 OVMax= 2.38D-06

 Cycle  19  Pass 1  IDiag  1:
 E= -1136.08261330588     Delta-E=        0.000000000008 Rises=F Damp=F
 DIIS: error= 9.58D-09 at cycle  19 NSaved=  19.
 NSaved=19 IEnMin=18 EnMin= -1136.08261330589     IErMin=19 ErrMin= 9.58D-09
 ErrMax= 9.58D-09  0.00D+00 EMaxC= 1.00D-01 BMatC= 3.99D-14 BMatP= 3.56D-13
 IDIUse=1 WtCom= 1.00D+00 WtEn= 0.00D+00
 Coeff-Com: -0.525D-06 0.664D-06 0.609D-05 0.213D-05 0.156D-04 0.912D-04
 Coeff-Com: -0.170D-03-0.347D-03-0.168D-02 0.304D-03 0.478D-02 0.867D-03
 Coeff-Com: -0.679D-02-0.230D-02 0.243D-01-0.673D-02-0.138D+00 0.219D-01
 Coeff-Com:  0.110D+01
 Coeff:     -0.525D-06 0.664D-06 0.609D-05 0.213D-05 0.156D-04 0.912D-04
 Coeff:     -0.170D-03-0.347D-03-0.168D-02 0.304D-03 0.478D-02 0.867D-03
 Coeff:     -0.679D-02-0.230D-02 0.243D-01-0.673D-02-0.138D+00 0.219D-01
 Coeff:      0.110D+01
 Gap=     0.056 Goal=   None    Shift=    0.000
 Gap=     0.032 Goal=   None    Shift=    0.000
 RMSDP=8.07D-08 MaxDP=5.46D-06 DE= 7.96D-12 OVMax= 9.08D-07

 Cycle  20  Pass 1  IDiag  1:
 E= -1136.08261330590     Delta-E=       -0.000000000019 Rises=F Damp=F
 DIIS: error= 4.11D-09 at cycle  20 NSaved=  20.
 NSaved=20 IEnMin=20 EnMin= -1136.08261330590     IErMin=20 ErrMin= 4.11D-09
 ErrMax= 4.11D-09  0.00D+00 EMaxC= 1.00D-01 BMatC= 6.51D-15 BMatP= 3.99D-14
 IDIUse=1 WtCom= 1.00D+00 WtEn= 0.00D+00
 Coeff-Com: -0.161D-06 0.196D-06-0.497D-06-0.136D-05 0.805D-06 0.285D-04
 Coeff-Com:  0.420D-04-0.269D-04-0.646D-03-0.674D-03 0.178D-02 0.107D-02
 Coeff-Com: -0.154D-02-0.314D-02 0.454D-02 0.104D-01-0.977D-02-0.124D+00
 Coeff-Com:  0.116D+00 0.101D+01
 Coeff:     -0.161D-06 0.196D-06-0.497D-06-0.136D-05 0.805D-06 0.285D-04
 Coeff:      0.420D-04-0.269D-04-0.646D-03-0.674D-03 0.178D-02 0.107D-02
 Coeff:     -0.154D-02-0.314D-02 0.454D-02 0.104D-01-0.977D-02-0.124D+00
 Coeff:      0.116D+00 0.101D+01
 Gap=     0.056 Goal=   None    Shift=    0.000
 Gap=     0.032 Goal=   None    Shift=    0.000
 RMSDP=3.74D-08 MaxDP=4.49D-06 DE=-1.93D-11 OVMax= 8.95D-07

 Cycle  21  Pass 1  IDiag  1:
 E= -1136.08261330590     Delta-E=        0.000000000000 Rises=F Damp=F
 DIIS: error= 2.51D-09 at cycle  21 NSaved=  20.
 NSaved=20 IEnMin=19 EnMin= -1136.08261330590     IErMin=20 ErrMin= 2.51D-09
 ErrMax= 2.51D-09  0.00D+00 EMaxC= 1.00D-01 BMatC= 2.26D-15 BMatP= 6.51D-15
 IDIUse=1 WtCom= 1.00D+00 WtEn= 0.00D+00
 Large coefficients: NSaved= 20 BigCof=    0.00 CofMax=   10.00 Det=-4.04D-15
 Inversion failed.  Reducing to 19 matrices.
 Large coefficients: NSaved= 19 BigCof=    0.00 CofMax=   10.00 Det=-4.10D-15
 Inversion failed.  Reducing to 18 matrices.
 Large coefficients: NSaved= 18 BigCof=    0.00 CofMax=   10.00 Det=-4.27D-15
 Inversion failed.  Reducing to 17 matrices.
 Large coefficients: NSaved= 17 BigCof=    0.00 CofMax=   10.00 Det=-4.31D-15
 Inversion failed.  Reducing to 16 matrices.
 Large coefficients: NSaved= 16 BigCof=    0.00 CofMax=   10.00 Det=-4.64D-15
 Inversion failed.  Reducing to 15 matrices.
 Coeff-Com:  0.155D-04 0.682D-05-0.803D-04-0.166D-03 0.162D-03 0.261D-03
 Coeff-Com:  0.798D-04-0.116D-02 0.254D-03 0.366D-02 0.747D-02-0.401D-01
 Coeff-Com: -0.109D+00 0.303D+00 0.836D+00
 Coeff:      0.155D-04 0.682D-05-0.803D-04-0.166D-03 0.162D-03 0.261D-03
 Coeff:      0.798D-04-0.116D-02 0.254D-03 0.366D-02 0.747D-02-0.401D-01
 Coeff:     -0.109D+00 0.303D+00 0.836D+00
 Gap=     0.056 Goal=   None    Shift=    0.000
 Gap=     0.032 Goal=   None    Shift=    0.000
 RMSDP=2.14D-08 MaxDP=1.55D-06 DE= 0.00D+00 OVMax= 2.18D-07

 Cycle  22  Pass 1  IDiag  1:
 E= -1136.08261330591     Delta-E=       -0.000000000004 Rises=F Damp=F
 DIIS: error= 1.54D-09 at cycle  22 NSaved=  16.
 NSaved=16 IEnMin=16 EnMin= -1136.08261330591     IErMin=16 ErrMin= 1.54D-09
 ErrMax= 1.54D-09  0.00D+00 EMaxC= 1.00D-01 BMatC= 7.51D-16 BMatP= 2.26D-15
 IDIUse=1 WtCom= 1.00D+00 WtEn= 0.00D+00
 Large coefficients: NSaved= 16 BigCof=    0.00 CofMax=   10.00 Det=-1.07D-15
 Inversion failed.  Reducing to 15 matrices.
 Coeff-Com: -0.563D-05 0.191D-04 0.122D-03-0.154D-03-0.142D-03 0.102D-03
 Coeff-Com:  0.369D-03-0.322D-03-0.134D-02 0.709D-03 0.254D-01-0.422D-01
 Coeff-Com: -0.246D+00 0.717D-01 0.119D+01
 Coeff:     -0.563D-05 0.191D-04 0.122D-03-0.154D-03-0.142D-03 0.102D-03
 Coeff:      0.369D-03-0.322D-03-0.134D-02 0.709D-03 0.254D-01-0.422D-01
 Coeff:     -0.246D+00 0.717D-01 0.119D+01
 Gap=     0.056 Goal=   None    Shift=    0.000
 Gap=     0.032 Goal=   None    Shift=    0.000
 RMSDP=3.11D-08 MaxDP=2.80D-06 DE=-3.64D-12 OVMax= 2.38D-07

 Cycle  23  Pass 1  IDiag  1:
 E= -1136.08261330589     Delta-E=        0.000000000020 Rises=F Damp=F
 DIIS: error= 9.02D-10 at cycle  23 NSaved=  16.
 NSaved=16 IEnMin=15 EnMin= -1136.08261330591     IErMin=16 ErrMin= 9.02D-10
 ErrMax= 9.02D-10  0.00D+00 EMaxC= 1.00D-01 BMatC= 3.34D-16 BMatP= 7.51D-16
 IDIUse=1 WtCom= 1.00D+00 WtEn= 0.00D+00
 Large coefficients: NSaved= 16 BigCof=    0.00 CofMax=   10.00 Det=-4.15D-16
 Inversion failed.  Reducing to 15 matrices.
 Coeff-Com:  0.288D-05 0.236D-04-0.701D-04-0.378D-04 0.598D-04 0.212D-03
 Coeff-Com:  0.144D-03-0.158D-02-0.457D-02 0.269D-01 0.449D-01-0.276D+00
 Coeff-Com: -0.308D+00 0.616D+00 0.901D+00
 Coeff:      0.288D-05 0.236D-04-0.701D-04-0.378D-04 0.598D-04 0.212D-03
 Coeff:      0.144D-03-0.158D-02-0.457D-02 0.269D-01 0.449D-01-0.276D+00
 Coeff:     -0.308D+00 0.616D+00 0.901D+00
 Gap=     0.056 Goal=   None    Shift=    0.000
 Gap=     0.032 Goal=   None    Shift=    0.000
 RMSDP=2.24D-08 MaxDP=1.50D-06 DE= 2.05D-11 OVMax= 1.59D-07

 Cycle  24  Pass 1  IDiag  1:
 E= -1136.08261330590     Delta-E=       -0.000000000011 Rises=F Damp=F
 DIIS: error= 2.77D-10 at cycle  24 NSaved=  16.
 NSaved=16 IEnMin=14 EnMin= -1136.08261330591     IErMin=16 ErrMin= 2.77D-10
 ErrMax= 2.77D-10  0.00D+00 EMaxC= 1.00D-01 BMatC= 2.82D-17 BMatP= 3.34D-16
 IDIUse=1 WtCom= 1.00D+00 WtEn= 0.00D+00
 Large coefficients: NSaved= 16 BigCof=    0.00 CofMax=   10.00 Det=-8.83D-17
 Inversion failed.  Reducing to 15 matrices.
 Coeff-Com: -0.515D-05 0.259D-04 0.911D-05-0.401D-04-0.110D-04 0.113D-03
 Coeff-Com:  0.103D-03-0.492D-03-0.277D-02 0.125D-01 0.213D-01-0.370D-01
 Coeff-Com: -0.170D+00 0.597D-01 0.112D+01
 Coeff:     -0.515D-05 0.259D-04 0.911D-05-0.401D-04-0.110D-04 0.113D-03
 Coeff:      0.103D-03-0.492D-03-0.277D-02 0.125D-01 0.213D-01-0.370D-01
 Coeff:     -0.170D+00 0.597D-01 0.112D+01
 Gap=     0.056 Goal=   None    Shift=    0.000
 Gap=     0.032 Goal=   None    Shift=    0.000
 RMSDP=2.99D-08 MaxDP=1.82D-06 DE=-1.11D-11 OVMax= 1.15D-07

 Cycle  25  Pass 1  IDiag  1:
 E= -1136.08261330590     Delta-E=       -0.000000000001 Rises=F Damp=F
 DIIS: error= 1.18D-10 at cycle  25 NSaved=  16.
 NSaved=16 IEnMin=13 EnMin= -1136.08261330591     IErMin=16 ErrMin= 1.18D-10
 ErrMax= 1.18D-10  0.00D+00 EMaxC= 1.00D-01 BMatC= 6.16D-18 BMatP= 2.82D-17
 IDIUse=1 WtCom= 1.00D+00 WtEn= 0.00D+00
 Large coefficients: NSaved= 16 BigCof=    0.00 CofMax=   10.00 Det=-1.25D-17
 Inversion failed.  Reducing to 15 matrices.
 Coeff-Com:  0.796D-05 0.171D-05-0.980D-05-0.179D-04-0.763D-05 0.159D-03
 Coeff-Com:  0.579D-03-0.356D-02-0.424D-02 0.418D-01 0.259D-01-0.108D+00
 Coeff-Com: -0.120D+00 0.276D+00 0.892D+00
 Coeff:      0.796D-05 0.171D-05-0.980D-05-0.179D-04-0.763D-05 0.159D-03
 Coeff:      0.579D-03-0.356D-02-0.424D-02 0.418D-01 0.259D-01-0.108D+00
 Coeff:     -0.120D+00 0.276D+00 0.892D+00
 Gap=     0.056 Goal=   None    Shift=    0.000
 Gap=     0.032 Goal=   None    Shift=    0.000
 RMSDP=3.82D-08 MaxDP=3.05D-06 DE=-1.14D-12 OVMax= 1.57D-08

 Cycle  26  Pass 1  IDiag  1:
 E= -1136.08261330588     Delta-E=        0.000000000015 Rises=F Damp=F
 DIIS: error= 6.61D-11 at cycle  26 NSaved=  16.
 NSaved=16 IEnMin=12 EnMin= -1136.08261330591     IErMin=16 ErrMin= 6.61D-11
 ErrMax= 6.61D-11  0.00D+00 EMaxC= 1.00D-01 BMatC= 1.46D-18 BMatP= 6.16D-18
 IDIUse=1 WtCom= 1.00D+00 WtEn= 0.00D+00
 Large coefficients: NSaved= 16 BigCof=    0.00 CofMax=   10.00 Det=-3.82D-18
 Inversion failed.  Reducing to 15 matrices.
 Coeff-Com:  0.281D-06 0.551D-06-0.669D-05-0.220D-04 0.743D-04 0.242D-03
 Coeff-Com: -0.132D-02-0.376D-02 0.143D-01 0.178D-01-0.195D-01-0.482D-01
 Coeff-Com: -0.877D-01 0.221D+00 0.907D+00
 Coeff:      0.281D-06 0.551D-06-0.669D-05-0.220D-04 0.743D-04 0.242D-03
 Coeff:     -0.132D-02-0.376D-02 0.143D-01 0.178D-01-0.195D-01-0.482D-01
 Coeff:     -0.877D-01 0.221D+00 0.907D+00
 Gap=     0.056 Goal=   None    Shift=    0.000
 Gap=     0.032 Goal=   None    Shift=    0.000
 RMSDP=7.32D-09 MaxDP=6.27D-07 DE= 1.50D-11 OVMax= 6.74D-09

 SCF Done:  E(UB3LYP) =  -1136.08261331     A.U. after   26 cycles
            NFock= 26  Conv=0.73D-08     -V/T= 2.0023
 <Sx>= 0.0000 <Sy>= 0.0000 <Sz>= 0.5000 <S**2>= 0.7612 S= 0.5056
 <L.S>= 0.000000000000E+00
 KE= 1.133444688988D+03 PE=-3.537547511763D+03 EE= 8.640014389158D+02
 Annihilation of the first spin contaminant:
 S**2 before annihilation     0.7612,   after     0.7501
 Leave Link  502 at Mon Nov 13 19:48:29 2023, MaxMem=  1879048192 cpu:             248.5 elap:              21.4
 (Enter /home/sekinelabo/g16/l601.exe)
 Copying SCF densities to generalized density rwf, IOpCl= 1 IROHF=0.

 **********************************************************************

            Population analysis using the SCF Density.

 **********************************************************************

 Orbital symmetries:
 Alpha Orbitals:
       Occupied  (A) (A) (A) (A) (A) (A) (A) (A) (A) (A) (A) (A)
                 (A) (A) (A) (A) (A) (A) (A) (A) (A) (A) (A) (A)
                 (A) (A) (A) (A) (A) (A) (A) (A) (A) (A) (A) (A)
                 (A) (A) (A)
       Virtual   (A) (A) (A) (A) (A) (A) (A) (A) (A) (A) (A) (A)
                 (A) (A) (A) (A) (A) (A) (A) (A) (A) (A) (A) (A)
                 (A) (A) (A) (A) (A) (A) (A) (A) (A) (A) (A) (A)
                 (A) (A) (A) (A) (A) (A) (A) (A) (A) (A) (A) (A)
                 (A) (A) (A) (A) (A) (A) (A) (A) (A) (A) (A) (A)
                 (A) (A) (A) (A) (A) (A) (A) (A) (A) (A) (A) (A)
                 (A) (A) (A) (A) (A) (A) (A) (A) (A) (A) (A) (A)
                 (A) (A) (A) (A) (A) (A) (A) (A) (A) (A) (A) (A)
                 (A) (A) (A) (A) (A) (A) (A) (A) (A) (A) (A) (A)
                 (A) (A) (A) (A) (A) (A) (A) (A) (A) (A) (A) (A)
                 (A) (A) (A) (A) (A) (A) (A) (A) (A) (A) (A) (A)
                 (A) (A) (A) (A) (A) (A) (A) (A) (A) (A) (A) (A)
                 (A) (A) (A) (A) (A) (A) (A) (A) (A) (A) (A) (A)
                 (A) (A) (A) (A) (A) (A) (A) (A) (A) (A) (A) (A)
                 (A) (A) (A)
 Beta  Orbitals:
       Occupied  (A) (A) (A) (A) (A) (A) (A) (A) (A) (A) (A) (A)
                 (A) (A) (A) (A) (A) (A) (A) (A) (A) (A) (A) (A)
                 (A) (A) (A) (A) (A) (A) (A) (A) (A) (A) (A) (A)
                 (A) (A)
       Virtual   (A) (A) (A) (A) (A) (A) (A) (A) (A) (A) (A) (A)
                 (A) (A) (A) (A) (A) (A) (A) (A) (A) (A) (A) (A)
                 (A) (A) (A) (A) (A) (A) (A) (A) (A) (A) (A) (A)
                 (A) (A) (A) (A) (A) (A) (A) (A) (A) (A) (A) (A)
                 (A) (A) (A) (A) (A) (A) (A) (A) (A) (A) (A) (A)
                 (A) (A) (A) (A) (A) (A) (A) (A) (A) (A) (A) (A)
                 (A) (A) (A) (A) (A) (A) (A) (A) (A) (A) (A) (A)
                 (A) (A) (A) (A) (A) (A) (A) (A) (A) (A) (A) (A)
                 (A) (A) (A) (A) (A) (A) (A) (A) (A) (A) (A) (A)
                 (A) (A) (A) (A) (A) (A) (A) (A) (A) (A) (A) (A)
                 (A) (A) (A) (A) (A) (A) (A) (A) (A) (A) (A) (A)
                 (A) (A) (A) (A) (A) (A) (A) (A) (A) (A) (A) (A)
                 (A) (A) (A) (A) (A) (A) (A) (A) (A) (A) (A) (A)
                 (A) (A) (A) (A) (A) (A) (A) (A) (A) (A) (A) (A)
                 (A) (A) (A) (A)
 The electronic state is 2-A.
 Alpha  occ. eigenvalues --  -38.44914 -38.44334 -38.44277 -38.43949 -38.43904
 Alpha  occ. eigenvalues --  -38.42800 -38.42545  -2.20827  -2.20561  -2.20361
 Alpha  occ. eigenvalues --   -2.20238  -2.20098  -2.18916  -2.18624  -1.14604
 Alpha  occ. eigenvalues --   -1.14549  -1.14444  -1.14415  -1.14402  -1.14165
 Alpha  occ. eigenvalues --   -1.14126  -1.14000  -1.13949  -1.13910  -1.13902
 Alpha  occ. eigenvalues --   -1.13805  -1.13734  -1.13674  -1.13641  -1.12623
 Alpha  occ. eigenvalues --   -1.12564  -1.12468  -1.12352  -1.12275  -1.12194
 Alpha  occ. eigenvalues --   -0.21252  -0.14086  -0.12704  -0.11755
 Alpha virt. eigenvalues --   -0.06141  -0.04225  -0.03616  -0.03485  -0.02814
 Alpha virt. eigenvalues --   -0.02704  -0.01770  -0.00499  -0.00207   0.00273
 Alpha virt. eigenvalues --    0.00538   0.00664   0.00955   0.01016   0.01041
 Alpha virt. eigenvalues --    0.01221   0.01324   0.01353   0.01508   0.01611
 Alpha virt. eigenvalues --    0.01689   0.01701   0.01788   0.01878   0.02050
 Alpha virt. eigenvalues --    0.02426   0.02570   0.02843   0.02870   0.02963
 Alpha virt. eigenvalues --    0.02985   0.03041   0.03055   0.03126   0.03277
 Alpha virt. eigenvalues --    0.03377   0.03677   0.03865   0.03953   0.04059
 Alpha virt. eigenvalues --    0.04123   0.04643   0.04795   0.05134   0.05482
 Alpha virt. eigenvalues --    0.05586   0.05852   0.05930   0.06214   0.06344
 Alpha virt. eigenvalues --    0.06677   0.06688   0.07092   0.07155   0.07212
 Alpha virt. eigenvalues --    0.07529   0.08703   0.08821   0.09611   0.09984
 Alpha virt. eigenvalues --    0.10080   0.10176   0.10320   0.11239   0.13088
 Alpha virt. eigenvalues --    0.13385   0.13786   0.14135   0.14269   0.14427
 Alpha virt. eigenvalues --    0.14553   0.15190   0.15321   0.15558   0.16042
 Alpha virt. eigenvalues --    0.16480   0.16902   0.18021   0.18721   0.19853
 Alpha virt. eigenvalues --    0.22122   0.23891   0.24819   0.27546   0.28871
 Alpha virt. eigenvalues --    0.31131   0.32526   0.32889   0.33958   0.34959
 Alpha virt. eigenvalues --    0.35205   0.36008   0.36810   0.37467   0.38494
 Alpha virt. eigenvalues --    0.39974   0.41003   0.41598   0.42897   0.43641
 Alpha virt. eigenvalues --    0.44353   0.45012   0.45276   0.46241   0.46481
 Alpha virt. eigenvalues --    0.47272   0.47928   0.48355   0.48651   0.48884
 Alpha virt. eigenvalues --    0.49930   0.50091   0.50892   0.51312   0.52896
 Alpha virt. eigenvalues --    0.53222   0.53967   0.54825   0.55063   0.55980
 Alpha virt. eigenvalues --    0.57682   0.58248   0.60629   0.65267   0.65388
 Alpha virt. eigenvalues --    0.66454   0.70388   0.72786   0.74424   0.75623
 Alpha virt. eigenvalues --    0.76713   0.77863   0.81187   0.82233   0.85163
 Alpha virt. eigenvalues --    0.85474   2.13115   2.20409   2.26552   2.27935
 Alpha virt. eigenvalues --    2.30007   2.34596   2.38758   4.40902   4.41536
 Alpha virt. eigenvalues --    4.41707   4.41856   4.43543   4.44778   4.45284
 Alpha virt. eigenvalues --    4.47450   4.49848   4.52395   4.53150   4.60671
 Alpha virt. eigenvalues --    4.65034   4.69172   4.71585   4.73111   4.76088
 Alpha virt. eigenvalues --    4.78984   4.81585   4.84425   4.86901  96.34970
 Alpha virt. eigenvalues --   96.44534  96.54437  96.55909  96.59332  96.64741
 Alpha virt. eigenvalues --   96.70679
  Beta  occ. eigenvalues --  -38.44908 -38.44274 -38.44243 -38.43886 -38.43839
  Beta  occ. eigenvalues --  -38.42780 -38.42526  -2.20817  -2.20457  -2.20301
  Beta  occ. eigenvalues --   -2.20126  -2.19985  -2.18886  -2.18596  -1.14589
  Beta  occ. eigenvalues --   -1.14523  -1.14397  -1.14382  -1.14331  -1.14088
  Beta  occ. eigenvalues --   -1.14052  -1.13932  -1.13888  -1.13851  -1.13838
  Beta  occ. eigenvalues --   -1.13728  -1.13646  -1.13575  -1.13562  -1.12608
  Beta  occ. eigenvalues --   -1.12509  -1.12434  -1.12338  -1.12209  -1.12179
  Beta  occ. eigenvalues --   -0.20387  -0.13906  -0.11469
  Beta virt. eigenvalues --   -0.08223  -0.06059  -0.03648  -0.03388  -0.03232
  Beta virt. eigenvalues --   -0.02055  -0.01792  -0.01661  -0.00227  -0.00150
  Beta virt. eigenvalues --    0.00296   0.00598   0.00800   0.00948   0.01044
  Beta virt. eigenvalues --    0.01083   0.01297   0.01359   0.01459   0.01627
  Beta virt. eigenvalues --    0.01654   0.01710   0.01750   0.01910   0.01970
  Beta virt. eigenvalues --    0.02109   0.02445   0.02661   0.02845   0.02922
  Beta virt. eigenvalues --    0.02952   0.02991   0.03075   0.03085   0.03192
  Beta virt. eigenvalues --    0.03311   0.03475   0.03800   0.03974   0.04124
  Beta virt. eigenvalues --    0.04175   0.04239   0.04850   0.04944   0.05153
  Beta virt. eigenvalues --    0.05594   0.05740   0.05899   0.06074   0.06322
  Beta virt. eigenvalues --    0.06545   0.06726   0.06750   0.07188   0.07227
  Beta virt. eigenvalues --    0.07408   0.07623   0.08734   0.08915   0.09769
  Beta virt. eigenvalues --    0.10116   0.10246   0.10528   0.10711   0.11589
  Beta virt. eigenvalues --    0.13221   0.13492   0.13871   0.14375   0.14417
  Beta virt. eigenvalues --    0.14635   0.14861   0.15511   0.15640   0.15809
  Beta virt. eigenvalues --    0.16300   0.16650   0.17023   0.18320   0.18942
  Beta virt. eigenvalues --    0.20178   0.22670   0.24065   0.25257   0.27900
  Beta virt. eigenvalues --    0.29402   0.31566   0.32862   0.32955   0.34263
  Beta virt. eigenvalues --    0.35174   0.35449   0.36652   0.37093   0.37880
  Beta virt. eigenvalues --    0.38767   0.40225   0.41226   0.41904   0.42952
  Beta virt. eigenvalues --    0.44000   0.44560   0.45125   0.45465   0.46438
  Beta virt. eigenvalues --    0.46756   0.47391   0.48032   0.48445   0.48848
  Beta virt. eigenvalues --    0.49156   0.50067   0.50233   0.50955   0.51441
  Beta virt. eigenvalues --    0.53211   0.53461   0.54293   0.54995   0.55286
  Beta virt. eigenvalues --    0.56305   0.58128   0.58510   0.60867   0.65439
  Beta virt. eigenvalues --    0.65534   0.66566   0.70554   0.73058   0.74720
  Beta virt. eigenvalues --    0.75772   0.76948   0.78112   0.81433   0.82436
  Beta virt. eigenvalues --    0.85351   0.85677   2.13172   2.20484   2.26687
  Beta virt. eigenvalues --    2.28061   2.30143   2.34805   2.38958   4.41012
  Beta virt. eigenvalues --    4.41636   4.41798   4.41903   4.43616   4.44821
  Beta virt. eigenvalues --    4.45291   4.47501   4.49917   4.52438   4.53251
  Beta virt. eigenvalues --    4.60781   4.65102   4.69214   4.71631   4.73211
  Beta virt. eigenvalues --    4.76147   4.79046   4.81651   4.84539   4.86935
  Beta virt. eigenvalues --   96.34997  96.44560  96.54475  96.55951  96.59402
  Beta virt. eigenvalues --   96.64809  96.70750
          Condensed to atoms (all electrons):
               1          2          3          4          5          6
     1  Na  14.440207  -2.246573   2.261449  -1.996736   1.377802  -1.290362
     2  Na  -2.246573  15.378807  -3.008465   2.383336  -2.522107  -0.864082
     3  Na   2.261449  -3.008465  18.551891  -2.683767   0.108031  -0.891116
     4  Na  -1.996736   2.383336  -2.683767  14.764675  -2.516149  -0.572032
     5  Na   1.377802  -2.522107   0.108031  -2.516149  15.749100   1.072909
     6  Na  -1.290362  -0.864082  -0.891116  -0.572032   1.072909  13.848555
     7  Na  -2.476191   2.956855  -4.303492   2.804329  -2.928005  -0.371417
               7
     1  Na  -2.476191
     2  Na   2.956855
     3  Na  -4.303492
     4  Na   2.804329
     5  Na  -2.928005
     6  Na  -0.371417
     7  Na  15.678335
          Atomic-Atomic Spin Densities.
               1          2          3          4          5          6
     1  Na   0.384999  -0.427551  -0.157637  -0.211361   0.250631   0.209451
     2  Na  -0.427551   1.171055  -1.131118   0.856165  -0.409187  -0.455947
     3  Na  -0.157637  -1.131118   1.526468  -0.802010   0.362453   0.922396
     4  Na  -0.211361   0.856165  -0.802010   0.803362  -0.490356  -0.429746
     5  Na   0.250631  -0.409187   0.362453  -0.490356   0.760038   0.087770
     6  Na   0.209451  -0.455947   0.922396  -0.429746   0.087770   0.330397
     7  Na   0.017502   0.831014  -0.843838   0.584534  -0.439392  -0.604773
               7
     1  Na   0.017502
     2  Na   0.831014
     3  Na  -0.843838
     4  Na   0.584534
     5  Na  -0.439392
     6  Na  -0.604773
     7  Na   0.585681
 Mulliken charges and spin densities:
               1          2
     1  Na   0.930405   0.066034
     2  Na  -1.077772   0.434430
     3  Na   0.965469  -0.123284
     4  Na  -1.183656   0.310587
     5  Na   0.658420   0.121957
     6  Na   0.067547   0.059548
     7  Na  -0.360413   0.130729
 Sum of Mulliken charges =  -0.00000   1.00000
 Mulliken charges and spin densities with hydrogens summed into heavy atoms:
               1          2
     1  Na   0.930405   0.066034
     2  Na  -1.077772   0.434430
     3  Na   0.965469  -0.123284
     4  Na  -1.183656   0.310587
     5  Na   0.658420   0.121957
     6  Na   0.067547   0.059548
     7  Na  -0.360413   0.130729
 Electronic spatial extent (au):  <R**2>=           1680.4684
 Charge=             -0.0000 electrons
 Dipole moment (field-independent basis, Debye):
    X=             -0.5455    Y=              0.0824    Z=             -0.1828  Tot=              0.5812
 Quadrupole moment (field-independent basis, Debye-Ang):
   XX=            -52.9264   YY=            -76.3759   ZZ=            -65.4404
   XY=              0.2156   XZ=             -0.2962   YZ=              1.0415
 Traceless Quadrupole moment (field-independent basis, Debye-Ang):
   XX=             11.9878   YY=            -11.4617   ZZ=             -0.5261
   XY=              0.2156   XZ=             -0.2962   YZ=              1.0415
 Octapole moment (field-independent basis, Debye-Ang**2):
  XXX=            -29.3810  YYY=              2.0310  ZZZ=              2.5497  XYY=             -1.1571
  XXY=              1.5107  XXZ=             -9.5688  XZZ=              3.8703  YZZ=             -1.0149
  YYZ=             -0.9388  XYZ=             -0.7699
 Hexadecapole moment (field-independent basis, Debye-Ang**3):
 XXXX=          -1123.4502 YYYY=           -883.9939 ZZZZ=           -710.7173 XXXY=             11.1169
 XXXZ=              1.9157 YYYX=             -4.5209 YYYZ=             38.6154 ZZZX=             -3.2223
 ZZZY=             -7.1751 XXYY=           -428.1666 XXZZ=           -323.3814 YYZZ=           -287.1367
 XXYZ=            -14.3397 YYXZ=             -2.7613 ZZXY=              1.6340
 N-N= 4.040187705538D+02 E-N=-3.537547511764D+03  KE= 1.133444688988D+03
                          Isotropic Fermi Contact Couplings
        Atom                 a.u.       MegaHertz       Gauss      10(-4) cm-1
     1  Na(23)             0.19754     233.69208      83.38714      77.95129
     2  Na(23)             0.01302      15.39824       5.49447       5.13630
     3  Na(23)             0.10789     127.64271      45.54609      42.57702
     4  Na(23)             0.01183      13.99694       4.99446       4.66888
     5  Na(23)             0.22409     265.10397      94.59569      88.42916
     6  Na(23)             0.21408     253.25919      90.36918      84.47817
     7  Na(23)             0.01055      12.47765       4.45233       4.16209
 --------------------------------------------------------
       Center         ----  Spin Dipole Couplings  ----
                      3XX-RR        3YY-RR        3ZZ-RR
 --------------------------------------------------------
     1   Atom        0.018405     -0.013172     -0.005233
     2   Atom       -0.029704     -0.019675      0.049379
     3   Atom        0.007507     -0.013102      0.005594
     4   Atom       -0.030426     -0.016085      0.046511
     5   Atom        0.008788     -0.009239      0.000450
     6   Atom        0.018815     -0.012082     -0.006733
     7   Atom       -0.003937     -0.008395      0.012332
 --------------------------------------------------------
                        XY            XZ            YZ
 --------------------------------------------------------
     1   Atom       -0.012373     -0.035231      0.009960
     2   Atom        0.000411     -0.005487     -0.028545
     3   Atom        0.009479      0.027832      0.012261
     4   Atom        0.001985     -0.001798     -0.027758
     5   Atom       -0.006247     -0.018733      0.012184
     6   Atom        0.012360      0.033740      0.008645
     7   Atom       -0.000114     -0.008524      0.000849
 --------------------------------------------------------


 ---------------------------------------------------------------------------------
              Anisotropic Spin Dipole Couplings in Principal Axis System
 ---------------------------------------------------------------------------------

       Atom             a.u.   MegaHertz   Gauss  10(-4) cm-1        Axes

              Baa    -0.0306    -4.325    -1.543    -1.443  0.5722 -0.0610  0.8178
     1 Na(23) Bbb    -0.0172    -2.435    -0.869    -0.812  0.2403  0.9659 -0.0961
              Bcc     0.0479     6.760     2.412     2.255  0.7841 -0.2515 -0.5674
 
              Baa    -0.0315    -4.441    -1.585    -1.481  0.7143  0.6432  0.2757
     2 Na(23) Bbb    -0.0285    -4.026    -1.437    -1.343  0.6973 -0.6875 -0.2028
              Bcc     0.0600     8.468     3.022     2.825 -0.0590 -0.3371  0.9396
 
              Baa    -0.0223    -3.147    -1.123    -1.050 -0.5532 -0.4027  0.7293
     3 Na(23) Bbb    -0.0166    -2.350    -0.839    -0.784 -0.4779  0.8704  0.1182
              Bcc     0.0389     5.497     1.961     1.834  0.6824  0.2831  0.6739
 
              Baa    -0.0308    -4.355    -1.554    -1.453  0.9605 -0.2683 -0.0739
     4 Na(23) Bbb    -0.0263    -3.710    -1.324    -1.237  0.2769  0.8955  0.3484
              Bcc     0.0571     8.065     2.878     2.690 -0.0272 -0.3551  0.9344
 
              Baa    -0.0194    -2.736    -0.976    -0.913  0.3221 -0.6400  0.6976
     5 Na(23) Bbb    -0.0087    -1.229    -0.439    -0.410  0.6250  0.6972  0.3511
              Bcc     0.0281     3.965     1.415     1.323  0.7111 -0.3229 -0.6246
 
              Baa    -0.0300    -4.242    -1.514    -1.415 -0.5672 -0.0061  0.8235
     6 Na(23) Bbb    -0.0160    -2.259    -0.806    -0.753 -0.2102  0.9679 -0.1377
              Bcc     0.0460     6.500     2.320     2.168  0.7963  0.2512  0.5503
 
              Baa    -0.0085    -1.198    -0.427    -0.399 -0.2145  0.9684 -0.1273
     7 Na(23) Bbb    -0.0075    -1.063    -0.379    -0.355  0.8942  0.2471  0.3733
              Bcc     0.0160     2.260     0.807     0.754 -0.3929  0.0338  0.9189
 

 ---------------------------------------------------------------------------------

 No NMR shielding tensors so no spin-rotation constants.
 Leave Link  601 at Mon Nov 13 19:48:30 2023, MaxMem=  1879048192 cpu:               2.6 elap:               0.2
 (Enter /home/sekinelabo/g16/l701.exe)
 ... and contract with generalized density number  0.
 Compute integral first derivatives.
 Leave Link  701 at Mon Nov 13 19:48:30 2023, MaxMem=  1879048192 cpu:               1.7 elap:               0.1
 (Enter /home/sekinelabo/g16/l702.exe)
 L702 exits ... SP integral derivatives will be done elsewhere.
 Leave Link  702 at Mon Nov 13 19:48:30 2023, MaxMem=  1879048192 cpu:               0.5 elap:               0.0
 (Enter /home/sekinelabo/g16/l703.exe)
 Integral derivatives from FoFJK, PRISM(SPDF).
 Compute integral first derivatives, UseDBF=F ICtDFT=           0.
 Calling FoFJK, ICntrl=      2127 FMM=F ISym2X=0 I1Cent= 0 IOpClX= 1 NMat=1 NMatS=1 NMatT=0.
 FoFJK:  IHMeth= 1 ICntrl=    2127 DoSepK=F KAlg= 0 I1Cent=           0 FoldK=F
 IRaf=         0 NMat=       1 IRICut=       1 DoRegI=T DoRafI=F ISym2E= 0 IDoP0=0 IntGTp=1.
 FoFCou: FMM=F IPFlag=           0 FMFlag=      100000 FMFlg1=         800
         NFxFlg=           0 DoJE=F BraDBF=F KetDBF=F FulRan=T
         wScrn=  0.000000 ICntrl=      2127 IOpCl=  1 I1Cent=           0 NGrid=           0
         NMat0=    1 NMatS0=      1 NMatT0=    0 NMatD0=    1 NMtDS0=    0 NMtDT0=    0
 Symmetry not used in FoFCou.
 Leave Link  703 at Mon Nov 13 19:48:32 2023, MaxMem=  1879048192 cpu:              37.7 elap:               2.4
 (Enter /home/sekinelabo/g16/l716.exe)
 Dipole        =-2.14615492D-01 3.24312998D-02-7.18994457D-02
 ***** Axes restored to original set *****
 -------------------------------------------------------------------
 Center     Atomic                   Forces (Hartrees/Bohr)
 Number     Number              X              Y              Z
 -------------------------------------------------------------------
      1       11           0.015321118    0.002397528   -0.020127002
      2       11          -0.001382009    0.026251980    0.005968024
      3       11           0.013573167   -0.005819421    0.012848788
      4       11          -0.000629066   -0.021979531   -0.005127940
      5       11          -0.005384325   -0.005252165    0.018624679
      6       11          -0.010488548    0.005044391   -0.014319197
      7       11          -0.011010336   -0.000642782    0.002132648
 -------------------------------------------------------------------
 Cartesian Forces:  Max     0.026251980 RMS     0.012219018
 Z-matrix is all fixed cartesians, so copy forces.
 Force constants in Cartesian coordinates: 
                1             2             3             4             5 
      1  0.185731D+00
      2  0.541954D-02  0.155491D+00
      3 -0.296112D-01 -0.134955D-01  0.209432D+00
      4 -0.369967D-01  0.262944D-01  0.191785D-01  0.112485D+00
      5 -0.604547D-02 -0.418758D-01  0.458959D-02  0.144491D-02  0.183344D+00
      6  0.924384D-02 -0.385123D-01 -0.531873D-01 -0.261775D-02  0.181388D-01
      7 -0.311139D-01 -0.866333D-02  0.187462D-01 -0.242587D-01 -0.734048D-02
      8  0.903464D-02 -0.308467D-01  0.124686D-01  0.314904D-01 -0.369962D-01
      9 -0.362368D-01  0.147697D-01 -0.674601D-01 -0.160274D-02 -0.115855D-01
     10 -0.288592D-01 -0.266390D-01  0.241299D-02  0.161589D-01 -0.720820D-03
     11  0.344828D-02 -0.411420D-01 -0.107929D-01 -0.327033D-02 -0.151413D-01
     12  0.115415D-01  0.289969D-01 -0.278447D-01  0.174711D-02 -0.930284D-02
     13 -0.130093D-01 -0.338582D-02  0.166848D-01 -0.414727D-01  0.163143D-02
     14 -0.207574D-02 -0.711399D-02  0.486611D-02 -0.229379D-01 -0.638697D-01
     15  0.872412D-02  0.424272D-02 -0.273099D-01 -0.374649D-02 -0.931332D-02
     16 -0.733023D-01  0.802889D-02 -0.318224D-01 -0.218508D-01  0.113673D-01
     17 -0.820585D-02 -0.511296D-01  0.125050D-02 -0.218508D-01 -0.271490D-01
     18  0.306112D-01  0.324250D-02 -0.458355D-01 -0.108025D-01  0.852282D-02
     19 -0.244973D-02 -0.105468D-02  0.441114D-02 -0.406490D-02 -0.336867D-03
     20 -0.157540D-02  0.166174D-01  0.111365D-02 -0.111707D-01  0.168783D-02
     21  0.572731D-02  0.756106D-03  0.122059D-01 -0.215610D-02 -0.104961D-02
                6             7             8             9            10 
      6  0.114859D+00
      7 -0.117962D-01  0.142302D+00
      8  0.162444D-01 -0.905306D-02  0.103420D+00
      9 -0.111670D-01  0.389786D-01 -0.115675D-01  0.129886D+00
     10  0.253563D-02 -0.280430D-01 -0.284525D-01 -0.169152D-01  0.104189D+00
     11 -0.567069D-02  0.118165D-01 -0.280221D-01  0.411181D-02  0.238966D-02
     12  0.130126D-01 -0.117966D-01 -0.218766D-01 -0.191323D-01  0.268527D-02
     13  0.872894D-02 -0.533754D-01 -0.777725D-02  0.347290D-01 -0.359824D-01
     14  0.395231D-01  0.695488D-02 -0.343893D-01 -0.128832D-02  0.194881D-01
     15 -0.373462D-01 -0.224334D-01  0.176594D-02 -0.457818D-01  0.925512D-02
     16 -0.777264D-02 -0.513512D-02  0.397484D-02 -0.151368D-01 -0.236079D-01
     17 -0.302529D-01  0.588367D-02  0.204065D-01  0.582559D-02  0.224353D-01
     18 -0.324982D-01 -0.126325D-01  0.329187D-02  0.345784D-02 -0.305779D-02
     19  0.167814D-02 -0.375877D-03  0.782910D-03 -0.381607D-02 -0.385500D-02
     20  0.529593D-03  0.401846D-03  0.642813D-02 -0.265755D-03  0.114993D-01
     21  0.632740D-02  0.933908D-03 -0.326654D-03  0.101970D-01  0.308397D-02
               11            12            13            14            15 
     11  0.166827D+00
     12  0.195977D-01  0.103781D+00
     13 -0.629449D-02  0.521852D-02  0.215127D+00
     14 -0.458992D-01 -0.443013D-01  0.358343D-02  0.218114D+00
     15  0.330266D-02 -0.523551D-01 -0.175836D-01 -0.103352D-01  0.278505D+00
     16 -0.789570D-02 -0.110118D-01 -0.290794D-01 -0.233651D-02  0.121371D-01
     17 -0.382029D-01  0.298027D-01  0.579441D-02 -0.272278D-01  0.748441D-02
     18 -0.962893D-02 -0.224389D-01 -0.180766D-01  0.810194D-02 -0.595339D-01
     19 -0.193897D-03  0.161604D-02 -0.422078D-01 -0.267618D-02  0.136472D-01
     20  0.158061D-02 -0.291653D-02  0.644828D-02 -0.396137D-01  0.285281D-02
     21 -0.919691D-03  0.497754D-02 -0.297011D-01  0.343365D-02 -0.561778D-01
               16            17            18            19            20 
     16  0.187509D+00
     17 -0.642188D-02  0.157084D+00
     18  0.239231D-01 -0.174687D-01  0.205040D+00
     19 -0.345335D-01  0.236519D-02 -0.996487D-02  0.874868D-01
     20 -0.671694D-02 -0.337811D-01  0.393846D-02  0.111352D-02  0.470809D-01
     21  0.296835D-01  0.335842D-02 -0.481911D-01 -0.757157D-02 -0.525222D-02
               21 
     21  0.706609D-01
 Leave Link  716 at Mon Nov 13 19:48:33 2023, MaxMem=  1879048192 cpu:               0.5 elap:               0.0
 (Enter /home/sekinelabo/g16/l103.exe)

 GradGradGradGradGradGradGradGradGradGradGradGradGradGradGradGradGradGrad
 Berny optimization.
 Search for a local minimum.
 Step number   1 out of a maximum of    2
 All quantities printed in internal units (Hartrees-Bohrs-Radians)
 Second derivative matrix not updated -- first step.
 ITU=  0
     Eigenvalues ---    0.08213   0.08318   0.10089   0.16194   0.17162
     Eigenvalues ---    0.17613   0.20280   0.22172   0.23562   0.23651
     Eigenvalues ---    0.25969   0.28522   0.29218   0.30058   0.34351
 Quadratic step=3.698D-01 exceeds max=3.000D-01 adjusted using Lamda=-2.918D-02.
 Angle between NR and scaled steps=   4.10 degrees.
 Angle between quadratic step and forces=  17.53 degrees.
 Linear search not attempted -- first point.
 B after Tr=     0.000000    0.000000    0.000000
         Rot=    1.000000   -0.000000    0.000000    0.000000 Ang=   0.00 deg.
 Variable       Old X    -DE/DX   Delta X   Delta X   Delta X     New X
                                 (Linear)    (Quad)   (Total)
    X1        9.40158   0.01532   0.00000   0.08201   0.08201   9.48359
    Y1        4.83640   0.00240   0.00000   0.01788   0.01788   4.85428
    Z1        0.09052  -0.02013   0.00000  -0.07833  -0.07833   0.01219
    X2        7.38766  -0.00138   0.00000   0.01574   0.01574   7.40340
    Y2        7.93054   0.02625   0.00000   0.12803   0.12803   8.05858
    Z2        3.78079   0.00597   0.00000   0.02132   0.02132   3.80211
    X3       10.78983   0.01357   0.00000   0.09759   0.09759  10.88742
    Y3        3.25914  -0.00582   0.00000  -0.02979  -0.02979   3.22935
    Z3        4.91650   0.01285   0.00000   0.06591   0.06591   4.98241
    X4        6.95812  -0.00063   0.00000   0.01281   0.01281   6.97093
    Y4        0.00000  -0.02198   0.00000  -0.11893  -0.11893  -0.11893
    Z4        1.93729  -0.00513   0.00000  -0.02882  -0.02882   1.90847
    X5        5.10524  -0.00538   0.00000  -0.02667  -0.02667   5.07857
    Y5        3.49607  -0.00525   0.00000  -0.01710  -0.01710   3.47897
    Z5        5.45574   0.01862   0.00000   0.06659   0.06659   5.52233
    X6        4.13868  -0.01049   0.00000  -0.05646  -0.05646   4.08222
    Y6        4.75623   0.00504   0.00000   0.02467   0.02467   4.78090
    Z6        0.00000  -0.01432   0.00000  -0.06874  -0.06874  -0.06874
    X7        0.00000  -0.01101   0.00000  -0.12503  -0.12503  -0.12503
    Y7        3.98253  -0.00064   0.00000  -0.00477  -0.00477   3.97776
    Z7        3.51127   0.00213   0.00000   0.02208   0.02208   3.53334
         Item               Value     Threshold  Converged?
 Maximum Force            0.026252     0.000450     NO 
 RMS     Force            0.012219     0.000300     NO 
 Maximum Displacement     0.128034     0.001800     NO 
 RMS     Displacement     0.065564     0.001200     NO 
 Predicted change in Energy=-9.338234D-03
 GradGradGradGradGradGradGradGradGradGradGradGradGradGradGradGradGradGrad

 Leave Link  103 at Mon Nov 13 19:48:33 2023, MaxMem=  1879048192 cpu:               0.3 elap:               0.0
 (Enter /home/sekinelabo/g16/l9999.exe)
 1\1\GINC-SEKINELABO-XA7R-R37\Force\UB3LYP\6-311+G(d)\Na7(2)\SEKINELABO
 \13-Nov-2023\0\\#P B3LYP/6-311+g(d) force\\Gaussian input prepared by 
 ASE\\0,2\Na,4.9751035706,2.5593139736,0.0479013812\Na,3.9093788283,4.1
 966619902,2.0007072798\Na,5.7097301378,1.7246620567,2.6017014743\Na,3.
 6820784404,0.,1.0251712452\Na,2.7015761445,1.8500412975,2.8870540634\N
 a,2.1900933694,2.5168888155,0.\Na,0.,2.1074635165,1.8580820158\\Versio
 n=ES64L-G16RevB.01\State=2-A\HF=-1136.0826133\S2=0.761225\S2-1=0.\S2A=
 0.750069\RMSD=7.319e-09\RMSF=1.222e-02\Dipole=-0.2146155,-0.0324313,0.
 0718994\Quadrupole=8.912647,-8.521483,-0.391164,-0.1602946,0.2202226,0
 .774294\PG=C01 [X(Na7)]\\@


 You don't have to suffer to be a poet.
 Adolescence is enough suffering for anyone.
                             -- John Ciardi
 Job cpu time:       0 days  0 hours  5 minutes  3.8 seconds.
 Elapsed time:       0 days  0 hours  0 minutes 24.9 seconds.
 File lengths (MBytes):  RWF=     32 Int=      0 D2E=      0 Chk=      6 Scr=      1
 Normal termination of Gaussian 16 at Mon Nov 13 19:48:33 2023.
