 Entering Gaussian System, Link 0=g16
 Initial command:
 /home/sekinelabo/g16/l1.exe "/home/sekinelabo/g16temp/Gau-4161273.inp" -scrdir="/home/sekinelabo/g16temp/"
 Entering Link 1 = /home/sekinelabo/g16/l1.exe PID=   4161275.
  
 Copyright (c) 1988-2017, Gaussian, Inc.  All Rights Reserved.
  
 This is part of the Gaussian(R) 16 program.  It is based on
 the Gaussian(R) 09 system (copyright 2009, Gaussian, Inc.),
 the Gaussian(R) 03 system (copyright 2003, Gaussian, Inc.),
 the Gaussian(R) 98 system (copyright 1998, Gaussian, Inc.),
 the Gaussian(R) 94 system (copyright 1995, Gaussian, Inc.),
 the Gaussian 92(TM) system (copyright 1992, Gaussian, Inc.),
 the Gaussian 90(TM) system (copyright 1990, Gaussian, Inc.),
 the Gaussian 88(TM) system (copyright 1988, Gaussian, Inc.),
 the Gaussian 86(TM) system (copyright 1986, Carnegie Mellon
 University), and the Gaussian 82(TM) system (copyright 1983,
 Carnegie Mellon University). Gaussian is a federally registered
 trademark of Gaussian, Inc.
  
 This software contains proprietary and confidential information,
 including trade secrets, belonging to Gaussian, Inc.
  
 This software is provided under written license and may be
 used, copied, transmitted, or stored only in accord with that
 written license.
  
 The following legend is applicable only to US Government
 contracts under FAR:
  
                    RESTRICTED RIGHTS LEGEND
  
 Use, reproduction and disclosure by the US Government is
 subject to restrictions as set forth in subparagraphs (a)
 and (c) of the Commercial Computer Software - Restricted
 Rights clause in FAR 52.227-19.
  
 Gaussian, Inc.
 340 Quinnipiac St., Bldg. 40, Wallingford CT 06492
  
  
 ---------------------------------------------------------------
 Warning -- This program may not be used in any manner that
 competes with the business of Gaussian, Inc. or will provide
 assistance to any competitor of Gaussian, Inc.  The licensee
 of this program is prohibited from giving any competitor of
 Gaussian, Inc. access to this program.  By using this program,
 the user acknowledges that Gaussian, Inc. is engaged in the
 business of creating and licensing software in the field of
 computational chemistry and represents and warrants to the
 licensee that it is not a competitor of Gaussian, Inc. and that
 it will not use this program in any manner prohibited above.
 ---------------------------------------------------------------
  

 Cite this work as:
 Gaussian 16, Revision B.01,
 M. J. Frisch, G. W. Trucks, H. B. Schlegel, G. E. Scuseria, 
 M. A. Robb, J. R. Cheeseman, G. Scalmani, V. Barone, 
 G. A. Petersson, H. Nakatsuji, X. Li, M. Caricato, A. V. Marenich, 
 J. Bloino, B. G. Janesko, R. Gomperts, B. Mennucci, H. P. Hratchian, 
 J. V. Ortiz, A. F. Izmaylov, J. L. Sonnenberg, D. Williams-Young, 
 F. Ding, F. Lipparini, F. Egidi, J. Goings, B. Peng, A. Petrone, 
 T. Henderson, D. Ranasinghe, V. G. Zakrzewski, J. Gao, N. Rega, 
 G. Zheng, W. Liang, M. Hada, M. Ehara, K. Toyota, R. Fukuda, 
 J. Hasegawa, M. Ishida, T. Nakajima, Y. Honda, O. Kitao, H. Nakai, 
 T. Vreven, K. Throssell, J. A. Montgomery, Jr., J. E. Peralta, 
 F. Ogliaro, M. J. Bearpark, J. J. Heyd, E. N. Brothers, K. N. Kudin, 
 V. N. Staroverov, T. A. Keith, R. Kobayashi, J. Normand, 
 K. Raghavachari, A. P. Rendell, J. C. Burant, S. S. Iyengar, 
 J. Tomasi, M. Cossi, J. M. Millam, M. Klene, C. Adamo, R. Cammi, 
 J. W. Ochterski, R. L. Martin, K. Morokuma, O. Farkas, 
 J. B. Foresman, and D. J. Fox, Gaussian, Inc., Wallingford CT, 2016.
 
 ******************************************
 Gaussian 16:  ES64L-G16RevB.01 20-Dec-2017
                13-Nov-2023 
 ******************************************
 %mem=14GB
 %chk=checkpoint.chk
 %nprocshared=16
 Will use up to   16 processors via shared memory.
 -------------------------
 #P B3LYP/6-311+g(d) force
 -------------------------
 1/10=7,30=1,38=1/1,3;
 2/12=2,17=6,18=5,40=1/2;
 3/5=4,6=6,7=11,11=2,25=1,30=1,71=1,74=-5/1,2,3;
 4//1;
 5/5=2,38=5/2;
 6/7=2,8=2,9=2,10=2,28=1/1;
 7/29=1/1,2,3,16;
 1/10=7,30=1/3;
 99//99;
 Leave Link    1 at Mon Nov 13 19:48:33 2023, MaxMem=  1879048192 cpu:               0.3 elap:               0.0
 (Enter /home/sekinelabo/g16/l101.exe)
 ------------------------------
 Gaussian input prepared by ASE
 ------------------------------
 Symbolic Z-matrix:
 Charge =  0 Multiplicity = 2
 Na                    0.86545   2.21299   0.04314 
 Na                    1.85432   4.22931   1.70987 
 Na                    0.        1.91556   2.69864 
 Na                    2.03139   0.        1.29427 
 Na                    3.05702   2.01665   2.97563 
 Na                    3.66737   2.33435   0. 
 Na                    5.80781   2.06521   1.97686 
 
 ITRead=  0  0  0  0  0  0  0
 MicOpt= -1 -1 -1 -1 -1 -1 -1
 NAtoms=      7 NQM=        7 NQMF=       0 NMMI=      0 NMMIF=      0
                NMic=       0 NMicF=      0.
                    Isotopes and Nuclear Properties:
 (Nuclear quadrupole moments (NQMom) in fm**2, nuclear magnetic moments (NMagM)
  in nuclear magnetons)

  Atom         1           2           3           4           5           6           7
 IAtWgt=          23          23          23          23          23          23          23
 AtmWgt=  22.9897697  22.9897697  22.9897697  22.9897697  22.9897697  22.9897697  22.9897697
 NucSpn=           3           3           3           3           3           3           3
 AtZEff=  -0.0000000  -0.0000000  -0.0000000  -0.0000000  -0.0000000  -0.0000000  -0.0000000
 NQMom=   10.4000000  10.4000000  10.4000000  10.4000000  10.4000000  10.4000000  10.4000000
 NMagM=    2.2175200   2.2175200   2.2175200   2.2175200   2.2175200   2.2175200   2.2175200
 AtZNuc=  11.0000000  11.0000000  11.0000000  11.0000000  11.0000000  11.0000000  11.0000000
 Leave Link  101 at Mon Nov 13 19:48:33 2023, MaxMem=  1879048192 cpu:               2.6 elap:               0.2
 (Enter /home/sekinelabo/g16/l103.exe)

 GradGradGradGradGradGradGradGradGradGradGradGradGradGradGradGradGradGrad
 Berny optimization.
 Initialization pass.
 Trust Radius=3.00D-01 FncErr=1.00D-07 GrdErr=1.00D-07 EigMax=2.50D+02 EigMin=1.00D-04
 Number of steps in this run=      2 maximum allowed number of steps=      2.
 GradGradGradGradGradGradGradGradGradGradGradGradGradGradGradGradGradGrad

 Leave Link  103 at Mon Nov 13 19:48:33 2023, MaxMem=  1879048192 cpu:               0.2 elap:               0.0
 (Enter /home/sekinelabo/g16/l202.exe)
                          Input orientation:                          
 ---------------------------------------------------------------------
 Center     Atomic      Atomic             Coordinates (Angstroms)
 Number     Number       Type             X           Y           Z
 ---------------------------------------------------------------------
      1         11           0        0.865454    2.212991    0.043142
      2         11           0        1.854324    4.229312    1.709865
      3         11           0        0.000000    1.915563    2.698639
      4         11           0        2.031392    0.000000    1.294269
      5         11           0        3.057016    2.016647    2.975631
      6         11           0        3.667370    2.334354    0.000000
      7         11           0        5.807807    2.065211    1.976859
 ---------------------------------------------------------------------
                    Distance matrix (angstroms):
                    1          2          3          4          5
     1  Na   0.000000
     2  Na   2.796673   0.000000
     3  Na   2.808760   3.125640   0.000000
     4  Na   2.796794   4.253370   3.125410   0.000000
     5  Na   3.666195   2.818602   3.071203   2.818820   0.000000
     6  Na   2.804875   3.130757   4.572487   3.130617   3.054152
     7  Na   5.309233   4.514936   5.854399   4.358019   2.926902
                    6          7
     6  Na   0.000000
     7  Na   2.926069   0.000000
 Stoichiometry    Na7(2)
 Framework group  C1[X(Na7)]
 Deg. of freedom    15
 Full point group                 C1      NOp   1
 Largest Abelian subgroup         C1      NOp   1
 Largest concise Abelian subgroup C1      NOp   1
                         Standard orientation:                         
 ---------------------------------------------------------------------
 Center     Atomic      Atomic             Coordinates (Angstroms)
 Number     Number       Type             X           Y           Z
 ---------------------------------------------------------------------
      1         11           0        1.603598    0.102408    1.485201
      2         11           0        0.614728    2.118730   -0.181522
      3         11           0        2.469052   -0.195019   -1.170295
      4         11           0        0.437660   -2.110583    0.234074
      5         11           0       -0.587964   -0.093935   -1.447287
      6         11           0       -1.198318    0.223772    1.528344
      7         11           0       -3.338755   -0.045372   -0.448515
 ---------------------------------------------------------------------
 Rotational constants (GHZ):           1.2671764           0.7216713           0.7041433
 Leave Link  202 at Mon Nov 13 19:48:33 2023, MaxMem=  1879048192 cpu:               0.1 elap:               0.0
 (Enter /home/sekinelabo/g16/l301.exe)
 Standard basis: 6-311+G(d) (5D, 7F)
 Ernie: Thresh=  0.10000D-02 Tol=  0.10000D-05 Strict=F.
 There are   217 symmetry adapted cartesian basis functions of A   symmetry.
 There are   210 symmetry adapted basis functions of A   symmetry.
   210 basis functions,   350 primitive gaussians,   217 cartesian basis functions
    39 alpha electrons       38 beta electrons
       nuclear repulsion energy       402.6918334121 Hartrees.
 IExCor=  402 DFT=T Ex+Corr=B3LYP ExCW=0 ScaHFX=  0.200000
 ScaDFX=  0.800000  0.720000  1.000000  0.810000 ScalE2=  1.000000  1.000000
 IRadAn=      5 IRanWt=     -1 IRanGd=            0 ICorTp=0 IEmpDi=  4
 NAtoms=    7 NActive=    7 NUniq=    7 SFac= 1.00D+00 NAtFMM=   60 NAOKFM=F Big=F
 Integral buffers will be    131072 words long.
 Raffenetti 2 integral format.
 Two-electron integral symmetry is turned on.
 Leave Link  301 at Mon Nov 13 19:48:33 2023, MaxMem=  1879048192 cpu:               0.6 elap:               0.0
 (Enter /home/sekinelabo/g16/l302.exe)
 NPDir=0 NMtPBC=     1 NCelOv=     1 NCel=       1 NClECP=     1 NCelD=      1
         NCelK=      1 NCelE2=     1 NClLst=     1 CellRange=     0.0.
 One-electron integrals computed using PRISM.
 One-electron integral symmetry used in STVInt
 NBasis=   210 RedAO= T EigKep=  1.84D-06  NBF=   210
 NBsUse=   209 1.00D-06 EigRej=  9.36D-07 NBFU=   209
 Precomputing XC quadrature grid using
 IXCGrd= 4 IRadAn=           5 IRanWt=          -1 IRanGd=           0 AccXCQ= 0.00D+00.
 Generated NRdTot=       0 NPtTot=           0 NUsed=           0 NTot=          32
 NSgBfM=   211   211   211   211   211 MxSgAt=     7 MxSgA2=     7.
 Leave Link  302 at Mon Nov 13 19:48:33 2023, MaxMem=  1879048192 cpu:               2.1 elap:               0.1
 (Enter /home/sekinelabo/g16/l303.exe)
 DipDrv:  MaxL=1.
 Leave Link  303 at Mon Nov 13 19:48:33 2023, MaxMem=  1879048192 cpu:               0.6 elap:               0.0
 (Enter /home/sekinelabo/g16/l401.exe)
 ExpMin= 7.60D-03 ExpMax= 3.62D+04 ExpMxC= 1.21D+03 IAcc=3 IRadAn=         5 AccDes= 0.00D+00
 Harris functional with IExCor=  402 and IRadAn=       5 diagonalized for initial guess.
 HarFok:  IExCor=  402 AccDes= 0.00D+00 IRadAn=         5 IDoV= 1 UseB2=F ITyADJ=14
 ICtDFT=  3500011 ScaDFX=  1.000000  1.000000  1.000000  1.000000
 FoFCou: FMM=F IPFlag=           0 FMFlag=      100000 FMFlg1=           0
         NFxFlg=           0 DoJE=T BraDBF=F KetDBF=T FulRan=T
         wScrn=  0.000000 ICntrl=       500 IOpCl=  0 I1Cent=   200000004 NGrid=           0
         NMat0=    1 NMatS0=      1 NMatT0=    0 NMatD0=    1 NMtDS0=    0 NMtDT0=    0
 Petite list used in FoFCou.
 Harris En= -1135.85741961453    
 JPrj=0 DoOrth=F DoCkMO=F.
 Initial guess <Sx>= 0.0000 <Sy>= 0.0000 <Sz>= 0.5000 <S**2>= 0.7500 S= 0.5000
 Leave Link  401 at Mon Nov 13 19:48:33 2023, MaxMem=  1879048192 cpu:               4.9 elap:               0.3
 (Enter /home/sekinelabo/g16/l502.exe)
 Keep R1 and R2 ints in memory in canonical form, NReq=507620388.
 FoFCou: FMM=F IPFlag=           0 FMFlag=           0 FMFlg1=           0
         NFxFlg=           0 DoJE=F BraDBF=F KetDBF=F FulRan=T
         wScrn=  0.000000 ICntrl=       600 IOpCl=  0 I1Cent=           0 NGrid=           0
         NMat0=    1 NMatS0=  22155 NMatT0=    0 NMatD0=    1 NMtDS0=    0 NMtDT0=    0
 Symmetry not used in FoFCou.
 Two-electron integral symmetry not used.
 UHF open shell SCF:
 Using DIIS extrapolation, IDIIS=  1040.
 NGot=  1879048192 LenX=  1388082348 LenY=  1388034818
 Requested convergence on RMS density matrix=1.00D-08 within 128 cycles.
 Requested convergence on MAX density matrix=1.00D-06.
 Requested convergence on             energy=1.00D-06.
 No special actions if energy rises.

 Cycle   1  Pass 1  IDiag  1:
 E= -1136.03433109680    
 DIIS: error= 1.58D-02 at cycle   1 NSaved=   1.
 NSaved= 1 IEnMin= 1 EnMin= -1136.03433109680     IErMin= 1 ErrMin= 1.58D-02
 ErrMax= 1.58D-02  0.00D+00 EMaxC= 1.00D-01 BMatC= 2.13D-01 BMatP= 2.13D-01
 IDIUse=3 WtCom= 8.42D-01 WtEn= 1.58D-01
 Coeff-Com:  0.100D+01
 Coeff-En:   0.100D+01
 Coeff:      0.100D+01
 Gap=     0.053 Goal=   None    Shift=    0.000
 Gap=     0.026 Goal=   None    Shift=    0.000
 GapD=    0.026 DampG=0.250 DampE=0.500 DampFc=0.2500 IDamp=-1.
 Damping current iteration by 2.50D-01
 RMSDP=7.77D-02 MaxDP=8.29D+00              OVMax= 2.81D-01

 Cycle   2  Pass 1  IDiag  1:
 E= -1136.05151603507     Delta-E=       -0.017184938276 Rises=F Damp=T
 DIIS: error= 8.40D-03 at cycle   2 NSaved=   2.
 NSaved= 2 IEnMin= 2 EnMin= -1136.05151603507     IErMin= 2 ErrMin= 8.40D-03
 ErrMax= 8.40D-03  0.00D+00 EMaxC= 1.00D-01 BMatC= 7.95D-02 BMatP= 2.13D-01
 IDIUse=3 WtCom= 9.16D-01 WtEn= 8.40D-02
 Coeff-Com: -0.124D+01 0.224D+01
 Coeff-En:   0.000D+00 0.100D+01
 Coeff:     -0.114D+01 0.214D+01
 Gap=     0.059 Goal=   None    Shift=    0.000
 Gap=     0.032 Goal=   None    Shift=    0.000
 RMSDP=3.56D-02 MaxDP=3.56D+00 DE=-1.72D-02 OVMax= 2.13D-01

 Cycle   3  Pass 1  IDiag  1:
 E= -1136.07903738791     Delta-E=       -0.027521352844 Rises=F Damp=F
 DIIS: error= 4.40D-03 at cycle   3 NSaved=   3.
 NSaved= 3 IEnMin= 3 EnMin= -1136.07903738791     IErMin= 3 ErrMin= 4.40D-03
 ErrMax= 4.40D-03  0.00D+00 EMaxC= 1.00D-01 BMatC= 5.88D-03 BMatP= 7.95D-02
 IDIUse=3 WtCom= 9.56D-01 WtEn= 4.40D-02
 Coeff-Com: -0.332D+00 0.599D+00 0.733D+00
 Coeff-En:   0.000D+00 0.000D+00 0.100D+01
 Coeff:     -0.317D+00 0.573D+00 0.744D+00
 Gap=     0.051 Goal=   None    Shift=    0.000
 Gap=     0.029 Goal=   None    Shift=    0.000
 RMSDP=1.42D-02 MaxDP=1.65D+00 DE=-2.75D-02 OVMax= 1.02D-01

 Cycle   4  Pass 1  IDiag  1:
 E= -1136.07960264112     Delta-E=       -0.000565253210 Rises=F Damp=F
 DIIS: error= 3.20D-03 at cycle   4 NSaved=   4.
 NSaved= 4 IEnMin= 4 EnMin= -1136.07960264112     IErMin= 4 ErrMin= 3.20D-03
 ErrMax= 3.20D-03  0.00D+00 EMaxC= 1.00D-01 BMatC= 4.16D-03 BMatP= 5.88D-03
 IDIUse=3 WtCom= 9.68D-01 WtEn= 3.20D-02
 Coeff-Com: -0.125D-01 0.226D-01 0.453D+00 0.537D+00
 Coeff-En:   0.000D+00 0.000D+00 0.466D+00 0.534D+00
 Coeff:     -0.121D-01 0.218D-01 0.454D+00 0.536D+00
 Gap=     0.055 Goal=   None    Shift=    0.000
 Gap=     0.031 Goal=   None    Shift=    0.000
 RMSDP=3.73D-03 MaxDP=4.45D-01 DE=-5.65D-04 OVMax= 6.76D-02

 Cycle   5  Pass 1  IDiag  1:
 E= -1136.08232098710     Delta-E=       -0.002718345977 Rises=F Damp=F
 DIIS: error= 1.55D-03 at cycle   5 NSaved=   5.
 NSaved= 5 IEnMin= 5 EnMin= -1136.08232098710     IErMin= 5 ErrMin= 1.55D-03
 ErrMax= 1.55D-03  0.00D+00 EMaxC= 1.00D-01 BMatC= 4.52D-04 BMatP= 4.16D-03
 IDIUse=3 WtCom= 9.85D-01 WtEn= 1.55D-02
 Coeff-Com: -0.843D-03 0.649D-03 0.283D+00 0.362D+00 0.355D+00
 Coeff-En:   0.000D+00 0.000D+00 0.000D+00 0.101D+00 0.899D+00
 Coeff:     -0.830D-03 0.639D-03 0.279D+00 0.358D+00 0.364D+00
 Gap=     0.055 Goal=   None    Shift=    0.000
 Gap=     0.030 Goal=   None    Shift=    0.000
 RMSDP=1.22D-03 MaxDP=6.74D-02 DE=-2.72D-03 OVMax= 2.03D-02

 Cycle   6  Pass 1  IDiag  1:
 E= -1136.08278805008     Delta-E=       -0.000467062974 Rises=F Damp=F
 DIIS: error= 1.39D-04 at cycle   6 NSaved=   6.
 NSaved= 6 IEnMin= 6 EnMin= -1136.08278805008     IErMin= 6 ErrMin= 1.39D-04
 ErrMax= 1.39D-04  0.00D+00 EMaxC= 1.00D-01 BMatC= 3.84D-06 BMatP= 4.52D-04
 IDIUse=3 WtCom= 9.99D-01 WtEn= 1.39D-03
 Coeff-Com: -0.110D-02 0.994D-03-0.423D-01-0.573D-01 0.251D-01 0.107D+01
 Coeff-En:   0.000D+00 0.000D+00 0.000D+00 0.000D+00 0.000D+00 0.100D+01
 Coeff:     -0.110D-02 0.992D-03-0.422D-01-0.572D-01 0.251D-01 0.107D+01
 Gap=     0.055 Goal=   None    Shift=    0.000
 Gap=     0.030 Goal=   None    Shift=    0.000
 RMSDP=4.51D-04 MaxDP=3.73D-02 DE=-4.67D-04 OVMax= 3.15D-03

 Cycle   7  Pass 1  IDiag  1:
 E= -1136.08279519286     Delta-E=       -0.000007142782 Rises=F Damp=F
 DIIS: error= 6.50D-05 at cycle   7 NSaved=   7.
 NSaved= 7 IEnMin= 7 EnMin= -1136.08279519286     IErMin= 7 ErrMin= 6.50D-05
 ErrMax= 6.50D-05  0.00D+00 EMaxC= 1.00D-01 BMatC= 7.89D-07 BMatP= 3.84D-06
 IDIUse=1 WtCom= 1.00D+00 WtEn= 0.00D+00
 Coeff-Com: -0.228D-03 0.890D-04-0.316D-01-0.412D-01-0.554D-02 0.458D+00
 Coeff-Com:  0.621D+00
 Coeff:     -0.228D-03 0.890D-04-0.316D-01-0.412D-01-0.554D-02 0.458D+00
 Coeff:      0.621D+00
 Gap=     0.055 Goal=   None    Shift=    0.000
 Gap=     0.031 Goal=   None    Shift=    0.000
 RMSDP=1.09D-04 MaxDP=1.39D-02 DE=-7.14D-06 OVMax= 1.54D-03

 Cycle   8  Pass 1  IDiag  1:
 E= -1136.08279616621     Delta-E=       -0.000000973349 Rises=F Damp=F
 DIIS: error= 4.39D-05 at cycle   8 NSaved=   8.
 NSaved= 8 IEnMin= 8 EnMin= -1136.08279616621     IErMin= 8 ErrMin= 4.39D-05
 ErrMax= 4.39D-05  0.00D+00 EMaxC= 1.00D-01 BMatC= 4.11D-07 BMatP= 7.89D-07
 IDIUse=1 WtCom= 1.00D+00 WtEn= 0.00D+00
 Coeff-Com:  0.592D-03-0.735D-03-0.264D-02-0.136D-02-0.168D-01-0.205D+00
 Coeff-Com:  0.450D+00 0.776D+00
 Coeff:      0.592D-03-0.735D-03-0.264D-02-0.136D-02-0.168D-01-0.205D+00
 Coeff:      0.450D+00 0.776D+00
 Gap=     0.055 Goal=   None    Shift=    0.000
 Gap=     0.031 Goal=   None    Shift=    0.000
 RMSDP=6.41D-05 MaxDP=4.54D-03 DE=-9.73D-07 OVMax= 1.66D-03

 Cycle   9  Pass 1  IDiag  1:
 E= -1136.08279699715     Delta-E=       -0.000000830944 Rises=F Damp=F
 DIIS: error= 1.09D-05 at cycle   9 NSaved=   9.
 NSaved= 9 IEnMin= 9 EnMin= -1136.08279699715     IErMin= 9 ErrMin= 1.09D-05
 ErrMax= 1.09D-05  0.00D+00 EMaxC= 1.00D-01 BMatC= 2.86D-08 BMatP= 4.11D-07
 IDIUse=1 WtCom= 1.00D+00 WtEn= 0.00D+00
 Coeff-Com:  0.166D-03-0.195D-03 0.152D-02 0.292D-02-0.404D-02-0.853D-01
 Coeff-Com:  0.379D-01 0.148D+00 0.899D+00
 Coeff:      0.166D-03-0.195D-03 0.152D-02 0.292D-02-0.404D-02-0.853D-01
 Coeff:      0.379D-01 0.148D+00 0.899D+00
 Gap=     0.055 Goal=   None    Shift=    0.000
 Gap=     0.031 Goal=   None    Shift=    0.000
 RMSDP=2.38D-05 MaxDP=1.62D-03 DE=-8.31D-07 OVMax= 1.27D-03

 Cycle  10  Pass 1  IDiag  1:
 E= -1136.08279718258     Delta-E=       -0.000000185426 Rises=F Damp=F
 DIIS: error= 9.57D-06 at cycle  10 NSaved=  10.
 NSaved=10 IEnMin=10 EnMin= -1136.08279718258     IErMin=10 ErrMin= 9.57D-06
 ErrMax= 9.57D-06  0.00D+00 EMaxC= 1.00D-01 BMatC= 1.47D-08 BMatP= 2.86D-08
 IDIUse=1 WtCom= 1.00D+00 WtEn= 0.00D+00
 Coeff-Com: -0.675D-04 0.967D-04 0.164D-02 0.169D-02 0.252D-02 0.498D-02
 Coeff-Com: -0.726D-01-0.118D+00 0.240D+00 0.939D+00
 Coeff:     -0.675D-04 0.967D-04 0.164D-02 0.169D-02 0.252D-02 0.498D-02
 Coeff:     -0.726D-01-0.118D+00 0.240D+00 0.939D+00
 Gap=     0.055 Goal=   None    Shift=    0.000
 Gap=     0.031 Goal=   None    Shift=    0.000
 RMSDP=2.37D-05 MaxDP=2.15D-03 DE=-1.85D-07 OVMax= 1.38D-03

 Cycle  11  Pass 1  IDiag  1:
 E= -1136.08279732474     Delta-E=       -0.000000142160 Rises=F Damp=F
 DIIS: error= 9.00D-06 at cycle  11 NSaved=  11.
 NSaved=11 IEnMin=11 EnMin= -1136.08279732474     IErMin=11 ErrMin= 9.00D-06
 ErrMax= 9.00D-06  0.00D+00 EMaxC= 1.00D-01 BMatC= 8.78D-09 BMatP= 1.47D-08
 IDIUse=1 WtCom= 1.00D+00 WtEn= 0.00D+00
 Coeff-Com: -0.556D-04 0.702D-04 0.859D-04-0.279D-03 0.153D-02 0.187D-01
 Coeff-Com: -0.206D-01-0.557D-01-0.184D+00 0.112D+00 0.113D+01
 Coeff:     -0.556D-04 0.702D-04 0.859D-04-0.279D-03 0.153D-02 0.187D-01
 Coeff:     -0.206D-01-0.557D-01-0.184D+00 0.112D+00 0.113D+01
 Gap=     0.055 Goal=   None    Shift=    0.000
 Gap=     0.031 Goal=   None    Shift=    0.000
 RMSDP=2.11D-05 MaxDP=1.44D-03 DE=-1.42D-07 OVMax= 1.60D-03

 Cycle  12  Pass 1  IDiag  1:
 E= -1136.08279745908     Delta-E=       -0.000000134346 Rises=F Damp=F
 DIIS: error= 8.29D-06 at cycle  12 NSaved=  12.
 NSaved=12 IEnMin=12 EnMin= -1136.08279745908     IErMin=12 ErrMin= 8.29D-06
 ErrMax= 8.29D-06  0.00D+00 EMaxC= 1.00D-01 BMatC= 8.01D-09 BMatP= 8.78D-09
 IDIUse=1 WtCom= 1.00D+00 WtEn= 0.00D+00
 Coeff-Com: -0.163D-05-0.379D-05-0.671D-03-0.892D-03-0.233D-03 0.927D-02
 Coeff-Com:  0.196D-01 0.202D-01-0.219D+00-0.387D+00 0.759D+00 0.800D+00
 Coeff:     -0.163D-05-0.379D-05-0.671D-03-0.892D-03-0.233D-03 0.927D-02
 Coeff:      0.196D-01 0.202D-01-0.219D+00-0.387D+00 0.759D+00 0.800D+00
 Gap=     0.055 Goal=   None    Shift=    0.000
 Gap=     0.031 Goal=   None    Shift=    0.000
 RMSDP=1.81D-05 MaxDP=1.48D-03 DE=-1.34D-07 OVMax= 1.54D-03

 Cycle  13  Pass 1  IDiag  1:
 E= -1136.08279757653     Delta-E=       -0.000000117442 Rises=F Damp=F
 DIIS: error= 7.66D-06 at cycle  13 NSaved=  13.
 NSaved=13 IEnMin=13 EnMin= -1136.08279757653     IErMin=13 ErrMin= 7.66D-06
 ErrMax= 7.66D-06  0.00D+00 EMaxC= 1.00D-01 BMatC= 5.78D-09 BMatP= 8.01D-09
 IDIUse=1 WtCom= 1.00D+00 WtEn= 0.00D+00
 Coeff-Com:  0.105D-03-0.134D-03-0.304D-03 0.325D-03-0.282D-02-0.307D-01
 Coeff-Com:  0.427D-01 0.106D+00 0.240D+00-0.300D+00-0.147D+01-0.886D-01
 Coeff-Com:  0.250D+01
 Coeff:      0.105D-03-0.134D-03-0.304D-03 0.325D-03-0.282D-02-0.307D-01
 Coeff:      0.427D-01 0.106D+00 0.240D+00-0.300D+00-0.147D+01-0.886D-01
 Coeff:      0.250D+01
 Gap=     0.055 Goal=   None    Shift=    0.000
 Gap=     0.031 Goal=   None    Shift=    0.000
 RMSDP=4.89D-05 MaxDP=4.21D-03 DE=-1.17D-07 OVMax= 4.65D-03

 Cycle  14  Pass 1  IDiag  1:
 E= -1136.08279786713     Delta-E=       -0.000000290601 Rises=F Damp=F
 DIIS: error= 5.72D-06 at cycle  14 NSaved=  14.
 NSaved=14 IEnMin=14 EnMin= -1136.08279786713     IErMin=14 ErrMin= 5.72D-06
 ErrMax= 5.72D-06  0.00D+00 EMaxC= 1.00D-01 BMatC= 3.48D-09 BMatP= 5.78D-09
 IDIUse=1 WtCom= 1.00D+00 WtEn= 0.00D+00
 Coeff-Com: -0.779D-04 0.111D-03 0.601D-03 0.318D-03 0.225D-02 0.969D-02
 Coeff-Com: -0.450D-01-0.985D-01 0.781D-01 0.743D+00 0.889D-01-0.118D+01
 Coeff-Com: -0.134D+01 0.275D+01
 Coeff:     -0.779D-04 0.111D-03 0.601D-03 0.318D-03 0.225D-02 0.969D-02
 Coeff:     -0.450D-01-0.985D-01 0.781D-01 0.743D+00 0.889D-01-0.118D+01
 Coeff:     -0.134D+01 0.275D+01
 Gap=     0.055 Goal=   None    Shift=    0.000
 Gap=     0.031 Goal=   None    Shift=    0.000
 RMSDP=7.65D-05 MaxDP=6.46D-03 DE=-2.91D-07 OVMax= 7.16D-03

 Cycle  15  Pass 1  IDiag  1:
 E= -1136.08279815205     Delta-E=       -0.000000284921 Rises=F Damp=F
 DIIS: error= 2.75D-06 at cycle  15 NSaved=  15.
 NSaved=15 IEnMin=15 EnMin= -1136.08279815205     IErMin=15 ErrMin= 2.75D-06
 ErrMax= 2.75D-06  0.00D+00 EMaxC= 1.00D-01 BMatC= 1.12D-09 BMatP= 3.48D-09
 IDIUse=1 WtCom= 1.00D+00 WtEn= 0.00D+00
 Coeff-Com: -0.404D-04 0.512D-04 0.823D-04-0.282D-03 0.116D-02 0.182D-01
 Coeff-Com: -0.158D-01-0.420D-01-0.946D-01-0.815D-01 0.744D+00 0.283D+00
 Coeff-Com: -0.940D+00-0.604D+00 0.173D+01
 Coeff:     -0.404D-04 0.512D-04 0.823D-04-0.282D-03 0.116D-02 0.182D-01
 Coeff:     -0.158D-01-0.420D-01-0.946D-01-0.815D-01 0.744D+00 0.283D+00
 Coeff:     -0.940D+00-0.604D+00 0.173D+01
 Gap=     0.055 Goal=   None    Shift=    0.000
 Gap=     0.031 Goal=   None    Shift=    0.000
 RMSDP=5.22D-05 MaxDP=3.97D-03 DE=-2.85D-07 OVMax= 4.34D-03

 Cycle  16  Pass 1  IDiag  1:
 E= -1136.08279822865     Delta-E=       -0.000000076600 Rises=F Damp=F
 DIIS: error= 9.24D-07 at cycle  16 NSaved=  16.
 NSaved=16 IEnMin=16 EnMin= -1136.08279822865     IErMin=16 ErrMin= 9.24D-07
 ErrMax= 9.24D-07  0.00D+00 EMaxC= 1.00D-01 BMatC= 2.94D-10 BMatP= 1.12D-09
 IDIUse=1 WtCom= 1.00D+00 WtEn= 0.00D+00
 Coeff-Com:  0.610D-05-0.114D-04-0.192D-03-0.267D-03-0.736D-05 0.473D-02
 Coeff-Com:  0.877D-02 0.138D-01-0.736D-01-0.285D+00 0.299D+00 0.490D+00
 Coeff-Com:  0.373D-01-0.107D+01 0.542D+00 0.103D+01
 Coeff:      0.610D-05-0.114D-04-0.192D-03-0.267D-03-0.736D-05 0.473D-02
 Coeff:      0.877D-02 0.138D-01-0.736D-01-0.285D+00 0.299D+00 0.490D+00
 Coeff:      0.373D-01-0.107D+01 0.542D+00 0.103D+01
 Gap=     0.055 Goal=   None    Shift=    0.000
 Gap=     0.031 Goal=   None    Shift=    0.000
 RMSDP=2.22D-05 MaxDP=1.59D-03 DE=-7.66D-08 OVMax= 1.72D-03

 Cycle  17  Pass 1  IDiag  1:
 E= -1136.08279823824     Delta-E=       -0.000000009598 Rises=F Damp=F
 DIIS: error= 3.07D-07 at cycle  17 NSaved=  17.
 NSaved=17 IEnMin=17 EnMin= -1136.08279823824     IErMin=17 ErrMin= 3.07D-07
 ErrMax= 3.07D-07  0.00D+00 EMaxC= 1.00D-01 BMatC= 3.99D-11 BMatP= 2.94D-10
 IDIUse=1 WtCom= 1.00D+00 WtEn= 0.00D+00
 Coeff-Com:  0.952D-05-0.132D-04-0.767D-04 0.361D-05-0.268D-03-0.217D-02
 Coeff-Com:  0.506D-02 0.101D-01 0.456D-02-0.490D-01-0.948D-01 0.625D-01
 Coeff-Com:  0.230D+00-0.184D+00-0.168D+00 0.247D+00 0.939D+00
 Coeff:      0.952D-05-0.132D-04-0.767D-04 0.361D-05-0.268D-03-0.217D-02
 Coeff:      0.506D-02 0.101D-01 0.456D-02-0.490D-01-0.948D-01 0.625D-01
 Coeff:      0.230D+00-0.184D+00-0.168D+00 0.247D+00 0.939D+00
 Gap=     0.055 Goal=   None    Shift=    0.000
 Gap=     0.031 Goal=   None    Shift=    0.000
 RMSDP=5.08D-06 MaxDP=3.45D-04 DE=-9.60D-09 OVMax= 3.75D-04

 Cycle  18  Pass 1  IDiag  1:
 E= -1136.08279823871     Delta-E=       -0.000000000461 Rises=F Damp=F
 DIIS: error= 9.60D-08 at cycle  18 NSaved=  18.
 NSaved=18 IEnMin=18 EnMin= -1136.08279823871     IErMin=18 ErrMin= 9.60D-08
 ErrMax= 9.60D-08  0.00D+00 EMaxC= 1.00D-01 BMatC= 3.33D-12 BMatP= 3.99D-11
 IDIUse=1 WtCom= 1.00D+00 WtEn= 0.00D+00
 Coeff-Com:  0.853D-06-0.633D-06 0.160D-04 0.261D-04-0.395D-04-0.929D-03
 Coeff-Com: -0.200D-03-0.936D-03 0.793D-02 0.351D-01-0.403D-01-0.591D-01
 Coeff-Com:  0.597D-02 0.119D+00-0.616D-01-0.116D+00-0.508D-01 0.116D+01
 Coeff:      0.853D-06-0.633D-06 0.160D-04 0.261D-04-0.395D-04-0.929D-03
 Coeff:     -0.200D-03-0.936D-03 0.793D-02 0.351D-01-0.403D-01-0.591D-01
 Coeff:      0.597D-02 0.119D+00-0.616D-01-0.116D+00-0.508D-01 0.116D+01
 Gap=     0.055 Goal=   None    Shift=    0.000
 Gap=     0.031 Goal=   None    Shift=    0.000
 RMSDP=7.59D-07 MaxDP=1.02D-04 DE=-4.61D-10 OVMax= 2.55D-05

 Cycle  19  Pass 1  IDiag  1:
 E= -1136.08279823874     Delta-E=       -0.000000000031 Rises=F Damp=F
 DIIS: error= 4.87D-08 at cycle  19 NSaved=  19.
 NSaved=19 IEnMin=19 EnMin= -1136.08279823874     IErMin=19 ErrMin= 4.87D-08
 ErrMax= 4.87D-08  0.00D+00 EMaxC= 1.00D-01 BMatC= 6.74D-13 BMatP= 3.33D-12
 IDIUse=1 WtCom= 1.00D+00 WtEn= 0.00D+00
 Coeff-Com: -0.185D-05 0.242D-05 0.591D-05-0.615D-05 0.375D-04 0.458D-03
 Coeff-Com: -0.631D-03-0.116D-02-0.200D-02 0.540D-04 0.184D-01 0.246D-02
 Coeff-Com: -0.313D-01 0.648D-02 0.303D-01-0.221D-01-0.111D+00-0.110D+00
 Coeff-Com:  0.122D+01
 Coeff:     -0.185D-05 0.242D-05 0.591D-05-0.615D-05 0.375D-04 0.458D-03
 Coeff:     -0.631D-03-0.116D-02-0.200D-02 0.540D-04 0.184D-01 0.246D-02
 Coeff:     -0.313D-01 0.648D-02 0.303D-01-0.221D-01-0.111D+00-0.110D+00
 Coeff:      0.122D+01
 Gap=     0.055 Goal=   None    Shift=    0.000
 Gap=     0.031 Goal=   None    Shift=    0.000
 RMSDP=2.73D-07 MaxDP=1.88D-05 DE=-3.07D-11 OVMax= 1.80D-05

 Cycle  20  Pass 1  IDiag  1:
 E= -1136.08279823874     Delta-E=       -0.000000000003 Rises=F Damp=F
 DIIS: error= 2.78D-08 at cycle  20 NSaved=  20.
 NSaved=20 IEnMin=20 EnMin= -1136.08279823874     IErMin=20 ErrMin= 2.78D-08
 ErrMax= 2.78D-08  0.00D+00 EMaxC= 1.00D-01 BMatC= 2.12D-13 BMatP= 6.74D-13
 IDIUse=1 WtCom= 1.00D+00 WtEn= 0.00D+00
 Coeff-Com: -0.801D-07-0.180D-08-0.540D-06-0.265D-05 0.114D-04 0.206D-03
 Coeff-Com:  0.146D-04 0.195D-03-0.143D-02-0.845D-02 0.960D-02 0.142D-01
 Coeff-Com: -0.239D-02-0.272D-01 0.133D-01 0.290D-01 0.167D-01-0.305D+00
 Coeff-Com:  0.531D-01 0.121D+01
 Coeff:     -0.801D-07-0.180D-08-0.540D-06-0.265D-05 0.114D-04 0.206D-03
 Coeff:      0.146D-04 0.195D-03-0.143D-02-0.845D-02 0.960D-02 0.142D-01
 Coeff:     -0.239D-02-0.272D-01 0.133D-01 0.290D-01 0.167D-01-0.305D+00
 Coeff:      0.531D-01 0.121D+01
 Gap=     0.055 Goal=   None    Shift=    0.000
 Gap=     0.031 Goal=   None    Shift=    0.000
 RMSDP=1.27D-07 MaxDP=1.01D-05 DE=-2.73D-12 OVMax= 4.33D-06

 Cycle  21  Pass 1  IDiag  1:
 E= -1136.08279823875     Delta-E=       -0.000000000007 Rises=F Damp=F
 DIIS: error= 1.42D-08 at cycle  21 NSaved=  20.
 NSaved=20 IEnMin=20 EnMin= -1136.08279823875     IErMin=20 ErrMin= 1.42D-08
 ErrMax= 1.42D-08  0.00D+00 EMaxC= 1.00D-01 BMatC= 5.85D-14 BMatP= 2.12D-13
 IDIUse=1 WtCom= 1.00D+00 WtEn= 0.00D+00
 Coeff-Com:  0.116D-06-0.120D-05-0.122D-06-0.193D-05-0.495D-04 0.482D-04
 Coeff-Com:  0.718D-04 0.257D-03 0.105D-02-0.312D-02-0.133D-02 0.471D-02
 Coeff-Com:  0.149D-04-0.640D-02 0.567D-02 0.237D-01 0.209D-01-0.313D+00
 Coeff-Com:  0.443D-01 0.122D+01
 Coeff:      0.116D-06-0.120D-05-0.122D-06-0.193D-05-0.495D-04 0.482D-04
 Coeff:      0.718D-04 0.257D-03 0.105D-02-0.312D-02-0.133D-02 0.471D-02
 Coeff:      0.149D-04-0.640D-02 0.567D-02 0.237D-01 0.209D-01-0.313D+00
 Coeff:      0.443D-01 0.122D+01
 Gap=     0.055 Goal=   None    Shift=    0.000
 Gap=     0.031 Goal=   None    Shift=    0.000
 RMSDP=6.40D-08 MaxDP=4.20D-06 DE=-6.59D-12 OVMax= 2.70D-06

 Cycle  22  Pass 1  IDiag  1:
 E= -1136.08279823874     Delta-E=        0.000000000010 Rises=F Damp=F
 DIIS: error= 6.95D-09 at cycle  22 NSaved=  20.
 NSaved=20 IEnMin=19 EnMin= -1136.08279823875     IErMin=20 ErrMin= 6.95D-09
 ErrMax= 6.95D-09  0.00D+00 EMaxC= 1.00D-01 BMatC= 1.56D-14 BMatP= 5.85D-14
 IDIUse=1 WtCom= 1.00D+00 WtEn= 0.00D+00
 Coeff-Com: -0.142D-05 0.121D-06-0.768D-05-0.775D-04 0.589D-04 0.116D-03
 Coeff-Com:  0.180D-03 0.142D-02-0.280D-02-0.274D-02 0.220D-02 0.515D-02
 Coeff-Com: -0.435D-02-0.550D-02-0.365D-03 0.802D-01-0.386D-01-0.392D+00
 Coeff-Com:  0.193D+00 0.116D+01
 Coeff:     -0.142D-05 0.121D-06-0.768D-05-0.775D-04 0.589D-04 0.116D-03
 Coeff:      0.180D-03 0.142D-02-0.280D-02-0.274D-02 0.220D-02 0.515D-02
 Coeff:     -0.435D-02-0.550D-02-0.365D-03 0.802D-01-0.386D-01-0.392D+00
 Coeff:      0.193D+00 0.116D+01
 Gap=     0.055 Goal=   None    Shift=    0.000
 Gap=     0.031 Goal=   None    Shift=    0.000
 RMSDP=3.99D-08 MaxDP=2.21D-06 DE= 1.02D-11 OVMax= 2.80D-06

 Cycle  23  Pass 1  IDiag  1:
 E= -1136.08279823874     Delta-E=        0.000000000001 Rises=F Damp=F
 DIIS: error= 1.24D-09 at cycle  23 NSaved=  20.
 NSaved=20 IEnMin=18 EnMin= -1136.08279823875     IErMin=20 ErrMin= 1.24D-09
 ErrMax= 1.24D-09  0.00D+00 EMaxC= 1.00D-01 BMatC= 6.57D-16 BMatP= 1.56D-14
 IDIUse=1 WtCom= 1.00D+00 WtEn= 0.00D+00
 Large coefficients: NSaved= 20 BigCof=    0.00 CofMax=   10.00 Det=-1.84D-15
 Inversion failed.  Reducing to 19 matrices.
 Large coefficients: NSaved= 19 BigCof=    0.00 CofMax=   10.00 Det=-3.07D-15
 Inversion failed.  Reducing to 18 matrices.
 Large coefficients: NSaved= 18 BigCof=    0.00 CofMax=   10.00 Det=-3.64D-15
 Inversion failed.  Reducing to 17 matrices.
 Large coefficients: NSaved= 17 BigCof=    0.00 CofMax=   10.00 Det=-3.64D-15
 Inversion failed.  Reducing to 16 matrices.
 Large coefficients: NSaved= 16 BigCof=    0.00 CofMax=   10.00 Det=-3.88D-15
 Inversion failed.  Reducing to 15 matrices.
 Coeff-Com:  0.278D-04-0.564D-04 0.910D-04 0.341D-04-0.193D-03 0.642D-04
 Coeff-Com:  0.305D-03-0.582D-04-0.146D-02-0.315D-02 0.263D-01 0.118D-01
 Coeff-Com: -0.127D+00-0.400D-01 0.113D+01
 Coeff:      0.278D-04-0.564D-04 0.910D-04 0.341D-04-0.193D-03 0.642D-04
 Coeff:      0.305D-03-0.582D-04-0.146D-02-0.315D-02 0.263D-01 0.118D-01
 Coeff:     -0.127D+00-0.400D-01 0.113D+01
 Gap=     0.055 Goal=   None    Shift=    0.000
 Gap=     0.031 Goal=   None    Shift=    0.000
 RMSDP=1.13D-08 MaxDP=8.49D-07 DE= 6.82D-13 OVMax= 6.82D-07

 Cycle  24  Pass 1  IDiag  1:
 E= -1136.08279823874     Delta-E=       -0.000000000001 Rises=F Damp=F
 DIIS: error= 7.19D-10 at cycle  24 NSaved=  16.
 NSaved=16 IEnMin=13 EnMin= -1136.08279823875     IErMin=16 ErrMin= 7.19D-10
 ErrMax= 7.19D-10  0.00D+00 EMaxC= 1.00D-01 BMatC= 1.04D-16 BMatP= 6.57D-16
 IDIUse=1 WtCom= 1.00D+00 WtEn= 0.00D+00
 Large coefficients: NSaved= 16 BigCof=    0.00 CofMax=   10.00 Det=-1.91D-16
 Inversion failed.  Reducing to 15 matrices.
 Coeff-Com: -0.353D-04-0.533D-04 0.598D-04 0.142D-03-0.202D-03 0.992D-04
 Coeff-Com: -0.457D-04 0.121D-03-0.122D-02 0.370D-02 0.386D-02-0.159D-01
 Coeff-Com: -0.137D-01 0.442D-01 0.979D+00
 Coeff:     -0.353D-04-0.533D-04 0.598D-04 0.142D-03-0.202D-03 0.992D-04
 Coeff:     -0.457D-04 0.121D-03-0.122D-02 0.370D-02 0.386D-02-0.159D-01
 Coeff:     -0.137D-01 0.442D-01 0.979D+00
 Gap=     0.055 Goal=   None    Shift=    0.000
 Gap=     0.031 Goal=   None    Shift=    0.000
 RMSDP=7.44D-09 MaxDP=1.12D-06 DE=-1.36D-12 OVMax= 3.67D-07

 Cycle  25  Pass 1  IDiag  1:
 E= -1136.08279823873     Delta-E=        0.000000000004 Rises=F Damp=F
 DIIS: error= 6.05D-10 at cycle  25 NSaved=  16.
 NSaved=16 IEnMin=12 EnMin= -1136.08279823875     IErMin=16 ErrMin= 6.05D-10
 ErrMax= 6.05D-10  0.00D+00 EMaxC= 1.00D-01 BMatC= 5.76D-17 BMatP= 1.04D-16
 IDIUse=1 WtCom= 1.00D+00 WtEn= 0.00D+00
 Large coefficients: NSaved= 16 BigCof=    0.00 CofMax=   10.00 Det=-1.02D-16
 Inversion failed.  Reducing to 15 matrices.
 Coeff-Com: -0.839D-05 0.120D-04 0.294D-04-0.629D-04-0.265D-04 0.117D-03
 Coeff-Com:  0.472D-03-0.150D-02-0.495D-02 0.835D-02 0.210D-01-0.216D-01
 Coeff-Com: -0.238D+00 0.402D+00 0.835D+00
 Coeff:     -0.839D-05 0.120D-04 0.294D-04-0.629D-04-0.265D-04 0.117D-03
 Coeff:      0.472D-03-0.150D-02-0.495D-02 0.835D-02 0.210D-01-0.216D-01
 Coeff:     -0.238D+00 0.402D+00 0.835D+00
 Gap=     0.055 Goal=   None    Shift=    0.000
 Gap=     0.031 Goal=   None    Shift=    0.000
 RMSDP=2.92D-09 MaxDP=3.73D-07 DE= 4.32D-12 OVMax= 7.34D-08

 SCF Done:  E(UB3LYP) =  -1136.08279824     A.U. after   25 cycles
            NFock= 25  Conv=0.29D-08     -V/T= 2.0023
 <Sx>= 0.0000 <Sy>= 0.0000 <Sz>= 0.5000 <S**2>= 0.7615 S= 0.5057
 <L.S>= 0.000000000000E+00
 KE= 1.133434722883D+03 PE=-3.534884509525D+03 EE= 8.626751549912D+02
 Annihilation of the first spin contaminant:
 S**2 before annihilation     0.7615,   after     0.7501
 Leave Link  502 at Mon Nov 13 19:48:54 2023, MaxMem=  1879048192 cpu:             240.4 elap:              20.6
 (Enter /home/sekinelabo/g16/l601.exe)
 Copying SCF densities to generalized density rwf, IOpCl= 1 IROHF=0.

 **********************************************************************

            Population analysis using the SCF Density.

 **********************************************************************

 Orbital symmetries:
 Alpha Orbitals:
       Occupied  (A) (A) (A) (A) (A) (A) (A) (A) (A) (A) (A) (A)
                 (A) (A) (A) (A) (A) (A) (A) (A) (A) (A) (A) (A)
                 (A) (A) (A) (A) (A) (A) (A) (A) (A) (A) (A) (A)
                 (A) (A) (A)
       Virtual   (A) (A) (A) (A) (A) (A) (A) (A) (A) (A) (A) (A)
                 (A) (A) (A) (A) (A) (A) (A) (A) (A) (A) (A) (A)
                 (A) (A) (A) (A) (A) (A) (A) (A) (A) (A) (A) (A)
                 (A) (A) (A) (A) (A) (A) (A) (A) (A) (A) (A) (A)
                 (A) (A) (A) (A) (A) (A) (A) (A) (A) (A) (A) (A)
                 (A) (A) (A) (A) (A) (A) (A) (A) (A) (A) (A) (A)
                 (A) (A) (A) (A) (A) (A) (A) (A) (A) (A) (A) (A)
                 (A) (A) (A) (A) (A) (A) (A) (A) (A) (A) (A) (A)
                 (A) (A) (A) (A) (A) (A) (A) (A) (A) (A) (A) (A)
                 (A) (A) (A) (A) (A) (A) (A) (A) (A) (A) (A) (A)
                 (A) (A) (A) (A) (A) (A) (A) (A) (A) (A) (A) (A)
                 (A) (A) (A) (A) (A) (A) (A) (A) (A) (A) (A) (A)
                 (A) (A) (A) (A) (A) (A) (A) (A) (A) (A) (A) (A)
                 (A) (A) (A) (A) (A) (A) (A) (A) (A) (A) (A) (A)
                 (A) (A)
 Beta  Orbitals:
       Occupied  (A) (A) (A) (A) (A) (A) (A) (A) (A) (A) (A) (A)
                 (A) (A) (A) (A) (A) (A) (A) (A) (A) (A) (A) (A)
                 (A) (A) (A) (A) (A) (A) (A) (A) (A) (A) (A) (A)
                 (A) (A)
       Virtual   (A) (A) (A) (A) (A) (A) (A) (A) (A) (A) (A) (A)
                 (A) (A) (A) (A) (A) (A) (A) (A) (A) (A) (A) (A)
                 (A) (A) (A) (A) (A) (A) (A) (A) (A) (A) (A) (A)
                 (A) (A) (A) (A) (A) (A) (A) (A) (A) (A) (A) (A)
                 (A) (A) (A) (A) (A) (A) (A) (A) (A) (A) (A) (A)
                 (A) (A) (A) (A) (A) (A) (A) (A) (A) (A) (A) (A)
                 (A) (A) (A) (A) (A) (A) (A) (A) (A) (A) (A) (A)
                 (A) (A) (A) (A) (A) (A) (A) (A) (A) (A) (A) (A)
                 (A) (A) (A) (A) (A) (A) (A) (A) (A) (A) (A) (A)
                 (A) (A) (A) (A) (A) (A) (A) (A) (A) (A) (A) (A)
                 (A) (A) (A) (A) (A) (A) (A) (A) (A) (A) (A) (A)
                 (A) (A) (A) (A) (A) (A) (A) (A) (A) (A) (A) (A)
                 (A) (A) (A) (A) (A) (A) (A) (A) (A) (A) (A) (A)
                 (A) (A) (A) (A) (A) (A) (A) (A) (A) (A) (A) (A)
                 (A) (A) (A)
 The electronic state is 2-A.
 Alpha  occ. eigenvalues --  -38.44961 -38.44463 -38.44407 -38.44005 -38.43966
 Alpha  occ. eigenvalues --  -38.42509 -38.42467  -2.20866  -2.20720  -2.20475
 Alpha  occ. eigenvalues --   -2.20268  -2.20140  -2.18612  -2.18570  -1.14632
 Alpha  occ. eigenvalues --   -1.14595  -1.14555  -1.14537  -1.14444  -1.14340
 Alpha  occ. eigenvalues --   -1.14206  -1.14054  -1.14035  -1.14026  -1.13934
 Alpha  occ. eigenvalues --   -1.13863  -1.13802  -1.13724  -1.13685  -1.12341
 Alpha  occ. eigenvalues --   -1.12293  -1.12275  -1.12229  -1.12167  -1.12134
 Alpha  occ. eigenvalues --   -0.21217  -0.14118  -0.12724  -0.11682
 Alpha virt. eigenvalues --   -0.06219  -0.04324  -0.03633  -0.03435  -0.02733
 Alpha virt. eigenvalues --   -0.02664  -0.01828  -0.00566  -0.00180   0.00264
 Alpha virt. eigenvalues --    0.00506   0.00613   0.00960   0.01016   0.01028
 Alpha virt. eigenvalues --    0.01259   0.01360   0.01412   0.01499   0.01638
 Alpha virt. eigenvalues --    0.01684   0.01738   0.01776   0.01891   0.02066
 Alpha virt. eigenvalues --    0.02402   0.02545   0.02841   0.02856   0.02978
 Alpha virt. eigenvalues --    0.02992   0.03027   0.03067   0.03272   0.03349
 Alpha virt. eigenvalues --    0.03628   0.03885   0.03952   0.04098   0.04131
 Alpha virt. eigenvalues --    0.04437   0.04769   0.05180   0.05269   0.05541
 Alpha virt. eigenvalues --    0.05577   0.05899   0.05946   0.06233   0.06353
 Alpha virt. eigenvalues --    0.06766   0.06817   0.07028   0.07187   0.07498
 Alpha virt. eigenvalues --    0.08694   0.08794   0.09665   0.09938   0.10048
 Alpha virt. eigenvalues --    0.10228   0.10274   0.11174   0.12616   0.13261
 Alpha virt. eigenvalues --    0.13814   0.14257   0.14289   0.14306   0.14406
 Alpha virt. eigenvalues --    0.14660   0.15334   0.15474   0.15847   0.16547
 Alpha virt. eigenvalues --    0.17063   0.17763   0.18808   0.19912   0.21730
 Alpha virt. eigenvalues --    0.24044   0.24818   0.27940   0.28210   0.30660
 Alpha virt. eigenvalues --    0.32356   0.33489   0.33689   0.34834   0.35020
 Alpha virt. eigenvalues --    0.36465   0.36903   0.36966   0.38837   0.39937
 Alpha virt. eigenvalues --    0.40676   0.41603   0.42575   0.43363   0.44472
 Alpha virt. eigenvalues --    0.44889   0.45424   0.46081   0.46423   0.47344
 Alpha virt. eigenvalues --    0.47457   0.48289   0.48509   0.48696   0.49898
 Alpha virt. eigenvalues --    0.50305   0.50899   0.51217   0.52950   0.53207
 Alpha virt. eigenvalues --    0.53957   0.54732   0.55008   0.55654   0.57058
 Alpha virt. eigenvalues --    0.58121   0.60794   0.64099   0.65177   0.65373
 Alpha virt. eigenvalues --    0.71025   0.72930   0.73729   0.74747   0.76599
 Alpha virt. eigenvalues --    0.79102   0.80563   0.81706   0.84429   0.85298
 Alpha virt. eigenvalues --    2.12627   2.20009   2.27367   2.28815   2.29522
 Alpha virt. eigenvalues --    2.33938   2.37999   4.40575   4.41415   4.41798
 Alpha virt. eigenvalues --    4.42050   4.43360   4.44654   4.45226   4.47246
 Alpha virt. eigenvalues --    4.49534   4.52374   4.52693   4.60197   4.64142
 Alpha virt. eigenvalues --    4.69096   4.70737   4.71780   4.77611   4.78762
 Alpha virt. eigenvalues --    4.79937   4.84207   4.87495  96.34368  96.44067
 Alpha virt. eigenvalues --   96.54880  96.56634  96.59372  96.64030  96.69490
  Beta  occ. eigenvalues --  -38.44953 -38.44396 -38.44371 -38.43941 -38.43900
  Beta  occ. eigenvalues --  -38.42493 -38.42454  -2.20851  -2.20605  -2.20411
  Beta  occ. eigenvalues --   -2.20153  -2.20025  -2.18590  -2.18553  -1.14609
  Beta  occ. eigenvalues --   -1.14557  -1.14491  -1.14449  -1.14437  -1.14259
  Beta  occ. eigenvalues --   -1.14131  -1.13993  -1.13991  -1.13958  -1.13856
  Beta  occ. eigenvalues --   -1.13779  -1.13707  -1.13626  -1.13605  -1.12331
  Beta  occ. eigenvalues --   -1.12288  -1.12218  -1.12179  -1.12148  -1.12110
  Beta  occ. eigenvalues --   -0.20359  -0.13943  -0.11348
  Beta virt. eigenvalues --   -0.08288  -0.06131  -0.03698  -0.03395  -0.03170
  Beta virt. eigenvalues --   -0.01976  -0.01846  -0.01701  -0.00244  -0.00154
  Beta virt. eigenvalues --    0.00284   0.00576   0.00754   0.00941   0.01061
  Beta virt. eigenvalues --    0.01078   0.01350   0.01361   0.01543   0.01598
  Beta virt. eigenvalues --    0.01674   0.01730   0.01749   0.01948   0.01971
  Beta virt. eigenvalues --    0.02085   0.02436   0.02636   0.02841   0.02919
  Beta virt. eigenvalues --    0.02957   0.02993   0.03080   0.03116   0.03294
  Beta virt. eigenvalues --    0.03441   0.03752   0.03960   0.04169   0.04215
  Beta virt. eigenvalues --    0.04241   0.04513   0.04903   0.05189   0.05523
  Beta virt. eigenvalues --    0.05610   0.05779   0.05938   0.06058   0.06348
  Beta virt. eigenvalues --    0.06547   0.06825   0.06926   0.07139   0.07234
  Beta virt. eigenvalues --    0.07605   0.08766   0.08842   0.09797   0.10098
  Beta virt. eigenvalues --    0.10243   0.10480   0.10742   0.11540   0.12732
  Beta virt. eigenvalues --    0.13417   0.13883   0.14372   0.14442   0.14530
  Beta virt. eigenvalues --    0.14752   0.15091   0.15612   0.15718   0.16226
  Beta virt. eigenvalues --    0.16626   0.17141   0.18079   0.19017   0.20196
  Beta virt. eigenvalues --    0.22326   0.24248   0.25242   0.28295   0.28672
  Beta virt. eigenvalues --    0.31217   0.32705   0.33535   0.33962   0.35061
  Beta virt. eigenvalues --    0.35245   0.37118   0.37231   0.37362   0.39151
  Beta virt. eigenvalues --    0.40204   0.40894   0.41868   0.42744   0.43631
  Beta virt. eigenvalues --    0.44645   0.45020   0.45624   0.46292   0.46668
  Beta virt. eigenvalues --    0.47500   0.47601   0.48468   0.48548   0.48986
  Beta virt. eigenvalues --    0.49996   0.50493   0.50942   0.51326   0.53246
  Beta virt. eigenvalues --    0.53554   0.54239   0.54913   0.55205   0.55952
  Beta virt. eigenvalues --    0.57513   0.58375   0.60979   0.64303   0.65296
  Beta virt. eigenvalues --    0.65479   0.71224   0.73297   0.74016   0.74893
  Beta virt. eigenvalues --    0.76895   0.79247   0.80762   0.81940   0.84677
  Beta virt. eigenvalues --    0.85442   2.12695   2.20090   2.27527   2.28822
  Beta virt. eigenvalues --    2.29746   2.34156   2.38195   4.40693   4.41512
  Beta virt. eigenvalues --    4.41883   4.42106   4.43424   4.44697   4.45240
  Beta virt. eigenvalues --    4.47299   4.49603   4.52423   4.52786   4.60311
  Beta virt. eigenvalues --    4.64203   4.69111   4.70846   4.71838   4.77669
  Beta virt. eigenvalues --    4.78847   4.79992   4.84334   4.87524  96.34398
  Beta virt. eigenvalues --   96.44094  96.54933  96.56646  96.59457  96.64101
  Beta virt. eigenvalues --   96.69558
          Condensed to atoms (all electrons):
               1          2          3          4          5          6
     1  Na  12.573393   0.218579   0.716014   0.101811  -0.659973  -1.648959
     2  Na   0.218579  11.687516   0.129805  -0.636610   0.113744  -0.407510
     3  Na   0.716014   0.129805  16.535715  -0.048482  -2.489337  -2.508112
     4  Na   0.101811  -0.636610  -0.048482  11.689464   0.186986  -0.200124
     5  Na  -0.659973   0.113744  -2.489337   0.186986  12.893674   0.979925
     6  Na  -1.648959  -0.407510  -2.508112  -0.200124   0.979925  14.243419
     7  Na  -0.265251  -0.307787  -1.831322  -0.254255   0.572210   0.931095
               7
     1  Na  -0.265251
     2  Na  -0.307787
     3  Na  -1.831322
     4  Na  -0.254255
     5  Na   0.572210
     6  Na   0.931095
     7  Na  11.991929
          Atomic-Atomic Spin Densities.
               1          2          3          4          5          6
     1  Na   0.233360   0.013103  -0.454310   0.035131   0.123643   0.080961
     2  Na   0.013103   0.008488  -0.118889  -0.037772   0.122986   0.076226
     3  Na  -0.454310  -0.118889   1.188448  -0.015664  -0.591275   0.362272
     4  Na   0.035131  -0.037772  -0.015664  -0.020209   0.052223   0.077140
     5  Na   0.123643   0.122986  -0.591275   0.052223   0.598658  -0.117881
     6  Na   0.080961   0.076226   0.362272   0.077140  -0.117881  -0.223043
     7  Na   0.162507   0.128082  -0.404043   0.044845   0.196841  -0.204995
               7
     1  Na   0.162507
     2  Na   0.128082
     3  Na  -0.404043
     4  Na   0.044845
     5  Na   0.196841
     6  Na  -0.204995
     7  Na   0.152039
 Mulliken charges and spin densities:
               1          2
     1  Na  -0.035614   0.194395
     2  Na   0.202264   0.192225
     3  Na   0.495719  -0.033462
     4  Na   0.161211   0.135694
     5  Na  -0.597229   0.385194
     6  Na  -0.389733   0.050680
     7  Na   0.163381   0.075275
 Sum of Mulliken charges =  -0.00000   1.00000
 Mulliken charges and spin densities with hydrogens summed into heavy atoms:
               1          2
     1  Na  -0.035614   0.194395
     2  Na   0.202264   0.192225
     3  Na   0.495719  -0.033462
     4  Na   0.161211   0.135694
     5  Na  -0.597229   0.385194
     6  Na  -0.389733   0.050680
     7  Na   0.163381   0.075275
 Electronic spatial extent (au):  <R**2>=           1696.8276
 Charge=              0.0000 electrons
 Dipole moment (field-independent basis, Debye):
    X=             -0.5873    Y=             -0.0216    Z=             -0.3190  Tot=              0.6687
 Quadrupole moment (field-independent basis, Debye-Ang):
   XX=            -52.2646   YY=            -77.1859   ZZ=            -65.1098
   XY=              0.0256   XZ=             -0.6165   YZ=             -0.3309
 Traceless Quadrupole moment (field-independent basis, Debye-Ang):
   XX=             12.5888   YY=            -12.3324   ZZ=             -0.2564
   XY=              0.0256   XZ=             -0.6165   YZ=             -0.3309
 Octapole moment (field-independent basis, Debye-Ang**2):
  XXX=            -29.0731  YYY=             -0.1800  ZZZ=              1.6009  XYY=             -1.9248
  XXY=             -1.0750  XXZ=            -12.1938  XZZ=              3.5466  YZZ=              0.4234
  YYZ=             -1.2123  XYZ=              0.0270
 Hexadecapole moment (field-independent basis, Debye-Ang**3):
 XXXX=          -1138.2613 YYYY=           -866.7273 ZZZZ=           -712.2459 XXXY=             -3.5680
 XXXZ=             -2.4785 YYYX=              6.0898 YYYZ=            -16.1370 ZZZX=             -7.5672
 ZZZY=              4.7490 XXYY=           -435.1835 XXZZ=           -322.3199 YYZZ=           -296.7558
 XXYZ=              7.1793 YYXZ=             -1.8012 ZZXY=             -3.1394
 N-N= 4.026918334121D+02 E-N=-3.534884509551D+03  KE= 1.133434722883D+03
                          Isotropic Fermi Contact Couplings
        Atom                 a.u.       MegaHertz       Gauss      10(-4) cm-1
     1  Na(23)             0.22119     261.67737      93.37299      87.28618
     2  Na(23)            -0.01741     -20.60160      -7.35116      -6.87196
     3  Na(23)             0.12663     149.80226      53.45317      49.96866
     4  Na(23)            -0.00864     -10.22072      -3.64701      -3.40927
     5  Na(23)             0.23486     277.84854      99.14327      92.68030
     6  Na(23)             0.21714     256.88448      91.66277      85.68744
     7  Na(23)             0.02229      26.36617       9.40810       8.79481
 --------------------------------------------------------
       Center         ----  Spin Dipole Couplings  ----
                      3XX-RR        3YY-RR        3ZZ-RR
 --------------------------------------------------------
     1   Atom        0.023549     -0.015149     -0.008401
     2   Atom       -0.031676     -0.027764      0.059439
     3   Atom        0.012430     -0.012519      0.000089
     4   Atom       -0.034231     -0.026169      0.060400
     5   Atom        0.013175     -0.010495     -0.002680
     6   Atom        0.024745     -0.014583     -0.010162
     7   Atom       -0.003052     -0.007790      0.010842
 --------------------------------------------------------
                        XY            XZ            YZ
 --------------------------------------------------------
     1   Atom        0.005044     -0.035926     -0.003565
     2   Atom        0.000794     -0.007799      0.010036
     3   Atom       -0.004728      0.025948     -0.004936
     4   Atom       -0.002516     -0.004950      0.017167
     5   Atom        0.002215     -0.015729     -0.003760
     6   Atom       -0.008187      0.033608     -0.005130
     7   Atom        0.000019     -0.009821     -0.000375
 --------------------------------------------------------


 ---------------------------------------------------------------------------------
              Anisotropic Spin Dipole Couplings in Principal Axis System
 ---------------------------------------------------------------------------------

       Atom             a.u.   MegaHertz   Gauss  10(-4) cm-1        Axes

              Baa    -0.0317    -4.483    -1.600    -1.495  0.5438  0.0150  0.8391
     1 Na(23) Bbb    -0.0158    -2.225    -0.794    -0.742 -0.0904  0.9951  0.0408
              Bcc     0.0475     6.708     2.393     2.237  0.8343  0.0980 -0.5425
 
              Baa    -0.0330    -4.658    -1.662    -1.554  0.9229 -0.3666  0.1177
     2 Na(23) Bbb    -0.0282    -3.986    -1.422    -1.330  0.3761  0.9237 -0.0723
              Bcc     0.0612     8.644     3.084     2.883 -0.0822  0.1110  0.9904
 
              Baa    -0.0205    -2.900    -1.035    -0.967 -0.6016  0.1304  0.7881
     3 Na(23) Bbb    -0.0134    -1.890    -0.674    -0.630  0.1940  0.9809 -0.0142
              Bcc     0.0339     4.790     1.709     1.598  0.7749 -0.1443  0.6154
 
              Baa    -0.0350    -4.936    -1.761    -1.646  0.9616  0.2744  0.0005
     4 Na(23) Bbb    -0.0290    -4.098    -1.462    -1.367 -0.2690  0.9430 -0.1959
              Bcc     0.0640     9.033     3.223     3.013 -0.0543  0.1883  0.9806
 
              Baa    -0.0138    -1.949    -0.695    -0.650  0.3766  0.5743  0.7268
     5 Na(23) Bbb    -0.0095    -1.342    -0.479    -0.448 -0.3851  0.8107 -0.4410
              Bcc     0.0233     3.291     1.174     1.098  0.8425  0.1138 -0.5265
 
              Baa    -0.0306    -4.318    -1.541    -1.440 -0.5182  0.0090  0.8552
     6 Na(23) Bbb    -0.0161    -2.274    -0.811    -0.759  0.1378  0.9878  0.0731
              Bcc     0.0467     6.593     2.352     2.199  0.8441 -0.1558  0.5131
 
              Baa    -0.0082    -1.157    -0.413    -0.386  0.8255  0.3619  0.4330
     7 Na(23) Bbb    -0.0077    -1.092    -0.390    -0.364 -0.3277  0.9321 -0.1544
              Bcc     0.0159     2.249     0.803     0.750 -0.4595 -0.0144  0.8881
 

 ---------------------------------------------------------------------------------

 No NMR shielding tensors so no spin-rotation constants.
 Leave Link  601 at Mon Nov 13 19:48:55 2023, MaxMem=  1879048192 cpu:               2.6 elap:               0.2
 (Enter /home/sekinelabo/g16/l701.exe)
 ... and contract with generalized density number  0.
 Compute integral first derivatives.
 Leave Link  701 at Mon Nov 13 19:48:55 2023, MaxMem=  1879048192 cpu:               1.8 elap:               0.1
 (Enter /home/sekinelabo/g16/l702.exe)
 L702 exits ... SP integral derivatives will be done elsewhere.
 Leave Link  702 at Mon Nov 13 19:48:55 2023, MaxMem=  1879048192 cpu:               0.5 elap:               0.0
 (Enter /home/sekinelabo/g16/l703.exe)
 Integral derivatives from FoFJK, PRISM(SPDF).
 Compute integral first derivatives, UseDBF=F ICtDFT=           0.
 Calling FoFJK, ICntrl=      2127 FMM=F ISym2X=0 I1Cent= 0 IOpClX= 1 NMat=1 NMatS=1 NMatT=0.
 FoFJK:  IHMeth= 1 ICntrl=    2127 DoSepK=F KAlg= 0 I1Cent=           0 FoldK=F
 IRaf=         0 NMat=       1 IRICut=       1 DoRegI=T DoRafI=F ISym2E= 0 IDoP0=0 IntGTp=1.
 FoFCou: FMM=F IPFlag=           0 FMFlag=      100000 FMFlg1=         800
         NFxFlg=           0 DoJE=F BraDBF=F KetDBF=F FulRan=T
         wScrn=  0.000000 ICntrl=      2127 IOpCl=  1 I1Cent=           0 NGrid=           0
         NMat0=    1 NMatS0=      1 NMatT0=    0 NMatD0=    1 NMtDS0=    0 NMtDT0=    0
 Symmetry not used in FoFCou.
 Leave Link  703 at Mon Nov 13 19:48:57 2023, MaxMem=  1879048192 cpu:              37.5 elap:               2.4
 (Enter /home/sekinelabo/g16/l716.exe)
 Dipole        =-2.31059203D-01-8.47999499D-03-1.25493079D-01
 ***** Axes restored to original set *****
 -------------------------------------------------------------------
 Center     Atomic                   Forces (Hartrees/Bohr)
 Number     Number              X              Y              Z
 -------------------------------------------------------------------
      1       11          -0.016010410    0.001822948   -0.020867390
      2       11           0.000851580    0.025878371    0.002588611
      3       11          -0.012723504   -0.002513099    0.012543700
      4       11           0.002621956   -0.025788181   -0.000748405
      5       11           0.004644683   -0.001615871    0.017509537
      6       11           0.010749265    0.003023626   -0.013285876
      7       11           0.009866431   -0.000807794    0.002259823
 -------------------------------------------------------------------
 Cartesian Forces:  Max     0.025878371 RMS     0.012160260
 Z-matrix is all fixed cartesians, so copy forces.
 Force constants in Cartesian coordinates: 
                1             2             3             4             5 
      1  0.192107D+00
      2 -0.201748D-02  0.161554D+00
      3  0.310933D-01 -0.450740D-02  0.221272D+00
      4 -0.356365D-01 -0.274324D-01 -0.127719D-01  0.110347D+00
      5  0.445323D-02 -0.459644D-01  0.377126D-02 -0.146594D-02  0.181552D+00
      6 -0.782053D-02 -0.389910D-01 -0.461857D-01 -0.613863D-03  0.655016D-02
      7 -0.313719D-01  0.190937D-02 -0.214477D-01 -0.250332D-01  0.935001D-02
      8 -0.381518D-02 -0.271242D-01  0.324192D-02 -0.308335D-01 -0.349506D-01
      9  0.369512D-01  0.581783D-02 -0.697665D-01  0.667949D-02 -0.748155D-02
     10 -0.377590D-01  0.303139D-01 -0.675219D-02  0.165997D-01  0.414734D-03
     11 -0.162069D-02 -0.503626D-01 -0.564614D-02  0.293050D-02 -0.169852D-01
     12 -0.115794D-01  0.371659D-01 -0.396697D-01 -0.234368D-02 -0.508619D-02
     13 -0.135451D-01  0.128197D-02 -0.166663D-01 -0.394103D-01 -0.274713D-02
     14  0.100437D-02 -0.616215D-02  0.108750D-02  0.217811D-01 -0.554464D-01
     15 -0.878022D-02  0.127452D-02 -0.295702D-01  0.688827D-03 -0.589543D-02
     16 -0.714550D-01 -0.475222D-02  0.313504D-01 -0.230657D-01 -0.102656D-01
     17  0.222085D-02 -0.463646D-01  0.181080D-02  0.241859D-01 -0.297628D-01
     18 -0.338697D-01 -0.156628D-02 -0.476396D-01  0.819811D-02  0.868327D-02
     19 -0.233965D-02  0.696788D-03 -0.480565D-02 -0.380065D-02  0.260655D-03
     20 -0.225106D-03  0.144236D-01  0.242069D-03  0.108343D-01  0.155770D-02
     21 -0.599457D-02  0.806430D-03  0.115595D-01  0.162972D-03 -0.541523D-03
                6             7             8             9            10 
      6  0.107481D+00
      7  0.111668D-01  0.140081D+00
      8  0.197689D-01  0.551475D-02  0.972051D-01
      9 -0.125473D-01 -0.381138D-01 -0.402252D-02  0.127075D+00
     10 -0.274373D-02 -0.267272D-01  0.295836D-01  0.121033D-01  0.111038D+00
     11 -0.143670D-02 -0.109550D-01 -0.302400D-01  0.460070D-02 -0.489801D-02
     12  0.147305D-01  0.109636D-01 -0.225461D-01 -0.155508D-01 -0.805552D-03
     13 -0.805410D-02 -0.517461D-01  0.205160D-02 -0.353555D-01 -0.373811D-01
     14  0.418044D-01 -0.303889D-02 -0.327356D-01 -0.172534D-02 -0.200100D-01
     15 -0.406269D-01  0.239789D-01  0.982009D-03 -0.431012D-01 -0.416526D-02
     16  0.100820D-01 -0.483922D-02 -0.252575D-02  0.142172D-01 -0.216488D-01
     17 -0.290999D-01 -0.254327D-02  0.215999D-01  0.255229D-02 -0.241917D-01
     18 -0.295593D-01  0.143005D-01  0.256418D-02  0.402214D-02  0.438165D-02
     19 -0.201661D-02 -0.363226D-03  0.244918D-04  0.351823D-02 -0.412163D-02
     20  0.140406D-02 -0.236955D-03  0.624534D-02  0.258576D-03 -0.112126D-01
     21  0.670741D-02 -0.848304D-03  0.115830D-04  0.986893D-02 -0.201820D-02
               11            12            13            14            15 
     11  0.181160D+00
     12  0.793776D-02  0.107158D+00
     13  0.520056D-02 -0.428915D-02  0.210721D+00
     14 -0.496921D-01 -0.436908D-01 -0.170976D-02  0.206303D+00
     15  0.370704D-02 -0.473835D-01  0.137815D-01 -0.236075D-02  0.274852D+00
     16  0.912301D-02  0.991922D-02 -0.275664D-01  0.821779D-03 -0.117932D-01
     17 -0.354032D-01  0.286756D-01 -0.219203D-02 -0.251797D-01  0.172714D-02
     18 -0.871799D-02 -0.244881D-01  0.208824D-01  0.516223D-02 -0.586890D-01
     19  0.219638D-03 -0.186507D-02 -0.410721D-01  0.115138D-02 -0.137105D-01
     20  0.152350D-02 -0.245616D-02 -0.188521D-02 -0.370872D-01  0.565457D-03
     21 -0.444669D-03  0.520400D-02  0.297011D-01 -0.277269D-03 -0.554809D-01
               16            17            18            19            20 
     16  0.181131D+00
     17  0.344485D-02  0.143967D+00
     18 -0.252461D-01 -0.843190D-02  0.204621D+00
     19 -0.325559D-01 -0.924631D-03  0.113532D-01  0.842532D-01
     20  0.415389D-02 -0.288569D-01  0.230648D-02 -0.142832D-02  0.421940D-01
     21 -0.285295D-01  0.276593D-02 -0.482675D-01  0.752645D-02 -0.232048D-02
               21 
     21  0.704085D-01
 Leave Link  716 at Mon Nov 13 19:48:57 2023, MaxMem=  1879048192 cpu:               0.4 elap:               0.0
 (Enter /home/sekinelabo/g16/l103.exe)

 GradGradGradGradGradGradGradGradGradGradGradGradGradGradGradGradGradGrad
 Berny optimization.
 Search for a local minimum.
 Step number   1 out of a maximum of    2
 All quantities printed in internal units (Hartrees-Bohrs-Radians)
 Second derivative matrix not updated -- first step.
 ITU=  0
     Eigenvalues ---    0.07870   0.08103   0.09995   0.16167   0.17406
     Eigenvalues ---    0.17666   0.20571   0.21357   0.23498   0.24324
     Eigenvalues ---    0.25775   0.28009   0.28257   0.30686   0.33523
 Quadratic step=3.645D-01 exceeds max=3.000D-01 adjusted using Lamda=-2.694D-02.
 Angle between NR and scaled steps=   4.06 degrees.
 Angle between quadratic step and forces=  17.91 degrees.
 Linear search not attempted -- first point.
 B after Tr=    -0.000000    0.000000    0.000000
         Rot=    1.000000    0.000000   -0.000000    0.000000 Ang=   0.00 deg.
 Variable       Old X    -DE/DX   Delta X   Delta X   Delta X     New X
                                 (Linear)    (Quad)   (Total)
    X1        1.63547  -0.01601   0.00000  -0.08061  -0.08061   1.55486
    Y1        4.18195   0.00182   0.00000   0.00744   0.00744   4.18939
    Z1        0.08153  -0.02087   0.00000  -0.08056  -0.08056   0.00097
    X2        3.50416   0.00085   0.00000  -0.01754  -0.01754   3.48662
    Y2        7.99224   0.02588   0.00000   0.13107   0.13107   8.12331
    Z2        3.23118   0.00259   0.00000   0.00614   0.00614   3.23731
    X3        0.00000  -0.01272   0.00000  -0.09907  -0.09907  -0.09907
    Y3        3.61989  -0.00251   0.00000  -0.01451  -0.01451   3.60538
    Z3        5.09969   0.01254   0.00000   0.06583   0.06583   5.16552
    X4        3.83878   0.00262   0.00000  -0.00758  -0.00758   3.83120
    Y4        0.00000  -0.02579   0.00000  -0.12841  -0.12841  -0.12841
    Z4        2.44581  -0.00075   0.00000  -0.01113  -0.01113   2.43469
    X5        5.77692   0.00464   0.00000   0.02494   0.02494   5.80186
    Y5        3.81091  -0.00162   0.00000  -0.00500  -0.00500   3.80591
    Z5        5.62313   0.01751   0.00000   0.06559   0.06559   5.68872
    X6        6.93032   0.01075   0.00000   0.05948   0.05948   6.98980
    Y6        4.41129   0.00302   0.00000   0.01524   0.01524   4.42654
    Z6        0.00000  -0.01329   0.00000  -0.06933  -0.06933  -0.06933
    X7       10.97516   0.00987   0.00000   0.12039   0.12039  11.09556
    Y7        3.90268  -0.00081   0.00000  -0.00583  -0.00583   3.89685
    Z7        3.73572   0.00226   0.00000   0.02346   0.02346   3.75918
         Item               Value     Threshold  Converged?
 Maximum Force            0.025878     0.000450     NO 
 RMS     Force            0.012160     0.000300     NO 
 Maximum Displacement     0.131068     0.001800     NO 
 RMS     Displacement     0.065539     0.001200     NO 
 Predicted change in Energy=-9.177471D-03
 GradGradGradGradGradGradGradGradGradGradGradGradGradGradGradGradGradGrad

 Leave Link  103 at Mon Nov 13 19:48:57 2023, MaxMem=  1879048192 cpu:               0.3 elap:               0.0
 (Enter /home/sekinelabo/g16/l9999.exe)
 1\1\GINC-SEKINELABO-XA7R-R37\Force\UB3LYP\6-311+G(d)\Na7(2)\SEKINELABO
 \13-Nov-2023\0\\#P B3LYP/6-311+g(d) force\\Gaussian input prepared by 
 ASE\\0,2\Na,0.8654536762,2.212990742,0.0431423981\Na,1.8543240514,4.22
 93122561,1.7098650819\Na,0.,1.9155631969,2.6986385629\Na,2.0313922668,
 0.,1.2942691968\Na,3.0570160692,2.0166472649,2.9756305521\Na,3.6673698
 83,2.3343543112,0.\Na,5.8078069956,2.0652108233,1.9768590172\\Version=
 ES64L-G16RevB.01\State=2-A\HF=-1136.0827982\S2=0.761506\S2-1=0.\S2A=0.
 750077\RMSD=2.923e-09\RMSF=1.216e-02\Dipole=0.2310592,-0.00848,0.12549
 31\Quadrupole=9.3594716,-9.1688698,-0.1906018,-0.0189962,-0.4583582,0.
 2460316\PG=C01 [X(Na7)]\\@


 TELEVISION IS CALLED A MEDIUM BECAUSE IT ISN'T
 RARE, AND IT ISN'T WELL DONE.
 Job cpu time:       0 days  0 hours  4 minutes 55.8 seconds.
 Elapsed time:       0 days  0 hours  0 minutes 24.2 seconds.
 File lengths (MBytes):  RWF=     32 Int=      0 D2E=      0 Chk=      6 Scr=      1
 Normal termination of Gaussian 16 at Mon Nov 13 19:48:57 2023.
