 Entering Gaussian System, Link 0=g16
 Initial command:
 /home/sekinelabo/g16/l1.exe "/home/sekinelabo/g16temp/Gau-4063860.inp" -scrdir="/home/sekinelabo/g16temp/"
 Entering Link 1 = /home/sekinelabo/g16/l1.exe PID=   4063862.
  
 Copyright (c) 1988-2017, Gaussian, Inc.  All Rights Reserved.
  
 This is part of the Gaussian(R) 16 program.  It is based on
 the Gaussian(R) 09 system (copyright 2009, Gaussian, Inc.),
 the Gaussian(R) 03 system (copyright 2003, Gaussian, Inc.),
 the Gaussian(R) 98 system (copyright 1998, Gaussian, Inc.),
 the Gaussian(R) 94 system (copyright 1995, Gaussian, Inc.),
 the Gaussian 92(TM) system (copyright 1992, Gaussian, Inc.),
 the Gaussian 90(TM) system (copyright 1990, Gaussian, Inc.),
 the Gaussian 88(TM) system (copyright 1988, Gaussian, Inc.),
 the Gaussian 86(TM) system (copyright 1986, Carnegie Mellon
 University), and the Gaussian 82(TM) system (copyright 1983,
 Carnegie Mellon University). Gaussian is a federally registered
 trademark of Gaussian, Inc.
  
 This software contains proprietary and confidential information,
 including trade secrets, belonging to Gaussian, Inc.
  
 This software is provided under written license and may be
 used, copied, transmitted, or stored only in accord with that
 written license.
  
 The following legend is applicable only to US Government
 contracts under FAR:
  
                    RESTRICTED RIGHTS LEGEND
  
 Use, reproduction and disclosure by the US Government is
 subject to restrictions as set forth in subparagraphs (a)
 and (c) of the Commercial Computer Software - Restricted
 Rights clause in FAR 52.227-19.
  
 Gaussian, Inc.
 340 Quinnipiac St., Bldg. 40, Wallingford CT 06492
  
  
 ---------------------------------------------------------------
 Warning -- This program may not be used in any manner that
 competes with the business of Gaussian, Inc. or will provide
 assistance to any competitor of Gaussian, Inc.  The licensee
 of this program is prohibited from giving any competitor of
 Gaussian, Inc. access to this program.  By using this program,
 the user acknowledges that Gaussian, Inc. is engaged in the
 business of creating and licensing software in the field of
 computational chemistry and represents and warrants to the
 licensee that it is not a competitor of Gaussian, Inc. and that
 it will not use this program in any manner prohibited above.
 ---------------------------------------------------------------
  

 Cite this work as:
 Gaussian 16, Revision B.01,
 M. J. Frisch, G. W. Trucks, H. B. Schlegel, G. E. Scuseria, 
 M. A. Robb, J. R. Cheeseman, G. Scalmani, V. Barone, 
 G. A. Petersson, H. Nakatsuji, X. Li, M. Caricato, A. V. Marenich, 
 J. Bloino, B. G. Janesko, R. Gomperts, B. Mennucci, H. P. Hratchian, 
 J. V. Ortiz, A. F. Izmaylov, J. L. Sonnenberg, D. Williams-Young, 
 F. Ding, F. Lipparini, F. Egidi, J. Goings, B. Peng, A. Petrone, 
 T. Henderson, D. Ranasinghe, V. G. Zakrzewski, J. Gao, N. Rega, 
 G. Zheng, W. Liang, M. Hada, M. Ehara, K. Toyota, R. Fukuda, 
 J. Hasegawa, M. Ishida, T. Nakajima, Y. Honda, O. Kitao, H. Nakai, 
 T. Vreven, K. Throssell, J. A. Montgomery, Jr., J. E. Peralta, 
 F. Ogliaro, M. J. Bearpark, J. J. Heyd, E. N. Brothers, K. N. Kudin, 
 V. N. Staroverov, T. A. Keith, R. Kobayashi, J. Normand, 
 K. Raghavachari, A. P. Rendell, J. C. Burant, S. S. Iyengar, 
 J. Tomasi, M. Cossi, J. M. Millam, M. Klene, C. Adamo, R. Cammi, 
 J. W. Ochterski, R. L. Martin, K. Morokuma, O. Farkas, 
 J. B. Foresman, and D. J. Fox, Gaussian, Inc., Wallingford CT, 2016.
 
 ******************************************
 Gaussian 16:  ES64L-G16RevB.01 20-Dec-2017
                13-Nov-2023 
 ******************************************
 %mem=14GB
 %chk=checkpoint.chk
 %nprocshared=16
 Will use up to   16 processors via shared memory.
 -------------------------
 #P B3LYP/6-311+g(d) force
 -------------------------
 1/10=7,30=1,38=1/1,3;
 2/12=2,17=6,18=5,40=1/2;
 3/5=4,6=6,7=11,11=2,25=1,30=1,71=1,74=-5/1,2,3;
 4//1;
 5/5=2,38=5/2;
 6/7=2,8=2,9=2,10=2,28=1/1;
 7/29=1/1,2,3,16;
 1/10=7,30=1/3;
 99//99;
 Leave Link    1 at Mon Nov 13 16:54:00 2023, MaxMem=  1879048192 cpu:               0.3 elap:               0.0
 (Enter /home/sekinelabo/g16/l101.exe)
 ------------------------------
 Gaussian input prepared by ASE
 ------------------------------
 Symbolic Z-matrix:
 Charge =  0 Multiplicity = 2
 Na                    2.41429   2.51855   3.15353 
 Na                    2.31884   0.        2.71172 
 Na                    4.84629   2.07417   2.33917 
 Na                    2.61513   4.28047   1.22472 
 Na                    0.        2.92097   2.3576 
 Na                    0.74377   0.96571   0.73219 
 Na                    3.26888   1.57128   0. 
 
 ITRead=  0  0  0  0  0  0  0
 MicOpt= -1 -1 -1 -1 -1 -1 -1
 NAtoms=      7 NQM=        7 NQMF=       0 NMMI=      0 NMMIF=      0
                NMic=       0 NMicF=      0.
                    Isotopes and Nuclear Properties:
 (Nuclear quadrupole moments (NQMom) in fm**2, nuclear magnetic moments (NMagM)
  in nuclear magnetons)

  Atom         1           2           3           4           5           6           7
 IAtWgt=          23          23          23          23          23          23          23
 AtmWgt=  22.9897697  22.9897697  22.9897697  22.9897697  22.9897697  22.9897697  22.9897697
 NucSpn=           3           3           3           3           3           3           3
 AtZEff=  -0.0000000  -0.0000000  -0.0000000  -0.0000000  -0.0000000  -0.0000000  -0.0000000
 NQMom=   10.4000000  10.4000000  10.4000000  10.4000000  10.4000000  10.4000000  10.4000000
 NMagM=    2.2175200   2.2175200   2.2175200   2.2175200   2.2175200   2.2175200   2.2175200
 AtZNuc=  11.0000000  11.0000000  11.0000000  11.0000000  11.0000000  11.0000000  11.0000000
 Leave Link  101 at Mon Nov 13 16:54:01 2023, MaxMem=  1879048192 cpu:               2.6 elap:               0.2
 (Enter /home/sekinelabo/g16/l103.exe)

 GradGradGradGradGradGradGradGradGradGradGradGradGradGradGradGradGradGrad
 Berny optimization.
 Initialization pass.
 Trust Radius=3.00D-01 FncErr=1.00D-07 GrdErr=1.00D-07 EigMax=2.50D+02 EigMin=1.00D-04
 Number of steps in this run=      2 maximum allowed number of steps=      2.
 GradGradGradGradGradGradGradGradGradGradGradGradGradGradGradGradGradGrad

 Leave Link  103 at Mon Nov 13 16:54:01 2023, MaxMem=  1879048192 cpu:               0.3 elap:               0.0
 (Enter /home/sekinelabo/g16/l202.exe)
                          Input orientation:                          
 ---------------------------------------------------------------------
 Center     Atomic      Atomic             Coordinates (Angstroms)
 Number     Number       Type             X           Y           Z
 ---------------------------------------------------------------------
      1         11           0        2.414292    2.518545    3.153526
      2         11           0        2.318843    0.000000    2.711721
      3         11           0        4.846286    2.074169    2.339165
      4         11           0        2.615132    4.280466    1.224725
      5         11           0        0.000000    2.920968    2.357598
      6         11           0        0.743770    0.965712    0.732186
      7         11           0        3.268883    1.571284    0.000000
 ---------------------------------------------------------------------
                    Distance matrix (angstroms):
                    1          2          3          4          5
     1  Na   0.000000
     2  Na   2.558784   0.000000
     3  Na   2.602931   3.290736   0.000000
     4  Na   2.620110   4.541072   3.329831   0.000000
     5  Na   2.573762   3.746263   4.919746   3.157618   0.000000
     6  Na   3.326383   2.707769   4.543314   3.838253   2.649186
     7  Na   3.401817   3.274895   2.865797   3.044177   4.250354
                    6          7
     6  Na   0.000000
     7  Na   2.697964   0.000000
 Stoichiometry    Na7(2)
 Framework group  C1[X(Na7)]
 Deg. of freedom    15
 Full point group                 C1      NOp   1
 Largest Abelian subgroup         C1      NOp   1
 Largest concise Abelian subgroup C1      NOp   1
                         Standard orientation:                         
 ---------------------------------------------------------------------
 Center     Atomic      Atomic             Coordinates (Angstroms)
 Number     Number       Type             X           Y           Z
 ---------------------------------------------------------------------
      1         11           0       -0.098977    0.471239   -1.365109
      2         11           0       -0.003528   -2.047306   -0.923303
      3         11           0       -2.530971    0.026863   -0.550748
      4         11           0       -0.299817    2.233160    0.563692
      5         11           0        2.315315    0.873661   -0.569181
      6         11           0        1.571545   -1.081594    1.056231
      7         11           0       -0.953568   -0.476023    1.788417
 ---------------------------------------------------------------------
 Rotational constants (GHZ):           1.1252392           0.9467028           0.8200624
 Leave Link  202 at Mon Nov 13 16:54:01 2023, MaxMem=  1879048192 cpu:               0.0 elap:               0.0
 (Enter /home/sekinelabo/g16/l301.exe)
 Standard basis: 6-311+G(d) (5D, 7F)
 Ernie: Thresh=  0.10000D-02 Tol=  0.10000D-05 Strict=F.
 There are   217 symmetry adapted cartesian basis functions of A   symmetry.
 There are   210 symmetry adapted basis functions of A   symmetry.
   210 basis functions,   350 primitive gaussians,   217 cartesian basis functions
    39 alpha electrons       38 beta electrons
       nuclear repulsion energy       420.5019249194 Hartrees.
 IExCor=  402 DFT=T Ex+Corr=B3LYP ExCW=0 ScaHFX=  0.200000
 ScaDFX=  0.800000  0.720000  1.000000  0.810000 ScalE2=  1.000000  1.000000
 IRadAn=      5 IRanWt=     -1 IRanGd=            0 ICorTp=0 IEmpDi=  4
 NAtoms=    7 NActive=    7 NUniq=    7 SFac= 1.00D+00 NAtFMM=   60 NAOKFM=F Big=F
 Integral buffers will be    131072 words long.
 Raffenetti 2 integral format.
 Two-electron integral symmetry is turned on.
 Leave Link  301 at Mon Nov 13 16:54:01 2023, MaxMem=  1879048192 cpu:               0.5 elap:               0.0
 (Enter /home/sekinelabo/g16/l302.exe)
 NPDir=0 NMtPBC=     1 NCelOv=     1 NCel=       1 NClECP=     1 NCelD=      1
         NCelK=      1 NCelE2=     1 NClLst=     1 CellRange=     0.0.
 One-electron integrals computed using PRISM.
 One-electron integral symmetry used in STVInt
 NBasis=   210 RedAO= T EigKep=  1.08D-06  NBF=   210
 NBsUse=   209 1.00D-06 EigRej=  7.36D-07 NBFU=   209
 Precomputing XC quadrature grid using
 IXCGrd= 4 IRadAn=           5 IRanWt=          -1 IRanGd=           0 AccXCQ= 0.00D+00.
 Generated NRdTot=       0 NPtTot=           0 NUsed=           0 NTot=          32
 NSgBfM=   211   210   211   211   211 MxSgAt=     7 MxSgA2=     7.
 Leave Link  302 at Mon Nov 13 16:54:01 2023, MaxMem=  1879048192 cpu:               2.2 elap:               0.1
 (Enter /home/sekinelabo/g16/l303.exe)
 DipDrv:  MaxL=1.
 Leave Link  303 at Mon Nov 13 16:54:01 2023, MaxMem=  1879048192 cpu:               0.6 elap:               0.0
 (Enter /home/sekinelabo/g16/l401.exe)
 ExpMin= 7.60D-03 ExpMax= 3.62D+04 ExpMxC= 1.21D+03 IAcc=3 IRadAn=         5 AccDes= 0.00D+00
 Harris functional with IExCor=  402 and IRadAn=       5 diagonalized for initial guess.
 HarFok:  IExCor=  402 AccDes= 0.00D+00 IRadAn=         5 IDoV= 1 UseB2=F ITyADJ=14
 ICtDFT=  3500011 ScaDFX=  1.000000  1.000000  1.000000  1.000000
 FoFCou: FMM=F IPFlag=           0 FMFlag=      100000 FMFlg1=           0
         NFxFlg=           0 DoJE=T BraDBF=F KetDBF=T FulRan=T
         wScrn=  0.000000 ICntrl=       500 IOpCl=  0 I1Cent=   200000004 NGrid=           0
         NMat0=    1 NMatS0=      1 NMatT0=    0 NMatD0=    1 NMtDS0=    0 NMtDT0=    0
 Petite list used in FoFCou.
 Harris En= -1135.83347402645    
 JPrj=0 DoOrth=F DoCkMO=F.
 Initial guess <Sx>= 0.0000 <Sy>= 0.0000 <Sz>= 0.5000 <S**2>= 0.7500 S= 0.5000
 Leave Link  401 at Mon Nov 13 16:54:01 2023, MaxMem=  1879048192 cpu:               5.3 elap:               0.3
 (Enter /home/sekinelabo/g16/l502.exe)
 Keep R1 and R2 ints in memory in canonical form, NReq=507620388.
 FoFCou: FMM=F IPFlag=           0 FMFlag=           0 FMFlg1=           0
         NFxFlg=           0 DoJE=F BraDBF=F KetDBF=F FulRan=T
         wScrn=  0.000000 ICntrl=       600 IOpCl=  0 I1Cent=           0 NGrid=           0
         NMat0=    1 NMatS0=  22155 NMatT0=    0 NMatD0=    1 NMtDS0=    0 NMtDT0=    0
 Symmetry not used in FoFCou.
 Two-electron integral symmetry not used.
 UHF open shell SCF:
 Using DIIS extrapolation, IDIIS=  1040.
 NGot=  1879048192 LenX=  1388082348 LenY=  1388034818
 Requested convergence on RMS density matrix=1.00D-08 within 128 cycles.
 Requested convergence on MAX density matrix=1.00D-06.
 Requested convergence on             energy=1.00D-06.
 No special actions if energy rises.

 Cycle   1  Pass 1  IDiag  1:
 E= -1136.01242514619    
 DIIS: error= 1.61D-02 at cycle   1 NSaved=   1.
 NSaved= 1 IEnMin= 1 EnMin= -1136.01242514619     IErMin= 1 ErrMin= 1.61D-02
 ErrMax= 1.61D-02  0.00D+00 EMaxC= 1.00D-01 BMatC= 2.17D-01 BMatP= 2.17D-01
 IDIUse=3 WtCom= 8.39D-01 WtEn= 1.61D-01
 Coeff-Com:  0.100D+01
 Coeff-En:   0.100D+01
 Coeff:      0.100D+01
 Gap=     0.076 Goal=   None    Shift=    0.000
 Gap=     0.034 Goal=   None    Shift=    0.000
 GapD=    0.034 DampG=0.250 DampE=0.500 DampFc=0.2500 IDamp=-1.
 Damping current iteration by 2.50D-01
 RMSDP=9.33D-02 MaxDP=6.73D+00              OVMax= 2.56D-01

 Cycle   2  Pass 1  IDiag  1:
 E= -1136.02909496697     Delta-E=       -0.016669820782 Rises=F Damp=T
 DIIS: error= 7.84D-03 at cycle   2 NSaved=   2.
 NSaved= 2 IEnMin= 2 EnMin= -1136.02909496697     IErMin= 2 ErrMin= 7.84D-03
 ErrMax= 7.84D-03  0.00D+00 EMaxC= 1.00D-01 BMatC= 8.15D-02 BMatP= 2.17D-01
 IDIUse=3 WtCom= 9.22D-01 WtEn= 7.84D-02
 Coeff-Com: -0.127D+01 0.227D+01
 Coeff-En:   0.000D+00 0.100D+01
 Coeff:     -0.117D+01 0.217D+01
 Gap=     0.081 Goal=   None    Shift=    0.000
 Gap=     0.038 Goal=   None    Shift=    0.000
 RMSDP=3.74D-02 MaxDP=2.70D+00 DE=-1.67D-02 OVMax= 1.69D-01

 Cycle   3  Pass 1  IDiag  1:
 E= -1136.05686662209     Delta-E=       -0.027771655120 Rises=F Damp=F
 DIIS: error= 3.74D-03 at cycle   3 NSaved=   3.
 NSaved= 3 IEnMin= 3 EnMin= -1136.05686662209     IErMin= 3 ErrMin= 3.74D-03
 ErrMax= 3.74D-03  0.00D+00 EMaxC= 1.00D-01 BMatC= 4.46D-03 BMatP= 8.15D-02
 IDIUse=3 WtCom= 9.63D-01 WtEn= 3.74D-02
 Coeff-Com: -0.269D+00 0.492D+00 0.777D+00
 Coeff-En:   0.000D+00 0.000D+00 0.100D+01
 Coeff:     -0.259D+00 0.474D+00 0.786D+00
 Gap=     0.076 Goal=   None    Shift=    0.000
 Gap=     0.038 Goal=   None    Shift=    0.000
 RMSDP=2.08D-02 MaxDP=1.46D+00 DE=-2.78D-02 OVMax= 6.46D-02

 Cycle   4  Pass 1  IDiag  1:
 E= -1136.05685650331     Delta-E=        0.000010118775 Rises=F Damp=F
 DIIS: error= 2.90D-03 at cycle   4 NSaved=   4.
 NSaved= 4 IEnMin= 3 EnMin= -1136.05686662209     IErMin= 4 ErrMin= 2.90D-03
 ErrMax= 2.90D-03  0.00D+00 EMaxC= 1.00D-01 BMatC= 3.83D-03 BMatP= 4.46D-03
 IDIUse=3 WtCom= 9.71D-01 WtEn= 2.90D-02
 Coeff-Com:  0.203D-02 0.981D-03 0.480D+00 0.517D+00
 Coeff-En:   0.000D+00 0.000D+00 0.501D+00 0.499D+00
 Coeff:      0.197D-02 0.953D-03 0.481D+00 0.516D+00
 Gap=     0.077 Goal=   None    Shift=    0.000
 Gap=     0.039 Goal=   None    Shift=    0.000
 RMSDP=7.36D-03 MaxDP=4.84D-01 DE= 1.01D-05 OVMax= 4.35D-02

 Cycle   5  Pass 1  IDiag  1:
 E= -1136.05925879317     Delta-E=       -0.002402289854 Rises=F Damp=F
 DIIS: error= 9.16D-04 at cycle   5 NSaved=   5.
 NSaved= 5 IEnMin= 5 EnMin= -1136.05925879317     IErMin= 5 ErrMin= 9.16D-04
 ErrMax= 9.16D-04  0.00D+00 EMaxC= 1.00D-01 BMatC= 2.17D-04 BMatP= 3.83D-03
 IDIUse=3 WtCom= 9.91D-01 WtEn= 9.16D-03
 Coeff-Com:  0.255D-02-0.341D-02 0.290D+00 0.331D+00 0.380D+00
 Coeff-En:   0.000D+00 0.000D+00 0.000D+00 0.000D+00 0.100D+01
 Coeff:      0.253D-02-0.338D-02 0.288D+00 0.328D+00 0.385D+00
 Gap=     0.077 Goal=   None    Shift=    0.000
 Gap=     0.039 Goal=   None    Shift=    0.000
 RMSDP=9.51D-04 MaxDP=9.21D-02 DE=-2.40D-03 OVMax= 1.18D-02

 Cycle   6  Pass 1  IDiag  1:
 E= -1136.05945911007     Delta-E=       -0.000200316900 Rises=F Damp=F
 DIIS: error= 7.90D-05 at cycle   6 NSaved=   6.
 NSaved= 6 IEnMin= 6 EnMin= -1136.05945911007     IErMin= 6 ErrMin= 7.90D-05
 ErrMax= 7.90D-05  0.00D+00 EMaxC= 1.00D-01 BMatC= 2.12D-06 BMatP= 2.17D-04
 IDIUse=1 WtCom= 1.00D+00 WtEn= 0.00D+00
 Coeff-Com: -0.223D-02 0.255D-02-0.381D-01-0.453D-01 0.191D-01 0.106D+01
 Coeff:     -0.223D-02 0.255D-02-0.381D-01-0.453D-01 0.191D-01 0.106D+01
 Gap=     0.077 Goal=   None    Shift=    0.000
 Gap=     0.039 Goal=   None    Shift=    0.000
 RMSDP=4.38D-04 MaxDP=2.70D-02 DE=-2.00D-04 OVMax= 5.27D-03

 Cycle   7  Pass 1  IDiag  1:
 E= -1136.05946452881     Delta-E=       -0.000005418738 Rises=F Damp=F
 DIIS: error= 4.50D-05 at cycle   7 NSaved=   7.
 NSaved= 7 IEnMin= 7 EnMin= -1136.05946452881     IErMin= 7 ErrMin= 4.50D-05
 ErrMax= 4.50D-05  0.00D+00 EMaxC= 1.00D-01 BMatC= 8.63D-07 BMatP= 2.12D-06
 IDIUse=1 WtCom= 1.00D+00 WtEn= 0.00D+00
 Coeff-Com: -0.995D-03 0.110D-02-0.369D-01-0.428D-01-0.117D-01 0.493D+00
 Coeff-Com:  0.598D+00
 Coeff:     -0.995D-03 0.110D-02-0.369D-01-0.428D-01-0.117D-01 0.493D+00
 Coeff:      0.598D+00
 Gap=     0.077 Goal=   None    Shift=    0.000
 Gap=     0.039 Goal=   None    Shift=    0.000
 RMSDP=1.19D-04 MaxDP=7.03D-03 DE=-5.42D-06 OVMax= 2.51D-03

 Cycle   8  Pass 1  IDiag  1:
 E= -1136.05946594767     Delta-E=       -0.000001418864 Rises=F Damp=F
 DIIS: error= 2.89D-05 at cycle   8 NSaved=   8.
 NSaved= 8 IEnMin= 8 EnMin= -1136.05946594767     IErMin= 8 ErrMin= 2.89D-05
 ErrMax= 2.89D-05  0.00D+00 EMaxC= 1.00D-01 BMatC= 3.91D-07 BMatP= 8.63D-07
 IDIUse=1 WtCom= 1.00D+00 WtEn= 0.00D+00
 Coeff-Com:  0.763D-03-0.967D-03-0.933D-02-0.982D-02-0.174D-01-0.208D+00
 Coeff-Com:  0.420D+00 0.825D+00
 Coeff:      0.763D-03-0.967D-03-0.933D-02-0.982D-02-0.174D-01-0.208D+00
 Coeff:      0.420D+00 0.825D+00
 Gap=     0.077 Goal=   None    Shift=    0.000
 Gap=     0.039 Goal=   None    Shift=    0.000
 RMSDP=1.31D-04 MaxDP=8.42D-03 DE=-1.42D-06 OVMax= 3.55D-03

 Cycle   9  Pass 1  IDiag  1:
 E= -1136.05946728496     Delta-E=       -0.000001337289 Rises=F Damp=F
 DIIS: error= 2.06D-05 at cycle   9 NSaved=   9.
 NSaved= 9 IEnMin= 9 EnMin= -1136.05946728496     IErMin= 9 ErrMin= 2.06D-05
 ErrMax= 2.06D-05  0.00D+00 EMaxC= 1.00D-01 BMatC= 5.10D-08 BMatP= 3.91D-07
 IDIUse=1 WtCom= 1.00D+00 WtEn= 0.00D+00
 Coeff-Com:  0.360D-03-0.443D-03 0.591D-02 0.655D-02 0.151D-02-0.792D-01
 Coeff-Com: -0.110D+00 0.316D-01 0.114D+01
 Coeff:      0.360D-03-0.443D-03 0.591D-02 0.655D-02 0.151D-02-0.792D-01
 Coeff:     -0.110D+00 0.316D-01 0.114D+01
 Gap=     0.077 Goal=   None    Shift=    0.000
 Gap=     0.039 Goal=   None    Shift=    0.000
 RMSDP=7.35D-05 MaxDP=4.30D-03 DE=-1.34D-06 OVMax= 2.84D-03

 Cycle  10  Pass 1  IDiag  1:
 E= -1136.05946777495     Delta-E=       -0.000000489992 Rises=F Damp=F
 DIIS: error= 1.35D-05 at cycle  10 NSaved=  10.
 NSaved=10 IEnMin=10 EnMin= -1136.05946777495     IErMin=10 ErrMin= 1.35D-05
 ErrMax= 1.35D-05  0.00D+00 EMaxC= 1.00D-01 BMatC= 3.77D-08 BMatP= 5.10D-08
 IDIUse=1 WtCom= 1.00D+00 WtEn= 0.00D+00
 Coeff-Com: -0.826D-05 0.289D-04 0.637D-02 0.674D-02 0.549D-02 0.447D-02
 Coeff-Com: -0.183D+00-0.215D+00 0.698D+00 0.676D+00
 Coeff:     -0.826D-05 0.289D-04 0.637D-02 0.674D-02 0.549D-02 0.447D-02
 Coeff:     -0.183D+00-0.215D+00 0.698D+00 0.676D+00
 Gap=     0.077 Goal=   None    Shift=    0.000
 Gap=     0.039 Goal=   None    Shift=    0.000
 RMSDP=4.81D-05 MaxDP=3.46D-03 DE=-4.90D-07 OVMax= 1.68D-03

 Cycle  11  Pass 1  IDiag  1:
 E= -1136.05946798746     Delta-E=       -0.000000212512 Rises=F Damp=F
 DIIS: error= 9.49D-06 at cycle  11 NSaved=  11.
 NSaved=11 IEnMin=11 EnMin= -1136.05946798746     IErMin=11 ErrMin= 9.49D-06
 ErrMax= 9.49D-06  0.00D+00 EMaxC= 1.00D-01 BMatC= 1.48D-08 BMatP= 3.77D-08
 IDIUse=1 WtCom= 1.00D+00 WtEn= 0.00D+00
 Coeff-Com: -0.299D-03 0.389D-03 0.897D-03 0.649D-03 0.300D-02 0.537D-01
 Coeff-Com: -0.510D-01-0.177D+00-0.334D+00 0.430D+00 0.107D+01
 Coeff:     -0.299D-03 0.389D-03 0.897D-03 0.649D-03 0.300D-02 0.537D-01
 Coeff:     -0.510D-01-0.177D+00-0.334D+00 0.430D+00 0.107D+01
 Gap=     0.077 Goal=   None    Shift=    0.000
 Gap=     0.039 Goal=   None    Shift=    0.000
 RMSDP=4.86D-05 MaxDP=2.92D-03 DE=-2.13D-07 OVMax= 2.29D-03

 Cycle  12  Pass 1  IDiag  1:
 E= -1136.05946814714     Delta-E=       -0.000000159674 Rises=F Damp=F
 DIIS: error= 3.81D-06 at cycle  12 NSaved=  12.
 NSaved=12 IEnMin=12 EnMin= -1136.05946814714     IErMin=12 ErrMin= 3.81D-06
 ErrMax= 3.81D-06  0.00D+00 EMaxC= 1.00D-01 BMatC= 3.18D-09 BMatP= 1.48D-08
 IDIUse=1 WtCom= 1.00D+00 WtEn= 0.00D+00
 Coeff-Com: -0.122D-03 0.150D-03-0.123D-02-0.143D-02 0.467D-04 0.291D-01
 Coeff-Com:  0.104D-01-0.265D-01-0.278D+00-0.294D-01 0.366D+00 0.930D+00
 Coeff:     -0.122D-03 0.150D-03-0.123D-02-0.143D-02 0.467D-04 0.291D-01
 Coeff:      0.104D-01-0.265D-01-0.278D+00-0.294D-01 0.366D+00 0.930D+00
 Gap=     0.077 Goal=   None    Shift=    0.000
 Gap=     0.039 Goal=   None    Shift=    0.000
 RMSDP=2.11D-05 MaxDP=1.38D-03 DE=-1.60D-07 OVMax= 1.03D-03

 Cycle  13  Pass 1  IDiag  1:
 E= -1136.05946817720     Delta-E=       -0.000000030065 Rises=F Damp=F
 DIIS: error= 1.33D-06 at cycle  13 NSaved=  13.
 NSaved=13 IEnMin=13 EnMin= -1136.05946817720     IErMin=13 ErrMin= 1.33D-06
 ErrMax= 1.33D-06  0.00D+00 EMaxC= 1.00D-01 BMatC= 5.67D-10 BMatP= 3.18D-09
 IDIUse=1 WtCom= 1.00D+00 WtEn= 0.00D+00
 Coeff-Com:  0.109D-03-0.143D-03-0.343D-03-0.326D-03-0.880D-03-0.144D-01
 Coeff-Com:  0.160D-01 0.536D-01 0.929D-01-0.148D+00-0.304D+00 0.576D-01
 Coeff-Com:  0.125D+01
 Coeff:      0.109D-03-0.143D-03-0.343D-03-0.326D-03-0.880D-03-0.144D-01
 Coeff:      0.160D-01 0.536D-01 0.929D-01-0.148D+00-0.304D+00 0.576D-01
 Coeff:      0.125D+01
 Gap=     0.077 Goal=   None    Shift=    0.000
 Gap=     0.039 Goal=   None    Shift=    0.000
 RMSDP=1.13D-05 MaxDP=8.38D-04 DE=-3.01D-08 OVMax= 4.84D-04

 Cycle  14  Pass 1  IDiag  1:
 E= -1136.05946818286     Delta-E=       -0.000000005659 Rises=F Damp=F
 DIIS: error= 2.76D-07 at cycle  14 NSaved=  14.
 NSaved=14 IEnMin=14 EnMin= -1136.05946818286     IErMin=14 ErrMin= 2.76D-07
 ErrMax= 2.76D-07  0.00D+00 EMaxC= 1.00D-01 BMatC= 5.38D-11 BMatP= 5.67D-10
 IDIUse=1 WtCom= 1.00D+00 WtEn= 0.00D+00
 Coeff-Com:  0.262D-04-0.331D-04 0.653D-04 0.999D-04-0.837D-04-0.460D-02
 Coeff-Com: -0.159D-03 0.791D-02 0.474D-01-0.122D-01-0.821D-01-0.112D+00
 Coeff-Com:  0.124D+00 0.103D+01
 Coeff:      0.262D-04-0.331D-04 0.653D-04 0.999D-04-0.837D-04-0.460D-02
 Coeff:     -0.159D-03 0.791D-02 0.474D-01-0.122D-01-0.821D-01-0.112D+00
 Coeff:      0.124D+00 0.103D+01
 Gap=     0.077 Goal=   None    Shift=    0.000
 Gap=     0.039 Goal=   None    Shift=    0.000
 RMSDP=3.09D-06 MaxDP=1.75D-04 DE=-5.66D-09 OVMax= 9.80D-05

 Cycle  15  Pass 1  IDiag  1:
 E= -1136.05946818324     Delta-E=       -0.000000000383 Rises=F Damp=F
 DIIS: error= 1.73D-07 at cycle  15 NSaved=  15.
 NSaved=15 IEnMin=15 EnMin= -1136.05946818324     IErMin=15 ErrMin= 1.73D-07
 ErrMax= 1.73D-07  0.00D+00 EMaxC= 1.00D-01 BMatC= 6.06D-12 BMatP= 5.38D-11
 IDIUse=1 WtCom= 1.00D+00 WtEn= 0.00D+00
 Coeff-Com: -0.142D-04 0.190D-04 0.162D-04 0.953D-05 0.775D-04 0.174D-02
 Coeff-Com: -0.164D-02-0.514D-02-0.106D-01 0.116D-01 0.324D-01 0.134D-01
 Coeff-Com: -0.128D+00-0.135D+00 0.122D+01
 Coeff:     -0.142D-04 0.190D-04 0.162D-04 0.953D-05 0.775D-04 0.174D-02
 Coeff:     -0.164D-02-0.514D-02-0.106D-01 0.116D-01 0.324D-01 0.134D-01
 Coeff:     -0.128D+00-0.135D+00 0.122D+01
 Gap=     0.077 Goal=   None    Shift=    0.000
 Gap=     0.039 Goal=   None    Shift=    0.000
 RMSDP=1.01D-06 MaxDP=6.87D-05 DE=-3.83D-10 OVMax= 1.99D-05

 Cycle  16  Pass 1  IDiag  1:
 E= -1136.05946818327     Delta-E=       -0.000000000028 Rises=F Damp=F
 DIIS: error= 7.84D-08 at cycle  16 NSaved=  16.
 NSaved=16 IEnMin=16 EnMin= -1136.05946818327     IErMin=16 ErrMin= 7.84D-08
 ErrMax= 7.84D-08  0.00D+00 EMaxC= 1.00D-01 BMatC= 1.79D-12 BMatP= 6.06D-12
 IDIUse=1 WtCom= 1.00D+00 WtEn= 0.00D+00
 Coeff-Com:  0.248D-06-0.661D-06-0.180D-06-0.757D-05 0.392D-05 0.381D-03
 Coeff-Com: -0.190D-04-0.393D-03-0.187D-02-0.375D-02 0.131D-02 0.250D-01
 Coeff-Com:  0.206D-01-0.235D+00-0.106D+00 0.130D+01
 Coeff:      0.248D-06-0.661D-06-0.180D-06-0.757D-05 0.392D-05 0.381D-03
 Coeff:     -0.190D-04-0.393D-03-0.187D-02-0.375D-02 0.131D-02 0.250D-01
 Coeff:      0.206D-01-0.235D+00-0.106D+00 0.130D+01
 Gap=     0.077 Goal=   None    Shift=    0.000
 Gap=     0.039 Goal=   None    Shift=    0.000
 RMSDP=5.13D-07 MaxDP=3.18D-05 DE=-2.82D-11 OVMax= 1.24D-05

 Cycle  17  Pass 1  IDiag  1:
 E= -1136.05946818330     Delta-E=       -0.000000000033 Rises=F Damp=F
 DIIS: error= 3.19D-08 at cycle  17 NSaved=  17.
 NSaved=17 IEnMin=17 EnMin= -1136.05946818330     IErMin=17 ErrMin= 3.19D-08
 ErrMax= 3.19D-08  0.00D+00 EMaxC= 1.00D-01 BMatC= 3.37D-13 BMatP= 1.79D-12
 IDIUse=1 WtCom= 1.00D+00 WtEn= 0.00D+00
 Coeff-Com:  0.207D-05-0.286D-05-0.257D-05-0.325D-05-0.125D-04-0.540D-04
 Coeff-Com: -0.129D-05 0.524D-03 0.179D-02-0.249D-02-0.607D-02 0.604D-02
 Coeff-Com:  0.264D-01-0.555D-01-0.165D+00 0.246D+00 0.949D+00
 Coeff:      0.207D-05-0.286D-05-0.257D-05-0.325D-05-0.125D-04-0.540D-04
 Coeff:     -0.129D-05 0.524D-03 0.179D-02-0.249D-02-0.607D-02 0.604D-02
 Coeff:      0.264D-01-0.555D-01-0.165D+00 0.246D+00 0.949D+00
 Gap=     0.077 Goal=   None    Shift=    0.000
 Gap=     0.039 Goal=   None    Shift=    0.000
 RMSDP=1.93D-07 MaxDP=1.18D-05 DE=-3.27D-11 OVMax= 4.33D-06

 Cycle  18  Pass 1  IDiag  1:
 E= -1136.05946818329     Delta-E=        0.000000000010 Rises=F Damp=F
 DIIS: error= 1.59D-08 at cycle  18 NSaved=  18.
 NSaved=18 IEnMin=17 EnMin= -1136.05946818330     IErMin=18 ErrMin= 1.59D-08
 ErrMax= 1.59D-08  0.00D+00 EMaxC= 1.00D-01 BMatC= 6.66D-14 BMatP= 3.37D-13
 IDIUse=1 WtCom= 1.00D+00 WtEn= 0.00D+00
 Coeff-Com:  0.337D-06-0.394D-06-0.216D-05-0.393D-06-0.236D-05-0.110D-03
 Coeff-Com:  0.274D-04 0.262D-03 0.875D-03-0.598D-04-0.182D-02-0.332D-02
 Coeff-Com:  0.139D-02 0.334D-01 0.302D-01-0.308D+00 0.164D+00 0.108D+01
 Coeff:      0.337D-06-0.394D-06-0.216D-05-0.393D-06-0.236D-05-0.110D-03
 Coeff:      0.274D-04 0.262D-03 0.875D-03-0.598D-04-0.182D-02-0.332D-02
 Coeff:      0.139D-02 0.334D-01 0.302D-01-0.308D+00 0.164D+00 0.108D+01
 Gap=     0.077 Goal=   None    Shift=    0.000
 Gap=     0.039 Goal=   None    Shift=    0.000
 RMSDP=1.34D-07 MaxDP=9.41D-06 DE= 1.05D-11 OVMax= 2.43D-06

 Cycle  19  Pass 1  IDiag  1:
 E= -1136.05946818329     Delta-E=        0.000000000002 Rises=F Damp=F
 DIIS: error= 5.72D-09 at cycle  19 NSaved=  19.
 NSaved=19 IEnMin=17 EnMin= -1136.05946818330     IErMin=19 ErrMin= 5.72D-09
 ErrMax= 5.72D-09  0.00D+00 EMaxC= 1.00D-01 BMatC= 7.97D-15 BMatP= 6.66D-14
 IDIUse=1 WtCom= 1.00D+00 WtEn= 0.00D+00
 Coeff-Com: -0.333D-06 0.445D-06 0.127D-05 0.111D-05 0.158D-05 0.319D-04
 Coeff-Com: -0.177D-04-0.122D-03-0.337D-03 0.221D-03 0.102D-02 0.435D-03
 Coeff-Com: -0.338D-02-0.558D-02 0.260D-01 0.376D-01-0.193D+00-0.282D+00
 Coeff-Com:  0.142D+01
 Coeff:     -0.333D-06 0.445D-06 0.127D-05 0.111D-05 0.158D-05 0.319D-04
 Coeff:     -0.177D-04-0.122D-03-0.337D-03 0.221D-03 0.102D-02 0.435D-03
 Coeff:     -0.338D-02-0.558D-02 0.260D-01 0.376D-01-0.193D+00-0.282D+00
 Coeff:      0.142D+01
 Gap=     0.077 Goal=   None    Shift=    0.000
 Gap=     0.039 Goal=   None    Shift=    0.000
 RMSDP=6.19D-08 MaxDP=4.27D-06 DE= 2.27D-12 OVMax= 1.05D-06

 Cycle  20  Pass 1  IDiag  1:
 E= -1136.05946818328     Delta-E=        0.000000000010 Rises=F Damp=F
 DIIS: error= 1.56D-09 at cycle  20 NSaved=  20.
 NSaved=20 IEnMin=17 EnMin= -1136.05946818330     IErMin=20 ErrMin= 1.56D-09
 ErrMax= 1.56D-09  0.00D+00 EMaxC= 1.00D-01 BMatC= 8.78D-16 BMatP= 7.97D-15
 IDIUse=1 WtCom= 1.00D+00 WtEn= 0.00D+00
 Large coefficients: NSaved= 20 BigCof=    0.00 CofMax=   10.00 Det=-1.20D-15
 Inversion failed.  Reducing to 19 matrices.
 Large coefficients: NSaved= 19 BigCof=    0.00 CofMax=   10.00 Det=-1.35D-15
 Inversion failed.  Reducing to 18 matrices.
 Large coefficients: NSaved= 18 BigCof=    0.00 CofMax=   10.00 Det=-1.36D-15
 Inversion failed.  Reducing to 17 matrices.
 Large coefficients: NSaved= 17 BigCof=    0.00 CofMax=   10.00 Det=-1.41D-15
 Inversion failed.  Reducing to 16 matrices.
 Large coefficients: NSaved= 16 BigCof=    0.00 CofMax=   10.00 Det=-1.41D-15
 Inversion failed.  Reducing to 15 matrices.
 Coeff-Com:  0.999D-06 0.301D-05 0.577D-05-0.196D-04-0.290D-04 0.572D-05
 Coeff-Com:  0.179D-03-0.102D-03-0.918D-03 0.198D-02 0.604D-02-0.174D-01
 Coeff-Com: -0.350D-01-0.297D-01 0.108D+01
 Coeff:      0.999D-06 0.301D-05 0.577D-05-0.196D-04-0.290D-04 0.572D-05
 Coeff:      0.179D-03-0.102D-03-0.918D-03 0.198D-02 0.604D-02-0.174D-01
 Coeff:     -0.350D-01-0.297D-01 0.108D+01
 Gap=     0.077 Goal=   None    Shift=    0.000
 Gap=     0.039 Goal=   None    Shift=    0.000
 RMSDP=2.04D-08 MaxDP=1.48D-06 DE= 9.55D-12 OVMax= 2.34D-07

 Cycle  21  Pass 1  IDiag  1:
 E= -1136.05946818330     Delta-E=       -0.000000000017 Rises=F Damp=F
 DIIS: error= 7.72D-10 at cycle  21 NSaved=  16.
 NSaved=16 IEnMin=12 EnMin= -1136.05946818330     IErMin=16 ErrMin= 7.72D-10
 ErrMax= 7.72D-10  0.00D+00 EMaxC= 1.00D-01 BMatC= 3.44D-16 BMatP= 8.78D-16
 IDIUse=1 WtCom= 1.00D+00 WtEn= 0.00D+00
 Large coefficients: NSaved= 16 BigCof=    0.00 CofMax=   10.00 Det=-7.45D-16
 Inversion failed.  Reducing to 15 matrices.
 Coeff-Com: -0.217D-05 0.500D-07 0.117D-04-0.371D-04-0.231D-04 0.184D-03
 Coeff-Com:  0.296D-03-0.178D-02-0.228D-02 0.925D-02 0.133D-01-0.107D-01
 Coeff-Com: -0.195D+00 0.339D+00 0.848D+00
 Coeff:     -0.217D-05 0.500D-07 0.117D-04-0.371D-04-0.231D-04 0.184D-03
 Coeff:      0.296D-03-0.178D-02-0.228D-02 0.925D-02 0.133D-01-0.107D-01
 Coeff:     -0.195D+00 0.339D+00 0.848D+00
 Gap=     0.077 Goal=   None    Shift=    0.000
 Gap=     0.039 Goal=   None    Shift=    0.000
 RMSDP=1.31D-08 MaxDP=1.09D-06 DE=-1.66D-11 OVMax= 1.10D-07

 Cycle  22  Pass 1  IDiag  1:
 E= -1136.05946818328     Delta-E=        0.000000000020 Rises=F Damp=F
 DIIS: error= 3.31D-10 at cycle  22 NSaved=  16.
 NSaved=16 IEnMin=11 EnMin= -1136.05946818330     IErMin=16 ErrMin= 3.31D-10
 ErrMax= 3.31D-10  0.00D+00 EMaxC= 1.00D-01 BMatC= 5.14D-17 BMatP= 3.44D-16
 IDIUse=1 WtCom= 1.00D+00 WtEn= 0.00D+00
 Large coefficients: NSaved= 16 BigCof=    0.00 CofMax=   10.00 Det=-1.34D-16
 Inversion failed.  Reducing to 15 matrices.
 Coeff-Com:  0.336D-05 0.176D-04-0.114D-04-0.492D-04-0.267D-04 0.177D-03
 Coeff-Com:  0.236D-03-0.515D-03-0.430D-02 0.966D-02 0.209D-01-0.490D-01
 Coeff-Com: -0.145D+00 0.490D-01 0.112D+01
 Coeff:      0.336D-05 0.176D-04-0.114D-04-0.492D-04-0.267D-04 0.177D-03
 Coeff:      0.236D-03-0.515D-03-0.430D-02 0.966D-02 0.209D-01-0.490D-01
 Coeff:     -0.145D+00 0.490D-01 0.112D+01
 Gap=     0.077 Goal=   None    Shift=    0.000
 Gap=     0.039 Goal=   None    Shift=    0.000
 RMSDP=2.04D-08 MaxDP=2.28D-06 DE= 2.02D-11 OVMax= 5.06D-08

 Cycle  23  Pass 1  IDiag  1:
 E= -1136.05946818329     Delta-E=       -0.000000000008 Rises=F Damp=F
 DIIS: error= 2.79D-10 at cycle  23 NSaved=  16.
 NSaved=16 IEnMin=10 EnMin= -1136.05946818330     IErMin=16 ErrMin= 2.79D-10
 ErrMax= 2.79D-10  0.00D+00 EMaxC= 1.00D-01 BMatC= 1.39D-17 BMatP= 5.14D-17
 IDIUse=1 WtCom= 1.00D+00 WtEn= 0.00D+00
 Large coefficients: NSaved= 16 BigCof=    0.00 CofMax=   10.00 Det=-2.42D-17
 Inversion failed.  Reducing to 15 matrices.
 Coeff-Com:  0.169D-05 0.682D-05-0.350D-05-0.442D-04-0.551D-04 0.460D-03
 Coeff-Com:  0.742D-03-0.408D-02-0.265D-03 0.918D-02 0.300D-01-0.118D+00
 Coeff-Com: -0.141D+00 0.357D+00 0.866D+00
 Coeff:      0.169D-05 0.682D-05-0.350D-05-0.442D-04-0.551D-04 0.460D-03
 Coeff:      0.742D-03-0.408D-02-0.265D-03 0.918D-02 0.300D-01-0.118D+00
 Coeff:     -0.141D+00 0.357D+00 0.866D+00
 Gap=     0.077 Goal=   None    Shift=    0.000
 Gap=     0.039 Goal=   None    Shift=    0.000
 RMSDP=8.32D-09 MaxDP=7.25D-07 DE=-7.73D-12 OVMax= 1.61D-08

 SCF Done:  E(UB3LYP) =  -1136.05946818     A.U. after   23 cycles
            NFock= 23  Conv=0.83D-08     -V/T= 2.0022
 <Sx>= 0.0000 <Sy>= 0.0000 <Sz>= 0.5000 <S**2>= 0.7613 S= 0.5056
 <L.S>= 0.000000000000E+00
 KE= 1.133581519037D+03 PE=-3.570266883959D+03 EE= 8.801239718194D+02
 Annihilation of the first spin contaminant:
 S**2 before annihilation     0.7613,   after     0.7501
 Leave Link  502 at Mon Nov 13 16:54:20 2023, MaxMem=  1879048192 cpu:             224.0 elap:              19.1
 (Enter /home/sekinelabo/g16/l601.exe)
 Copying SCF densities to generalized density rwf, IOpCl= 1 IROHF=0.

 **********************************************************************

            Population analysis using the SCF Density.

 **********************************************************************

 Orbital symmetries:
 Alpha Orbitals:
       Occupied  (A) (A) (A) (A) (A) (A) (A) (A) (A) (A) (A) (A)
                 (A) (A) (A) (A) (A) (A) (A) (A) (A) (A) (A) (A)
                 (A) (A) (A) (A) (A) (A) (A) (A) (A) (A) (A) (A)
                 (A) (A) (A)
       Virtual   (A) (A) (A) (A) (A) (A) (A) (A) (A) (A) (A) (A)
                 (A) (A) (A) (A) (A) (A) (A) (A) (A) (A) (A) (A)
                 (A) (A) (A) (A) (A) (A) (A) (A) (A) (A) (A) (A)
                 (A) (A) (A) (A) (A) (A) (A) (A) (A) (A) (A) (A)
                 (A) (A) (A) (A) (A) (A) (A) (A) (A) (A) (A) (A)
                 (A) (A) (A) (A) (A) (A) (A) (A) (A) (A) (A) (A)
                 (A) (A) (A) (A) (A) (A) (A) (A) (A) (A) (A) (A)
                 (A) (A) (A) (A) (A) (A) (A) (A) (A) (A) (A) (A)
                 (A) (A) (A) (A) (A) (A) (A) (A) (A) (A) (A) (A)
                 (A) (A) (A) (A) (A) (A) (A) (A) (A) (A) (A) (A)
                 (A) (A) (A) (A) (A) (A) (A) (A) (A) (A) (A) (A)
                 (A) (A) (A) (A) (A) (A) (A) (A) (A) (A) (A) (A)
                 (A) (A) (A) (A) (A) (A) (A) (A) (A) (A) (A) (A)
                 (A) (A) (A) (A) (A) (A) (A) (A) (A) (A) (A) (A)
                 (A) (A)
 Beta  Orbitals:
       Occupied  (A) (A) (A) (A) (A) (A) (A) (A) (A) (A) (A) (A)
                 (A) (A) (A) (A) (A) (A) (A) (A) (A) (A) (A) (A)
                 (A) (A) (A) (A) (A) (A) (A) (A) (A) (A) (A) (A)
                 (A) (A)
       Virtual   (A) (A) (A) (A) (A) (A) (A) (A) (A) (A) (A) (A)
                 (A) (A) (A) (A) (A) (A) (A) (A) (A) (A) (A) (A)
                 (A) (A) (A) (A) (A) (A) (A) (A) (A) (A) (A) (A)
                 (A) (A) (A) (A) (A) (A) (A) (A) (A) (A) (A) (A)
                 (A) (A) (A) (A) (A) (A) (A) (A) (A) (A) (A) (A)
                 (A) (A) (A) (A) (A) (A) (A) (A) (A) (A) (A) (A)
                 (A) (A) (A) (A) (A) (A) (A) (A) (A) (A) (A) (A)
                 (A) (A) (A) (A) (A) (A) (A) (A) (A) (A) (A) (A)
                 (A) (A) (A) (A) (A) (A) (A) (A) (A) (A) (A) (A)
                 (A) (A) (A) (A) (A) (A) (A) (A) (A) (A) (A) (A)
                 (A) (A) (A) (A) (A) (A) (A) (A) (A) (A) (A) (A)
                 (A) (A) (A) (A) (A) (A) (A) (A) (A) (A) (A) (A)
                 (A) (A) (A) (A) (A) (A) (A) (A) (A) (A) (A) (A)
                 (A) (A) (A) (A) (A) (A) (A) (A) (A) (A) (A) (A)
                 (A) (A) (A)
 The electronic state is 2-A.
 Alpha  occ. eigenvalues --  -38.45022 -38.44495 -38.44327 -38.44203 -38.44090
 Alpha  occ. eigenvalues --  -38.43932 -38.43269  -2.21562  -2.20671  -2.20535
 Alpha  occ. eigenvalues --   -2.20308  -2.20173  -2.20078  -2.19356  -1.15561
 Alpha  occ. eigenvalues --   -1.15412  -1.15233  -1.14688  -1.14470  -1.14383
 Alpha  occ. eigenvalues --   -1.14318  -1.14211  -1.14032  -1.14000  -1.13827
 Alpha  occ. eigenvalues --   -1.13802  -1.13772  -1.13759  -1.13709  -1.13698
 Alpha  occ. eigenvalues --   -1.13611  -1.13552  -1.13094  -1.12995  -1.12890
 Alpha  occ. eigenvalues --   -0.21729  -0.13646  -0.12988  -0.12670
 Alpha virt. eigenvalues --   -0.04985  -0.04028  -0.03958  -0.03793  -0.03379
 Alpha virt. eigenvalues --   -0.03315  -0.00901  -0.00434  -0.00202   0.00348
 Alpha virt. eigenvalues --    0.00878   0.00980   0.01107   0.01165   0.01198
 Alpha virt. eigenvalues --    0.01296   0.01333   0.01393   0.01434   0.01545
 Alpha virt. eigenvalues --    0.01578   0.01733   0.01815   0.01892   0.01950
 Alpha virt. eigenvalues --    0.02809   0.02870   0.02941   0.02995   0.03021
 Alpha virt. eigenvalues --    0.03061   0.03091   0.03136   0.03242   0.03315
 Alpha virt. eigenvalues --    0.03341   0.03521   0.03714   0.03887   0.04115
 Alpha virt. eigenvalues --    0.04640   0.05030   0.05061   0.05181   0.05340
 Alpha virt. eigenvalues --    0.05540   0.05852   0.05897   0.06471   0.06608
 Alpha virt. eigenvalues --    0.06764   0.07100   0.07296   0.07710   0.08154
 Alpha virt. eigenvalues --    0.08460   0.08731   0.09195   0.09433   0.09702
 Alpha virt. eigenvalues --    0.09985   0.11657   0.12282   0.12838   0.12917
 Alpha virt. eigenvalues --    0.13523   0.13832   0.13926   0.14343   0.14592
 Alpha virt. eigenvalues --    0.15043   0.15091   0.15302   0.15850   0.16280
 Alpha virt. eigenvalues --    0.16530   0.17451   0.18440   0.20868   0.23054
 Alpha virt. eigenvalues --    0.24995   0.27415   0.27807   0.28681   0.30058
 Alpha virt. eigenvalues --    0.31111   0.31916   0.33316   0.33937   0.35442
 Alpha virt. eigenvalues --    0.36704   0.38500   0.38958   0.40353   0.41515
 Alpha virt. eigenvalues --    0.42206   0.43430   0.43890   0.44639   0.45263
 Alpha virt. eigenvalues --    0.45360   0.45466   0.45710   0.46368   0.47196
 Alpha virt. eigenvalues --    0.47626   0.48217   0.48700   0.49525   0.50046
 Alpha virt. eigenvalues --    0.50674   0.51375   0.52314   0.53122   0.53519
 Alpha virt. eigenvalues --    0.54400   0.55349   0.56149   0.57562   0.57999
 Alpha virt. eigenvalues --    0.58298   0.60831   0.61887   0.64836   0.65332
 Alpha virt. eigenvalues --    0.69171   0.73219   0.74383   0.81465   0.83013
 Alpha virt. eigenvalues --    0.84460   0.87819   0.90327   0.92899   0.94219
 Alpha virt. eigenvalues --    2.12269   2.22481   2.23350   2.25822   2.26698
 Alpha virt. eigenvalues --    2.31130   2.40487   4.41934   4.42479   4.43523
 Alpha virt. eigenvalues --    4.44217   4.45024   4.45825   4.48810   4.50250
 Alpha virt. eigenvalues --    4.50811   4.53637   4.56525   4.59525   4.63711
 Alpha virt. eigenvalues --    4.72567   4.72824   4.76416   4.78699   4.82654
 Alpha virt. eigenvalues --    4.87530   4.95588   4.97193  96.34779  96.48429
 Alpha virt. eigenvalues --   96.50438  96.53120  96.55104  96.60458  96.73944
  Beta  occ. eigenvalues --  -38.44943 -38.44412 -38.44290 -38.44191 -38.44072
  Beta  occ. eigenvalues --  -38.43897 -38.43253  -2.21425  -2.20536  -2.20462
  Beta  occ. eigenvalues --   -2.20288  -2.20145  -2.20019  -2.19332  -1.15457
  Beta  occ. eigenvalues --   -1.15306  -1.15142  -1.14594  -1.14433  -1.14306
  Beta  occ. eigenvalues --   -1.14249  -1.14108  -1.13996  -1.13925  -1.13804
  Beta  occ. eigenvalues --   -1.13763  -1.13729  -1.13713  -1.13678  -1.13667
  Beta  occ. eigenvalues --   -1.13551  -1.13514  -1.13078  -1.12939  -1.12880
  Beta  occ. eigenvalues --   -0.20906  -0.13368  -0.12446
  Beta virt. eigenvalues --   -0.08512  -0.04949  -0.03921  -0.03737  -0.03063
  Beta virt. eigenvalues --   -0.02598  -0.02108  -0.00868  -0.00393  -0.00015
  Beta virt. eigenvalues --    0.00378   0.00915   0.00992   0.01133   0.01230
  Beta virt. eigenvalues --    0.01279   0.01349   0.01386   0.01486   0.01533
  Beta virt. eigenvalues --    0.01611   0.01644   0.01825   0.01874   0.01934
  Beta virt. eigenvalues --    0.02099   0.02837   0.02890   0.02946   0.03007
  Beta virt. eigenvalues --    0.03029   0.03067   0.03158   0.03201   0.03292
  Beta virt. eigenvalues --    0.03381   0.03477   0.03722   0.03973   0.04039
  Beta virt. eigenvalues --    0.04201   0.04739   0.05098   0.05174   0.05248
  Beta virt. eigenvalues --    0.05539   0.05660   0.06041   0.06149   0.06460
  Beta virt. eigenvalues --    0.06667   0.06780   0.07162   0.07387   0.07862
  Beta virt. eigenvalues --    0.08223   0.08543   0.08858   0.09408   0.09731
  Beta virt. eigenvalues --    0.10048   0.10323   0.11901   0.12454   0.12945
  Beta virt. eigenvalues --    0.13228   0.13694   0.14003   0.14193   0.14582
  Beta virt. eigenvalues --    0.14875   0.15176   0.15336   0.15546   0.15967
  Beta virt. eigenvalues --    0.16595   0.16770   0.17768   0.18701   0.21143
  Beta virt. eigenvalues --    0.23436   0.25256   0.27835   0.28196   0.29263
  Beta virt. eigenvalues --    0.30270   0.31445   0.32372   0.33709   0.34436
  Beta virt. eigenvalues --    0.35783   0.37072   0.38714   0.39279   0.40690
  Beta virt. eigenvalues --    0.41809   0.42429   0.43649   0.44077   0.44821
  Beta virt. eigenvalues --    0.45410   0.45503   0.45568   0.45918   0.46557
  Beta virt. eigenvalues --    0.47441   0.47880   0.48371   0.48823   0.49687
  Beta virt. eigenvalues --    0.50167   0.50863   0.51570   0.52433   0.53472
  Beta virt. eigenvalues --    0.53891   0.54717   0.55600   0.56513   0.57726
  Beta virt. eigenvalues --    0.58363   0.58477   0.61099   0.62376   0.65019
  Beta virt. eigenvalues --    0.65485   0.69280   0.73495   0.74635   0.81730
  Beta virt. eigenvalues --    0.83178   0.84694   0.88006   0.90591   0.93020
  Beta virt. eigenvalues --    0.94383   2.12335   2.22585   2.23510   2.25899
  Beta virt. eigenvalues --    2.26794   2.31305   2.40820   4.42022   4.42578
  Beta virt. eigenvalues --    4.43575   4.44276   4.45086   4.45883   4.48899
  Beta virt. eigenvalues --    4.50304   4.50907   4.53704   4.56589   4.59572
  Beta virt. eigenvalues --    4.63806   4.72605   4.72903   4.76493   4.78757
  Beta virt. eigenvalues --    4.82696   4.87605   4.95687   4.97257  96.34810
  Beta virt. eigenvalues --   96.48466  96.50487  96.53149  96.55143  96.60525
  Beta virt. eigenvalues --   96.74049
          Condensed to atoms (all electrons):
               1          2          3          4          5          6
     1  Na  16.902804  -2.736108  -1.224715  -1.516089   0.519012  -1.081208
     2  Na  -2.736108  14.816121   0.068963   1.216573  -0.924054   0.724606
     3  Na  -1.224715   0.068963  14.926271  -0.820288  -1.762093  -2.256946
     4  Na  -1.516089   1.216573  -0.820288  13.898433  -0.080723   0.163816
     5  Na   0.519012  -0.924054  -1.762093  -0.080723  12.284593   1.381980
     6  Na  -1.081208   0.724606  -2.256946   0.163816   1.381980  13.242668
     7  Na   1.088543  -1.978838   1.674897  -1.317203  -0.886350  -1.457061
               7
     1  Na   1.088543
     2  Na  -1.978838
     3  Na   1.674897
     4  Na  -1.317203
     5  Na  -0.886350
     6  Na  -1.457061
     7  Na  13.335684
          Atomic-Atomic Spin Densities.
               1          2          3          4          5          6
     1  Na   1.150931  -0.699148  -0.179233  -0.683963   0.084983  -0.361240
     2  Na  -0.699148   0.219191   0.326326   0.411707  -0.169257  -0.015029
     3  Na  -0.179233   0.326326   0.354074   0.019865  -0.252889  -0.234215
     4  Na  -0.683963   0.411707   0.019865   0.699873   0.014170   0.228549
     5  Na   0.084983  -0.169257  -0.252889   0.014170   0.245279   0.160899
     6  Na  -0.361240  -0.015029  -0.234215   0.228549   0.160899   0.485232
     7  Na   0.610563   0.058905  -0.030310  -0.368916  -0.032270  -0.061328
               7
     1  Na   0.610563
     2  Na   0.058905
     3  Na  -0.030310
     4  Na  -0.368916
     5  Na  -0.032270
     6  Na  -0.061328
     7  Na   0.189084
 Mulliken charges and spin densities:
               1          2
     1  Na  -0.952239  -0.077108
     2  Na  -0.187263   0.132695
     3  Na   0.393911   0.003618
     4  Na  -0.544518   0.321285
     5  Na   0.467635   0.050914
     6  Na   0.282146   0.202869
     7  Na   0.540329   0.365727
 Sum of Mulliken charges =  -0.00000   1.00000
 Mulliken charges and spin densities with hydrogens summed into heavy atoms:
               1          2
     1  Na  -0.952239  -0.077108
     2  Na  -0.187263   0.132695
     3  Na   0.393911   0.003618
     4  Na  -0.544518   0.321285
     5  Na   0.467635   0.050914
     6  Na   0.282146   0.202869
     7  Na   0.540329   0.365727
 Electronic spatial extent (au):  <R**2>=           1513.5536
 Charge=             -0.0000 electrons
 Dipole moment (field-independent basis, Debye):
    X=             -0.2664    Y=             -0.0591    Z=              0.4695  Tot=              0.5431
 Quadrupole moment (field-independent basis, Debye-Ang):
   XX=            -62.3290   YY=            -70.4569   ZZ=            -65.3149
   XY=              0.4175   XZ=              0.3133   YZ=              1.6253
 Traceless Quadrupole moment (field-independent basis, Debye-Ang):
   XX=              3.7046   YY=             -4.4233   ZZ=              0.7187
   XY=              0.4175   XZ=              0.3133   YZ=              1.6253
 Octapole moment (field-independent basis, Debye-Ang**2):
  XXX=             -5.1925  YYY=              2.6036  ZZZ=              9.8709  XYY=              1.2226
  XXY=              2.7653  XXZ=             -3.1501  XZZ=             -3.8743  YZZ=             -4.5636
  YYZ=              0.4933  XYZ=             -3.9869
 Hexadecapole moment (field-independent basis, Debye-Ang**3):
 XXXX=           -995.2396 YYYY=           -934.2922 ZZZZ=           -694.4256 XXXY=             25.2667
 XXXZ=             18.9322 YYYX=            -10.9794 YYYZ=             58.1799 ZZZX=            -12.9221
 ZZZY=             -3.1623 XXYY=           -367.1082 XXZZ=           -296.9854 YYZZ=           -277.2235
 XXYZ=            -19.8349 YYXZ=              0.1527 ZZXY=             -0.0031
 N-N= 4.205019249194D+02 E-N=-3.570266883982D+03  KE= 1.133581519037D+03
                          Isotropic Fermi Contact Couplings
        Atom                 a.u.       MegaHertz       Gauss      10(-4) cm-1
     1  Na(23)             0.27261     322.50766     115.07875     107.57698
     2  Na(23)             0.08418      99.58392      35.53402      33.21762
     3  Na(23)             0.02140      25.31527       9.03312       8.44426
     4  Na(23)             0.01815      21.46716       7.66001       7.16067
     5  Na(23)             0.00654       7.73132       2.75873       2.57889
     6  Na(23)             0.09553     113.01219      40.32556      37.69681
     7  Na(23)             0.31986     378.39879     135.02210     126.22025
 --------------------------------------------------------
       Center         ----  Spin Dipole Couplings  ----
                      3XX-RR        3YY-RR        3ZZ-RR
 --------------------------------------------------------
     1   Atom       -0.004594     -0.002168      0.006762
     2   Atom       -0.022149     -0.003278      0.025427
     3   Atom       -0.013912     -0.022037      0.035949
     4   Atom       -0.023603     -0.008136      0.031739
     5   Atom       -0.011052     -0.020498      0.031550
     6   Atom       -0.007198     -0.017490      0.024688
     7   Atom        0.016408      0.003414     -0.019822
 --------------------------------------------------------
                        XY            XZ            YZ
 --------------------------------------------------------
     1   Atom        0.005511      0.003054      0.030334
     2   Atom       -0.003289      0.005293     -0.040439
     3   Atom       -0.003229     -0.025806      0.010518
     4   Atom       -0.002036      0.000214     -0.025492
     5   Atom        0.004832      0.016708      0.009997
     6   Atom       -0.013652     -0.037025      0.016944
     7   Atom        0.007050      0.013000      0.002146
 --------------------------------------------------------


 ---------------------------------------------------------------------------------
              Anisotropic Spin Dipole Couplings in Principal Axis System
 ---------------------------------------------------------------------------------

       Atom             a.u.   MegaHertz   Gauss  10(-4) cm-1        Axes

              Baa    -0.0286    -4.034    -1.439    -1.346 -0.0925  0.7594 -0.6440
     1 Na(23) Bbb    -0.0053    -0.749    -0.267    -0.250  0.9840 -0.0292 -0.1758
              Bcc     0.0339     4.783     1.707     1.595  0.1522  0.6500  0.7445
 
              Baa    -0.0319    -4.498    -1.605    -1.500 -0.0397  0.8145  0.5787
     2 Na(23) Bbb    -0.0226    -3.197    -1.141    -1.066  0.9959  0.0791 -0.0431
              Bcc     0.0545     7.695     2.746     2.567  0.0809 -0.5747  0.8144
 
              Baa    -0.0256    -3.609    -1.288    -1.204  0.7531 -0.5188  0.4047
     3 Na(23) Bbb    -0.0230    -3.254    -1.161    -1.085  0.5344  0.8411  0.0838
              Bcc     0.0486     6.862     2.449     2.289 -0.3839  0.1531  0.9106
 
              Baa    -0.0244    -3.446    -1.230    -1.150  0.9112  0.3764  0.1674
     4 Na(23) Bbb    -0.0198    -2.793    -0.997    -0.932 -0.4116  0.8161  0.4056
              Bcc     0.0442     6.239     2.226     2.081  0.0160 -0.4385  0.8986
 
              Baa    -0.0228    -3.220    -1.149    -1.074 -0.2558  0.9617 -0.0983
     5 Na(23) Bbb    -0.0165    -2.337    -0.834    -0.780  0.9105  0.2054 -0.3590
              Bcc     0.0394     5.557     1.983     1.854  0.3250  0.1813  0.9282
 
              Baa    -0.0321    -4.528    -1.616    -1.510  0.8450  0.2307  0.4824
     6 Na(23) Bbb    -0.0234    -3.308    -1.180    -1.103 -0.0465  0.9304 -0.3635
              Bcc     0.0555     7.836     2.796     2.614 -0.5327  0.2847  0.7970
 
              Baa    -0.0240    -3.390    -1.210    -1.131 -0.3069  0.0044  0.9517
     7 Na(23) Bbb     0.0007     0.097     0.035     0.032 -0.3291  0.9378 -0.1105
              Bcc     0.0233     3.293     1.175     1.098  0.8930  0.3472  0.2864
 

 ---------------------------------------------------------------------------------

 No NMR shielding tensors so no spin-rotation constants.
 Leave Link  601 at Mon Nov 13 16:54:21 2023, MaxMem=  1879048192 cpu:               2.8 elap:               0.2
 (Enter /home/sekinelabo/g16/l701.exe)
 ... and contract with generalized density number  0.
 Compute integral first derivatives.
 Leave Link  701 at Mon Nov 13 16:54:21 2023, MaxMem=  1879048192 cpu:               1.8 elap:               0.1
 (Enter /home/sekinelabo/g16/l702.exe)
 L702 exits ... SP integral derivatives will be done elsewhere.
 Leave Link  702 at Mon Nov 13 16:54:21 2023, MaxMem=  1879048192 cpu:               0.5 elap:               0.0
 (Enter /home/sekinelabo/g16/l703.exe)
 Integral derivatives from FoFJK, PRISM(SPDF).
 Compute integral first derivatives, UseDBF=F ICtDFT=           0.
 Calling FoFJK, ICntrl=      2127 FMM=F ISym2X=0 I1Cent= 0 IOpClX= 1 NMat=1 NMatS=1 NMatT=0.
 FoFJK:  IHMeth= 1 ICntrl=    2127 DoSepK=F KAlg= 0 I1Cent=           0 FoldK=F
 IRaf=         0 NMat=       1 IRICut=       1 DoRegI=T DoRafI=F ISym2E= 0 IDoP0=0 IntGTp=1.
 FoFCou: FMM=F IPFlag=           0 FMFlag=      100000 FMFlg1=         800
         NFxFlg=           0 DoJE=F BraDBF=F KetDBF=F FulRan=T
         wScrn=  0.000000 ICntrl=      2127 IOpCl=  1 I1Cent=           0 NGrid=           0
         NMat0=    1 NMatS0=      1 NMatT0=    0 NMatD0=    1 NMtDS0=    0 NMtDT0=    0
 Symmetry not used in FoFCou.
 Leave Link  703 at Mon Nov 13 16:54:23 2023, MaxMem=  1879048192 cpu:              38.4 elap:               2.4
 (Enter /home/sekinelabo/g16/l716.exe)
 Dipole        =-1.04827536D-01-2.32522248D-02 1.84719863D-01
 ***** Axes restored to original set *****
 -------------------------------------------------------------------
 Center     Atomic                   Forces (Hartrees/Bohr)
 Number     Number              X              Y              Z
 -------------------------------------------------------------------
      1       11           0.001101620    0.009721191    0.027814739
      2       11           0.004895745   -0.028478177    0.008111272
      3       11           0.025098194   -0.000996525    0.001940112
      4       11           0.001758340    0.021158219   -0.011251975
      5       11          -0.025548308    0.014091698    0.005353333
      6       11          -0.018099921   -0.011852532   -0.016905449
      7       11           0.010794330   -0.003643875   -0.015062031
 -------------------------------------------------------------------
 Cartesian Forces:  Max     0.028478177 RMS     0.015388125
 Z-matrix is all fixed cartesians, so copy forces.
 Force constants in Cartesian coordinates: 
                1             2             3             4             5 
      1  0.343691D+00
      2  0.109780D-01  0.413028D+00
      3  0.332269D-02  0.237594D-01  0.427413D+00
      4 -0.808096D-01 -0.444739D-02  0.640104D-02  0.163471D+00
      5 -0.497365D-03 -0.103400D+00  0.260294D-01  0.313916D-02  0.242965D+00
      6 -0.111184D-02 -0.647728D-01 -0.760130D-01  0.431467D-02 -0.396798D-01
      7 -0.821895D-01 -0.110363D-01 -0.169334D-01 -0.279200D-01  0.160501D-01
      8  0.126711D-01 -0.113296D+00 -0.710423D-02 -0.358741D-01 -0.302576D-01
      9  0.548656D-01 -0.809634D-02 -0.831660D-01  0.826614D-02  0.116647D-01
     10 -0.639749D-01  0.168567D-02 -0.776505D-02  0.348353D-01 -0.834769D-03
     11 -0.103111D-02 -0.581278D-01 -0.185407D-01 -0.476695D-02 -0.157940D-01
     12  0.688425D-02  0.634777D-01 -0.973868D-01  0.226760D-02  0.134219D-01
     13 -0.918173D-01  0.125813D-02  0.181763D-01 -0.829165D-02 -0.694573D-02
     14 -0.224582D-01 -0.116284D+00 -0.471944D-02  0.306369D-01 -0.188777D-01
     15 -0.516942D-01  0.150146D-01 -0.909400D-01 -0.102321D-01  0.141432D-01
     16 -0.141352D-01  0.128771D-02  0.270214D-03 -0.633414D-01 -0.203765D-01
     17 -0.736833D-02 -0.133611D-01 -0.645893D-02  0.239026D-01 -0.483575D-01
     18 -0.256150D-01 -0.235559D-01 -0.362270D-01 -0.204540D-01 -0.132781D-01
     19 -0.107641D-01  0.274166D-03 -0.347179D-02 -0.179436D-01  0.946513D-02
     20  0.770592D-02 -0.855831D-02 -0.129656D-01 -0.125902D-01 -0.262772D-01
     21  0.133484D-01 -0.582661D-02 -0.436803D-01  0.943671D-02 -0.123013D-01
                6             7             8             9            10 
      6  0.176448D+00
      7 -0.116724D-01  0.193383D+00
      8  0.668317D-02  0.592523D-02  0.148220D+00
      9 -0.177834D-01  0.214692D-01  0.225739D-02  0.133139D+00
     10  0.609589D-03 -0.251742D-01  0.307620D-01 -0.163126D-01  0.140485D+00
     11  0.171391D-01 -0.195589D-01 -0.339435D-01  0.679752D-03  0.742413D-02
     12  0.179410D-01 -0.165106D-02  0.745870D-02 -0.114398D-01  0.613720D-03
     13  0.892052D-02 -0.740860D-02  0.106663D-01 -0.394801D-02 -0.370734D-01
     14  0.117069D-02  0.944055D-02  0.490661D-01 -0.171103D-02 -0.312773D-01
     15  0.734465D-02  0.387353D-02 -0.247407D-02  0.192650D-01  0.193456D-01
     16 -0.158300D-02 -0.111202D-01 -0.119041D-01 -0.164200D-01 -0.131696D-01
     17  0.396742D-01 -0.339777D-02  0.170356D-01 -0.219494D-02 -0.202222D-01
     18 -0.704734D-01 -0.604110D-02 -0.157049D-02  0.153851D-01  0.268801D-02
     19  0.522430D-03 -0.395700D-01 -0.122463D-01 -0.479204D-01 -0.359284D-01
     20  0.397855D-01  0.257713D-02 -0.368245D-01 -0.259957D-02  0.124625D-01
     21 -0.374641D-01  0.109552D-01 -0.525047D-02 -0.554003D-01  0.820689D-03
               11            12            13            14            15 
     11  0.219944D+00
     12 -0.279692D-01  0.149179D+00
     13  0.228014D-01  0.165261D-02  0.201425D+00
     14 -0.368294D-01  0.475446D-02 -0.168712D-01  0.181822D+00
     15 -0.706485D-02 -0.229350D-01 -0.226356D-01  0.137811D-01  0.147117D+00
     16  0.271563D-02 -0.152350D-01 -0.504689D-01  0.246803D-01  0.374549D-01
     17 -0.257365D-01 -0.203302D-01 -0.200049D-01 -0.717513D-01 -0.203431D-01
     18  0.159523D-01 -0.124074D-02 -0.113299D-01 -0.109991D-01 -0.683606D-01
     19 -0.758416D-02  0.546785D-02 -0.636536D-02  0.584898D-02  0.238879D-01
     20 -0.495126D-01 -0.408133D-01  0.909602D-02  0.128539D-01 -0.130569D-01
     21  0.198036D-01 -0.341177D-01  0.916421D-02 -0.227669D-02  0.850934D-02
               16            17            18            19            20 
     16  0.233397D+00
     17  0.232890D-01  0.195502D+00
     18  0.200921D-01  0.223814D-01  0.210954D+00
     19 -0.811616D-01  0.380162D-02  0.406599D-01  0.191733D+00
     20 -0.196920D-01 -0.533315D-01  0.110699D-01  0.440608D-03  0.161650D+00
     21 -0.245793D-01 -0.127285D-01 -0.500379D-01 -0.191459D-01  0.185800D-01
               21 
     21  0.212191D+00
 Leave Link  716 at Mon Nov 13 16:54:24 2023, MaxMem=  1879048192 cpu:               0.5 elap:               0.0
 (Enter /home/sekinelabo/g16/l103.exe)

 GradGradGradGradGradGradGradGradGradGradGradGradGradGradGradGradGradGrad
 Berny optimization.
 Search for a local minimum.
 Step number   1 out of a maximum of    2
 All quantities printed in internal units (Hartrees-Bohrs-Radians)
 Second derivative matrix not updated -- first step.
 ITU=  0
     Eigenvalues ---    0.16001   0.16967   0.17926   0.21228   0.22463
     Eigenvalues ---    0.23415   0.24289   0.26413   0.28799   0.30970
     Eigenvalues ---    0.32203   0.33922   0.44512   0.50918   0.55212
 Quadratic step=3.888D-01 exceeds max=3.000D-01 adjusted using Lamda=-5.040D-02.
 Angle between NR and scaled steps=   1.70 degrees.
 Angle between quadratic step and forces=  12.30 degrees.
 Linear search not attempted -- first point.
 B after Tr=     0.000000    0.000000   -0.000000
         Rot=    1.000000   -0.000000   -0.000000    0.000000 Ang=   0.00 deg.
 Variable       Old X    -DE/DX   Delta X   Delta X   Delta X     New X
                                 (Linear)    (Quad)   (Total)
    X1        4.56235   0.00110   0.00000   0.00476   0.00476   4.56711
    Y1        4.75936   0.00972   0.00000   0.02658   0.02658   4.78594
    Z1        5.95930   0.02781   0.00000   0.07354   0.07354   6.03284
    X2        4.38198   0.00490   0.00000   0.01173   0.01173   4.39371
    Y2        0.00000  -0.02848   0.00000  -0.11393  -0.11393  -0.11393
    Z2        5.12441   0.00811   0.00000   0.03779   0.03779   5.16220
    X3        9.15815   0.02510   0.00000   0.12843   0.12843   9.28658
    Y3        3.91961  -0.00100   0.00000  -0.00106  -0.00106   3.91855
    Z3        4.42038   0.00194   0.00000   0.02103   0.02103   4.44141
    X4        4.94188   0.00176   0.00000   0.00916   0.00916   4.95105
    Y4        8.08891   0.02116   0.00000   0.10608   0.10608   8.19498
    Z4        2.31439  -0.01125   0.00000  -0.03481  -0.03481   2.27959
    X5        0.00000  -0.02555   0.00000  -0.12484  -0.12484  -0.12484
    Y5        5.51983   0.01409   0.00000   0.05740   0.05740   5.57723
    Z5        4.45522   0.00535   0.00000   0.02915   0.02915   4.48436
    X6        1.40552  -0.01810   0.00000  -0.08103  -0.08103   1.32449
    Y6        1.82493  -0.01185   0.00000  -0.05116  -0.05116   1.77377
    Z6        1.38363  -0.01691   0.00000  -0.05659  -0.05659   1.32704
    X7        6.17729   0.01079   0.00000   0.05179   0.05179   6.22908
    Y7        2.96930  -0.00364   0.00000  -0.02390  -0.02390   2.94539
    Z7        0.00000  -0.01506   0.00000  -0.07010  -0.07010  -0.07010
         Item               Value     Threshold  Converged?
 Maximum Force            0.028478     0.000450     NO 
 RMS     Force            0.015388     0.000300     NO 
 Maximum Displacement     0.128426     0.001800     NO 
 RMS     Displacement     0.065629     0.001200     NO 
 Predicted change in Energy=-1.263968D-02
 GradGradGradGradGradGradGradGradGradGradGradGradGradGradGradGradGradGrad

 Leave Link  103 at Mon Nov 13 16:54:24 2023, MaxMem=  1879048192 cpu:               0.3 elap:               0.0
 (Enter /home/sekinelabo/g16/l9999.exe)
 1\1\GINC-SEKINELABO-XA7R-R37\Force\UB3LYP\6-311+G(d)\Na7(2)\SEKINELABO
 \13-Nov-2023\0\\#P B3LYP/6-311+g(d) force\\Gaussian input prepared by 
 ASE\\0,2\Na,2.4142920242,2.5185453875,3.1535263385\Na,2.3188431196,0.,
 2.7117207501\Na,4.8462864459,2.0741688778,2.3391654667\Na,2.6151318091
 ,4.2804660234,1.2247249823\Na,0.,2.9209675416,2.357598389\Na,0.7437697
 381,0.9657116575,0.7321861708\Na,3.2688826717,1.5712835565,0.\\Version
 =ES64L-G16RevB.01\State=2-A\HF=-1136.0594682\S2=0.761293\S2-1=0.\S2A=0
 .750076\RMSD=8.324e-09\RMSF=1.539e-02\Dipole=0.1048275,-0.0232522,-0.1
 847199\Quadrupole=2.7542927,-3.288609,0.5343163,-0.3103786,0.23293,-1.
 2084038\PG=C01 [X(Na7)]\\@


 Once you get people laughing, they're
 listening and you can tell them almost anything.
                                 -- Herb Gardner
 Job cpu time:       0 days  0 hours  4 minutes 40.8 seconds.
 Elapsed time:       0 days  0 hours  0 minutes 22.7 seconds.
 File lengths (MBytes):  RWF=     32 Int=      0 D2E=      0 Chk=      5 Scr=      1
 Normal termination of Gaussian 16 at Mon Nov 13 16:54:24 2023.
