 Entering Gaussian System, Link 0=g16
 Initial command:
 /home/sekinelabo/g16/l1.exe "/home/sekinelabo/g16temp/Gau-4054165.inp" -scrdir="/home/sekinelabo/g16temp/"
 Entering Link 1 = /home/sekinelabo/g16/l1.exe PID=   4054167.
  
 Copyright (c) 1988-2017, Gaussian, Inc.  All Rights Reserved.
  
 This is part of the Gaussian(R) 16 program.  It is based on
 the Gaussian(R) 09 system (copyright 2009, Gaussian, Inc.),
 the Gaussian(R) 03 system (copyright 2003, Gaussian, Inc.),
 the Gaussian(R) 98 system (copyright 1998, Gaussian, Inc.),
 the Gaussian(R) 94 system (copyright 1995, Gaussian, Inc.),
 the Gaussian 92(TM) system (copyright 1992, Gaussian, Inc.),
 the Gaussian 90(TM) system (copyright 1990, Gaussian, Inc.),
 the Gaussian 88(TM) system (copyright 1988, Gaussian, Inc.),
 the Gaussian 86(TM) system (copyright 1986, Carnegie Mellon
 University), and the Gaussian 82(TM) system (copyright 1983,
 Carnegie Mellon University). Gaussian is a federally registered
 trademark of Gaussian, Inc.
  
 This software contains proprietary and confidential information,
 including trade secrets, belonging to Gaussian, Inc.
  
 This software is provided under written license and may be
 used, copied, transmitted, or stored only in accord with that
 written license.
  
 The following legend is applicable only to US Government
 contracts under FAR:
  
                    RESTRICTED RIGHTS LEGEND
  
 Use, reproduction and disclosure by the US Government is
 subject to restrictions as set forth in subparagraphs (a)
 and (c) of the Commercial Computer Software - Restricted
 Rights clause in FAR 52.227-19.
  
 Gaussian, Inc.
 340 Quinnipiac St., Bldg. 40, Wallingford CT 06492
  
  
 ---------------------------------------------------------------
 Warning -- This program may not be used in any manner that
 competes with the business of Gaussian, Inc. or will provide
 assistance to any competitor of Gaussian, Inc.  The licensee
 of this program is prohibited from giving any competitor of
 Gaussian, Inc. access to this program.  By using this program,
 the user acknowledges that Gaussian, Inc. is engaged in the
 business of creating and licensing software in the field of
 computational chemistry and represents and warrants to the
 licensee that it is not a competitor of Gaussian, Inc. and that
 it will not use this program in any manner prohibited above.
 ---------------------------------------------------------------
  

 Cite this work as:
 Gaussian 16, Revision B.01,
 M. J. Frisch, G. W. Trucks, H. B. Schlegel, G. E. Scuseria, 
 M. A. Robb, J. R. Cheeseman, G. Scalmani, V. Barone, 
 G. A. Petersson, H. Nakatsuji, X. Li, M. Caricato, A. V. Marenich, 
 J. Bloino, B. G. Janesko, R. Gomperts, B. Mennucci, H. P. Hratchian, 
 J. V. Ortiz, A. F. Izmaylov, J. L. Sonnenberg, D. Williams-Young, 
 F. Ding, F. Lipparini, F. Egidi, J. Goings, B. Peng, A. Petrone, 
 T. Henderson, D. Ranasinghe, V. G. Zakrzewski, J. Gao, N. Rega, 
 G. Zheng, W. Liang, M. Hada, M. Ehara, K. Toyota, R. Fukuda, 
 J. Hasegawa, M. Ishida, T. Nakajima, Y. Honda, O. Kitao, H. Nakai, 
 T. Vreven, K. Throssell, J. A. Montgomery, Jr., J. E. Peralta, 
 F. Ogliaro, M. J. Bearpark, J. J. Heyd, E. N. Brothers, K. N. Kudin, 
 V. N. Staroverov, T. A. Keith, R. Kobayashi, J. Normand, 
 K. Raghavachari, A. P. Rendell, J. C. Burant, S. S. Iyengar, 
 J. Tomasi, M. Cossi, J. M. Millam, M. Klene, C. Adamo, R. Cammi, 
 J. W. Ochterski, R. L. Martin, K. Morokuma, O. Farkas, 
 J. B. Foresman, and D. J. Fox, Gaussian, Inc., Wallingford CT, 2016.
 
 ******************************************
 Gaussian 16:  ES64L-G16RevB.01 20-Dec-2017
                13-Nov-2023 
 ******************************************
 %mem=14GB
 %chk=checkpoint.chk
 %nprocshared=16
 Will use up to   16 processors via shared memory.
 -------------------------
 #P B3LYP/6-311+g(d) force
 -------------------------
 1/10=7,30=1,38=1/1,3;
 2/12=2,17=6,18=5,40=1/2;
 3/5=4,6=6,7=11,11=2,25=1,30=1,71=1,74=-5/1,2,3;
 4//1;
 5/5=2,38=5/2;
 6/7=2,8=2,9=2,10=2,28=1/1;
 7/29=1/1,2,3,16;
 1/10=7,30=1/3;
 99//99;
 Leave Link    1 at Mon Nov 13 16:36:06 2023, MaxMem=  1879048192 cpu:               0.3 elap:               0.0
 (Enter /home/sekinelabo/g16/l101.exe)
 ------------------------------
 Gaussian input prepared by ASE
 ------------------------------
 Symbolic Z-matrix:
 Charge =  0 Multiplicity = 2
 Na                    4.39228   3.77804   2.96372 
 Na                    4.9757    0.07204   0.70333 
 Na                    7.75033   0.        1.83171 
 Na                    6.48558   2.62999   1.14357 
 Na                    4.06212   3.99005   0. 
 Na                    2.65826   1.80753   1.50932 
 Na                    0.        0.42367   1.5764 
 
 ITRead=  0  0  0  0  0  0  0
 MicOpt= -1 -1 -1 -1 -1 -1 -1
 NAtoms=      7 NQM=        7 NQMF=       0 NMMI=      0 NMMIF=      0
                NMic=       0 NMicF=      0.
                    Isotopes and Nuclear Properties:
 (Nuclear quadrupole moments (NQMom) in fm**2, nuclear magnetic moments (NMagM)
  in nuclear magnetons)

  Atom         1           2           3           4           5           6           7
 IAtWgt=          23          23          23          23          23          23          23
 AtmWgt=  22.9897697  22.9897697  22.9897697  22.9897697  22.9897697  22.9897697  22.9897697
 NucSpn=           3           3           3           3           3           3           3
 AtZEff=  -0.0000000  -0.0000000  -0.0000000  -0.0000000  -0.0000000  -0.0000000  -0.0000000
 NQMom=   10.4000000  10.4000000  10.4000000  10.4000000  10.4000000  10.4000000  10.4000000
 NMagM=    2.2175200   2.2175200   2.2175200   2.2175200   2.2175200   2.2175200   2.2175200
 AtZNuc=  11.0000000  11.0000000  11.0000000  11.0000000  11.0000000  11.0000000  11.0000000
 Leave Link  101 at Mon Nov 13 16:36:06 2023, MaxMem=  1879048192 cpu:               2.6 elap:               0.2
 (Enter /home/sekinelabo/g16/l103.exe)

 GradGradGradGradGradGradGradGradGradGradGradGradGradGradGradGradGradGrad
 Berny optimization.
 Initialization pass.
 Trust Radius=3.00D-01 FncErr=1.00D-07 GrdErr=1.00D-07 EigMax=2.50D+02 EigMin=1.00D-04
 Number of steps in this run=      2 maximum allowed number of steps=      2.
 GradGradGradGradGradGradGradGradGradGradGradGradGradGradGradGradGradGrad

 Leave Link  103 at Mon Nov 13 16:36:06 2023, MaxMem=  1879048192 cpu:               0.2 elap:               0.0
 (Enter /home/sekinelabo/g16/l202.exe)
                          Input orientation:                          
 ---------------------------------------------------------------------
 Center     Atomic      Atomic             Coordinates (Angstroms)
 Number     Number       Type             X           Y           Z
 ---------------------------------------------------------------------
      1         11           0        4.392277    3.778038    2.963716
      2         11           0        4.975704    0.072037    0.703334
      3         11           0        7.750330    0.000000    1.831712
      4         11           0        6.485581    2.629994    1.143574
      5         11           0        4.062117    3.990047    0.000000
      6         11           0        2.658258    1.807527    1.509323
      7         11           0        0.000000    0.423670    1.576402
 ---------------------------------------------------------------------
                    Distance matrix (angstroms):
                    1          2          3          4          5
     1  Na   0.000000
     2  Na   4.379972   0.000000
     3  Na   5.179915   2.996161   0.000000
     4  Na   3.002139   3.002779   2.998331   0.000000
     5  Na   2.989576   4.084131   5.733984   3.005110   0.000000
     6  Na   3.000832   3.005345   5.412974   3.931745   3.002044
     7  Na   5.698116   5.063944   7.766099   6.864252   5.630709
                    6          7
     6  Na   0.000000
     7  Na   2.997649   0.000000
 Stoichiometry    Na7(2)
 Framework group  C1[X(Na7)]
 Deg. of freedom    15
 Full point group                 C1      NOp   1
 Largest Abelian subgroup         C1      NOp   1
 Largest concise Abelian subgroup C1      NOp   1
                         Standard orientation:                         
 ---------------------------------------------------------------------
 Center     Atomic      Atomic             Coordinates (Angstroms)
 Number     Number       Type             X           Y           Z
 ---------------------------------------------------------------------
      1         11           0        0.060239    1.963565    1.573993
      2         11           0        0.643666   -1.742436   -0.686389
      3         11           0        3.418292   -1.814473    0.441989
      4         11           0        2.153543    0.815520   -0.246148
      5         11           0       -0.269922    2.175574   -1.389723
      6         11           0       -1.673780   -0.006946    0.119600
      7         11           0       -4.332038   -1.390803    0.186679
 ---------------------------------------------------------------------
 Rotational constants (GHZ):           0.9683373           0.5045814           0.3932665
 Leave Link  202 at Mon Nov 13 16:36:06 2023, MaxMem=  1879048192 cpu:               0.0 elap:               0.0
 (Enter /home/sekinelabo/g16/l301.exe)
 Standard basis: 6-311+G(d) (5D, 7F)
 Ernie: Thresh=  0.10000D-02 Tol=  0.10000D-05 Strict=F.
 There are   217 symmetry adapted cartesian basis functions of A   symmetry.
 There are   210 symmetry adapted basis functions of A   symmetry.
   210 basis functions,   350 primitive gaussians,   217 cartesian basis functions
    39 alpha electrons       38 beta electrons
       nuclear repulsion energy       348.2011320818 Hartrees.
 IExCor=  402 DFT=T Ex+Corr=B3LYP ExCW=0 ScaHFX=  0.200000
 ScaDFX=  0.800000  0.720000  1.000000  0.810000 ScalE2=  1.000000  1.000000
 IRadAn=      5 IRanWt=     -1 IRanGd=            0 ICorTp=0 IEmpDi=  4
 NAtoms=    7 NActive=    7 NUniq=    7 SFac= 1.00D+00 NAtFMM=   60 NAOKFM=F Big=F
 Integral buffers will be    131072 words long.
 Raffenetti 2 integral format.
 Two-electron integral symmetry is turned on.
 Leave Link  301 at Mon Nov 13 16:36:06 2023, MaxMem=  1879048192 cpu:               0.5 elap:               0.0
 (Enter /home/sekinelabo/g16/l302.exe)
 NPDir=0 NMtPBC=     1 NCelOv=     1 NCel=       1 NClECP=     1 NCelD=      1
         NCelK=      1 NCelE2=     1 NClLst=     1 CellRange=     0.0.
 One-electron integrals computed using PRISM.
 One-electron integral symmetry used in STVInt
 NBasis=   210 RedAO= T EigKep=  1.62D-06  NBF=   210
 NBsUse=   210 1.00D-06 EigRej= -1.00D+00 NBFU=   210
 Precomputing XC quadrature grid using
 IXCGrd= 4 IRadAn=           5 IRanWt=          -1 IRanGd=           0 AccXCQ= 0.00D+00.
 Generated NRdTot=       0 NPtTot=           0 NUsed=           0 NTot=          32
 NSgBfM=   208   208   208   208   208 MxSgAt=     7 MxSgA2=     7.
 Leave Link  302 at Mon Nov 13 16:36:06 2023, MaxMem=  1879048192 cpu:               2.2 elap:               0.1
 (Enter /home/sekinelabo/g16/l303.exe)
 DipDrv:  MaxL=1.
 Leave Link  303 at Mon Nov 13 16:36:06 2023, MaxMem=  1879048192 cpu:               0.6 elap:               0.0
 (Enter /home/sekinelabo/g16/l401.exe)
 ExpMin= 7.60D-03 ExpMax= 3.62D+04 ExpMxC= 1.21D+03 IAcc=3 IRadAn=         5 AccDes= 0.00D+00
 Harris functional with IExCor=  402 and IRadAn=       5 diagonalized for initial guess.
 HarFok:  IExCor=  402 AccDes= 0.00D+00 IRadAn=         5 IDoV= 1 UseB2=F ITyADJ=14
 ICtDFT=  3500011 ScaDFX=  1.000000  1.000000  1.000000  1.000000
 FoFCou: FMM=F IPFlag=           0 FMFlag=      100000 FMFlg1=           0
         NFxFlg=           0 DoJE=T BraDBF=F KetDBF=T FulRan=T
         wScrn=  0.000000 ICntrl=       500 IOpCl=  0 I1Cent=   200000004 NGrid=           0
         NMat0=    1 NMatS0=      1 NMatT0=    0 NMatD0=    1 NMtDS0=    0 NMtDT0=    0
 Petite list used in FoFCou.
 Harris En= -1135.86990091520    
 JPrj=0 DoOrth=F DoCkMO=F.
 Initial guess <Sx>= 0.0000 <Sy>= 0.0000 <Sz>= 0.5000 <S**2>= 0.7500 S= 0.5000
 Leave Link  401 at Mon Nov 13 16:36:07 2023, MaxMem=  1879048192 cpu:               4.7 elap:               0.3
 (Enter /home/sekinelabo/g16/l502.exe)
 Keep R1 and R2 ints in memory in canonical form, NReq=507620360.
 FoFCou: FMM=F IPFlag=           0 FMFlag=           0 FMFlg1=           0
         NFxFlg=           0 DoJE=F BraDBF=F KetDBF=F FulRan=T
         wScrn=  0.000000 ICntrl=       600 IOpCl=  0 I1Cent=           0 NGrid=           0
         NMat0=    1 NMatS0=  22155 NMatT0=    0 NMatD0=    1 NMtDS0=    0 NMtDT0=    0
 Symmetry not used in FoFCou.
 Two-electron integral symmetry not used.
 UHF open shell SCF:
 Using DIIS extrapolation, IDIIS=  1040.
 NGot=  1879048192 LenX=  1388082376 LenY=  1388034846
 Requested convergence on RMS density matrix=1.00D-08 within 128 cycles.
 Requested convergence on MAX density matrix=1.00D-06.
 Requested convergence on             energy=1.00D-06.
 No special actions if energy rises.

 Cycle   1  Pass 1  IDiag  1:
 E= -1136.06290240488    
 DIIS: error= 1.01D-02 at cycle   1 NSaved=   1.
 NSaved= 1 IEnMin= 1 EnMin= -1136.06290240488     IErMin= 1 ErrMin= 1.01D-02
 ErrMax= 1.01D-02  0.00D+00 EMaxC= 1.00D-01 BMatC= 1.94D-01 BMatP= 1.94D-01
 IDIUse=3 WtCom= 8.99D-01 WtEn= 1.01D-01
 Coeff-Com:  0.100D+01
 Coeff-En:   0.100D+01
 Coeff:      0.100D+01
 Gap=     0.026 Goal=   None    Shift=    0.000
 Gap=     0.062 Goal=   None    Shift=    0.000
 GapD=    0.026 DampG=0.250 DampE=0.500 DampFc=0.2500 IDamp=-1.
 Damping current iteration by 2.50D-01
 RMSDP=7.56D-02 MaxDP=6.54D+00              OVMax= 2.62D-01

 Cycle   2  Pass 1  IDiag  1:
 E= -1136.07545869470     Delta-E=       -0.012556289816 Rises=F Damp=T
 DIIS: error= 6.51D-03 at cycle   2 NSaved=   2.
 NSaved= 2 IEnMin= 2 EnMin= -1136.07545869470     IErMin= 2 ErrMin= 6.51D-03
 ErrMax= 6.51D-03  0.00D+00 EMaxC= 1.00D-01 BMatC= 7.37D-02 BMatP= 1.94D-01
 IDIUse=3 WtCom= 9.35D-01 WtEn= 6.51D-02
 Coeff-Com: -0.124D+01 0.224D+01
 Coeff-En:   0.000D+00 0.100D+01
 Coeff:     -0.116D+01 0.216D+01
 Gap=     0.040 Goal=   None    Shift=    0.000
 Gap=     0.060 Goal=   None    Shift=    0.000
 RMSDP=3.80D-02 MaxDP=3.30D+00 DE=-1.26D-02 OVMax= 3.01D-01

 Cycle   3  Pass 1  IDiag  1:
 E= -1136.09070521863     Delta-E=       -0.015246523933 Rises=F Damp=F
 DIIS: error= 5.52D-03 at cycle   3 NSaved=   3.
 NSaved= 3 IEnMin= 3 EnMin= -1136.09070521863     IErMin= 3 ErrMin= 5.52D-03
 ErrMax= 5.52D-03  0.00D+00 EMaxC= 1.00D-01 BMatC= 8.40D-03 BMatP= 7.37D-02
 IDIUse=3 WtCom= 9.45D-01 WtEn= 5.52D-02
 Coeff-Com: -0.457D+00 0.788D+00 0.669D+00
 Coeff-En:   0.000D+00 0.000D+00 0.100D+01
 Coeff:     -0.431D+00 0.745D+00 0.687D+00
 Gap=     0.032 Goal=   None    Shift=    0.000
 Gap=     0.063 Goal=   None    Shift=    0.000
 RMSDP=1.70D-02 MaxDP=1.35D+00 DE=-1.52D-02 OVMax= 1.70D-01

 Cycle   4  Pass 1  IDiag  1:
 E= -1136.09268901455     Delta-E=       -0.001983795923 Rises=F Damp=F
 DIIS: error= 3.80D-03 at cycle   4 NSaved=   4.
 NSaved= 4 IEnMin= 4 EnMin= -1136.09268901455     IErMin= 4 ErrMin= 3.80D-03
 ErrMax= 3.80D-03  0.00D+00 EMaxC= 1.00D-01 BMatC= 6.32D-03 BMatP= 8.40D-03
 IDIUse=3 WtCom= 9.62D-01 WtEn= 3.80D-02
 Coeff-Com: -0.377D-01 0.545D-01 0.462D+00 0.521D+00
 Coeff-En:   0.000D+00 0.000D+00 0.449D+00 0.551D+00
 Coeff:     -0.363D-01 0.524D-01 0.461D+00 0.522D+00
 Gap=     0.036 Goal=   None    Shift=    0.000
 Gap=     0.057 Goal=   None    Shift=    0.000
 RMSDP=6.31D-03 MaxDP=5.75D-01 DE=-1.98D-03 OVMax= 1.06D-01

 Cycle   5  Pass 1  IDiag  1:
 E= -1136.09903158577     Delta-E=       -0.006342571220 Rises=F Damp=F
 DIIS: error= 8.00D-04 at cycle   5 NSaved=   5.
 NSaved= 5 IEnMin= 5 EnMin= -1136.09903158577     IErMin= 5 ErrMin= 8.00D-04
 ErrMax= 8.00D-04  0.00D+00 EMaxC= 1.00D-01 BMatC= 2.23D-04 BMatP= 6.32D-03
 IDIUse=3 WtCom= 9.92D-01 WtEn= 8.00D-03
 Coeff-Com: -0.149D-01 0.185D-01 0.252D+00 0.299D+00 0.445D+00
 Coeff-En:   0.000D+00 0.000D+00 0.000D+00 0.000D+00 0.100D+01
 Coeff:     -0.147D-01 0.184D-01 0.250D+00 0.297D+00 0.450D+00
 Gap=     0.035 Goal=   None    Shift=    0.000
 Gap=     0.055 Goal=   None    Shift=    0.000
 RMSDP=1.08D-03 MaxDP=4.48D-02 DE=-6.34D-03 OVMax= 1.92D-02

 Cycle   6  Pass 1  IDiag  1:
 E= -1136.09926863053     Delta-E=       -0.000237044758 Rises=F Damp=F
 DIIS: error= 2.15D-04 at cycle   6 NSaved=   6.
 NSaved= 6 IEnMin= 6 EnMin= -1136.09926863053     IErMin= 6 ErrMin= 2.15D-04
 ErrMax= 2.15D-04  0.00D+00 EMaxC= 1.00D-01 BMatC= 1.43D-05 BMatP= 2.23D-04
 IDIUse=3 WtCom= 9.98D-01 WtEn= 2.15D-03
 Coeff-Com:  0.207D-03-0.101D-02-0.150D-01-0.226D-01 0.170D+00 0.869D+00
 Coeff-En:   0.000D+00 0.000D+00 0.000D+00 0.000D+00 0.106D-01 0.989D+00
 Coeff:      0.207D-03-0.101D-02-0.150D-01-0.225D-01 0.169D+00 0.869D+00
 Gap=     0.036 Goal=   None    Shift=    0.000
 Gap=     0.055 Goal=   None    Shift=    0.000
 RMSDP=6.32D-04 MaxDP=3.28D-02 DE=-2.37D-04 OVMax= 7.61D-03

 Cycle   7  Pass 1  IDiag  1:
 E= -1136.09928924008     Delta-E=       -0.000020609549 Rises=F Damp=F
 DIIS: error= 4.50D-05 at cycle   7 NSaved=   7.
 NSaved= 7 IEnMin= 7 EnMin= -1136.09928924008     IErMin= 7 ErrMin= 4.50D-05
 ErrMax= 4.50D-05  0.00D+00 EMaxC= 1.00D-01 BMatC= 1.37D-06 BMatP= 1.43D-05
 IDIUse=1 WtCom= 1.00D+00 WtEn= 0.00D+00
 Coeff-Com:  0.522D-03-0.938D-03-0.188D-01-0.242D-01 0.382D-01 0.324D+00
 Coeff-Com:  0.682D+00
 Coeff:      0.522D-03-0.938D-03-0.188D-01-0.242D-01 0.382D-01 0.324D+00
 Coeff:      0.682D+00
 Gap=     0.036 Goal=   None    Shift=    0.000
 Gap=     0.055 Goal=   None    Shift=    0.000
 RMSDP=1.80D-04 MaxDP=1.09D-02 DE=-2.06D-05 OVMax= 3.65D-03

 Cycle   8  Pass 1  IDiag  1:
 E= -1136.09929141956     Delta-E=       -0.000002179480 Rises=F Damp=F
 DIIS: error= 5.26D-05 at cycle   8 NSaved=   8.
 NSaved= 8 IEnMin= 8 EnMin= -1136.09929141956     IErMin= 7 ErrMin= 4.50D-05
 ErrMax= 5.26D-05  0.00D+00 EMaxC= 1.00D-01 BMatC= 5.80D-07 BMatP= 1.37D-06
 IDIUse=1 WtCom= 1.00D+00 WtEn= 0.00D+00
 Coeff-Com:  0.283D-03-0.397D-03-0.715D-02-0.790D-02-0.123D-01 0.218D-02
 Coeff-Com:  0.385D+00 0.641D+00
 Coeff:      0.283D-03-0.397D-03-0.715D-02-0.790D-02-0.123D-01 0.218D-02
 Coeff:      0.385D+00 0.641D+00
 Gap=     0.036 Goal=   None    Shift=    0.000
 Gap=     0.055 Goal=   None    Shift=    0.000
 RMSDP=1.64D-04 MaxDP=1.12D-02 DE=-2.18D-06 OVMax= 2.01D-03

 Cycle   9  Pass 1  IDiag  1:
 E= -1136.09929278251     Delta-E=       -0.000001362951 Rises=F Damp=F
 DIIS: error= 1.48D-05 at cycle   9 NSaved=   9.
 NSaved= 9 IEnMin= 9 EnMin= -1136.09929278251     IErMin= 9 ErrMin= 1.48D-05
 ErrMax= 1.48D-05  0.00D+00 EMaxC= 1.00D-01 BMatC= 8.32D-08 BMatP= 5.80D-07
 IDIUse=1 WtCom= 1.00D+00 WtEn= 0.00D+00
 Coeff-Com:  0.162D-03-0.182D-03 0.776D-03 0.230D-02-0.121D-01-0.650D-01
 Coeff-Com: -0.703D-01 0.124D+00 0.102D+01
 Coeff:      0.162D-03-0.182D-03 0.776D-03 0.230D-02-0.121D-01-0.650D-01
 Coeff:     -0.703D-01 0.124D+00 0.102D+01
 Gap=     0.036 Goal=   None    Shift=    0.000
 Gap=     0.055 Goal=   None    Shift=    0.000
 RMSDP=1.03D-04 MaxDP=5.53D-03 DE=-1.36D-06 OVMax= 2.68D-03

 Cycle  10  Pass 1  IDiag  1:
 E= -1136.09929353273     Delta-E=       -0.000000750219 Rises=F Damp=F
 DIIS: error= 1.21D-05 at cycle  10 NSaved=  10.
 NSaved=10 IEnMin=10 EnMin= -1136.09929353273     IErMin=10 ErrMin= 1.21D-05
 ErrMax= 1.21D-05  0.00D+00 EMaxC= 1.00D-01 BMatC= 4.28D-08 BMatP= 8.32D-08
 IDIUse=1 WtCom= 1.00D+00 WtEn= 0.00D+00
 Coeff-Com: -0.421D-04 0.760D-04 0.159D-02 0.241D-02-0.102D-02-0.174D-01
 Coeff-Com: -0.108D+00-0.140D+00 0.386D+00 0.877D+00
 Coeff:     -0.421D-04 0.760D-04 0.159D-02 0.241D-02-0.102D-02-0.174D-01
 Coeff:     -0.108D+00-0.140D+00 0.386D+00 0.877D+00
 Gap=     0.036 Goal=   None    Shift=    0.000
 Gap=     0.055 Goal=   None    Shift=    0.000
 RMSDP=6.97D-05 MaxDP=3.74D-03 DE=-7.50D-07 OVMax= 1.67D-03

 Cycle  11  Pass 1  IDiag  1:
 E= -1136.09929391110     Delta-E=       -0.000000378372 Rises=F Damp=F
 DIIS: error= 7.70D-06 at cycle  11 NSaved=  11.
 NSaved=11 IEnMin=11 EnMin= -1136.09929391110     IErMin=11 ErrMin= 7.70D-06
 ErrMax= 7.70D-06  0.00D+00 EMaxC= 1.00D-01 BMatC= 1.82D-08 BMatP= 4.28D-08
 IDIUse=1 WtCom= 1.00D+00 WtEn= 0.00D+00
 Coeff-Com: -0.214D-03 0.277D-03 0.419D-03-0.892D-04 0.762D-02 0.349D-01
 Coeff-Com:  0.974D-02-0.140D+00-0.442D+00 0.201D+00 0.133D+01
 Coeff:     -0.214D-03 0.277D-03 0.419D-03-0.892D-04 0.762D-02 0.349D-01
 Coeff:      0.974D-02-0.140D+00-0.442D+00 0.201D+00 0.133D+01
 Gap=     0.036 Goal=   None    Shift=    0.000
 Gap=     0.055 Goal=   None    Shift=    0.000
 RMSDP=7.15D-05 MaxDP=4.04D-03 DE=-3.78D-07 OVMax= 2.17D-03

 Cycle  12  Pass 1  IDiag  1:
 E= -1136.09929422972     Delta-E=       -0.000000318619 Rises=F Damp=F
 DIIS: error= 4.07D-06 at cycle  12 NSaved=  12.
 NSaved=12 IEnMin=12 EnMin= -1136.09929422972     IErMin=12 ErrMin= 4.07D-06
 ErrMax= 4.07D-06  0.00D+00 EMaxC= 1.00D-01 BMatC= 6.65D-09 BMatP= 1.82D-08
 IDIUse=1 WtCom= 1.00D+00 WtEn= 0.00D+00
 Coeff-Com: -0.621D-04 0.719D-04-0.426D-03-0.852D-03 0.334D-02 0.196D-01
 Coeff-Com:  0.484D-01 0.148D-01-0.297D+00-0.358D+00 0.458D+00 0.111D+01
 Coeff:     -0.621D-04 0.719D-04-0.426D-03-0.852D-03 0.334D-02 0.196D-01
 Coeff:      0.484D-01 0.148D-01-0.297D+00-0.358D+00 0.458D+00 0.111D+01
 Gap=     0.036 Goal=   None    Shift=    0.000
 Gap=     0.055 Goal=   None    Shift=    0.000
 RMSDP=4.62D-05 MaxDP=3.19D-03 DE=-3.19D-07 OVMax= 1.36D-03

 Cycle  13  Pass 1  IDiag  1:
 E= -1136.09929433810     Delta-E=       -0.000000108381 Rises=F Damp=F
 DIIS: error= 1.76D-06 at cycle  13 NSaved=  13.
 NSaved=13 IEnMin=13 EnMin= -1136.09929433810     IErMin=13 ErrMin= 1.76D-06
 ErrMax= 1.76D-06  0.00D+00 EMaxC= 1.00D-01 BMatC= 1.48D-09 BMatP= 6.65D-09
 IDIUse=1 WtCom= 1.00D+00 WtEn= 0.00D+00
 Coeff-Com:  0.476D-04-0.640D-04-0.348D-03-0.246D-03-0.150D-02-0.502D-02
 Coeff-Com:  0.136D-01 0.486D-01 0.469D-01-0.159D+00-0.262D+00 0.262D+00
 Coeff-Com:  0.106D+01
 Coeff:      0.476D-04-0.640D-04-0.348D-03-0.246D-03-0.150D-02-0.502D-02
 Coeff:      0.136D-01 0.486D-01 0.469D-01-0.159D+00-0.262D+00 0.262D+00
 Coeff:      0.106D+01
 Gap=     0.036 Goal=   None    Shift=    0.000
 Gap=     0.055 Goal=   None    Shift=    0.000
 RMSDP=1.86D-05 MaxDP=1.05D-03 DE=-1.08D-07 OVMax= 5.54D-04

 Cycle  14  Pass 1  IDiag  1:
 E= -1136.09929435838     Delta-E=       -0.000000020278 Rises=F Damp=F
 DIIS: error= 7.53D-07 at cycle  14 NSaved=  14.
 NSaved=14 IEnMin=14 EnMin= -1136.09929435838     IErMin=14 ErrMin= 7.53D-07
 ErrMax= 7.53D-07  0.00D+00 EMaxC= 1.00D-01 BMatC= 2.87D-10 BMatP= 1.48D-09
 IDIUse=1 WtCom= 1.00D+00 WtEn= 0.00D+00
 Coeff-Com:  0.262D-04-0.331D-04 0.707D-05 0.115D-03-0.952D-03-0.489D-02
 Coeff-Com: -0.104D-01 0.569D-03 0.719D-01 0.671D-01-0.136D+00-0.218D+00
 Coeff-Com:  0.745D-01 0.116D+01
 Coeff:      0.262D-04-0.331D-04 0.707D-05 0.115D-03-0.952D-03-0.489D-02
 Coeff:     -0.104D-01 0.569D-03 0.719D-01 0.671D-01-0.136D+00-0.218D+00
 Coeff:      0.745D-01 0.116D+01
 Gap=     0.036 Goal=   None    Shift=    0.000
 Gap=     0.055 Goal=   None    Shift=    0.000
 RMSDP=9.27D-06 MaxDP=5.20D-04 DE=-2.03D-08 OVMax= 2.45D-04

 Cycle  15  Pass 1  IDiag  1:
 E= -1136.09929436212     Delta-E=       -0.000000003743 Rises=F Damp=F
 DIIS: error= 4.73D-07 at cycle  15 NSaved=  15.
 NSaved=15 IEnMin=15 EnMin= -1136.09929436212     IErMin=15 ErrMin= 4.73D-07
 ErrMax= 4.73D-07  0.00D+00 EMaxC= 1.00D-01 BMatC= 7.15D-11 BMatP= 2.87D-10
 IDIUse=1 WtCom= 1.00D+00 WtEn= 0.00D+00
 Coeff-Com: -0.128D-04 0.171D-04 0.131D-03 0.757D-04 0.318D-03 0.116D-02
 Coeff-Com: -0.315D-02-0.119D-01-0.166D-01 0.417D-01 0.669D-01-0.576D-01
 Coeff-Com: -0.268D+00 0.253D-01 0.122D+01
 Coeff:     -0.128D-04 0.171D-04 0.131D-03 0.757D-04 0.318D-03 0.116D-02
 Coeff:     -0.315D-02-0.119D-01-0.166D-01 0.417D-01 0.669D-01-0.576D-01
 Coeff:     -0.268D+00 0.253D-01 0.122D+01
 Gap=     0.036 Goal=   None    Shift=    0.000
 Gap=     0.055 Goal=   None    Shift=    0.000
 RMSDP=5.16D-06 MaxDP=3.13D-04 DE=-3.74D-09 OVMax= 1.07D-04

 Cycle  16  Pass 1  IDiag  1:
 E= -1136.09929436293     Delta-E=       -0.000000000809 Rises=F Damp=F
 DIIS: error= 2.30D-07 at cycle  16 NSaved=  16.
 NSaved=16 IEnMin=16 EnMin= -1136.09929436293     IErMin=16 ErrMin= 2.30D-07
 ErrMax= 2.30D-07  0.00D+00 EMaxC= 1.00D-01 BMatC= 1.44D-11 BMatP= 7.15D-11
 IDIUse=1 WtCom= 1.00D+00 WtEn= 0.00D+00
 Coeff-Com: -0.748D-05 0.958D-05-0.273D-04-0.328D-04 0.244D-03 0.106D-02
 Coeff-Com:  0.310D-02 0.301D-02-0.163D-01-0.201D-01 0.145D-01 0.677D-01
 Coeff-Com:  0.500D-01-0.297D+00-0.326D+00 0.152D+01
 Coeff:     -0.748D-05 0.958D-05-0.273D-04-0.328D-04 0.244D-03 0.106D-02
 Coeff:      0.310D-02 0.301D-02-0.163D-01-0.201D-01 0.145D-01 0.677D-01
 Coeff:      0.500D-01-0.297D+00-0.326D+00 0.152D+01
 Gap=     0.036 Goal=   None    Shift=    0.000
 Gap=     0.055 Goal=   None    Shift=    0.000
 RMSDP=3.28D-06 MaxDP=2.44D-04 DE=-8.09D-10 OVMax= 5.28D-05

 Cycle  17  Pass 1  IDiag  1:
 E= -1136.09929436314     Delta-E=       -0.000000000206 Rises=F Damp=F
 DIIS: error= 9.57D-08 at cycle  17 NSaved=  17.
 NSaved=17 IEnMin=17 EnMin= -1136.09929436314     IErMin=17 ErrMin= 9.57D-08
 ErrMax= 9.57D-08  0.00D+00 EMaxC= 1.00D-01 BMatC= 2.28D-12 BMatP= 1.44D-11
 IDIUse=1 WtCom= 1.00D+00 WtEn= 0.00D+00
 Coeff-Com:  0.467D-05-0.618D-05-0.669D-05-0.134D-05-0.778D-04-0.385D-03
 Coeff-Com: -0.204D-03 0.955D-03 0.420D-02-0.674D-03-0.110D-01-0.635D-03
 Coeff-Com:  0.212D-01 0.429D-01-0.155D+00-0.109D+00 0.121D+01
 Coeff:      0.467D-05-0.618D-05-0.669D-05-0.134D-05-0.778D-04-0.385D-03
 Coeff:     -0.204D-03 0.955D-03 0.420D-02-0.674D-03-0.110D-01-0.635D-03
 Coeff:      0.212D-01 0.429D-01-0.155D+00-0.109D+00 0.121D+01
 Gap=     0.036 Goal=   None    Shift=    0.000
 Gap=     0.055 Goal=   None    Shift=    0.000
 RMSDP=9.84D-07 MaxDP=7.49D-05 DE=-2.06D-10 OVMax= 1.67D-05

 Cycle  18  Pass 1  IDiag  1:
 E= -1136.09929436316     Delta-E=       -0.000000000021 Rises=F Damp=F
 DIIS: error= 4.46D-08 at cycle  18 NSaved=  18.
 NSaved=18 IEnMin=18 EnMin= -1136.09929436316     IErMin=18 ErrMin= 4.46D-08
 ErrMax= 4.46D-08  0.00D+00 EMaxC= 1.00D-01 BMatC= 5.81D-13 BMatP= 2.28D-12
 IDIUse=1 WtCom= 1.00D+00 WtEn= 0.00D+00
 Coeff-Com:  0.206D-05-0.264D-05 0.105D-06 0.283D-05-0.720D-04-0.258D-03
 Coeff-Com: -0.472D-03-0.718D-04 0.376D-02 0.269D-02-0.671D-02-0.102D-01
 Coeff-Com:  0.298D-02 0.563D-01 0.473D-02-0.292D+00 0.346D+00 0.894D+00
 Coeff:      0.206D-05-0.264D-05 0.105D-06 0.283D-05-0.720D-04-0.258D-03
 Coeff:     -0.472D-03-0.718D-04 0.376D-02 0.269D-02-0.671D-02-0.102D-01
 Coeff:      0.298D-02 0.563D-01 0.473D-02-0.292D+00 0.346D+00 0.894D+00
 Gap=     0.036 Goal=   None    Shift=    0.000
 Gap=     0.055 Goal=   None    Shift=    0.000
 RMSDP=3.70D-07 MaxDP=2.34D-05 DE=-2.14D-11 OVMax= 6.07D-06

 Cycle  19  Pass 1  IDiag  1:
 E= -1136.09929436317     Delta-E=       -0.000000000008 Rises=F Damp=F
 DIIS: error= 1.75D-08 at cycle  19 NSaved=  19.
 NSaved=19 IEnMin=19 EnMin= -1136.09929436317     IErMin=19 ErrMin= 1.75D-08
 ErrMax= 1.75D-08  0.00D+00 EMaxC= 1.00D-01 BMatC= 1.23D-13 BMatP= 5.81D-13
 IDIUse=1 WtCom= 1.00D+00 WtEn= 0.00D+00
 Coeff-Com: -0.700D-06 0.924D-06 0.216D-05 0.306D-08 0.139D-04 0.623D-04
 Coeff-Com: -0.119D-03-0.481D-03-0.602D-03 0.170D-02 0.240D-02-0.333D-02
 Coeff-Com: -0.106D-01 0.869D-02 0.555D-01-0.768D-01-0.147D+00 0.113D+00
 Coeff-Com:  0.106D+01
 Coeff:     -0.700D-06 0.924D-06 0.216D-05 0.306D-08 0.139D-04 0.623D-04
 Coeff:     -0.119D-03-0.481D-03-0.602D-03 0.170D-02 0.240D-02-0.333D-02
 Coeff:     -0.106D-01 0.869D-02 0.555D-01-0.768D-01-0.147D+00 0.113D+00
 Coeff:      0.106D+01
 Gap=     0.036 Goal=   None    Shift=    0.000
 Gap=     0.055 Goal=   None    Shift=    0.000
 RMSDP=1.64D-07 MaxDP=8.78D-06 DE=-8.19D-12 OVMax= 2.34D-06

 Cycle  20  Pass 1  IDiag  1:
 E= -1136.09929436315     Delta-E=        0.000000000017 Rises=F Damp=F
 DIIS: error= 8.54D-09 at cycle  20 NSaved=  20.
 NSaved=20 IEnMin=19 EnMin= -1136.09929436317     IErMin=20 ErrMin= 8.54D-09
 ErrMax= 8.54D-09  0.00D+00 EMaxC= 1.00D-01 BMatC= 2.69D-14 BMatP= 1.23D-13
 IDIUse=1 WtCom= 1.00D+00 WtEn= 0.00D+00
 Coeff-Com: -0.337D-06 0.437D-06 0.130D-05 0.813D-06 0.135D-04 0.299D-04
 Coeff-Com:  0.608D-04 0.356D-04-0.606D-03-0.295D-03 0.109D-02 0.173D-02
 Coeff-Com: -0.836D-03-0.101D-01-0.206D-02 0.641D-01-0.917D-01-0.223D+00
 Coeff-Com:  0.854D-01 0.118D+01
 Coeff:     -0.337D-06 0.437D-06 0.130D-05 0.813D-06 0.135D-04 0.299D-04
 Coeff:      0.608D-04 0.356D-04-0.606D-03-0.295D-03 0.109D-02 0.173D-02
 Coeff:     -0.836D-03-0.101D-01-0.206D-02 0.641D-01-0.917D-01-0.223D+00
 Coeff:      0.854D-01 0.118D+01
 Gap=     0.036 Goal=   None    Shift=    0.000
 Gap=     0.055 Goal=   None    Shift=    0.000
 RMSDP=1.02D-07 MaxDP=5.05D-06 DE= 1.68D-11 OVMax= 1.73D-06

 Cycle  21  Pass 1  IDiag  1:
 E= -1136.09929436316     Delta-E=       -0.000000000011 Rises=F Damp=F
 DIIS: error= 3.25D-09 at cycle  21 NSaved=  20.
 NSaved=20 IEnMin=18 EnMin= -1136.09929436317     IErMin=20 ErrMin= 3.25D-09
 ErrMax= 3.25D-09  0.00D+00 EMaxC= 1.00D-01 BMatC= 2.81D-15 BMatP= 2.69D-14
 IDIUse=1 WtCom= 1.00D+00 WtEn= 0.00D+00
 Large coefficients: NSaved= 20 BigCof=    0.00 CofMax=   10.00 Det=-4.37D-15
 Inversion failed.  Reducing to 19 matrices.
 Large coefficients: NSaved= 19 BigCof=    0.00 CofMax=   10.00 Det=-4.45D-15
 Inversion failed.  Reducing to 18 matrices.
 Large coefficients: NSaved= 18 BigCof=    0.00 CofMax=   10.00 Det=-4.50D-15
 Inversion failed.  Reducing to 17 matrices.
 Large coefficients: NSaved= 17 BigCof=    0.00 CofMax=   10.00 Det=-4.52D-15
 Inversion failed.  Reducing to 16 matrices.
 Large coefficients: NSaved= 16 BigCof=    0.00 CofMax=   10.00 Det=-5.40D-15
 Inversion failed.  Reducing to 15 matrices.
 Coeff-Com:  0.347D-05 0.755D-05-0.305D-04-0.370D-04 0.115D-04 0.733D-04
 Coeff-Com:  0.684D-03-0.120D-02-0.351D-02 0.702D-02 0.184D-01-0.136D-01
 Coeff-Com: -0.127D+00-0.398D-01 0.116D+01
 Coeff:      0.347D-05 0.755D-05-0.305D-04-0.370D-04 0.115D-04 0.733D-04
 Coeff:      0.684D-03-0.120D-02-0.351D-02 0.702D-02 0.184D-01-0.136D-01
 Coeff:     -0.127D+00-0.398D-01 0.116D+01
 Gap=     0.036 Goal=   None    Shift=    0.000
 Gap=     0.055 Goal=   None    Shift=    0.000
 RMSDP=3.41D-08 MaxDP=2.45D-06 DE=-1.09D-11 OVMax= 3.77D-07

 Cycle  22  Pass 1  IDiag  1:
 E= -1136.09929436317     Delta-E=       -0.000000000003 Rises=F Damp=F
 DIIS: error= 1.47D-09 at cycle  22 NSaved=  16.
 NSaved=16 IEnMin=13 EnMin= -1136.09929436317     IErMin=16 ErrMin= 1.47D-09
 ErrMax= 1.47D-09  0.00D+00 EMaxC= 1.00D-01 BMatC= 8.52D-16 BMatP= 2.81D-15
 IDIUse=1 WtCom= 1.00D+00 WtEn= 0.00D+00
 Large coefficients: NSaved= 16 BigCof=    0.00 CofMax=   10.00 Det=-1.26D-15
 Inversion failed.  Reducing to 15 matrices.
 Coeff-Com: -0.805D-05 0.299D-04-0.565D-06-0.700D-04-0.917D-04 0.161D-03
 Coeff-Com:  0.969D-03-0.782D-03-0.714D-02 0.182D-01 0.320D-01-0.387D-01
 Coeff-Com: -0.206D+00 0.193D+00 0.101D+01
 Coeff:     -0.805D-05 0.299D-04-0.565D-06-0.700D-04-0.917D-04 0.161D-03
 Coeff:      0.969D-03-0.782D-03-0.714D-02 0.182D-01 0.320D-01-0.387D-01
 Coeff:     -0.206D+00 0.193D+00 0.101D+01
 Gap=     0.036 Goal=   None    Shift=    0.000
 Gap=     0.055 Goal=   None    Shift=    0.000
 RMSDP=1.82D-08 MaxDP=1.10D-06 DE=-2.73D-12 OVMax= 1.94D-07

 Cycle  23  Pass 1  IDiag  1:
 E= -1136.09929436315     Delta-E=        0.000000000013 Rises=F Damp=F
 DIIS: error= 6.19D-10 at cycle  23 NSaved=  16.
 NSaved=16 IEnMin=12 EnMin= -1136.09929436317     IErMin=16 ErrMin= 6.19D-10
 ErrMax= 6.19D-10  0.00D+00 EMaxC= 1.00D-01 BMatC= 1.11D-16 BMatP= 8.52D-16
 IDIUse=1 WtCom= 1.00D+00 WtEn= 0.00D+00
 Large coefficients: NSaved= 16 BigCof=    0.00 CofMax=   10.00 Det=-2.31D-16
 Inversion failed.  Reducing to 15 matrices.
 Coeff-Com: -0.115D-04 0.109D-05 0.414D-04 0.450D-04-0.269D-03-0.613D-04
 Coeff-Com:  0.112D-02-0.182D-03-0.716D-02-0.717D-03 0.331D-01 0.160D-01
 Coeff-Com: -0.238D+00 0.354D-01 0.116D+01
 Coeff:     -0.115D-04 0.109D-05 0.414D-04 0.450D-04-0.269D-03-0.613D-04
 Coeff:      0.112D-02-0.182D-03-0.716D-02-0.717D-03 0.331D-01 0.160D-01
 Coeff:     -0.238D+00 0.354D-01 0.116D+01
 Gap=     0.036 Goal=   None    Shift=    0.000
 Gap=     0.055 Goal=   None    Shift=    0.000
 RMSDP=1.97D-08 MaxDP=1.23D-06 DE= 1.32D-11 OVMax= 6.50D-08

 Cycle  24  Pass 1  IDiag  1:
 E= -1136.09929436316     Delta-E=       -0.000000000005 Rises=F Damp=F
 DIIS: error= 2.12D-10 at cycle  24 NSaved=  16.
 NSaved=16 IEnMin=11 EnMin= -1136.09929436317     IErMin=16 ErrMin= 2.12D-10
 ErrMax= 2.12D-10  0.00D+00 EMaxC= 1.00D-01 BMatC= 1.52D-17 BMatP= 1.11D-16
 IDIUse=1 WtCom= 1.00D+00 WtEn= 0.00D+00
 Large coefficients: NSaved= 16 BigCof=    0.00 CofMax=   10.00 Det=-3.24D-17
 Inversion failed.  Reducing to 15 matrices.
 Coeff-Com:  0.770D-05 0.213D-05-0.201D-04-0.278D-04-0.681D-05 0.330D-03
 Coeff-Com: -0.582D-04-0.206D-02-0.129D-02 0.845D-02 0.147D-01-0.500D-01
 Coeff-Com: -0.983D-01 0.120D+00 0.101D+01
 Coeff:      0.770D-05 0.213D-05-0.201D-04-0.278D-04-0.681D-05 0.330D-03
 Coeff:     -0.582D-04-0.206D-02-0.129D-02 0.845D-02 0.147D-01-0.500D-01
 Coeff:     -0.983D-01 0.120D+00 0.101D+01
 Gap=     0.036 Goal=   None    Shift=    0.000
 Gap=     0.055 Goal=   None    Shift=    0.000
 RMSDP=6.22D-09 MaxDP=3.91D-07 DE=-5.46D-12 OVMax= 1.62D-08

 SCF Done:  E(UB3LYP) =  -1136.09929436     A.U. after   24 cycles
            NFock= 24  Conv=0.62D-08     -V/T= 2.0026
 <Sx>= 0.0000 <Sy>= 0.0000 <Sz>= 0.5000 <S**2>= 0.7602 S= 0.5051
 <L.S>= 0.000000000000E+00
 KE= 1.133186877726D+03 PE=-3.425713644973D+03 EE= 8.082263408022D+02
 Annihilation of the first spin contaminant:
 S**2 before annihilation     0.7602,   after     0.7501
 Leave Link  502 at Mon Nov 13 16:36:26 2023, MaxMem=  1879048192 cpu:             225.6 elap:              19.7
 (Enter /home/sekinelabo/g16/l601.exe)
 Copying SCF densities to generalized density rwf, IOpCl= 1 IROHF=0.

 **********************************************************************

            Population analysis using the SCF Density.

 **********************************************************************

 Orbital symmetries:
 Alpha Orbitals:
       Occupied  (A) (A) (A) (A) (A) (A) (A) (A) (A) (A) (A) (A)
                 (A) (A) (A) (A) (A) (A) (A) (A) (A) (A) (A) (A)
                 (A) (A) (A) (A) (A) (A) (A) (A) (A) (A) (A) (A)
                 (A) (A) (A)
       Virtual   (A) (A) (A) (A) (A) (A) (A) (A) (A) (A) (A) (A)
                 (A) (A) (A) (A) (A) (A) (A) (A) (A) (A) (A) (A)
                 (A) (A) (A) (A) (A) (A) (A) (A) (A) (A) (A) (A)
                 (A) (A) (A) (A) (A) (A) (A) (A) (A) (A) (A) (A)
                 (A) (A) (A) (A) (A) (A) (A) (A) (A) (A) (A) (A)
                 (A) (A) (A) (A) (A) (A) (A) (A) (A) (A) (A) (A)
                 (A) (A) (A) (A) (A) (A) (A) (A) (A) (A) (A) (A)
                 (A) (A) (A) (A) (A) (A) (A) (A) (A) (A) (A) (A)
                 (A) (A) (A) (A) (A) (A) (A) (A) (A) (A) (A) (A)
                 (A) (A) (A) (A) (A) (A) (A) (A) (A) (A) (A) (A)
                 (A) (A) (A) (A) (A) (A) (A) (A) (A) (A) (A) (A)
                 (A) (A) (A) (A) (A) (A) (A) (A) (A) (A) (A) (A)
                 (A) (A) (A) (A) (A) (A) (A) (A) (A) (A) (A) (A)
                 (A) (A) (A) (A) (A) (A) (A) (A) (A) (A) (A) (A)
                 (A) (A) (A)
 Beta  Orbitals:
       Occupied  (A) (A) (A) (A) (A) (A) (A) (A) (A) (A) (A) (A)
                 (A) (A) (A) (A) (A) (A) (A) (A) (A) (A) (A) (A)
                 (A) (A) (A) (A) (A) (A) (A) (A) (A) (A) (A) (A)
                 (A) (A)
       Virtual   (A) (A) (A) (A) (A) (A) (A) (A) (A) (A) (A) (A)
                 (A) (A) (A) (A) (A) (A) (A) (A) (A) (A) (A) (A)
                 (A) (A) (A) (A) (A) (A) (A) (A) (A) (A) (A) (A)
                 (A) (A) (A) (A) (A) (A) (A) (A) (A) (A) (A) (A)
                 (A) (A) (A) (A) (A) (A) (A) (A) (A) (A) (A) (A)
                 (A) (A) (A) (A) (A) (A) (A) (A) (A) (A) (A) (A)
                 (A) (A) (A) (A) (A) (A) (A) (A) (A) (A) (A) (A)
                 (A) (A) (A) (A) (A) (A) (A) (A) (A) (A) (A) (A)
                 (A) (A) (A) (A) (A) (A) (A) (A) (A) (A) (A) (A)
                 (A) (A) (A) (A) (A) (A) (A) (A) (A) (A) (A) (A)
                 (A) (A) (A) (A) (A) (A) (A) (A) (A) (A) (A) (A)
                 (A) (A) (A) (A) (A) (A) (A) (A) (A) (A) (A) (A)
                 (A) (A) (A) (A) (A) (A) (A) (A) (A) (A) (A) (A)
                 (A) (A) (A) (A) (A) (A) (A) (A) (A) (A) (A) (A)
                 (A) (A) (A) (A)
 The electronic state is 2-A.
 Alpha  occ. eigenvalues --  -38.44557 -38.44447 -38.44235 -38.44016 -38.43954
 Alpha  occ. eigenvalues --  -38.43789 -38.43126  -2.20415  -2.20348  -2.20137
 Alpha  occ. eigenvalues --   -2.20113  -2.19969  -2.19796  -2.19200  -1.14171
 Alpha  occ. eigenvalues --   -1.14145  -1.14048  -1.14047  -1.13993  -1.13984
 Alpha  occ. eigenvalues --   -1.13950  -1.13835  -1.13794  -1.13753  -1.13742
 Alpha  occ. eigenvalues --   -1.13714  -1.13698  -1.13596  -1.13554  -1.13479
 Alpha  occ. eigenvalues --   -1.13406  -1.13344  -1.12894  -1.12844  -1.12809
 Alpha  occ. eigenvalues --   -0.19535  -0.13871  -0.12548  -0.10553
 Alpha virt. eigenvalues --   -0.06951  -0.05532  -0.03977  -0.03170  -0.02640
 Alpha virt. eigenvalues --   -0.02279  -0.01840  -0.01421  -0.00476  -0.00255
 Alpha virt. eigenvalues --    0.00031   0.00239   0.00597   0.00682   0.00800
 Alpha virt. eigenvalues --    0.00944   0.01050   0.01206   0.01268   0.01386
 Alpha virt. eigenvalues --    0.01512   0.01603   0.01808   0.01928   0.02050
 Alpha virt. eigenvalues --    0.02123   0.02280   0.02472   0.02589   0.02651
 Alpha virt. eigenvalues --    0.02737   0.02875   0.02962   0.03075   0.03131
 Alpha virt. eigenvalues --    0.03307   0.03376   0.03483   0.03582   0.03748
 Alpha virt. eigenvalues --    0.03914   0.04266   0.04485   0.04733   0.04918
 Alpha virt. eigenvalues --    0.05166   0.05457   0.05645   0.05916   0.06136
 Alpha virt. eigenvalues --    0.06384   0.06735   0.06972   0.07141   0.07415
 Alpha virt. eigenvalues --    0.08047   0.08164   0.08395   0.08521   0.08917
 Alpha virt. eigenvalues --    0.08986   0.09616   0.09666   0.11125   0.11573
 Alpha virt. eigenvalues --    0.11690   0.11938   0.12919   0.13154   0.13542
 Alpha virt. eigenvalues --    0.13670   0.13904   0.14510   0.14757   0.15315
 Alpha virt. eigenvalues --    0.15728   0.16101   0.16897   0.18164   0.19766
 Alpha virt. eigenvalues --    0.24413   0.26865   0.27155   0.27548   0.28757
 Alpha virt. eigenvalues --    0.30267   0.31164   0.32433   0.33583   0.35017
 Alpha virt. eigenvalues --    0.35555   0.35815   0.36569   0.36853   0.38275
 Alpha virt. eigenvalues --    0.38615   0.39213   0.40480   0.41511   0.41611
 Alpha virt. eigenvalues --    0.42495   0.43067   0.43629   0.43657   0.44512
 Alpha virt. eigenvalues --    0.44665   0.44953   0.45258   0.45401   0.45912
 Alpha virt. eigenvalues --    0.46262   0.47369   0.47726   0.48164   0.48541
 Alpha virt. eigenvalues --    0.49533   0.50552   0.51301   0.51689   0.52148
 Alpha virt. eigenvalues --    0.52829   0.53489   0.54453   0.56062   0.57183
 Alpha virt. eigenvalues --    0.58778   0.66844   0.67329   0.70758   0.71732
 Alpha virt. eigenvalues --    0.72054   0.72933   0.73933   0.76592   0.76914
 Alpha virt. eigenvalues --    0.79762   2.09568   2.12370   2.16375   2.21734
 Alpha virt. eigenvalues --    2.23800   2.28091   2.33325   4.40477   4.41280
 Alpha virt. eigenvalues --    4.42124   4.42843   4.43324   4.43584   4.44268
 Alpha virt. eigenvalues --    4.45302   4.45818   4.46269   4.47688   4.51719
 Alpha virt. eigenvalues --    4.54979   4.56890   4.60333   4.61546   4.68804
 Alpha virt. eigenvalues --    4.72344   4.73848   4.75022   4.80089  96.30196
 Alpha virt. eigenvalues --   96.34394  96.39703  96.46776  96.50018  96.54784
 Alpha virt. eigenvalues --   96.62477
  Beta  occ. eigenvalues --  -38.44559 -38.44418 -38.44227 -38.43991 -38.43910
  Beta  occ. eigenvalues --  -38.43726 -38.43106  -2.20366  -2.20351  -2.20120
  Beta  occ. eigenvalues --   -2.20077  -2.19891  -2.19679  -2.19170  -1.14144
  Beta  occ. eigenvalues --   -1.14116  -1.14051  -1.13994  -1.13988  -1.13986
  Beta  occ. eigenvalues --   -1.13924  -1.13805  -1.13745  -1.13728  -1.13705
  Beta  occ. eigenvalues --   -1.13687  -1.13652  -1.13529  -1.13488  -1.13401
  Beta  occ. eigenvalues --   -1.13327  -1.13265  -1.12877  -1.12803  -1.12759
  Beta  occ. eigenvalues --   -0.18750  -0.13685  -0.12401
  Beta virt. eigenvalues --   -0.06873  -0.06404  -0.05319  -0.03757  -0.02700
  Beta virt. eigenvalues --   -0.02382  -0.01978  -0.01520  -0.00844  -0.00428
  Beta virt. eigenvalues --    0.00042   0.00137   0.00312   0.00723   0.00823
  Beta virt. eigenvalues --    0.00844   0.01020   0.01211   0.01276   0.01329
  Beta virt. eigenvalues --    0.01460   0.01679   0.01727   0.01867   0.01966
  Beta virt. eigenvalues --    0.02108   0.02318   0.02380   0.02535   0.02653
  Beta virt. eigenvalues --    0.02706   0.02864   0.02928   0.03048   0.03083
  Beta virt. eigenvalues --    0.03212   0.03368   0.03458   0.03547   0.03712
  Beta virt. eigenvalues --    0.03783   0.03998   0.04427   0.04636   0.04903
  Beta virt. eigenvalues --    0.05007   0.05307   0.05509   0.05764   0.06029
  Beta virt. eigenvalues --    0.06263   0.06653   0.06822   0.07003   0.07372
  Beta virt. eigenvalues --    0.07494   0.08153   0.08295   0.08603   0.08685
  Beta virt. eigenvalues --    0.09040   0.09114   0.09651   0.09841   0.11392
  Beta virt. eigenvalues --    0.11864   0.12007   0.12306   0.13159   0.13334
  Beta virt. eigenvalues --    0.13660   0.13968   0.14098   0.14789   0.14948
  Beta virt. eigenvalues --    0.15480   0.15881   0.16186   0.17304   0.18455
  Beta virt. eigenvalues --    0.19967   0.24534   0.27096   0.27471   0.27952
  Beta virt. eigenvalues --    0.28935   0.30777   0.31431   0.32713   0.33727
  Beta virt. eigenvalues --    0.35174   0.35639   0.35884   0.36806   0.37162
  Beta virt. eigenvalues --    0.38446   0.38871   0.39632   0.40591   0.41704
  Beta virt. eigenvalues --    0.41730   0.42880   0.43310   0.43739   0.43895
  Beta virt. eigenvalues --    0.44649   0.44826   0.45082   0.45400   0.45570
  Beta virt. eigenvalues --    0.46179   0.46423   0.47560   0.47940   0.48281
  Beta virt. eigenvalues --    0.48697   0.49753   0.50823   0.51461   0.51796
  Beta virt. eigenvalues --    0.52363   0.53024   0.53756   0.54750   0.56241
  Beta virt. eigenvalues --    0.57401   0.58928   0.66956   0.67487   0.71015
  Beta virt. eigenvalues --    0.71820   0.72146   0.73115   0.74040   0.76627
  Beta virt. eigenvalues --    0.77018   0.79800   2.09644   2.12380   2.16464
  Beta virt. eigenvalues --    2.21909   2.24008   2.28147   2.33417   4.40502
  Beta virt. eigenvalues --    4.41322   4.42205   4.42897   4.43402   4.43635
  Beta virt. eigenvalues --    4.44325   4.45322   4.45844   4.46299   4.47723
  Beta virt. eigenvalues --    4.51773   4.55050   4.56974   4.60423   4.61573
  Beta virt. eigenvalues --    4.68832   4.72379   4.73900   4.75049   4.80117
  Beta virt. eigenvalues --   96.30223  96.34397  96.39736  96.46825  96.50084
  Beta virt. eigenvalues --   96.54808  96.62514
          Condensed to atoms (all electrons):
               1          2          3          4          5          6
     1  Na  17.407036   1.732006  -2.153576   1.411880   0.315861  -4.043347
     2  Na   1.732006  12.540420  -1.051040  -0.940733   0.339518  -1.218676
     3  Na  -2.153576  -1.051040  11.840068  -0.317763   0.003300   1.720934
     4  Na   1.411880  -0.940733  -0.317763  13.427657   0.377749  -1.510060
     5  Na   0.315861   0.339518   0.003300   0.377749  14.848274  -2.683743
     6  Na  -4.043347  -1.218676   1.720934  -1.510060  -2.683743  19.764255
     7  Na  -5.489010  -0.749427   1.289869  -2.309364  -3.339599   1.023568
               7
     1  Na  -5.489010
     2  Na  -0.749427
     3  Na   1.289869
     4  Na  -2.309364
     5  Na  -3.339599
     6  Na   1.023568
     7  Na  22.355598
          Atomic-Atomic Spin Densities.
               1          2          3          4          5          6
     1  Na   0.094202  -0.051468   0.104428  -0.333414  -0.881398   0.548928
     2  Na  -0.051468   0.984692  -0.311647  -0.378197   0.839261  -0.787337
     3  Na   0.104428  -0.311647   0.049867   0.402946   0.021988  -0.067174
     4  Na  -0.333414  -0.378197   0.402946  -0.788782  -1.047411   1.506427
     5  Na  -0.881398   0.839261   0.021988  -1.047411   0.280896   0.210336
     6  Na   0.548928  -0.787337  -0.067174   1.506427   0.210336  -1.267348
     7  Na   0.793773  -0.278478  -0.172111   1.163872   1.085565  -0.191438
               7
     1  Na   0.793773
     2  Na  -0.278478
     3  Na  -0.172111
     4  Na   1.163872
     5  Na   1.085565
     6  Na  -0.191438
     7  Na  -2.708423
 Mulliken charges and spin densities:
               1          2
     1  Na   1.819150   0.275049
     2  Na   0.347933   0.016825
     3  Na  -0.331792   0.028297
     4  Na   0.860635   0.525440
     5  Na   1.138639   0.509236
     6  Na  -2.052931  -0.047607
     7  Na  -1.781634  -0.307240
 Sum of Mulliken charges =  -0.00000   1.00000
 Mulliken charges and spin densities with hydrogens summed into heavy atoms:
               1          2
     1  Na   1.819150   0.275049
     2  Na   0.347933   0.016825
     3  Na  -0.331792   0.028297
     4  Na   0.860635   0.525440
     5  Na   1.138639   0.509236
     6  Na  -2.052931  -0.047607
     7  Na  -1.781634  -0.307240
 Electronic spatial extent (au):  <R**2>=           2542.3598
 Charge=             -0.0000 electrons
 Dipole moment (field-independent basis, Debye):
    X=              0.3728    Y=             -0.0976    Z=             -0.3727  Tot=              0.5361
 Quadrupole moment (field-independent basis, Debye-Ang):
   XX=            -54.3827   YY=            -64.7488   ZZ=            -73.0980
   XY=             -1.1523   XZ=              1.3880   YZ=             -2.7980
 Traceless Quadrupole moment (field-independent basis, Debye-Ang):
   XX=              9.6938   YY=             -0.6723   ZZ=             -9.0215
   XY=             -1.1523   XZ=              1.3880   YZ=             -2.7980
 Octapole moment (field-independent basis, Debye-Ang**2):
  XXX=            -16.4057  YYY=             -0.6241  ZZZ=             -2.4332  XYY=              3.2377
  XXY=            -37.4478  XXZ=              2.0760  XZZ=              1.5263  YZZ=             10.5738
  YYZ=             -8.8400  XYZ=             -3.9368
 Hexadecapole moment (field-independent basis, Debye-Ang**3):
 XXXX=          -1971.9224 YYYY=          -1287.5272 ZZZZ=           -638.3680 XXXY=             59.4126
 XXXZ=             19.9987 YYYX=            -47.5819 YYYZ=            -32.3306 ZZZX=              7.9624
 ZZZY=            -12.3021 XXYY=           -552.4929 XXZZ=           -550.1686 YYZZ=           -291.4274
 XXYZ=            -45.2709 YYXZ=             15.3209 ZZXY=            -16.4274
 N-N= 3.482011320818D+02 E-N=-3.425713644946D+03  KE= 1.133186877726D+03
                          Isotropic Fermi Contact Couplings
        Atom                 a.u.       MegaHertz       Gauss      10(-4) cm-1
     1  Na(23)             0.26689     315.73462     112.66197     105.31773
     2  Na(23)             0.08230      97.36826      34.74342      32.47856
     3  Na(23)             0.02467      29.18176      10.41278       9.73399
     4  Na(23)             0.00295       3.48753       1.24444       1.16331
     5  Na(23)             0.14500     171.54166      61.21033      57.22014
     6  Na(23)             0.00495       5.85011       2.08747       1.95139
     7  Na(23)            -0.00998     -11.80496      -4.21230      -3.93771
 --------------------------------------------------------
       Center         ----  Spin Dipole Couplings  ----
                      3XX-RR        3YY-RR        3ZZ-RR
 --------------------------------------------------------
     1   Atom        0.004108      0.000239     -0.004347
     2   Atom       -0.014642     -0.000557      0.015198
     3   Atom       -0.005532      0.001265      0.004267
     4   Atom       -0.026258     -0.041366      0.067624
     5   Atom       -0.014602      0.014587      0.000014
     6   Atom       -0.025844     -0.034921      0.060766
     7   Atom       -0.000676     -0.000957      0.001633
 --------------------------------------------------------
                        XY            XZ            YZ
 --------------------------------------------------------
     1   Atom       -0.000576      0.001825     -0.007124
     2   Atom       -0.007975      0.010879     -0.021333
     3   Atom       -0.000318      0.000131      0.006358
     4   Atom        0.006364      0.041760      0.009671
     5   Atom       -0.005810     -0.008052      0.029223
     6   Atom       -0.009561     -0.033255      0.012169
     7   Atom        0.000663      0.000843      0.001771
 --------------------------------------------------------


 ---------------------------------------------------------------------------------
              Anisotropic Spin Dipole Couplings in Principal Axis System
 ---------------------------------------------------------------------------------

       Atom             a.u.   MegaHertz   Gauss  10(-4) cm-1        Axes

              Baa    -0.0096    -1.360    -0.485    -0.454 -0.0833  0.5799  0.8104
     1 Na(23) Bbb     0.0032     0.447     0.159     0.149  0.8249  0.4964 -0.2704
              Bcc     0.0065     0.914     0.326     0.305 -0.5591  0.6460 -0.5198
 
              Baa    -0.0184    -2.602    -0.929    -0.868  0.9583  0.2372 -0.1595
     2 Na(23) Bbb    -0.0154    -2.173    -0.775    -0.725 -0.0992  0.7993  0.5927
              Bcc     0.0338     4.775     1.704     1.593  0.2681 -0.5522  0.7894
 
              Baa    -0.0056    -0.790    -0.282    -0.263  0.9839  0.1438 -0.1058
     3 Na(23) Bbb    -0.0037    -0.523    -0.187    -0.175 -0.1784  0.7708 -0.6116
              Bcc     0.0093     1.313     0.469     0.438 -0.0064  0.6207  0.7840
 
              Baa    -0.0448    -6.321    -2.256    -2.109 -0.6678  0.7207  0.1861
     4 Na(23) Bbb    -0.0398    -5.615    -2.003    -1.873  0.6538  0.6875 -0.3162
              Bcc     0.0845    11.936     4.259     3.982  0.3558  0.0895  0.9303
 
              Baa    -0.0238    -3.362    -1.200    -1.122  0.3370 -0.5374  0.7731
     5 Na(23) Bbb    -0.0153    -2.161    -0.771    -0.721  0.9251  0.3417 -0.1657
              Bcc     0.0391     5.524     1.971     1.842 -0.1752  0.7710  0.6123
 
              Baa    -0.0421    -5.946    -2.122    -1.983  0.7067  0.6922  0.1466
     6 Na(23) Bbb    -0.0319    -4.507    -1.608    -1.503 -0.6287  0.7093 -0.3187
              Bcc     0.0740    10.453     3.730     3.487 -0.3246  0.1331  0.9364
 
              Baa    -0.0019    -0.268    -0.096    -0.090 -0.2101  0.8933 -0.3974
     7 Na(23) Bbb    -0.0009    -0.134    -0.048    -0.045  0.9346  0.0643 -0.3497
              Bcc     0.0028     0.402     0.143     0.134  0.2868  0.4449  0.8484
 

 ---------------------------------------------------------------------------------

 No NMR shielding tensors so no spin-rotation constants.
 Leave Link  601 at Mon Nov 13 16:36:27 2023, MaxMem=  1879048192 cpu:               2.6 elap:               0.2
 (Enter /home/sekinelabo/g16/l701.exe)
 ... and contract with generalized density number  0.
 Compute integral first derivatives.
 Leave Link  701 at Mon Nov 13 16:36:27 2023, MaxMem=  1879048192 cpu:               1.9 elap:               0.1
 (Enter /home/sekinelabo/g16/l702.exe)
 L702 exits ... SP integral derivatives will be done elsewhere.
 Leave Link  702 at Mon Nov 13 16:36:27 2023, MaxMem=  1879048192 cpu:               0.4 elap:               0.0
 (Enter /home/sekinelabo/g16/l703.exe)
 Integral derivatives from FoFJK, PRISM(SPDF).
 Compute integral first derivatives, UseDBF=F ICtDFT=           0.
 Calling FoFJK, ICntrl=      2127 FMM=F ISym2X=0 I1Cent= 0 IOpClX= 1 NMat=1 NMatS=1 NMatT=0.
 FoFJK:  IHMeth= 1 ICntrl=    2127 DoSepK=F KAlg= 0 I1Cent=           0 FoldK=F
 IRaf=         0 NMat=       1 IRICut=       1 DoRegI=T DoRafI=F ISym2E= 0 IDoP0=0 IntGTp=1.
 FoFCou: FMM=F IPFlag=           0 FMFlag=      100000 FMFlg1=         800
         NFxFlg=           0 DoJE=F BraDBF=F KetDBF=F FulRan=T
         wScrn=  0.000000 ICntrl=      2127 IOpCl=  1 I1Cent=           0 NGrid=           0
         NMat0=    1 NMatS0=      1 NMatT0=    0 NMatD0=    1 NMtDS0=    0 NMtDT0=    0
 Symmetry not used in FoFCou.
 Leave Link  703 at Mon Nov 13 16:36:29 2023, MaxMem=  1879048192 cpu:              34.8 elap:               2.2
 (Enter /home/sekinelabo/g16/l716.exe)
 Dipole        = 1.46688602D-01-3.83872579D-02-1.46612099D-01
 ***** Axes restored to original set *****
 -------------------------------------------------------------------
 Center     Atomic                   Forces (Hartrees/Bohr)
 Number     Number              X              Y              Z
 -------------------------------------------------------------------
      1       11           0.000806525    0.007129552    0.014684142
      2       11          -0.004731437   -0.007931863   -0.006101679
      3       11           0.007249867   -0.005711398    0.004243280
      4       11           0.008471547    0.004864612   -0.001710286
      5       11          -0.002484963    0.007055019   -0.012737131
      6       11          -0.008247372   -0.003038926    0.001396601
      7       11          -0.001064168   -0.002366996    0.000225072
 -------------------------------------------------------------------
 Cartesian Forces:  Max     0.014684142 RMS     0.006529612
 Z-matrix is all fixed cartesians, so copy forces.
 Force constants in Cartesian coordinates: 
                1             2             3             4             5 
      1  0.663228D-01
      2  0.163359D-02  0.665108D-01
      3 -0.571874D-02  0.231230D-01  0.103808D+00
      4  0.744675D-02  0.159326D-02 -0.362754D-03  0.113042D+00
      5  0.262926D-02 -0.512602D-02 -0.230342D-02  0.873134D-02  0.124926D+00
      6  0.196353D-02 -0.140440D-01  0.318891D-03  0.117074D-01  0.268312D-01
      7 -0.129915D-03  0.392456D-02 -0.257670D-02 -0.372920D-01  0.119003D-01
      8  0.133730D-03  0.449516D-03 -0.963994D-04 -0.161677D-01 -0.222976D-01
      9  0.771649D-03 -0.536053D-02  0.415242D-02 -0.143258D-01 -0.902496D-03
     10 -0.322921D-01 -0.785174D-02  0.261210D-03 -0.387696D-01 -0.159016D-02
     11  0.136047D-01 -0.231521D-01 -0.642255D-02 -0.200961D-01 -0.423706D-01
     12  0.304092D-01 -0.345677D-02 -0.320103D-01 -0.463282D-02 -0.930375D-02
     13 -0.750437D-02  0.290818D-02 -0.154669D-02 -0.627826D-03 -0.234151D-02
     14 -0.253402D-03 -0.111742D-01 -0.108833D-01  0.488090D-02 -0.176286D-01
     15 -0.897628D-02  0.219913D-01 -0.488506D-01 -0.316920D-03 -0.817358D-02
     16 -0.355499D-01 -0.122654D-02  0.106490D-01 -0.417094D-01 -0.165604D-01
     17 -0.142519D-01 -0.293666D-01 -0.506734D-02  0.169590D-01 -0.428860D-01
     18 -0.139616D-01 -0.217089D-01 -0.335060D-01  0.618923D-02 -0.747588D-02
     19  0.170675D-02 -0.981308D-03 -0.705351D-03 -0.209006D-02 -0.276880D-02
     20 -0.349604D-02  0.185863D-02  0.165000D-02  0.409924D-02  0.538298D-02
     21 -0.448782D-02 -0.544083D-03  0.608782D-02  0.174170D-02  0.132796D-02
                6             7             8             9            10 
      6  0.684956D-01
      7 -0.117388D-01  0.649860D-01
      8 -0.129286D-01 -0.891322D-02  0.558908D-01
      9 -0.174884D-01  0.148112D-01 -0.428755D-02  0.251793D-01
     10  0.421517D-02 -0.288432D-01  0.152897D-01 -0.410334D-02  0.167375D+00
     11 -0.104397D-02 -0.177727D-01 -0.445418D-01  0.606268D-02  0.121323D-01
     12 -0.196168D-01  0.301326D-02  0.106283D-01 -0.221174D-01 -0.314117D-02
     13 -0.430517D-02  0.379449D-02  0.682713D-02 -0.577208D-03 -0.444557D-01
     14  0.156358D-01  0.610160D-02  0.536770D-02  0.327892D-02 -0.137293D-01
     15 -0.571241D-02 -0.165079D-03  0.313255D-02  0.431546D-02  0.227938D-02
     16 -0.179451D-02 -0.250969D-02  0.285102D-02  0.344945D-02 -0.236615D-01
     17 -0.146460D-01  0.475026D-02  0.509839D-02  0.116815D-02 -0.302629D-02
     18 -0.281454D-01 -0.330701D-02  0.368836D-02  0.614274D-02  0.868508D-04
     19 -0.476254D-04 -0.569298D-05 -0.206590D-04 -0.259086D-04  0.647604D-03
     20  0.195623D-03  0.914958D-05  0.330595D-04  0.408374D-04 -0.122450D-02
     21  0.214844D-02 -0.368479D-04 -0.136667D-03 -0.184243D-03  0.401900D-03
               11            12            13            14            15 
     11  0.155767D+00
     12 -0.793937D-02  0.109119D+00
     13  0.193625D-01 -0.281385D-01  0.807336D-01
     14 -0.345039D-01  0.557139D-02 -0.426918D-02  0.920728D-01
     15  0.568716D-02 -0.248646D-01  0.145654D-01 -0.338595D-01  0.102905D+00
     16 -0.422117D-02  0.248103D-02 -0.343320D-01  0.807438D-02 -0.844716D-02
     17 -0.170095D-01  0.424688D-02 -0.181240D-01 -0.356951D-01  0.130226D-01
     18  0.304403D-02 -0.160923D-01  0.152293D-01  0.199486D-01 -0.326779D-01
     19 -0.300960D-02  0.899355D-05  0.239179D-02 -0.804990D-03  0.106063D-02
     20  0.581083D-02  0.253291D-03 -0.436306D-02  0.156124D-02 -0.180059D-02
     21  0.612036D-03  0.558192D-02  0.477288D-02  0.308045D-03  0.488481D-02
               16            17            18            19            20 
     16  0.174588D+00
     17  0.119830D-01  0.160565D+00
     18 -0.524824D-02  0.446789D-02  0.141983D+00
     19 -0.368258D-01  0.170988D-02  0.101148D-02  0.341754D-01
     20 -0.900278D-03 -0.407062D-01 -0.196415D-02  0.587549D-02  0.260595D-01
     21 -0.108960D-02 -0.319227D-02 -0.377040D-01 -0.130222D-02  0.162498D-02
               21 
     21  0.191852D-01
 Leave Link  716 at Mon Nov 13 16:36:29 2023, MaxMem=  1879048192 cpu:               0.5 elap:               0.0
 (Enter /home/sekinelabo/g16/l103.exe)

 GradGradGradGradGradGradGradGradGradGradGradGradGradGradGradGradGradGrad
 Berny optimization.
 Search for a local minimum.
 Step number   1 out of a maximum of    2
 All quantities printed in internal units (Hartrees-Bohrs-Radians)
 Second derivative matrix not updated -- first step.
 ITU=  0
     Eigenvalues ---    0.02319   0.03680   0.04277   0.05157   0.06845
     Eigenvalues ---    0.09580   0.12023   0.13488   0.15060   0.16078
     Eigenvalues ---    0.19296   0.19464   0.21139   0.22062   0.23726
 Quadratic step=3.283D-01 exceeds max=3.000D-01 adjusted using Lamda=-5.560D-03.
 Angle between NR and scaled steps=   2.37 degrees.
 Angle between quadratic step and forces=  28.15 degrees.
 Linear search not attempted -- first point.
 B after Tr=     0.000000    0.000000   -0.000000
         Rot=    1.000000   -0.000000   -0.000000    0.000000 Ang=   0.00 deg.
 Variable       Old X    -DE/DX   Delta X   Delta X   Delta X     New X
                                 (Linear)    (Quad)   (Total)
    X1        8.30020   0.00081   0.00000   0.00316   0.00316   8.30336
    Y1        7.13946   0.00713   0.00000   0.10984   0.10984   7.24930
    Z1        5.60061   0.01468   0.00000   0.09218   0.09218   5.69279
    X2        9.40272  -0.00473   0.00000  -0.00912  -0.00912   9.39360
    Y2        0.13613  -0.00793   0.00000  -0.05612  -0.05612   0.08001
    Z2        1.32911  -0.00610   0.00000  -0.06678  -0.06678   1.26233
    X3       14.64600   0.00725   0.00000   0.09895   0.09895  14.74495
    Y3        0.00000  -0.00571   0.00000  -0.10637  -0.10637  -0.10637
    Z3        3.46143   0.00424   0.00000   0.04303   0.04303   3.50446
    X4       12.25597   0.00847   0.00000   0.07223   0.07223  12.32820
    Y4        4.96997   0.00486   0.00000   0.03169   0.03169   5.00166
    Z4        2.16104  -0.00171   0.00000  -0.00749  -0.00749   2.15356
    X5        7.67629  -0.00248   0.00000  -0.01653  -0.01653   7.65976
    Y5        7.54010   0.00706   0.00000   0.09406   0.09406   7.63416
    Z5        0.00000  -0.01274   0.00000  -0.08205  -0.08205  -0.08205
    X6        5.02338  -0.00825   0.00000  -0.07234  -0.07234   4.95104
    Y6        3.41573  -0.00304   0.00000   0.00217   0.00217   3.41790
    Z6        2.85221   0.00140   0.00000   0.00489   0.00489   2.85710
    X7        0.00000  -0.00106   0.00000  -0.07636  -0.07636  -0.07636
    Y7        0.80062  -0.00237   0.00000  -0.07528  -0.07528   0.72534
    Z7        2.97897   0.00023   0.00000   0.01621   0.01621   2.99518
         Item               Value     Threshold  Converged?
 Maximum Force            0.014684     0.000450     NO 
 RMS     Force            0.006530     0.000300     NO 
 Maximum Displacement     0.109844     0.001800     NO 
 RMS     Displacement     0.065602     0.001200     NO 
 Predicted change in Energy=-4.216773D-03
 GradGradGradGradGradGradGradGradGradGradGradGradGradGradGradGradGradGrad

 Leave Link  103 at Mon Nov 13 16:36:29 2023, MaxMem=  1879048192 cpu:               0.3 elap:               0.0
 (Enter /home/sekinelabo/g16/l9999.exe)
 1\1\GINC-SEKINELABO-XA7R-R37\Force\UB3LYP\6-311+G(d)\Na7(2)\SEKINELABO
 \13-Nov-2023\0\\#P B3LYP/6-311+g(d) force\\Gaussian input prepared by 
 ASE\\0,2\Na,4.3922772057,3.7780377318,2.9637155752\Na,4.9757041363,0.0
 720369741,0.7033335024\Na,7.7503303367,0.,1.8317121608\Na,6.4855807955
 ,2.6299936692,1.1435744386\Na,4.062116508,3.9900472175,0.\Na,2.6582583
 57,1.8075267184,1.5093232371\Na,0.,0.4236699489,1.5764015911\\Version=
 ES64L-G16RevB.01\State=2-A\HF=-1136.0992944\S2=0.760218\S2-1=0.\S2A=0.
 750066\RMSD=6.217e-09\RMSF=6.530e-03\Dipole=0.1466886,-0.0383873,-0.14
 66121\Quadrupole=7.2071118,-0.4998652,-6.7072466,-0.8566816,1.0319311,
 -2.0802676\PG=C01 [X(Na7)]\\@


 IT IS THE GODS' CUSTOM TO BRING LOW ALL THINGS OF SURPASSING GREATNESS.
     -- HERODOTUS
 IT IS THE LOFTY PINE THAT BY THE STORM IS OFTENER TOSSED;
 TOWERS FALL WITH HEAVIER CRASH WHICH HIGHER SOAR.
     -- HORACE
 THE BIGGER THEY COME, THE HARDER THEY FALL.
     -- BOB FITZSIMONS HEAVYWEIGHT CHAMPION, 1897-1899
 Job cpu time:       0 days  0 hours  4 minutes 38.1 seconds.
 Elapsed time:       0 days  0 hours  0 minutes 23.1 seconds.
 File lengths (MBytes):  RWF=     32 Int=      0 D2E=      0 Chk=      5 Scr=      1
 Normal termination of Gaussian 16 at Mon Nov 13 16:36:29 2023.
