 Entering Gaussian System, Link 0=g16
 Initial command:
 /home/sekinelabo/g16/l1.exe "/home/sekinelabo/g16temp/Gau-4004337.inp" -scrdir="/home/sekinelabo/g16temp/"
 Entering Link 1 = /home/sekinelabo/g16/l1.exe PID=   4004339.
  
 Copyright (c) 1988-2017, Gaussian, Inc.  All Rights Reserved.
  
 This is part of the Gaussian(R) 16 program.  It is based on
 the Gaussian(R) 09 system (copyright 2009, Gaussian, Inc.),
 the Gaussian(R) 03 system (copyright 2003, Gaussian, Inc.),
 the Gaussian(R) 98 system (copyright 1998, Gaussian, Inc.),
 the Gaussian(R) 94 system (copyright 1995, Gaussian, Inc.),
 the Gaussian 92(TM) system (copyright 1992, Gaussian, Inc.),
 the Gaussian 90(TM) system (copyright 1990, Gaussian, Inc.),
 the Gaussian 88(TM) system (copyright 1988, Gaussian, Inc.),
 the Gaussian 86(TM) system (copyright 1986, Carnegie Mellon
 University), and the Gaussian 82(TM) system (copyright 1983,
 Carnegie Mellon University). Gaussian is a federally registered
 trademark of Gaussian, Inc.
  
 This software contains proprietary and confidential information,
 including trade secrets, belonging to Gaussian, Inc.
  
 This software is provided under written license and may be
 used, copied, transmitted, or stored only in accord with that
 written license.
  
 The following legend is applicable only to US Government
 contracts under FAR:
  
                    RESTRICTED RIGHTS LEGEND
  
 Use, reproduction and disclosure by the US Government is
 subject to restrictions as set forth in subparagraphs (a)
 and (c) of the Commercial Computer Software - Restricted
 Rights clause in FAR 52.227-19.
  
 Gaussian, Inc.
 340 Quinnipiac St., Bldg. 40, Wallingford CT 06492
  
  
 ---------------------------------------------------------------
 Warning -- This program may not be used in any manner that
 competes with the business of Gaussian, Inc. or will provide
 assistance to any competitor of Gaussian, Inc.  The licensee
 of this program is prohibited from giving any competitor of
 Gaussian, Inc. access to this program.  By using this program,
 the user acknowledges that Gaussian, Inc. is engaged in the
 business of creating and licensing software in the field of
 computational chemistry and represents and warrants to the
 licensee that it is not a competitor of Gaussian, Inc. and that
 it will not use this program in any manner prohibited above.
 ---------------------------------------------------------------
  

 Cite this work as:
 Gaussian 16, Revision B.01,
 M. J. Frisch, G. W. Trucks, H. B. Schlegel, G. E. Scuseria, 
 M. A. Robb, J. R. Cheeseman, G. Scalmani, V. Barone, 
 G. A. Petersson, H. Nakatsuji, X. Li, M. Caricato, A. V. Marenich, 
 J. Bloino, B. G. Janesko, R. Gomperts, B. Mennucci, H. P. Hratchian, 
 J. V. Ortiz, A. F. Izmaylov, J. L. Sonnenberg, D. Williams-Young, 
 F. Ding, F. Lipparini, F. Egidi, J. Goings, B. Peng, A. Petrone, 
 T. Henderson, D. Ranasinghe, V. G. Zakrzewski, J. Gao, N. Rega, 
 G. Zheng, W. Liang, M. Hada, M. Ehara, K. Toyota, R. Fukuda, 
 J. Hasegawa, M. Ishida, T. Nakajima, Y. Honda, O. Kitao, H. Nakai, 
 T. Vreven, K. Throssell, J. A. Montgomery, Jr., J. E. Peralta, 
 F. Ogliaro, M. J. Bearpark, J. J. Heyd, E. N. Brothers, K. N. Kudin, 
 V. N. Staroverov, T. A. Keith, R. Kobayashi, J. Normand, 
 K. Raghavachari, A. P. Rendell, J. C. Burant, S. S. Iyengar, 
 J. Tomasi, M. Cossi, J. M. Millam, M. Klene, C. Adamo, R. Cammi, 
 J. W. Ochterski, R. L. Martin, K. Morokuma, O. Farkas, 
 J. B. Foresman, and D. J. Fox, Gaussian, Inc., Wallingford CT, 2016.
 
 ******************************************
 Gaussian 16:  ES64L-G16RevB.01 20-Dec-2017
                13-Nov-2023 
 ******************************************
 %mem=14GB
 %chk=checkpoint.chk
 %nprocshared=16
 Will use up to   16 processors via shared memory.
 -------------------------
 #P B3LYP/6-311+g(d) force
 -------------------------
 1/10=7,30=1,38=1/1,3;
 2/12=2,17=6,18=5,40=1/2;
 3/5=4,6=6,7=11,11=2,25=1,30=1,71=1,74=-5/1,2,3;
 4//1;
 5/5=2,38=5/2;
 6/7=2,8=2,9=2,10=2,28=1/1;
 7/29=1/1,2,3,16;
 1/10=7,30=1/3;
 99//99;
 Leave Link    1 at Mon Nov 13 15:06:31 2023, MaxMem=  1879048192 cpu:               0.3 elap:               0.0
 (Enter /home/sekinelabo/g16/l101.exe)
 ------------------------------
 Gaussian input prepared by ASE
 ------------------------------
 Symbolic Z-matrix:
 Charge =  0 Multiplicity = 2
 Na                    2.6562    0.        2.58215 
 Na                    4.13037   0.3721    0. 
 Na                    7.68503   2.67417   1.85534 
 Na                    4.78694   2.09947   2.36206 
 Na                    3.25271   4.66382   2.04666 
 Na                    0.64287   3.87307   0.79622 
 Na                    0.        1.37239   2.32745 
 
 ITRead=  0  0  0  0  0  0  0
 MicOpt= -1 -1 -1 -1 -1 -1 -1
 NAtoms=      7 NQM=        7 NQMF=       0 NMMI=      0 NMMIF=      0
                NMic=       0 NMicF=      0.
                    Isotopes and Nuclear Properties:
 (Nuclear quadrupole moments (NQMom) in fm**2, nuclear magnetic moments (NMagM)
  in nuclear magnetons)

  Atom         1           2           3           4           5           6           7
 IAtWgt=          23          23          23          23          23          23          23
 AtmWgt=  22.9897697  22.9897697  22.9897697  22.9897697  22.9897697  22.9897697  22.9897697
 NucSpn=           3           3           3           3           3           3           3
 AtZEff=  -0.0000000  -0.0000000  -0.0000000  -0.0000000  -0.0000000  -0.0000000  -0.0000000
 NQMom=   10.4000000  10.4000000  10.4000000  10.4000000  10.4000000  10.4000000  10.4000000
 NMagM=    2.2175200   2.2175200   2.2175200   2.2175200   2.2175200   2.2175200   2.2175200
 AtZNuc=  11.0000000  11.0000000  11.0000000  11.0000000  11.0000000  11.0000000  11.0000000
 Leave Link  101 at Mon Nov 13 15:06:31 2023, MaxMem=  1879048192 cpu:               2.6 elap:               0.2
 (Enter /home/sekinelabo/g16/l103.exe)

 GradGradGradGradGradGradGradGradGradGradGradGradGradGradGradGradGradGrad
 Berny optimization.
 Initialization pass.
 Trust Radius=3.00D-01 FncErr=1.00D-07 GrdErr=1.00D-07 EigMax=2.50D+02 EigMin=1.00D-04
 Number of steps in this run=      2 maximum allowed number of steps=      2.
 GradGradGradGradGradGradGradGradGradGradGradGradGradGradGradGradGradGrad

 Leave Link  103 at Mon Nov 13 15:06:31 2023, MaxMem=  1879048192 cpu:               0.2 elap:               0.0
 (Enter /home/sekinelabo/g16/l202.exe)
                          Input orientation:                          
 ---------------------------------------------------------------------
 Center     Atomic      Atomic             Coordinates (Angstroms)
 Number     Number       Type             X           Y           Z
 ---------------------------------------------------------------------
      1         11           0        2.656201    0.000000    2.582147
      2         11           0        4.130367    0.372101    0.000000
      3         11           0        7.685031    2.674169    1.855342
      4         11           0        4.786941    2.099474    2.362056
      5         11           0        3.252709    4.663822    2.046663
      6         11           0        0.642872    3.873070    0.796222
      7         11           0        0.000000    1.372390    2.327451
 ---------------------------------------------------------------------
                    Distance matrix (angstroms):
                    1          2          3          4          5
     1  Na   0.000000
     2  Na   2.996515   0.000000
     3  Na   5.741824   4.623575   0.000000
     4  Na   2.999380   2.999035   2.997659   0.000000
     5  Na   4.732209   4.835078   4.862180   3.004866   0.000000
     6  Na   4.716322   5.005335   7.221572   4.771874   3.000024
     7  Na   3.000622   4.845363   7.808791   4.841968   4.635999
                    6          7
     6  Na   0.000000
     7  Na   3.001891   0.000000
 Stoichiometry    Na7(2)
 Framework group  C1[X(Na7)]
 Deg. of freedom    15
 Full point group                 C1      NOp   1
 Largest Abelian subgroup         C1      NOp   1
 Largest concise Abelian subgroup C1      NOp   1
                         Standard orientation:                         
 ---------------------------------------------------------------------
 Center     Atomic      Atomic             Coordinates (Angstroms)
 Number     Number       Type             X           Y           Z
 ---------------------------------------------------------------------
      1         11           0        0.651530   -2.150718   -0.872164
      2         11           0       -0.822635   -1.778617    1.709983
      3         11           0       -4.377299    0.523451   -0.145359
      4         11           0       -1.479209   -0.051244   -0.652073
      5         11           0        0.055022    2.513104   -0.336680
      6         11           0        2.664860    1.722352    0.913761
      7         11           0        3.307732   -0.778328   -0.617468
 ---------------------------------------------------------------------
 Rotational constants (GHZ):           0.9388614           0.4783415           0.3761000
 Leave Link  202 at Mon Nov 13 15:06:31 2023, MaxMem=  1879048192 cpu:               0.1 elap:               0.0
 (Enter /home/sekinelabo/g16/l301.exe)
 Standard basis: 6-311+G(d) (5D, 7F)
 Ernie: Thresh=  0.10000D-02 Tol=  0.10000D-05 Strict=F.
 There are   217 symmetry adapted cartesian basis functions of A   symmetry.
 There are   210 symmetry adapted basis functions of A   symmetry.
   210 basis functions,   350 primitive gaussians,   217 cartesian basis functions
    39 alpha electrons       38 beta electrons
       nuclear repulsion energy       332.7948815839 Hartrees.
 IExCor=  402 DFT=T Ex+Corr=B3LYP ExCW=0 ScaHFX=  0.200000
 ScaDFX=  0.800000  0.720000  1.000000  0.810000 ScalE2=  1.000000  1.000000
 IRadAn=      5 IRanWt=     -1 IRanGd=            0 ICorTp=0 IEmpDi=  4
 NAtoms=    7 NActive=    7 NUniq=    7 SFac= 1.00D+00 NAtFMM=   60 NAOKFM=F Big=F
 Integral buffers will be    131072 words long.
 Raffenetti 2 integral format.
 Two-electron integral symmetry is turned on.
 Leave Link  301 at Mon Nov 13 15:06:31 2023, MaxMem=  1879048192 cpu:               0.5 elap:               0.0
 (Enter /home/sekinelabo/g16/l302.exe)
 NPDir=0 NMtPBC=     1 NCelOv=     1 NCel=       1 NClECP=     1 NCelD=      1
         NCelK=      1 NCelE2=     1 NClLst=     1 CellRange=     0.0.
 One-electron integrals computed using PRISM.
 One-electron integral symmetry used in STVInt
 NBasis=   210 RedAO= T EigKep=  1.31D-06  NBF=   210
 NBsUse=   210 1.00D-06 EigRej= -1.00D+00 NBFU=   210
 Precomputing XC quadrature grid using
 IXCGrd= 4 IRadAn=           5 IRanWt=          -1 IRanGd=           0 AccXCQ= 0.00D+00.
 Generated NRdTot=       0 NPtTot=           0 NUsed=           0 NTot=          32
 NSgBfM=   209   209   209   209   209 MxSgAt=     7 MxSgA2=     7.
 Leave Link  302 at Mon Nov 13 15:06:31 2023, MaxMem=  1879048192 cpu:               2.2 elap:               0.1
 (Enter /home/sekinelabo/g16/l303.exe)
 DipDrv:  MaxL=1.
 Leave Link  303 at Mon Nov 13 15:06:31 2023, MaxMem=  1879048192 cpu:               0.6 elap:               0.0
 (Enter /home/sekinelabo/g16/l401.exe)
 ExpMin= 7.60D-03 ExpMax= 3.62D+04 ExpMxC= 1.21D+03 IAcc=3 IRadAn=         5 AccDes= 0.00D+00
 Harris functional with IExCor=  402 and IRadAn=       5 diagonalized for initial guess.
 HarFok:  IExCor=  402 AccDes= 0.00D+00 IRadAn=         5 IDoV= 1 UseB2=F ITyADJ=14
 ICtDFT=  3500011 ScaDFX=  1.000000  1.000000  1.000000  1.000000
 FoFCou: FMM=F IPFlag=           0 FMFlag=      100000 FMFlg1=           0
         NFxFlg=           0 DoJE=T BraDBF=F KetDBF=T FulRan=T
         wScrn=  0.000000 ICntrl=       500 IOpCl=  0 I1Cent=   200000004 NGrid=           0
         NMat0=    1 NMatS0=      1 NMatT0=    0 NMatD0=    1 NMtDS0=    0 NMtDT0=    0
 Petite list used in FoFCou.
 Harris En= -1135.86931642030    
 JPrj=0 DoOrth=F DoCkMO=F.
 Initial guess <Sx>= 0.0000 <Sy>= 0.0000 <Sz>= 0.5000 <S**2>= 0.7500 S= 0.5000
 Leave Link  401 at Mon Nov 13 15:06:32 2023, MaxMem=  1879048192 cpu:               4.6 elap:               0.3
 (Enter /home/sekinelabo/g16/l502.exe)
 Keep R1 and R2 ints in memory in canonical form, NReq=507620360.
 FoFCou: FMM=F IPFlag=           0 FMFlag=           0 FMFlg1=           0
         NFxFlg=           0 DoJE=F BraDBF=F KetDBF=F FulRan=T
         wScrn=  0.000000 ICntrl=       600 IOpCl=  0 I1Cent=           0 NGrid=           0
         NMat0=    1 NMatS0=  22155 NMatT0=    0 NMatD0=    1 NMtDS0=    0 NMtDT0=    0
 Symmetry not used in FoFCou.
 Two-electron integral symmetry not used.
 UHF open shell SCF:
 Using DIIS extrapolation, IDIIS=  1040.
 NGot=  1879048192 LenX=  1388082376 LenY=  1388034846
 Requested convergence on RMS density matrix=1.00D-08 within 128 cycles.
 Requested convergence on MAX density matrix=1.00D-06.
 Requested convergence on             energy=1.00D-06.
 No special actions if energy rises.

 Cycle   1  Pass 1  IDiag  1:
 E= -1136.06943170002    
 DIIS: error= 1.10D-02 at cycle   1 NSaved=   1.
 NSaved= 1 IEnMin= 1 EnMin= -1136.06943170002     IErMin= 1 ErrMin= 1.10D-02
 ErrMax= 1.10D-02  0.00D+00 EMaxC= 1.00D-01 BMatC= 1.88D-01 BMatP= 1.88D-01
 IDIUse=3 WtCom= 8.90D-01 WtEn= 1.10D-01
 Coeff-Com:  0.100D+01
 Coeff-En:   0.100D+01
 Coeff:      0.100D+01
 Gap=     0.031 Goal=   None    Shift=    0.000
 Gap=     0.043 Goal=   None    Shift=    0.000
 GapD=    0.031 DampG=0.250 DampE=0.500 DampFc=0.2500 IDamp=-1.
 Damping current iteration by 2.50D-01
 RMSDP=7.74D-02 MaxDP=1.00D+01              OVMax= 1.76D-01

 Cycle   2  Pass 1  IDiag  1:
 E= -1136.07925710421     Delta-E=       -0.009825404197 Rises=F Damp=T
 DIIS: error= 7.79D-03 at cycle   2 NSaved=   2.
 NSaved= 2 IEnMin= 2 EnMin= -1136.07925710421     IErMin= 2 ErrMin= 7.79D-03
 ErrMax= 7.79D-03  0.00D+00 EMaxC= 1.00D-01 BMatC= 7.24D-02 BMatP= 1.88D-01
 IDIUse=3 WtCom= 9.22D-01 WtEn= 7.79D-02
 Coeff-Com: -0.129D+01 0.229D+01
 Coeff-En:   0.000D+00 0.100D+01
 Coeff:     -0.119D+01 0.219D+01
 Gap=     0.027 Goal=   None    Shift=    0.000
 Gap=     0.054 Goal=   None    Shift=    0.000
 RMSDP=4.05D-02 MaxDP=4.50D+00 DE=-9.83D-03 OVMax= 1.57D-01

 Cycle   3  Pass 1  IDiag  1:
 E= -1136.09687682535     Delta-E=       -0.017619721138 Rises=F Damp=F
 DIIS: error= 2.46D-03 at cycle   3 NSaved=   3.
 NSaved= 3 IEnMin= 3 EnMin= -1136.09687682535     IErMin= 3 ErrMin= 2.46D-03
 ErrMax= 2.46D-03  0.00D+00 EMaxC= 1.00D-01 BMatC= 1.92D-03 BMatP= 7.24D-02
 IDIUse=3 WtCom= 9.75D-01 WtEn= 2.46D-02
 Coeff-Com: -0.162D+00 0.287D+00 0.875D+00
 Coeff-En:   0.000D+00 0.000D+00 0.100D+01
 Coeff:     -0.158D+00 0.280D+00 0.878D+00
 Gap=     0.030 Goal=   None    Shift=    0.000
 Gap=     0.050 Goal=   None    Shift=    0.000
 RMSDP=1.43D-02 MaxDP=1.77D+00 DE=-1.76D-02 OVMax= 8.91D-02

 Cycle   4  Pass 1  IDiag  1:
 E= -1136.09645873945     Delta-E=        0.000418085900 Rises=F Damp=F
 DIIS: error= 2.87D-03 at cycle   4 NSaved=   4.
 NSaved= 4 IEnMin= 3 EnMin= -1136.09687682535     IErMin= 3 ErrMin= 2.46D-03
 ErrMax= 2.87D-03  0.00D+00 EMaxC= 1.00D-01 BMatC= 2.51D-03 BMatP= 1.92D-03
 IDIUse=3 WtCom= 1.57D-01 WtEn= 8.43D-01
 Coeff-Com: -0.220D-02 0.312D-02 0.534D+00 0.465D+00
 Coeff-En:   0.000D+00 0.000D+00 0.546D+00 0.454D+00
 Coeff:     -0.346D-03 0.491D-03 0.544D+00 0.456D+00
 Gap=     0.029 Goal=   None    Shift=    0.000
 Gap=     0.051 Goal=   None    Shift=    0.000
 RMSDP=6.16D-03 MaxDP=6.99D-01 DE= 4.18D-04 OVMax= 4.40D-02

 Cycle   5  Pass 1  IDiag  1:
 E= -1136.09865337364     Delta-E=       -0.002194634193 Rises=F Damp=F
 DIIS: error= 2.19D-04 at cycle   5 NSaved=   5.
 NSaved= 5 IEnMin= 5 EnMin= -1136.09865337364     IErMin= 5 ErrMin= 2.19D-04
 ErrMax= 2.19D-04  0.00D+00 EMaxC= 1.00D-01 BMatC= 1.45D-05 BMatP= 1.92D-03
 IDIUse=3 WtCom= 9.98D-01 WtEn= 2.19D-03
 Coeff-Com: -0.115D-04-0.505D-03 0.186D+00 0.144D+00 0.670D+00
 Coeff-En:   0.000D+00 0.000D+00 0.000D+00 0.000D+00 0.100D+01
 Coeff:     -0.115D-04-0.503D-03 0.186D+00 0.144D+00 0.671D+00
 Gap=     0.029 Goal=   None    Shift=    0.000
 Gap=     0.051 Goal=   None    Shift=    0.000
 RMSDP=5.80D-04 MaxDP=3.90D-02 DE=-2.19D-03 OVMax= 8.59D-03

 Cycle   6  Pass 1  IDiag  1:
 E= -1136.09867417298     Delta-E=       -0.000020799336 Rises=F Damp=F
 DIIS: error= 1.39D-04 at cycle   6 NSaved=   6.
 NSaved= 6 IEnMin= 6 EnMin= -1136.09867417298     IErMin= 6 ErrMin= 1.39D-04
 ErrMax= 1.39D-04  0.00D+00 EMaxC= 1.00D-01 BMatC= 7.02D-06 BMatP= 1.45D-05
 IDIUse=3 WtCom= 9.99D-01 WtEn= 1.39D-03
 Coeff-Com: -0.118D-03-0.291D-03-0.500D-01-0.563D-01 0.416D+00 0.691D+00
 Coeff-En:   0.000D+00 0.000D+00 0.000D+00 0.000D+00 0.000D+00 0.100D+01
 Coeff:     -0.117D-03-0.290D-03-0.499D-01-0.562D-01 0.415D+00 0.691D+00
 Gap=     0.029 Goal=   None    Shift=    0.000
 Gap=     0.051 Goal=   None    Shift=    0.000
 RMSDP=4.60D-04 MaxDP=5.36D-02 DE=-2.08D-05 OVMax= 7.16D-03

 Cycle   7  Pass 1  IDiag  1:
 E= -1136.09869158337     Delta-E=       -0.000017410387 Rises=F Damp=F
 DIIS: error= 6.88D-05 at cycle   7 NSaved=   7.
 NSaved= 7 IEnMin= 7 EnMin= -1136.09869158337     IErMin= 7 ErrMin= 6.88D-05
 ErrMax= 6.88D-05  0.00D+00 EMaxC= 1.00D-01 BMatC= 1.36D-06 BMatP= 7.02D-06
 IDIUse=1 WtCom= 1.00D+00 WtEn= 0.00D+00
 Coeff-Com: -0.206D-03 0.201D-03-0.567D-01-0.489D-01 0.279D-01 0.269D+00
 Coeff-Com:  0.809D+00
 Coeff:     -0.206D-03 0.201D-03-0.567D-01-0.489D-01 0.279D-01 0.269D+00
 Coeff:      0.809D+00
 Gap=     0.029 Goal=   None    Shift=    0.000
 Gap=     0.051 Goal=   None    Shift=    0.000
 RMSDP=2.08D-04 MaxDP=2.01D-02 DE=-1.74D-05 OVMax= 4.47D-03

 Cycle   8  Pass 1  IDiag  1:
 E= -1136.09869784781     Delta-E=       -0.000006264446 Rises=F Damp=F
 DIIS: error= 6.88D-05 at cycle   8 NSaved=   8.
 NSaved= 8 IEnMin= 8 EnMin= -1136.09869784781     IErMin= 8 ErrMin= 6.88D-05
 ErrMax= 6.88D-05  0.00D+00 EMaxC= 1.00D-01 BMatC= 8.22D-07 BMatP= 1.36D-06
 IDIUse=1 WtCom= 1.00D+00 WtEn= 0.00D+00
 Coeff-Com:  0.152D-03-0.696D-04-0.281D-01-0.191D-01-0.128D+00-0.512D-01
 Coeff-Com:  0.535D+00 0.691D+00
 Coeff:      0.152D-03-0.696D-04-0.281D-01-0.191D-01-0.128D+00-0.512D-01
 Coeff:      0.535D+00 0.691D+00
 Gap=     0.029 Goal=   None    Shift=    0.000
 Gap=     0.051 Goal=   None    Shift=    0.000
 RMSDP=1.71D-04 MaxDP=1.52D-02 DE=-6.26D-06 OVMax= 4.11D-03

 Cycle   9  Pass 1  IDiag  1:
 E= -1136.09870163614     Delta-E=       -0.000003788330 Rises=F Damp=F
 DIIS: error= 2.86D-05 at cycle   9 NSaved=   9.
 NSaved= 9 IEnMin= 9 EnMin= -1136.09870163614     IErMin= 9 ErrMin= 2.86D-05
 ErrMax= 2.86D-05  0.00D+00 EMaxC= 1.00D-01 BMatC= 2.33D-07 BMatP= 8.22D-07
 IDIUse=1 WtCom= 1.00D+00 WtEn= 0.00D+00
 Coeff-Com:  0.611D-03-0.709D-03 0.745D-02 0.738D-02-0.546D-01-0.932D-01
 Coeff-Com: -0.136D+00 0.275D+00 0.994D+00
 Coeff:      0.611D-03-0.709D-03 0.745D-02 0.738D-02-0.546D-01-0.932D-01
 Coeff:     -0.136D+00 0.275D+00 0.994D+00
 Gap=     0.029 Goal=   None    Shift=    0.000
 Gap=     0.051 Goal=   None    Shift=    0.000
 RMSDP=1.26D-04 MaxDP=9.10D-03 DE=-3.79D-06 OVMax= 2.98D-03

 Cycle  10  Pass 1  IDiag  1:
 E= -1136.09870342599     Delta-E=       -0.000001789846 Rises=F Damp=F
 DIIS: error= 2.12D-05 at cycle  10 NSaved=  10.
 NSaved=10 IEnMin=10 EnMin= -1136.09870342599     IErMin=10 ErrMin= 2.12D-05
 ErrMax= 2.12D-05  0.00D+00 EMaxC= 1.00D-01 BMatC= 1.03D-07 BMatP= 2.33D-07
 IDIUse=1 WtCom= 1.00D+00 WtEn= 0.00D+00
 Coeff-Com:  0.260D-03-0.329D-03 0.166D-01 0.130D-01 0.131D-01-0.362D-01
 Coeff-Com: -0.283D+00-0.860D-01 0.585D+00 0.777D+00
 Coeff:      0.260D-03-0.329D-03 0.166D-01 0.130D-01 0.131D-01-0.362D-01
 Coeff:     -0.283D+00-0.860D-01 0.585D+00 0.777D+00
 Gap=     0.029 Goal=   None    Shift=    0.000
 Gap=     0.051 Goal=   None    Shift=    0.000
 RMSDP=1.01D-04 MaxDP=1.10D-02 DE=-1.79D-06 OVMax= 1.82D-03

 Cycle  11  Pass 1  IDiag  1:
 E= -1136.09870406771     Delta-E=       -0.000000641726 Rises=F Damp=F
 DIIS: error= 6.47D-06 at cycle  11 NSaved=  11.
 NSaved=11 IEnMin=11 EnMin= -1136.09870406771     IErMin=11 ErrMin= 6.47D-06
 ErrMax= 6.47D-06  0.00D+00 EMaxC= 1.00D-01 BMatC= 2.40D-08 BMatP= 1.03D-07
 IDIUse=1 WtCom= 1.00D+00 WtEn= 0.00D+00
 Coeff-Com: -0.391D-03 0.492D-03 0.282D-02 0.140D-02 0.333D-01 0.311D-01
 Coeff-Com: -0.568D-01-0.164D+00-0.209D+00 0.295D+00 0.107D+01
 Coeff:     -0.391D-03 0.492D-03 0.282D-02 0.140D-02 0.333D-01 0.311D-01
 Coeff:     -0.568D-01-0.164D+00-0.209D+00 0.295D+00 0.107D+01
 Gap=     0.029 Goal=   None    Shift=    0.000
 Gap=     0.051 Goal=   None    Shift=    0.000
 RMSDP=6.68D-05 MaxDP=4.66D-03 DE=-6.42D-07 OVMax= 1.49D-03

 Cycle  12  Pass 1  IDiag  1:
 E= -1136.09870428688     Delta-E=       -0.000000219170 Rises=F Damp=F
 DIIS: error= 3.03D-06 at cycle  12 NSaved=  12.
 NSaved=12 IEnMin=12 EnMin= -1136.09870428688     IErMin=12 ErrMin= 3.03D-06
 ErrMax= 3.03D-06  0.00D+00 EMaxC= 1.00D-01 BMatC= 3.10D-09 BMatP= 2.40D-08
 IDIUse=1 WtCom= 1.00D+00 WtEn= 0.00D+00
 Coeff-Com: -0.117D-03 0.145D-03-0.133D-02-0.114D-02 0.308D-02 0.942D-02
 Coeff-Com:  0.315D-01-0.200D-01-0.123D+00-0.835D-01 0.211D+00 0.974D+00
 Coeff:     -0.117D-03 0.145D-03-0.133D-02-0.114D-02 0.308D-02 0.942D-02
 Coeff:      0.315D-01-0.200D-01-0.123D+00-0.835D-01 0.211D+00 0.974D+00
 Gap=     0.029 Goal=   None    Shift=    0.000
 Gap=     0.051 Goal=   None    Shift=    0.000
 RMSDP=3.25D-05 MaxDP=3.71D-03 DE=-2.19D-07 OVMax= 5.49D-04

 Cycle  13  Pass 1  IDiag  1:
 E= -1136.09870431648     Delta-E=       -0.000000029592 Rises=F Damp=F
 DIIS: error= 1.97D-06 at cycle  13 NSaved=  13.
 NSaved=13 IEnMin=13 EnMin= -1136.09870431648     IErMin=13 ErrMin= 1.97D-06
 ErrMax= 1.97D-06  0.00D+00 EMaxC= 1.00D-01 BMatC= 7.49D-10 BMatP= 3.10D-09
 IDIUse=1 WtCom= 1.00D+00 WtEn= 0.00D+00
 Coeff-Com:  0.636D-04-0.804D-04-0.478D-03-0.168D-03-0.637D-02-0.456D-02
 Coeff-Com:  0.135D-01 0.255D-01 0.222D-01-0.444D-01-0.151D+00-0.494D-01
 Coeff-Com:  0.120D+01
 Coeff:      0.636D-04-0.804D-04-0.478D-03-0.168D-03-0.637D-02-0.456D-02
 Coeff:      0.135D-01 0.255D-01 0.222D-01-0.444D-01-0.151D+00-0.494D-01
 Coeff:      0.120D+01
 Gap=     0.029 Goal=   None    Shift=    0.000
 Gap=     0.051 Goal=   None    Shift=    0.000
 RMSDP=2.45D-05 MaxDP=3.20D-03 DE=-2.96D-08 OVMax= 2.81D-04

 Cycle  14  Pass 1  IDiag  1:
 E= -1136.09870432549     Delta-E=       -0.000000009012 Rises=F Damp=F
 DIIS: error= 1.12D-06 at cycle  14 NSaved=  14.
 NSaved=14 IEnMin=14 EnMin= -1136.09870432549     IErMin=14 ErrMin= 1.12D-06
 ErrMax= 1.12D-06  0.00D+00 EMaxC= 1.00D-01 BMatC= 3.38D-10 BMatP= 7.49D-10
 IDIUse=1 WtCom= 1.00D+00 WtEn= 0.00D+00
 Coeff-Com:  0.839D-04-0.107D-03 0.297D-03 0.348D-03-0.259D-02-0.528D-02
 Coeff-Com: -0.124D-01 0.174D-01 0.669D-01 0.177D-01-0.143D+00-0.417D+00
 Coeff-Com:  0.341D+00 0.114D+01
 Coeff:      0.839D-04-0.107D-03 0.297D-03 0.348D-03-0.259D-02-0.528D-02
 Coeff:     -0.124D-01 0.174D-01 0.669D-01 0.177D-01-0.143D+00-0.417D+00
 Coeff:      0.341D+00 0.114D+01
 Gap=     0.029 Goal=   None    Shift=    0.000
 Gap=     0.051 Goal=   None    Shift=    0.000
 RMSDP=2.05D-05 MaxDP=2.22D-03 DE=-9.01D-09 OVMax= 2.12D-04

 Cycle  15  Pass 1  IDiag  1:
 E= -1136.09870432948     Delta-E=       -0.000000003989 Rises=F Damp=F
 DIIS: error= 4.74D-07 at cycle  15 NSaved=  15.
 NSaved=15 IEnMin=15 EnMin= -1136.09870432948     IErMin=15 ErrMin= 4.74D-07
 ErrMax= 4.74D-07  0.00D+00 EMaxC= 1.00D-01 BMatC= 6.02D-11 BMatP= 3.38D-10
 IDIUse=1 WtCom= 1.00D+00 WtEn= 0.00D+00
 Coeff-Com: -0.535D-04 0.694D-04 0.183D-03 0.516D-04 0.262D-02 0.245D-02
 Coeff-Com: -0.269D-02-0.117D-01-0.190D-01 0.118D-01 0.766D-01 0.811D-01
 Coeff-Com: -0.447D+00-0.129D+00 0.143D+01
 Coeff:     -0.535D-04 0.694D-04 0.183D-03 0.516D-04 0.262D-02 0.245D-02
 Coeff:     -0.269D-02-0.117D-01-0.190D-01 0.118D-01 0.766D-01 0.811D-01
 Coeff:     -0.447D+00-0.129D+00 0.143D+01
 Gap=     0.029 Goal=   None    Shift=    0.000
 Gap=     0.051 Goal=   None    Shift=    0.000
 RMSDP=8.76D-06 MaxDP=1.09D-03 DE=-3.99D-09 OVMax= 1.16D-04

 Cycle  16  Pass 1  IDiag  1:
 E= -1136.09870433036     Delta-E=       -0.000000000886 Rises=F Damp=F
 DIIS: error= 1.32D-07 at cycle  16 NSaved=  16.
 NSaved=16 IEnMin=16 EnMin= -1136.09870433036     IErMin=16 ErrMin= 1.32D-07
 ErrMax= 1.32D-07  0.00D+00 EMaxC= 1.00D-01 BMatC= 6.96D-12 BMatP= 6.02D-11
 IDIUse=1 WtCom= 1.00D+00 WtEn= 0.00D+00
 Coeff-Com: -0.995D-05 0.127D-04 0.571D-05-0.174D-04 0.360D-03 0.485D-03
 Coeff-Com:  0.126D-02-0.282D-02-0.709D-02-0.925D-03 0.173D-01 0.561D-01
 Coeff-Com: -0.661D-01-0.164D+00 0.113D+00 0.105D+01
 Coeff:     -0.995D-05 0.127D-04 0.571D-05-0.174D-04 0.360D-03 0.485D-03
 Coeff:      0.126D-02-0.282D-02-0.709D-02-0.925D-03 0.173D-01 0.561D-01
 Coeff:     -0.661D-01-0.164D+00 0.113D+00 0.105D+01
 Gap=     0.029 Goal=   None    Shift=    0.000
 Gap=     0.051 Goal=   None    Shift=    0.000
 RMSDP=1.44D-06 MaxDP=1.13D-04 DE=-8.86D-10 OVMax= 2.69D-05

 Cycle  17  Pass 1  IDiag  1:
 E= -1136.09870433043     Delta-E=       -0.000000000063 Rises=F Damp=F
 DIIS: error= 6.85D-08 at cycle  17 NSaved=  17.
 NSaved=17 IEnMin=17 EnMin= -1136.09870433043     IErMin=17 ErrMin= 6.85D-08
 ErrMax= 6.85D-08  0.00D+00 EMaxC= 1.00D-01 BMatC= 1.48D-12 BMatP= 6.96D-12
 IDIUse=1 WtCom= 1.00D+00 WtEn= 0.00D+00
 Coeff-Com:  0.698D-05-0.920D-05-0.345D-04-0.836D-05-0.316D-03-0.291D-03
 Coeff-Com:  0.662D-03 0.160D-02 0.920D-03-0.148D-02-0.842D-02-0.701D-02
 Coeff-Com:  0.650D-01 0.400D-02-0.229D+00 0.779D-01 0.110D+01
 Coeff:      0.698D-05-0.920D-05-0.345D-04-0.836D-05-0.316D-03-0.291D-03
 Coeff:      0.662D-03 0.160D-02 0.920D-03-0.148D-02-0.842D-02-0.701D-02
 Coeff:      0.650D-01 0.400D-02-0.229D+00 0.779D-01 0.110D+01
 Gap=     0.029 Goal=   None    Shift=    0.000
 Gap=     0.051 Goal=   None    Shift=    0.000
 RMSDP=7.28D-07 MaxDP=8.96D-05 DE=-6.32D-11 OVMax= 7.95D-06

 Cycle  18  Pass 1  IDiag  1:
 E= -1136.09870433044     Delta-E=       -0.000000000010 Rises=F Damp=F
 DIIS: error= 2.97D-08 at cycle  18 NSaved=  18.
 NSaved=18 IEnMin=18 EnMin= -1136.09870433044     IErMin=18 ErrMin= 2.97D-08
 ErrMax= 2.97D-08  0.00D+00 EMaxC= 1.00D-01 BMatC= 2.76D-13 BMatP= 1.48D-12
 IDIUse=1 WtCom= 1.00D+00 WtEn= 0.00D+00
 Coeff-Com:  0.249D-05-0.318D-05-0.503D-05 0.356D-06-0.116D-03-0.919D-04
 Coeff-Com: -0.151D-03 0.736D-03 0.120D-02-0.411D-04-0.437D-02-0.849D-02
 Coeff-Com:  0.165D-01 0.253D-01-0.344D-01-0.187D+00 0.102D+00 0.109D+01
 Coeff:      0.249D-05-0.318D-05-0.503D-05 0.356D-06-0.116D-03-0.919D-04
 Coeff:     -0.151D-03 0.736D-03 0.120D-02-0.411D-04-0.437D-02-0.849D-02
 Coeff:      0.165D-01 0.253D-01-0.344D-01-0.187D+00 0.102D+00 0.109D+01
 Gap=     0.029 Goal=   None    Shift=    0.000
 Gap=     0.051 Goal=   None    Shift=    0.000
 RMSDP=2.98D-07 MaxDP=3.80D-05 DE=-1.00D-11 OVMax= 3.19D-06

 Cycle  19  Pass 1  IDiag  1:
 E= -1136.09870433045     Delta-E=       -0.000000000009 Rises=F Damp=F
 DIIS: error= 8.20D-09 at cycle  19 NSaved=  19.
 NSaved=19 IEnMin=19 EnMin= -1136.09870433045     IErMin=19 ErrMin= 8.20D-09
 ErrMax= 8.20D-09  0.00D+00 EMaxC= 1.00D-01 BMatC= 4.91D-14 BMatP= 2.76D-13
 IDIUse=1 WtCom= 1.00D+00 WtEn= 0.00D+00
 Coeff-Com: -0.121D-05 0.161D-05 0.681D-05 0.138D-05 0.494D-04 0.495D-04
 Coeff-Com: -0.118D-03-0.277D-03-0.118D-03 0.493D-03 0.136D-02-0.349D-03
 Coeff-Com: -0.105D-01 0.324D-02 0.395D-01-0.395D-01-0.196D+00 0.120D+00
 Coeff-Com:  0.108D+01
 Coeff:     -0.121D-05 0.161D-05 0.681D-05 0.138D-05 0.494D-04 0.495D-04
 Coeff:     -0.118D-03-0.277D-03-0.118D-03 0.493D-03 0.136D-02-0.349D-03
 Coeff:     -0.105D-01 0.324D-02 0.395D-01-0.395D-01-0.196D+00 0.120D+00
 Coeff:      0.108D+01
 Gap=     0.029 Goal=   None    Shift=    0.000
 Gap=     0.051 Goal=   None    Shift=    0.000
 RMSDP=1.37D-07 MaxDP=1.48D-05 DE=-9.09D-12 OVMax= 1.82D-06

 Cycle  20  Pass 1  IDiag  1:
 E= -1136.09870433044     Delta-E=        0.000000000010 Rises=F Damp=F
 DIIS: error= 5.15D-09 at cycle  20 NSaved=  20.
 NSaved=20 IEnMin=19 EnMin= -1136.09870433045     IErMin=20 ErrMin= 5.15D-09
 ErrMax= 5.15D-09  0.00D+00 EMaxC= 1.00D-01 BMatC= 1.34D-14 BMatP= 4.91D-14
 IDIUse=1 WtCom= 1.00D+00 WtEn= 0.00D+00
 Coeff-Com: -0.342D-06 0.436D-06 0.107D-05 0.136D-06 0.134D-04 0.540D-05
 Coeff-Com:  0.739D-04-0.107D-03-0.299D-03 0.636D-04 0.633D-03 0.147D-02
 Coeff-Com: -0.164D-02-0.544D-02 0.331D-02 0.339D-01 0.129D-01-0.256D+00
 Coeff-Com:  0.642D-01 0.115D+01
 Coeff:     -0.342D-06 0.436D-06 0.107D-05 0.136D-06 0.134D-04 0.540D-05
 Coeff:      0.739D-04-0.107D-03-0.299D-03 0.636D-04 0.633D-03 0.147D-02
 Coeff:     -0.164D-02-0.544D-02 0.331D-02 0.339D-01 0.129D-01-0.256D+00
 Coeff:      0.642D-01 0.115D+01
 Gap=     0.029 Goal=   None    Shift=    0.000
 Gap=     0.051 Goal=   None    Shift=    0.000
 RMSDP=2.76D-08 MaxDP=1.52D-06 DE= 1.00D-11 OVMax= 1.37D-06

 Cycle  21  Pass 1  IDiag  1:
 E= -1136.09870433044     Delta-E=       -0.000000000007 Rises=F Damp=F
 DIIS: error= 3.80D-09 at cycle  21 NSaved=  20.
 NSaved=20 IEnMin=18 EnMin= -1136.09870433045     IErMin=20 ErrMin= 3.80D-09
 ErrMax= 3.80D-09  0.00D+00 EMaxC= 1.00D-01 BMatC= 4.22D-15 BMatP= 1.34D-14
 IDIUse=1 WtCom= 1.00D+00 WtEn= 0.00D+00
 Large coefficients: NSaved= 20 BigCof=    0.00 CofMax=   10.00 Det=-1.22D-15
 Inversion failed.  Reducing to 19 matrices.
 Large coefficients: NSaved= 19 BigCof=    0.00 CofMax=   10.00 Det=-1.23D-15
 Inversion failed.  Reducing to 18 matrices.
 Large coefficients: NSaved= 18 BigCof=    0.00 CofMax=   10.00 Det=-1.23D-15
 Inversion failed.  Reducing to 17 matrices.
 Large coefficients: NSaved= 17 BigCof=    0.00 CofMax=   10.00 Det=-1.23D-15
 Inversion failed.  Reducing to 16 matrices.
 Large coefficients: NSaved= 16 BigCof=    0.00 CofMax=   10.00 Det=-1.24D-15
 Inversion failed.  Reducing to 15 matrices.
 Coeff-Com:  0.136D-04-0.900D-05-0.691D-04 0.636D-04 0.535D-04-0.965D-04
 Coeff-Com:  0.729D-03-0.910D-03-0.155D-02 0.166D-02 0.128D-01 0.753D-02
 Coeff-Com: -0.865D-01-0.350D+00 0.142D+01
 Coeff:      0.136D-04-0.900D-05-0.691D-04 0.636D-04 0.535D-04-0.965D-04
 Coeff:      0.729D-03-0.910D-03-0.155D-02 0.166D-02 0.128D-01 0.753D-02
 Coeff:     -0.865D-01-0.350D+00 0.142D+01
 Gap=     0.029 Goal=   None    Shift=    0.000
 Gap=     0.051 Goal=   None    Shift=    0.000
 RMSDP=3.87D-08 MaxDP=5.61D-06 DE=-7.05D-12 OVMax= 1.18D-06

 Cycle  22  Pass 1  IDiag  1:
 E= -1136.09870433044     Delta-E=        0.000000000003 Rises=F Damp=F
 DIIS: error= 2.42D-09 at cycle  22 NSaved=  16.
 NSaved=16 IEnMin=13 EnMin= -1136.09870433045     IErMin=16 ErrMin= 2.42D-09
 ErrMax= 2.42D-09  0.00D+00 EMaxC= 1.00D-01 BMatC= 1.97D-15 BMatP= 4.22D-15
 IDIUse=1 WtCom= 1.00D+00 WtEn= 0.00D+00
 Large coefficients: NSaved= 16 BigCof=    0.00 CofMax=   10.00 Det=-4.36D-16
 Inversion failed.  Reducing to 15 matrices.
 Coeff-Com:  0.157D-04 0.409D-05 0.143D-05-0.573D-04-0.148D-03 0.112D-03
 Coeff-Com:  0.933D-03 0.322D-03-0.115D-01-0.405D-02 0.693D-01 0.658D-01
 Coeff-Com: -0.470D+00-0.394D+00 0.174D+01
 Coeff:      0.157D-04 0.409D-05 0.143D-05-0.573D-04-0.148D-03 0.112D-03
 Coeff:      0.933D-03 0.322D-03-0.115D-01-0.405D-02 0.693D-01 0.658D-01
 Coeff:     -0.470D+00-0.394D+00 0.174D+01
 Gap=     0.029 Goal=   None    Shift=    0.000
 Gap=     0.051 Goal=   None    Shift=    0.000
 RMSDP=2.84D-08 MaxDP=2.29D-06 DE= 2.50D-12 OVMax= 1.27D-06

 Cycle  23  Pass 1  IDiag  1:
 E= -1136.09870433044     Delta-E=       -0.000000000001 Rises=F Damp=F
 DIIS: error= 9.95D-10 at cycle  23 NSaved=  16.
 NSaved=16 IEnMin=12 EnMin= -1136.09870433045     IErMin=16 ErrMin= 9.95D-10
 ErrMax= 9.95D-10  0.00D+00 EMaxC= 1.00D-01 BMatC= 5.23D-16 BMatP= 1.97D-15
 IDIUse=1 WtCom= 1.00D+00 WtEn= 0.00D+00
 Large coefficients: NSaved= 16 BigCof=    0.00 CofMax=   10.00 Det=-1.81D-16
 Inversion failed.  Reducing to 15 matrices.
 Coeff-Com: -0.141D-05 0.901D-05 0.967D-06 0.256D-04-0.353D-03 0.208D-03
 Coeff-Com:  0.119D-02-0.179D-02-0.162D-02-0.986D-02 0.471D-01 0.895D-01
 Coeff-Com: -0.612D+00 0.368D+00 0.112D+01
 Coeff:     -0.141D-05 0.901D-05 0.967D-06 0.256D-04-0.353D-03 0.208D-03
 Coeff:      0.119D-02-0.179D-02-0.162D-02-0.986D-02 0.471D-01 0.895D-01
 Coeff:     -0.612D+00 0.368D+00 0.112D+01
 Gap=     0.029 Goal=   None    Shift=    0.000
 Gap=     0.051 Goal=   None    Shift=    0.000
 RMSDP=1.79D-08 MaxDP=2.70D-06 DE=-1.36D-12 OVMax= 6.16D-07

 Cycle  24  Pass 1  IDiag  1:
 E= -1136.09870433043     Delta-E=        0.000000000007 Rises=F Damp=F
 DIIS: error= 4.53D-10 at cycle  24 NSaved=  16.
 NSaved=16 IEnMin=11 EnMin= -1136.09870433045     IErMin=16 ErrMin= 4.53D-10
 ErrMax= 4.53D-10  0.00D+00 EMaxC= 1.00D-01 BMatC= 1.17D-16 BMatP= 5.23D-16
 IDIUse=1 WtCom= 1.00D+00 WtEn= 0.00D+00
 Large coefficients: NSaved= 16 BigCof=    0.00 CofMax=   10.00 Det=-1.45D-16
 Inversion failed.  Reducing to 15 matrices.
 Coeff-Com:  0.286D-05 0.130D-05-0.207D-05-0.141D-03 0.111D-03 0.412D-03
 Coeff-Com: -0.187D-03-0.668D-03-0.941D-02 0.466D-02 0.116D+00-0.124D+00
 Coeff-Com: -0.256D+00 0.208D+00 0.106D+01
 Coeff:      0.286D-05 0.130D-05-0.207D-05-0.141D-03 0.111D-03 0.412D-03
 Coeff:     -0.187D-03-0.668D-03-0.941D-02 0.466D-02 0.116D+00-0.124D+00
 Coeff:     -0.256D+00 0.208D+00 0.106D+01
 Gap=     0.029 Goal=   None    Shift=    0.000
 Gap=     0.051 Goal=   None    Shift=    0.000
 RMSDP=2.77D-08 MaxDP=3.37D-06 DE= 6.82D-12 OVMax= 2.96D-07

 Cycle  25  Pass 1  IDiag  1:
 E= -1136.09870433044     Delta-E=       -0.000000000007 Rises=F Damp=F
 DIIS: error= 2.49D-10 at cycle  25 NSaved=  16.
 NSaved=16 IEnMin=10 EnMin= -1136.09870433045     IErMin=16 ErrMin= 2.49D-10
 ErrMax= 2.49D-10  0.00D+00 EMaxC= 1.00D-01 BMatC= 3.02D-17 BMatP= 1.17D-16
 IDIUse=1 WtCom= 1.00D+00 WtEn= 0.00D+00
 Large coefficients: NSaved= 16 BigCof=    0.00 CofMax=   10.00 Det=-5.44D-17
 Inversion failed.  Reducing to 15 matrices.
 Coeff-Com: -0.524D-05 0.647D-07 0.883D-04-0.763D-04-0.458D-03 0.144D-02
 Coeff-Com:  0.189D-02-0.693D-02-0.150D-01 0.283D-01 0.149D+00-0.158D+00
 Coeff-Com: -0.321D+00 0.233D+00 0.109D+01
 Coeff:     -0.524D-05 0.647D-07 0.883D-04-0.763D-04-0.458D-03 0.144D-02
 Coeff:      0.189D-02-0.693D-02-0.150D-01 0.283D-01 0.149D+00-0.158D+00
 Coeff:     -0.321D+00 0.233D+00 0.109D+01
 Gap=     0.029 Goal=   None    Shift=    0.000
 Gap=     0.051 Goal=   None    Shift=    0.000
 RMSDP=1.33D-08 MaxDP=1.58D-06 DE=-6.59D-12 OVMax= 7.41D-08

 Cycle  26  Pass 1  IDiag  1:
 E= -1136.09870433044     Delta-E=        0.000000000004 Rises=F Damp=F
 DIIS: error= 8.62D-11 at cycle  26 NSaved=  16.
 NSaved=16 IEnMin= 9 EnMin= -1136.09870433045     IErMin=16 ErrMin= 8.62D-11
 ErrMax= 8.62D-11  0.00D+00 EMaxC= 1.00D-01 BMatC= 3.82D-18 BMatP= 3.02D-17
 IDIUse=1 WtCom= 1.00D+00 WtEn= 0.00D+00
 Large coefficients: NSaved= 16 BigCof=    0.00 CofMax=   10.00 Det=-9.09D-18
 Inversion failed.  Reducing to 15 matrices.
 Coeff-Com: -0.698D-05 0.528D-04 0.629D-05-0.220D-03-0.205D-04 0.669D-03
 Coeff-Com:  0.216D-02-0.422D-02-0.206D-01 0.511D-01 0.210D-02-0.100D+00
 Coeff-Com: -0.517D-01 0.227D+00 0.894D+00
 Coeff:     -0.698D-05 0.528D-04 0.629D-05-0.220D-03-0.205D-04 0.669D-03
 Coeff:      0.216D-02-0.422D-02-0.206D-01 0.511D-01 0.210D-02-0.100D+00
 Coeff:     -0.517D-01 0.227D+00 0.894D+00
 Gap=     0.029 Goal=   None    Shift=    0.000
 Gap=     0.051 Goal=   None    Shift=    0.000
 RMSDP=5.53D-09 MaxDP=7.86D-07 DE= 4.32D-12 OVMax= 2.44D-08

 SCF Done:  E(UB3LYP) =  -1136.09870433     A.U. after   26 cycles
            NFock= 26  Conv=0.55D-08     -V/T= 2.0026
 <Sx>= 0.0000 <Sy>= 0.0000 <Sz>= 0.5000 <S**2>= 0.7818 S= 0.5158
 <L.S>= 0.000000000000E+00
 KE= 1.133104666712D+03 PE=-3.394767822164D+03 EE= 7.927695695377D+02
 Annihilation of the first spin contaminant:
 S**2 before annihilation     0.7818,   after     0.7504
 Leave Link  502 at Mon Nov 13 15:06:53 2023, MaxMem=  1879048192 cpu:             245.1 elap:              21.0
 (Enter /home/sekinelabo/g16/l601.exe)
 Copying SCF densities to generalized density rwf, IOpCl= 1 IROHF=0.

 **********************************************************************

            Population analysis using the SCF Density.

 **********************************************************************

 Orbital symmetries:
 Alpha Orbitals:
       Occupied  (A) (A) (A) (A) (A) (A) (A) (A) (A) (A) (A) (A)
                 (A) (A) (A) (A) (A) (A) (A) (A) (A) (A) (A) (A)
                 (A) (A) (A) (A) (A) (A) (A) (A) (A) (A) (A) (A)
                 (A) (A) (A)
       Virtual   (A) (A) (A) (A) (A) (A) (A) (A) (A) (A) (A) (A)
                 (A) (A) (A) (A) (A) (A) (A) (A) (A) (A) (A) (A)
                 (A) (A) (A) (A) (A) (A) (A) (A) (A) (A) (A) (A)
                 (A) (A) (A) (A) (A) (A) (A) (A) (A) (A) (A) (A)
                 (A) (A) (A) (A) (A) (A) (A) (A) (A) (A) (A) (A)
                 (A) (A) (A) (A) (A) (A) (A) (A) (A) (A) (A) (A)
                 (A) (A) (A) (A) (A) (A) (A) (A) (A) (A) (A) (A)
                 (A) (A) (A) (A) (A) (A) (A) (A) (A) (A) (A) (A)
                 (A) (A) (A) (A) (A) (A) (A) (A) (A) (A) (A) (A)
                 (A) (A) (A) (A) (A) (A) (A) (A) (A) (A) (A) (A)
                 (A) (A) (A) (A) (A) (A) (A) (A) (A) (A) (A) (A)
                 (A) (A) (A) (A) (A) (A) (A) (A) (A) (A) (A) (A)
                 (A) (A) (A) (A) (A) (A) (A) (A) (A) (A) (A) (A)
                 (A) (A) (A) (A) (A) (A) (A) (A) (A) (A) (A) (A)
                 (A) (A) (A)
 Beta  Orbitals:
       Occupied  (A) (A) (A) (A) (A) (A) (A) (A) (A) (A) (A) (A)
                 (A) (A) (A) (A) (A) (A) (A) (A) (A) (A) (A) (A)
                 (A) (A) (A) (A) (A) (A) (A) (A) (A) (A) (A) (A)
                 (A) (A)
       Virtual   (A) (A) (A) (A) (A) (A) (A) (A) (A) (A) (A) (A)
                 (A) (A) (A) (A) (A) (A) (A) (A) (A) (A) (A) (A)
                 (A) (A) (A) (A) (A) (A) (A) (A) (A) (A) (A) (A)
                 (A) (A) (A) (A) (A) (A) (A) (A) (A) (A) (A) (A)
                 (A) (A) (A) (A) (A) (A) (A) (A) (A) (A) (A) (A)
                 (A) (A) (A) (A) (A) (A) (A) (A) (A) (A) (A) (A)
                 (A) (A) (A) (A) (A) (A) (A) (A) (A) (A) (A) (A)
                 (A) (A) (A) (A) (A) (A) (A) (A) (A) (A) (A) (A)
                 (A) (A) (A) (A) (A) (A) (A) (A) (A) (A) (A) (A)
                 (A) (A) (A) (A) (A) (A) (A) (A) (A) (A) (A) (A)
                 (A) (A) (A) (A) (A) (A) (A) (A) (A) (A) (A) (A)
                 (A) (A) (A) (A) (A) (A) (A) (A) (A) (A) (A) (A)
                 (A) (A) (A) (A) (A) (A) (A) (A) (A) (A) (A) (A)
                 (A) (A) (A) (A) (A) (A) (A) (A) (A) (A) (A) (A)
                 (A) (A) (A) (A)
 The electronic state is 2-A.
 Alpha  occ. eigenvalues --  -38.44922 -38.44457 -38.44359 -38.44094 -38.43865
 Alpha  occ. eigenvalues --  -38.43861 -38.43781  -2.20828  -2.20294  -2.20238
 Alpha  occ. eigenvalues --   -2.19970  -2.19919  -2.19839  -2.19688  -1.14541
 Alpha  occ. eigenvalues --   -1.14467  -1.14439  -1.14008  -1.13980  -1.13935
 Alpha  occ. eigenvalues --   -1.13919  -1.13906  -1.13875  -1.13761  -1.13677
 Alpha  occ. eigenvalues --   -1.13609  -1.13575  -1.13566  -1.13561  -1.13494
 Alpha  occ. eigenvalues --   -1.13479  -1.13419  -1.13323  -1.13296  -1.13271
 Alpha  occ. eigenvalues --   -0.18475  -0.14122  -0.12711  -0.10397
 Alpha virt. eigenvalues --   -0.07472  -0.04708  -0.04410  -0.03700  -0.03110
 Alpha virt. eigenvalues --   -0.02749  -0.01629  -0.01112  -0.00500  -0.00339
 Alpha virt. eigenvalues --   -0.00201   0.00055   0.00419   0.00704   0.00771
 Alpha virt. eigenvalues --    0.00943   0.01064   0.01192   0.01270   0.01378
 Alpha virt. eigenvalues --    0.01413   0.01605   0.01668   0.01825   0.01941
 Alpha virt. eigenvalues --    0.02079   0.02218   0.02375   0.02428   0.02561
 Alpha virt. eigenvalues --    0.02677   0.02804   0.02939   0.03032   0.03126
 Alpha virt. eigenvalues --    0.03166   0.03301   0.03317   0.03544   0.03623
 Alpha virt. eigenvalues --    0.03665   0.03772   0.04156   0.04342   0.04813
 Alpha virt. eigenvalues --    0.05033   0.05288   0.05545   0.05844   0.05902
 Alpha virt. eigenvalues --    0.06173   0.06580   0.06805   0.06937   0.07304
 Alpha virt. eigenvalues --    0.07587   0.08009   0.08220   0.08433   0.08556
 Alpha virt. eigenvalues --    0.09085   0.09194   0.09561   0.09633   0.09923
 Alpha virt. eigenvalues --    0.10948   0.11443   0.11699   0.12246   0.12862
 Alpha virt. eigenvalues --    0.13701   0.14064   0.14312   0.14708   0.15089
 Alpha virt. eigenvalues --    0.15348   0.15595   0.16631   0.17981   0.19258
 Alpha virt. eigenvalues --    0.26016   0.26457   0.28462   0.28932   0.29383
 Alpha virt. eigenvalues --    0.29778   0.30531   0.31260   0.32121   0.32283
 Alpha virt. eigenvalues --    0.32638   0.34432   0.35006   0.35799   0.36099
 Alpha virt. eigenvalues --    0.36366   0.37774   0.39968   0.40436   0.41012
 Alpha virt. eigenvalues --    0.41635   0.42888   0.43831   0.44151   0.44255
 Alpha virt. eigenvalues --    0.44636   0.45009   0.45381   0.45485   0.45794
 Alpha virt. eigenvalues --    0.46184   0.46626   0.47512   0.47708   0.48253
 Alpha virt. eigenvalues --    0.49266   0.50248   0.50565   0.51209   0.51370
 Alpha virt. eigenvalues --    0.52158   0.53277   0.54030   0.54417   0.55012
 Alpha virt. eigenvalues --    0.57295   0.59428   0.60499   0.63158   0.64891
 Alpha virt. eigenvalues --    0.68654   0.70763   0.74275   0.76808   0.76986
 Alpha virt. eigenvalues --    0.82682   2.07656   2.10970   2.13459   2.14017
 Alpha virt. eigenvalues --    2.17665   2.25349   2.31192   4.40842   4.41645
 Alpha virt. eigenvalues --    4.42523   4.42781   4.43504   4.43719   4.44672
 Alpha virt. eigenvalues --    4.45137   4.45682   4.45801   4.46270   4.47165
 Alpha virt. eigenvalues --    4.47586   4.54817   4.59847   4.63584   4.64157
 Alpha virt. eigenvalues --    4.65608   4.70968   4.72040   4.76820  96.28296
 Alpha virt. eigenvalues --   96.32506  96.35748  96.36697  96.41887  96.51751
 Alpha virt. eigenvalues --   96.58939
  Beta  occ. eigenvalues --  -38.44871 -38.44372 -38.44354 -38.44079 -38.43861
  Beta  occ. eigenvalues --  -38.43858 -38.43721  -2.20732  -2.20235  -2.20135
  Beta  occ. eigenvalues --   -2.19945  -2.19924  -2.19831  -2.19577  -1.14476
  Beta  occ. eigenvalues --   -1.14408  -1.14371  -1.13951  -1.13933  -1.13917
  Beta  occ. eigenvalues --   -1.13871  -1.13809  -1.13801  -1.13756  -1.13660
  Beta  occ. eigenvalues --   -1.13583  -1.13563  -1.13544  -1.13537  -1.13477
  Beta  occ. eigenvalues --   -1.13465  -1.13400  -1.13250  -1.13224  -1.13209
  Beta  occ. eigenvalues --   -0.18090  -0.13452  -0.12271
  Beta virt. eigenvalues --   -0.07216  -0.07046  -0.04565  -0.04132  -0.03203
  Beta virt. eigenvalues --   -0.02803  -0.02356  -0.01355  -0.00729  -0.00273
  Beta virt. eigenvalues --   -0.00083   0.00063   0.00131   0.00571   0.00744
  Beta virt. eigenvalues --    0.00833   0.01059   0.01167   0.01271   0.01331
  Beta virt. eigenvalues --    0.01449   0.01507   0.01713   0.01761   0.01923
  Beta virt. eigenvalues --    0.02202   0.02236   0.02363   0.02426   0.02523
  Beta virt. eigenvalues --    0.02643   0.02752   0.02880   0.03013   0.03108
  Beta virt. eigenvalues --    0.03195   0.03296   0.03333   0.03355   0.03606
  Beta virt. eigenvalues --    0.03730   0.03839   0.03868   0.04237   0.04442
  Beta virt. eigenvalues --    0.04852   0.05111   0.05449   0.05645   0.05870
  Beta virt. eigenvalues --    0.05968   0.06244   0.06627   0.06892   0.07066
  Beta virt. eigenvalues --    0.07555   0.07684   0.08079   0.08273   0.08559
  Beta virt. eigenvalues --    0.08635   0.09304   0.09396   0.09769   0.09899
  Beta virt. eigenvalues --    0.10121   0.11288   0.11443   0.11855   0.12407
  Beta virt. eigenvalues --    0.13086   0.13893   0.14187   0.14443   0.14821
  Beta virt. eigenvalues --    0.15251   0.15437   0.15779   0.16851   0.18173
  Beta virt. eigenvalues --    0.19468   0.26285   0.26789   0.28582   0.29207
  Beta virt. eigenvalues --    0.29719   0.29994   0.30784   0.31473   0.32302
  Beta virt. eigenvalues --    0.32559   0.32974   0.34740   0.35458   0.36335
  Beta virt. eigenvalues --    0.36652   0.36818   0.38198   0.40317   0.40672
  Beta virt. eigenvalues --    0.41369   0.41878   0.43052   0.44088   0.44328
  Beta virt. eigenvalues --    0.44441   0.44768   0.45161   0.45487   0.45565
  Beta virt. eigenvalues --    0.45901   0.46296   0.46743   0.47714   0.47899
  Beta virt. eigenvalues --    0.48506   0.49493   0.50371   0.50697   0.51372
  Beta virt. eigenvalues --    0.51445   0.52296   0.53438   0.54137   0.54533
  Beta virt. eigenvalues --    0.55113   0.57486   0.59660   0.60591   0.63283
  Beta virt. eigenvalues --    0.64988   0.68728   0.70858   0.74340   0.76937
  Beta virt. eigenvalues --    0.77105   0.82733   2.07777   2.11177   2.13681
  Beta virt. eigenvalues --    2.14188   2.17723   2.25452   2.31191   4.40902
  Beta virt. eigenvalues --    4.41688   4.42551   4.42826   4.43543   4.43756
  Beta virt. eigenvalues --    4.44732   4.45247   4.45751   4.45869   4.46364
  Beta virt. eigenvalues --    4.47253   4.47612   4.54852   4.59889   4.63606
  Beta virt. eigenvalues --    4.64188   4.65652   4.71033   4.72079   4.76853
  Beta virt. eigenvalues --   96.28340  96.32573  96.35821  96.36754  96.41911
  Beta virt. eigenvalues --   96.51788  96.58944
          Condensed to atoms (all electrons):
               1          2          3          4          5          6
     1  Na  25.954713  -2.238263  -3.029154 -10.564915   4.784491  -0.831673
     2  Na  -2.238263  11.688710   0.362075   0.964794  -0.265059  -0.134383
     3  Na  -3.029154   0.362075  12.256653   1.422090  -1.137011   0.347998
     4  Na -10.564915   0.964794   1.422090  20.420460  -4.043161   0.921114
     5  Na   4.784491  -0.265059  -1.137011  -4.043161  13.168443  -0.370676
     6  Na  -0.831673  -0.134383   0.347998   0.921114  -0.370676  10.884811
     7  Na  -5.017077   0.684570   0.769170   3.835764  -1.864925   0.258345
               7
     1  Na  -5.017077
     2  Na   0.684570
     3  Na   0.769170
     4  Na   3.835764
     5  Na  -1.864925
     6  Na   0.258345
     7  Na  12.917986
          Atomic-Atomic Spin Densities.
               1          2          3          4          5          6
     1  Na   2.768978  -1.049085   0.202332  -1.681374   0.333289  -0.026761
     2  Na  -1.049085   0.378629   0.023520   0.776638  -0.046452   0.119461
     3  Na   0.202332   0.023520   0.055526   0.029866   0.069760  -0.036035
     4  Na  -1.681374   0.776638   0.029866   0.715501  -0.390056  -0.047595
     5  Na   0.333289  -0.046452   0.069760  -0.390056   0.361254   0.048418
     6  Na  -0.026761   0.119461  -0.036035  -0.047595   0.048418  -0.082982
     7  Na  -0.229057   0.018145  -0.012105   0.285189  -0.137781   0.003964
               7
     1  Na  -0.229057
     2  Na   0.018145
     3  Na  -0.012105
     4  Na   0.285189
     5  Na  -0.137781
     6  Na   0.003964
     7  Na   0.294530
 Mulliken charges and spin densities:
               1          2
     1  Na   1.941878   0.318322
     2  Na  -0.062444   0.220856
     3  Na   0.008180   0.332865
     4  Na  -1.956145  -0.311830
     5  Na   0.727898   0.238434
     6  Na  -0.075536  -0.021531
     7  Na  -0.583832   0.222885
 Sum of Mulliken charges =  -0.00000   1.00000
 Mulliken charges and spin densities with hydrogens summed into heavy atoms:
               1          2
     1  Na   1.941878   0.318322
     2  Na  -0.062444   0.220856
     3  Na   0.008180   0.332865
     4  Na  -1.956145  -0.311830
     5  Na   0.727898   0.238434
     6  Na  -0.075536  -0.021531
     7  Na  -0.583832   0.222885
 Electronic spatial extent (au):  <R**2>=           2662.1768
 Charge=              0.0000 electrons
 Dipole moment (field-independent basis, Debye):
    X=             -0.2181    Y=             -0.2171    Z=              1.4948  Tot=              1.5261
 Quadrupole moment (field-independent basis, Debye-Ang):
   XX=            -67.4565   YY=            -72.3084   ZZ=            -64.2577
   XY=              3.2089   XZ=             -0.4529   YZ=             -1.2357
 Traceless Quadrupole moment (field-independent basis, Debye-Ang):
   XX=              0.5510   YY=             -4.3008   ZZ=              3.7499
   XY=              3.2089   XZ=             -0.4529   YZ=             -1.2357
 Octapole moment (field-independent basis, Debye-Ang**2):
  XXX=            -10.3602  YYY=              3.3605  ZZZ=             21.0026  XYY=             -1.6813
  XXY=              7.9446  XXZ=             29.0964  XZZ=              1.4151  YZZ=            -10.9465
  YYZ=              2.4327  XYZ=              8.4360
 Hexadecapole moment (field-independent basis, Debye-Ang**3):
 XXXX=          -2602.3516 YYYY=          -1402.7991 ZZZZ=           -533.3842 XXXY=             34.9384
 XXXZ=            -17.9055 YYYX=             25.9447 YYYZ=            -17.0675 ZZZX=             -5.7878
 ZZZY=            -24.0257 XXYY=           -719.5430 XXZZ=           -563.3680 YYZZ=           -304.2577
 XXYZ=             20.2783 YYXZ=              2.2499 ZZXY=             34.5444
 N-N= 3.327948815839D+02 E-N=-3.394767822182D+03  KE= 1.133104666712D+03
                          Isotropic Fermi Contact Couplings
        Atom                 a.u.       MegaHertz       Gauss      10(-4) cm-1
     1  Na(23)            -0.03027     -35.80837     -12.77732     -11.94439
     2  Na(23)             0.23012     272.23826      97.14138      90.80891
     3  Na(23)             0.37089     438.77395     156.56546     146.35923
     4  Na(23)            -0.06403     -75.75030     -27.02959     -25.26758
     5  Na(23)             0.06183      73.14263      26.09911      24.39775
     6  Na(23)            -0.02716     -32.13051     -11.46497     -10.71758
     7  Na(23)             0.26137     309.20944     110.33362     103.14117
 --------------------------------------------------------
       Center         ----  Spin Dipole Couplings  ----
                      3XX-RR        3YY-RR        3ZZ-RR
 --------------------------------------------------------
     1   Atom        0.021132     -0.024721      0.003590
     2   Atom       -0.000538      0.003709     -0.003171
     3   Atom       -0.007237      0.001595      0.005642
     4   Atom        0.035899     -0.039785      0.003886
     5   Atom       -0.006742     -0.002499      0.009241
     6   Atom        0.020044     -0.005948     -0.014096
     7   Atom       -0.001151      0.000545      0.000605
 --------------------------------------------------------
                        XY            XZ            YZ
 --------------------------------------------------------
     1   Atom        0.001612     -0.038553      0.001562
     2   Atom        0.005282     -0.000337     -0.001935
     3   Atom       -0.001104      0.000662      0.000217
     4   Atom       -0.005295      0.036959     -0.009989
     5   Atom       -0.004973      0.005813     -0.005196
     6   Atom       -0.021839     -0.010592      0.006850
     7   Atom        0.000785      0.002040      0.000721
 --------------------------------------------------------


 ---------------------------------------------------------------------------------
              Anisotropic Spin Dipole Couplings in Principal Axis System
 ---------------------------------------------------------------------------------

       Atom             a.u.   MegaHertz   Gauss  10(-4) cm-1        Axes

              Baa    -0.0285    -4.024    -1.436    -1.342  0.5385 -0.5085  0.6719
     1 Na(23) Bbb    -0.0234    -3.305    -1.179    -1.103  0.3146  0.8611  0.3995
              Bcc     0.0519     7.329     2.615     2.445  0.7817  0.0037 -0.6237
 
              Baa    -0.0046    -0.656    -0.234    -0.219  0.6401 -0.5329 -0.5535
     2 Na(23) Bbb    -0.0029    -0.414    -0.148    -0.138  0.5438 -0.1947  0.8163
              Bcc     0.0076     1.070     0.382     0.357  0.5428  0.8235 -0.1652
 
              Baa    -0.0074    -1.046    -0.373    -0.349  0.9911  0.1227 -0.0524
     3 Na(23) Bbb     0.0017     0.244     0.087     0.081 -0.1246  0.9916 -0.0339
              Bcc     0.0057     0.802     0.286     0.268  0.0477  0.0402  0.9981
 
              Baa    -0.0421    -5.946    -2.122    -1.983 -0.0546  0.9658  0.2536
     4 Na(23) Bbb    -0.0190    -2.688    -0.959    -0.897 -0.5577 -0.2402  0.7945
              Bcc     0.0611     8.635     3.081     2.880  0.8282 -0.0981  0.5517
 
              Baa    -0.0103    -1.455    -0.519    -0.485  0.8740  0.4665 -0.1360
     5 Na(23) Bbb    -0.0035    -0.491    -0.175    -0.164 -0.3511  0.7997  0.4871
              Bcc     0.0138     1.946     0.694     0.649  0.3360 -0.3780  0.8627
 
              Baa    -0.0187    -2.642    -0.943    -0.881  0.3525  0.8326 -0.4272
     6 Na(23) Bbb    -0.0169    -2.392    -0.854    -0.798  0.4103  0.2728  0.8702
              Bcc     0.0356     5.034     1.796     1.679  0.8411 -0.4820 -0.2455
 
              Baa    -0.0025    -0.356    -0.127    -0.119  0.8432 -0.0912 -0.5298
     7 Na(23) Bbb     0.0000     0.003     0.001     0.001 -0.1831  0.8779 -0.4425
              Bcc     0.0025     0.353     0.126     0.118  0.5055  0.4701  0.7235
 

 ---------------------------------------------------------------------------------

 No NMR shielding tensors so no spin-rotation constants.
 Leave Link  601 at Mon Nov 13 15:06:53 2023, MaxMem=  1879048192 cpu:               2.6 elap:               0.2
 (Enter /home/sekinelabo/g16/l701.exe)
 ... and contract with generalized density number  0.
 Compute integral first derivatives.
 Leave Link  701 at Mon Nov 13 15:06:53 2023, MaxMem=  1879048192 cpu:               1.7 elap:               0.1
 (Enter /home/sekinelabo/g16/l702.exe)
 L702 exits ... SP integral derivatives will be done elsewhere.
 Leave Link  702 at Mon Nov 13 15:06:53 2023, MaxMem=  1879048192 cpu:               0.4 elap:               0.0
 (Enter /home/sekinelabo/g16/l703.exe)
 Integral derivatives from FoFJK, PRISM(SPDF).
 Compute integral first derivatives, UseDBF=F ICtDFT=           0.
 Calling FoFJK, ICntrl=      2127 FMM=F ISym2X=0 I1Cent= 0 IOpClX= 1 NMat=1 NMatS=1 NMatT=0.
 FoFJK:  IHMeth= 1 ICntrl=    2127 DoSepK=F KAlg= 0 I1Cent=           0 FoldK=F
 IRaf=         0 NMat=       1 IRICut=       1 DoRegI=T DoRafI=F ISym2E= 0 IDoP0=0 IntGTp=1.
 FoFCou: FMM=F IPFlag=           0 FMFlag=      100000 FMFlg1=         800
         NFxFlg=           0 DoJE=F BraDBF=F KetDBF=F FulRan=T
         wScrn=  0.000000 ICntrl=      2127 IOpCl=  1 I1Cent=           0 NGrid=           0
         NMat0=    1 NMatS0=      1 NMatT0=    0 NMatD0=    1 NMtDS0=    0 NMtDT0=    0
 Symmetry not used in FoFCou.
 Leave Link  703 at Mon Nov 13 15:06:55 2023, MaxMem=  1879048192 cpu:              34.8 elap:               2.2
 (Enter /home/sekinelabo/g16/l716.exe)
 Dipole        =-8.58000890D-02-8.54083438D-02 5.88095015D-01
 ***** Axes restored to original set *****
 -------------------------------------------------------------------
 Center     Atomic                   Forces (Hartrees/Bohr)
 Number     Number              X              Y              Z
 -------------------------------------------------------------------
      1       11          -0.004104165   -0.009830708    0.004110601
      2       11           0.000777209   -0.002296707   -0.007581539
      3       11           0.003554674    0.002328622    0.000098668
      4       11           0.004730364    0.002022872    0.004180857
      5       11           0.002217809    0.007028411   -0.000298846
      6       11          -0.001291796    0.003348866   -0.003764235
      7       11          -0.005884094   -0.002601355    0.003254494
 -------------------------------------------------------------------
 Cartesian Forces:  Max     0.009830708 RMS     0.004305033
 Z-matrix is all fixed cartesians, so copy forces.
 Force constants in Cartesian coordinates: 
                1             2             3             4             5 
      1  0.751954D-01
      2 -0.703230D-03  0.704904D-01
      3 -0.133734D-01 -0.180809D-01  0.569403D-01
      4 -0.152730D-01  0.257908D-02  0.157338D-01  0.318528D-01
      5 -0.598707D-02 -0.696310D-02  0.151527D-01  0.604512D-02  0.261748D-01
      6  0.882661D-02 -0.201407D-02 -0.368444D-01 -0.100835D-01  0.112564D-01
      7  0.106383D-02 -0.107952D-02  0.140077D-05 -0.218275D-03 -0.106341D-03
      8 -0.564987D-02  0.589162D-02  0.150353D-02 -0.434531D-02  0.664072D-04
      9 -0.323434D-03  0.507854D-03  0.171325D-02 -0.617668D-02 -0.532891D-03
     10 -0.370455D-01 -0.128388D-02 -0.508021D-02 -0.168212D-01  0.120495D-02
     11 -0.574465D-02 -0.417835D-01 -0.769471D-02 -0.426962D-02 -0.185573D-01
     12  0.103801D-01  0.785556D-02 -0.109555D-01 -0.924122D-02 -0.171823D-01
     13  0.476689D-02 -0.474446D-02  0.693457D-03  0.186114D-02 -0.210187D-02
     14  0.280720D-02 -0.281544D-02  0.539066D-03  0.160722D-02 -0.185902D-02
     15 -0.287363D-03  0.410112D-03  0.140443D-02  0.401419D-02 -0.489044D-02
     16  0.324696D-02  0.558729D-02 -0.374832D-02 -0.290173D-04 -0.234351D-04
     17 -0.877571D-03 -0.147696D-02  0.119619D-02 -0.228992D-04 -0.361683D-04
     18 -0.688756D-04 -0.775960D-04  0.282498D-03  0.268202D-04 -0.293651D-04
     19 -0.319546D-01 -0.355275D-03  0.577332D-02 -0.137247D-02  0.968658D-03
     20  0.161552D-01 -0.233431D-01  0.738417D-02 -0.159358D-02  0.117437D-02
     21 -0.515366D-02  0.113991D-01 -0.125406D-01  0.572659D-02 -0.377416D-02
                6             7             8             9            10 
      6  0.644708D-01
      7  0.138441D-03  0.355363D-01
      8  0.115929D-02  0.396645D-02  0.190310D-01
      9  0.210662D-02 -0.539646D-02  0.200382D-02  0.867458D-02
     10  0.731714D-03 -0.349419D-01 -0.332869D-03  0.129167D-01  0.123241D+00
     11 -0.105653D-01 -0.199114D-02 -0.286155D-01 -0.157667D-02  0.349717D-02
     12 -0.348596D-01  0.467689D-02 -0.320904D-02 -0.141570D-01  0.523144D-03
     13  0.101977D-02 -0.143506D-02  0.636738D-02 -0.986022D-03 -0.301822D-01
     14  0.912747D-03 -0.791843D-03  0.363017D-02 -0.411657D-03 -0.386691D-02
     15  0.246057D-02  0.542663D-03 -0.145854D-02  0.144948D-02 -0.946433D-02
     16  0.108996D-04 -0.405709D-05 -0.613733D-05 -0.301648D-04 -0.166129D-02
     17 -0.850992D-05 -0.128586D-05 -0.194518D-05 -0.956049D-05  0.565940D-02
     18 -0.594748D-04  0.928083D-05  0.140395D-04  0.690037D-04 -0.108307D-03
     19 -0.643963D-03  0.000000D+00  0.000000D+00 -0.394267D-05 -0.258878D-02
     20 -0.740555D-03  0.368423D-05 -0.173661D-05  0.191020D-04 -0.487786D-02
     21  0.272547D-02  0.277824D-04 -0.130956D-04  0.144046D-03  0.481283D-03
               11            12            13            14            15 
     11  0.116607D+00
     12  0.141349D-01  0.744483D-01
     13  0.706364D-02 -0.495082D-02  0.521264D-01
     14 -0.362965D-01 -0.378302D-02  0.572166D-02  0.557435D-01
     15  0.620381D-02 -0.146385D-01  0.173478D-01  0.310050D-02  0.189667D-01
     16 -0.111951D-02 -0.101822D-02 -0.268484D-01 -0.251581D-03 -0.160628D-01
     17  0.375277D-02  0.299024D-02 -0.122168D-01 -0.177797D-01 -0.393483D-02
     18 -0.523035D-04  0.115801D-03 -0.128574D-01  0.286150D-02 -0.121480D-01
     19  0.256412D-02 -0.369920D-03 -0.288829D-03 -0.522575D-02  0.390986D-02
     20  0.489300D-02 -0.806363D-03 -0.895827D-04 -0.623028D-03  0.569385D-03
     21 -0.449688D-03  0.464403D-04 -0.266817D-03 -0.321914D-02  0.250531D-02
               16            17            18            19            20 
     16  0.426965D-01
     17  0.659644D-02  0.397912D-01
     18  0.159668D-01 -0.174655D-01  0.264403D-01
     19 -0.174007D-01  0.862671D-03 -0.296833D-02  0.536061D-01
     20 -0.107831D-01 -0.242492D-01  0.147492D-01  0.118522D-02  0.421497D-01
     21  0.488186D-02  0.172320D-01 -0.147002D-01 -0.569703D-02 -0.211750D-01
               21 
     21  0.218195D-01
 Leave Link  716 at Mon Nov 13 15:06:56 2023, MaxMem=  1879048192 cpu:               0.5 elap:               0.0
 (Enter /home/sekinelabo/g16/l103.exe)

 GradGradGradGradGradGradGradGradGradGradGradGradGradGradGradGradGradGrad
 Berny optimization.
 Search for a local minimum.
 Step number   1 out of a maximum of    2
 All quantities printed in internal units (Hartrees-Bohrs-Radians)
 Second derivative matrix not updated -- first step.
 ITU=  0
     Eigenvalues ---    0.00566   0.00768   0.01936   0.02569   0.02975
     Eigenvalues ---    0.03197   0.05031   0.05464   0.06875   0.08557
     Eigenvalues ---    0.10511   0.11507   0.12436   0.16294   0.16879
 Quadratic step=4.567D-01 exceeds max=3.000D-01 adjusted using Lamda=-1.195D-02.
 Angle between NR and scaled steps=  20.12 degrees.
 Angle between quadratic step and forces=  23.87 degrees.
 Linear search not attempted -- first point.
 B after Tr=     0.000000    0.000000   -0.000000
         Rot=    1.000000   -0.000000   -0.000000   -0.000000 Ang=   0.00 deg.
 Variable       Old X    -DE/DX   Delta X   Delta X   Delta X     New X
                                 (Linear)    (Quad)   (Total)
    X1        5.01949  -0.00410   0.00000  -0.05479  -0.05479   4.96470
    Y1        0.00000  -0.00983   0.00000  -0.14061  -0.14061  -0.14061
    Z1        4.87955   0.00411   0.00000   0.00673   0.00673   4.88628
    X2        7.80526   0.00078   0.00000   0.01211   0.01211   7.81737
    Y2        0.70317  -0.00230   0.00000  -0.05080  -0.05080   0.65237
    Z2        0.00000  -0.00758   0.00000  -0.07890  -0.07890  -0.07890
    X3       14.52260   0.00355   0.00000   0.10814   0.10814  14.63074
    Y3        5.05345   0.00233   0.00000   0.05991   0.05991   5.11336
    Z3        3.50609   0.00010   0.00000   0.03420   0.03420   3.54029
    X4        9.04601   0.00473   0.00000   0.04865   0.04865   9.09466
    Y4        3.96743   0.00202   0.00000  -0.00216  -0.00216   3.96527
    Z4        4.46364   0.00418   0.00000   0.02813   0.02813   4.49177
    X5        6.14673   0.00222   0.00000   0.03573   0.03573   6.18246
    Y5        8.81335   0.00703   0.00000   0.10961   0.10961   8.92295
    Z5        3.86763  -0.00030   0.00000  -0.03353  -0.03353   3.83411
    X6        1.21485  -0.00129   0.00000  -0.03973  -0.03973   1.17512
    Y6        7.31904   0.00335   0.00000   0.05313   0.05313   7.37217
    Z6        1.50464  -0.00376   0.00000  -0.03295  -0.03295   1.47170
    X7        0.00000  -0.00588   0.00000  -0.11012  -0.11012  -0.11012
    Y7        2.59344  -0.00260   0.00000  -0.02909  -0.02909   2.56436
    Z7        4.39825   0.00325   0.00000   0.07630   0.07630   4.47455
         Item               Value     Threshold  Converged?
 Maximum Force            0.009831     0.000450     NO 
 RMS     Force            0.004305     0.000300     NO 
 Maximum Displacement     0.140607     0.001800     NO 
 RMS     Displacement     0.065494     0.001200     NO 
 Predicted change in Energy=-3.245505D-03
 GradGradGradGradGradGradGradGradGradGradGradGradGradGradGradGradGradGrad

 Leave Link  103 at Mon Nov 13 15:06:56 2023, MaxMem=  1879048192 cpu:               0.3 elap:               0.0
 (Enter /home/sekinelabo/g16/l9999.exe)
 1\1\GINC-SEKINELABO-XA7R-R37\Force\UB3LYP\6-311+G(d)\Na7(2)\SEKINELABO
 \13-Nov-2023\0\\#P B3LYP/6-311+g(d) force\\Gaussian input prepared by 
 ASE\\0,2\Na,2.6562014275,0.,2.5821467293\Na,4.1303668715,0.3721008396,
 0.\Na,7.6850307912,2.6741685375,1.8553420622\Na,4.7869407794,2.0994738
 796,2.362055591\Na,3.2527094258,4.6638221265,2.0466627403\Na,0.6428720
 115,3.8730702711,0.796221772\Na,0.,1.372390001,2.3274511984\\Version=E
 S64L-G16RevB.01\State=2-A\HF=-1136.0987043\S2=0.781755\S2-1=0.\S2A=0.7
 50386\RMSD=5.531e-09\RMSF=4.305e-03\Dipole=0.0858001,-0.0854083,-0.588
 095\Quadrupole=0.4096344,-3.1975667,2.7879323,-2.3857193,-0.3367564,0.
 9187372\PG=C01 [X(Na7)]\\@


 The mind is not a vessel to be filled but a fire to be kindled.
                                  -- Plutarch
 Job cpu time:       0 days  0 hours  4 minutes 57.4 seconds.
 Elapsed time:       0 days  0 hours  0 minutes 24.4 seconds.
 File lengths (MBytes):  RWF=     32 Int=      0 D2E=      0 Chk=      5 Scr=      1
 Normal termination of Gaussian 16 at Mon Nov 13 15:06:56 2023.
