 Entering Gaussian System, Link 0=g16
 Initial command:
 /home/sekinelabo/g16/l1.exe "/home/sekinelabo/g16temp/Gau-4170864.inp" -scrdir="/home/sekinelabo/g16temp/"
 Entering Link 1 = /home/sekinelabo/g16/l1.exe PID=   4170866.
  
 Copyright (c) 1988-2017, Gaussian, Inc.  All Rights Reserved.
  
 This is part of the Gaussian(R) 16 program.  It is based on
 the Gaussian(R) 09 system (copyright 2009, Gaussian, Inc.),
 the Gaussian(R) 03 system (copyright 2003, Gaussian, Inc.),
 the Gaussian(R) 98 system (copyright 1998, Gaussian, Inc.),
 the Gaussian(R) 94 system (copyright 1995, Gaussian, Inc.),
 the Gaussian 92(TM) system (copyright 1992, Gaussian, Inc.),
 the Gaussian 90(TM) system (copyright 1990, Gaussian, Inc.),
 the Gaussian 88(TM) system (copyright 1988, Gaussian, Inc.),
 the Gaussian 86(TM) system (copyright 1986, Carnegie Mellon
 University), and the Gaussian 82(TM) system (copyright 1983,
 Carnegie Mellon University). Gaussian is a federally registered
 trademark of Gaussian, Inc.
  
 This software contains proprietary and confidential information,
 including trade secrets, belonging to Gaussian, Inc.
  
 This software is provided under written license and may be
 used, copied, transmitted, or stored only in accord with that
 written license.
  
 The following legend is applicable only to US Government
 contracts under FAR:
  
                    RESTRICTED RIGHTS LEGEND
  
 Use, reproduction and disclosure by the US Government is
 subject to restrictions as set forth in subparagraphs (a)
 and (c) of the Commercial Computer Software - Restricted
 Rights clause in FAR 52.227-19.
  
 Gaussian, Inc.
 340 Quinnipiac St., Bldg. 40, Wallingford CT 06492
  
  
 ---------------------------------------------------------------
 Warning -- This program may not be used in any manner that
 competes with the business of Gaussian, Inc. or will provide
 assistance to any competitor of Gaussian, Inc.  The licensee
 of this program is prohibited from giving any competitor of
 Gaussian, Inc. access to this program.  By using this program,
 the user acknowledges that Gaussian, Inc. is engaged in the
 business of creating and licensing software in the field of
 computational chemistry and represents and warrants to the
 licensee that it is not a competitor of Gaussian, Inc. and that
 it will not use this program in any manner prohibited above.
 ---------------------------------------------------------------
  

 Cite this work as:
 Gaussian 16, Revision B.01,
 M. J. Frisch, G. W. Trucks, H. B. Schlegel, G. E. Scuseria, 
 M. A. Robb, J. R. Cheeseman, G. Scalmani, V. Barone, 
 G. A. Petersson, H. Nakatsuji, X. Li, M. Caricato, A. V. Marenich, 
 J. Bloino, B. G. Janesko, R. Gomperts, B. Mennucci, H. P. Hratchian, 
 J. V. Ortiz, A. F. Izmaylov, J. L. Sonnenberg, D. Williams-Young, 
 F. Ding, F. Lipparini, F. Egidi, J. Goings, B. Peng, A. Petrone, 
 T. Henderson, D. Ranasinghe, V. G. Zakrzewski, J. Gao, N. Rega, 
 G. Zheng, W. Liang, M. Hada, M. Ehara, K. Toyota, R. Fukuda, 
 J. Hasegawa, M. Ishida, T. Nakajima, Y. Honda, O. Kitao, H. Nakai, 
 T. Vreven, K. Throssell, J. A. Montgomery, Jr., J. E. Peralta, 
 F. Ogliaro, M. J. Bearpark, J. J. Heyd, E. N. Brothers, K. N. Kudin, 
 V. N. Staroverov, T. A. Keith, R. Kobayashi, J. Normand, 
 K. Raghavachari, A. P. Rendell, J. C. Burant, S. S. Iyengar, 
 J. Tomasi, M. Cossi, J. M. Millam, M. Klene, C. Adamo, R. Cammi, 
 J. W. Ochterski, R. L. Martin, K. Morokuma, O. Farkas, 
 J. B. Foresman, and D. J. Fox, Gaussian, Inc., Wallingford CT, 2016.
 
 ******************************************
 Gaussian 16:  ES64L-G16RevB.01 20-Dec-2017
                13-Nov-2023 
 ******************************************
 %mem=14GB
 %chk=checkpoint.chk
 %nprocshared=16
 Will use up to   16 processors via shared memory.
 -------------------------
 #P B3LYP/6-311+g(d) force
 -------------------------
 1/10=7,30=1,38=1/1,3;
 2/12=2,17=6,18=5,40=1/2;
 3/5=4,6=6,7=11,11=2,25=1,30=1,71=1,74=-5/1,2,3;
 4//1;
 5/5=2,38=5/2;
 6/7=2,8=2,9=2,10=2,28=1/1;
 7/29=1/1,2,3,16;
 1/10=7,30=1/3;
 99//99;
 Leave Link    1 at Mon Nov 13 20:04:08 2023, MaxMem=  1879048192 cpu:               0.3 elap:               0.0
 (Enter /home/sekinelabo/g16/l101.exe)
 ------------------------------
 Gaussian input prepared by ASE
 ------------------------------
 Symbolic Z-matrix:
 Charge =  0 Multiplicity = 2
 Na                    2.74639   1.57383   3.1606 
 Na                    2.19804   0.00236   0.84047 
 Na                    0.        1.57495   2.05171 
 Na                    2.20233   3.14626   0.83971 
 Na                    4.42929   1.57065   0. 
 Na                    4.97868   3.14745   2.31865 
 Na                    4.97724   0.        2.32093 
 
 ITRead=  0  0  0  0  0  0  0
 MicOpt= -1 -1 -1 -1 -1 -1 -1
 NAtoms=      7 NQM=        7 NQMF=       0 NMMI=      0 NMMIF=      0
                NMic=       0 NMicF=      0.
                    Isotopes and Nuclear Properties:
 (Nuclear quadrupole moments (NQMom) in fm**2, nuclear magnetic moments (NMagM)
  in nuclear magnetons)

  Atom         1           2           3           4           5           6           7
 IAtWgt=          23          23          23          23          23          23          23
 AtmWgt=  22.9897697  22.9897697  22.9897697  22.9897697  22.9897697  22.9897697  22.9897697
 NucSpn=           3           3           3           3           3           3           3
 AtZEff=  -0.0000000  -0.0000000  -0.0000000  -0.0000000  -0.0000000  -0.0000000  -0.0000000
 NQMom=   10.4000000  10.4000000  10.4000000  10.4000000  10.4000000  10.4000000  10.4000000
 NMagM=    2.2175200   2.2175200   2.2175200   2.2175200   2.2175200   2.2175200   2.2175200
 AtZNuc=  11.0000000  11.0000000  11.0000000  11.0000000  11.0000000  11.0000000  11.0000000
 Leave Link  101 at Mon Nov 13 20:04:09 2023, MaxMem=  1879048192 cpu:               2.6 elap:               0.2
 (Enter /home/sekinelabo/g16/l103.exe)

 GradGradGradGradGradGradGradGradGradGradGradGradGradGradGradGradGradGrad
 Berny optimization.
 Initialization pass.
 Trust Radius=3.00D-01 FncErr=1.00D-07 GrdErr=1.00D-07 EigMax=2.50D+02 EigMin=1.00D-04
 Number of steps in this run=      2 maximum allowed number of steps=      2.
 GradGradGradGradGradGradGradGradGradGradGradGradGradGradGradGradGradGrad

 Leave Link  103 at Mon Nov 13 20:04:09 2023, MaxMem=  1879048192 cpu:               0.2 elap:               0.0
 (Enter /home/sekinelabo/g16/l202.exe)
                          Input orientation:                          
 ---------------------------------------------------------------------
 Center     Atomic      Atomic             Coordinates (Angstroms)
 Number     Number       Type             X           Y           Z
 ---------------------------------------------------------------------
      1         11           0        2.746389    1.573833    3.160595
      2         11           0        2.198042    0.002360    0.840470
      3         11           0        0.000000    1.574954    2.051714
      4         11           0        2.202329    3.146259    0.839710
      5         11           0        4.429285    1.570651    0.000000
      6         11           0        4.978677    3.147452    2.318655
      7         11           0        4.977243    0.000000    2.320935
 ---------------------------------------------------------------------
                    Distance matrix (angstroms):
                    1          2          3          4          5
     1  Na   0.000000
     2  Na   2.855380   0.000000
     3  Na   2.961802   2.961680   0.000000
     4  Na   2.855701   3.143902   2.964491   0.000000
     5  Na   3.580714   2.853835   4.881406   2.854293   0.000000
     6  Na   2.858015   4.450681   5.227928   3.145693   2.857323
     7  Na   2.856342   3.148927   5.227419   4.448945   2.855510
                    6          7
     6  Na   0.000000
     7  Na   3.147453   0.000000
 Stoichiometry    Na7(2)
 Framework group  C1[X(Na7)]
 Deg. of freedom    15
 Full point group                 C1      NOp   1
 Largest Abelian subgroup         C1      NOp   1
 Largest concise Abelian subgroup C1      NOp   1
                         Standard orientation:                         
 ---------------------------------------------------------------------
 Center     Atomic      Atomic             Coordinates (Angstroms)
 Number     Number       Type             X           Y           Z
 ---------------------------------------------------------------------
      1         11           0        0.329606    0.000189   -1.513155
      2         11           0        0.877953   -1.571284    0.806970
      3         11           0        3.075995    0.001310   -0.404274
      4         11           0        0.873666    1.572615    0.807730
      5         11           0       -1.353290   -0.002993    1.647440
      6         11           0       -1.902682    1.573807   -0.671215
      7         11           0       -1.901248   -1.573644   -0.673495
 ---------------------------------------------------------------------
 Rotational constants (GHZ):           1.2728753           0.7980474           0.7311482
 Leave Link  202 at Mon Nov 13 20:04:09 2023, MaxMem=  1879048192 cpu:               0.0 elap:               0.0
 (Enter /home/sekinelabo/g16/l301.exe)
 Standard basis: 6-311+G(d) (5D, 7F)
 Ernie: Thresh=  0.10000D-02 Tol=  0.10000D-05 Strict=F.
 There are   217 symmetry adapted cartesian basis functions of A   symmetry.
 There are   210 symmetry adapted basis functions of A   symmetry.
   210 basis functions,   350 primitive gaussians,   217 cartesian basis functions
    39 alpha electrons       38 beta electrons
       nuclear repulsion energy       409.8811480624 Hartrees.
 IExCor=  402 DFT=T Ex+Corr=B3LYP ExCW=0 ScaHFX=  0.200000
 ScaDFX=  0.800000  0.720000  1.000000  0.810000 ScalE2=  1.000000  1.000000
 IRadAn=      5 IRanWt=     -1 IRanGd=            0 ICorTp=0 IEmpDi=  4
 NAtoms=    7 NActive=    7 NUniq=    7 SFac= 1.00D+00 NAtFMM=   60 NAOKFM=F Big=F
 Integral buffers will be    131072 words long.
 Raffenetti 2 integral format.
 Two-electron integral symmetry is turned on.
 Leave Link  301 at Mon Nov 13 20:04:09 2023, MaxMem=  1879048192 cpu:               0.5 elap:               0.0
 (Enter /home/sekinelabo/g16/l302.exe)
 NPDir=0 NMtPBC=     1 NCelOv=     1 NCel=       1 NClECP=     1 NCelD=      1
         NCelK=      1 NCelE2=     1 NClLst=     1 CellRange=     0.0.
 One-electron integrals computed using PRISM.
 One-electron integral symmetry used in STVInt
 NBasis=   210 RedAO= T EigKep=  1.83D-06  NBF=   210
 NBsUse=   210 1.00D-06 EigRej= -1.00D+00 NBFU=   210
 Precomputing XC quadrature grid using
 IXCGrd= 4 IRadAn=           5 IRanWt=          -1 IRanGd=           0 AccXCQ= 0.00D+00.
 Generated NRdTot=       0 NPtTot=           0 NUsed=           0 NTot=          32
 NSgBfM=   211   211   211   211   211 MxSgAt=     7 MxSgA2=     7.
 Leave Link  302 at Mon Nov 13 20:04:09 2023, MaxMem=  1879048192 cpu:               2.1 elap:               0.1
 (Enter /home/sekinelabo/g16/l303.exe)
 DipDrv:  MaxL=1.
 Leave Link  303 at Mon Nov 13 20:04:09 2023, MaxMem=  1879048192 cpu:               0.6 elap:               0.0
 (Enter /home/sekinelabo/g16/l401.exe)
 ExpMin= 7.60D-03 ExpMax= 3.62D+04 ExpMxC= 1.21D+03 IAcc=3 IRadAn=         5 AccDes= 0.00D+00
 Harris functional with IExCor=  402 and IRadAn=       5 diagonalized for initial guess.
 HarFok:  IExCor=  402 AccDes= 0.00D+00 IRadAn=         5 IDoV= 1 UseB2=F ITyADJ=14
 ICtDFT=  3500011 ScaDFX=  1.000000  1.000000  1.000000  1.000000
 FoFCou: FMM=F IPFlag=           0 FMFlag=      100000 FMFlg1=           0
         NFxFlg=           0 DoJE=T BraDBF=F KetDBF=T FulRan=T
         wScrn=  0.000000 ICntrl=       500 IOpCl=  0 I1Cent=   200000004 NGrid=           0
         NMat0=    1 NMatS0=      1 NMatT0=    0 NMatD0=    1 NMtDS0=    0 NMtDT0=    0
 Petite list used in FoFCou.
 Harris En= -1135.85996217762    
 JPrj=0 DoOrth=F DoCkMO=F.
 Initial guess <Sx>= 0.0000 <Sy>= 0.0000 <Sz>= 0.5000 <S**2>= 0.7500 S= 0.5000
 Leave Link  401 at Mon Nov 13 20:04:09 2023, MaxMem=  1879048192 cpu:               4.8 elap:               0.3
 (Enter /home/sekinelabo/g16/l502.exe)
 Keep R1 and R2 ints in memory in canonical form, NReq=507620388.
 FoFCou: FMM=F IPFlag=           0 FMFlag=           0 FMFlg1=           0
         NFxFlg=           0 DoJE=F BraDBF=F KetDBF=F FulRan=T
         wScrn=  0.000000 ICntrl=       600 IOpCl=  0 I1Cent=           0 NGrid=           0
         NMat0=    1 NMatS0=  22155 NMatT0=    0 NMatD0=    1 NMtDS0=    0 NMtDT0=    0
 Symmetry not used in FoFCou.
 Two-electron integral symmetry not used.
 UHF open shell SCF:
 Using DIIS extrapolation, IDIIS=  1040.
 NGot=  1879048192 LenX=  1388082348 LenY=  1388034818
 Requested convergence on RMS density matrix=1.00D-08 within 128 cycles.
 Requested convergence on MAX density matrix=1.00D-06.
 Requested convergence on             energy=1.00D-06.
 No special actions if energy rises.

 Cycle   1  Pass 1  IDiag  1:
 E= -1136.03632080735    
 DIIS: error= 1.62D-02 at cycle   1 NSaved=   1.
 NSaved= 1 IEnMin= 1 EnMin= -1136.03632080735     IErMin= 1 ErrMin= 1.62D-02
 ErrMax= 1.62D-02  0.00D+00 EMaxC= 1.00D-01 BMatC= 2.13D-01 BMatP= 2.13D-01
 IDIUse=3 WtCom= 8.38D-01 WtEn= 1.62D-01
 Coeff-Com:  0.100D+01
 Coeff-En:   0.100D+01
 Coeff:      0.100D+01
 Gap=     0.058 Goal=   None    Shift=    0.000
 Gap=     0.031 Goal=   None    Shift=    0.000
 GapD=    0.031 DampG=0.250 DampE=0.500 DampFc=0.2500 IDamp=-1.
 Damping current iteration by 2.50D-01
 RMSDP=9.70D-02 MaxDP=9.47D+00              OVMax= 2.76D-01

 Cycle   2  Pass 1  IDiag  1:
 E= -1136.05376620570     Delta-E=       -0.017445398345 Rises=F Damp=T
 DIIS: error= 9.98D-03 at cycle   2 NSaved=   2.
 NSaved= 2 IEnMin= 2 EnMin= -1136.05376620570     IErMin= 2 ErrMin= 9.98D-03
 ErrMax= 9.98D-03  0.00D+00 EMaxC= 1.00D-01 BMatC= 7.99D-02 BMatP= 2.13D-01
 IDIUse=3 WtCom= 9.00D-01 WtEn= 9.98D-02
 Coeff-Com: -0.125D+01 0.225D+01
 Coeff-En:   0.000D+00 0.100D+01
 Coeff:     -0.112D+01 0.212D+01
 Gap=     0.064 Goal=   None    Shift=    0.000
 Gap=     0.035 Goal=   None    Shift=    0.000
 RMSDP=4.19D-02 MaxDP=4.46D+00 DE=-1.74D-02 OVMax= 1.85D-01

 Cycle   3  Pass 1  IDiag  1:
 E= -1136.08286774349     Delta-E=       -0.029101537797 Rises=F Damp=F
 DIIS: error= 4.06D-03 at cycle   3 NSaved=   3.
 NSaved= 3 IEnMin= 3 EnMin= -1136.08286774349     IErMin= 3 ErrMin= 4.06D-03
 ErrMax= 4.06D-03  0.00D+00 EMaxC= 1.00D-01 BMatC= 4.77D-03 BMatP= 7.99D-02
 IDIUse=3 WtCom= 9.59D-01 WtEn= 4.06D-02
 Coeff-Com: -0.273D+00 0.505D+00 0.768D+00
 Coeff-En:   0.000D+00 0.000D+00 0.100D+01
 Coeff:     -0.262D+00 0.484D+00 0.777D+00
 Gap=     0.059 Goal=   None    Shift=    0.000
 Gap=     0.035 Goal=   None    Shift=    0.000
 RMSDP=1.81D-02 MaxDP=1.55D+00 DE=-2.91D-02 OVMax= 5.52D-02

 Cycle   4  Pass 1  IDiag  1:
 E= -1136.08382888271     Delta-E=       -0.000961139213 Rises=F Damp=F
 DIIS: error= 3.32D-03 at cycle   4 NSaved=   4.
 NSaved= 4 IEnMin= 4 EnMin= -1136.08382888271     IErMin= 4 ErrMin= 3.32D-03
 ErrMax= 3.32D-03  0.00D+00 EMaxC= 1.00D-01 BMatC= 2.73D-03 BMatP= 4.77D-03
 IDIUse=3 WtCom= 9.67D-01 WtEn= 3.32D-02
 Coeff-Com:  0.109D-01-0.142D-01 0.431D+00 0.572D+00
 Coeff-En:   0.000D+00 0.000D+00 0.384D+00 0.616D+00
 Coeff:      0.105D-01-0.137D-01 0.430D+00 0.573D+00
 Gap=     0.062 Goal=   None    Shift=    0.000
 Gap=     0.035 Goal=   None    Shift=    0.000
 RMSDP=5.85D-03 MaxDP=4.56D-01 DE=-9.61D-04 OVMax= 2.52D-02

 Cycle   5  Pass 1  IDiag  1:
 E= -1136.08524170510     Delta-E=       -0.001412822390 Rises=F Damp=F
 DIIS: error= 1.51D-04 at cycle   5 NSaved=   5.
 NSaved= 5 IEnMin= 5 EnMin= -1136.08524170510     IErMin= 5 ErrMin= 1.51D-04
 ErrMax= 1.51D-04  0.00D+00 EMaxC= 1.00D-01 BMatC= 4.53D-06 BMatP= 2.73D-03
 IDIUse=3 WtCom= 9.98D-01 WtEn= 1.51D-03
 Coeff-Com: -0.581D-03 0.315D-03 0.594D-01 0.782D-01 0.863D+00
 Coeff-En:   0.000D+00 0.000D+00 0.000D+00 0.000D+00 0.100D+01
 Coeff:     -0.580D-03 0.314D-03 0.593D-01 0.781D-01 0.863D+00
 Gap=     0.062 Goal=   None    Shift=    0.000
 Gap=     0.035 Goal=   None    Shift=    0.000
 RMSDP=6.72D-04 MaxDP=4.44D-02 DE=-1.41D-03 OVMax= 4.58D-03

 Cycle   6  Pass 1  IDiag  1:
 E= -1136.08524256848     Delta-E=       -0.000000863383 Rises=F Damp=F
 DIIS: error= 1.96D-04 at cycle   6 NSaved=   6.
 NSaved= 6 IEnMin= 6 EnMin= -1136.08524256848     IErMin= 5 ErrMin= 1.51D-04
 ErrMax= 1.96D-04  0.00D+00 EMaxC= 1.00D-01 BMatC= 7.04D-06 BMatP= 4.53D-06
 IDIUse=3 WtCom= 9.98D-01 WtEn= 1.51D-03
 Coeff-Com: -0.275D-02 0.328D-02-0.426D-01-0.574D-01 0.615D+00 0.484D+00
 Coeff-En:   0.000D+00 0.000D+00 0.000D+00 0.000D+00 0.458D+00 0.542D+00
 Coeff:     -0.275D-02 0.327D-02-0.425D-01-0.573D-01 0.615D+00 0.484D+00
 Gap=     0.062 Goal=   None    Shift=    0.000
 Gap=     0.036 Goal=   None    Shift=    0.000
 RMSDP=2.28D-04 MaxDP=1.30D-02 DE=-8.63D-07 OVMax= 2.60D-03

 Cycle   7  Pass 1  IDiag  1:
 E= -1136.08524988398     Delta-E=       -0.000007315502 Rises=F Damp=F
 DIIS: error= 3.31D-05 at cycle   7 NSaved=   7.
 NSaved= 7 IEnMin= 7 EnMin= -1136.08524988398     IErMin= 7 ErrMin= 3.31D-05
 ErrMax= 3.31D-05  0.00D+00 EMaxC= 1.00D-01 BMatC= 1.97D-07 BMatP= 4.53D-06
 IDIUse=1 WtCom= 1.00D+00 WtEn= 0.00D+00
 Coeff-Com: -0.143D-03 0.172D-03-0.173D-01-0.210D-01-0.722D-01 0.394D-01
 Coeff-Com:  0.107D+01
 Coeff:     -0.143D-03 0.172D-03-0.173D-01-0.210D-01-0.722D-01 0.394D-01
 Coeff:      0.107D+01
 Gap=     0.062 Goal=   None    Shift=    0.000
 Gap=     0.036 Goal=   None    Shift=    0.000
 RMSDP=1.27D-04 MaxDP=7.32D-03 DE=-7.32D-06 OVMax= 1.52D-03

 Cycle   8  Pass 1  IDiag  1:
 E= -1136.08525035804     Delta-E=       -0.000000474059 Rises=F Damp=F
 DIIS: error= 3.18D-05 at cycle   8 NSaved=   8.
 NSaved= 8 IEnMin= 8 EnMin= -1136.08525035804     IErMin= 8 ErrMin= 3.18D-05
 ErrMax= 3.18D-05  0.00D+00 EMaxC= 1.00D-01 BMatC= 1.82D-07 BMatP= 1.97D-07
 IDIUse=1 WtCom= 1.00D+00 WtEn= 0.00D+00
 Coeff-Com:  0.415D-03-0.516D-03-0.508D-02-0.502D-02-0.133D+00-0.473D-01
 Coeff-Com:  0.704D+00 0.486D+00
 Coeff:      0.415D-03-0.516D-03-0.508D-02-0.502D-02-0.133D+00-0.473D-01
 Coeff:      0.704D+00 0.486D+00
 Gap=     0.062 Goal=   None    Shift=    0.000
 Gap=     0.036 Goal=   None    Shift=    0.000
 RMSDP=3.63D-05 MaxDP=1.99D-03 DE=-4.74D-07 OVMax= 7.28D-04

 Cycle   9  Pass 1  IDiag  1:
 E= -1136.08525058949     Delta-E=       -0.000000231450 Rises=F Damp=F
 DIIS: error= 9.80D-06 at cycle   9 NSaved=   9.
 NSaved= 9 IEnMin= 9 EnMin= -1136.08525058949     IErMin= 9 ErrMin= 9.80D-06
 ErrMax= 9.80D-06  0.00D+00 EMaxC= 1.00D-01 BMatC= 2.15D-08 BMatP= 1.82D-07
 IDIUse=1 WtCom= 1.00D+00 WtEn= 0.00D+00
 Coeff-Com:  0.317D-03-0.399D-03 0.227D-02 0.332D-02-0.432D-01-0.368D-01
 Coeff-Com:  0.321D-01 0.251D+00 0.792D+00
 Coeff:      0.317D-03-0.399D-03 0.227D-02 0.332D-02-0.432D-01-0.368D-01
 Coeff:      0.321D-01 0.251D+00 0.792D+00
 Gap=     0.062 Goal=   None    Shift=    0.000
 Gap=     0.036 Goal=   None    Shift=    0.000
 RMSDP=2.62D-05 MaxDP=2.71D-03 DE=-2.31D-07 OVMax= 3.64D-04

 Cycle  10  Pass 1  IDiag  1:
 E= -1136.08525063450     Delta-E=       -0.000000045012 Rises=F Damp=F
 DIIS: error= 2.24D-06 at cycle  10 NSaved=  10.
 NSaved=10 IEnMin=10 EnMin= -1136.08525063450     IErMin=10 ErrMin= 2.24D-06
 ErrMax= 2.24D-06  0.00D+00 EMaxC= 1.00D-01 BMatC= 2.50D-09 BMatP= 2.15D-08
 IDIUse=1 WtCom= 1.00D+00 WtEn= 0.00D+00
 Coeff-Com:  0.245D-04-0.240D-04 0.177D-02 0.203D-02 0.357D-02-0.630D-02
 Coeff-Com: -0.100D+00 0.144D-01 0.253D+00 0.832D+00
 Coeff:      0.245D-04-0.240D-04 0.177D-02 0.203D-02 0.357D-02-0.630D-02
 Coeff:     -0.100D+00 0.144D-01 0.253D+00 0.832D+00
 Gap=     0.062 Goal=   None    Shift=    0.000
 Gap=     0.036 Goal=   None    Shift=    0.000
 RMSDP=1.41D-05 MaxDP=1.17D-03 DE=-4.50D-08 OVMax= 2.00D-04

 Cycle  11  Pass 1  IDiag  1:
 E= -1136.08525064122     Delta-E=       -0.000000006717 Rises=F Damp=F
 DIIS: error= 1.02D-06 at cycle  11 NSaved=  11.
 NSaved=11 IEnMin=11 EnMin= -1136.08525064122     IErMin=11 ErrMin= 1.02D-06
 ErrMax= 1.02D-06  0.00D+00 EMaxC= 1.00D-01 BMatC= 3.00D-10 BMatP= 2.50D-09
 IDIUse=1 WtCom= 1.00D+00 WtEn= 0.00D+00
 Coeff-Com: -0.817D-04 0.105D-03-0.298D-04-0.181D-03 0.108D-01 0.628D-02
 Coeff-Com: -0.350D-01-0.513D-01-0.105D+00 0.126D+00 0.105D+01
 Coeff:     -0.817D-04 0.105D-03-0.298D-04-0.181D-03 0.108D-01 0.628D-02
 Coeff:     -0.350D-01-0.513D-01-0.105D+00 0.126D+00 0.105D+01
 Gap=     0.062 Goal=   None    Shift=    0.000
 Gap=     0.036 Goal=   None    Shift=    0.000
 RMSDP=7.48D-06 MaxDP=7.59D-04 DE=-6.72D-09 OVMax= 1.18D-04

 Cycle  12  Pass 1  IDiag  1:
 E= -1136.08525064260     Delta-E=       -0.000000001382 Rises=F Damp=F
 DIIS: error= 2.79D-07 at cycle  12 NSaved=  12.
 NSaved=12 IEnMin=12 EnMin= -1136.08525064260     IErMin=12 ErrMin= 2.79D-07
 ErrMax= 2.79D-07  0.00D+00 EMaxC= 1.00D-01 BMatC= 1.82D-11 BMatP= 3.00D-10
 IDIUse=1 WtCom= 1.00D+00 WtEn= 0.00D+00
 Coeff-Com:  0.636D-05-0.917D-05-0.661D-04-0.759D-04-0.697D-03 0.228D-03
 Coeff-Com:  0.817D-02-0.151D-02-0.205D-01-0.507D-01-0.164D-01 0.108D+01
 Coeff:      0.636D-05-0.917D-05-0.661D-04-0.759D-04-0.697D-03 0.228D-03
 Coeff:      0.817D-02-0.151D-02-0.205D-01-0.507D-01-0.164D-01 0.108D+01
 Gap=     0.062 Goal=   None    Shift=    0.000
 Gap=     0.036 Goal=   None    Shift=    0.000
 RMSDP=1.57D-06 MaxDP=1.53D-04 DE=-1.38D-09 OVMax= 2.82D-05

 Cycle  13  Pass 1  IDiag  1:
 E= -1136.08525064268     Delta-E=       -0.000000000084 Rises=F Damp=F
 DIIS: error= 1.06D-07 at cycle  13 NSaved=  13.
 NSaved=13 IEnMin=13 EnMin= -1136.08525064268     IErMin=13 ErrMin= 1.06D-07
 ErrMax= 1.06D-07  0.00D+00 EMaxC= 1.00D-01 BMatC= 3.34D-12 BMatP= 1.82D-11
 IDIUse=1 WtCom= 1.00D+00 WtEn= 0.00D+00
 Coeff-Com:  0.855D-05-0.109D-04 0.292D-05 0.303D-04-0.122D-02-0.844D-03
 Coeff-Com:  0.330D-02 0.689D-02 0.164D-01-0.795D-02-0.126D+00-0.198D+00
 Coeff-Com:  0.131D+01
 Coeff:      0.855D-05-0.109D-04 0.292D-05 0.303D-04-0.122D-02-0.844D-03
 Coeff:      0.330D-02 0.689D-02 0.164D-01-0.795D-02-0.126D+00-0.198D+00
 Coeff:      0.131D+01
 Gap=     0.062 Goal=   None    Shift=    0.000
 Gap=     0.036 Goal=   None    Shift=    0.000
 RMSDP=8.87D-07 MaxDP=8.47D-05 DE=-8.37D-11 OVMax= 1.25D-05

 Cycle  14  Pass 1  IDiag  1:
 E= -1136.08525064270     Delta-E=       -0.000000000019 Rises=F Damp=F
 DIIS: error= 5.25D-08 at cycle  14 NSaved=  14.
 NSaved=14 IEnMin=14 EnMin= -1136.08525064270     IErMin=14 ErrMin= 5.25D-08
 ErrMax= 5.25D-08  0.00D+00 EMaxC= 1.00D-01 BMatC= 5.50D-13 BMatP= 3.34D-12
 IDIUse=1 WtCom= 1.00D+00 WtEn= 0.00D+00
 Coeff-Com: -0.115D-05 0.174D-05 0.371D-05 0.488D-05 0.523D-04-0.799D-04
 Coeff-Com: -0.101D-02 0.373D-03 0.493D-02 0.819D-02-0.766D-02-0.193D+00
 Coeff-Com:  0.123D+00 0.107D+01
 Coeff:     -0.115D-05 0.174D-05 0.371D-05 0.488D-05 0.523D-04-0.799D-04
 Coeff:     -0.101D-02 0.373D-03 0.493D-02 0.819D-02-0.766D-02-0.193D+00
 Coeff:      0.123D+00 0.107D+01
 Gap=     0.062 Goal=   None    Shift=    0.000
 Gap=     0.036 Goal=   None    Shift=    0.000
 RMSDP=3.31D-07 MaxDP=3.89D-05 DE=-1.86D-11 OVMax= 4.40D-06

 Cycle  15  Pass 1  IDiag  1:
 E= -1136.08525064273     Delta-E=       -0.000000000028 Rises=F Damp=F
 DIIS: error= 2.81D-08 at cycle  15 NSaved=  15.
 NSaved=15 IEnMin=15 EnMin= -1136.08525064273     IErMin=15 ErrMin= 2.81D-08
 ErrMax= 2.81D-08  0.00D+00 EMaxC= 1.00D-01 BMatC= 1.28D-13 BMatP= 5.50D-13
 IDIUse=1 WtCom= 1.00D+00 WtEn= 0.00D+00
 Coeff-Com: -0.127D-05 0.167D-05 0.198D-05-0.270D-05 0.160D-03 0.120D-03
 Coeff-Com: -0.638D-03-0.800D-03-0.176D-02 0.261D-02 0.169D-01-0.530D-02
 Coeff-Com: -0.188D+00 0.276D+00 0.901D+00
 Coeff:     -0.127D-05 0.167D-05 0.198D-05-0.270D-05 0.160D-03 0.120D-03
 Coeff:     -0.638D-03-0.800D-03-0.176D-02 0.261D-02 0.169D-01-0.530D-02
 Coeff:     -0.188D+00 0.276D+00 0.901D+00
 Gap=     0.062 Goal=   None    Shift=    0.000
 Gap=     0.036 Goal=   None    Shift=    0.000
 RMSDP=1.13D-07 MaxDP=8.56D-06 DE=-2.77D-11 OVMax= 1.42D-06

 Cycle  16  Pass 1  IDiag  1:
 E= -1136.08525064272     Delta-E=        0.000000000015 Rises=F Damp=F
 DIIS: error= 7.36D-09 at cycle  16 NSaved=  16.
 NSaved=16 IEnMin=15 EnMin= -1136.08525064273     IErMin=16 ErrMin= 7.36D-09
 ErrMax= 7.36D-09  0.00D+00 EMaxC= 1.00D-01 BMatC= 1.70D-14 BMatP= 1.28D-13
 IDIUse=1 WtCom= 1.00D+00 WtEn= 0.00D+00
 Coeff-Com:  0.668D-07-0.126D-06 0.573D-06-0.390D-06 0.233D-04 0.280D-04
 Coeff-Com:  0.570D-05-0.153D-03-0.853D-03-0.896D-03 0.390D-02 0.250D-01
 Coeff-Com: -0.368D-01-0.139D+00 0.123D+00 0.102D+01
 Coeff:      0.668D-07-0.126D-06 0.573D-06-0.390D-06 0.233D-04 0.280D-04
 Coeff:      0.570D-05-0.153D-03-0.853D-03-0.896D-03 0.390D-02 0.250D-01
 Coeff:     -0.368D-01-0.139D+00 0.123D+00 0.102D+01
 Gap=     0.062 Goal=   None    Shift=    0.000
 Gap=     0.036 Goal=   None    Shift=    0.000
 RMSDP=4.99D-08 MaxDP=3.34D-06 DE= 1.46D-11 OVMax= 1.02D-06

 Cycle  17  Pass 1  IDiag  1:
 E= -1136.08525064272     Delta-E=       -0.000000000003 Rises=F Damp=F
 DIIS: error= 5.97D-09 at cycle  17 NSaved=  17.
 NSaved=17 IEnMin=15 EnMin= -1136.08525064273     IErMin=17 ErrMin= 5.97D-09
 ErrMax= 5.97D-09  0.00D+00 EMaxC= 1.00D-01 BMatC= 1.17D-14 BMatP= 1.70D-14
 IDIUse=1 WtCom= 1.00D+00 WtEn= 0.00D+00
 Coeff-Com:  0.214D-06-0.305D-06-0.410D-07 0.849D-07-0.804D-05-0.531D-06
 Coeff-Com:  0.949D-04 0.178D-04-0.255D-03-0.920D-03-0.476D-04 0.159D-01
 Coeff-Com:  0.524D-02-0.125D+00-0.545D-01 0.624D+00 0.535D+00
 Coeff:      0.214D-06-0.305D-06-0.410D-07 0.849D-07-0.804D-05-0.531D-06
 Coeff:      0.949D-04 0.178D-04-0.255D-03-0.920D-03-0.476D-04 0.159D-01
 Coeff:      0.524D-02-0.125D+00-0.545D-01 0.624D+00 0.535D+00
 Gap=     0.062 Goal=   None    Shift=    0.000
 Gap=     0.036 Goal=   None    Shift=    0.000
 RMSDP=1.54D-08 MaxDP=8.56D-07 DE=-2.73D-12 OVMax= 4.73D-07

 Cycle  18  Pass 1  IDiag  1:
 E= -1136.08525064270     Delta-E=        0.000000000015 Rises=F Damp=F
 DIIS: error= 5.09D-09 at cycle  18 NSaved=  18.
 NSaved=18 IEnMin=15 EnMin= -1136.08525064273     IErMin=18 ErrMin= 5.09D-09
 ErrMax= 5.09D-09  0.00D+00 EMaxC= 1.00D-01 BMatC= 3.04D-15 BMatP= 1.17D-14
 IDIUse=1 WtCom= 1.00D+00 WtEn= 0.00D+00
 Large coefficients: NSaved= 18 BigCof=    0.00 CofMax=   10.00 Det=-2.20D-15
 Inversion failed.  Reducing to 17 matrices.
 Large coefficients: NSaved= 17 BigCof=    0.00 CofMax=   10.00 Det=-2.39D-15
 Inversion failed.  Reducing to 16 matrices.
 Large coefficients: NSaved= 16 BigCof=    0.00 CofMax=   10.00 Det=-2.41D-15
 Inversion failed.  Reducing to 15 matrices.
 Coeff-Com:  0.759D-06-0.123D-04-0.147D-04 0.357D-05 0.693D-04 0.385D-03
 Coeff-Com:  0.388D-03-0.195D-02-0.973D-02 0.175D-01 0.540D-01-0.687D-01
 Coeff-Com: -0.432D+00 0.759D-01 0.136D+01
 Coeff:      0.759D-06-0.123D-04-0.147D-04 0.357D-05 0.693D-04 0.385D-03
 Coeff:      0.388D-03-0.195D-02-0.973D-02 0.175D-01 0.540D-01-0.687D-01
 Coeff:     -0.432D+00 0.759D-01 0.136D+01
 Gap=     0.062 Goal=   None    Shift=    0.000
 Gap=     0.036 Goal=   None    Shift=    0.000
 RMSDP=2.25D-08 MaxDP=1.19D-06 DE= 1.46D-11 OVMax= 9.51D-07

 Cycle  19  Pass 1  IDiag  1:
 E= -1136.08525064271     Delta-E=       -0.000000000002 Rises=F Damp=F
 DIIS: error= 3.57D-09 at cycle  19 NSaved=  16.
 NSaved=16 IEnMin=12 EnMin= -1136.08525064273     IErMin=16 ErrMin= 3.57D-09
 ErrMax= 3.57D-09  0.00D+00 EMaxC= 1.00D-01 BMatC= 1.22D-15 BMatP= 3.04D-15
 IDIUse=1 WtCom= 1.00D+00 WtEn= 0.00D+00
 Large coefficients: NSaved= 16 BigCof=    0.00 CofMax=   10.00 Det=-2.38D-16
 Inversion failed.  Reducing to 15 matrices.
 Coeff-Com: -0.533D-05-0.344D-05-0.158D-05 0.402D-04 0.121D-03 0.127D-03
 Coeff-Com: -0.607D-03-0.460D-02 0.273D-02 0.265D-01 0.108D-01-0.112D+00
 Coeff-Com: -0.217D+00-0.374D+00 0.167D+01
 Coeff:     -0.533D-05-0.344D-05-0.158D-05 0.402D-04 0.121D-03 0.127D-03
 Coeff:     -0.607D-03-0.460D-02 0.273D-02 0.265D-01 0.108D-01-0.112D+00
 Coeff:     -0.217D+00-0.374D+00 0.167D+01
 Gap=     0.062 Goal=   None    Shift=    0.000
 Gap=     0.036 Goal=   None    Shift=    0.000
 RMSDP=2.80D-08 MaxDP=2.14D-06 DE=-2.27D-12 OVMax= 1.02D-06

 Cycle  20  Pass 1  IDiag  1:
 E= -1136.08525064272     Delta-E=       -0.000000000013 Rises=F Damp=F
 DIIS: error= 1.94D-09 at cycle  20 NSaved=  16.
 NSaved=16 IEnMin=11 EnMin= -1136.08525064273     IErMin=16 ErrMin= 1.94D-09
 ErrMax= 1.94D-09  0.00D+00 EMaxC= 1.00D-01 BMatC= 4.36D-16 BMatP= 1.22D-15
 IDIUse=1 WtCom= 1.00D+00 WtEn= 0.00D+00
 Large coefficients: NSaved= 16 BigCof=    0.00 CofMax=   10.00 Det=-1.37D-16
 Inversion failed.  Reducing to 15 matrices.
 Coeff-Com:  0.138D-05 0.155D-04-0.138D-04-0.711D-04-0.167D-03 0.477D-03
 Coeff-Com:  0.187D-02-0.212D-02-0.125D-01 0.149D-01 0.102D+00-0.301D-01
 Coeff-Com: -0.393D+00-0.176D+00 0.149D+01
 Coeff:      0.138D-05 0.155D-04-0.138D-04-0.711D-04-0.167D-03 0.477D-03
 Coeff:      0.187D-02-0.212D-02-0.125D-01 0.149D-01 0.102D+00-0.301D-01
 Coeff:     -0.393D+00-0.176D+00 0.149D+01
 Gap=     0.062 Goal=   None    Shift=    0.000
 Gap=     0.036 Goal=   None    Shift=    0.000
 RMSDP=1.68D-08 MaxDP=9.37D-07 DE=-1.27D-11 OVMax= 7.69D-07

 Cycle  21  Pass 1  IDiag  1:
 E= -1136.08525064271     Delta-E=        0.000000000010 Rises=F Damp=F
 DIIS: error= 6.98D-10 at cycle  21 NSaved=  16.
 NSaved=16 IEnMin=10 EnMin= -1136.08525064273     IErMin=16 ErrMin= 6.98D-10
 ErrMax= 6.98D-10  0.00D+00 EMaxC= 1.00D-01 BMatC= 1.51D-16 BMatP= 4.36D-16
 IDIUse=1 WtCom= 1.00D+00 WtEn= 0.00D+00
 Large coefficients: NSaved= 16 BigCof=    0.00 CofMax=   10.00 Det=-1.35D-16
 Inversion failed.  Reducing to 15 matrices.
 Coeff-Com:  0.784D-06-0.514D-05-0.389D-04-0.521D-04 0.300D-03 0.141D-02
 Coeff-Com: -0.204D-02-0.108D-01 0.811D-02 0.890D-01 0.331D-01-0.138D+00
 Coeff-Com: -0.469D+00 0.623D+00 0.866D+00
 Coeff:      0.784D-06-0.514D-05-0.389D-04-0.521D-04 0.300D-03 0.141D-02
 Coeff:     -0.204D-02-0.108D-01 0.811D-02 0.890D-01 0.331D-01-0.138D+00
 Coeff:     -0.469D+00 0.623D+00 0.866D+00
 Gap=     0.062 Goal=   None    Shift=    0.000
 Gap=     0.036 Goal=   None    Shift=    0.000
 RMSDP=7.20D-09 MaxDP=3.53D-07 DE= 1.05D-11 OVMax= 3.17D-07

 SCF Done:  E(UB3LYP) =  -1136.08525064     A.U. after   21 cycles
            NFock= 21  Conv=0.72D-08     -V/T= 2.0023
 <Sx>= 0.0000 <Sy>= 0.0000 <Sz>= 0.5000 <S**2>= 0.7604 S= 0.5052
 <L.S>= 0.000000000000E+00
 KE= 1.133492850397D+03 PE=-3.549397932238D+03 EE= 8.699386831353D+02
 Annihilation of the first spin contaminant:
 S**2 before annihilation     0.7604,   after     0.7501
 Leave Link  502 at Mon Nov 13 20:04:27 2023, MaxMem=  1879048192 cpu:             206.5 elap:              17.5
 (Enter /home/sekinelabo/g16/l601.exe)
 Copying SCF densities to generalized density rwf, IOpCl= 1 IROHF=0.

 **********************************************************************

            Population analysis using the SCF Density.

 **********************************************************************

 Orbital symmetries:
 Alpha Orbitals:
       Occupied  (A) (A) (A) (A) (A) (A) (A) (A) (A) (A) (A) (A)
                 (A) (A) (A) (A) (A) (A) (A) (A) (A) (A) (A) (A)
                 (A) (A) (A) (A) (A) (A) (A) (A) (A) (A) (A) (A)
                 (A) (A) (A)
       Virtual   (A) (A) (A) (A) (A) (A) (A) (A) (A) (A) (A) (A)
                 (A) (A) (A) (A) (A) (A) (A) (A) (A) (A) (A) (A)
                 (A) (A) (A) (A) (A) (A) (A) (A) (A) (A) (A) (A)
                 (A) (A) (A) (A) (A) (A) (A) (A) (A) (A) (A) (A)
                 (A) (A) (A) (A) (A) (A) (A) (A) (A) (A) (A) (A)
                 (A) (A) (A) (A) (A) (A) (A) (A) (A) (A) (A) (A)
                 (A) (A) (A) (A) (A) (A) (A) (A) (A) (A) (A) (A)
                 (A) (A) (A) (A) (A) (A) (A) (A) (A) (A) (A) (A)
                 (A) (A) (A) (A) (A) (A) (A) (A) (A) (A) (A) (A)
                 (A) (A) (A) (A) (A) (A) (A) (A) (A) (A) (A) (A)
                 (A) (A) (A) (A) (A) (A) (A) (A) (A) (A) (A) (A)
                 (A) (A) (A) (A) (A) (A) (A) (A) (A) (A) (A) (A)
                 (A) (A) (A) (A) (A) (A) (A) (A) (A) (A) (A) (A)
                 (A) (A) (A) (A) (A) (A) (A) (A) (A) (A) (A) (A)
                 (A) (A) (A)
 Beta  Orbitals:
       Occupied  (A) (A) (A) (A) (A) (A) (A) (A) (A) (A) (A) (A)
                 (A) (A) (A) (A) (A) (A) (A) (A) (A) (A) (A) (A)
                 (A) (A) (A) (A) (A) (A) (A) (A) (A) (A) (A) (A)
                 (A) (A)
       Virtual   (A) (A) (A) (A) (A) (A) (A) (A) (A) (A) (A) (A)
                 (A) (A) (A) (A) (A) (A) (A) (A) (A) (A) (A) (A)
                 (A) (A) (A) (A) (A) (A) (A) (A) (A) (A) (A) (A)
                 (A) (A) (A) (A) (A) (A) (A) (A) (A) (A) (A) (A)
                 (A) (A) (A) (A) (A) (A) (A) (A) (A) (A) (A) (A)
                 (A) (A) (A) (A) (A) (A) (A) (A) (A) (A) (A) (A)
                 (A) (A) (A) (A) (A) (A) (A) (A) (A) (A) (A) (A)
                 (A) (A) (A) (A) (A) (A) (A) (A) (A) (A) (A) (A)
                 (A) (A) (A) (A) (A) (A) (A) (A) (A) (A) (A) (A)
                 (A) (A) (A) (A) (A) (A) (A) (A) (A) (A) (A) (A)
                 (A) (A) (A) (A) (A) (A) (A) (A) (A) (A) (A) (A)
                 (A) (A) (A) (A) (A) (A) (A) (A) (A) (A) (A) (A)
                 (A) (A) (A) (A) (A) (A) (A) (A) (A) (A) (A) (A)
                 (A) (A) (A) (A) (A) (A) (A) (A) (A) (A) (A) (A)
                 (A) (A) (A) (A)
 The electronic state is 2-A.
 Alpha  occ. eigenvalues --  -38.44456 -38.44312 -38.44066 -38.43391 -38.43388
 Alpha  occ. eigenvalues --  -38.43041 -38.43038  -2.20532  -2.20451  -2.20384
 Alpha  occ. eigenvalues --   -2.19477  -2.19469  -2.19219  -2.19210  -1.14323
 Alpha  occ. eigenvalues --   -1.14311  -1.14249  -1.14169  -1.14147  -1.14098
 Alpha  occ. eigenvalues --   -1.14088  -1.14025  -1.13980  -1.13195  -1.13148
 Alpha  occ. eigenvalues --   -1.13129  -1.13118  -1.13102  -1.13001  -1.12981
 Alpha  occ. eigenvalues --   -1.12885  -1.12865  -1.12857  -1.12786  -1.12723
 Alpha  occ. eigenvalues --   -0.21431  -0.14348  -0.12527  -0.11938
 Alpha virt. eigenvalues --   -0.05778  -0.04095  -0.04039  -0.03528  -0.02794
 Alpha virt. eigenvalues --   -0.02697  -0.01480  -0.00386  -0.00318   0.00298
 Alpha virt. eigenvalues --    0.00658   0.00884   0.00939   0.01045   0.01074
 Alpha virt. eigenvalues --    0.01097   0.01280   0.01344   0.01410   0.01472
 Alpha virt. eigenvalues --    0.01560   0.01828   0.01926   0.01958   0.02034
 Alpha virt. eigenvalues --    0.02514   0.02784   0.02798   0.02939   0.02974
 Alpha virt. eigenvalues --    0.03029   0.03113   0.03152   0.03163   0.03291
 Alpha virt. eigenvalues --    0.03310   0.03429   0.03430   0.03848   0.03988
 Alpha virt. eigenvalues --    0.04121   0.05066   0.05082   0.05149   0.05267
 Alpha virt. eigenvalues --    0.05524   0.05566   0.05718   0.05729   0.06268
 Alpha virt. eigenvalues --    0.06470   0.06591   0.06886   0.07377   0.07432
 Alpha virt. eigenvalues --    0.07668   0.08510   0.08666   0.09095   0.09208
 Alpha virt. eigenvalues --    0.09655   0.10391   0.11947   0.12411   0.12619
 Alpha virt. eigenvalues --    0.12956   0.12979   0.13309   0.13824   0.14033
 Alpha virt. eigenvalues --    0.14300   0.14619   0.14872   0.15283   0.15372
 Alpha virt. eigenvalues --    0.16460   0.16739   0.17386   0.17843   0.18447
 Alpha virt. eigenvalues --    0.22338   0.24506   0.27166   0.28967   0.29457
 Alpha virt. eigenvalues --    0.29735   0.31313   0.32390   0.32453   0.35292
 Alpha virt. eigenvalues --    0.35350   0.35826   0.38387   0.38761   0.38965
 Alpha virt. eigenvalues --    0.40123   0.40684   0.42483   0.43519   0.44431
 Alpha virt. eigenvalues --    0.44498   0.44646   0.45117   0.46377   0.47139
 Alpha virt. eigenvalues --    0.47808   0.47884   0.48445   0.48940   0.48965
 Alpha virt. eigenvalues --    0.49672   0.50172   0.50262   0.51064   0.51595
 Alpha virt. eigenvalues --    0.54114   0.54390   0.55250   0.55370   0.55494
 Alpha virt. eigenvalues --    0.57961   0.59380   0.63876   0.64046   0.66963
 Alpha virt. eigenvalues --    0.67379   0.70794   0.72779   0.73303   0.75645
 Alpha virt. eigenvalues --    0.76043   0.78828   0.80526   0.81943   0.82413
 Alpha virt. eigenvalues --    0.84972   2.16224   2.21741   2.27751   2.28887
 Alpha virt. eigenvalues --    2.30129   2.32839   2.35821   4.40768   4.40932
 Alpha virt. eigenvalues --    4.41571   4.41737   4.41792   4.44267   4.45842
 Alpha virt. eigenvalues --    4.47778   4.48734   4.53570   4.56603   4.57802
 Alpha virt. eigenvalues --    4.65117   4.67014   4.73062   4.75582   4.76329
 Alpha virt. eigenvalues --    4.81210   4.82264   4.84121   4.90541  96.38385
 Alpha virt. eigenvalues --   96.47241  96.55450  96.57438  96.59781  96.62563
 Alpha virt. eigenvalues --   96.67259
  Beta  occ. eigenvalues --  -38.44450 -38.44235 -38.43991 -38.43370 -38.43367
  Beta  occ. eigenvalues --  -38.43009 -38.43006  -2.20441  -2.20395  -2.20252
  Beta  occ. eigenvalues --   -2.19444  -2.19436  -2.19168  -2.19158  -1.14267
  Beta  occ. eigenvalues --   -1.14236  -1.14136  -1.14100  -1.14084  -1.14065
  Beta  occ. eigenvalues --   -1.14039  -1.13939  -1.13904  -1.13169  -1.13127
  Beta  occ. eigenvalues --   -1.13092  -1.13067  -1.13054  -1.12971  -1.12943
  Beta  occ. eigenvalues --   -1.12858  -1.12783  -1.12777  -1.12754  -1.12684
  Beta  occ. eigenvalues --   -0.20592  -0.14084  -0.11676
  Beta virt. eigenvalues --   -0.08112  -0.05697  -0.04051  -0.03374  -0.03169
  Beta virt. eigenvalues --   -0.02018  -0.01724  -0.01397  -0.00375  -0.00055
  Beta virt. eigenvalues --    0.00332   0.00712   0.00867   0.01045   0.01062
  Beta virt. eigenvalues --    0.01166   0.01189   0.01311   0.01406   0.01544
  Beta virt. eigenvalues --    0.01552   0.01707   0.01867   0.01971   0.02073
  Beta virt. eigenvalues --    0.02109   0.02543   0.02782   0.02925   0.02934
  Beta virt. eigenvalues --    0.03024   0.03045   0.03088   0.03184   0.03269
  Beta virt. eigenvalues --    0.03349   0.03358   0.03513   0.03518   0.04020
  Beta virt. eigenvalues --    0.04190   0.04266   0.05141   0.05227   0.05296
  Beta virt. eigenvalues --    0.05310   0.05596   0.05691   0.05898   0.06072
  Beta virt. eigenvalues --    0.06398   0.06448   0.06722   0.06902   0.07477
  Beta virt. eigenvalues --    0.07513   0.07865   0.08500   0.08886   0.09142
  Beta virt. eigenvalues --    0.09349   0.10038   0.10827   0.12197   0.12656
  Beta virt. eigenvalues --    0.12694   0.13080   0.13087   0.13513   0.14109
  Beta virt. eigenvalues --    0.14164   0.14735   0.14749   0.15354   0.15525
  Beta virt. eigenvalues --    0.15652   0.16653   0.16866   0.17575   0.18110
  Beta virt. eigenvalues --    0.18724   0.22958   0.24579   0.27922   0.29422
  Beta virt. eigenvalues --    0.29751   0.29855   0.31615   0.32643   0.32834
  Beta virt. eigenvalues --    0.35436   0.35671   0.36475   0.38582   0.39082
  Beta virt. eigenvalues --    0.39211   0.40449   0.40956   0.42774   0.43638
  Beta virt. eigenvalues --    0.44547   0.44691   0.44835   0.45300   0.46605
  Beta virt. eigenvalues --    0.47349   0.47920   0.47995   0.48718   0.49117
  Beta virt. eigenvalues --    0.49185   0.49802   0.50300   0.50533   0.51082
  Beta virt. eigenvalues --    0.52068   0.54439   0.54691   0.55513   0.55625
  Beta virt. eigenvalues --    0.55685   0.58254   0.59614   0.63980   0.64169
  Beta virt. eigenvalues --    0.67238   0.67566   0.70959   0.73177   0.73743
  Beta virt. eigenvalues --    0.75712   0.76255   0.78860   0.80802   0.82174
  Beta virt. eigenvalues --    0.82614   0.85151   2.16274   2.21784   2.27795
  Beta virt. eigenvalues --    2.29114   2.30287   2.32918   2.36155   4.40850
  Beta virt. eigenvalues --    4.41032   4.41616   4.41819   4.41848   4.44350
  Beta virt. eigenvalues --    4.45893   4.47815   4.48796   4.53691   4.56676
  Beta virt. eigenvalues --    4.57849   4.65171   4.67077   4.73090   4.75675
  Beta virt. eigenvalues --    4.76426   4.81307   4.82330   4.84152   4.90606
  Beta virt. eigenvalues --   96.38412  96.47257  96.55473  96.57486  96.59864
  Beta virt. eigenvalues --   96.62599  96.67362
          Condensed to atoms (all electrons):
               1          2          3          4          5          6
     1  Na  13.536416  -0.516451   0.483676  -0.518200   0.215657  -1.101490
     2  Na  -0.516451  14.398090  -0.169525   1.931782  -2.344087  -0.802586
     3  Na   0.483676  -0.169525  11.502584  -0.167714  -0.216121  -0.655890
     4  Na  -0.518200   1.931782  -0.167714  14.390786  -2.340902  -0.840162
     5  Na   0.215657  -2.344087  -0.216121  -2.340902  14.670382   0.098777
     6  Na  -1.101490  -0.802586  -0.655890  -0.840162   0.098777  13.870531
     7  Na  -1.100367  -0.838396  -0.649704  -0.799012   0.091742   0.621676
               7
     1  Na  -1.100367
     2  Na  -0.838396
     3  Na  -0.649704
     4  Na  -0.799012
     5  Na   0.091742
     6  Na   0.621676
     7  Na  13.865801
          Atomic-Atomic Spin Densities.
               1          2          3          4          5          6
     1  Na   0.857895  -0.396794   0.287159  -0.396995  -0.347070   0.213357
     2  Na  -0.396794   0.077718  -0.138967   0.087368   0.304582   0.140885
     3  Na   0.287159  -0.138967   0.270146  -0.138844  -0.303647   0.002807
     4  Na  -0.396995   0.087368  -0.138844   0.080983   0.302848   0.087095
     5  Na  -0.347070   0.304582  -0.303647   0.302848   0.149144   0.112835
     6  Na   0.213357   0.140885   0.002807   0.087095   0.112835  -0.242469
     7  Na   0.213385   0.087174   0.004198   0.139652   0.112140  -0.348876
               7
     1  Na   0.213385
     2  Na   0.087174
     3  Na   0.004198
     4  Na   0.139652
     5  Na   0.112140
     6  Na  -0.348876
     7  Na  -0.242000
 Mulliken charges and spin densities:
               1          2
     1  Na   0.000758   0.430937
     2  Na  -0.658828   0.161966
     3  Na   0.872694  -0.017148
     4  Na  -0.656578   0.162106
     5  Na   0.824551   0.330832
     6  Na  -0.190857  -0.034366
     7  Na  -0.191741  -0.034328
 Sum of Mulliken charges =  -0.00000   1.00000
 Mulliken charges and spin densities with hydrogens summed into heavy atoms:
               1          2
     1  Na   0.000758   0.430937
     2  Na  -0.658828   0.161966
     3  Na   0.872694  -0.017148
     4  Na  -0.656578   0.162106
     5  Na   0.824551   0.330832
     6  Na  -0.190857  -0.034366
     7  Na  -0.191741  -0.034328
 Electronic spatial extent (au):  <R**2>=           1616.0743
 Charge=             -0.0000 electrons
 Dipole moment (field-independent basis, Debye):
    X=              0.3333    Y=              0.0007    Z=             -0.1061  Tot=              0.3498
 Quadrupole moment (field-independent basis, Debye-Ang):
   XX=            -54.3036   YY=            -74.6468   ZZ=            -66.5208
   XY=              0.0025   XZ=              0.2778   YZ=             -0.0012
 Traceless Quadrupole moment (field-independent basis, Debye-Ang):
   XX=             10.8534   YY=             -9.4897   ZZ=             -1.3637
   XY=              0.0025   XZ=              0.2778   YZ=             -0.0012
 Octapole moment (field-independent basis, Debye-Ang**2):
  XXX=             25.8977  YYY=              0.0156  ZZZ=              1.4651  XYY=             -4.3907
  XXY=              0.0251  XXZ=             -7.8097  XZZ=             -4.3250  YZZ=             -0.0147
  YYZ=              0.3056  XYZ=             -0.0055
 Hexadecapole moment (field-independent basis, Debye-Ang**3):
 XXXX=          -1141.5022 YYYY=           -944.2547 ZZZZ=           -674.4859 XXXY=              0.0375
 XXXZ=            -14.8655 YYYX=             -0.0352 YYYZ=              0.0658 ZZZX=            -21.6323
 ZZZY=             -0.0339 XXYY=           -354.4756 XXZZ=           -328.2777 YYZZ=           -272.8387
 XXYZ=             -0.0618 YYXZ=             37.5932 ZZXY=              0.0646
 N-N= 4.098811480624D+02 E-N=-3.549397932063D+03  KE= 1.133492850397D+03
                          Isotropic Fermi Contact Couplings
        Atom                 a.u.       MegaHertz       Gauss      10(-4) cm-1
     1  Na(23)             0.28160     333.13581     118.87114     111.12214
     2  Na(23)             0.06024      71.26331      25.42852      23.77088
     3  Na(23)             0.00096       1.13965       0.40666       0.38015
     4  Na(23)             0.06034      71.38973      25.47363      23.81305
     5  Na(23)             0.28800     340.70847     121.57325     113.64811
     6  Na(23)             0.03212      38.00452      13.56096      12.67694
     7  Na(23)             0.03245      38.39068      13.69875      12.80575
 --------------------------------------------------------
       Center         ----  Spin Dipole Couplings  ----
                      3XX-RR        3YY-RR        3ZZ-RR
 --------------------------------------------------------
     1   Atom        0.013082     -0.007561     -0.005521
     2   Atom       -0.025343     -0.013701      0.039045
     3   Atom       -0.005039     -0.013039      0.018078
     4   Atom       -0.025373     -0.013612      0.038985
     5   Atom        0.022469     -0.005102     -0.017367
     6   Atom       -0.020039     -0.013313      0.033352
     7   Atom       -0.020020     -0.013237      0.033257
 --------------------------------------------------------
                        XY            XZ            YZ
 --------------------------------------------------------
     1   Atom        0.000019      0.014897      0.000029
     2   Atom       -0.012633     -0.026963      0.033927
     3   Atom        0.000003      0.010151      0.000012
     4   Atom        0.012622     -0.026885     -0.034000
     5   Atom        0.000056      0.019958      0.000036
     6   Atom       -0.005732     -0.013195      0.028715
     7   Atom        0.005746     -0.013234     -0.028779
 --------------------------------------------------------


 ---------------------------------------------------------------------------------
              Anisotropic Spin Dipole Couplings in Principal Axis System
 ---------------------------------------------------------------------------------

       Atom             a.u.   MegaHertz   Gauss  10(-4) cm-1        Axes

              Baa    -0.0138    -1.946    -0.694    -0.649 -0.4850 -0.0026  0.8745
     1 Na(23) Bbb    -0.0076    -1.068    -0.381    -0.356 -0.0022  1.0000  0.0018
              Bcc     0.0213     3.014     1.075     1.005  0.8745  0.0011  0.4850
 
              Baa    -0.0352    -4.965    -1.771    -1.656  0.9457  0.0485  0.3214
     2 Na(23) Bbb    -0.0303    -4.272    -1.524    -1.425  0.0923  0.9080 -0.4086
              Bcc     0.0654     9.237     3.296     3.081 -0.3117  0.4161  0.8542
 
              Baa    -0.0130    -1.841    -0.657    -0.614  0.0002  1.0000 -0.0004
     3 Na(23) Bbb    -0.0089    -1.252    -0.447    -0.417  0.9358 -0.0003 -0.3526
              Bcc     0.0219     3.093     1.104     1.032  0.3526  0.0003  0.9358
 
              Baa    -0.0351    -4.962    -1.771    -1.655  0.9457 -0.0462  0.3218
     4 Na(23) Bbb    -0.0302    -4.271    -1.524    -1.425 -0.0949  0.9076  0.4089
              Bcc     0.0654     9.234     3.295     3.080 -0.3110 -0.4172  0.8539
 
              Baa    -0.0256    -3.622    -1.292    -1.208 -0.3831 -0.0006  0.9237
     5 Na(23) Bbb    -0.0051    -0.721    -0.257    -0.240 -0.0019  1.0000 -0.0002
              Bcc     0.0307     4.342     1.549     1.448  0.9237  0.0018  0.3831
 
              Baa    -0.0270    -3.818    -1.362    -1.274 -0.1168  0.8868 -0.4472
     6 Na(23) Bbb    -0.0229    -3.239    -1.156    -1.080  0.9726  0.1934  0.1294
              Bcc     0.0500     7.057     2.518     2.354 -0.2012  0.4198  0.8850
 
              Baa    -0.0270    -3.820    -1.363    -1.274  0.1223  0.8850  0.4492
     7 Na(23) Bbb    -0.0229    -3.238    -1.155    -1.080  0.9718 -0.1988  0.1271
              Bcc     0.0500     7.057     2.518     2.354 -0.2018 -0.4210  0.8844
 

 ---------------------------------------------------------------------------------

 No NMR shielding tensors so no spin-rotation constants.
 Leave Link  601 at Mon Nov 13 20:04:27 2023, MaxMem=  1879048192 cpu:               2.8 elap:               0.2
 (Enter /home/sekinelabo/g16/l701.exe)
 ... and contract with generalized density number  0.
 Compute integral first derivatives.
 Leave Link  701 at Mon Nov 13 20:04:27 2023, MaxMem=  1879048192 cpu:               1.7 elap:               0.1
 (Enter /home/sekinelabo/g16/l702.exe)
 L702 exits ... SP integral derivatives will be done elsewhere.
 Leave Link  702 at Mon Nov 13 20:04:27 2023, MaxMem=  1879048192 cpu:               0.4 elap:               0.0
 (Enter /home/sekinelabo/g16/l703.exe)
 Integral derivatives from FoFJK, PRISM(SPDF).
 Compute integral first derivatives, UseDBF=F ICtDFT=           0.
 Calling FoFJK, ICntrl=      2127 FMM=F ISym2X=0 I1Cent= 0 IOpClX= 1 NMat=1 NMatS=1 NMatT=0.
 FoFJK:  IHMeth= 1 ICntrl=    2127 DoSepK=F KAlg= 0 I1Cent=           0 FoldK=F
 IRaf=         0 NMat=       1 IRICut=       1 DoRegI=T DoRafI=F ISym2E= 0 IDoP0=0 IntGTp=1.
 FoFCou: FMM=F IPFlag=           0 FMFlag=      100000 FMFlg1=         800
         NFxFlg=           0 DoJE=F BraDBF=F KetDBF=F FulRan=T
         wScrn=  0.000000 ICntrl=      2127 IOpCl=  1 I1Cent=           0 NGrid=           0
         NMat0=    1 NMatS0=      1 NMatT0=    0 NMatD0=    1 NMtDS0=    0 NMtDT0=    0
 Symmetry not used in FoFCou.
 Leave Link  703 at Mon Nov 13 20:04:30 2023, MaxMem=  1879048192 cpu:              37.9 elap:               2.4
 (Enter /home/sekinelabo/g16/l716.exe)
 Dipole        = 1.31114877D-01 2.56856436D-04-4.17545095D-02
 ***** Axes restored to original set *****
 -------------------------------------------------------------------
 Center     Atomic                   Forces (Hartrees/Bohr)
 Number     Number              X              Y              Z
 -------------------------------------------------------------------
      1       11          -0.004828014    0.000027731    0.022088593
      2       11          -0.006775393   -0.021241683   -0.008694150
      3       11          -0.016558297    0.000044520    0.003247248
      4       11          -0.006807725    0.021220413   -0.008693858
      5       11           0.011326663   -0.000014880   -0.020725015
      6       11           0.011825939    0.017556187    0.006376123
      7       11           0.011816827   -0.017592287    0.006401059
 -------------------------------------------------------------------
 Cartesian Forces:  Max     0.022088593 RMS     0.012868427
 Z-matrix is all fixed cartesians, so copy forces.
 Force constants in Cartesian coordinates: 
                1             2             3             4             5 
      1  0.228643D+00
      2  0.220003D-04  0.214351D+00
      3 -0.868358D-02 -0.517834D-04  0.300594D+00
      4 -0.341292D-01 -0.110367D-02  0.725979D-02  0.174517D+00
      5 -0.634264D-02 -0.409849D-01  0.228077D-02  0.237888D-01  0.204975D+00
      6 -0.143577D-01 -0.405569D-01 -0.615234D-01  0.980542D-02  0.359054D-01
      7 -0.434500D-01 -0.680398D-05  0.154902D-01 -0.357123D-01 -0.121449D-01
      8 -0.163380D-04 -0.361709D-01  0.426130D-04  0.309805D-01 -0.390069D-01
      9 -0.394373D-01  0.688047D-04 -0.511655D-01  0.200392D-01 -0.741145D-02
     10 -0.341202D-01  0.106786D-02  0.721953D-02 -0.218523D-01 -0.126019D-01
     11  0.631275D-02 -0.409523D-01 -0.228481D-02  0.125262D-01 -0.502696D-01
     12 -0.142747D-01  0.405617D-01 -0.615262D-01 -0.562987D-02 -0.178345D-01
     13 -0.114935D-01  0.347304D-04  0.467660D-02 -0.518282D-01 -0.698664D-04
     14  0.121729D-04 -0.202011D-02 -0.148418D-04 -0.256568D-01 -0.492622D-01
     15  0.141999D-01 -0.262225D-04 -0.364786D-01 -0.108159D-01 -0.143772D-01
     16 -0.526664D-01 -0.164154D-01 -0.129918D-01  0.455859D-02 -0.152931D-01
     17 -0.389341D-02 -0.470168D-01 -0.100608D-01 -0.160616D-01  0.102575D-02
     18  0.312760D-01  0.299366D-01 -0.449331D-01 -0.524626D-02 -0.850852D-02
     19 -0.527835D-01  0.164013D-01 -0.129708D-01 -0.355537D-01  0.226636D-01
     20  0.390547D-02 -0.472060D-01  0.100888D-01 -0.244735D-01 -0.264775D-01
     21  0.312774D-01 -0.299322D-01 -0.449674D-01 -0.154124D-01  0.994547D-02
                6             7             8             9            10 
      6  0.162051D+00
      7 -0.439828D-02  0.125894D+00
      8 -0.137434D-01 -0.501212D-04  0.812354D-01
      9 -0.318905D-01 -0.120019D-01  0.970109D-05  0.811067D-01
     10 -0.556055D-02 -0.356152D-01 -0.309498D-01  0.200022D-01  0.174387D+00
     11  0.178238D-01  0.121614D-01 -0.388242D-01  0.737444D-02 -0.237142D-01
     12 -0.155014D-01 -0.441352D-02  0.137277D-01 -0.317977D-01  0.989115D-02
     13  0.286381D-01 -0.529545D-02  0.129533D-04  0.132502D-01 -0.517178D-01
     14  0.260458D-01  0.154955D-04  0.138170D-01 -0.160726D-04  0.256347D-01
     15 -0.383151D-01  0.444132D-02 -0.133386D-04  0.100599D-01 -0.107995D-01
     16 -0.479647D-02 -0.291712D-02 -0.579243D-02 -0.917363D-03 -0.356851D-01
     17 -0.890300D-02 -0.319773D-02  0.945662D-02 -0.222959D-02  0.244767D-01
     18  0.116786D-01  0.441398D-03 -0.303318D-02  0.118349D-01 -0.155005D-01
     19 -0.933053D-02 -0.290389D-02  0.581523D-02 -0.935022D-03  0.460394D-02
     20 -0.165717D-01  0.322272D-02  0.949302D-02  0.220417D-02  0.160866D-01
     21 -0.264996D-01  0.440792D-03  0.300991D-02  0.118522D-01 -0.525237D-02
               11            12            13            14            15 
     11  0.204887D+00
     12 -0.359046D-01  0.162003D+00
     13  0.133501D-03  0.285486D-01  0.173608D+00
     14 -0.492787D-01 -0.261112D-01 -0.315387D-04  0.160680D+00
     15  0.143765D-01 -0.382407D-01 -0.275045D-01  0.872944D-04  0.213905D+00
     16 -0.226826D-01 -0.932767D-02 -0.266177D-01  0.651463D-02  0.152486D-01
     17 -0.265622D-01  0.166143D-01 -0.119386D-01 -0.369426D-01 -0.855220D-04
     18 -0.990354D-02 -0.265781D-01 -0.237928D-01 -0.354127D-01 -0.553716D-01
     19  0.152630D-01 -0.479398D-02 -0.266558D-01 -0.648872D-02  0.152301D-01
     20  0.999973D-03  0.894658D-02  0.118588D-01 -0.369931D-01  0.384837D-04
     21  0.851819D-02  0.116414D-01 -0.238162D-01  0.354218D-01 -0.555585D-01
               16            17            18            19            20 
     16  0.130171D+00
     17  0.321433D-01  0.143936D+00
     18  0.175971D-01  0.157608D-01  0.113448D+00
     19 -0.168435D-01 -0.215287D-01 -0.477497D-02  0.130136D+00
     20  0.215256D-01 -0.438968D-01  0.111606D-01 -0.321257D-01  0.144080D+00
     21 -0.481242D-02 -0.110962D-01 -0.100783D-01  0.175752D-01 -0.158670D-01
               21 
     21  0.113610D+00
 Leave Link  716 at Mon Nov 13 20:04:30 2023, MaxMem=  1879048192 cpu:               0.5 elap:               0.0
 (Enter /home/sekinelabo/g16/l103.exe)

 GradGradGradGradGradGradGradGradGradGradGradGradGradGradGradGradGradGrad
 Berny optimization.
 Search for a local minimum.
 Step number   1 out of a maximum of    2
 All quantities printed in internal units (Hartrees-Bohrs-Radians)
 Second derivative matrix not updated -- first step.
 ITU=  0
     Eigenvalues ---    0.11148   0.11526   0.14274   0.17396   0.18640
     Eigenvalues ---    0.19440   0.21800   0.23263   0.24411   0.25458
     Eigenvalues ---    0.26305   0.29583   0.30234   0.31229   0.35996
 Quadratic step=3.751D-01 exceeds max=3.000D-01 adjusted using Lamda=-3.506D-02.
 Angle between NR and scaled steps=   2.91 degrees.
 Angle between quadratic step and forces=  15.17 degrees.
 Linear search not attempted -- first point.
 B after Tr=    -0.000000    0.000000   -0.000000
         Rot=    1.000000   -0.000000    0.000000   -0.000000 Ang=   0.00 deg.
 Variable       Old X    -DE/DX   Delta X   Delta X   Delta X     New X
                                 (Linear)    (Quad)   (Total)
    X1        5.18992  -0.00483   0.00000  -0.01778  -0.01778   5.17215
    Y1        2.97411   0.00003   0.00000   0.00005   0.00005   2.97416
    Z1        5.97266   0.02209   0.00000   0.07433   0.07433   6.04699
    X2        4.15370  -0.00678   0.00000  -0.03793  -0.03793   4.11577
    Y2        0.00446  -0.02124   0.00000  -0.09067  -0.09067  -0.08621
    Z2        1.58826  -0.00869   0.00000  -0.03676  -0.03676   1.55150
    X3        0.00000  -0.01656   0.00000  -0.13482  -0.13482  -0.13482
    Y3        2.97623   0.00004   0.00000   0.00019   0.00019   2.97642
    Z3        3.87718   0.00325   0.00000   0.02065   0.02065   3.89783
    X4        4.16180  -0.00681   0.00000  -0.03793  -0.03793   4.12387
    Y4        5.94557   0.02122   0.00000   0.09064   0.09064   6.03620
    Z4        1.58682  -0.00869   0.00000  -0.03679  -0.03679   1.55003
    X5        8.37014   0.01133   0.00000   0.06547   0.06547   8.43560
    Y5        2.96810  -0.00001   0.00000  -0.00012  -0.00012   2.96798
    Z5        0.00000  -0.02073   0.00000  -0.08372  -0.08372  -0.08372
    X6        9.40834   0.01183   0.00000   0.08152   0.08152   9.48985
    Y6        5.94782   0.01756   0.00000   0.09292   0.09292   6.04074
    Z6        4.38162   0.00638   0.00000   0.03109   0.03109   4.41271
    X7        9.40563   0.01182   0.00000   0.08147   0.08147   9.48710
    Y7        0.00000  -0.01759   0.00000  -0.09300  -0.09300  -0.09300
    Z7        4.38593   0.00640   0.00000   0.03119   0.03119   4.41712
         Item               Value     Threshold  Converged?
 Maximum Force            0.022089     0.000450     NO 
 RMS     Force            0.012868     0.000300     NO 
 Maximum Displacement     0.134823     0.001800     NO 
 RMS     Displacement     0.065560     0.001200     NO 
 Predicted change in Energy=-1.013220D-02
 GradGradGradGradGradGradGradGradGradGradGradGradGradGradGradGradGradGrad

 Leave Link  103 at Mon Nov 13 20:04:30 2023, MaxMem=  1879048192 cpu:               0.3 elap:               0.0
 (Enter /home/sekinelabo/g16/l9999.exe)
 1\1\GINC-SEKINELABO-XA7R-R37\Force\UB3LYP\6-311+G(d)\Na7(2)\SEKINELABO
 \13-Nov-2023\0\\#P B3LYP/6-311+g(d) force\\Gaussian input prepared by 
 ASE\\0,2\Na,2.7463890394,1.5738334591,3.1605953173\Na,2.1980416212,0.0
 023604541,0.8404702905\Na,0.,1.5749543081,2.0517144401\Na,2.2023294727
 ,3.146259118,0.8397104267\Na,4.4292854458,1.5706510718,0.\Na,4.9786773
 494,3.1474517633,2.3186548561\Na,4.9772427317,0.,2.3209345862\\Version
 =ES64L-G16RevB.01\State=2-A\HF=-1136.0852506\S2=0.760381\S2-1=0.\S2A=0
 .750064\RMSD=7.198e-09\RMSF=1.287e-02\Dipole=-0.1311149,0.0002569,0.04
 17545\Quadrupole=8.0692561,-7.0553547,-1.0139014,-0.0018549,0.2065313,
 0.0009113\PG=C01 [X(Na7)]\\@


 THE RED LIGHT IS ALWAYS LONGER THAN THE GREEN LIGHT.

                     -- PETER'S THEORY OF RELATIVITY
 Job cpu time:       0 days  0 hours  4 minutes 22.1 seconds.
 Elapsed time:       0 days  0 hours  0 minutes 21.1 seconds.
 File lengths (MBytes):  RWF=     32 Int=      0 D2E=      0 Chk=      6 Scr=      1
 Normal termination of Gaussian 16 at Mon Nov 13 20:04:30 2023.
