 Entering Gaussian System, Link 0=g16
 Initial command:
 /home/sekinelabo/g16/l1.exe "/home/sekinelabo/g16temp/Gau-4171845.inp" -scrdir="/home/sekinelabo/g16temp/"
 Entering Link 1 = /home/sekinelabo/g16/l1.exe PID=   4171847.
  
 Copyright (c) 1988-2017, Gaussian, Inc.  All Rights Reserved.
  
 This is part of the Gaussian(R) 16 program.  It is based on
 the Gaussian(R) 09 system (copyright 2009, Gaussian, Inc.),
 the Gaussian(R) 03 system (copyright 2003, Gaussian, Inc.),
 the Gaussian(R) 98 system (copyright 1998, Gaussian, Inc.),
 the Gaussian(R) 94 system (copyright 1995, Gaussian, Inc.),
 the Gaussian 92(TM) system (copyright 1992, Gaussian, Inc.),
 the Gaussian 90(TM) system (copyright 1990, Gaussian, Inc.),
 the Gaussian 88(TM) system (copyright 1988, Gaussian, Inc.),
 the Gaussian 86(TM) system (copyright 1986, Carnegie Mellon
 University), and the Gaussian 82(TM) system (copyright 1983,
 Carnegie Mellon University). Gaussian is a federally registered
 trademark of Gaussian, Inc.
  
 This software contains proprietary and confidential information,
 including trade secrets, belonging to Gaussian, Inc.
  
 This software is provided under written license and may be
 used, copied, transmitted, or stored only in accord with that
 written license.
  
 The following legend is applicable only to US Government
 contracts under FAR:
  
                    RESTRICTED RIGHTS LEGEND
  
 Use, reproduction and disclosure by the US Government is
 subject to restrictions as set forth in subparagraphs (a)
 and (c) of the Commercial Computer Software - Restricted
 Rights clause in FAR 52.227-19.
  
 Gaussian, Inc.
 340 Quinnipiac St., Bldg. 40, Wallingford CT 06492
  
  
 ---------------------------------------------------------------
 Warning -- This program may not be used in any manner that
 competes with the business of Gaussian, Inc. or will provide
 assistance to any competitor of Gaussian, Inc.  The licensee
 of this program is prohibited from giving any competitor of
 Gaussian, Inc. access to this program.  By using this program,
 the user acknowledges that Gaussian, Inc. is engaged in the
 business of creating and licensing software in the field of
 computational chemistry and represents and warrants to the
 licensee that it is not a competitor of Gaussian, Inc. and that
 it will not use this program in any manner prohibited above.
 ---------------------------------------------------------------
  

 Cite this work as:
 Gaussian 16, Revision B.01,
 M. J. Frisch, G. W. Trucks, H. B. Schlegel, G. E. Scuseria, 
 M. A. Robb, J. R. Cheeseman, G. Scalmani, V. Barone, 
 G. A. Petersson, H. Nakatsuji, X. Li, M. Caricato, A. V. Marenich, 
 J. Bloino, B. G. Janesko, R. Gomperts, B. Mennucci, H. P. Hratchian, 
 J. V. Ortiz, A. F. Izmaylov, J. L. Sonnenberg, D. Williams-Young, 
 F. Ding, F. Lipparini, F. Egidi, J. Goings, B. Peng, A. Petrone, 
 T. Henderson, D. Ranasinghe, V. G. Zakrzewski, J. Gao, N. Rega, 
 G. Zheng, W. Liang, M. Hada, M. Ehara, K. Toyota, R. Fukuda, 
 J. Hasegawa, M. Ishida, T. Nakajima, Y. Honda, O. Kitao, H. Nakai, 
 T. Vreven, K. Throssell, J. A. Montgomery, Jr., J. E. Peralta, 
 F. Ogliaro, M. J. Bearpark, J. J. Heyd, E. N. Brothers, K. N. Kudin, 
 V. N. Staroverov, T. A. Keith, R. Kobayashi, J. Normand, 
 K. Raghavachari, A. P. Rendell, J. C. Burant, S. S. Iyengar, 
 J. Tomasi, M. Cossi, J. M. Millam, M. Klene, C. Adamo, R. Cammi, 
 J. W. Ochterski, R. L. Martin, K. Morokuma, O. Farkas, 
 J. B. Foresman, and D. J. Fox, Gaussian, Inc., Wallingford CT, 2016.
 
 ******************************************
 Gaussian 16:  ES64L-G16RevB.01 20-Dec-2017
                13-Nov-2023 
 ******************************************
 %mem=14GB
 %chk=checkpoint.chk
 %nprocshared=16
 Will use up to   16 processors via shared memory.
 -------------------------
 #P B3LYP/6-311+g(d) force
 -------------------------
 1/10=7,30=1,38=1/1,3;
 2/12=2,17=6,18=5,40=1/2;
 3/5=4,6=6,7=11,11=2,25=1,30=1,71=1,74=-5/1,2,3;
 4//1;
 5/5=2,38=5/2;
 6/7=2,8=2,9=2,10=2,28=1/1;
 7/29=1/1,2,3,16;
 1/10=7,30=1/3;
 99//99;
 Leave Link    1 at Mon Nov 13 20:05:38 2023, MaxMem=  1879048192 cpu:               0.3 elap:               0.0
 (Enter /home/sekinelabo/g16/l101.exe)
 ------------------------------
 Gaussian input prepared by ASE
 ------------------------------
 Symbolic Z-matrix:
 Charge =  0 Multiplicity = 2
 Na                    2.40091   2.00244   0. 
 Na                    2.66659   0.        1.84521 
 Na                    0.        1.18437   1.42128 
 Na                    1.06514   3.91483   1.72154 
 Na                    2.95287   2.32998   3.26685 
 Na                    3.97371   3.86727   1.24324 
 Na                    5.08548   1.30225   1.31513 
 
 ITRead=  0  0  0  0  0  0  0
 MicOpt= -1 -1 -1 -1 -1 -1 -1
 NAtoms=      7 NQM=        7 NQMF=       0 NMMI=      0 NMMIF=      0
                NMic=       0 NMicF=      0.
                    Isotopes and Nuclear Properties:
 (Nuclear quadrupole moments (NQMom) in fm**2, nuclear magnetic moments (NMagM)
  in nuclear magnetons)

  Atom         1           2           3           4           5           6           7
 IAtWgt=          23          23          23          23          23          23          23
 AtmWgt=  22.9897697  22.9897697  22.9897697  22.9897697  22.9897697  22.9897697  22.9897697
 NucSpn=           3           3           3           3           3           3           3
 AtZEff=  -0.0000000  -0.0000000  -0.0000000  -0.0000000  -0.0000000  -0.0000000  -0.0000000
 NQMom=   10.4000000  10.4000000  10.4000000  10.4000000  10.4000000  10.4000000  10.4000000
 NMagM=    2.2175200   2.2175200   2.2175200   2.2175200   2.2175200   2.2175200   2.2175200
 AtZNuc=  11.0000000  11.0000000  11.0000000  11.0000000  11.0000000  11.0000000  11.0000000
 Leave Link  101 at Mon Nov 13 20:05:38 2023, MaxMem=  1879048192 cpu:               2.6 elap:               0.2
 (Enter /home/sekinelabo/g16/l103.exe)

 GradGradGradGradGradGradGradGradGradGradGradGradGradGradGradGradGradGrad
 Berny optimization.
 Initialization pass.
 Trust Radius=3.00D-01 FncErr=1.00D-07 GrdErr=1.00D-07 EigMax=2.50D+02 EigMin=1.00D-04
 Number of steps in this run=      2 maximum allowed number of steps=      2.
 GradGradGradGradGradGradGradGradGradGradGradGradGradGradGradGradGradGrad

 Leave Link  103 at Mon Nov 13 20:05:38 2023, MaxMem=  1879048192 cpu:               0.2 elap:               0.0
 (Enter /home/sekinelabo/g16/l202.exe)
                          Input orientation:                          
 ---------------------------------------------------------------------
 Center     Atomic      Atomic             Coordinates (Angstroms)
 Number     Number       Type             X           Y           Z
 ---------------------------------------------------------------------
      1         11           0        2.400910    2.002444    0.000000
      2         11           0        2.666595    0.000000    1.845214
      3         11           0        0.000000    1.184367    1.421282
      4         11           0        1.065143    3.914833    1.721540
      5         11           0        2.952869    2.329983    3.266853
      6         11           0        3.973706    3.867269    1.243237
      7         11           0        5.085476    1.302248    1.315133
 ---------------------------------------------------------------------
                    Distance matrix (angstroms):
                    1          2          3          4          5
     1  Na   0.000000
     2  Na   2.735906   0.000000
     3  Na   2.907519   2.948418   0.000000
     4  Na   2.899173   4.231531   2.946206   0.000000
     5  Na   3.329305   2.744419   3.665789   2.909166   0.000000
     6  Na   2.738046   4.126340   4.797916   2.948012   2.738682
     7  Na   3.070300   2.797825   5.087950   4.811844   3.068137
                    6          7
     6  Na   0.000000
     7  Na   2.796522   0.000000
 Stoichiometry    Na7(2)
 Framework group  C1[X(Na7)]
 Deg. of freedom    15
 Full point group                 C1      NOp   1
 Largest Abelian subgroup         C1      NOp   1
 Largest concise Abelian subgroup C1      NOp   1
                         Standard orientation:                         
 ---------------------------------------------------------------------
 Center     Atomic      Atomic             Coordinates (Angstroms)
 Number     Number       Type             X           Y           Z
 ---------------------------------------------------------------------
      1         11           0       -0.191190   -0.083434   -1.544751
      2         11           0        0.074495   -2.085878    0.300463
      3         11           0       -2.592100   -0.901511   -0.123469
      4         11           0       -1.526957    1.828955    0.176789
      5         11           0        0.360769    0.244106    1.722102
      6         11           0        1.381606    1.781391   -0.301514
      7         11           0        2.493376   -0.783629   -0.229619
 ---------------------------------------------------------------------
 Rotational constants (GHZ):           1.2216071           0.9565673           0.7398804
 Leave Link  202 at Mon Nov 13 20:05:38 2023, MaxMem=  1879048192 cpu:               0.1 elap:               0.0
 (Enter /home/sekinelabo/g16/l301.exe)
 Standard basis: 6-311+G(d) (5D, 7F)
 Ernie: Thresh=  0.10000D-02 Tol=  0.10000D-05 Strict=F.
 There are   217 symmetry adapted cartesian basis functions of A   symmetry.
 There are   210 symmetry adapted basis functions of A   symmetry.
   210 basis functions,   350 primitive gaussians,   217 cartesian basis functions
    39 alpha electrons       38 beta electrons
       nuclear repulsion energy       418.8805213223 Hartrees.
 IExCor=  402 DFT=T Ex+Corr=B3LYP ExCW=0 ScaHFX=  0.200000
 ScaDFX=  0.800000  0.720000  1.000000  0.810000 ScalE2=  1.000000  1.000000
 IRadAn=      5 IRanWt=     -1 IRanGd=            0 ICorTp=0 IEmpDi=  4
 NAtoms=    7 NActive=    7 NUniq=    7 SFac= 1.00D+00 NAtFMM=   60 NAOKFM=F Big=F
 Integral buffers will be    131072 words long.
 Raffenetti 2 integral format.
 Two-electron integral symmetry is turned on.
 Leave Link  301 at Mon Nov 13 20:05:38 2023, MaxMem=  1879048192 cpu:               0.5 elap:               0.0
 (Enter /home/sekinelabo/g16/l302.exe)
 NPDir=0 NMtPBC=     1 NCelOv=     1 NCel=       1 NClECP=     1 NCelD=      1
         NCelK=      1 NCelE2=     1 NClLst=     1 CellRange=     0.0.
 One-electron integrals computed using PRISM.
 One-electron integral symmetry used in STVInt
 NBasis=   210 RedAO= T EigKep=  4.48D-06  NBF=   210
 NBsUse=   209 1.00D-06 EigRej=  5.98D-07 NBFU=   209
 Precomputing XC quadrature grid using
 IXCGrd= 4 IRadAn=           5 IRanWt=          -1 IRanGd=           0 AccXCQ= 0.00D+00.
 Generated NRdTot=       0 NPtTot=           0 NUsed=           0 NTot=          32
 NSgBfM=   211   211   211   211   211 MxSgAt=     7 MxSgA2=     7.
 Leave Link  302 at Mon Nov 13 20:05:38 2023, MaxMem=  1879048192 cpu:               2.2 elap:               0.1
 (Enter /home/sekinelabo/g16/l303.exe)
 DipDrv:  MaxL=1.
 Leave Link  303 at Mon Nov 13 20:05:38 2023, MaxMem=  1879048192 cpu:               0.6 elap:               0.0
 (Enter /home/sekinelabo/g16/l401.exe)
 ExpMin= 7.60D-03 ExpMax= 3.62D+04 ExpMxC= 1.21D+03 IAcc=3 IRadAn=         5 AccDes= 0.00D+00
 Harris functional with IExCor=  402 and IRadAn=       5 diagonalized for initial guess.
 HarFok:  IExCor=  402 AccDes= 0.00D+00 IRadAn=         5 IDoV= 1 UseB2=F ITyADJ=14
 ICtDFT=  3500011 ScaDFX=  1.000000  1.000000  1.000000  1.000000
 FoFCou: FMM=F IPFlag=           0 FMFlag=      100000 FMFlg1=           0
         NFxFlg=           0 DoJE=T BraDBF=F KetDBF=T FulRan=T
         wScrn=  0.000000 ICntrl=       500 IOpCl=  0 I1Cent=   200000004 NGrid=           0
         NMat0=    1 NMatS0=      1 NMatT0=    0 NMatD0=    1 NMtDS0=    0 NMtDT0=    0
 Petite list used in FoFCou.
 Harris En= -1135.85043796264    
 JPrj=0 DoOrth=F DoCkMO=F.
 Initial guess <Sx>= 0.0000 <Sy>= 0.0000 <Sz>= 0.5000 <S**2>= 0.7500 S= 0.5000
 Leave Link  401 at Mon Nov 13 20:05:38 2023, MaxMem=  1879048192 cpu:               4.8 elap:               0.3
 (Enter /home/sekinelabo/g16/l502.exe)
 Keep R1 and R2 ints in memory in canonical form, NReq=507620388.
 FoFCou: FMM=F IPFlag=           0 FMFlag=           0 FMFlg1=           0
         NFxFlg=           0 DoJE=F BraDBF=F KetDBF=F FulRan=T
         wScrn=  0.000000 ICntrl=       600 IOpCl=  0 I1Cent=           0 NGrid=           0
         NMat0=    1 NMatS0=  22155 NMatT0=    0 NMatD0=    1 NMtDS0=    0 NMtDT0=    0
 Symmetry not used in FoFCou.
 Two-electron integral symmetry not used.
 UHF open shell SCF:
 Using DIIS extrapolation, IDIIS=  1040.
 NGot=  1879048192 LenX=  1388082348 LenY=  1388034818
 Requested convergence on RMS density matrix=1.00D-08 within 128 cycles.
 Requested convergence on MAX density matrix=1.00D-06.
 Requested convergence on             energy=1.00D-06.
 No special actions if energy rises.

 Cycle   1  Pass 1  IDiag  1:
 E= -1136.02761653075    
 DIIS: error= 1.67D-02 at cycle   1 NSaved=   1.
 NSaved= 1 IEnMin= 1 EnMin= -1136.02761653075     IErMin= 1 ErrMin= 1.67D-02
 ErrMax= 1.67D-02  0.00D+00 EMaxC= 1.00D-01 BMatC= 2.16D-01 BMatP= 2.16D-01
 IDIUse=3 WtCom= 8.33D-01 WtEn= 1.67D-01
 Coeff-Com:  0.100D+01
 Coeff-En:   0.100D+01
 Coeff:      0.100D+01
 Gap=     0.060 Goal=   None    Shift=    0.000
 Gap=     0.046 Goal=   None    Shift=    0.000
 GapD=    0.046 DampG=0.250 DampE=0.500 DampFc=0.2500 IDamp=-1.
 Damping current iteration by 2.50D-01
 RMSDP=1.06D-01 MaxDP=7.13D+00              OVMax= 2.69D-01

 Cycle   2  Pass 1  IDiag  1:
 E= -1136.04492898181     Delta-E=       -0.017312451054 Rises=F Damp=T
 DIIS: error= 1.08D-02 at cycle   2 NSaved=   2.
 NSaved= 2 IEnMin= 2 EnMin= -1136.04492898181     IErMin= 2 ErrMin= 1.08D-02
 ErrMax= 1.08D-02  0.00D+00 EMaxC= 1.00D-01 BMatC= 8.08D-02 BMatP= 2.16D-01
 IDIUse=3 WtCom= 8.92D-01 WtEn= 1.08D-01
 Coeff-Com: -0.126D+01 0.226D+01
 Coeff-En:   0.000D+00 0.100D+01
 Coeff:     -0.112D+01 0.212D+01
 Gap=     0.070 Goal=   None    Shift=    0.000
 Gap=     0.048 Goal=   None    Shift=    0.000
 RMSDP=4.55D-02 MaxDP=3.40D+00 DE=-1.73D-02 OVMax= 1.78D-01

 Cycle   3  Pass 1  IDiag  1:
 E= -1136.07380647552     Delta-E=       -0.028877493715 Rises=F Damp=F
 DIIS: error= 3.78D-03 at cycle   3 NSaved=   3.
 NSaved= 3 IEnMin= 3 EnMin= -1136.07380647552     IErMin= 3 ErrMin= 3.78D-03
 ErrMax= 3.78D-03  0.00D+00 EMaxC= 1.00D-01 BMatC= 4.50D-03 BMatP= 8.08D-02
 IDIUse=3 WtCom= 9.62D-01 WtEn= 3.78D-02
 Coeff-Com: -0.246D+00 0.465D+00 0.781D+00
 Coeff-En:   0.000D+00 0.000D+00 0.100D+01
 Coeff:     -0.236D+00 0.447D+00 0.789D+00
 Gap=     0.065 Goal=   None    Shift=    0.000
 Gap=     0.047 Goal=   None    Shift=    0.000
 RMSDP=1.85D-02 MaxDP=1.21D+00 DE=-2.89D-02 OVMax= 5.85D-02

 Cycle   4  Pass 1  IDiag  1:
 E= -1136.07420338607     Delta-E=       -0.000396910544 Rises=F Damp=F
 DIIS: error= 3.22D-03 at cycle   4 NSaved=   4.
 NSaved= 4 IEnMin= 4 EnMin= -1136.07420338607     IErMin= 4 ErrMin= 3.22D-03
 ErrMax= 3.22D-03  0.00D+00 EMaxC= 1.00D-01 BMatC= 3.04D-03 BMatP= 4.50D-03
 IDIUse=3 WtCom= 9.68D-01 WtEn= 3.22D-02
 Coeff-Com:  0.199D-01-0.247D-01 0.453D+00 0.552D+00
 Coeff-En:   0.000D+00 0.000D+00 0.456D+00 0.544D+00
 Coeff:      0.193D-01-0.239D-01 0.453D+00 0.551D+00
 Gap=     0.067 Goal=   None    Shift=    0.000
 Gap=     0.048 Goal=   None    Shift=    0.000
 RMSDP=5.59D-03 MaxDP=4.10D-01 DE=-3.97D-04 OVMax= 3.42D-02

 Cycle   5  Pass 1  IDiag  1:
 E= -1136.07585842697     Delta-E=       -0.001655040905 Rises=F Damp=F
 DIIS: error= 6.52D-04 at cycle   5 NSaved=   5.
 NSaved= 5 IEnMin= 5 EnMin= -1136.07585842697     IErMin= 5 ErrMin= 6.52D-04
 ErrMax= 6.52D-04  0.00D+00 EMaxC= 1.00D-01 BMatC= 1.13D-04 BMatP= 3.04D-03
 IDIUse=3 WtCom= 9.93D-01 WtEn= 6.52D-03
 Coeff-Com:  0.131D-01-0.175D-01 0.285D+00 0.354D+00 0.366D+00
 Coeff-En:   0.000D+00 0.000D+00 0.000D+00 0.000D+00 0.100D+01
 Coeff:      0.131D-01-0.174D-01 0.283D+00 0.351D+00 0.370D+00
 Gap=     0.067 Goal=   None    Shift=    0.000
 Gap=     0.048 Goal=   None    Shift=    0.000
 RMSDP=6.61D-04 MaxDP=4.18D-02 DE=-1.66D-03 OVMax= 1.04D-02

 Cycle   6  Pass 1  IDiag  1:
 E= -1136.07597153202     Delta-E=       -0.000113105051 Rises=F Damp=F
 DIIS: error= 9.45D-05 at cycle   6 NSaved=   6.
 NSaved= 6 IEnMin= 6 EnMin= -1136.07597153202     IErMin= 6 ErrMin= 9.45D-05
 ErrMax= 9.45D-05  0.00D+00 EMaxC= 1.00D-01 BMatC= 2.08D-06 BMatP= 1.13D-04
 IDIUse=1 WtCom= 1.00D+00 WtEn= 0.00D+00
 Coeff-Com: -0.250D-02 0.306D-02-0.163D-01-0.257D-01 0.810D-01 0.960D+00
 Coeff:     -0.250D-02 0.306D-02-0.163D-01-0.257D-01 0.810D-01 0.960D+00
 Gap=     0.067 Goal=   None    Shift=    0.000
 Gap=     0.048 Goal=   None    Shift=    0.000
 RMSDP=4.23D-04 MaxDP=3.00D-02 DE=-1.13D-04 OVMax= 1.93D-03

 Cycle   7  Pass 1  IDiag  1:
 E= -1136.07597367698     Delta-E=       -0.000002144960 Rises=F Damp=F
 DIIS: error= 5.19D-05 at cycle   7 NSaved=   7.
 NSaved= 7 IEnMin= 7 EnMin= -1136.07597367698     IErMin= 7 ErrMin= 5.19D-05
 ErrMax= 5.19D-05  0.00D+00 EMaxC= 1.00D-01 BMatC= 8.66D-07 BMatP= 2.08D-06
 IDIUse=1 WtCom= 1.00D+00 WtEn= 0.00D+00
 Coeff-Com: -0.215D-02 0.268D-02-0.260D-01-0.354D-01 0.280D-01 0.572D+00
 Coeff-Com:  0.461D+00
 Coeff:     -0.215D-02 0.268D-02-0.260D-01-0.354D-01 0.280D-01 0.572D+00
 Coeff:      0.461D+00
 Gap=     0.067 Goal=   None    Shift=    0.000
 Gap=     0.048 Goal=   None    Shift=    0.000
 RMSDP=7.38D-05 MaxDP=6.83D-03 DE=-2.14D-06 OVMax= 8.65D-04

 Cycle   8  Pass 1  IDiag  1:
 E= -1136.07597452244     Delta-E=       -0.000000845452 Rises=F Damp=F
 DIIS: error= 1.46D-05 at cycle   8 NSaved=   8.
 NSaved= 8 IEnMin= 8 EnMin= -1136.07597452244     IErMin= 8 ErrMin= 1.46D-05
 ErrMax= 1.46D-05  0.00D+00 EMaxC= 1.00D-01 BMatC= 6.47D-08 BMatP= 8.66D-07
 IDIUse=1 WtCom= 1.00D+00 WtEn= 0.00D+00
 Coeff-Com:  0.444D-03-0.571D-03-0.238D-02-0.974D-03-0.213D-01-0.189D+00
 Coeff-Com:  0.123D+00 0.109D+01
 Coeff:      0.444D-03-0.571D-03-0.238D-02-0.974D-03-0.213D-01-0.189D+00
 Coeff:      0.123D+00 0.109D+01
 Gap=     0.067 Goal=   None    Shift=    0.000
 Gap=     0.048 Goal=   None    Shift=    0.000
 RMSDP=6.67D-05 MaxDP=6.70D-03 DE=-8.45D-07 OVMax= 7.19D-04

 Cycle   9  Pass 1  IDiag  1:
 E= -1136.07597469432     Delta-E=       -0.000000171879 Rises=F Damp=F
 DIIS: error= 5.04D-06 at cycle   9 NSaved=   9.
 NSaved= 9 IEnMin= 9 EnMin= -1136.07597469432     IErMin= 9 ErrMin= 5.04D-06
 ErrMax= 5.04D-06  0.00D+00 EMaxC= 1.00D-01 BMatC= 9.28D-09 BMatP= 6.47D-08
 IDIUse=1 WtCom= 1.00D+00 WtEn= 0.00D+00
 Coeff-Com:  0.281D-03-0.355D-03 0.259D-03 0.131D-02-0.101D-01-0.981D-01
 Coeff-Com:  0.136D-01 0.391D+00 0.702D+00
 Coeff:      0.281D-03-0.355D-03 0.259D-03 0.131D-02-0.101D-01-0.981D-01
 Coeff:      0.136D-01 0.391D+00 0.702D+00
 Gap=     0.067 Goal=   None    Shift=    0.000
 Gap=     0.048 Goal=   None    Shift=    0.000
 RMSDP=1.15D-05 MaxDP=6.12D-04 DE=-1.72D-07 OVMax= 2.15D-04

 Cycle  10  Pass 1  IDiag  1:
 E= -1136.07597471293     Delta-E=       -0.000000018618 Rises=F Damp=F
 DIIS: error= 3.62D-06 at cycle  10 NSaved=  10.
 NSaved=10 IEnMin=10 EnMin= -1136.07597471293     IErMin=10 ErrMin= 3.62D-06
 ErrMax= 3.62D-06  0.00D+00 EMaxC= 1.00D-01 BMatC= 5.30D-09 BMatP= 9.28D-09
 IDIUse=1 WtCom= 1.00D+00 WtEn= 0.00D+00
 Coeff-Com:  0.420D-04-0.476D-04 0.124D-02 0.147D-02 0.722D-03-0.128D-02
 Coeff-Com: -0.379D-01-0.132D+00 0.467D+00 0.701D+00
 Coeff:      0.420D-04-0.476D-04 0.124D-02 0.147D-02 0.722D-03-0.128D-02
 Coeff:     -0.379D-01-0.132D+00 0.467D+00 0.701D+00
 Gap=     0.067 Goal=   None    Shift=    0.000
 Gap=     0.048 Goal=   None    Shift=    0.000
 RMSDP=1.17D-05 MaxDP=6.75D-04 DE=-1.86D-08 OVMax= 2.06D-04

 Cycle  11  Pass 1  IDiag  1:
 E= -1136.07597472550     Delta-E=       -0.000000012562 Rises=F Damp=F
 DIIS: error= 1.63D-06 at cycle  11 NSaved=  11.
 NSaved=11 IEnMin=11 EnMin= -1136.07597472550     IErMin=11 ErrMin= 1.63D-06
 ErrMax= 1.63D-06  0.00D+00 EMaxC= 1.00D-01 BMatC= 9.32D-10 BMatP= 5.30D-09
 IDIUse=1 WtCom= 1.00D+00 WtEn= 0.00D+00
 Coeff-Com: -0.440D-04 0.590D-04 0.595D-03 0.419D-03 0.281D-02 0.174D-01
 Coeff-Com: -0.150D-01-0.130D+00-0.558D-01 0.267D+00 0.912D+00
 Coeff:     -0.440D-04 0.590D-04 0.595D-03 0.419D-03 0.281D-02 0.174D-01
 Coeff:     -0.150D-01-0.130D+00-0.558D-01 0.267D+00 0.912D+00
 Gap=     0.067 Goal=   None    Shift=    0.000
 Gap=     0.048 Goal=   None    Shift=    0.000
 RMSDP=7.82D-06 MaxDP=5.51D-04 DE=-1.26D-08 OVMax= 1.31D-04

 Cycle  12  Pass 1  IDiag  1:
 E= -1136.07597472905     Delta-E=       -0.000000003554 Rises=F Damp=F
 DIIS: error= 5.65D-07 at cycle  12 NSaved=  12.
 NSaved=12 IEnMin=12 EnMin= -1136.07597472905     IErMin=12 ErrMin= 5.65D-07
 ErrMax= 5.65D-07  0.00D+00 EMaxC= 1.00D-01 BMatC= 1.62D-10 BMatP= 9.32D-10
 IDIUse=1 WtCom= 1.00D+00 WtEn= 0.00D+00
 Coeff-Com: -0.310D-04 0.385D-04-0.188D-04-0.138D-03 0.107D-02 0.890D-02
 Coeff-Com:  0.106D-02-0.278D-01-0.121D+00-0.674D-01 0.319D+00 0.886D+00
 Coeff:     -0.310D-04 0.385D-04-0.188D-04-0.138D-03 0.107D-02 0.890D-02
 Coeff:      0.106D-02-0.278D-01-0.121D+00-0.674D-01 0.319D+00 0.886D+00
 Gap=     0.067 Goal=   None    Shift=    0.000
 Gap=     0.048 Goal=   None    Shift=    0.000
 RMSDP=3.34D-06 MaxDP=1.58D-04 DE=-3.55D-09 OVMax= 7.61D-05

 Cycle  13  Pass 1  IDiag  1:
 E= -1136.07597472972     Delta-E=       -0.000000000665 Rises=F Damp=F
 DIIS: error= 2.64D-07 at cycle  13 NSaved=  13.
 NSaved=13 IEnMin=13 EnMin= -1136.07597472972     IErMin=13 ErrMin= 2.64D-07
 ErrMax= 2.64D-07  0.00D+00 EMaxC= 1.00D-01 BMatC= 1.47D-11 BMatP= 1.62D-10
 IDIUse=1 WtCom= 1.00D+00 WtEn= 0.00D+00
 Coeff-Com:  0.116D-04-0.155D-04-0.539D-04-0.172D-04-0.460D-03-0.335D-02
 Coeff-Com:  0.241D-02 0.214D-01 0.892D-03-0.386D-01-0.113D+00-0.358D-01
 Coeff-Com:  0.117D+01
 Coeff:      0.116D-04-0.155D-04-0.539D-04-0.172D-04-0.460D-03-0.335D-02
 Coeff:      0.241D-02 0.214D-01 0.892D-03-0.386D-01-0.113D+00-0.358D-01
 Coeff:      0.117D+01
 Gap=     0.067 Goal=   None    Shift=    0.000
 Gap=     0.048 Goal=   None    Shift=    0.000
 RMSDP=1.44D-06 MaxDP=1.22D-04 DE=-6.65D-10 OVMax= 3.51D-05

 Cycle  14  Pass 1  IDiag  1:
 E= -1136.07597472980     Delta-E=       -0.000000000083 Rises=F Damp=F
 DIIS: error= 1.22D-07 at cycle  14 NSaved=  14.
 NSaved=14 IEnMin=14 EnMin= -1136.07597472980     IErMin=14 ErrMin= 1.22D-07
 ErrMax= 1.22D-07  0.00D+00 EMaxC= 1.00D-01 BMatC= 2.92D-12 BMatP= 1.47D-11
 IDIUse=1 WtCom= 1.00D+00 WtEn= 0.00D+00
 Coeff-Com:  0.223D-05-0.243D-05 0.206D-05 0.171D-04-0.874D-04-0.836D-03
 Coeff-Com: -0.502D-03 0.977D-03 0.189D-01 0.227D-01-0.139D-01-0.168D+00
 Coeff-Com: -0.253D+00 0.139D+01
 Coeff:      0.223D-05-0.243D-05 0.206D-05 0.171D-04-0.874D-04-0.836D-03
 Coeff:     -0.502D-03 0.977D-03 0.189D-01 0.227D-01-0.139D-01-0.168D+00
 Coeff:     -0.253D+00 0.139D+01
 Gap=     0.067 Goal=   None    Shift=    0.000
 Gap=     0.048 Goal=   None    Shift=    0.000
 RMSDP=9.50D-07 MaxDP=8.32D-05 DE=-8.32D-11 OVMax= 1.80D-05

 Cycle  15  Pass 1  IDiag  1:
 E= -1136.07597472982     Delta-E=       -0.000000000019 Rises=F Damp=F
 DIIS: error= 5.10D-08 at cycle  15 NSaved=  15.
 NSaved=15 IEnMin=15 EnMin= -1136.07597472982     IErMin=15 ErrMin= 5.10D-08
 ErrMax= 5.10D-08  0.00D+00 EMaxC= 1.00D-01 BMatC= 4.50D-13 BMatP= 2.92D-12
 IDIUse=1 WtCom= 1.00D+00 WtEn= 0.00D+00
 Coeff-Com: -0.177D-05 0.243D-05 0.911D-05 0.431D-05 0.598D-04 0.352D-03
 Coeff-Com: -0.332D-03-0.280D-02 0.249D-03 0.480D-02 0.147D-01 0.603D-02
 Coeff-Com: -0.221D+00 0.819D-01 0.112D+01
 Coeff:     -0.177D-05 0.243D-05 0.911D-05 0.431D-05 0.598D-04 0.352D-03
 Coeff:     -0.332D-03-0.280D-02 0.249D-03 0.480D-02 0.147D-01 0.603D-02
 Coeff:     -0.221D+00 0.819D-01 0.112D+01
 Gap=     0.067 Goal=   None    Shift=    0.000
 Gap=     0.048 Goal=   None    Shift=    0.000
 RMSDP=3.64D-07 MaxDP=3.07D-05 DE=-1.91D-11 OVMax= 8.22D-06

 Cycle  16  Pass 1  IDiag  1:
 E= -1136.07597472984     Delta-E=       -0.000000000020 Rises=F Damp=F
 DIIS: error= 1.74D-08 at cycle  16 NSaved=  16.
 NSaved=16 IEnMin=16 EnMin= -1136.07597472984     IErMin=16 ErrMin= 1.74D-08
 ErrMax= 1.74D-08  0.00D+00 EMaxC= 1.00D-01 BMatC= 7.76D-14 BMatP= 4.50D-13
 IDIUse=1 WtCom= 1.00D+00 WtEn= 0.00D+00
 Coeff-Com: -0.505D-06 0.593D-06 0.201D-05-0.149D-05 0.238D-04 0.175D-03
 Coeff-Com:  0.464D-04-0.539D-03-0.289D-02-0.248D-02 0.361D-02 0.273D-01
 Coeff-Com:  0.777D-02-0.194D+00 0.128D+00 0.103D+01
 Coeff:     -0.505D-06 0.593D-06 0.201D-05-0.149D-05 0.238D-04 0.175D-03
 Coeff:      0.464D-04-0.539D-03-0.289D-02-0.248D-02 0.361D-02 0.273D-01
 Coeff:      0.777D-02-0.194D+00 0.128D+00 0.103D+01
 Gap=     0.067 Goal=   None    Shift=    0.000
 Gap=     0.048 Goal=   None    Shift=    0.000
 RMSDP=1.04D-07 MaxDP=7.02D-06 DE=-1.96D-11 OVMax= 2.55D-06

 Cycle  17  Pass 1  IDiag  1:
 E= -1136.07597472985     Delta-E=       -0.000000000010 Rises=F Damp=F
 DIIS: error= 6.98D-09 at cycle  17 NSaved=  17.
 NSaved=17 IEnMin=17 EnMin= -1136.07597472985     IErMin=17 ErrMin= 6.98D-09
 ErrMax= 6.98D-09  0.00D+00 EMaxC= 1.00D-01 BMatC= 2.06D-14 BMatP= 7.76D-14
 IDIUse=1 WtCom= 1.00D+00 WtEn= 0.00D+00
 Coeff-Com:  0.348D-06-0.500D-06-0.162D-05-0.121D-05-0.131D-04-0.336D-04
 Coeff-Com:  0.771D-04 0.534D-03-0.611D-03-0.158D-02-0.260D-02 0.385D-02
 Coeff-Com:  0.594D-01-0.682D-01-0.232D+00 0.207D+00 0.103D+01
 Coeff:      0.348D-06-0.500D-06-0.162D-05-0.121D-05-0.131D-04-0.336D-04
 Coeff:      0.771D-04 0.534D-03-0.611D-03-0.158D-02-0.260D-02 0.385D-02
 Coeff:      0.594D-01-0.682D-01-0.232D+00 0.207D+00 0.103D+01
 Gap=     0.067 Goal=   None    Shift=    0.000
 Gap=     0.048 Goal=   None    Shift=    0.000
 RMSDP=3.95D-08 MaxDP=2.16D-06 DE=-9.55D-12 OVMax= 1.04D-06

 Cycle  18  Pass 1  IDiag  1:
 E= -1136.07597472984     Delta-E=        0.000000000007 Rises=F Damp=F
 DIIS: error= 2.38D-09 at cycle  18 NSaved=  18.
 NSaved=18 IEnMin=17 EnMin= -1136.07597472985     IErMin=18 ErrMin= 2.38D-09
 ErrMax= 2.38D-09  0.00D+00 EMaxC= 1.00D-01 BMatC= 2.48D-15 BMatP= 2.06D-14
 IDIUse=1 WtCom= 1.00D+00 WtEn= 0.00D+00
 Large coefficients: NSaved= 18 BigCof=    0.00 CofMax=   10.00 Det=-5.08D-15
 Inversion failed.  Reducing to 17 matrices.
 Large coefficients: NSaved= 17 BigCof=    0.00 CofMax=   10.00 Det=-5.47D-15
 Inversion failed.  Reducing to 16 matrices.
 Large coefficients: NSaved= 16 BigCof=    0.00 CofMax=   10.00 Det=-5.47D-15
 Inversion failed.  Reducing to 15 matrices.
 Coeff-Com:  0.714D-06 0.914D-06-0.165D-04-0.283D-04-0.512D-04 0.551D-03
 Coeff-Com:  0.668D-03-0.180D-03-0.503D-02-0.961D-02 0.369D-01 0.300D-01
 Coeff-Com: -0.219D+00-0.127D+00 0.129D+01
 Coeff:      0.714D-06 0.914D-06-0.165D-04-0.283D-04-0.512D-04 0.551D-03
 Coeff:      0.668D-03-0.180D-03-0.503D-02-0.961D-02 0.369D-01 0.300D-01
 Coeff:     -0.219D+00-0.127D+00 0.129D+01
 Gap=     0.067 Goal=   None    Shift=    0.000
 Gap=     0.048 Goal=   None    Shift=    0.000
 RMSDP=2.79D-08 MaxDP=1.93D-06 DE= 6.82D-12 OVMax= 4.30D-07

 Cycle  19  Pass 1  IDiag  1:
 E= -1136.07597472983     Delta-E=        0.000000000010 Rises=F Damp=F
 DIIS: error= 8.23D-10 at cycle  19 NSaved=  16.
 NSaved=16 IEnMin=14 EnMin= -1136.07597472985     IErMin=16 ErrMin= 8.23D-10
 ErrMax= 8.23D-10  0.00D+00 EMaxC= 1.00D-01 BMatC= 3.19D-16 BMatP= 2.48D-15
 IDIUse=1 WtCom= 1.00D+00 WtEn= 0.00D+00
 Large coefficients: NSaved= 16 BigCof=    0.00 CofMax=   10.00 Det=-4.41D-16
 Inversion failed.  Reducing to 15 matrices.
 Coeff-Com: -0.862D-06-0.607D-05 0.206D-06 0.174D-04 0.495D-04 0.115D-04
 Coeff-Com: -0.790D-04 0.662D-04-0.262D-02 0.164D-02 0.126D-01-0.576D-02
 Coeff-Com: -0.927D-01-0.720D-01 0.116D+01
 Coeff:     -0.862D-06-0.607D-05 0.206D-06 0.174D-04 0.495D-04 0.115D-04
 Coeff:     -0.790D-04 0.662D-04-0.262D-02 0.164D-02 0.126D-01-0.576D-02
 Coeff:     -0.927D-01-0.720D-01 0.116D+01
 Gap=     0.067 Goal=   None    Shift=    0.000
 Gap=     0.048 Goal=   None    Shift=    0.000
 RMSDP=1.08D-08 MaxDP=8.26D-07 DE= 1.05D-11 OVMax= 1.39D-07

 Cycle  20  Pass 1  IDiag  1:
 E= -1136.07597472986     Delta-E=       -0.000000000027 Rises=F Damp=F
 DIIS: error= 6.41D-10 at cycle  20 NSaved=  16.
 NSaved=16 IEnMin=16 EnMin= -1136.07597472986     IErMin=16 ErrMin= 6.41D-10
 ErrMax= 6.41D-10  0.00D+00 EMaxC= 1.00D-01 BMatC= 8.25D-17 BMatP= 3.19D-16
 IDIUse=1 WtCom= 1.00D+00 WtEn= 0.00D+00
 Large coefficients: NSaved= 16 BigCof=    0.00 CofMax=   10.00 Det=-1.61D-16
 Inversion failed.  Reducing to 15 matrices.
 Coeff-Com: -0.211D-05-0.149D-05-0.197D-05 0.489D-04 0.585D-04 0.135D-04
 Coeff-Com: -0.339D-03-0.232D-02 0.386D-02 0.105D-01-0.139D-01-0.480D-01
 Coeff-Com:  0.508D-02 0.302D+00 0.743D+00
 Coeff:     -0.211D-05-0.149D-05-0.197D-05 0.489D-04 0.585D-04 0.135D-04
 Coeff:     -0.339D-03-0.232D-02 0.386D-02 0.105D-01-0.139D-01-0.480D-01
 Coeff:      0.508D-02 0.302D+00 0.743D+00
 Gap=     0.067 Goal=   None    Shift=    0.000
 Gap=     0.048 Goal=   None    Shift=    0.000
 RMSDP=4.38D-09 MaxDP=2.76D-07 DE=-2.73D-11 OVMax= 1.72D-08

 SCF Done:  E(UB3LYP) =  -1136.07597473     A.U. after   20 cycles
            NFock= 20  Conv=0.44D-08     -V/T= 2.0022
 <Sx>= 0.0000 <Sy>= 0.0000 <Sz>= 0.5000 <S**2>= 0.7576 S= 0.5038
 <L.S>= 0.000000000000E+00
 KE= 1.133576851024D+03 PE=-3.567328021905D+03 EE= 8.787946748283D+02
 Annihilation of the first spin contaminant:
 S**2 before annihilation     0.7576,   after     0.7500
 Leave Link  502 at Mon Nov 13 20:05:55 2023, MaxMem=  1879048192 cpu:             200.2 elap:              16.9
 (Enter /home/sekinelabo/g16/l601.exe)
 Copying SCF densities to generalized density rwf, IOpCl= 1 IROHF=0.

 **********************************************************************

            Population analysis using the SCF Density.

 **********************************************************************

 Orbital symmetries:
 Alpha Orbitals:
       Occupied  (A) (A) (A) (A) (A) (A) (A) (A) (A) (A) (A) (A)
                 (A) (A) (A) (A) (A) (A) (A) (A) (A) (A) (A) (A)
                 (A) (A) (A) (A) (A) (A) (A) (A) (A) (A) (A) (A)
                 (A) (A) (A)
       Virtual   (A) (A) (A) (A) (A) (A) (A) (A) (A) (A) (A) (A)
                 (A) (A) (A) (A) (A) (A) (A) (A) (A) (A) (A) (A)
                 (A) (A) (A) (A) (A) (A) (A) (A) (A) (A) (A) (A)
                 (A) (A) (A) (A) (A) (A) (A) (A) (A) (A) (A) (A)
                 (A) (A) (A) (A) (A) (A) (A) (A) (A) (A) (A) (A)
                 (A) (A) (A) (A) (A) (A) (A) (A) (A) (A) (A) (A)
                 (A) (A) (A) (A) (A) (A) (A) (A) (A) (A) (A) (A)
                 (A) (A) (A) (A) (A) (A) (A) (A) (A) (A) (A) (A)
                 (A) (A) (A) (A) (A) (A) (A) (A) (A) (A) (A) (A)
                 (A) (A) (A) (A) (A) (A) (A) (A) (A) (A) (A) (A)
                 (A) (A) (A) (A) (A) (A) (A) (A) (A) (A) (A) (A)
                 (A) (A) (A) (A) (A) (A) (A) (A) (A) (A) (A) (A)
                 (A) (A) (A) (A) (A) (A) (A) (A) (A) (A) (A) (A)
                 (A) (A) (A) (A) (A) (A) (A) (A) (A) (A) (A) (A)
                 (A) (A)
 Beta  Orbitals:
       Occupied  (A) (A) (A) (A) (A) (A) (A) (A) (A) (A) (A) (A)
                 (A) (A) (A) (A) (A) (A) (A) (A) (A) (A) (A) (A)
                 (A) (A) (A) (A) (A) (A) (A) (A) (A) (A) (A) (A)
                 (A) (A)
       Virtual   (A) (A) (A) (A) (A) (A) (A) (A) (A) (A) (A) (A)
                 (A) (A) (A) (A) (A) (A) (A) (A) (A) (A) (A) (A)
                 (A) (A) (A) (A) (A) (A) (A) (A) (A) (A) (A) (A)
                 (A) (A) (A) (A) (A) (A) (A) (A) (A) (A) (A) (A)
                 (A) (A) (A) (A) (A) (A) (A) (A) (A) (A) (A) (A)
                 (A) (A) (A) (A) (A) (A) (A) (A) (A) (A) (A) (A)
                 (A) (A) (A) (A) (A) (A) (A) (A) (A) (A) (A) (A)
                 (A) (A) (A) (A) (A) (A) (A) (A) (A) (A) (A) (A)
                 (A) (A) (A) (A) (A) (A) (A) (A) (A) (A) (A) (A)
                 (A) (A) (A) (A) (A) (A) (A) (A) (A) (A) (A) (A)
                 (A) (A) (A) (A) (A) (A) (A) (A) (A) (A) (A) (A)
                 (A) (A) (A) (A) (A) (A) (A) (A) (A) (A) (A) (A)
                 (A) (A) (A) (A) (A) (A) (A) (A) (A) (A) (A) (A)
                 (A) (A) (A) (A) (A) (A) (A) (A) (A) (A) (A) (A)
                 (A) (A) (A)
 The electronic state is 2-A.
 Alpha  occ. eigenvalues --  -38.44143 -38.43963 -38.43960 -38.43917 -38.43695
 Alpha  occ. eigenvalues --  -38.43499 -38.43386  -2.20413  -2.20330  -2.20083
 Alpha  occ. eigenvalues --   -2.19948  -2.19892  -2.19693  -2.19504  -1.14367
 Alpha  occ. eigenvalues --   -1.14238  -1.14183  -1.14095  -1.14083  -1.14005
 Alpha  occ. eigenvalues --   -1.13894  -1.13798  -1.13662  -1.13644  -1.13622
 Alpha  occ. eigenvalues --   -1.13566  -1.13493  -1.13446  -1.13397  -1.13295
 Alpha  occ. eigenvalues --   -1.13269  -1.13194  -1.13165  -1.13126  -1.13063
 Alpha  occ. eigenvalues --   -0.21721  -0.14099  -0.12949  -0.12032
 Alpha virt. eigenvalues --   -0.05345  -0.04416  -0.04027  -0.03612  -0.03041
 Alpha virt. eigenvalues --   -0.02561  -0.01241  -0.00519  -0.00039   0.00341
 Alpha virt. eigenvalues --    0.00694   0.00775   0.01016   0.01133   0.01164
 Alpha virt. eigenvalues --    0.01281   0.01424   0.01450   0.01476   0.01526
 Alpha virt. eigenvalues --    0.01636   0.01778   0.01889   0.01979   0.02020
 Alpha virt. eigenvalues --    0.02610   0.02657   0.02921   0.02960   0.03098
 Alpha virt. eigenvalues --    0.03136   0.03207   0.03280   0.03306   0.03376
 Alpha virt. eigenvalues --    0.03494   0.03569   0.03792   0.03922   0.03980
 Alpha virt. eigenvalues --    0.04789   0.04929   0.05107   0.05240   0.05306
 Alpha virt. eigenvalues --    0.05456   0.05773   0.05878   0.06074   0.06207
 Alpha virt. eigenvalues --    0.06234   0.07500   0.07627   0.07687   0.08002
 Alpha virt. eigenvalues --    0.08338   0.08798   0.09406   0.09470   0.09821
 Alpha virt. eigenvalues --    0.10157   0.11827   0.11865   0.12621   0.12821
 Alpha virt. eigenvalues --    0.13376   0.13686   0.13934   0.14254   0.14387
 Alpha virt. eigenvalues --    0.14567   0.14864   0.15204   0.15853   0.16629
 Alpha virt. eigenvalues --    0.17429   0.17751   0.18544   0.18777   0.24408
 Alpha virt. eigenvalues --    0.25770   0.26752   0.27051   0.27895   0.28221
 Alpha virt. eigenvalues --    0.28730   0.31858   0.33592   0.35545   0.36074
 Alpha virt. eigenvalues --    0.37995   0.38431   0.38873   0.39300   0.40526
 Alpha virt. eigenvalues --    0.40850   0.43710   0.44065   0.44529   0.45176
 Alpha virt. eigenvalues --    0.45805   0.45946   0.46566   0.47020   0.47686
 Alpha virt. eigenvalues --    0.48430   0.48545   0.48730   0.49372   0.49522
 Alpha virt. eigenvalues --    0.50121   0.50644   0.51999   0.53408   0.53927
 Alpha virt. eigenvalues --    0.54559   0.54772   0.55298   0.57305   0.58606
 Alpha virt. eigenvalues --    0.59692   0.63128   0.66124   0.67199   0.69931
 Alpha virt. eigenvalues --    0.71673   0.73589   0.75360   0.76857   0.78494
 Alpha virt. eigenvalues --    0.81524   0.82837   0.84638   0.87044   0.88206
 Alpha virt. eigenvalues --    2.17222   2.24022   2.27251   2.28902   2.30120
 Alpha virt. eigenvalues --    2.32342   2.37249   4.41223   4.41579   4.42045
 Alpha virt. eigenvalues --    4.42651   4.43146   4.44061   4.46303   4.47595
 Alpha virt. eigenvalues --    4.48837   4.53799   4.61081   4.62710   4.66690
 Alpha virt. eigenvalues --    4.70931   4.75251   4.75468   4.80456   4.82622
 Alpha virt. eigenvalues --    4.88236   4.89227   4.93253  96.39820  96.51033
 Alpha virt. eigenvalues --   96.55383  96.57937  96.59945  96.62544  96.69261
  Beta  occ. eigenvalues --  -38.44048 -38.43946 -38.43911 -38.43879 -38.43674
  Beta  occ. eigenvalues --  -38.43479 -38.43373  -2.20244  -2.20181  -2.20063
  Beta  occ. eigenvalues --   -2.19941  -2.19862  -2.19664  -2.19487  -1.14296
  Beta  occ. eigenvalues --   -1.14139  -1.14073  -1.14009  -1.13983  -1.13906
  Beta  occ. eigenvalues --   -1.13871  -1.13761  -1.13641  -1.13613  -1.13583
  Beta  occ. eigenvalues --   -1.13523  -1.13459  -1.13385  -1.13357  -1.13269
  Beta  occ. eigenvalues --   -1.13185  -1.13182  -1.13154  -1.13061  -1.13057
  Beta  occ. eigenvalues --   -0.20916  -0.13736  -0.12591
  Beta virt. eigenvalues --   -0.07797  -0.05356  -0.04399  -0.04002  -0.02677
  Beta virt. eigenvalues --   -0.02130  -0.01461  -0.01157  -0.00485   0.00106
  Beta virt. eigenvalues --    0.00374   0.00678   0.00758   0.01033   0.01140
  Beta virt. eigenvalues --    0.01161   0.01421   0.01481   0.01532   0.01612
  Beta virt. eigenvalues --    0.01679   0.01698   0.01855   0.01953   0.02009
  Beta virt. eigenvalues --    0.02196   0.02615   0.02656   0.02906   0.02962
  Beta virt. eigenvalues --    0.03140   0.03178   0.03208   0.03293   0.03424
  Beta virt. eigenvalues --    0.03510   0.03586   0.03691   0.03948   0.04018
  Beta virt. eigenvalues --    0.04176   0.04941   0.05011   0.05192   0.05343
  Beta virt. eigenvalues --    0.05469   0.05688   0.05934   0.06169   0.06204
  Beta virt. eigenvalues --    0.06214   0.06424   0.07496   0.07723   0.07833
  Beta virt. eigenvalues --    0.08007   0.08368   0.08874   0.09618   0.09796
  Beta virt. eigenvalues --    0.10106   0.10560   0.12052   0.12190   0.12732
  Beta virt. eigenvalues --    0.12931   0.13500   0.13893   0.14119   0.14579
  Beta virt. eigenvalues --    0.14692   0.14903   0.15231   0.15463   0.16071
  Beta virt. eigenvalues --    0.16859   0.17631   0.17823   0.18834   0.19067
  Beta virt. eigenvalues --    0.24800   0.26479   0.26934   0.27389   0.28098
  Beta virt. eigenvalues --    0.28642   0.29366   0.31871   0.33765   0.35794
  Beta virt. eigenvalues --    0.36335   0.38335   0.38880   0.39183   0.39663
  Beta virt. eigenvalues --    0.40779   0.41101   0.43964   0.44191   0.44847
  Beta virt. eigenvalues --    0.45325   0.45909   0.46299   0.46866   0.47298
  Beta virt. eigenvalues --    0.47878   0.48499   0.48576   0.48876   0.49574
  Beta virt. eigenvalues --    0.49602   0.50245   0.50877   0.52247   0.53566
  Beta virt. eigenvalues --    0.54148   0.54814   0.55180   0.55657   0.57534
  Beta virt. eigenvalues --    0.58992   0.60177   0.63556   0.66387   0.67404
  Beta virt. eigenvalues --    0.70143   0.71948   0.73803   0.75453   0.76921
  Beta virt. eigenvalues --    0.78844   0.81528   0.82968   0.84803   0.87271
  Beta virt. eigenvalues --    0.88465   2.17277   2.24054   2.27271   2.28933
  Beta virt. eigenvalues --    2.30166   2.32685   2.37619   4.41327   4.41654
  Beta virt. eigenvalues --    4.42099   4.42724   4.43170   4.44134   4.46395
  Beta virt. eigenvalues --    4.47665   4.48901   4.53910   4.61175   4.62746
  Beta virt. eigenvalues --    4.66729   4.71004   4.75326   4.75529   4.80513
  Beta virt. eigenvalues --    4.82719   4.88273   4.89287   4.93326  96.39845
  Beta virt. eigenvalues --   96.51046  96.55395  96.57954  96.59975  96.62650
  Beta virt. eigenvalues --   96.69373
          Condensed to atoms (all electrons):
               1          2          3          4          5          6
     1  Na  13.427298  -0.038062  -0.257018   0.061108  -1.953729   0.487504
     2  Na  -0.038062  12.686843   0.448026  -0.542142   0.223574  -1.699714
     3  Na  -0.257018   0.448026  13.051026   1.389105   0.032142  -1.863250
     4  Na   0.061108  -0.542142   1.389105  14.385154   0.247453  -1.494572
     5  Na  -1.953729   0.223574   0.032142   0.247453  13.560707  -0.203496
     6  Na   0.487504  -1.699714  -1.863250  -1.494572  -0.203496  13.984955
     7  Na  -0.140471  -0.546715  -1.767543  -3.290044  -0.508346   1.551050
               7
     1  Na  -0.140471
     2  Na  -0.546715
     3  Na  -1.767543
     4  Na  -3.290044
     5  Na  -0.508346
     6  Na   1.551050
     7  Na  15.634299
          Atomic-Atomic Spin Densities.
               1          2          3          4          5          6
     1  Na   1.840090  -0.011273   0.115366   0.079646  -1.806081   0.153353
     2  Na  -0.011273  -0.281180   0.000396   0.084536   0.052741   0.212688
     3  Na   0.115366   0.000396  -0.087307  -0.055462  -0.110735   0.112134
     4  Na   0.079646   0.084536  -0.055462  -0.328899  -0.106119   0.060230
     5  Na  -1.806081   0.052741  -0.110735  -0.106119   2.398788  -0.120148
     6  Na   0.153353   0.212688   0.112134   0.060230  -0.120148  -0.279407
     7  Na  -0.014705   0.081195  -0.006111   0.319281   0.164795  -0.096314
               7
     1  Na  -0.014705
     2  Na   0.081195
     3  Na  -0.006111
     4  Na   0.319281
     5  Na   0.164795
     6  Na  -0.096314
     7  Na  -0.480913
 Mulliken charges and spin densities:
               1          2
     1  Na  -0.586629   0.356397
     2  Na   0.468190   0.139103
     3  Na  -0.032487  -0.031718
     4  Na   0.243938   0.053214
     5  Na  -0.398304   0.473241
     6  Na   0.237523   0.042535
     7  Na   0.067769  -0.032772
 Sum of Mulliken charges =  -0.00000   1.00000
 Mulliken charges and spin densities with hydrogens summed into heavy atoms:
               1          2
     1  Na  -0.586629   0.356397
     2  Na   0.468190   0.139103
     3  Na  -0.032487  -0.031718
     4  Na   0.243938   0.053214
     5  Na  -0.398304   0.473241
     6  Na   0.237523   0.042535
     7  Na   0.067769  -0.032772
 Electronic spatial extent (au):  <R**2>=           1534.7775
 Charge=             -0.0000 electrons
 Dipole moment (field-independent basis, Debye):
    X=             -0.2072    Y=             -0.0405    Z=              0.1517  Tot=              0.2600
 Quadrupole moment (field-independent basis, Debye-Ang):
   XX=            -57.5912   YY=            -69.1248   ZZ=            -70.2264
   XY=             -0.1840   XZ=             -0.9634   YZ=             -0.2629
 Traceless Quadrupole moment (field-independent basis, Debye-Ang):
   XX=              8.0563   YY=             -3.4773   ZZ=             -4.5790
   XY=             -0.1840   XZ=             -0.9634   YZ=             -0.2629
 Octapole moment (field-independent basis, Debye-Ang**2):
  XXX=             -4.8020  YYY=              2.3477  ZZZ=              3.5078  XYY=             -2.1360
  XXY=             -5.2414  XXZ=             -3.1147  XZZ=              0.2697  YZZ=              0.8481
  YYZ=              1.2769  XYZ=             -1.3490
 Hexadecapole moment (field-independent basis, Debye-Ang**3):
 XXXX=          -1038.5636 YYYY=           -990.3880 ZZZZ=           -585.8246 XXXY=              1.7935
 XXXZ=            -17.6141 YYYX=             -6.2444 YYYZ=            -14.4649 ZZZX=              5.6152
 ZZZY=              5.3507 XXYY=           -335.4091 XXZZ=           -324.3578 YYZZ=           -290.9526
 XXYZ=              5.1698 YYXZ=            -10.7419 ZZXY=              0.9610
 N-N= 4.188805213223D+02 E-N=-3.567328022091D+03  KE= 1.133576851024D+03
                          Isotropic Fermi Contact Couplings
        Atom                 a.u.       MegaHertz       Gauss      10(-4) cm-1
     1  Na(23)             0.32833     388.42910     138.60116     129.56600
     2  Na(23)             0.00007       0.08059       0.02876       0.02688
     3  Na(23)            -0.02119     -25.06450      -8.94364      -8.36062
     4  Na(23)            -0.01348     -15.94727      -5.69038      -5.31944
     5  Na(23)             0.38721     458.07959     163.45419     152.79890
     6  Na(23)            -0.00014      -0.16765      -0.05982      -0.05592
     7  Na(23)            -0.01213     -14.34608      -5.11904      -4.78534
 --------------------------------------------------------
       Center         ----  Spin Dipole Couplings  ----
                      3XX-RR        3YY-RR        3ZZ-RR
 --------------------------------------------------------
     1   Atom        0.008449     -0.001019     -0.007430
     2   Atom       -0.037168     -0.030175      0.067343
     3   Atom       -0.014834     -0.021763      0.036598
     4   Atom       -0.027643     -0.026547      0.054191
     5   Atom        0.002662      0.011419     -0.014082
     6   Atom       -0.035427     -0.031959      0.067386
     7   Atom       -0.024470     -0.028898      0.053368
 --------------------------------------------------------
                        XY            XZ            YZ
 --------------------------------------------------------
     1   Atom        0.003827     -0.008649     -0.004150
     2   Atom       -0.000451      0.002382      0.019118
     3   Atom        0.002426     -0.002230     -0.001551
     4   Atom       -0.003293      0.008908     -0.005684
     5   Atom       -0.001460     -0.000283     -0.002103
     6   Atom        0.001576      0.003320      0.021314
     7   Atom       -0.002261      0.009803     -0.011483
 --------------------------------------------------------


 ---------------------------------------------------------------------------------
              Anisotropic Spin Dipole Couplings in Principal Axis System
 ---------------------------------------------------------------------------------

       Atom             a.u.   MegaHertz   Gauss  10(-4) cm-1        Axes

              Baa    -0.0118    -1.661    -0.593    -0.554  0.3462  0.2281  0.9100
     1 Na(23) Bbb    -0.0023    -0.323    -0.115    -0.108 -0.3917  0.9165 -0.0807
              Bcc     0.0141     1.984     0.708     0.662  0.8525  0.3285 -0.4067
 
              Baa    -0.0374    -5.286    -1.886    -1.763  0.9715  0.2285 -0.0638
     2 Na(23) Bbb    -0.0336    -4.741    -1.692    -1.581 -0.2363  0.9557 -0.1755
              Bcc     0.0710    10.027     3.578     3.345  0.0209  0.1855  0.9824
 
              Baa    -0.0225    -3.183    -1.136    -1.062 -0.2966  0.9549  0.0139
     3 Na(23) Bbb    -0.0142    -2.005    -0.716    -0.669  0.9540  0.2956  0.0509
              Bcc     0.0367     5.188     1.851     1.731 -0.0445 -0.0283  0.9986
 
              Baa    -0.0306    -4.317    -1.541    -1.440  0.8032  0.5940 -0.0446
     4 Na(23) Bbb    -0.0250    -3.532    -1.260    -1.178 -0.5857  0.8011  0.1234
              Bcc     0.0556     7.850     2.801     2.618  0.1090 -0.0730  0.9914
 
              Baa    -0.0143    -2.014    -0.719    -0.672  0.0238  0.0829  0.9963
     5 Na(23) Bbb     0.0024     0.346     0.123     0.115  0.9877  0.1522 -0.0363
              Bcc     0.0118     1.668     0.595     0.557 -0.1546  0.9849 -0.0783
 
              Baa    -0.0369    -5.211    -1.859    -1.738 -0.5415  0.8269 -0.1518
     6 Na(23) Bbb    -0.0350    -4.940    -1.763    -1.648  0.8400  0.5251 -0.1366
              Bcc     0.0719    10.151     3.622     3.386  0.0332  0.2014  0.9789
 
              Baa    -0.0306    -4.326    -1.544    -1.443  0.1793  0.9773  0.1127
     7 Na(23) Bbb    -0.0255    -3.608    -1.287    -1.203  0.9760 -0.1624 -0.1449
              Bcc     0.0562     7.934     2.831     2.647  0.1233 -0.1359  0.9830
 

 ---------------------------------------------------------------------------------

 No NMR shielding tensors so no spin-rotation constants.
 Leave Link  601 at Mon Nov 13 20:05:56 2023, MaxMem=  1879048192 cpu:               2.9 elap:               0.2
 (Enter /home/sekinelabo/g16/l701.exe)
 ... and contract with generalized density number  0.
 Compute integral first derivatives.
 Leave Link  701 at Mon Nov 13 20:05:56 2023, MaxMem=  1879048192 cpu:               1.8 elap:               0.1
 (Enter /home/sekinelabo/g16/l702.exe)
 L702 exits ... SP integral derivatives will be done elsewhere.
 Leave Link  702 at Mon Nov 13 20:05:56 2023, MaxMem=  1879048192 cpu:               0.5 elap:               0.0
 (Enter /home/sekinelabo/g16/l703.exe)
 Integral derivatives from FoFJK, PRISM(SPDF).
 Compute integral first derivatives, UseDBF=F ICtDFT=           0.
 Calling FoFJK, ICntrl=      2127 FMM=F ISym2X=0 I1Cent= 0 IOpClX= 1 NMat=1 NMatS=1 NMatT=0.
 FoFJK:  IHMeth= 1 ICntrl=    2127 DoSepK=F KAlg= 0 I1Cent=           0 FoldK=F
 IRaf=         0 NMat=       1 IRICut=       1 DoRegI=T DoRafI=F ISym2E= 0 IDoP0=0 IntGTp=1.
 FoFCou: FMM=F IPFlag=           0 FMFlag=      100000 FMFlg1=         800
         NFxFlg=           0 DoJE=F BraDBF=F KetDBF=F FulRan=T
         wScrn=  0.000000 ICntrl=      2127 IOpCl=  1 I1Cent=           0 NGrid=           0
         NMat0=    1 NMatS0=      1 NMatT0=    0 NMatD0=    1 NMtDS0=    0 NMtDT0=    0
 Symmetry not used in FoFCou.
 Leave Link  703 at Mon Nov 13 20:05:58 2023, MaxMem=  1879048192 cpu:              38.3 elap:               2.4
 (Enter /home/sekinelabo/g16/l716.exe)
 Dipole        =-8.15379692D-02-1.59199976D-02 5.96907258D-02
 ***** Axes restored to original set *****
 -------------------------------------------------------------------
 Center     Atomic                   Forces (Hartrees/Bohr)
 Number     Number              X              Y              Z
 -------------------------------------------------------------------
      1       11          -0.002741869   -0.001848712   -0.027068098
      2       11          -0.003343879   -0.029500035    0.005022620
      3       11          -0.016214412   -0.007270903    0.002353363
      4       11          -0.013676843    0.018738302    0.002547913
      5       11          -0.001666411    0.001119377    0.025165642
      6       11           0.014660549    0.027949869   -0.005043714
      7       11           0.022982866   -0.009187899   -0.002977727
 -------------------------------------------------------------------
 Cartesian Forces:  Max     0.029500035 RMS     0.015113323
 Z-matrix is all fixed cartesians, so copy forces.
 Force constants in Cartesian coordinates: 
                1             2             3             4             5 
      1  0.242351D+00
      2 -0.723496D-03  0.220788D+00
      3  0.422220D-02  0.790330D-02  0.332873D+00
      4 -0.505130D-01  0.929104D-02  0.948025D-03  0.196718D+00
      5 -0.128204D-02 -0.565972D-01 -0.896698D-02 -0.472775D-02  0.257493D+00
      6  0.204581D-03  0.530727D-01 -0.674618D-01  0.974593D-03 -0.131300D-01
      7 -0.461946D-01 -0.617060D-02 -0.156085D-01 -0.463446D-01 -0.204052D-01
      8 -0.343598D-02 -0.332261D-01 -0.473321D-02  0.379786D-01 -0.522067D-01
      9  0.463271D-01  0.140993D-01 -0.586082D-01 -0.904648D-02 -0.464345D-03
     10 -0.337988D-01  0.401394D-02 -0.113777D-01  0.939542D-02  0.807809D-02
     11  0.111492D-01 -0.396687D-01  0.533396D-02  0.180042D-01 -0.127519D-01
     12  0.290494D-01 -0.386459D-01 -0.536503D-01 -0.147911D-02  0.322248D-02
     13 -0.507286D-02 -0.403919D-02 -0.811215D-02 -0.563048D-01  0.316855D-02
     14 -0.279386D-02 -0.673474D-02 -0.172873D-02 -0.616894D-03 -0.666296D-01
     15 -0.126007D-02 -0.508376D-02 -0.547916D-01 -0.371742D-02  0.140927D-01
     16 -0.634951D-01 -0.120662D-01  0.122091D-01  0.102717D-01 -0.458019D-02
     17 -0.360376D-02 -0.621542D-01  0.958737D-02 -0.165545D-01 -0.185988D-01
     18 -0.296089D-01 -0.459305D-01 -0.576264D-01  0.187833D-02  0.656781D-02
     19 -0.432763D-01  0.969446D-02  0.177191D-01 -0.632224D-01  0.197485D-01
     20  0.689960D-03 -0.224066D-01 -0.739571D-02 -0.433747D-01 -0.507084D-01
     21 -0.489343D-01  0.145850D-01 -0.407342D-01  0.104421D-01 -0.132165D-02
                6             7             8             9            10 
      6  0.168866D+00
      7  0.215114D-02  0.157931D+00
      8  0.275971D-02  0.217073D-01  0.123510D+00
      9 -0.318976D-01 -0.107428D-02 -0.949961D-04  0.981935D-01
     10  0.816857D-03 -0.332634D-01 -0.306007D-01 -0.531761D-02  0.154651D+00
     11 -0.195760D-02  0.208399D-01 -0.528708D-01 -0.315307D-02 -0.306163D-01
     12  0.146489D-01 -0.477617D-04 -0.992496D-03 -0.181175D-01  0.356084D-03
     13 -0.561223D-02 -0.190789D-01 -0.649539D-02 -0.365141D-01 -0.393394D-01
     14 -0.557234D-01 -0.419490D-02 -0.943333D-02 -0.115311D-01  0.137191D-01
     15 -0.537620D-01  0.137047D-01  0.228676D-02 -0.258077D-01  0.852725D-02
     16  0.247305D-03 -0.417977D-02 -0.193338D-01  0.290028D-02 -0.549423D-01
     17  0.582944D-02 -0.112309D-01  0.986810D-02  0.117834D-02  0.251383D-01
     18  0.121179D-01  0.557193D-03  0.373161D-03  0.159699D-01  0.389684D-02
     19  0.121775D-02 -0.886996D-02  0.179996D-03  0.272503D-02 -0.270238D-02
     20  0.914921D-02 -0.545546D-03  0.143586D-01 -0.340364D-04  0.102677D-01
     21 -0.425116D-01  0.317567D-03  0.401068D-03  0.202675D-01  0.309830D-02
               11            12            13            14            15 
     11  0.179367D+00
     12  0.771195D-02  0.114679D+00
     13  0.290958D-02 -0.381348D-01  0.206172D+00
     14 -0.405909D-01  0.325258D-01 -0.568526D-02  0.194812D+00
     15 -0.130292D-01 -0.486735D-01  0.117383D-01  0.864825D-02  0.296958D+00
     16 -0.348701D-01  0.771422D-02 -0.537738D-01 -0.197914D-02 -0.102980D-01
     17 -0.401271D-01 -0.366968D-02 -0.201444D-02 -0.504670D-01 -0.780347D-02
     18  0.601794D-02 -0.287737D-01  0.297307D-01  0.488351D-01 -0.682146D-01
     19  0.125836D-01  0.254196D-02 -0.326020D-01  0.155097D-02 -0.186947D-01
     20  0.664236D-02 -0.152167D-03  0.121562D-01 -0.209560D-01  0.888721D-03
     21 -0.923941D-03  0.198870D-01  0.469043D-01 -0.210259D-01 -0.457083D-01
               16            17            18            19            20 
     16  0.211399D+00
     17  0.309000D-01  0.230343D+00
     18 -0.100144D-01 -0.117821D-01  0.163987D+00
     19 -0.452793D-01 -0.226345D-01  0.356035D-02  0.195952D+00
     20  0.419295D-01 -0.688637D-01 -0.408138D-02 -0.211231D-01  0.141934D+00
     21 -0.275845D-02  0.666006D-02 -0.374605D-01 -0.906946D-02  0.162535D-02
               21 
     21  0.126260D+00
 Leave Link  716 at Mon Nov 13 20:05:59 2023, MaxMem=  1879048192 cpu:               0.5 elap:               0.0
 (Enter /home/sekinelabo/g16/l103.exe)

 GradGradGradGradGradGradGradGradGradGradGradGradGradGradGradGradGradGrad
 Berny optimization.
 Search for a local minimum.
 Step number   1 out of a maximum of    2
 All quantities printed in internal units (Hartrees-Bohrs-Radians)
 Second derivative matrix not updated -- first step.
 ITU=  0
     Eigenvalues ---    0.14715   0.16152   0.17402   0.18707   0.21149
     Eigenvalues ---    0.23015   0.25384   0.26997   0.28408   0.29858
     Eigenvalues ---    0.30370   0.34630   0.34758   0.36180   0.39782
 Quadratic step=3.881D-01 exceeds max=3.000D-01 adjusted using Lamda=-4.769D-02.
 Angle between NR and scaled steps=   2.53 degrees.
 Angle between quadratic step and forces=  14.03 degrees.
 Linear search not attempted -- first point.
 B after Tr=     0.000000    0.000000   -0.000000
         Rot=    1.000000    0.000000   -0.000000   -0.000000 Ang=   0.00 deg.
 Variable       Old X    -DE/DX   Delta X   Delta X   Delta X     New X
                                 (Linear)    (Quad)   (Total)
    X1        4.53706  -0.00274   0.00000  -0.00942  -0.00942   4.52764
    Y1        3.78407  -0.00185   0.00000  -0.00452  -0.00452   3.77955
    Z1        0.00000  -0.02707   0.00000  -0.08112  -0.08112  -0.08112
    X2        5.03913  -0.00334   0.00000  -0.00403  -0.00403   5.03511
    Y2        0.00000  -0.02950   0.00000  -0.11822  -0.11822  -0.11822
    Z2        3.48695   0.00502   0.00000   0.01449   0.01449   3.50144
    X3        0.00000  -0.01621   0.00000  -0.10940  -0.10940  -0.10940
    Y3        2.23813  -0.00727   0.00000  -0.04548  -0.04548   2.19264
    Z3        2.68583   0.00235   0.00000   0.00396   0.00396   2.68979
    X4        2.01283  -0.01368   0.00000  -0.07252  -0.07252   1.94031
    Y4        7.39796   0.01874   0.00000   0.09771   0.09771   7.49567
    Z4        3.25324   0.00255   0.00000   0.00680   0.00680   3.26004
    X5        5.58011  -0.00167   0.00000   0.00467   0.00467   5.58478
    Y5        4.40303   0.00112   0.00000   0.00802   0.00802   4.41106
    Z5        6.17346   0.02517   0.00000   0.08451   0.08451   6.25797
    X6        7.50922   0.01466   0.00000   0.06783   0.06783   7.57704
    Y6        7.30808   0.02795   0.00000   0.10670   0.10670   7.41478
    Z6        2.34938  -0.00504   0.00000  -0.01651  -0.01651   2.33287
    X7        9.61016   0.02298   0.00000   0.12287   0.12287   9.73303
    Y7        2.46089  -0.00919   0.00000  -0.04421  -0.04421   2.41669
    Z7        2.48524  -0.00298   0.00000  -0.01213  -0.01213   2.47311
         Item               Value     Threshold  Converged?
 Maximum Force            0.029500     0.000450     NO 
 RMS     Force            0.015113     0.000300     NO 
 Maximum Displacement     0.122873     0.001800     NO 
 RMS     Displacement     0.065641     0.001200     NO 
 Predicted change in Energy=-1.226340D-02
 GradGradGradGradGradGradGradGradGradGradGradGradGradGradGradGradGradGrad

 Leave Link  103 at Mon Nov 13 20:05:59 2023, MaxMem=  1879048192 cpu:               0.3 elap:               0.0
 (Enter /home/sekinelabo/g16/l9999.exe)
 1\1\GINC-SEKINELABO-XA7R-R37\Force\UB3LYP\6-311+G(d)\Na7(2)\SEKINELABO
 \13-Nov-2023\0\\#P B3LYP/6-311+g(d) force\\Gaussian input prepared by 
 ASE\\0,2\Na,2.4009103055,2.0024436414,0.\Na,2.6665945592,0.,1.84521403
 93\Na,0.,1.1843665078,1.4212823229\Na,1.0651433103,3.914832543,1.72154
 03282\Na,2.9528692333,2.3299834138,3.2668533536\Na,3.9737058704,3.8672
 686268,1.2432368932\Na,5.0854761901,1.3022480488,1.3151327289\\Version
 =ES64L-G16RevB.01\State=2-A\HF=-1136.0759747\S2=0.757578\S2-1=0.\S2A=0
 .75004\RMSD=4.384e-09\RMSF=1.511e-02\Dipole=-0.081538,-0.01592,0.05969
 07\Quadrupole=5.9896496,-2.5853072,-3.4043424,-0.1367857,-0.7162488,-0
 .195481\PG=C01 [X(Na7)]\\@


 THE MOLECULE ALSO HAS A BODY.  WHEN THIS BODY IS HIT, THE MOLECULE
 FEELS HURT ALL OVER -- A. KITAIGORODSKI
 Job cpu time:       0 days  0 hours  4 minutes 16.4 seconds.
 Elapsed time:       0 days  0 hours  0 minutes 20.5 seconds.
 File lengths (MBytes):  RWF=     32 Int=      0 D2E=      0 Chk=      6 Scr=      1
 Normal termination of Gaussian 16 at Mon Nov 13 20:05:59 2023.
