 Entering Gaussian System, Link 0=g16
 Initial command:
 /home/sekinelabo/g16/l1.exe "/home/sekinelabo/g16temp/Gau-3992710.inp" -scrdir="/home/sekinelabo/g16temp/"
 Entering Link 1 = /home/sekinelabo/g16/l1.exe PID=   3992712.
  
 Copyright (c) 1988-2017, Gaussian, Inc.  All Rights Reserved.
  
 This is part of the Gaussian(R) 16 program.  It is based on
 the Gaussian(R) 09 system (copyright 2009, Gaussian, Inc.),
 the Gaussian(R) 03 system (copyright 2003, Gaussian, Inc.),
 the Gaussian(R) 98 system (copyright 1998, Gaussian, Inc.),
 the Gaussian(R) 94 system (copyright 1995, Gaussian, Inc.),
 the Gaussian 92(TM) system (copyright 1992, Gaussian, Inc.),
 the Gaussian 90(TM) system (copyright 1990, Gaussian, Inc.),
 the Gaussian 88(TM) system (copyright 1988, Gaussian, Inc.),
 the Gaussian 86(TM) system (copyright 1986, Carnegie Mellon
 University), and the Gaussian 82(TM) system (copyright 1983,
 Carnegie Mellon University). Gaussian is a federally registered
 trademark of Gaussian, Inc.
  
 This software contains proprietary and confidential information,
 including trade secrets, belonging to Gaussian, Inc.
  
 This software is provided under written license and may be
 used, copied, transmitted, or stored only in accord with that
 written license.
  
 The following legend is applicable only to US Government
 contracts under FAR:
  
                    RESTRICTED RIGHTS LEGEND
  
 Use, reproduction and disclosure by the US Government is
 subject to restrictions as set forth in subparagraphs (a)
 and (c) of the Commercial Computer Software - Restricted
 Rights clause in FAR 52.227-19.
  
 Gaussian, Inc.
 340 Quinnipiac St., Bldg. 40, Wallingford CT 06492
  
  
 ---------------------------------------------------------------
 Warning -- This program may not be used in any manner that
 competes with the business of Gaussian, Inc. or will provide
 assistance to any competitor of Gaussian, Inc.  The licensee
 of this program is prohibited from giving any competitor of
 Gaussian, Inc. access to this program.  By using this program,
 the user acknowledges that Gaussian, Inc. is engaged in the
 business of creating and licensing software in the field of
 computational chemistry and represents and warrants to the
 licensee that it is not a competitor of Gaussian, Inc. and that
 it will not use this program in any manner prohibited above.
 ---------------------------------------------------------------
  

 Cite this work as:
 Gaussian 16, Revision B.01,
 M. J. Frisch, G. W. Trucks, H. B. Schlegel, G. E. Scuseria, 
 M. A. Robb, J. R. Cheeseman, G. Scalmani, V. Barone, 
 G. A. Petersson, H. Nakatsuji, X. Li, M. Caricato, A. V. Marenich, 
 J. Bloino, B. G. Janesko, R. Gomperts, B. Mennucci, H. P. Hratchian, 
 J. V. Ortiz, A. F. Izmaylov, J. L. Sonnenberg, D. Williams-Young, 
 F. Ding, F. Lipparini, F. Egidi, J. Goings, B. Peng, A. Petrone, 
 T. Henderson, D. Ranasinghe, V. G. Zakrzewski, J. Gao, N. Rega, 
 G. Zheng, W. Liang, M. Hada, M. Ehara, K. Toyota, R. Fukuda, 
 J. Hasegawa, M. Ishida, T. Nakajima, Y. Honda, O. Kitao, H. Nakai, 
 T. Vreven, K. Throssell, J. A. Montgomery, Jr., J. E. Peralta, 
 F. Ogliaro, M. J. Bearpark, J. J. Heyd, E. N. Brothers, K. N. Kudin, 
 V. N. Staroverov, T. A. Keith, R. Kobayashi, J. Normand, 
 K. Raghavachari, A. P. Rendell, J. C. Burant, S. S. Iyengar, 
 J. Tomasi, M. Cossi, J. M. Millam, M. Klene, C. Adamo, R. Cammi, 
 J. W. Ochterski, R. L. Martin, K. Morokuma, O. Farkas, 
 J. B. Foresman, and D. J. Fox, Gaussian, Inc., Wallingford CT, 2016.
 
 ******************************************
 Gaussian 16:  ES64L-G16RevB.01 20-Dec-2017
                13-Nov-2023 
 ******************************************
 %mem=14GB
 %chk=checkpoint.chk
 %nprocshared=16
 Will use up to   16 processors via shared memory.
 -------------------------
 #P B3LYP/6-311+g(d) force
 -------------------------
 1/10=7,30=1,38=1/1,3;
 2/12=2,17=6,18=5,40=1/2;
 3/5=4,6=6,7=11,11=2,25=1,30=1,71=1,74=-5/1,2,3;
 4//1;
 5/5=2,38=5/2;
 6/7=2,8=2,9=2,10=2,28=1/1;
 7/29=1/1,2,3,16;
 1/10=7,30=1/3;
 99//99;
 Leave Link    1 at Mon Nov 13 14:48:49 2023, MaxMem=  1879048192 cpu:               0.3 elap:               0.0
 (Enter /home/sekinelabo/g16/l101.exe)
 ------------------------------
 Gaussian input prepared by ASE
 ------------------------------
 Symbolic Z-matrix:
 Charge =  0 Multiplicity = 2
 Na                    7.0296    0.        0.23647 
 Na                    9.97569   0.46988   0.55264 
 Na                    9.97824   3.47191   0.6296 
 Na                    7.2182    4.54901   0.15202 
 Na                    5.17731   2.35156   0.0253 
 Na                    2.56587   2.31158   1.49499 
 Na                    0.        1.91124   0. 
 
 ITRead=  0  0  0  0  0  0  0
 MicOpt= -1 -1 -1 -1 -1 -1 -1
 NAtoms=      7 NQM=        7 NQMF=       0 NMMI=      0 NMMIF=      0
                NMic=       0 NMicF=      0.
                    Isotopes and Nuclear Properties:
 (Nuclear quadrupole moments (NQMom) in fm**2, nuclear magnetic moments (NMagM)
  in nuclear magnetons)

  Atom         1           2           3           4           5           6           7
 IAtWgt=          23          23          23          23          23          23          23
 AtmWgt=  22.9897697  22.9897697  22.9897697  22.9897697  22.9897697  22.9897697  22.9897697
 NucSpn=           3           3           3           3           3           3           3
 AtZEff=  -0.0000000  -0.0000000  -0.0000000  -0.0000000  -0.0000000  -0.0000000  -0.0000000
 NQMom=   10.4000000  10.4000000  10.4000000  10.4000000  10.4000000  10.4000000  10.4000000
 NMagM=    2.2175200   2.2175200   2.2175200   2.2175200   2.2175200   2.2175200   2.2175200
 AtZNuc=  11.0000000  11.0000000  11.0000000  11.0000000  11.0000000  11.0000000  11.0000000
 Leave Link  101 at Mon Nov 13 14:48:49 2023, MaxMem=  1879048192 cpu:               2.6 elap:               0.2
 (Enter /home/sekinelabo/g16/l103.exe)

 GradGradGradGradGradGradGradGradGradGradGradGradGradGradGradGradGradGrad
 Berny optimization.
 Initialization pass.
 Trust Radius=3.00D-01 FncErr=1.00D-07 GrdErr=1.00D-07 EigMax=2.50D+02 EigMin=1.00D-04
 Number of steps in this run=      2 maximum allowed number of steps=      2.
 GradGradGradGradGradGradGradGradGradGradGradGradGradGradGradGradGradGrad

 Leave Link  103 at Mon Nov 13 14:48:49 2023, MaxMem=  1879048192 cpu:               0.2 elap:               0.0
 (Enter /home/sekinelabo/g16/l202.exe)
                          Input orientation:                          
 ---------------------------------------------------------------------
 Center     Atomic      Atomic             Coordinates (Angstroms)
 Number     Number       Type             X           Y           Z
 ---------------------------------------------------------------------
      1         11           0        7.029601    0.000000    0.236470
      2         11           0        9.975689    0.469880    0.552643
      3         11           0        9.978235    3.471906    0.629597
      4         11           0        7.218196    4.549014    0.152018
      5         11           0        5.177306    2.351562    0.025302
      6         11           0        2.565871    2.311580    1.494991
      7         11           0        0.000000    1.911242    0.000000
 ---------------------------------------------------------------------
                    Distance matrix (angstroms):
                    1          2          3          4          5
     1  Na   0.000000
     2  Na   3.000031   0.000000
     3  Na   4.571994   3.003014   0.000000
     4  Na   4.553705   4.940001   3.001010   0.000000
     5  Na   3.000905   5.181052   4.966817   3.001680   0.000000
     6  Na   5.181908   7.693198   7.552378   5.334212   2.996861
     7  Na   7.288625  10.094420  10.119152   7.686566   5.196058
                    6          7
     6  Na   0.000000
     7  Na   2.996492   0.000000
 Stoichiometry    Na7(2)
 Framework group  C1[X(Na7)]
 Deg. of freedom    15
 Full point group                 C1      NOp   1
 Largest Abelian subgroup         C1      NOp   1
 Largest concise Abelian subgroup C1      NOp   1
                         Standard orientation:                         
 ---------------------------------------------------------------------
 Center     Atomic      Atomic             Coordinates (Angstroms)
 Number     Number       Type             X           Y           Z
 ---------------------------------------------------------------------
      1         11           0        1.037473   -2.152169   -0.205104
      2         11           0        3.983561   -1.682290    0.111068
      3         11           0        3.986107    1.319737    0.188022
      4         11           0        1.226067    2.396845   -0.289557
      5         11           0       -0.814822    0.199393   -0.416272
      6         11           0       -3.426257    0.159411    1.053417
      7         11           0       -5.992128   -0.240927   -0.441574
 ---------------------------------------------------------------------
 Rotational constants (GHZ):           1.3145019           0.2607754           0.2249616
 Leave Link  202 at Mon Nov 13 14:48:49 2023, MaxMem=  1879048192 cpu:               0.1 elap:               0.0
 (Enter /home/sekinelabo/g16/l301.exe)
 Standard basis: 6-311+G(d) (5D, 7F)
 Ernie: Thresh=  0.10000D-02 Tol=  0.10000D-05 Strict=F.
 There are   217 symmetry adapted cartesian basis functions of A   symmetry.
 There are   210 symmetry adapted basis functions of A   symmetry.
   210 basis functions,   350 primitive gaussians,   217 cartesian basis functions
    39 alpha electrons       38 beta electrons
       nuclear repulsion energy       298.9527404006 Hartrees.
 IExCor=  402 DFT=T Ex+Corr=B3LYP ExCW=0 ScaHFX=  0.200000
 ScaDFX=  0.800000  0.720000  1.000000  0.810000 ScalE2=  1.000000  1.000000
 IRadAn=      5 IRanWt=     -1 IRanGd=            0 ICorTp=0 IEmpDi=  4
 NAtoms=    7 NActive=    7 NUniq=    7 SFac= 1.00D+00 NAtFMM=   60 NAOKFM=F Big=F
 Integral buffers will be    131072 words long.
 Raffenetti 2 integral format.
 Two-electron integral symmetry is turned on.
 Leave Link  301 at Mon Nov 13 14:48:49 2023, MaxMem=  1879048192 cpu:               0.5 elap:               0.0
 (Enter /home/sekinelabo/g16/l302.exe)
 NPDir=0 NMtPBC=     1 NCelOv=     1 NCel=       1 NClECP=     1 NCelD=      1
         NCelK=      1 NCelE2=     1 NClLst=     1 CellRange=     0.0.
 One-electron integrals computed using PRISM.
 One-electron integral symmetry used in STVInt
 NBasis=   210 RedAO= T EigKep=  2.46D-06  NBF=   210
 NBsUse=   210 1.00D-06 EigRej= -1.00D+00 NBFU=   210
 Precomputing XC quadrature grid using
 IXCGrd= 4 IRadAn=           5 IRanWt=          -1 IRanGd=           0 AccXCQ= 0.00D+00.
 Generated NRdTot=       0 NPtTot=           0 NUsed=           0 NTot=          32
 NSgBfM=   206   206   206   206   206 MxSgAt=     7 MxSgA2=     7.
 Leave Link  302 at Mon Nov 13 14:48:49 2023, MaxMem=  1879048192 cpu:               2.1 elap:               0.1
 (Enter /home/sekinelabo/g16/l303.exe)
 DipDrv:  MaxL=1.
 Leave Link  303 at Mon Nov 13 14:48:50 2023, MaxMem=  1879048192 cpu:               0.6 elap:               0.0
 (Enter /home/sekinelabo/g16/l401.exe)
 ExpMin= 7.60D-03 ExpMax= 3.62D+04 ExpMxC= 1.21D+03 IAcc=3 IRadAn=         5 AccDes= 0.00D+00
 Harris functional with IExCor=  402 and IRadAn=       5 diagonalized for initial guess.
 HarFok:  IExCor=  402 AccDes= 0.00D+00 IRadAn=         5 IDoV= 1 UseB2=F ITyADJ=14
 ICtDFT=  3500011 ScaDFX=  1.000000  1.000000  1.000000  1.000000
 FoFCou: FMM=F IPFlag=           0 FMFlag=      100000 FMFlg1=           0
         NFxFlg=           0 DoJE=T BraDBF=F KetDBF=T FulRan=T
         wScrn=  0.000000 ICntrl=       500 IOpCl=  0 I1Cent=   200000004 NGrid=           0
         NMat0=    1 NMatS0=      1 NMatT0=    0 NMatD0=    1 NMtDS0=    0 NMtDT0=    0
 Petite list used in FoFCou.
 Harris En= -1135.86924815041    
 JPrj=0 DoOrth=F DoCkMO=F.
 Initial guess <Sx>= 0.0000 <Sy>= 0.0000 <Sz>= 0.5000 <S**2>= 0.7500 S= 0.5000
 Leave Link  401 at Mon Nov 13 14:48:50 2023, MaxMem=  1879048192 cpu:               4.6 elap:               0.3
 (Enter /home/sekinelabo/g16/l502.exe)
 Keep R1 and R2 ints in memory in canonical form, NReq=507620346.
 FoFCou: FMM=F IPFlag=           0 FMFlag=           0 FMFlg1=           0
         NFxFlg=           0 DoJE=F BraDBF=F KetDBF=F FulRan=T
         wScrn=  0.000000 ICntrl=       600 IOpCl=  0 I1Cent=           0 NGrid=           0
         NMat0=    1 NMatS0=  22155 NMatT0=    0 NMatD0=    1 NMtDS0=    0 NMtDT0=    0
 Symmetry not used in FoFCou.
 Two-electron integral symmetry not used.
 UHF open shell SCF:
 Using DIIS extrapolation, IDIIS=  1040.
 NGot=  1879048192 LenX=  1388082390 LenY=  1388034860
 Requested convergence on RMS density matrix=1.00D-08 within 128 cycles.
 Requested convergence on MAX density matrix=1.00D-06.
 Requested convergence on             energy=1.00D-06.
 No special actions if energy rises.

 Cycle   1  Pass 1  IDiag  1:
 E= -1136.07054599221    
 DIIS: error= 9.52D-03 at cycle   1 NSaved=   1.
 NSaved= 1 IEnMin= 1 EnMin= -1136.07054599221     IErMin= 1 ErrMin= 9.52D-03
 ErrMax= 9.52D-03  0.00D+00 EMaxC= 1.00D-01 BMatC= 1.86D-01 BMatP= 1.86D-01
 IDIUse=3 WtCom= 9.05D-01 WtEn= 9.52D-02
 Coeff-Com:  0.100D+01
 Coeff-En:   0.100D+01
 Coeff:      0.100D+01
 Gap=     0.052 Goal=   None    Shift=    0.000
 Gap=     0.013 Goal=   None    Shift=    0.000
 GapD=    0.013 DampG=0.250 DampE=1.000 DampFc=0.2500 IDamp=-1.
 Damping current iteration by 2.50D-01
 RMSDP=3.09D-02 MaxDP=2.77D+00              OVMax= 4.32D-01

 Cycle   2  Pass 1  IDiag  1:
 E= -1136.07978372313     Delta-E=       -0.009237730927 Rises=F Damp=T
 DIIS: error= 6.78D-03 at cycle   2 NSaved=   2.
 NSaved= 2 IEnMin= 2 EnMin= -1136.07978372313     IErMin= 2 ErrMin= 6.78D-03
 ErrMax= 6.78D-03  0.00D+00 EMaxC= 1.00D-01 BMatC= 7.12D-02 BMatP= 1.86D-01
 IDIUse=3 WtCom= 9.32D-01 WtEn= 6.78D-02
 Coeff-Com: -0.125D+01 0.225D+01
 Coeff-En:   0.000D+00 0.100D+01
 Coeff:     -0.117D+01 0.217D+01
 Gap=     0.074 Goal=   None    Shift=    0.000
 Gap=     0.020 Goal=   None    Shift=    0.000
 RMSDP=1.24D-02 MaxDP=1.59D+00 DE=-9.24D-03 OVMax= 5.65D-01

 Cycle   3  Pass 1  IDiag  1:
 E= -1136.08274050041     Delta-E=       -0.002956777279 Rises=F Damp=F
 DIIS: error= 7.03D-03 at cycle   3 NSaved=   3.
 NSaved= 3 IEnMin= 3 EnMin= -1136.08274050041     IErMin= 2 ErrMin= 6.78D-03
 ErrMax= 7.03D-03  0.00D+00 EMaxC= 1.00D-01 BMatC= 9.90D-03 BMatP= 7.12D-02
 IDIUse=3 WtCom= 9.30D-01 WtEn= 7.03D-02
 Coeff-Com: -0.502D+00 0.866D+00 0.636D+00
 Coeff-En:   0.000D+00 0.370D+00 0.630D+00
 Coeff:     -0.467D+00 0.831D+00 0.635D+00
 Gap=     0.069 Goal=   None    Shift=    0.000
 Gap=     0.017 Goal=   None    Shift=    0.000
 RMSDP=1.08D-02 MaxDP=8.23D-01 DE=-2.96D-03 OVMax= 4.41D-01

 Cycle   4  Pass 1  IDiag  1:
 E= -1136.07936817055     Delta-E=        0.003372329864 Rises=F Damp=F
 DIIS: error= 5.17D-03 at cycle   4 NSaved=   4.
 NSaved= 4 IEnMin= 3 EnMin= -1136.08274050041     IErMin= 4 ErrMin= 5.17D-03
 ErrMax= 5.17D-03  0.00D+00 EMaxC= 1.00D-01 BMatC= 1.23D-02 BMatP= 9.90D-03
 IDIUse=3 WtCom= 1.22D-01 WtEn= 8.78D-01
 Coeff-Com: -0.583D-01 0.100D+00 0.516D+00 0.442D+00
 Coeff-En:   0.000D+00 0.000D+00 0.534D+00 0.466D+00
 Coeff:     -0.711D-02 0.122D-01 0.532D+00 0.463D+00
 Gap=     0.056 Goal=   None    Shift=    0.000
 Gap=     0.021 Goal=   None    Shift=    0.000
 RMSDP=4.65D-03 MaxDP=2.63D-01 DE= 3.37D-03 OVMax= 2.63D-01

 Cycle   5  Pass 1  IDiag  1:
 E= -1136.09882125590     Delta-E=       -0.019453085346 Rises=F Damp=F
 DIIS: error= 8.48D-04 at cycle   5 NSaved=   5.
 NSaved= 5 IEnMin= 5 EnMin= -1136.09882125590     IErMin= 5 ErrMin= 8.48D-04
 ErrMax= 8.48D-04  0.00D+00 EMaxC= 1.00D-01 BMatC= 4.16D-04 BMatP= 9.90D-03
 IDIUse=3 WtCom= 9.92D-01 WtEn= 8.48D-03
 Coeff-Com: -0.844D-02 0.134D-01 0.204D+00 0.155D+00 0.636D+00
 Coeff-En:   0.000D+00 0.000D+00 0.000D+00 0.000D+00 0.100D+01
 Coeff:     -0.837D-02 0.133D-01 0.202D+00 0.154D+00 0.639D+00
 Gap=     0.054 Goal=   None    Shift=    0.000
 Gap=     0.023 Goal=   None    Shift=    0.000
 RMSDP=1.85D-03 MaxDP=1.96D-01 DE=-1.95D-02 OVMax= 3.08D-02

 Cycle   6  Pass 1  IDiag  1:
 E= -1136.09906317862     Delta-E=       -0.000241922721 Rises=F Damp=F
 DIIS: error= 8.09D-04 at cycle   6 NSaved=   6.
 NSaved= 6 IEnMin= 6 EnMin= -1136.09906317862     IErMin= 6 ErrMin= 8.09D-04
 ErrMax= 8.09D-04  0.00D+00 EMaxC= 1.00D-01 BMatC= 2.38D-04 BMatP= 4.16D-04
 IDIUse=3 WtCom= 9.92D-01 WtEn= 8.09D-03
 Coeff-Com: -0.384D-02 0.455D-02-0.177D-02-0.436D-01 0.423D+00 0.621D+00
 Coeff-En:   0.000D+00 0.000D+00 0.000D+00 0.000D+00 0.341D+00 0.659D+00
 Coeff:     -0.380D-02 0.452D-02-0.176D-02-0.433D-01 0.423D+00 0.622D+00
 Gap=     0.054 Goal=   None    Shift=    0.000
 Gap=     0.025 Goal=   None    Shift=    0.000
 RMSDP=1.03D-03 MaxDP=9.54D-02 DE=-2.42D-04 OVMax= 2.14D-02

 Cycle   7  Pass 1  IDiag  1:
 E= -1136.09940125193     Delta-E=       -0.000338073319 Rises=F Damp=F
 DIIS: error= 1.36D-04 at cycle   7 NSaved=   7.
 NSaved= 7 IEnMin= 7 EnMin= -1136.09940125193     IErMin= 7 ErrMin= 1.36D-04
 ErrMax= 1.36D-04  0.00D+00 EMaxC= 1.00D-01 BMatC= 9.57D-06 BMatP= 2.38D-04
 IDIUse=3 WtCom= 9.99D-01 WtEn= 1.36D-03
 Coeff-Com: -0.119D-02 0.150D-02-0.833D-02-0.240D-01 0.175D-01 0.131D+00
 Coeff-Com:  0.884D+00
 Coeff-En:   0.000D+00 0.000D+00 0.000D+00 0.000D+00 0.000D+00 0.000D+00
 Coeff-En:   0.100D+01
 Coeff:     -0.119D-02 0.149D-02-0.832D-02-0.239D-01 0.175D-01 0.131D+00
 Coeff:      0.884D+00
 Gap=     0.054 Goal=   None    Shift=    0.000
 Gap=     0.026 Goal=   None    Shift=    0.000
 RMSDP=6.34D-04 MaxDP=6.21D-02 DE=-3.38D-04 OVMax= 1.38D-02

 Cycle   8  Pass 1  IDiag  1:
 E= -1136.09943514629     Delta-E=       -0.000033894356 Rises=F Damp=F
 DIIS: error= 7.27D-05 at cycle   8 NSaved=   8.
 NSaved= 8 IEnMin= 8 EnMin= -1136.09943514629     IErMin= 8 ErrMin= 7.27D-05
 ErrMax= 7.27D-05  0.00D+00 EMaxC= 1.00D-01 BMatC= 3.11D-06 BMatP= 9.57D-06
 IDIUse=1 WtCom= 1.00D+00 WtEn= 0.00D+00
 Coeff-Com:  0.131D-02-0.161D-02-0.202D-02-0.544D-02-0.696D-01-0.686D-01
 Coeff-Com:  0.189D+00 0.957D+00
 Coeff:      0.131D-02-0.161D-02-0.202D-02-0.544D-02-0.696D-01-0.686D-01
 Coeff:      0.189D+00 0.957D+00
 Gap=     0.054 Goal=   None    Shift=    0.000
 Gap=     0.026 Goal=   None    Shift=    0.000
 RMSDP=4.89D-04 MaxDP=4.74D-02 DE=-3.39D-05 OVMax= 1.18D-02

 Cycle   9  Pass 1  IDiag  1:
 E= -1136.09945138088     Delta-E=       -0.000016234592 Rises=F Damp=F
 DIIS: error= 4.78D-05 at cycle   9 NSaved=   9.
 NSaved= 9 IEnMin= 9 EnMin= -1136.09945138088     IErMin= 9 ErrMin= 4.78D-05
 ErrMax= 4.78D-05  0.00D+00 EMaxC= 1.00D-01 BMatC= 1.04D-06 BMatP= 3.11D-06
 IDIUse=1 WtCom= 1.00D+00 WtEn= 0.00D+00
 Coeff-Com:  0.133D-02-0.172D-02 0.299D-02 0.336D-02-0.390D-01-0.668D-01
 Coeff-Com: -0.174D+00 0.311D+00 0.963D+00
 Coeff:      0.133D-02-0.172D-02 0.299D-02 0.336D-02-0.390D-01-0.668D-01
 Coeff:     -0.174D+00 0.311D+00 0.963D+00
 Gap=     0.054 Goal=   None    Shift=    0.000
 Gap=     0.026 Goal=   None    Shift=    0.000
 RMSDP=3.89D-04 MaxDP=3.87D-02 DE=-1.62D-05 OVMax= 1.05D-02

 Cycle  10  Pass 1  IDiag  1:
 E= -1136.09945966806     Delta-E=       -0.000008287180 Rises=F Damp=F
 DIIS: error= 3.71D-05 at cycle  10 NSaved=  10.
 NSaved=10 IEnMin=10 EnMin= -1136.09945966806     IErMin=10 ErrMin= 3.71D-05
 ErrMax= 3.71D-05  0.00D+00 EMaxC= 1.00D-01 BMatC= 4.31D-07 BMatP= 1.04D-06
 IDIUse=1 WtCom= 1.00D+00 WtEn= 0.00D+00
 Coeff-Com:  0.133D-04-0.192D-04 0.268D-02-0.668D-03 0.138D-01 0.138D-01
 Coeff-Com: -0.569D-01-0.113D+00-0.629D-02 0.115D+01
 Coeff:      0.133D-04-0.192D-04 0.268D-02-0.668D-03 0.138D-01 0.138D-01
 Coeff:     -0.569D-01-0.113D+00-0.629D-02 0.115D+01
 Gap=     0.054 Goal=   None    Shift=    0.000
 Gap=     0.026 Goal=   None    Shift=    0.000
 RMSDP=2.37D-04 MaxDP=2.66D-02 DE=-8.29D-06 OVMax= 8.24D-03

 Cycle  11  Pass 1  IDiag  1:
 E= -1136.09946412274     Delta-E=       -0.000004454675 Rises=F Damp=F
 DIIS: error= 3.62D-05 at cycle  11 NSaved=  11.
 NSaved=11 IEnMin=11 EnMin= -1136.09946412274     IErMin=11 ErrMin= 3.62D-05
 ErrMax= 3.62D-05  0.00D+00 EMaxC= 1.00D-01 BMatC= 3.96D-07 BMatP= 4.31D-07
 IDIUse=1 WtCom= 1.00D+00 WtEn= 0.00D+00
 Coeff-Com: -0.489D-03 0.634D-03 0.127D-02-0.431D-02 0.318D-01 0.518D-01
 Coeff-Com:  0.686D-01-0.239D+00-0.608D+00 0.757D+00 0.941D+00
 Coeff:     -0.489D-03 0.634D-03 0.127D-02-0.431D-02 0.318D-01 0.518D-01
 Coeff:      0.686D-01-0.239D+00-0.608D+00 0.757D+00 0.941D+00
 Gap=     0.054 Goal=   None    Shift=    0.000
 Gap=     0.026 Goal=   None    Shift=    0.000
 RMSDP=2.39D-04 MaxDP=2.59D-02 DE=-4.45D-06 OVMax= 8.56D-03

 Cycle  12  Pass 1  IDiag  1:
 E= -1136.09946809367     Delta-E=       -0.000003970936 Rises=F Damp=F
 DIIS: error= 2.35D-05 at cycle  12 NSaved=  12.
 NSaved=12 IEnMin=12 EnMin= -1136.09946809367     IErMin=12 ErrMin= 2.35D-05
 ErrMax= 2.35D-05  0.00D+00 EMaxC= 1.00D-01 BMatC= 1.98D-07 BMatP= 3.96D-07
 IDIUse=1 WtCom= 1.00D+00 WtEn= 0.00D+00
 Coeff-Com:  0.413D-03-0.563D-03 0.172D-03-0.269D-02-0.650D-02 0.491D-02
 Coeff-Com:  0.721D-01 0.137D-01-0.169D+00-0.601D+00 0.103D+00 0.159D+01
 Coeff:      0.413D-03-0.563D-03 0.172D-03-0.269D-02-0.650D-02 0.491D-02
 Coeff:      0.721D-01 0.137D-01-0.169D+00-0.601D+00 0.103D+00 0.159D+01
 Gap=     0.054 Goal=   None    Shift=    0.000
 Gap=     0.026 Goal=   None    Shift=    0.000
 RMSDP=3.06D-04 MaxDP=3.18D-02 DE=-3.97D-06 OVMax= 1.23D-02

 Cycle  13  Pass 1  IDiag  1:
 E= -1136.09947172822     Delta-E=       -0.000003634545 Rises=F Damp=F
 DIIS: error= 1.33D-05 at cycle  13 NSaved=  13.
 NSaved=13 IEnMin=13 EnMin= -1136.09947172822     IErMin=13 ErrMin= 1.33D-05
 ErrMax= 1.33D-05  0.00D+00 EMaxC= 1.00D-01 BMatC= 6.25D-08 BMatP= 1.98D-07
 IDIUse=1 WtCom= 1.00D+00 WtEn= 0.00D+00
 Coeff-Com:  0.446D-03-0.584D-03 0.241D-04 0.747D-03-0.176D-01-0.224D-01
 Coeff-Com: -0.270D-01 0.123D+00 0.257D+00-0.305D+00-0.571D+00 0.190D+00
 Coeff-Com:  0.137D+01
 Coeff:      0.446D-03-0.584D-03 0.241D-04 0.747D-03-0.176D-01-0.224D-01
 Coeff:     -0.270D-01 0.123D+00 0.257D+00-0.305D+00-0.571D+00 0.190D+00
 Coeff:      0.137D+01
 Gap=     0.054 Goal=   None    Shift=    0.000
 Gap=     0.026 Goal=   None    Shift=    0.000
 RMSDP=1.74D-04 MaxDP=1.68D-02 DE=-3.63D-06 OVMax= 8.42D-03

 Cycle  14  Pass 1  IDiag  1:
 E= -1136.09947305219     Delta-E=       -0.000001323976 Rises=F Damp=F
 DIIS: error= 6.87D-06 at cycle  14 NSaved=  14.
 NSaved=14 IEnMin=14 EnMin= -1136.09947305219     IErMin=14 ErrMin= 6.87D-06
 ErrMax= 6.87D-06  0.00D+00 EMaxC= 1.00D-01 BMatC= 2.06D-08 BMatP= 6.25D-08
 IDIUse=1 WtCom= 1.00D+00 WtEn= 0.00D+00
 Coeff-Com:  0.116D-03-0.147D-03 0.327D-03 0.108D-02-0.571D-02-0.118D-01
 Coeff-Com: -0.372D-01 0.601D-01 0.165D+00 0.805D-01-0.291D+00-0.469D+00
 Coeff-Com:  0.449D+00 0.106D+01
 Coeff:      0.116D-03-0.147D-03 0.327D-03 0.108D-02-0.571D-02-0.118D-01
 Coeff:     -0.372D-01 0.601D-01 0.165D+00 0.805D-01-0.291D+00-0.469D+00
 Coeff:      0.449D+00 0.106D+01
 Gap=     0.054 Goal=   None    Shift=    0.000
 Gap=     0.026 Goal=   None    Shift=    0.000
 RMSDP=8.75D-05 MaxDP=7.47D-03 DE=-1.32D-06 OVMax= 4.87D-03

 Cycle  15  Pass 1  IDiag  1:
 E= -1136.09947343467     Delta-E=       -0.000000382474 Rises=F Damp=F
 DIIS: error= 4.05D-06 at cycle  15 NSaved=  15.
 NSaved=15 IEnMin=15 EnMin= -1136.09947343467     IErMin=15 ErrMin= 4.05D-06
 ErrMax= 4.05D-06  0.00D+00 EMaxC= 1.00D-01 BMatC= 5.62D-09 BMatP= 2.06D-08
 IDIUse=1 WtCom= 1.00D+00 WtEn= 0.00D+00
 Coeff-Com: -0.102D-03 0.134D-03 0.411D-03-0.119D-03 0.497D-02 0.529D-02
 Coeff-Com:  0.383D-02-0.256D-01-0.661D-01 0.147D+00 0.126D+00-0.215D+00
 Coeff-Com: -0.364D+00 0.217D+00 0.117D+01
 Coeff:     -0.102D-03 0.134D-03 0.411D-03-0.119D-03 0.497D-02 0.529D-02
 Coeff:      0.383D-02-0.256D-01-0.661D-01 0.147D+00 0.126D+00-0.215D+00
 Coeff:     -0.364D+00 0.217D+00 0.117D+01
 Gap=     0.054 Goal=   None    Shift=    0.000
 Gap=     0.026 Goal=   None    Shift=    0.000
 RMSDP=4.47D-05 MaxDP=3.82D-03 DE=-3.82D-07 OVMax= 2.77D-03

 Cycle  16  Pass 1  IDiag  1:
 E= -1136.09947352848     Delta-E=       -0.000000093813 Rises=F Damp=F
 DIIS: error= 1.96D-06 at cycle  16 NSaved=  16.
 NSaved=16 IEnMin=16 EnMin= -1136.09947352848     IErMin=16 ErrMin= 1.96D-06
 ErrMax= 1.96D-06  0.00D+00 EMaxC= 1.00D-01 BMatC= 9.83D-10 BMatP= 5.62D-09
 IDIUse=1 WtCom= 1.00D+00 WtEn= 0.00D+00
 Coeff-Com:  0.375D-04-0.505D-04 0.365D-04-0.158D-03-0.451D-03 0.335D-03
 Coeff-Com:  0.433D-02-0.526D-02-0.373D-03-0.338D-01-0.802D-02 0.106D+00
 Coeff-Com:  0.338D-01-0.238D+00-0.169D+00 0.131D+01
 Coeff:      0.375D-04-0.505D-04 0.365D-04-0.158D-03-0.451D-03 0.335D-03
 Coeff:      0.433D-02-0.526D-02-0.373D-03-0.338D-01-0.802D-02 0.106D+00
 Coeff:      0.338D-01-0.238D+00-0.169D+00 0.131D+01
 Gap=     0.054 Goal=   None    Shift=    0.000
 Gap=     0.026 Goal=   None    Shift=    0.000
 RMSDP=7.95D-06 MaxDP=4.47D-04 DE=-9.38D-08 OVMax= 6.62D-04

 Cycle  17  Pass 1  IDiag  1:
 E= -1136.09947353876     Delta-E=       -0.000000010275 Rises=F Damp=F
 DIIS: error= 9.32D-07 at cycle  17 NSaved=  17.
 NSaved=17 IEnMin=17 EnMin= -1136.09947353876     IErMin=17 ErrMin= 9.32D-07
 ErrMax= 9.32D-07  0.00D+00 EMaxC= 1.00D-01 BMatC= 2.15D-10 BMatP= 9.83D-10
 IDIUse=1 WtCom= 1.00D+00 WtEn= 0.00D+00
 Coeff-Com:  0.231D-04-0.300D-04-0.475D-04 0.243D-05-0.132D-02-0.137D-02
 Coeff-Com: -0.458D-03 0.629D-02 0.128D-01-0.331D-01-0.191D-01 0.408D-01
 Coeff-Com:  0.756D-01-0.300D-01-0.290D+00-0.114D-01 0.125D+01
 Coeff:      0.231D-04-0.300D-04-0.475D-04 0.243D-05-0.132D-02-0.137D-02
 Coeff:     -0.458D-03 0.629D-02 0.128D-01-0.331D-01-0.191D-01 0.408D-01
 Coeff:      0.756D-01-0.300D-01-0.290D+00-0.114D-01 0.125D+01
 Gap=     0.054 Goal=   None    Shift=    0.000
 Gap=     0.026 Goal=   None    Shift=    0.000
 RMSDP=2.70D-06 MaxDP=2.00D-04 DE=-1.03D-08 OVMax= 2.26D-04

 Cycle  18  Pass 1  IDiag  1:
 E= -1136.09947354110     Delta-E=       -0.000000002342 Rises=F Damp=F
 DIIS: error= 4.51D-07 at cycle  18 NSaved=  18.
 NSaved=18 IEnMin=18 EnMin= -1136.09947354110     IErMin=18 ErrMin= 4.51D-07
 ErrMax= 4.51D-07  0.00D+00 EMaxC= 1.00D-01 BMatC= 4.23D-11 BMatP= 2.15D-10
 IDIUse=1 WtCom= 1.00D+00 WtEn= 0.00D+00
 Coeff-Com: -0.475D-05 0.619D-05-0.697D-05 0.309D-04-0.565D-04-0.133D-03
 Coeff-Com: -0.646D-03 0.141D-02 0.419D-03 0.405D-02 0.173D-02-0.202D-01
 Coeff-Com: -0.347D-03 0.343D-01 0.388D-01-0.272D+00-0.636D-03 0.121D+01
 Coeff:     -0.475D-05 0.619D-05-0.697D-05 0.309D-04-0.565D-04-0.133D-03
 Coeff:     -0.646D-03 0.141D-02 0.419D-03 0.405D-02 0.173D-02-0.202D-01
 Coeff:     -0.347D-03 0.343D-01 0.388D-01-0.272D+00-0.636D-03 0.121D+01
 Gap=     0.054 Goal=   None    Shift=    0.000
 Gap=     0.026 Goal=   None    Shift=    0.000
 RMSDP=1.23D-06 MaxDP=5.10D-05 DE=-2.34D-09 OVMax= 1.16D-04

 Cycle  19  Pass 1  IDiag  1:
 E= -1136.09947354162     Delta-E=       -0.000000000520 Rises=F Damp=F
 DIIS: error= 2.09D-07 at cycle  19 NSaved=  19.
 NSaved=19 IEnMin=19 EnMin= -1136.09947354162     IErMin=19 ErrMin= 2.09D-07
 ErrMax= 2.09D-07  0.00D+00 EMaxC= 1.00D-01 BMatC= 1.17D-11 BMatP= 4.23D-11
 IDIUse=1 WtCom= 1.00D+00 WtEn= 0.00D+00
 Coeff-Com: -0.114D-05 0.129D-05 0.127D-04 0.144D-05 0.156D-03 0.148D-03
 Coeff-Com:  0.369D-03-0.772D-03-0.171D-02 0.413D-02 0.867D-03-0.338D-02
 Coeff-Com: -0.146D-01 0.108D-01 0.632D-01-0.627D-02-0.355D+00 0.201D+00
 Coeff-Com:  0.110D+01
 Coeff:     -0.114D-05 0.129D-05 0.127D-04 0.144D-05 0.156D-03 0.148D-03
 Coeff:      0.369D-03-0.772D-03-0.171D-02 0.413D-02 0.867D-03-0.338D-02
 Coeff:     -0.146D-01 0.108D-01 0.632D-01-0.627D-02-0.355D+00 0.201D+00
 Coeff:      0.110D+01
 Gap=     0.054 Goal=   None    Shift=    0.000
 Gap=     0.026 Goal=   None    Shift=    0.000
 RMSDP=9.96D-07 MaxDP=6.13D-05 DE=-5.20D-10 OVMax= 3.41D-05

 Cycle  20  Pass 1  IDiag  1:
 E= -1136.09947354173     Delta-E=       -0.000000000109 Rises=F Damp=F
 DIIS: error= 8.92D-08 at cycle  20 NSaved=  20.
 NSaved=20 IEnMin=20 EnMin= -1136.09947354173     IErMin=20 ErrMin= 8.92D-08
 ErrMax= 8.92D-08  0.00D+00 EMaxC= 1.00D-01 BMatC= 1.95D-12 BMatP= 1.17D-11
 IDIUse=1 WtCom= 1.00D+00 WtEn= 0.00D+00
 Coeff-Com:  0.562D-06-0.730D-06 0.340D-05-0.343D-05 0.174D-04 0.123D-04
 Coeff-Com:  0.310D-04-0.267D-03 0.175D-03-0.373D-03 0.443D-03 0.114D-02
 Coeff-Com:  0.667D-03-0.606D-02-0.960D-02 0.465D-01 0.181D-02-0.235D+00
 Coeff-Com: -0.410D-01 0.124D+01
 Coeff:      0.562D-06-0.730D-06 0.340D-05-0.343D-05 0.174D-04 0.123D-04
 Coeff:      0.310D-04-0.267D-03 0.175D-03-0.373D-03 0.443D-03 0.114D-02
 Coeff:      0.667D-03-0.606D-02-0.960D-02 0.465D-01 0.181D-02-0.235D+00
 Coeff:     -0.410D-01 0.124D+01
 Gap=     0.054 Goal=   None    Shift=    0.000
 Gap=     0.026 Goal=   None    Shift=    0.000
 RMSDP=3.16D-07 MaxDP=1.48D-05 DE=-1.09D-10 OVMax= 2.56D-05

 Cycle  21  Pass 1  IDiag  1:
 E= -1136.09947354174     Delta-E=       -0.000000000015 Rises=F Damp=F
 DIIS: error= 2.31D-08 at cycle  21 NSaved=  20.
 NSaved=20 IEnMin=20 EnMin= -1136.09947354174     IErMin=20 ErrMin= 2.31D-08
 ErrMax= 2.31D-08  0.00D+00 EMaxC= 1.00D-01 BMatC= 2.98D-13 BMatP= 1.95D-12
 IDIUse=1 WtCom= 1.00D+00 WtEn= 0.00D+00
 Coeff-Com:  0.168D-07-0.555D-06-0.141D-05 0.292D-05 0.356D-06-0.586D-04
 Coeff-Com:  0.427D-05 0.757D-05-0.676D-04 0.269D-03 0.479D-04 0.133D-02
 Coeff-Com: -0.289D-02-0.735D-02 0.659D-02 0.520D-01-0.756D-01-0.165D+00
 Coeff-Com:  0.209D+00 0.981D+00
 Coeff:      0.168D-07-0.555D-06-0.141D-05 0.292D-05 0.356D-06-0.586D-04
 Coeff:      0.427D-05 0.757D-05-0.676D-04 0.269D-03 0.479D-04 0.133D-02
 Coeff:     -0.289D-02-0.735D-02 0.659D-02 0.520D-01-0.756D-01-0.165D+00
 Coeff:      0.209D+00 0.981D+00
 Gap=     0.054 Goal=   None    Shift=    0.000
 Gap=     0.026 Goal=   None    Shift=    0.000
 RMSDP=1.09D-07 MaxDP=6.25D-06 DE=-1.46D-11 OVMax= 7.46D-06

 Cycle  22  Pass 1  IDiag  1:
 E= -1136.09947354175     Delta-E=       -0.000000000005 Rises=F Damp=F
 DIIS: error= 1.21D-08 at cycle  22 NSaved=  20.
 NSaved=20 IEnMin=20 EnMin= -1136.09947354175     IErMin=20 ErrMin= 1.21D-08
 ErrMax= 1.21D-08  0.00D+00 EMaxC= 1.00D-01 BMatC= 6.30D-14 BMatP= 2.98D-13
 IDIUse=1 WtCom= 1.00D+00 WtEn= 0.00D+00
 Coeff-Com: -0.113D-07-0.892D-06-0.750D-05-0.174D-05-0.153D-04 0.614D-04
 Coeff-Com:  0.477D-04-0.170D-03-0.939D-05-0.174D-04 0.136D-03 0.103D-02
 Coeff-Com:  0.466D-03-0.552D-02 0.233D-02 0.356D-01-0.139D-02-0.203D+00
 Coeff-Com:  0.440D-01 0.113D+01
 Coeff:     -0.113D-07-0.892D-06-0.750D-05-0.174D-05-0.153D-04 0.614D-04
 Coeff:      0.477D-04-0.170D-03-0.939D-05-0.174D-04 0.136D-03 0.103D-02
 Coeff:      0.466D-03-0.552D-02 0.233D-02 0.356D-01-0.139D-02-0.203D+00
 Coeff:      0.440D-01 0.113D+01
 Gap=     0.054 Goal=   None    Shift=    0.000
 Gap=     0.026 Goal=   None    Shift=    0.000
 RMSDP=5.96D-08 MaxDP=3.25D-06 DE=-4.55D-12 OVMax= 3.40D-06

 Cycle  23  Pass 1  IDiag  1:
 E= -1136.09947354174     Delta-E=        0.000000000006 Rises=F Damp=F
 DIIS: error= 4.02D-09 at cycle  23 NSaved=  20.
 NSaved=20 IEnMin=19 EnMin= -1136.09947354175     IErMin=20 ErrMin= 4.02D-09
 ErrMax= 4.02D-09  0.00D+00 EMaxC= 1.00D-01 BMatC= 1.03D-14 BMatP= 6.30D-14
 IDIUse=1 WtCom= 1.00D+00 WtEn= 0.00D+00
 Coeff-Com: -0.295D-06-0.450D-06 0.140D-05 0.176D-04-0.814D-05-0.302D-04
 Coeff-Com: -0.203D-04-0.396D-04 0.112D-03-0.277D-03 0.403D-03 0.121D-02
 Coeff-Com: -0.142D-02-0.800D-02 0.163D-01 0.275D-01-0.586D-01-0.171D+00
 Coeff-Com:  0.118D+00 0.108D+01
 Coeff:     -0.295D-06-0.450D-06 0.140D-05 0.176D-04-0.814D-05-0.302D-04
 Coeff:     -0.203D-04-0.396D-04 0.112D-03-0.277D-03 0.403D-03 0.121D-02
 Coeff:     -0.142D-02-0.800D-02 0.163D-01 0.275D-01-0.586D-01-0.171D+00
 Coeff:      0.118D+00 0.108D+01
 Gap=     0.054 Goal=   None    Shift=    0.000
 Gap=     0.026 Goal=   None    Shift=    0.000
 RMSDP=2.92D-08 MaxDP=2.95D-06 DE= 6.37D-12 OVMax= 9.75D-07

 Cycle  24  Pass 1  IDiag  1:
 E= -1136.09947354176     Delta-E=       -0.000000000022 Rises=F Damp=F
 DIIS: error= 1.51D-09 at cycle  24 NSaved=  20.
 NSaved=20 IEnMin=20 EnMin= -1136.09947354176     IErMin=20 ErrMin= 1.51D-09
 ErrMax= 1.51D-09  0.00D+00 EMaxC= 1.00D-01 BMatC= 1.53D-15 BMatP= 1.03D-14
 IDIUse=1 WtCom= 1.00D+00 WtEn= 0.00D+00
 Large coefficients: NSaved= 20 BigCof=    0.00 CofMax=   10.00 Det=-4.28D-15
 Inversion failed.  Reducing to 19 matrices.
 Large coefficients: NSaved= 19 BigCof=    0.00 CofMax=   10.00 Det=-4.29D-15
 Inversion failed.  Reducing to 18 matrices.
 Large coefficients: NSaved= 18 BigCof=    0.00 CofMax=   10.00 Det=-4.55D-15
 Inversion failed.  Reducing to 17 matrices.
 Large coefficients: NSaved= 17 BigCof=    0.00 CofMax=   10.00 Det=-5.14D-15
 Inversion failed.  Reducing to 16 matrices.
 Large coefficients: NSaved= 16 BigCof=    0.00 CofMax=   10.00 Det=-5.18D-15
 Inversion failed.  Reducing to 15 matrices.
 Coeff-Com:  0.833D-05-0.303D-06-0.110D-07 0.395D-04-0.958D-04-0.108D-03
 Coeff-Com:  0.232D-03 0.237D-03-0.262D-02 0.302D-03 0.155D-01-0.182D-01
 Coeff-Com: -0.115D+00 0.521D-01 0.107D+01
 Coeff:      0.833D-05-0.303D-06-0.110D-07 0.395D-04-0.958D-04-0.108D-03
 Coeff:      0.232D-03 0.237D-03-0.262D-02 0.302D-03 0.155D-01-0.182D-01
 Coeff:     -0.115D+00 0.521D-01 0.107D+01
 Gap=     0.054 Goal=   None    Shift=    0.000
 Gap=     0.026 Goal=   None    Shift=    0.000
 RMSDP=1.07D-08 MaxDP=8.15D-07 DE=-2.18D-11 OVMax= 5.13D-07

 Cycle  25  Pass 1  IDiag  1:
 E= -1136.09947354175     Delta-E=        0.000000000007 Rises=F Damp=F
 DIIS: error= 1.26D-09 at cycle  25 NSaved=  16.
 NSaved=16 IEnMin=15 EnMin= -1136.09947354176     IErMin=16 ErrMin= 1.26D-09
 ErrMax= 1.26D-09  0.00D+00 EMaxC= 1.00D-01 BMatC= 6.59D-16 BMatP= 1.53D-15
 IDIUse=1 WtCom= 1.00D+00 WtEn= 0.00D+00
 Large coefficients: NSaved= 16 BigCof=    0.00 CofMax=   10.00 Det=-1.35D-15
 Inversion failed.  Reducing to 15 matrices.
 Coeff-Com:  0.737D-06 0.210D-05-0.642D-06-0.823D-04-0.690D-04 0.360D-03
 Coeff-Com: -0.563D-04-0.314D-02-0.755D-03 0.192D-01 0.210D-02-0.916D-01
 Coeff-Com: -0.672D-01 0.414D+00 0.727D+00
 Coeff:      0.737D-06 0.210D-05-0.642D-06-0.823D-04-0.690D-04 0.360D-03
 Coeff:     -0.563D-04-0.314D-02-0.755D-03 0.192D-01 0.210D-02-0.916D-01
 Coeff:     -0.672D-01 0.414D+00 0.727D+00
 Gap=     0.054 Goal=   None    Shift=    0.000
 Gap=     0.026 Goal=   None    Shift=    0.000
 RMSDP=8.59D-09 MaxDP=7.11D-07 DE= 7.28D-12 OVMax= 3.21D-07

 SCF Done:  E(UB3LYP) =  -1136.09947354     A.U. after   25 cycles
            NFock= 25  Conv=0.86D-08     -V/T= 2.0027
 <Sx>= 0.0000 <Sy>= 0.0000 <Sz>= 0.5000 <S**2>= 0.7798 S= 0.5148
 <L.S>= 0.000000000000E+00
 KE= 1.133065881667D+03 PE=-3.326970054562D+03 EE= 7.588519589530D+02
 Annihilation of the first spin contaminant:
 S**2 before annihilation     0.7798,   after     0.7505
 Leave Link  502 at Mon Nov 13 14:49:09 2023, MaxMem=  1879048192 cpu:             214.6 elap:              18.9
 (Enter /home/sekinelabo/g16/l601.exe)
 Copying SCF densities to generalized density rwf, IOpCl= 1 IROHF=0.

 **********************************************************************

            Population analysis using the SCF Density.

 **********************************************************************

 Orbital symmetries:
 Alpha Orbitals:
       Occupied  (A) (A) (A) (A) (A) (A) (A) (A) (A) (A) (A) (A)
                 (A) (A) (A) (A) (A) (A) (A) (A) (A) (A) (A) (A)
                 (A) (A) (A) (A) (A) (A) (A) (A) (A) (A) (A) (A)
                 (A) (A) (A)
       Virtual   (A) (A) (A) (A) (A) (A) (A) (A) (A) (A) (A) (A)
                 (A) (A) (A) (A) (A) (A) (A) (A) (A) (A) (A) (A)
                 (A) (A) (A) (A) (A) (A) (A) (A) (A) (A) (A) (A)
                 (A) (A) (A) (A) (A) (A) (A) (A) (A) (A) (A) (A)
                 (A) (A) (A) (A) (A) (A) (A) (A) (A) (A) (A) (A)
                 (A) (A) (A) (A) (A) (A) (A) (A) (A) (A) (A) (A)
                 (A) (A) (A) (A) (A) (A) (A) (A) (A) (A) (A) (A)
                 (A) (A) (A) (A) (A) (A) (A) (A) (A) (A) (A) (A)
                 (A) (A) (A) (A) (A) (A) (A) (A) (A) (A) (A) (A)
                 (A) (A) (A) (A) (A) (A) (A) (A) (A) (A) (A) (A)
                 (A) (A) (A) (A) (A) (A) (A) (A) (A) (A) (A) (A)
                 (A) (A) (A) (A) (A) (A) (A) (A) (A) (A) (A) (A)
                 (A) (A) (A) (A) (A) (A) (A) (A) (A) (A) (A) (A)
                 (A) (A) (A) (A) (A) (A) (A) (A) (A) (A) (A) (A)
                 (A) (A) (A)
 Beta  Orbitals:
       Occupied  (A) (A) (A) (A) (A) (A) (A) (A) (A) (A) (A) (A)
                 (A) (A) (A) (A) (A) (A) (A) (A) (A) (A) (A) (A)
                 (A) (A) (A) (A) (A) (A) (A) (A) (A) (A) (A) (A)
                 (A) (A)
       Virtual   (A) (A) (A) (A) (A) (A) (A) (A) (A) (A) (A) (A)
                 (A) (A) (A) (A) (A) (A) (A) (A) (A) (A) (A) (A)
                 (A) (A) (A) (A) (A) (A) (A) (A) (A) (A) (A) (A)
                 (A) (A) (A) (A) (A) (A) (A) (A) (A) (A) (A) (A)
                 (A) (A) (A) (A) (A) (A) (A) (A) (A) (A) (A) (A)
                 (A) (A) (A) (A) (A) (A) (A) (A) (A) (A) (A) (A)
                 (A) (A) (A) (A) (A) (A) (A) (A) (A) (A) (A) (A)
                 (A) (A) (A) (A) (A) (A) (A) (A) (A) (A) (A) (A)
                 (A) (A) (A) (A) (A) (A) (A) (A) (A) (A) (A) (A)
                 (A) (A) (A) (A) (A) (A) (A) (A) (A) (A) (A) (A)
                 (A) (A) (A) (A) (A) (A) (A) (A) (A) (A) (A) (A)
                 (A) (A) (A) (A) (A) (A) (A) (A) (A) (A) (A) (A)
                 (A) (A) (A) (A) (A) (A) (A) (A) (A) (A) (A) (A)
                 (A) (A) (A) (A) (A) (A) (A) (A) (A) (A) (A) (A)
                 (A) (A) (A) (A)
 The electronic state is 2-A.
 Alpha  occ. eigenvalues --  -38.45308 -38.45210 -38.44622 -38.44428 -38.43933
 Alpha  occ. eigenvalues --  -38.43670 -38.43236  -2.21209  -2.21112  -2.20438
 Alpha  occ. eigenvalues --   -2.20298  -2.19904  -2.19557  -2.19123  -1.14901
 Alpha  occ. eigenvalues --   -1.14836  -1.14834  -1.14793  -1.14750  -1.14740
 Alpha  occ. eigenvalues --   -1.14192  -1.14075  -1.14073  -1.14019  -1.13933
 Alpha  occ. eigenvalues --   -1.13892  -1.13591  -1.13571  -1.13524  -1.13237
 Alpha  occ. eigenvalues --   -1.13188  -1.13174  -1.12816  -1.12789  -1.12750
 Alpha  occ. eigenvalues --   -0.17691  -0.14685  -0.12491  -0.11685
 Alpha virt. eigenvalues --   -0.06279  -0.05134  -0.04669  -0.03934  -0.03379
 Alpha virt. eigenvalues --   -0.02287  -0.01877  -0.01281  -0.01107  -0.00325
 Alpha virt. eigenvalues --   -0.00132   0.00109   0.00205   0.00343   0.00817
 Alpha virt. eigenvalues --    0.00857   0.01008   0.01095   0.01207   0.01339
 Alpha virt. eigenvalues --    0.01484   0.01558   0.01744   0.01780   0.01890
 Alpha virt. eigenvalues --    0.02127   0.02227   0.02333   0.02379   0.02587
 Alpha virt. eigenvalues --    0.02641   0.02671   0.02809   0.02927   0.02990
 Alpha virt. eigenvalues --    0.03141   0.03372   0.03385   0.03446   0.03615
 Alpha virt. eigenvalues --    0.03687   0.03871   0.04258   0.04351   0.04685
 Alpha virt. eigenvalues --    0.05076   0.05371   0.05624   0.05696   0.05807
 Alpha virt. eigenvalues --    0.05908   0.06592   0.06906   0.07119   0.07536
 Alpha virt. eigenvalues --    0.07709   0.07981   0.08218   0.08281   0.08407
 Alpha virt. eigenvalues --    0.08556   0.08865   0.08999   0.09374   0.09675
 Alpha virt. eigenvalues --    0.10474   0.10588   0.11059   0.11289   0.11790
 Alpha virt. eigenvalues --    0.12832   0.13652   0.14095   0.14235   0.14761
 Alpha virt. eigenvalues --    0.15364   0.16365   0.16559   0.17382   0.17864
 Alpha virt. eigenvalues --    0.26441   0.27069   0.27711   0.28397   0.29570
 Alpha virt. eigenvalues --    0.30038   0.30697   0.31106   0.31978   0.32377
 Alpha virt. eigenvalues --    0.32979   0.33850   0.34182   0.34402   0.35313
 Alpha virt. eigenvalues --    0.36170   0.36404   0.37072   0.39452   0.40615
 Alpha virt. eigenvalues --    0.41879   0.42371   0.43535   0.43569   0.43833
 Alpha virt. eigenvalues --    0.44146   0.44460   0.44605   0.44925   0.45076
 Alpha virt. eigenvalues --    0.45313   0.45681   0.46279   0.46507   0.46562
 Alpha virt. eigenvalues --    0.47335   0.47464   0.48651   0.48833   0.49561
 Alpha virt. eigenvalues --    0.49909   0.50443   0.50681   0.51045   0.51638
 Alpha virt. eigenvalues --    0.55383   0.56629   0.58984   0.59137   0.63770
 Alpha virt. eigenvalues --    0.65306   0.70220   0.73103   0.73463   0.76952
 Alpha virt. eigenvalues --    0.81052   2.05708   2.08382   2.12217   2.12967
 Alpha virt. eigenvalues --    2.17146   2.22023   2.25979   4.41084   4.41232
 Alpha virt. eigenvalues --    4.41443   4.42429   4.42797   4.43076   4.43757
 Alpha virt. eigenvalues --    4.44140   4.44280   4.45221   4.46408   4.46580
 Alpha virt. eigenvalues --    4.47351   4.47487   4.55294   4.60665   4.61440
 Alpha virt. eigenvalues --    4.64504   4.66442   4.74977   4.75248  96.25770
 Alpha virt. eigenvalues --   96.29283  96.34417  96.35337  96.41021  96.47196
 Alpha virt. eigenvalues --   96.52086
  Beta  occ. eigenvalues --  -38.45220 -38.45130 -38.44579 -38.44432 -38.43903
  Beta  occ. eigenvalues --  -38.43653 -38.43235  -2.21048  -2.20966  -2.20359
  Beta  occ. eigenvalues --   -2.20307  -2.19851  -2.19529  -2.19125  -1.14772
  Beta  occ. eigenvalues --   -1.14735  -1.14728  -1.14682  -1.14657  -1.14643
  Beta  occ. eigenvalues --   -1.14148  -1.14034  -1.14021  -1.14004  -1.13940
  Beta  occ. eigenvalues --   -1.13873  -1.13558  -1.13526  -1.13488  -1.13203
  Beta  occ. eigenvalues --   -1.13173  -1.13150  -1.12796  -1.12787  -1.12755
  Beta  occ. eigenvalues --   -0.16923  -0.14187  -0.11429
  Beta virt. eigenvalues --   -0.08827  -0.05883  -0.04506  -0.04288  -0.03475
  Beta virt. eigenvalues --   -0.03187  -0.02050  -0.01602  -0.01095  -0.00687
  Beta virt. eigenvalues --   -0.00248  -0.00015   0.00185   0.00434   0.00524
  Beta virt. eigenvalues --    0.00851   0.00890   0.01033   0.01143   0.01262
  Beta virt. eigenvalues --    0.01375   0.01578   0.01645   0.01785   0.01897
  Beta virt. eigenvalues --    0.01969   0.02164   0.02273   0.02368   0.02482
  Beta virt. eigenvalues --    0.02667   0.02684   0.02726   0.02862   0.02943
  Beta virt. eigenvalues --    0.03090   0.03218   0.03396   0.03424   0.03478
  Beta virt. eigenvalues --    0.03663   0.03754   0.03913   0.04301   0.04432
  Beta virt. eigenvalues --    0.04769   0.05139   0.05435   0.05677   0.05782
  Beta virt. eigenvalues --    0.05864   0.05997   0.06629   0.07005   0.07214
  Beta virt. eigenvalues --    0.07662   0.07974   0.08029   0.08335   0.08457
  Beta virt. eigenvalues --    0.08678   0.08780   0.08932   0.09213   0.09571
  Beta virt. eigenvalues --    0.09849   0.10586   0.10791   0.11196   0.11473
  Beta virt. eigenvalues --    0.11890   0.13067   0.13773   0.14186   0.14408
  Beta virt. eigenvalues --    0.14947   0.15489   0.16521   0.16808   0.17707
  Beta virt. eigenvalues --    0.18120   0.26911   0.27536   0.28000   0.28966
  Beta virt. eigenvalues --    0.29908   0.30343   0.30941   0.31406   0.32193
  Beta virt. eigenvalues --    0.32784   0.33401   0.34019   0.34650   0.34759
  Beta virt. eigenvalues --    0.35830   0.36435   0.36802   0.37323   0.39596
  Beta virt. eigenvalues --    0.40641   0.42008   0.42539   0.43646   0.43745
  Beta virt. eigenvalues --    0.43982   0.44306   0.44510   0.44767   0.45030
  Beta virt. eigenvalues --    0.45232   0.45471   0.45752   0.46317   0.46651
  Beta virt. eigenvalues --    0.46700   0.47519   0.47776   0.48799   0.49078
  Beta virt. eigenvalues --    0.49797   0.50110   0.50657   0.50892   0.51204
  Beta virt. eigenvalues --    0.51785   0.55653   0.56730   0.59235   0.59339
  Beta virt. eigenvalues --    0.63938   0.65537   0.70369   0.73339   0.73662
  Beta virt. eigenvalues --    0.77039   0.81228   2.05883   2.08543   2.12545
  Beta virt. eigenvalues --    2.13007   2.17187   2.22176   2.26100   4.41153
  Beta virt. eigenvalues --    4.41343   4.41527   4.42474   4.42867   4.43147
  Beta virt. eigenvalues --    4.43828   4.44234   4.44338   4.45264   4.46453
  Beta virt. eigenvalues --    4.46583   4.47387   4.47515   4.55328   4.60718
  Beta virt. eigenvalues --    4.61495   4.64545   4.66513   4.75076   4.75279
  Beta virt. eigenvalues --   96.25826  96.29337  96.34516  96.35362  96.41040
  Beta virt. eigenvalues --   96.47250  96.52130
          Condensed to atoms (all electrons):
               1          2          3          4          5          6
     1  Na  12.379814  -0.630418  -0.492071   1.007720  -2.828244   0.215694
     2  Na  -0.630418  11.285584   0.358739  -0.666050   1.140935  -0.182272
     3  Na  -0.492071   0.358739  11.118701  -0.839361   1.156603  -0.188072
     4  Na   1.007720  -0.666050  -0.839361  13.412536  -3.611570   0.455658
     5  Na  -2.828244   1.140935   1.156603  -3.611570  18.535475  -0.495188
     6  Na   0.215694  -0.182272  -0.188072   0.455658  -0.495188  10.933265
     7  Na   0.163174  -0.057437   0.015781   0.177547  -0.508003   0.152813
               7
     1  Na   0.163174
     2  Na  -0.057437
     3  Na   0.015781
     4  Na   0.177547
     5  Na  -0.508003
     6  Na   0.152813
     7  Na  10.642668
          Atomic-Atomic Spin Densities.
               1          2          3          4          5          6
     1  Na   0.471475   0.005194   0.091936  -0.583748   0.365018  -0.097636
     2  Na   0.005194  -0.001388  -0.000222   0.173727  -0.189451   0.009440
     3  Na   0.091936  -0.000222   0.045109   0.408647  -0.338929   0.038233
     4  Na  -0.583748   0.173727   0.408647  -0.341179   0.736179  -0.116176
     5  Na   0.365018  -0.189451  -0.338929   0.736179  -0.605953   0.175478
     6  Na  -0.097636   0.009440   0.038233  -0.116176   0.175478   0.011075
     7  Na   0.105133  -0.018037  -0.026024   0.077041  -0.254371   0.049722
               7
     1  Na   0.105133
     2  Na  -0.018037
     3  Na  -0.026024
     4  Na   0.077041
     5  Na  -0.254371
     6  Na   0.049722
     7  Na   0.198556
 Mulliken charges and spin densities:
               1          2
     1  Na   1.184332   0.357372
     2  Na  -0.249081  -0.020738
     3  Na  -0.130321   0.218749
     4  Na   1.063520   0.354491
     5  Na  -2.390008  -0.112029
     6  Na   0.108102   0.070135
     7  Na   0.413456   0.132019
 Sum of Mulliken charges =  -0.00000   1.00000
 Mulliken charges and spin densities with hydrogens summed into heavy atoms:
               1          2
     1  Na   1.184332   0.357372
     2  Na  -0.249081  -0.020738
     3  Na  -0.130321   0.218749
     4  Na   1.063520   0.354491
     5  Na  -2.390008  -0.112029
     6  Na   0.108102   0.070135
     7  Na   0.413456   0.132019
 Electronic spatial extent (au):  <R**2>=           4051.8450
 Charge=             -0.0000 electrons
 Dipole moment (field-independent basis, Debye):
    X=             -0.4809    Y=              0.0372    Z=             -0.1567  Tot=              0.5072
 Quadrupole moment (field-independent basis, Debye-Ang):
   XX=            -59.7663   YY=            -70.4637   ZZ=            -69.4305
   XY=              5.0271   XZ=              3.9326   YZ=              1.3564
 Traceless Quadrupole moment (field-independent basis, Debye-Ang):
   XX=              6.7872   YY=             -3.9102   ZZ=             -2.8770
   XY=              5.0271   XZ=              3.9326   YZ=              1.3564
 Octapole moment (field-independent basis, Debye-Ang**2):
  XXX=            -49.0461  YYY=              0.7445  ZZZ=              2.2017  XYY=              7.2608
  XXY=             14.3533  XXZ=            -27.7983  XZZ=             -9.1909  YZZ=              1.1595
  YYZ=             -1.4411  XYZ=             -2.1531
 Hexadecapole moment (field-independent basis, Debye-Ang**3):
 XXXX=          -4502.2309 YYYY=          -1220.7761 ZZZZ=           -343.8733 XXXY=            154.3674
 XXXZ=            269.7231 YYYX=             31.1763 YYYZ=              4.9123 ZZZX=              5.4117
 ZZZY=              8.3805 XXYY=          -1093.2431 XXZZ=           -934.5630 YYZZ=           -262.4943
 XXYZ=             24.9933 YYXZ=              7.4127 ZZXY=              9.5608
 N-N= 2.989527404006D+02 E-N=-3.326970054894D+03  KE= 1.133065881667D+03
                          Isotropic Fermi Contact Couplings
        Atom                 a.u.       MegaHertz       Gauss      10(-4) cm-1
     1  Na(23)             0.35730     422.69534     150.82821     140.99599
     2  Na(23)            -0.03701     -43.77912     -15.62148     -14.60314
     3  Na(23)             0.33247     393.31719     140.34535     131.19649
     4  Na(23)             0.03780      44.72117      15.95762      14.91738
     5  Na(23)             0.11350     134.27200      47.91159      44.78832
     6  Na(23)            -0.05194     -61.44725     -21.92591     -20.49660
     7  Na(23)             0.18667     220.83085      78.79794      73.66124
 --------------------------------------------------------
       Center         ----  Spin Dipole Couplings  ----
                      3XX-RR        3YY-RR        3ZZ-RR
 --------------------------------------------------------
     1   Atom        0.012460     -0.004641     -0.007819
     2   Atom        0.005396      0.010948     -0.016344
     3   Atom       -0.000600      0.004207     -0.003608
     4   Atom        0.028156     -0.015411     -0.012745
     5   Atom       -0.019879      0.027265     -0.007386
     6   Atom        0.030307     -0.015336     -0.014971
     7   Atom       -0.003037      0.000794      0.002243
 --------------------------------------------------------
                        XY            XZ            YZ
 --------------------------------------------------------
     1   Atom       -0.015566      0.001222     -0.000762
     2   Atom        0.024750      0.002845      0.003066
     3   Atom       -0.011497      0.000485     -0.002015
     4   Atom        0.004736      0.006435      0.000587
     5   Atom       -0.028172      0.005682     -0.003361
     6   Atom       -0.007066      0.005443     -0.000523
     7   Atom        0.000849      0.000054      0.001240
 --------------------------------------------------------


 ---------------------------------------------------------------------------------
              Anisotropic Spin Dipole Couplings in Principal Axis System
 ---------------------------------------------------------------------------------

       Atom             a.u.   MegaHertz   Gauss  10(-4) cm-1        Axes

              Baa    -0.0139    -1.956    -0.698    -0.652  0.5090  0.8608  0.0057
     1 Na(23) Bbb    -0.0079    -1.114    -0.397    -0.372 -0.0448  0.0198  0.9988
              Bcc     0.0217     3.070     1.095     1.024  0.8596 -0.5086  0.0486
 
              Baa    -0.0168    -2.371    -0.846    -0.791  0.6207 -0.4857 -0.6154
     2 Na(23) Bbb    -0.0166    -2.349    -0.838    -0.784  0.4165 -0.4608  0.7837
              Bcc     0.0334     4.721     1.684     1.575  0.6643  0.7428  0.0837
 
              Baa    -0.0101    -1.422    -0.507    -0.474  0.7614  0.6330  0.1403
     3 Na(23) Bbb    -0.0037    -0.520    -0.186    -0.173 -0.1765 -0.0058  0.9843
              Bcc     0.0138     1.942     0.693     0.648 -0.6238  0.7742 -0.1073
 
              Baa    -0.0159    -2.249    -0.802    -0.750 -0.1134  0.9925  0.0463
     4 Na(23) Bbb    -0.0137    -1.938    -0.692    -0.646 -0.1446 -0.0626  0.9875
              Bcc     0.0296     4.187     1.494     1.397  0.9830  0.1053  0.1507
 
              Baa    -0.0336    -4.742    -1.692    -1.582  0.9011  0.4093 -0.1429
     5 Na(23) Bbb    -0.0075    -1.054    -0.376    -0.352  0.0824  0.1620  0.9833
              Bcc     0.0410     5.796     2.068     1.933 -0.4257  0.8979 -0.1123
 
              Baa    -0.0165    -2.330    -0.832    -0.777  0.1771  0.9340 -0.3104
     6 Na(23) Bbb    -0.0155    -2.190    -0.781    -0.730 -0.0619  0.3253  0.9436
              Bcc     0.0320     4.520     1.613     1.508  0.9822 -0.1479  0.1155
 
              Baa    -0.0032    -0.455    -0.163    -0.152  0.9751 -0.2183  0.0399
     7 Na(23) Bbb     0.0002     0.033     0.012     0.011  0.2071  0.8302 -0.5175
              Bcc     0.0030     0.423     0.151     0.141  0.0798  0.5129  0.8547
 

 ---------------------------------------------------------------------------------

 No NMR shielding tensors so no spin-rotation constants.
 Leave Link  601 at Mon Nov 13 14:49:09 2023, MaxMem=  1879048192 cpu:               2.5 elap:               0.2
 (Enter /home/sekinelabo/g16/l701.exe)
 ... and contract with generalized density number  0.
 Compute integral first derivatives.
 Leave Link  701 at Mon Nov 13 14:49:09 2023, MaxMem=  1879048192 cpu:               1.6 elap:               0.1
 (Enter /home/sekinelabo/g16/l702.exe)
 L702 exits ... SP integral derivatives will be done elsewhere.
 Leave Link  702 at Mon Nov 13 14:49:09 2023, MaxMem=  1879048192 cpu:               0.5 elap:               0.0
 (Enter /home/sekinelabo/g16/l703.exe)
 Integral derivatives from FoFJK, PRISM(SPDF).
 Compute integral first derivatives, UseDBF=F ICtDFT=           0.
 Calling FoFJK, ICntrl=      2127 FMM=F ISym2X=0 I1Cent= 0 IOpClX= 1 NMat=1 NMatS=1 NMatT=0.
 FoFJK:  IHMeth= 1 ICntrl=    2127 DoSepK=F KAlg= 0 I1Cent=           0 FoldK=F
 IRaf=         0 NMat=       1 IRICut=       1 DoRegI=T DoRafI=F ISym2E= 0 IDoP0=0 IntGTp=1.
 FoFCou: FMM=F IPFlag=           0 FMFlag=      100000 FMFlg1=         800
         NFxFlg=           0 DoJE=F BraDBF=F KetDBF=F FulRan=T
         wScrn=  0.000000 ICntrl=      2127 IOpCl=  1 I1Cent=           0 NGrid=           0
         NMat0=    1 NMatS0=      1 NMatT0=    0 NMatD0=    1 NMtDS0=    0 NMtDT0=    0
 Symmetry not used in FoFCou.
 Leave Link  703 at Mon Nov 13 14:49:11 2023, MaxMem=  1879048192 cpu:              31.0 elap:               2.0
 (Enter /home/sekinelabo/g16/l716.exe)
 Dipole        =-1.89196044D-01 1.46415691D-02-6.16617756D-02
 ***** Axes restored to original set *****
 -------------------------------------------------------------------
 Center     Atomic                   Forces (Hartrees/Bohr)
 Number     Number              X              Y              Z
 -------------------------------------------------------------------
      1       11           0.000786647   -0.004244525    0.000659063
      2       11           0.006262819   -0.006358446    0.000458716
      3       11           0.003578425    0.001566500    0.000776306
      4       11          -0.003346645    0.006217541   -0.000462770
      5       11          -0.002614480    0.003134462   -0.004490211
      6       11          -0.002288488    0.000270639    0.004495274
      7       11          -0.002378277   -0.000586171   -0.001436379
 -------------------------------------------------------------------
 Cartesian Forces:  Max     0.006358446 RMS     0.003347133
 Z-matrix is all fixed cartesians, so copy forces.
 Force constants in Cartesian coordinates: 
                1             2             3             4             5 
      1  0.612607D-01
      2  0.506839D-03  0.560623D-01
      3  0.297504D-02 -0.243060D-02  0.461935D-02
      4 -0.364803D-01  0.507799D-02 -0.362407D-02  0.538386D-01
      5 -0.928338D-02 -0.208785D-01 -0.113590D-02 -0.437054D-02  0.530639D-01
      6 -0.376466D-02  0.394229D-03 -0.100508D-02  0.600259D-02  0.656822D-03
      7  0.122725D-02 -0.763097D-02 -0.921367D-04 -0.190934D-01  0.768194D-02
      8 -0.308931D-05  0.265914D-04 -0.120777D-04 -0.708928D-02 -0.369169D-01
      9  0.105861D-03 -0.791574D-03  0.172196D-03 -0.290232D-02 -0.135311D-03
     10  0.443309D-02  0.352070D-02  0.326000D-03  0.267213D-02 -0.136543D-04
     11 -0.414701D-02 -0.329550D-02 -0.321686D-03  0.712883D-02 -0.395871D-04
     12  0.497489D-03  0.440149D-03  0.508983D-03  0.639197D-03 -0.105471D-04
     13 -0.293962D-01 -0.754494D-03 -0.728765D-03 -0.932523D-03  0.598545D-02
     14  0.831825D-02 -0.351557D-01  0.823448D-02 -0.742728D-03  0.477095D-02
     15  0.191694D-02  0.357909D-02 -0.621015D-02 -0.107294D-03  0.624590D-03
     16 -0.104022D-02 -0.715941D-03  0.115176D-02 -0.449891D-05  0.000000D+00
     17  0.455699D-02  0.319195D-02 -0.442688D-02 -0.427202D-05  0.000000D+00
     18 -0.172436D-02 -0.118529D-02  0.192609D-02 -0.811016D-05  0.000000D+00
     19 -0.434125D-05 -0.412231D-05 -0.782595D-05  0.000000D+00  0.000000D+00
     20  0.514076D-04  0.488150D-04  0.926722D-04  0.000000D+00  0.000000D+00
     21 -0.631531D-05 -0.599682D-05 -0.113846D-04  0.000000D+00  0.000000D+00
                6             7             8             9            10 
      6  0.142126D-02
      7 -0.251766D-02  0.538873D-01
      8 -0.223176D-02  0.195553D-04  0.551229D-01
      9 -0.914840D-03  0.883269D-02  0.630272D-03  0.225597D-02
     10  0.452638D-03 -0.339821D-01  0.122782D-01 -0.608531D-02  0.572346D-01
     11  0.130632D-02 -0.199114D-02 -0.231308D-01  0.349166D-03 -0.189657D-02
     12  0.292798D-03 -0.575307D-02  0.272075D-02 -0.169151D-02  0.472745D-02
     13 -0.214548D-03 -0.203322D-02 -0.520852D-02  0.774483D-05 -0.294405D-01
     14 -0.165141D-03  0.191452D-02  0.490151D-02 -0.100012D-04 -0.982593D-02
     15  0.130807D-03 -0.459456D-03 -0.111265D-02  0.105908D-03  0.231958D-02
     16  0.416313D-04 -0.593142D-05  0.312563D-05  0.413285D-04 -0.921908D-03
     17  0.395317D-04  0.610699D-05 -0.321815D-05 -0.425518D-04 -0.400761D-02
     18  0.750485D-04 -0.103732D-04  0.546626D-05  0.722774D-04 -0.174713D-02
     19  0.000000D+00  0.000000D+00  0.000000D+00  0.000000D+00  0.465677D-05
     20  0.000000D+00  0.000000D+00  0.000000D+00  0.000000D+00 -0.551439D-04
     21  0.000000D+00  0.000000D+00  0.000000D+00  0.000000D+00  0.677431D-05
               11            12            13            14            15 
     11  0.571221D-01
     12 -0.452540D-03  0.547291D-02
     13  0.122551D-03 -0.129991D-02  0.908312D-01
     14 -0.341731D-01 -0.714419D-02  0.133374D-02  0.792489D-01
     15 -0.236883D-02 -0.681656D-02 -0.124445D-01  0.375810D-03  0.345416D-01
     16  0.788140D-03  0.118071D-02 -0.271079D-01 -0.418233D-03  0.122038D-01
     17  0.346012D-02  0.454282D-02 -0.171438D-02 -0.196183D-01 -0.151744D-02
     18  0.149455D-02  0.222154D-02  0.114461D-01 -0.227885D-02 -0.275246D-01
     19 -0.479461D-05  0.814401D-05 -0.192095D-02 -0.579612D-03 -0.342903D-02
     20  0.567761D-04 -0.964385D-04  0.235657D-03  0.257628D-04  0.419431D-03
     21 -0.697483D-05  0.118473D-04  0.323384D-02  0.987897D-03  0.577297D-02
               16            17            18            19            20 
     16  0.565624D-01
     17  0.457833D-02  0.140301D-01
     18  0.115758D-02  0.525676D-02  0.440408D-01
     19 -0.274819D-01 -0.341517D-02 -0.911375D-02  0.294025D-01
     20 -0.423562D-02 -0.106084D-02 -0.329297D-02  0.400370D-02  0.929486D-03
     21 -0.157768D-01 -0.385223D-02 -0.208111D-01  0.125425D-01  0.287730D-02
               21 
     21  0.150377D-01
 Leave Link  716 at Mon Nov 13 14:49:11 2023, MaxMem=  1879048192 cpu:               0.5 elap:               0.0
 (Enter /home/sekinelabo/g16/l103.exe)

 GradGradGradGradGradGradGradGradGradGradGradGradGradGradGradGradGradGrad
 Berny optimization.
 Search for a local minimum.
 Step number   1 out of a maximum of    2
 All quantities printed in internal units (Hartrees-Bohrs-Radians)
 Second derivative matrix not updated -- first step.
 ITU=  0
     Eigenvalues ---    0.00049   0.00064   0.00164   0.01078   0.01600
     Eigenvalues ---    0.02233   0.04442   0.04556   0.05353   0.07525
     Eigenvalues ---    0.08487   0.09601   0.10344   0.13096   0.14007
 Quadratic step=8.034D-01 exceeds max=3.000D-01 adjusted using Lamda=-1.091D-02.
 Angle between NR and scaled steps=  50.08 degrees.
 Angle between quadratic step and forces=  25.35 degrees.
 Linear search not attempted -- first point.
 B after Tr=     0.000000    0.000000   -0.000000
         Rot=    1.000000    0.000000    0.000000    0.000000 Ang=   0.00 deg.
 Variable       Old X    -DE/DX   Delta X   Delta X   Delta X     New X
                                 (Linear)    (Quad)   (Total)
    X1       13.28402   0.00079   0.00000   0.04756   0.04756  13.33158
    Y1        0.00000  -0.00424   0.00000  -0.06072  -0.06072  -0.06072
    Z1        0.44686   0.00066   0.00000   0.00618   0.00618   0.45304
    X2       18.85132   0.00626   0.00000   0.13809   0.13809  18.98941
    Y2        0.88794  -0.00636   0.00000  -0.10585  -0.10585   0.78210
    Z2        1.04434   0.00046   0.00000   0.00399   0.00399   1.04833
    X3       18.85613   0.00358   0.00000   0.08921   0.08921  18.94534
    Y3        6.56095   0.00157   0.00000   0.01161   0.01161   6.57256
    Z3        1.18977   0.00078   0.00000   0.01363   0.01363   1.20340
    X4       13.64041  -0.00335   0.00000  -0.01715  -0.01715  13.62327
    Y4        8.59639   0.00622   0.00000   0.10731   0.10731   8.70370
    Z4        0.28727  -0.00046   0.00000  -0.00364  -0.00364   0.28363
    X5        9.78369  -0.00261   0.00000  -0.04685  -0.04685   9.73684
    Y5        4.44381   0.00313   0.00000   0.05441   0.05441   4.49822
    Z5        0.04781  -0.00449   0.00000  -0.05742  -0.05742  -0.00960
    X6        4.84879  -0.00229   0.00000  -0.09514  -0.09514   4.75365
    Y6        4.36825   0.00027   0.00000   0.02181   0.02181   4.39007
    Z6        2.82512   0.00450   0.00000   0.03976   0.03976   2.86488
    X7        0.00000  -0.00238   0.00000  -0.11572  -0.11572  -0.11572
    Y7        3.61172  -0.00059   0.00000  -0.02857  -0.02857   3.58315
    Z7        0.00000  -0.00144   0.00000  -0.00250  -0.00250  -0.00250
         Item               Value     Threshold  Converged?
 Maximum Force            0.006358     0.000450     NO 
 RMS     Force            0.003347     0.000300     NO 
 Maximum Displacement     0.138091     0.001800     NO 
 RMS     Displacement     0.065521     0.001200     NO 
 Predicted change in Energy=-2.572620D-03
 GradGradGradGradGradGradGradGradGradGradGradGradGradGradGradGradGradGrad

 Leave Link  103 at Mon Nov 13 14:49:11 2023, MaxMem=  1879048192 cpu:               0.3 elap:               0.0
 (Enter /home/sekinelabo/g16/l9999.exe)
 1\1\GINC-SEKINELABO-XA7R-R37\Force\UB3LYP\6-311+G(d)\Na7(2)\SEKINELABO
 \13-Nov-2023\0\\#P B3LYP/6-311+g(d) force\\Gaussian input prepared by 
 ASE\\0,2\Na,7.0296013545,0.,0.2364698366\Na,9.9756893847,0.4698795086,
 0.5526427843\Na,9.9782352825,3.4719064957,0.6295965382\Na,7.2181957435
 ,4.5490143779,0.1520177875\Na,5.1773059354,2.3515619297,0.0253021459\N
 a,2.5658710174,2.3115803913,1.4949909305\Na,0.,1.9112419784,0.\\Versio
 n=ES64L-G16RevB.01\State=2-A\HF=-1136.0994735\S2=0.77976\S2-1=0.\S2A=0
 .75049\RMSD=8.589e-09\RMSF=3.347e-03\Dipole=-0.189196,0.0146416,-0.061
 6618\Quadrupole=5.0461189,-2.9071351,-2.1389838,3.7374976,2.9237628,1.
 0084761\PG=C01 [X(Na7)]\\@


 YOU CANNOT THROW TO THE GROUND THE LETTERS OF
 THE GREEK ALPHABET AND PICK UP THE ILIAD.
        - RUFUS CHOATE, 1799-1859
 Job cpu time:       0 days  0 hours  4 minutes 22.9 seconds.
 Elapsed time:       0 days  0 hours  0 minutes 22.0 seconds.
 File lengths (MBytes):  RWF=     32 Int=      0 D2E=      0 Chk=      4 Scr=      1
 Normal termination of Gaussian 16 at Mon Nov 13 14:49:11 2023.
