 Entering Gaussian System, Link 0=g16
 Initial command:
 /home/sekinelabo/g16/l1.exe "/home/sekinelabo/g16temp/Gau-4058937.inp" -scrdir="/home/sekinelabo/g16temp/"
 Entering Link 1 = /home/sekinelabo/g16/l1.exe PID=   4058939.
  
 Copyright (c) 1988-2017, Gaussian, Inc.  All Rights Reserved.
  
 This is part of the Gaussian(R) 16 program.  It is based on
 the Gaussian(R) 09 system (copyright 2009, Gaussian, Inc.),
 the Gaussian(R) 03 system (copyright 2003, Gaussian, Inc.),
 the Gaussian(R) 98 system (copyright 1998, Gaussian, Inc.),
 the Gaussian(R) 94 system (copyright 1995, Gaussian, Inc.),
 the Gaussian 92(TM) system (copyright 1992, Gaussian, Inc.),
 the Gaussian 90(TM) system (copyright 1990, Gaussian, Inc.),
 the Gaussian 88(TM) system (copyright 1988, Gaussian, Inc.),
 the Gaussian 86(TM) system (copyright 1986, Carnegie Mellon
 University), and the Gaussian 82(TM) system (copyright 1983,
 Carnegie Mellon University). Gaussian is a federally registered
 trademark of Gaussian, Inc.
  
 This software contains proprietary and confidential information,
 including trade secrets, belonging to Gaussian, Inc.
  
 This software is provided under written license and may be
 used, copied, transmitted, or stored only in accord with that
 written license.
  
 The following legend is applicable only to US Government
 contracts under FAR:
  
                    RESTRICTED RIGHTS LEGEND
  
 Use, reproduction and disclosure by the US Government is
 subject to restrictions as set forth in subparagraphs (a)
 and (c) of the Commercial Computer Software - Restricted
 Rights clause in FAR 52.227-19.
  
 Gaussian, Inc.
 340 Quinnipiac St., Bldg. 40, Wallingford CT 06492
  
  
 ---------------------------------------------------------------
 Warning -- This program may not be used in any manner that
 competes with the business of Gaussian, Inc. or will provide
 assistance to any competitor of Gaussian, Inc.  The licensee
 of this program is prohibited from giving any competitor of
 Gaussian, Inc. access to this program.  By using this program,
 the user acknowledges that Gaussian, Inc. is engaged in the
 business of creating and licensing software in the field of
 computational chemistry and represents and warrants to the
 licensee that it is not a competitor of Gaussian, Inc. and that
 it will not use this program in any manner prohibited above.
 ---------------------------------------------------------------
  

 Cite this work as:
 Gaussian 16, Revision B.01,
 M. J. Frisch, G. W. Trucks, H. B. Schlegel, G. E. Scuseria, 
 M. A. Robb, J. R. Cheeseman, G. Scalmani, V. Barone, 
 G. A. Petersson, H. Nakatsuji, X. Li, M. Caricato, A. V. Marenich, 
 J. Bloino, B. G. Janesko, R. Gomperts, B. Mennucci, H. P. Hratchian, 
 J. V. Ortiz, A. F. Izmaylov, J. L. Sonnenberg, D. Williams-Young, 
 F. Ding, F. Lipparini, F. Egidi, J. Goings, B. Peng, A. Petrone, 
 T. Henderson, D. Ranasinghe, V. G. Zakrzewski, J. Gao, N. Rega, 
 G. Zheng, W. Liang, M. Hada, M. Ehara, K. Toyota, R. Fukuda, 
 J. Hasegawa, M. Ishida, T. Nakajima, Y. Honda, O. Kitao, H. Nakai, 
 T. Vreven, K. Throssell, J. A. Montgomery, Jr., J. E. Peralta, 
 F. Ogliaro, M. J. Bearpark, J. J. Heyd, E. N. Brothers, K. N. Kudin, 
 V. N. Staroverov, T. A. Keith, R. Kobayashi, J. Normand, 
 K. Raghavachari, A. P. Rendell, J. C. Burant, S. S. Iyengar, 
 J. Tomasi, M. Cossi, J. M. Millam, M. Klene, C. Adamo, R. Cammi, 
 J. W. Ochterski, R. L. Martin, K. Morokuma, O. Farkas, 
 J. B. Foresman, and D. J. Fox, Gaussian, Inc., Wallingford CT, 2016.
 
 ******************************************
 Gaussian 16:  ES64L-G16RevB.01 20-Dec-2017
                13-Nov-2023 
 ******************************************
 %mem=14GB
 %chk=checkpoint.chk
 %nprocshared=16
 Will use up to   16 processors via shared memory.
 -------------------------
 #P B3LYP/6-311+g(d) force
 -------------------------
 1/10=7,30=1,38=1/1,3;
 2/12=2,17=6,18=5,40=1/2;
 3/5=4,6=6,7=11,11=2,25=1,30=1,71=1,74=-5/1,2,3;
 4//1;
 5/5=2,38=5/2;
 6/7=2,8=2,9=2,10=2,28=1/1;
 7/29=1/1,2,3,16;
 1/10=7,30=1/3;
 99//99;
 Leave Link    1 at Mon Nov 13 16:46:18 2023, MaxMem=  1879048192 cpu:               0.7 elap:               0.1
 (Enter /home/sekinelabo/g16/l101.exe)
 ------------------------------
 Gaussian input prepared by ASE
 ------------------------------
 Symbolic Z-matrix:
 Charge =  0 Multiplicity = 2
 Na                    2.59528   2.79994   3.21426 
 Na                    4.94622   2.99754   0. 
 Na                    4.94451   4.55413   2.56518 
 Na                    5.2752    1.58149   2.62956 
 Na                    2.77068   0.        2.16557 
 Na                    2.04557   2.25111   0.31651 
 Na                    0.        3.66146   1.98952 
 
 ITRead=  0  0  0  0  0  0  0
 MicOpt= -1 -1 -1 -1 -1 -1 -1
 NAtoms=      7 NQM=        7 NQMF=       0 NMMI=      0 NMMIF=      0
                NMic=       0 NMicF=      0.
                    Isotopes and Nuclear Properties:
 (Nuclear quadrupole moments (NQMom) in fm**2, nuclear magnetic moments (NMagM)
  in nuclear magnetons)

  Atom         1           2           3           4           5           6           7
 IAtWgt=          23          23          23          23          23          23          23
 AtmWgt=  22.9897697  22.9897697  22.9897697  22.9897697  22.9897697  22.9897697  22.9897697
 NucSpn=           3           3           3           3           3           3           3
 AtZEff=  -0.0000000  -0.0000000  -0.0000000  -0.0000000  -0.0000000  -0.0000000  -0.0000000
 NQMom=   10.4000000  10.4000000  10.4000000  10.4000000  10.4000000  10.4000000  10.4000000
 NMagM=    2.2175200   2.2175200   2.2175200   2.2175200   2.2175200   2.2175200   2.2175200
 AtZNuc=  11.0000000  11.0000000  11.0000000  11.0000000  11.0000000  11.0000000  11.0000000
 Leave Link  101 at Mon Nov 13 16:46:18 2023, MaxMem=  1879048192 cpu:               2.6 elap:               0.2
 (Enter /home/sekinelabo/g16/l103.exe)

 GradGradGradGradGradGradGradGradGradGradGradGradGradGradGradGradGradGrad
 Berny optimization.
 Initialization pass.
 Trust Radius=3.00D-01 FncErr=1.00D-07 GrdErr=1.00D-07 EigMax=2.50D+02 EigMin=1.00D-04
 Number of steps in this run=      2 maximum allowed number of steps=      2.
 GradGradGradGradGradGradGradGradGradGradGradGradGradGradGradGradGradGrad

 Leave Link  103 at Mon Nov 13 16:46:18 2023, MaxMem=  1879048192 cpu:               0.2 elap:               0.0
 (Enter /home/sekinelabo/g16/l202.exe)
                          Input orientation:                          
 ---------------------------------------------------------------------
 Center     Atomic      Atomic             Coordinates (Angstroms)
 Number     Number       Type             X           Y           Z
 ---------------------------------------------------------------------
      1         11           0        2.595282    2.799937    3.214261
      2         11           0        4.946218    2.997544    0.000000
      3         11           0        4.944506    4.554130    2.565184
      4         11           0        5.275197    1.581495    2.629559
      5         11           0        2.770677    0.000000    2.165575
      6         11           0        2.045566    2.251107    0.316515
      7         11           0        0.000000    3.661462    1.989521
 ---------------------------------------------------------------------
                    Distance matrix (angstroms):
                    1          2          3          4          5
     1  Na   0.000000
     2  Na   3.987158   0.000000
     3  Na   3.002890   3.000522   0.000000
     4  Na   3.001404   3.004663   2.991665   0.000000
     5  Na   2.995021   4.290450   5.062146   2.998170   0.000000
     6  Na   3.000056   3.011832   4.331776   4.028532   3.002048
     7  Na   2.996281   5.372528   5.057310   5.706454   4.594992
                    6          7
     6  Na   0.000000
     7  Na   2.995395   0.000000
 Stoichiometry    Na7(2)
 Framework group  C1[X(Na7)]
 Deg. of freedom    15
 Full point group                 C1      NOp   1
 Largest Abelian subgroup         C1      NOp   1
 Largest concise Abelian subgroup C1      NOp   1
                         Standard orientation:                         
 ---------------------------------------------------------------------
 Center     Atomic      Atomic             Coordinates (Angstroms)
 Number     Number       Type             X           Y           Z
 ---------------------------------------------------------------------
      1         11           0       -0.630068   -0.250555   -1.374174
      2         11           0        1.720869   -0.448162    1.840088
      3         11           0        1.719157   -2.004748   -0.725097
      4         11           0        2.049847    0.967888   -0.789471
      5         11           0       -0.454672    2.549382   -0.325487
      6         11           0       -1.179784    0.298275    1.523573
      7         11           0       -3.225349   -1.112080   -0.149433
 ---------------------------------------------------------------------
 Rotational constants (GHZ):           1.0029858           0.7003094           0.6181583
 Leave Link  202 at Mon Nov 13 16:46:18 2023, MaxMem=  1879048192 cpu:               0.1 elap:               0.0
 (Enter /home/sekinelabo/g16/l301.exe)
 Standard basis: 6-311+G(d) (5D, 7F)
 Ernie: Thresh=  0.10000D-02 Tol=  0.10000D-05 Strict=F.
 There are   217 symmetry adapted cartesian basis functions of A   symmetry.
 There are   210 symmetry adapted basis functions of A   symmetry.
   210 basis functions,   350 primitive gaussians,   217 cartesian basis functions
    39 alpha electrons       38 beta electrons
       nuclear repulsion energy       380.1652949068 Hartrees.
 IExCor=  402 DFT=T Ex+Corr=B3LYP ExCW=0 ScaHFX=  0.200000
 ScaDFX=  0.800000  0.720000  1.000000  0.810000 ScalE2=  1.000000  1.000000
 IRadAn=      5 IRanWt=     -1 IRanGd=            0 ICorTp=0 IEmpDi=  4
 NAtoms=    7 NActive=    7 NUniq=    7 SFac= 1.00D+00 NAtFMM=   60 NAOKFM=F Big=F
 Integral buffers will be    131072 words long.
 Raffenetti 2 integral format.
 Two-electron integral symmetry is turned on.
 Leave Link  301 at Mon Nov 13 16:46:18 2023, MaxMem=  1879048192 cpu:               0.6 elap:               0.0
 (Enter /home/sekinelabo/g16/l302.exe)
 NPDir=0 NMtPBC=     1 NCelOv=     1 NCel=       1 NClECP=     1 NCelD=      1
         NCelK=      1 NCelE2=     1 NClLst=     1 CellRange=     0.0.
 One-electron integrals computed using PRISM.
 One-electron integral symmetry used in STVInt
 NBasis=   210 RedAO= T EigKep=  2.68D-06  NBF=   210
 NBsUse=   209 1.00D-06 EigRej=  9.39D-07 NBFU=   209
 Precomputing XC quadrature grid using
 IXCGrd= 4 IRadAn=           5 IRanWt=          -1 IRanGd=           0 AccXCQ= 0.00D+00.
 Generated NRdTot=       0 NPtTot=           0 NUsed=           0 NTot=          32
 NSgBfM=   211   211   211   211   211 MxSgAt=     7 MxSgA2=     7.
 Leave Link  302 at Mon Nov 13 16:46:18 2023, MaxMem=  1879048192 cpu:               2.1 elap:               0.1
 (Enter /home/sekinelabo/g16/l303.exe)
 DipDrv:  MaxL=1.
 Leave Link  303 at Mon Nov 13 16:46:18 2023, MaxMem=  1879048192 cpu:               0.6 elap:               0.0
 (Enter /home/sekinelabo/g16/l401.exe)
 ExpMin= 7.60D-03 ExpMax= 3.62D+04 ExpMxC= 1.21D+03 IAcc=3 IRadAn=         5 AccDes= 0.00D+00
 Harris functional with IExCor=  402 and IRadAn=       5 diagonalized for initial guess.
 HarFok:  IExCor=  402 AccDes= 0.00D+00 IRadAn=         5 IDoV= 1 UseB2=F ITyADJ=14
 ICtDFT=  3500011 ScaDFX=  1.000000  1.000000  1.000000  1.000000
 FoFCou: FMM=F IPFlag=           0 FMFlag=      100000 FMFlg1=           0
         NFxFlg=           0 DoJE=T BraDBF=F KetDBF=T FulRan=T
         wScrn=  0.000000 ICntrl=       500 IOpCl=  0 I1Cent=   200000004 NGrid=           0
         NMat0=    1 NMatS0=      1 NMatT0=    0 NMatD0=    1 NMtDS0=    0 NMtDT0=    0
 Petite list used in FoFCou.
 Harris En= -1135.87571423088    
 JPrj=0 DoOrth=F DoCkMO=F.
 Initial guess <Sx>= 0.0000 <Sy>= 0.0000 <Sz>= 0.5000 <S**2>= 0.7500 S= 0.5000
 Leave Link  401 at Mon Nov 13 16:46:19 2023, MaxMem=  1879048192 cpu:               4.7 elap:               0.3
 (Enter /home/sekinelabo/g16/l502.exe)
 Keep R1 and R2 ints in memory in canonical form, NReq=507620374.
 FoFCou: FMM=F IPFlag=           0 FMFlag=           0 FMFlg1=           0
         NFxFlg=           0 DoJE=F BraDBF=F KetDBF=F FulRan=T
         wScrn=  0.000000 ICntrl=       600 IOpCl=  0 I1Cent=           0 NGrid=           0
         NMat0=    1 NMatS0=  22155 NMatT0=    0 NMatD0=    1 NMtDS0=    0 NMtDT0=    0
 Symmetry not used in FoFCou.
 Two-electron integral symmetry not used.
 UHF open shell SCF:
 Using DIIS extrapolation, IDIIS=  1040.
 NGot=  1879048192 LenX=  1388082362 LenY=  1388034832
 Requested convergence on RMS density matrix=1.00D-08 within 128 cycles.
 Requested convergence on MAX density matrix=1.00D-06.
 Requested convergence on             energy=1.00D-06.
 No special actions if energy rises.

 Cycle   1  Pass 1  IDiag  1:
 E= -1136.06140344078    
 DIIS: error= 1.31D-02 at cycle   1 NSaved=   1.
 NSaved= 1 IEnMin= 1 EnMin= -1136.06140344078     IErMin= 1 ErrMin= 1.31D-02
 ErrMax= 1.31D-02  0.00D+00 EMaxC= 1.00D-01 BMatC= 2.03D-01 BMatP= 2.03D-01
 IDIUse=3 WtCom= 8.69D-01 WtEn= 1.31D-01
 Coeff-Com:  0.100D+01
 Coeff-En:   0.100D+01
 Coeff:      0.100D+01
 Gap=     0.059 Goal=   None    Shift=    0.000
 Gap=     0.032 Goal=   None    Shift=    0.000
 GapD=    0.032 DampG=0.250 DampE=0.500 DampFc=0.2500 IDamp=-1.
 Damping current iteration by 2.50D-01
 RMSDP=3.33D-02 MaxDP=2.09D+00              OVMax= 2.44D-01

 Cycle   2  Pass 1  IDiag  1:
 E= -1136.07640141034     Delta-E=       -0.014997969554 Rises=F Damp=T
 DIIS: error= 8.29D-03 at cycle   2 NSaved=   2.
 NSaved= 2 IEnMin= 2 EnMin= -1136.07640141034     IErMin= 2 ErrMin= 8.29D-03
 ErrMax= 8.29D-03  0.00D+00 EMaxC= 1.00D-01 BMatC= 7.65D-02 BMatP= 2.03D-01
 IDIUse=3 WtCom= 9.17D-01 WtEn= 8.29D-02
 Coeff-Com: -0.126D+01 0.226D+01
 Coeff-En:   0.000D+00 0.100D+01
 Coeff:     -0.115D+01 0.215D+01
 Gap=     0.067 Goal=   None    Shift=    0.000
 Gap=     0.038 Goal=   None    Shift=    0.000
 RMSDP=1.22D-02 MaxDP=9.65D-01 DE=-1.50D-02 OVMax= 1.66D-01

 Cycle   3  Pass 1  IDiag  1:
 E= -1136.10114922397     Delta-E=       -0.024747813631 Rises=F Damp=F
 DIIS: error= 3.39D-03 at cycle   3 NSaved=   3.
 NSaved= 3 IEnMin= 3 EnMin= -1136.10114922397     IErMin= 3 ErrMin= 3.39D-03
 ErrMax= 3.39D-03  0.00D+00 EMaxC= 1.00D-01 BMatC= 4.17D-03 BMatP= 7.65D-02
 IDIUse=3 WtCom= 9.66D-01 WtEn= 3.39D-02
 Coeff-Com: -0.275D+00 0.493D+00 0.782D+00
 Coeff-En:   0.000D+00 0.000D+00 0.100D+01
 Coeff:     -0.266D+00 0.477D+00 0.789D+00
 Gap=     0.060 Goal=   None    Shift=    0.000
 Gap=     0.035 Goal=   None    Shift=    0.000
 RMSDP=7.61D-03 MaxDP=4.51D-01 DE=-2.47D-02 OVMax= 7.11D-02

 Cycle   4  Pass 1  IDiag  1:
 E= -1136.10159430239     Delta-E=       -0.000445078419 Rises=F Damp=F
 DIIS: error= 2.62D-03 at cycle   4 NSaved=   4.
 NSaved= 4 IEnMin= 4 EnMin= -1136.10159430239     IErMin= 4 ErrMin= 2.62D-03
 ErrMax= 2.62D-03  0.00D+00 EMaxC= 1.00D-01 BMatC= 3.29D-03 BMatP= 4.17D-03
 IDIUse=3 WtCom= 9.74D-01 WtEn= 2.62D-02
 Coeff-Com: -0.177D-02 0.363D-02 0.470D+00 0.529D+00
 Coeff-En:   0.000D+00 0.000D+00 0.464D+00 0.536D+00
 Coeff:     -0.173D-02 0.353D-02 0.469D+00 0.529D+00
 Gap=     0.063 Goal=   None    Shift=    0.000
 Gap=     0.037 Goal=   None    Shift=    0.000
 RMSDP=2.94D-03 MaxDP=1.58D-01 DE=-4.45D-04 OVMax= 4.10D-02

 Cycle   5  Pass 1  IDiag  1:
 E= -1136.10394315418     Delta-E=       -0.002348851791 Rises=F Damp=F
 DIIS: error= 4.60D-04 at cycle   5 NSaved=   5.
 NSaved= 5 IEnMin= 5 EnMin= -1136.10394315418     IErMin= 5 ErrMin= 4.60D-04
 ErrMax= 4.60D-04  0.00D+00 EMaxC= 1.00D-01 BMatC= 8.28D-05 BMatP= 3.29D-03
 IDIUse=3 WtCom= 9.95D-01 WtEn= 4.60D-03
 Coeff-Com: -0.128D-02 0.127D-02 0.262D+00 0.306D+00 0.432D+00
 Coeff-En:   0.000D+00 0.000D+00 0.000D+00 0.000D+00 0.100D+01
 Coeff:     -0.127D-02 0.126D-02 0.261D+00 0.305D+00 0.434D+00
 Gap=     0.063 Goal=   None    Shift=    0.000
 Gap=     0.036 Goal=   None    Shift=    0.000
 RMSDP=7.39D-04 MaxDP=4.93D-02 DE=-2.35D-03 OVMax= 9.20D-03

 Cycle   6  Pass 1  IDiag  1:
 E= -1136.10402501130     Delta-E=       -0.000081857127 Rises=F Damp=F
 DIIS: error= 1.09D-04 at cycle   6 NSaved=   6.
 NSaved= 6 IEnMin= 6 EnMin= -1136.10402501130     IErMin= 6 ErrMin= 1.09D-04
 ErrMax= 1.09D-04  0.00D+00 EMaxC= 1.00D-01 BMatC= 2.89D-06 BMatP= 8.28D-05
 IDIUse=3 WtCom= 9.99D-01 WtEn= 1.09D-03
 Coeff-Com: -0.183D-02 0.205D-02-0.371D-01-0.410D-01 0.971D-01 0.981D+00
 Coeff-En:   0.000D+00 0.000D+00 0.000D+00 0.000D+00 0.000D+00 0.100D+01
 Coeff:     -0.183D-02 0.204D-02-0.370D-01-0.409D-01 0.970D-01 0.981D+00
 Gap=     0.063 Goal=   None    Shift=    0.000
 Gap=     0.036 Goal=   None    Shift=    0.000
 RMSDP=2.04D-04 MaxDP=1.33D-02 DE=-8.19D-05 OVMax= 3.73D-03

 Cycle   7  Pass 1  IDiag  1:
 E= -1136.10403069402     Delta-E=       -0.000005682719 Rises=F Damp=F
 DIIS: error= 4.67D-05 at cycle   7 NSaved=   7.
 NSaved= 7 IEnMin= 7 EnMin= -1136.10403069402     IErMin= 7 ErrMin= 4.67D-05
 ErrMax= 4.67D-05  0.00D+00 EMaxC= 1.00D-01 BMatC= 7.19D-07 BMatP= 2.89D-06
 IDIUse=1 WtCom= 1.00D+00 WtEn= 0.00D+00
 Coeff-Com: -0.620D-03 0.652D-03-0.358D-01-0.399D-01 0.187D-01 0.419D+00
 Coeff-Com:  0.638D+00
 Coeff:     -0.620D-03 0.652D-03-0.358D-01-0.399D-01 0.187D-01 0.419D+00
 Coeff:      0.638D+00
 Gap=     0.063 Goal=   None    Shift=    0.000
 Gap=     0.037 Goal=   None    Shift=    0.000
 RMSDP=8.29D-05 MaxDP=7.25D-03 DE=-5.68D-06 OVMax= 2.18D-03

 Cycle   8  Pass 1  IDiag  1:
 E= -1136.10403191292     Delta-E=       -0.000001218895 Rises=F Damp=F
 DIIS: error= 3.54D-05 at cycle   8 NSaved=   8.
 NSaved= 8 IEnMin= 8 EnMin= -1136.10403191292     IErMin= 8 ErrMin= 3.54D-05
 ErrMax= 3.54D-05  0.00D+00 EMaxC= 1.00D-01 BMatC= 3.10D-07 BMatP= 7.19D-07
 IDIUse=1 WtCom= 1.00D+00 WtEn= 0.00D+00
 Coeff-Com:  0.525D-03-0.656D-03-0.961D-02-0.106D-01-0.227D-01-0.134D+00
 Coeff-Com:  0.407D+00 0.770D+00
 Coeff:      0.525D-03-0.656D-03-0.961D-02-0.106D-01-0.227D-01-0.134D+00
 Coeff:      0.407D+00 0.770D+00
 Gap=     0.063 Goal=   None    Shift=    0.000
 Gap=     0.037 Goal=   None    Shift=    0.000
 RMSDP=6.06D-05 MaxDP=3.48D-03 DE=-1.22D-06 OVMax= 2.36D-03

 Cycle   9  Pass 1  IDiag  1:
 E= -1136.10403281376     Delta-E=       -0.000000900845 Rises=F Damp=F
 DIIS: error= 1.52D-05 at cycle   9 NSaved=   9.
 NSaved= 9 IEnMin= 9 EnMin= -1136.10403281376     IErMin= 9 ErrMin= 1.52D-05
 ErrMax= 1.52D-05  0.00D+00 EMaxC= 1.00D-01 BMatC= 4.72D-08 BMatP= 3.10D-07
 IDIUse=1 WtCom= 1.00D+00 WtEn= 0.00D+00
 Coeff-Com:  0.468D-03-0.584D-03 0.285D-02 0.297D-02-0.855D-02-0.103D+00
 Coeff-Com:  0.121D-01 0.223D+00 0.871D+00
 Coeff:      0.468D-03-0.584D-03 0.285D-02 0.297D-02-0.855D-02-0.103D+00
 Coeff:      0.121D-01 0.223D+00 0.871D+00
 Gap=     0.063 Goal=   None    Shift=    0.000
 Gap=     0.037 Goal=   None    Shift=    0.000
 RMSDP=3.57D-05 MaxDP=2.87D-03 DE=-9.01D-07 OVMax= 1.71D-03

 Cycle  10  Pass 1  IDiag  1:
 E= -1136.10403308865     Delta-E=       -0.000000274890 Rises=F Damp=F
 DIIS: error= 1.11D-05 at cycle  10 NSaved=  10.
 NSaved=10 IEnMin=10 EnMin= -1136.10403308865     IErMin=10 ErrMin= 1.11D-05
 ErrMax= 1.11D-05  0.00D+00 EMaxC= 1.00D-01 BMatC= 3.93D-08 BMatP= 4.72D-08
 IDIUse=1 WtCom= 1.00D+00 WtEn= 0.00D+00
 Coeff-Com:  0.144D-03-0.173D-03 0.500D-02 0.519D-02 0.146D-02-0.267D-01
 Coeff-Com: -0.130D+00-0.951D-01 0.627D+00 0.614D+00
 Coeff:      0.144D-03-0.173D-03 0.500D-02 0.519D-02 0.146D-02-0.267D-01
 Coeff:     -0.130D+00-0.951D-01 0.627D+00 0.614D+00
 Gap=     0.063 Goal=   None    Shift=    0.000
 Gap=     0.037 Goal=   None    Shift=    0.000
 RMSDP=2.85D-05 MaxDP=2.54D-03 DE=-2.75D-07 OVMax= 1.22D-03

 Cycle  11  Pass 1  IDiag  1:
 E= -1136.10403326250     Delta-E=       -0.000000173847 Rises=F Damp=F
 DIIS: error= 9.01D-06 at cycle  11 NSaved=  11.
 NSaved=11 IEnMin=11 EnMin= -1136.10403326250     IErMin=11 ErrMin= 9.01D-06
 ErrMax= 9.01D-06  0.00D+00 EMaxC= 1.00D-01 BMatC= 9.83D-09 BMatP= 3.93D-08
 IDIUse=1 WtCom= 1.00D+00 WtEn= 0.00D+00
 Coeff-Com: -0.327D-03 0.428D-03 0.199D-03 0.137D-03 0.539D-02 0.432D-01
 Coeff-Com: -0.434D-01-0.128D+00-0.378D+00 0.111D+00 0.139D+01
 Coeff:     -0.327D-03 0.428D-03 0.199D-03 0.137D-03 0.539D-02 0.432D-01
 Coeff:     -0.434D-01-0.128D+00-0.378D+00 0.111D+00 0.139D+01
 Gap=     0.063 Goal=   None    Shift=    0.000
 Gap=     0.037 Goal=   None    Shift=    0.000
 RMSDP=4.13D-05 MaxDP=3.83D-03 DE=-1.74D-07 OVMax= 2.03D-03

 Cycle  12  Pass 1  IDiag  1:
 E= -1136.10403341519     Delta-E=       -0.000000152693 Rises=F Damp=F
 DIIS: error= 4.83D-06 at cycle  12 NSaved=  12.
 NSaved=12 IEnMin=12 EnMin= -1136.10403341519     IErMin=12 ErrMin= 4.83D-06
 ErrMax= 4.83D-06  0.00D+00 EMaxC= 1.00D-01 BMatC= 3.57D-09 BMatP= 9.83D-09
 IDIUse=1 WtCom= 1.00D+00 WtEn= 0.00D+00
 Coeff-Com: -0.136D-03 0.170D-03-0.157D-02-0.160D-02 0.237D-02 0.238D-01
 Coeff-Com:  0.183D-01-0.111D-01-0.294D+00-0.152D+00 0.422D+00 0.994D+00
 Coeff:     -0.136D-03 0.170D-03-0.157D-02-0.160D-02 0.237D-02 0.238D-01
 Coeff:      0.183D-01-0.111D-01-0.294D+00-0.152D+00 0.422D+00 0.994D+00
 Gap=     0.063 Goal=   None    Shift=    0.000
 Gap=     0.037 Goal=   None    Shift=    0.000
 RMSDP=2.23D-05 MaxDP=2.10D-03 DE=-1.53D-07 OVMax= 1.10D-03

 Cycle  13  Pass 1  IDiag  1:
 E= -1136.10403346105     Delta-E=       -0.000000045855 Rises=F Damp=F
 DIIS: error= 2.77D-06 at cycle  13 NSaved=  13.
 NSaved=13 IEnMin=13 EnMin= -1136.10403346105     IErMin=13 ErrMin= 2.77D-06
 ErrMax= 2.77D-06  0.00D+00 EMaxC= 1.00D-01 BMatC= 1.17D-09 BMatP= 3.57D-09
 IDIUse=1 WtCom= 1.00D+00 WtEn= 0.00D+00
 Coeff-Com:  0.172D-03-0.225D-03-0.331D-03-0.317D-03-0.286D-02-0.211D-01
 Coeff-Com:  0.284D-01 0.791D-01 0.138D+00-0.987D-01-0.585D+00-0.566D-01
 Coeff-Com:  0.152D+01
 Coeff:      0.172D-03-0.225D-03-0.331D-03-0.317D-03-0.286D-02-0.211D-01
 Coeff:      0.284D-01 0.791D-01 0.138D+00-0.987D-01-0.585D+00-0.566D-01
 Coeff:      0.152D+01
 Gap=     0.063 Goal=   None    Shift=    0.000
 Gap=     0.037 Goal=   None    Shift=    0.000
 RMSDP=1.94D-05 MaxDP=1.81D-03 DE=-4.59D-08 OVMax= 1.02D-03

 Cycle  14  Pass 1  IDiag  1:
 E= -1136.10403348324     Delta-E=       -0.000000022188 Rises=F Damp=F
 DIIS: error= 9.54D-07 at cycle  14 NSaved=  14.
 NSaved=14 IEnMin=14 EnMin= -1136.10403348324     IErMin=14 ErrMin= 9.54D-07
 ErrMax= 9.54D-07  0.00D+00 EMaxC= 1.00D-01 BMatC= 2.07D-10 BMatP= 1.17D-09
 IDIUse=1 WtCom= 1.00D+00 WtEn= 0.00D+00
 Coeff-Com:  0.325D-04-0.404D-04 0.148D-03 0.143D-03-0.546D-03-0.378D-02
 Coeff-Com: -0.244D-02 0.231D-02 0.746D-01 0.342D-01-0.132D+00-0.246D+00
 Coeff-Com:  0.672D-01 0.121D+01
 Coeff:      0.325D-04-0.404D-04 0.148D-03 0.143D-03-0.546D-03-0.378D-02
 Coeff:     -0.244D-02 0.231D-02 0.746D-01 0.342D-01-0.132D+00-0.246D+00
 Coeff:      0.672D-01 0.121D+01
 Gap=     0.063 Goal=   None    Shift=    0.000
 Gap=     0.037 Goal=   None    Shift=    0.000
 RMSDP=7.12D-06 MaxDP=7.06D-04 DE=-2.22D-08 OVMax= 3.94D-04

 Cycle  15  Pass 1  IDiag  1:
 E= -1136.10403348648     Delta-E=       -0.000000003241 Rises=F Damp=F
 DIIS: error= 3.22D-07 at cycle  15 NSaved=  15.
 NSaved=15 IEnMin=15 EnMin= -1136.10403348648     IErMin=15 ErrMin= 3.22D-07
 ErrMax= 3.22D-07  0.00D+00 EMaxC= 1.00D-01 BMatC= 3.56D-11 BMatP= 2.07D-10
 IDIUse=1 WtCom= 1.00D+00 WtEn= 0.00D+00
 Coeff-Com: -0.360D-04 0.475D-04 0.522D-04 0.284D-04 0.670D-03 0.384D-02
 Coeff-Com: -0.530D-02-0.121D-01-0.351D-01 0.757D-02 0.132D+00 0.565D-01
 Coeff-Com: -0.314D+00-0.176D+00 0.134D+01
 Coeff:     -0.360D-04 0.475D-04 0.522D-04 0.284D-04 0.670D-03 0.384D-02
 Coeff:     -0.530D-02-0.121D-01-0.351D-01 0.757D-02 0.132D+00 0.565D-01
 Coeff:     -0.314D+00-0.176D+00 0.134D+01
 Gap=     0.063 Goal=   None    Shift=    0.000
 Gap=     0.037 Goal=   None    Shift=    0.000
 RMSDP=2.12D-06 MaxDP=1.87D-04 DE=-3.24D-09 OVMax= 1.09D-04

 Cycle  16  Pass 1  IDiag  1:
 E= -1136.10403348687     Delta-E=       -0.000000000396 Rises=F Damp=F
 DIIS: error= 1.14D-07 at cycle  16 NSaved=  16.
 NSaved=16 IEnMin=16 EnMin= -1136.10403348687     IErMin=16 ErrMin= 1.14D-07
 ErrMax= 1.14D-07  0.00D+00 EMaxC= 1.00D-01 BMatC= 4.60D-12 BMatP= 3.56D-11
 IDIUse=1 WtCom= 1.00D+00 WtEn= 0.00D+00
 Coeff-Com:  0.175D-05-0.276D-05-0.155D-04-0.106D-04-0.293D-04-0.433D-04
 Coeff-Com:  0.905D-03 0.125D-02-0.361D-02-0.901D-02-0.141D-03 0.246D-01
 Coeff-Com:  0.404D-01-0.160D+00-0.199D+00 0.131D+01
 Coeff:      0.175D-05-0.276D-05-0.155D-04-0.106D-04-0.293D-04-0.433D-04
 Coeff:      0.905D-03 0.125D-02-0.361D-02-0.901D-02-0.141D-03 0.246D-01
 Coeff:      0.404D-01-0.160D+00-0.199D+00 0.131D+01
 Gap=     0.063 Goal=   None    Shift=    0.000
 Gap=     0.037 Goal=   None    Shift=    0.000
 RMSDP=8.38D-07 MaxDP=6.65D-05 DE=-3.96D-10 OVMax= 3.80D-05

 Cycle  17  Pass 1  IDiag  1:
 E= -1136.10403348692     Delta-E=       -0.000000000044 Rises=F Damp=F
 DIIS: error= 4.49D-08 at cycle  17 NSaved=  17.
 NSaved=17 IEnMin=17 EnMin= -1136.10403348692     IErMin=17 ErrMin= 4.49D-08
 ErrMax= 4.49D-08  0.00D+00 EMaxC= 1.00D-01 BMatC= 8.85D-13 BMatP= 4.60D-12
 IDIUse=1 WtCom= 1.00D+00 WtEn= 0.00D+00
 Coeff-Com:  0.404D-05-0.547D-05-0.136D-04-0.811D-05-0.758D-04-0.395D-03
 Coeff-Com:  0.866D-03 0.149D-02 0.245D-02-0.171D-02-0.152D-01-0.613D-03
 Coeff-Com:  0.434D-01-0.797D-02-0.212D+00 0.294D+00 0.896D+00
 Coeff:      0.404D-05-0.547D-05-0.136D-04-0.811D-05-0.758D-04-0.395D-03
 Coeff:      0.866D-03 0.149D-02 0.245D-02-0.171D-02-0.152D-01-0.613D-03
 Coeff:      0.434D-01-0.797D-02-0.212D+00 0.294D+00 0.896D+00
 Gap=     0.063 Goal=   None    Shift=    0.000
 Gap=     0.037 Goal=   None    Shift=    0.000
 RMSDP=1.75D-07 MaxDP=8.74D-06 DE=-4.41D-11 OVMax= 5.17D-06

 Cycle  18  Pass 1  IDiag  1:
 E= -1136.10403348693     Delta-E=       -0.000000000015 Rises=F Damp=F
 DIIS: error= 2.32D-08 at cycle  18 NSaved=  18.
 NSaved=18 IEnMin=18 EnMin= -1136.10403348693     IErMin=18 ErrMin= 2.32D-08
 ErrMax= 2.32D-08  0.00D+00 EMaxC= 1.00D-01 BMatC= 1.95D-13 BMatP= 8.85D-13
 IDIUse=1 WtCom= 1.00D+00 WtEn= 0.00D+00
 Coeff-Com:  0.107D-05-0.133D-05 0.154D-06 0.332D-06-0.132D-04-0.183D-03
 Coeff-Com:  0.359D-04 0.423D-03 0.166D-02 0.117D-02-0.437D-02-0.568D-02
 Coeff-Com:  0.368D-02 0.319D-01 0.674D-02-0.263D+00 0.181D+00 0.105D+01
 Coeff:      0.107D-05-0.133D-05 0.154D-06 0.332D-06-0.132D-04-0.183D-03
 Coeff:      0.359D-04 0.423D-03 0.166D-02 0.117D-02-0.437D-02-0.568D-02
 Coeff:      0.368D-02 0.319D-01 0.674D-02-0.263D+00 0.181D+00 0.105D+01
 Gap=     0.063 Goal=   None    Shift=    0.000
 Gap=     0.037 Goal=   None    Shift=    0.000
 RMSDP=1.04D-07 MaxDP=6.02D-06 DE=-1.55D-11 OVMax= 2.50D-06

 Cycle  19  Pass 1  IDiag  1:
 E= -1136.10403348691     Delta-E=        0.000000000022 Rises=F Damp=F
 DIIS: error= 9.27D-09 at cycle  19 NSaved=  19.
 NSaved=19 IEnMin=18 EnMin= -1136.10403348693     IErMin=19 ErrMin= 9.27D-09
 ErrMax= 9.27D-09  0.00D+00 EMaxC= 1.00D-01 BMatC= 2.32D-14 BMatP= 1.95D-13
 IDIUse=1 WtCom= 1.00D+00 WtEn= 0.00D+00
 Coeff-Com: -0.781D-06 0.105D-05 0.213D-05 0.121D-05 0.102D-04 0.717D-04
 Coeff-Com: -0.112D-03-0.281D-03-0.584D-03 0.172D-03 0.297D-02 0.311D-03
 Coeff-Com: -0.715D-02-0.279D-02 0.368D-01-0.296D-01-0.149D+00-0.118D+00
 Coeff-Com:  0.127D+01
 Coeff:     -0.781D-06 0.105D-05 0.213D-05 0.121D-05 0.102D-04 0.717D-04
 Coeff:     -0.112D-03-0.281D-03-0.584D-03 0.172D-03 0.297D-02 0.311D-03
 Coeff:     -0.715D-02-0.279D-02 0.368D-01-0.296D-01-0.149D+00-0.118D+00
 Coeff:      0.127D+01
 Gap=     0.063 Goal=   None    Shift=    0.000
 Gap=     0.037 Goal=   None    Shift=    0.000
 RMSDP=5.18D-08 MaxDP=3.06D-06 DE= 2.23D-11 OVMax= 1.18D-06

 Cycle  20  Pass 1  IDiag  1:
 E= -1136.10403348692     Delta-E=       -0.000000000012 Rises=F Damp=F
 DIIS: error= 2.99D-09 at cycle  20 NSaved=  20.
 NSaved=20 IEnMin=18 EnMin= -1136.10403348693     IErMin=20 ErrMin= 2.99D-09
 ErrMax= 2.99D-09  0.00D+00 EMaxC= 1.00D-01 BMatC= 3.37D-15 BMatP= 2.32D-14
 IDIUse=1 WtCom= 1.00D+00 WtEn= 0.00D+00
 Large coefficients: NSaved= 20 BigCof=    0.00 CofMax=   10.00 Det=-5.83D-15
 Inversion failed.  Reducing to 19 matrices.
 Large coefficients: NSaved= 19 BigCof=    0.00 CofMax=   10.00 Det=-6.76D-15
 Inversion failed.  Reducing to 18 matrices.
 Large coefficients: NSaved= 18 BigCof=    0.00 CofMax=   10.00 Det=-6.79D-15
 Inversion failed.  Reducing to 17 matrices.
 Large coefficients: NSaved= 17 BigCof=    0.00 CofMax=   10.00 Det=-6.89D-15
 Inversion failed.  Reducing to 16 matrices.
 Large coefficients: NSaved= 16 BigCof=    0.00 CofMax=   10.00 Det=-7.50D-15
 Inversion failed.  Reducing to 15 matrices.
 Coeff-Com:  0.129D-04 0.116D-04-0.772D-05-0.142D-03-0.173D-03 0.201D-03
 Coeff-Com:  0.946D-03 0.195D-04-0.399D-02-0.373D-02 0.410D-01-0.326D-01
 Coeff-Com: -0.116D+00-0.307D-01 0.115D+01
 Coeff:      0.129D-04 0.116D-04-0.772D-05-0.142D-03-0.173D-03 0.201D-03
 Coeff:      0.946D-03 0.195D-04-0.399D-02-0.373D-02 0.410D-01-0.326D-01
 Coeff:     -0.116D+00-0.307D-01 0.115D+01
 Gap=     0.063 Goal=   None    Shift=    0.000
 Gap=     0.037 Goal=   None    Shift=    0.000
 RMSDP=1.69D-08 MaxDP=1.04D-06 DE=-1.23D-11 OVMax= 4.45D-07

 Cycle  21  Pass 1  IDiag  1:
 E= -1136.10403348691     Delta-E=        0.000000000008 Rises=F Damp=F
 DIIS: error= 1.27D-09 at cycle  21 NSaved=  16.
 NSaved=16 IEnMin=13 EnMin= -1136.10403348693     IErMin=16 ErrMin= 1.27D-09
 ErrMax= 1.27D-09  0.00D+00 EMaxC= 1.00D-01 BMatC= 6.42D-16 BMatP= 3.37D-15
 IDIUse=1 WtCom= 1.00D+00 WtEn= 0.00D+00
 Large coefficients: NSaved= 16 BigCof=    0.00 CofMax=   10.00 Det=-1.13D-15
 Inversion failed.  Reducing to 15 matrices.
 Coeff-Com: -0.454D-05-0.758D-05-0.911D-05-0.161D-04 0.283D-04 0.592D-04
 Coeff-Com:  0.118D-03-0.322D-03-0.270D-02 0.789D-02 0.869D-02-0.156D-01
 Coeff-Com: -0.110D+00 0.117D+00 0.995D+00
 Coeff:     -0.454D-05-0.758D-05-0.911D-05-0.161D-04 0.283D-04 0.592D-04
 Coeff:      0.118D-03-0.322D-03-0.270D-02 0.789D-02 0.869D-02-0.156D-01
 Coeff:     -0.110D+00 0.117D+00 0.995D+00
 Gap=     0.063 Goal=   None    Shift=    0.000
 Gap=     0.037 Goal=   None    Shift=    0.000
 RMSDP=6.10D-09 MaxDP=3.92D-07 DE= 7.73D-12 OVMax= 1.53D-07

 SCF Done:  E(UB3LYP) =  -1136.10403349     A.U. after   21 cycles
            NFock= 21  Conv=0.61D-08     -V/T= 2.0025
 <Sx>= 0.0000 <Sy>= 0.0000 <Sz>= 0.5000 <S**2>= 0.7614 S= 0.5057
 <L.S>= 0.000000000000E+00
 KE= 1.133279392041D+03 PE=-3.489899034624D+03 EE= 8.403503141887D+02
 Annihilation of the first spin contaminant:
 S**2 before annihilation     0.7614,   after     0.7501
 Leave Link  502 at Mon Nov 13 16:46:37 2023, MaxMem=  1879048192 cpu:             207.4 elap:              17.9
 (Enter /home/sekinelabo/g16/l601.exe)
 Copying SCF densities to generalized density rwf, IOpCl= 1 IROHF=0.

 **********************************************************************

            Population analysis using the SCF Density.

 **********************************************************************

 Orbital symmetries:
 Alpha Orbitals:
       Occupied  (A) (A) (A) (A) (A) (A) (A) (A) (A) (A) (A) (A)
                 (A) (A) (A) (A) (A) (A) (A) (A) (A) (A) (A) (A)
                 (A) (A) (A) (A) (A) (A) (A) (A) (A) (A) (A) (A)
                 (A) (A) (A)
       Virtual   (A) (A) (A) (A) (A) (A) (A) (A) (A) (A) (A) (A)
                 (A) (A) (A) (A) (A) (A) (A) (A) (A) (A) (A) (A)
                 (A) (A) (A) (A) (A) (A) (A) (A) (A) (A) (A) (A)
                 (A) (A) (A) (A) (A) (A) (A) (A) (A) (A) (A) (A)
                 (A) (A) (A) (A) (A) (A) (A) (A) (A) (A) (A) (A)
                 (A) (A) (A) (A) (A) (A) (A) (A) (A) (A) (A) (A)
                 (A) (A) (A) (A) (A) (A) (A) (A) (A) (A) (A) (A)
                 (A) (A) (A) (A) (A) (A) (A) (A) (A) (A) (A) (A)
                 (A) (A) (A) (A) (A) (A) (A) (A) (A) (A) (A) (A)
                 (A) (A) (A) (A) (A) (A) (A) (A) (A) (A) (A) (A)
                 (A) (A) (A) (A) (A) (A) (A) (A) (A) (A) (A) (A)
                 (A) (A) (A) (A) (A) (A) (A) (A) (A) (A) (A) (A)
                 (A) (A) (A) (A) (A) (A) (A) (A) (A) (A) (A) (A)
                 (A) (A) (A) (A) (A) (A) (A) (A) (A) (A) (A) (A)
                 (A) (A)
 Beta  Orbitals:
       Occupied  (A) (A) (A) (A) (A) (A) (A) (A) (A) (A) (A) (A)
                 (A) (A) (A) (A) (A) (A) (A) (A) (A) (A) (A) (A)
                 (A) (A) (A) (A) (A) (A) (A) (A) (A) (A) (A) (A)
                 (A) (A)
       Virtual   (A) (A) (A) (A) (A) (A) (A) (A) (A) (A) (A) (A)
                 (A) (A) (A) (A) (A) (A) (A) (A) (A) (A) (A) (A)
                 (A) (A) (A) (A) (A) (A) (A) (A) (A) (A) (A) (A)
                 (A) (A) (A) (A) (A) (A) (A) (A) (A) (A) (A) (A)
                 (A) (A) (A) (A) (A) (A) (A) (A) (A) (A) (A) (A)
                 (A) (A) (A) (A) (A) (A) (A) (A) (A) (A) (A) (A)
                 (A) (A) (A) (A) (A) (A) (A) (A) (A) (A) (A) (A)
                 (A) (A) (A) (A) (A) (A) (A) (A) (A) (A) (A) (A)
                 (A) (A) (A) (A) (A) (A) (A) (A) (A) (A) (A) (A)
                 (A) (A) (A) (A) (A) (A) (A) (A) (A) (A) (A) (A)
                 (A) (A) (A) (A) (A) (A) (A) (A) (A) (A) (A) (A)
                 (A) (A) (A) (A) (A) (A) (A) (A) (A) (A) (A) (A)
                 (A) (A) (A) (A) (A) (A) (A) (A) (A) (A) (A) (A)
                 (A) (A) (A) (A) (A) (A) (A) (A) (A) (A) (A) (A)
                 (A) (A) (A)
 The electronic state is 2-A.
 Alpha  occ. eigenvalues --  -38.44498 -38.44004 -38.43913 -38.43650 -38.43568
 Alpha  occ. eigenvalues --  -38.43560 -38.42712  -2.20504  -2.20007  -2.19890
 Alpha  occ. eigenvalues --   -2.19764  -2.19741  -2.19555  -2.18703  -1.14218
 Alpha  occ. eigenvalues --   -1.14191  -1.14113  -1.13805  -1.13719  -1.13670
 Alpha  occ. eigenvalues --   -1.13639  -1.13557  -1.13497  -1.13474  -1.13467
 Alpha  occ. eigenvalues --   -1.13402  -1.13399  -1.13365  -1.13282  -1.13186
 Alpha  occ. eigenvalues --   -1.13176  -1.13128  -1.12397  -1.12354  -1.12303
 Alpha  occ. eigenvalues --   -0.20308  -0.13777  -0.12386  -0.11970
 Alpha virt. eigenvalues --   -0.05641  -0.04439  -0.04196  -0.03617  -0.03025
 Alpha virt. eigenvalues --   -0.02856  -0.01365  -0.00619  -0.00341   0.00335
 Alpha virt. eigenvalues --    0.00582   0.00694   0.00723   0.00863   0.01098
 Alpha virt. eigenvalues --    0.01179   0.01255   0.01267   0.01291   0.01406
 Alpha virt. eigenvalues --    0.01460   0.01603   0.01782   0.01893   0.01987
 Alpha virt. eigenvalues --    0.02584   0.02675   0.02696   0.02864   0.02914
 Alpha virt. eigenvalues --    0.02938   0.02990   0.03001   0.03130   0.03168
 Alpha virt. eigenvalues --    0.03214   0.03273   0.03640   0.03845   0.04093
 Alpha virt. eigenvalues --    0.04388   0.04670   0.04852   0.05046   0.05083
 Alpha virt. eigenvalues --    0.05487   0.05646   0.06026   0.06248   0.06527
 Alpha virt. eigenvalues --    0.06817   0.06982   0.07081   0.07180   0.07928
 Alpha virt. eigenvalues --    0.07998   0.08452   0.08761   0.08893   0.09317
 Alpha virt. eigenvalues --    0.09612   0.10552   0.11323   0.12255   0.12856
 Alpha virt. eigenvalues --    0.13095   0.13425   0.13741   0.14023   0.14193
 Alpha virt. eigenvalues --    0.14429   0.14670   0.14817   0.15458   0.15602
 Alpha virt. eigenvalues --    0.15951   0.16694   0.17415   0.21000   0.23003
 Alpha virt. eigenvalues --    0.25246   0.26525   0.27159   0.27897   0.30148
 Alpha virt. eigenvalues --    0.31026   0.31634   0.32652   0.34452   0.35883
 Alpha virt. eigenvalues --    0.36679   0.36976   0.37146   0.39492   0.39679
 Alpha virt. eigenvalues --    0.39998   0.41176   0.41576   0.43404   0.43990
 Alpha virt. eigenvalues --    0.44304   0.44662   0.45144   0.45875   0.45929
 Alpha virt. eigenvalues --    0.46607   0.47042   0.47201   0.47876   0.48671
 Alpha virt. eigenvalues --    0.49055   0.49987   0.50962   0.51557   0.52125
 Alpha virt. eigenvalues --    0.52697   0.53184   0.53905   0.54316   0.55265
 Alpha virt. eigenvalues --    0.56470   0.57033   0.58050   0.63468   0.65782
 Alpha virt. eigenvalues --    0.68600   0.69834   0.71219   0.72719   0.73113
 Alpha virt. eigenvalues --    0.74546   0.76179   0.77421   0.77906   0.81543
 Alpha virt. eigenvalues --    2.10177   2.16076   2.21929   2.23655   2.27909
 Alpha virt. eigenvalues --    2.31976   2.36241   4.40827   4.41182   4.41492
 Alpha virt. eigenvalues --    4.42300   4.42906   4.43059   4.43860   4.45929
 Alpha virt. eigenvalues --    4.48726   4.48850   4.49588   4.57473   4.60229
 Alpha virt. eigenvalues --    4.62563   4.64421   4.67985   4.69724   4.72581
 Alpha virt. eigenvalues --    4.75538   4.78968   4.83204  96.30913  96.39205
 Alpha virt. eigenvalues --   96.46981  96.49358  96.55268  96.60690  96.66965
  Beta  occ. eigenvalues --  -38.44422 -38.44005 -38.43855 -38.43625 -38.43549
  Beta  occ. eigenvalues --  -38.43499 -38.42706  -2.20367  -2.19908  -2.19888
  Beta  occ. eigenvalues --   -2.19708  -2.19652  -2.19523  -2.18697  -1.14125
  Beta  occ. eigenvalues --   -1.14088  -1.14018  -1.13749  -1.13665  -1.13625
  Beta  occ. eigenvalues --   -1.13565  -1.13527  -1.13493  -1.13433  -1.13419
  Beta  occ. eigenvalues --   -1.13361  -1.13336  -1.13304  -1.13211  -1.13159
  Beta  occ. eigenvalues --   -1.13124  -1.13108  -1.12393  -1.12329  -1.12296
  Beta  occ. eigenvalues --   -0.19483  -0.13640  -0.11717
  Beta virt. eigenvalues --   -0.08054  -0.05512  -0.04351  -0.03570  -0.03220
  Beta virt. eigenvalues --   -0.02185  -0.02118  -0.01290  -0.00585  -0.00037
  Beta virt. eigenvalues --    0.00366   0.00615   0.00725   0.00847   0.00947
  Beta virt. eigenvalues --    0.01188   0.01237   0.01334   0.01351   0.01427
  Beta virt. eigenvalues --    0.01523   0.01536   0.01638   0.01834   0.01921
  Beta virt. eigenvalues --    0.02188   0.02632   0.02681   0.02776   0.02852
  Beta virt. eigenvalues --    0.02942   0.02952   0.03031   0.03078   0.03183
  Beta virt. eigenvalues --    0.03206   0.03311   0.03393   0.03733   0.03954
  Beta virt. eigenvalues --    0.04209   0.04472   0.04820   0.04962   0.05246
  Beta virt. eigenvalues --    0.05263   0.05603   0.05822   0.06046   0.06274
  Beta virt. eigenvalues --    0.06585   0.06861   0.07098   0.07225   0.07326
  Beta virt. eigenvalues --    0.08019   0.08037   0.08663   0.08961   0.09107
  Beta virt. eigenvalues --    0.09464   0.09648   0.10852   0.11813   0.12636
  Beta virt. eigenvalues --    0.13049   0.13333   0.13546   0.13944   0.14217
  Beta virt. eigenvalues --    0.14524   0.14605   0.14786   0.14859   0.15728
  Beta virt. eigenvalues --    0.15915   0.16165   0.17033   0.17679   0.21324
  Beta virt. eigenvalues --    0.23291   0.25616   0.26744   0.27759   0.28168
  Beta virt. eigenvalues --    0.30572   0.31313   0.32109   0.33038   0.34755
  Beta virt. eigenvalues --    0.35967   0.36904   0.37076   0.37444   0.39672
  Beta virt. eigenvalues --    0.39847   0.40516   0.41394   0.41933   0.43466
  Beta virt. eigenvalues --    0.44209   0.44584   0.44836   0.45374   0.45962
  Beta virt. eigenvalues --    0.46163   0.46742   0.47132   0.47418   0.48198
  Beta virt. eigenvalues --    0.48897   0.49241   0.50141   0.51185   0.51783
  Beta virt. eigenvalues --    0.52288   0.52826   0.53443   0.54140   0.54491
  Beta virt. eigenvalues --    0.55443   0.56745   0.57278   0.58299   0.63658
  Beta virt. eigenvalues --    0.65948   0.68683   0.70065   0.71444   0.72879
  Beta virt. eigenvalues --    0.73347   0.74757   0.76375   0.77644   0.78119
  Beta virt. eigenvalues --    0.81716   2.10315   2.16129   2.21964   2.23865
  Beta virt. eigenvalues --    2.28020   2.32135   2.36450   4.40913   4.41272
  Beta virt. eigenvalues --    4.41568   4.42382   4.42970   4.43122   4.43920
  Beta virt. eigenvalues --    4.45929   4.48758   4.48889   4.49636   4.57563
  Beta virt. eigenvalues --    4.60307   4.62630   4.64466   4.68047   4.69762
  Beta virt. eigenvalues --    4.72656   4.75617   4.79016   4.83249  96.30961
  Beta virt. eigenvalues --   96.39223  96.46999  96.49422  96.55311  96.60746
  Beta virt. eigenvalues --   96.67035
          Condensed to atoms (all electrons):
               1          2          3          4          5          6
     1  Na  12.557515  -0.302495   0.080742  -0.009035  -0.421754   0.479464
     2  Na  -0.302495  11.287255  -0.261282   0.681888  -0.576566  -0.171028
     3  Na   0.080742  -0.261282  12.414034  -1.048543   0.452297   0.089271
     4  Na  -0.009035   0.681888  -1.048543  12.813644  -1.036201  -1.016458
     5  Na  -0.421754  -0.576566   0.452297  -1.036201  12.159931   0.453375
     6  Na   0.479464  -0.171028   0.089271  -1.016458   0.453375  11.662375
     7  Na  -1.295603   0.214072  -0.612932   0.362148   0.045781  -0.315876
               7
     1  Na  -1.295603
     2  Na   0.214072
     3  Na  -0.612932
     4  Na   0.362148
     5  Na   0.045781
     6  Na  -0.315876
     7  Na  12.522720
          Atomic-Atomic Spin Densities.
               1          2          3          4          5          6
     1  Na   0.251547   0.039463   0.015070   0.006194  -0.087644   0.109512
     2  Na   0.039463   0.170568  -0.076440  -0.068691   0.061135   0.163708
     3  Na   0.015070  -0.076440   0.030213   0.028616   0.064466  -0.006625
     4  Na   0.006194  -0.068691   0.028616  -0.073356   0.068004   0.075493
     5  Na  -0.087644   0.061135   0.064466   0.068004   0.009724  -0.078895
     6  Na   0.109512   0.163708  -0.006625   0.075493  -0.078895   0.066640
     7  Na  -0.208036   0.003550   0.058523   0.109318   0.087539  -0.189207
               7
     1  Na  -0.208036
     2  Na   0.003550
     3  Na   0.058523
     4  Na   0.109318
     5  Na   0.087539
     6  Na  -0.189207
     7  Na   0.194560
 Mulliken charges and spin densities:
               1          2
     1  Na  -0.088833   0.126106
     2  Na   0.128156   0.293294
     3  Na  -0.113587   0.113822
     4  Na   0.252557   0.145578
     5  Na  -0.076863   0.124328
     6  Na  -0.181122   0.140626
     7  Na   0.079691   0.056247
 Sum of Mulliken charges =  -0.00000   1.00000
 Mulliken charges and spin densities with hydrogens summed into heavy atoms:
               1          2
     1  Na  -0.088833   0.126106
     2  Na   0.128156   0.293294
     3  Na  -0.113587   0.113822
     4  Na   0.252557   0.145578
     5  Na  -0.076863   0.124328
     6  Na  -0.181122   0.140626
     7  Na   0.079691   0.056247
 Electronic spatial extent (au):  <R**2>=           1891.0828
 Charge=              0.0000 electrons
 Dipole moment (field-independent basis, Debye):
    X=             -0.0626    Y=             -0.2092    Z=              0.2324  Tot=              0.3189
 Quadrupole moment (field-independent basis, Debye-Ang):
   XX=            -58.8041   YY=            -70.3288   ZZ=            -66.7262
   XY=              0.1905   XZ=              0.3109   YZ=              0.9529
 Traceless Quadrupole moment (field-independent basis, Debye-Ang):
   XX=              6.4822   YY=             -5.0424   ZZ=             -1.4398
   XY=              0.1905   XZ=              0.3109   YZ=              0.9529
 Octapole moment (field-independent basis, Debye-Ang**2):
  XXX=            -18.8931  YYY=              2.7877  ZZZ=             10.4610  XYY=             -0.7864
  XXY=             -8.4554  XXZ=             -1.2712  XZZ=              5.3504  YZZ=             -2.3783
  YYZ=             -7.2870  XYZ=             -1.6724
 Hexadecapole moment (field-independent basis, Debye-Ang**3):
 XXXX=          -1382.1162 YYYY=          -1037.0606 ZZZZ=           -775.8074 XXXY=             85.7492
 XXXZ=              4.4066 YYYX=            -50.1421 YYYZ=             11.6458 ZZZX=             19.1370
 ZZZY=              2.2126 XXYY=           -408.3504 XXZZ=           -365.5827 YYZZ=           -327.5987
 XXYZ=              1.8896 YYXZ=            -12.2741 ZZXY=            -10.8176
 N-N= 3.801652949068D+02 E-N=-3.489899034639D+03  KE= 1.133279392041D+03
                          Isotropic Fermi Contact Couplings
        Atom                 a.u.       MegaHertz       Gauss      10(-4) cm-1
     1  Na(23)             0.20929     247.59178      88.34690      82.58773
     2  Na(23)             0.29972     354.57441     126.52097     118.27329
     3  Na(23)             0.03582      42.37311      15.11978      14.13415
     4  Na(23)             0.04293      50.78299      18.12064      16.93938
     5  Na(23)            -0.01806     -21.36015      -7.62183      -7.12498
     6  Na(23)             0.20545     243.05386      86.72766      81.07404
     7  Na(23)            -0.01765     -20.87782      -7.44972      -6.96409
 --------------------------------------------------------
       Center         ----  Spin Dipole Couplings  ----
                      3XX-RR        3YY-RR        3ZZ-RR
 --------------------------------------------------------
     1   Atom        0.005301     -0.004989     -0.000312
     2   Atom        0.015825     -0.003003     -0.012822
     3   Atom       -0.013684     -0.011241      0.024925
     4   Atom       -0.013561     -0.021851      0.035413
     5   Atom       -0.016100     -0.012885      0.028984
     6   Atom        0.013306     -0.016818      0.003512
     7   Atom       -0.003617     -0.007155      0.010772
 --------------------------------------------------------
                        XY            XZ            YZ
 --------------------------------------------------------
     1   Atom        0.000877     -0.019800     -0.002323
     2   Atom       -0.009121     -0.013003      0.004008
     3   Atom       -0.007716      0.012308     -0.023820
     4   Atom        0.008235      0.025309      0.020161
     5   Atom       -0.002422     -0.005476      0.008671
     6   Atom       -0.003809      0.028889     -0.002833
     7   Atom        0.000188     -0.004057      0.000203
 --------------------------------------------------------


 ---------------------------------------------------------------------------------
              Anisotropic Spin Dipole Couplings in Principal Axis System
 ---------------------------------------------------------------------------------

       Atom             a.u.   MegaHertz   Gauss  10(-4) cm-1        Axes

              Baa    -0.0176    -2.487    -0.888    -0.830  0.6488  0.0939  0.7551
     1 Na(23) Bbb    -0.0051    -0.713    -0.255    -0.238 -0.1211  0.9925 -0.0193
              Bcc     0.0227     3.201     1.142     1.068  0.7512  0.0789 -0.6553
 
              Baa    -0.0179    -2.522    -0.900    -0.841  0.3512 -0.0368  0.9356
     2 Na(23) Bbb    -0.0066    -0.931    -0.332    -0.311  0.3315  0.9394 -0.0875
              Bcc     0.0245     3.453     1.232     1.152  0.8757 -0.3408 -0.3421
 
              Baa    -0.0234    -3.304    -1.179    -1.102  0.2245  0.8955  0.3843
     3 Na(23) Bbb    -0.0172    -2.429    -0.867    -0.810  0.9398 -0.0948 -0.3282
              Bcc     0.0406     5.733     2.046     1.912  0.2575 -0.4348  0.8629
 
              Baa    -0.0282    -3.989    -1.423    -1.331 -0.0456  0.9574 -0.2851
     4 Na(23) Bbb    -0.0243    -3.427    -1.223    -1.143  0.9265 -0.0662 -0.3705
              Bcc     0.0525     7.416     2.646     2.474  0.3736  0.2810  0.8840
 
              Baa    -0.0174    -2.460    -0.878    -0.820  0.9012  0.4328  0.0255
     5 Na(23) Bbb    -0.0140    -1.978    -0.706    -0.660 -0.4159  0.8797 -0.2304
              Bcc     0.0314     4.438     1.584     1.480 -0.1221  0.1970  0.9728
 
              Baa    -0.0209    -2.953    -1.054    -0.985 -0.6482 -0.0790  0.7574
     6 Na(23) Bbb    -0.0172    -2.429    -0.867    -0.810  0.0143  0.9932  0.1158
              Bcc     0.0381     5.383     1.921     1.796  0.7614 -0.0859  0.6426
 
              Baa    -0.0072    -1.014    -0.362    -0.338 -0.0881  0.9956 -0.0312
     7 Na(23) Bbb    -0.0047    -0.658    -0.235    -0.220  0.9632  0.0931  0.2520
              Bcc     0.0118     1.672     0.597     0.558 -0.2538  0.0078  0.9672
 

 ---------------------------------------------------------------------------------

 No NMR shielding tensors so no spin-rotation constants.
 Leave Link  601 at Mon Nov 13 16:46:37 2023, MaxMem=  1879048192 cpu:               2.7 elap:               0.2
 (Enter /home/sekinelabo/g16/l701.exe)
 ... and contract with generalized density number  0.
 Compute integral first derivatives.
 Leave Link  701 at Mon Nov 13 16:46:37 2023, MaxMem=  1879048192 cpu:               1.9 elap:               0.1
 (Enter /home/sekinelabo/g16/l702.exe)
 L702 exits ... SP integral derivatives will be done elsewhere.
 Leave Link  702 at Mon Nov 13 16:46:37 2023, MaxMem=  1879048192 cpu:               0.4 elap:               0.0
 (Enter /home/sekinelabo/g16/l703.exe)
 Integral derivatives from FoFJK, PRISM(SPDF).
 Compute integral first derivatives, UseDBF=F ICtDFT=           0.
 Calling FoFJK, ICntrl=      2127 FMM=F ISym2X=0 I1Cent= 0 IOpClX= 1 NMat=1 NMatS=1 NMatT=0.
 FoFJK:  IHMeth= 1 ICntrl=    2127 DoSepK=F KAlg= 0 I1Cent=           0 FoldK=F
 IRaf=         0 NMat=       1 IRICut=       1 DoRegI=T DoRafI=F ISym2E= 0 IDoP0=0 IntGTp=1.
 FoFCou: FMM=F IPFlag=           0 FMFlag=      100000 FMFlg1=         800
         NFxFlg=           0 DoJE=F BraDBF=F KetDBF=F FulRan=T
         wScrn=  0.000000 ICntrl=      2127 IOpCl=  1 I1Cent=           0 NGrid=           0
         NMat0=    1 NMatS0=      1 NMatT0=    0 NMatD0=    1 NMtDS0=    0 NMtDT0=    0
 Symmetry not used in FoFCou.
 Leave Link  703 at Mon Nov 13 16:46:40 2023, MaxMem=  1879048192 cpu:              37.2 elap:               2.4
 (Enter /home/sekinelabo/g16/l716.exe)
 Dipole        =-2.46388304D-02-8.23068793D-02 9.14448691D-02
 ***** Axes restored to original set *****
 -------------------------------------------------------------------
 Center     Atomic                   Forces (Hartrees/Bohr)
 Number     Number              X              Y              Z
 -------------------------------------------------------------------
      1       11          -0.004412373    0.003987230    0.011695838
      2       11           0.004762426    0.001464846   -0.009936365
      3       11           0.003204157    0.015348981    0.002755768
      4       11           0.010904825   -0.010004657    0.004922167
      5       11          -0.002882501   -0.015426288    0.000301473
      6       11          -0.003887039   -0.000544897   -0.010605334
      7       11          -0.007689494    0.005174785    0.000866452
 -------------------------------------------------------------------
 Cartesian Forces:  Max     0.015426288 RMS     0.007725383
 Z-matrix is all fixed cartesians, so copy forces.
 Force constants in Cartesian coordinates: 
                1             2             3             4             5 
      1  0.185047D+00
      2 -0.108800D-01  0.169541D+00
      3 -0.151902D-01  0.168517D-01  0.223576D+00
      4 -0.764280D-02  0.144325D-02  0.993959D-02  0.927237D-01
      5  0.567020D-02 -0.645011D-02 -0.211378D-02  0.743394D-02  0.771446D-01
      6  0.796211D-02  0.456405D-02 -0.203766D-01 -0.159434D-01 -0.295631D-02
      7 -0.370178D-01 -0.221265D-01 -0.297208D-02 -0.153075D-01  0.110774D-02
      8  0.554181D-02 -0.353785D-01 -0.929317D-02 -0.859478D-02 -0.225698D-01
      9  0.198870D-01  0.164862D-01 -0.311814D-01 -0.402963D-02 -0.327804D-01
     10 -0.486011D-01  0.145290D-01 -0.170175D-01 -0.256072D-01 -0.608763D-02
     11  0.123775D-01 -0.322583D-01  0.600419D-02  0.104800D-01 -0.232719D-01
     12  0.260299D-01 -0.144883D-01 -0.436985D-01 -0.236862D-01  0.255622D-01
     13 -0.269296D-01  0.118409D-01  0.587179D-02  0.295449D-02 -0.996710D-02
     14 -0.738912D-02 -0.416079D-01  0.216429D-02 -0.298140D-02 -0.407367D-02
     15  0.161789D-03 -0.322175D-01 -0.265821D-01  0.601639D-02  0.103423D-01
     16 -0.307521D-01  0.191705D-03  0.996169D-02 -0.441289D-01 -0.375914D-02
     17 -0.559269D-02 -0.263876D-01 -0.906560D-02 -0.651261D-02 -0.266434D-01
     18 -0.124008D-01 -0.146152D-02 -0.571957D-01  0.234662D-01  0.208582D-02
     19 -0.341041D-01  0.500162D-02  0.940670D-02 -0.299184D-02  0.560198D-02
     20  0.272320D-03 -0.274584D-01 -0.454763D-02 -0.126842D-02  0.586429D-02
     21 -0.264497D-01  0.102653D-01 -0.445412D-01  0.423704D-02 -0.139750D-03
                6             7             8             9            10 
      6  0.125548D+00
      7  0.114149D-01  0.707974D-01
      8  0.695402D-05  0.158713D-01  0.104988D+00
      9 -0.369725D-01  0.268579D-04  0.177006D-01  0.704406D-01
     10  0.123359D-01 -0.236695D-01 -0.813866D-02 -0.460354D-02  0.155438D+00
     11  0.443875D-02  0.265297D-01 -0.481906D-01  0.132553D-01 -0.259394D-01
     12 -0.423821D-01 -0.314964D-02 -0.737962D-02 -0.120923D-01  0.241886D-01
     13  0.400293D-02  0.796611D-02 -0.545422D-02 -0.261707D-02 -0.425753D-01
     14  0.756682D-03 -0.651991D-02 -0.207627D-02 -0.257782D-02  0.133761D-01
     15  0.241832D-02 -0.376349D-03  0.231389D-02  0.462282D-02 -0.119706D-01
     16 -0.217510D-01 -0.519666D-03 -0.138949D-02 -0.642638D-02 -0.132598D-01
     17 -0.980764D-02 -0.109935D-01 -0.587636D-03 -0.869458D-02  0.983994D-02
     18 -0.329942D-01 -0.695195D-02 -0.157123D-02  0.290739D-02 -0.251550D-02
     19  0.197861D-02 -0.224906D-02  0.216400D-02 -0.223723D-02 -0.172494D-02
     20  0.299752D-02 -0.386879D-02  0.381466D-02 -0.338933D-02  0.242060D-02
     21  0.475902D-02  0.200827D-02 -0.177747D-02  0.227542D-02 -0.417476D-03
               11            12            13            14            15 
     11  0.136649D+00
     12 -0.164792D-01  0.117255D+00
     13 -0.295710D-01 -0.596975D-02  0.806382D-01
     14 -0.305138D-01  0.809593D-02  0.965725D-02  0.113595D+00
     15 -0.404507D-02 -0.176054D-01  0.523100D-02 -0.881294D-02  0.607817D-01
     16  0.287296D-02 -0.171097D-01 -0.223990D-01 -0.650084D-02  0.157321D-03
     17 -0.666325D-02  0.276587D-02  0.132611D-01 -0.325479D-01  0.327203D-01
     18 -0.517259D-02 -0.132433D-01 -0.550224D-02 -0.102963D-02 -0.297133D-01
     19  0.325028D-02 -0.303357D-03  0.345129D-03  0.357893D-03  0.780433D-03
     20  0.424857D-02  0.192309D-02  0.102331D-01 -0.277533D-02 -0.300973D-03
     21  0.199861D-02  0.117669D-01 -0.101666D-02  0.140348D-02  0.607794D-02
               16            17            18            19            20 
     16  0.138300D+00
     17 -0.646695D-03  0.115938D+00
     18  0.120931D-01  0.100401D-01  0.166592D+00
     19 -0.272402D-01  0.644545D-03 -0.818875D-02  0.679650D-01
     20  0.923151D-02 -0.231081D-01 -0.289099D-02 -0.170203D-01  0.394143D-01
     21  0.230750D-01 -0.179585D-01 -0.363526D-01 -0.143641D-02  0.620832D-02
               21 
     21  0.560145D-01
 Leave Link  716 at Mon Nov 13 16:46:40 2023, MaxMem=  1879048192 cpu:               0.5 elap:               0.0
 (Enter /home/sekinelabo/g16/l103.exe)

 GradGradGradGradGradGradGradGradGradGradGradGradGradGradGradGradGradGrad
 Berny optimization.
 Search for a local minimum.
 Step number   1 out of a maximum of    2
 All quantities printed in internal units (Hartrees-Bohrs-Radians)
 Second derivative matrix not updated -- first step.
 ITU=  0
     Eigenvalues ---    0.04995   0.05793   0.07492   0.10131   0.10631
     Eigenvalues ---    0.13335   0.14965   0.16368   0.16841   0.18219
     Eigenvalues ---    0.19184   0.21459   0.21581   0.25089   0.28641
 Quadratic step=3.293D-01 exceeds max=3.000D-01 adjusted using Lamda=-8.836D-03.
 Angle between NR and scaled steps=   1.43 degrees.
 Angle between quadratic step and forces=  19.43 degrees.
 Linear search not attempted -- first point.
 B after Tr=     0.000000    0.000000    0.000000
         Rot=    1.000000   -0.000000   -0.000000    0.000000 Ang=   0.00 deg.
 Variable       Old X    -DE/DX   Delta X   Delta X   Delta X     New X
                                 (Linear)    (Quad)   (Total)
    X1        4.90437  -0.00441   0.00000  -0.02671  -0.02671   4.87766
    Y1        5.29111   0.00399   0.00000   0.01059   0.01059   5.30171
    Z1        6.07407   0.01170   0.00000   0.05838   0.05838   6.13245
    X2        9.34700   0.00476   0.00000   0.06749   0.06749   9.41449
    Y2        5.66454   0.00146   0.00000   0.02073   0.02073   5.68526
    Z2        0.00000  -0.00994   0.00000  -0.07093  -0.07093  -0.07093
    X3        9.34376   0.00320   0.00000   0.05833   0.05833   9.40209
    Y3        8.60606   0.01535   0.00000   0.12085   0.12085   8.72691
    Z3        4.84750   0.00276   0.00000   0.02363   0.02363   4.87113
    X4        9.96868   0.01090   0.00000   0.08313   0.08313  10.05180
    Y4        2.98859  -0.01000   0.00000  -0.05610  -0.05610   2.93249
    Z4        4.96915   0.00492   0.00000   0.03339   0.03339   5.00254
    X5        5.23582  -0.00288   0.00000  -0.01982  -0.01982   5.21600
    Y5        0.00000  -0.01543   0.00000  -0.14570  -0.14570  -0.14570
    Z5        4.09234   0.00030   0.00000   0.00620   0.00620   4.09855
    X6        3.86556  -0.00389   0.00000  -0.04326  -0.04326   3.82230
    Y6        4.25398  -0.00054   0.00000  -0.01806  -0.01806   4.23592
    Z6        0.59813  -0.01061   0.00000  -0.05972  -0.05972   0.53840
    X7        0.00000  -0.00769   0.00000  -0.11915  -0.11915  -0.11915
    Y7        6.91916   0.00517   0.00000   0.06769   0.06769   6.98685
    Z7        3.75965   0.00087   0.00000   0.00905   0.00905   3.76870
         Item               Value     Threshold  Converged?
 Maximum Force            0.015426     0.000450     NO 
 RMS     Force            0.007725     0.000300     NO 
 Maximum Displacement     0.145704     0.001800     NO 
 RMS     Displacement     0.065565     0.001200     NO 
 Predicted change in Energy=-5.414375D-03
 GradGradGradGradGradGradGradGradGradGradGradGradGradGradGradGradGradGrad

 Leave Link  103 at Mon Nov 13 16:46:40 2023, MaxMem=  1879048192 cpu:               0.3 elap:               0.0
 (Enter /home/sekinelabo/g16/l9999.exe)
 1\1\GINC-SEKINELABO-XA7R-R37\Force\UB3LYP\6-311+G(d)\Na7(2)\SEKINELABO
 \13-Nov-2023\0\\#P B3LYP/6-311+g(d) force\\Gaussian input prepared by 
 ASE\\0,2\Na,2.5952816877,2.7999367672,3.2142614437\Na,4.946217929,2.99
 75439892,0.\Na,4.9445057912,4.5541298062,2.565184453\Na,5.2751967108,1
 .5814945293,2.6295585012\Na,2.7706771504,0.,2.165574625\Na,2.045565507
 6,2.2511074294,0.3165148784\Na,0.,3.6614623383,1.9895209976\\Version=E
 S64L-G16RevB.01\State=2-A\HF=-1136.1040335\S2=0.761381\S2-1=0.\S2A=0.7
 50064\RMSD=6.097e-09\RMSF=7.725e-03\Dipole=-0.0246388,0.0823069,-0.091
 4449\Quadrupole=4.8193918,-3.7489151,-1.0704767,-0.1416227,-0.2311585,
 0.7084895\PG=C01 [X(Na7)]\\@


 Everything starts as somebody's daydream.
                           -- Larry Niven
 Job cpu time:       0 days  0 hours  4 minutes 22.8 seconds.
 Elapsed time:       0 days  0 hours  0 minutes 21.5 seconds.
 File lengths (MBytes):  RWF=     32 Int=      0 D2E=      0 Chk=      5 Scr=      1
 Normal termination of Gaussian 16 at Mon Nov 13 16:46:40 2023.
