 Entering Gaussian System, Link 0=g16
 Initial command:
 /home/sekinelabo/g16/l1.exe "/home/sekinelabo/g16temp/Gau-3018.inp" -scrdir="/home/sekinelabo/g16temp/"
 Entering Link 1 = /home/sekinelabo/g16/l1.exe PID=      3020.
  
 Copyright (c) 1988-2017, Gaussian, Inc.  All Rights Reserved.
  
 This is part of the Gaussian(R) 16 program.  It is based on
 the Gaussian(R) 09 system (copyright 2009, Gaussian, Inc.),
 the Gaussian(R) 03 system (copyright 2003, Gaussian, Inc.),
 the Gaussian(R) 98 system (copyright 1998, Gaussian, Inc.),
 the Gaussian(R) 94 system (copyright 1995, Gaussian, Inc.),
 the Gaussian 92(TM) system (copyright 1992, Gaussian, Inc.),
 the Gaussian 90(TM) system (copyright 1990, Gaussian, Inc.),
 the Gaussian 88(TM) system (copyright 1988, Gaussian, Inc.),
 the Gaussian 86(TM) system (copyright 1986, Carnegie Mellon
 University), and the Gaussian 82(TM) system (copyright 1983,
 Carnegie Mellon University). Gaussian is a federally registered
 trademark of Gaussian, Inc.
  
 This software contains proprietary and confidential information,
 including trade secrets, belonging to Gaussian, Inc.
  
 This software is provided under written license and may be
 used, copied, transmitted, or stored only in accord with that
 written license.
  
 The following legend is applicable only to US Government
 contracts under FAR:
  
                    RESTRICTED RIGHTS LEGEND
  
 Use, reproduction and disclosure by the US Government is
 subject to restrictions as set forth in subparagraphs (a)
 and (c) of the Commercial Computer Software - Restricted
 Rights clause in FAR 52.227-19.
  
 Gaussian, Inc.
 340 Quinnipiac St., Bldg. 40, Wallingford CT 06492
  
  
 ---------------------------------------------------------------
 Warning -- This program may not be used in any manner that
 competes with the business of Gaussian, Inc. or will provide
 assistance to any competitor of Gaussian, Inc.  The licensee
 of this program is prohibited from giving any competitor of
 Gaussian, Inc. access to this program.  By using this program,
 the user acknowledges that Gaussian, Inc. is engaged in the
 business of creating and licensing software in the field of
 computational chemistry and represents and warrants to the
 licensee that it is not a competitor of Gaussian, Inc. and that
 it will not use this program in any manner prohibited above.
 ---------------------------------------------------------------
  

 Cite this work as:
 Gaussian 16, Revision B.01,
 M. J. Frisch, G. W. Trucks, H. B. Schlegel, G. E. Scuseria, 
 M. A. Robb, J. R. Cheeseman, G. Scalmani, V. Barone, 
 G. A. Petersson, H. Nakatsuji, X. Li, M. Caricato, A. V. Marenich, 
 J. Bloino, B. G. Janesko, R. Gomperts, B. Mennucci, H. P. Hratchian, 
 J. V. Ortiz, A. F. Izmaylov, J. L. Sonnenberg, D. Williams-Young, 
 F. Ding, F. Lipparini, F. Egidi, J. Goings, B. Peng, A. Petrone, 
 T. Henderson, D. Ranasinghe, V. G. Zakrzewski, J. Gao, N. Rega, 
 G. Zheng, W. Liang, M. Hada, M. Ehara, K. Toyota, R. Fukuda, 
 J. Hasegawa, M. Ishida, T. Nakajima, Y. Honda, O. Kitao, H. Nakai, 
 T. Vreven, K. Throssell, J. A. Montgomery, Jr., J. E. Peralta, 
 F. Ogliaro, M. J. Bearpark, J. J. Heyd, E. N. Brothers, K. N. Kudin, 
 V. N. Staroverov, T. A. Keith, R. Kobayashi, J. Normand, 
 K. Raghavachari, A. P. Rendell, J. C. Burant, S. S. Iyengar, 
 J. Tomasi, M. Cossi, J. M. Millam, M. Klene, C. Adamo, R. Cammi, 
 J. W. Ochterski, R. L. Martin, K. Morokuma, O. Farkas, 
 J. B. Foresman, and D. J. Fox, Gaussian, Inc., Wallingford CT, 2016.
 
 ******************************************
 Gaussian 16:  ES64L-G16RevB.01 20-Dec-2017
                13-Nov-2023 
 ******************************************
 %mem=14GB
 %chk=checkpoint.chk
 %nprocshared=16
 Will use up to   16 processors via shared memory.
 -------------------------
 #P B3LYP/6-311+g(d) force
 -------------------------
 1/10=7,30=1,38=1/1,3;
 2/12=2,17=6,18=5,40=1/2;
 3/5=4,6=6,7=11,11=2,25=1,30=1,71=1,74=-5/1,2,3;
 4//1;
 5/5=2,38=5/2;
 6/7=2,8=2,9=2,10=2,28=1/1;
 7/29=1/1,2,3,16;
 1/10=7,30=1/3;
 99//99;
 Leave Link    1 at Mon Nov 13 20:45:29 2023, MaxMem=  1879048192 cpu:               0.3 elap:               0.0
 (Enter /home/sekinelabo/g16/l101.exe)
 ------------------------------
 Gaussian input prepared by ASE
 ------------------------------
 Symbolic Z-matrix:
 Charge =  0 Multiplicity = 2
 Na                    2.42776   2.01218   0. 
 Na                    2.43454   0.        1.63053 
 Na                    0.        1.13674   1.74018 
 Na                    1.02315   3.62826   1.65012 
 Na                    2.42981   2.07124   3.37872 
 Na                    3.82983   3.63007   1.64935 
 Na                    4.866     1.14624   1.73906 
 
 ITRead=  0  0  0  0  0  0  0
 MicOpt= -1 -1 -1 -1 -1 -1 -1
 NAtoms=      7 NQM=        7 NQMF=       0 NMMI=      0 NMMIF=      0
                NMic=       0 NMicF=      0.
                    Isotopes and Nuclear Properties:
 (Nuclear quadrupole moments (NQMom) in fm**2, nuclear magnetic moments (NMagM)
  in nuclear magnetons)

  Atom         1           2           3           4           5           6           7
 IAtWgt=          23          23          23          23          23          23          23
 AtmWgt=  22.9897697  22.9897697  22.9897697  22.9897697  22.9897697  22.9897697  22.9897697
 NucSpn=           3           3           3           3           3           3           3
 AtZEff=  -0.0000000  -0.0000000  -0.0000000  -0.0000000  -0.0000000  -0.0000000  -0.0000000
 NQMom=   10.4000000  10.4000000  10.4000000  10.4000000  10.4000000  10.4000000  10.4000000
 NMagM=    2.2175200   2.2175200   2.2175200   2.2175200   2.2175200   2.2175200   2.2175200
 AtZNuc=  11.0000000  11.0000000  11.0000000  11.0000000  11.0000000  11.0000000  11.0000000
 Leave Link  101 at Mon Nov 13 20:45:30 2023, MaxMem=  1879048192 cpu:               2.7 elap:               0.2
 (Enter /home/sekinelabo/g16/l103.exe)

 GradGradGradGradGradGradGradGradGradGradGradGradGradGradGradGradGradGrad
 Berny optimization.
 Initialization pass.
 Trust Radius=3.00D-01 FncErr=1.00D-07 GrdErr=1.00D-07 EigMax=2.50D+02 EigMin=1.00D-04
 Number of steps in this run=      2 maximum allowed number of steps=      2.
 GradGradGradGradGradGradGradGradGradGradGradGradGradGradGradGradGradGrad

 Leave Link  103 at Mon Nov 13 20:45:30 2023, MaxMem=  1879048192 cpu:               0.2 elap:               0.0
 (Enter /home/sekinelabo/g16/l202.exe)
                          Input orientation:                          
 ---------------------------------------------------------------------
 Center     Atomic      Atomic             Coordinates (Angstroms)
 Number     Number       Type             X           Y           Z
 ---------------------------------------------------------------------
      1         11           0        2.427759    2.012178    0.000000
      2         11           0        2.434535    0.000000    1.630533
      3         11           0        0.000000    1.136742    1.740176
      4         11           0        1.023151    3.628264    1.650115
      5         11           0        2.429808    2.071239    3.378715
      6         11           0        3.829829    3.630065    1.649353
      7         11           0        4.865999    1.146241    1.739062
 ---------------------------------------------------------------------
                    Distance matrix (angstroms):
                    1          2          3          4          5
     1  Na   0.000000
     2  Na   2.589893   0.000000
     3  Na   3.112654   2.689082   0.000000
     4  Na   2.703246   3.893159   2.694927   0.000000
     5  Na   3.379232   2.710387   3.076046   2.718652   0.000000
     6  Na   2.702541   3.889032   4.570831   2.806679   2.716743
     7  Na   3.117563   2.690291   4.866008   4.575568   3.078817
                    6          7
     6  Na   0.000000
     7  Na   2.692782   0.000000
 Stoichiometry    Na7(2)
 Framework group  C1[X(Na7)]
 Deg. of freedom    15
 Full point group                 C1      NOp   1
 Largest Abelian subgroup         C1      NOp   1
 Largest concise Abelian subgroup C1      NOp   1
                         Standard orientation:                         
 ---------------------------------------------------------------------
 Center     Atomic      Atomic             Coordinates (Angstroms)
 Number     Number       Type             X           Y           Z
 ---------------------------------------------------------------------
      1         11           0       -0.002396    0.065788   -1.683994
      2         11           0        0.004381   -1.946390   -0.053460
      3         11           0       -2.430154   -0.809648    0.056183
      4         11           0       -1.407003    1.681874   -0.033878
      5         11           0       -0.000347    0.124849    1.694722
      6         11           0        1.399675    1.683675   -0.034640
      7         11           0        2.435844   -0.800148    0.055068
 ---------------------------------------------------------------------
 Rotational constants (GHZ):           1.3333489           1.0225941           0.8281220
 Leave Link  202 at Mon Nov 13 20:45:30 2023, MaxMem=  1879048192 cpu:               0.0 elap:               0.0
 (Enter /home/sekinelabo/g16/l301.exe)
 Standard basis: 6-311+G(d) (5D, 7F)
 Ernie: Thresh=  0.10000D-02 Tol=  0.10000D-05 Strict=F.
 There are   217 symmetry adapted cartesian basis functions of A   symmetry.
 There are   210 symmetry adapted basis functions of A   symmetry.
   210 basis functions,   350 primitive gaussians,   217 cartesian basis functions
    39 alpha electrons       38 beta electrons
       nuclear repulsion energy       436.5544419180 Hartrees.
 IExCor=  402 DFT=T Ex+Corr=B3LYP ExCW=0 ScaHFX=  0.200000
 ScaDFX=  0.800000  0.720000  1.000000  0.810000 ScalE2=  1.000000  1.000000
 IRadAn=      5 IRanWt=     -1 IRanGd=            0 ICorTp=0 IEmpDi=  4
 NAtoms=    7 NActive=    7 NUniq=    7 SFac= 1.00D+00 NAtFMM=   60 NAOKFM=F Big=F
 Integral buffers will be    131072 words long.
 Raffenetti 2 integral format.
 Two-electron integral symmetry is turned on.
 Leave Link  301 at Mon Nov 13 20:45:30 2023, MaxMem=  1879048192 cpu:               0.5 elap:               0.0
 (Enter /home/sekinelabo/g16/l302.exe)
 NPDir=0 NMtPBC=     1 NCelOv=     1 NCel=       1 NClECP=     1 NCelD=      1
         NCelK=      1 NCelE2=     1 NClLst=     1 CellRange=     0.0.
 One-electron integrals computed using PRISM.
 One-electron integral symmetry used in STVInt
 NBasis=   210 RedAO= T EigKep=  2.72D-06  NBF=   210
 NBsUse=   209 1.00D-06 EigRej=  4.08D-07 NBFU=   209
 Precomputing XC quadrature grid using
 IXCGrd= 4 IRadAn=           5 IRanWt=          -1 IRanGd=           0 AccXCQ= 0.00D+00.
 Generated NRdTot=       0 NPtTot=           0 NUsed=           0 NTot=          32
 NSgBfM=   211   211   211   211   211 MxSgAt=     7 MxSgA2=     7.
 Leave Link  302 at Mon Nov 13 20:45:30 2023, MaxMem=  1879048192 cpu:               2.2 elap:               0.1
 (Enter /home/sekinelabo/g16/l303.exe)
 DipDrv:  MaxL=1.
 Leave Link  303 at Mon Nov 13 20:45:30 2023, MaxMem=  1879048192 cpu:               0.6 elap:               0.0
 (Enter /home/sekinelabo/g16/l401.exe)
 ExpMin= 7.60D-03 ExpMax= 3.62D+04 ExpMxC= 1.21D+03 IAcc=3 IRadAn=         5 AccDes= 0.00D+00
 Harris functional with IExCor=  402 and IRadAn=       5 diagonalized for initial guess.
 HarFok:  IExCor=  402 AccDes= 0.00D+00 IRadAn=         5 IDoV= 1 UseB2=F ITyADJ=14
 ICtDFT=  3500011 ScaDFX=  1.000000  1.000000  1.000000  1.000000
 FoFCou: FMM=F IPFlag=           0 FMFlag=      100000 FMFlg1=           0
         NFxFlg=           0 DoJE=T BraDBF=F KetDBF=T FulRan=T
         wScrn=  0.000000 ICntrl=       500 IOpCl=  0 I1Cent=   200000004 NGrid=           0
         NMat0=    1 NMatS0=      1 NMatT0=    0 NMatD0=    1 NMtDS0=    0 NMtDT0=    0
 Petite list used in FoFCou.
 Harris En= -1135.81793844568    
 JPrj=0 DoOrth=F DoCkMO=F.
 Initial guess <Sx>= 0.0000 <Sy>= 0.0000 <Sz>= 0.5000 <S**2>= 0.7500 S= 0.5000
 Leave Link  401 at Mon Nov 13 20:45:30 2023, MaxMem=  1879048192 cpu:               4.8 elap:               0.3
 (Enter /home/sekinelabo/g16/l502.exe)
 Keep R1 and R2 ints in memory in canonical form, NReq=507620388.
 FoFCou: FMM=F IPFlag=           0 FMFlag=           0 FMFlg1=           0
         NFxFlg=           0 DoJE=F BraDBF=F KetDBF=F FulRan=T
         wScrn=  0.000000 ICntrl=       600 IOpCl=  0 I1Cent=           0 NGrid=           0
         NMat0=    1 NMatS0=  22155 NMatT0=    0 NMatD0=    1 NMtDS0=    0 NMtDT0=    0
 Symmetry not used in FoFCou.
 Two-electron integral symmetry not used.
 UHF open shell SCF:
 Using DIIS extrapolation, IDIIS=  1040.
 NGot=  1879048192 LenX=  1388082348 LenY=  1388034818
 Requested convergence on RMS density matrix=1.00D-08 within 128 cycles.
 Requested convergence on MAX density matrix=1.00D-06.
 Requested convergence on             energy=1.00D-06.
 No special actions if energy rises.

 Cycle   1  Pass 1  IDiag  1:
 E= -1135.99410736320    
 DIIS: error= 1.74D-02 at cycle   1 NSaved=   1.
 NSaved= 1 IEnMin= 1 EnMin= -1135.99410736320     IErMin= 1 ErrMin= 1.74D-02
 ErrMax= 1.74D-02  0.00D+00 EMaxC= 1.00D-01 BMatC= 2.22D-01 BMatP= 2.22D-01
 IDIUse=3 WtCom= 8.26D-01 WtEn= 1.74D-01
 Coeff-Com:  0.100D+01
 Coeff-En:   0.100D+01
 Coeff:      0.100D+01
 Gap=     0.066 Goal=   None    Shift=    0.000
 Gap=     0.042 Goal=   None    Shift=    0.000
 GapD=    0.042 DampG=0.250 DampE=0.500 DampFc=0.2500 IDamp=-1.
 Damping current iteration by 2.50D-01
 RMSDP=1.17D-01 MaxDP=7.91D+00              OVMax= 2.67D-01

 Cycle   2  Pass 1  IDiag  1:
 E= -1136.01155090814     Delta-E=       -0.017443544939 Rises=F Damp=T
 DIIS: error= 9.85D-03 at cycle   2 NSaved=   2.
 NSaved= 2 IEnMin= 2 EnMin= -1136.01155090814     IErMin= 2 ErrMin= 9.85D-03
 ErrMax= 9.85D-03  0.00D+00 EMaxC= 1.00D-01 BMatC= 8.31D-02 BMatP= 2.22D-01
 IDIUse=3 WtCom= 9.02D-01 WtEn= 9.85D-02
 Coeff-Com: -0.127D+01 0.227D+01
 Coeff-En:   0.000D+00 0.100D+01
 Coeff:     -0.114D+01 0.214D+01
 Gap=     0.076 Goal=   None    Shift=    0.000
 Gap=     0.043 Goal=   None    Shift=    0.000
 RMSDP=4.90D-02 MaxDP=3.61D+00 DE=-1.74D-02 OVMax= 1.77D-01

 Cycle   3  Pass 1  IDiag  1:
 E= -1136.04079598383     Delta-E=       -0.029245075696 Rises=F Damp=F
 DIIS: error= 3.99D-03 at cycle   3 NSaved=   3.
 NSaved= 3 IEnMin= 3 EnMin= -1136.04079598383     IErMin= 3 ErrMin= 3.99D-03
 ErrMax= 3.99D-03  0.00D+00 EMaxC= 1.00D-01 BMatC= 4.53D-03 BMatP= 8.31D-02
 IDIUse=3 WtCom= 9.60D-01 WtEn= 3.99D-02
 Coeff-Com: -0.249D+00 0.469D+00 0.780D+00
 Coeff-En:   0.000D+00 0.000D+00 0.100D+01
 Coeff:     -0.239D+00 0.450D+00 0.789D+00
 Gap=     0.070 Goal=   None    Shift=    0.000
 Gap=     0.043 Goal=   None    Shift=    0.000
 RMSDP=1.98D-02 MaxDP=1.30D+00 DE=-2.92D-02 OVMax= 5.08D-02

 Cycle   4  Pass 1  IDiag  1:
 E= -1136.04141271390     Delta-E=       -0.000616730064 Rises=F Damp=F
 DIIS: error= 3.45D-03 at cycle   4 NSaved=   4.
 NSaved= 4 IEnMin= 4 EnMin= -1136.04141271390     IErMin= 4 ErrMin= 3.45D-03
 ErrMax= 3.45D-03  0.00D+00 EMaxC= 1.00D-01 BMatC= 2.88D-03 BMatP= 4.53D-03
 IDIUse=3 WtCom= 9.66D-01 WtEn= 3.45D-02
 Coeff-Com:  0.174D-01-0.221D-01 0.445D+00 0.559D+00
 Coeff-En:   0.000D+00 0.000D+00 0.422D+00 0.578D+00
 Coeff:      0.168D-01-0.214D-01 0.445D+00 0.560D+00
 Gap=     0.071 Goal=   None    Shift=    0.000
 Gap=     0.043 Goal=   None    Shift=    0.000
 RMSDP=6.40D-03 MaxDP=4.46D-01 DE=-6.17D-04 OVMax= 2.44D-02

 Cycle   5  Pass 1  IDiag  1:
 E= -1136.04284883778     Delta-E=       -0.001436123880 Rises=F Damp=F
 DIIS: error= 3.09D-04 at cycle   5 NSaved=   5.
 NSaved= 5 IEnMin= 5 EnMin= -1136.04284883778     IErMin= 5 ErrMin= 3.09D-04
 ErrMax= 3.09D-04  0.00D+00 EMaxC= 1.00D-01 BMatC= 2.19D-05 BMatP= 2.88D-03
 IDIUse=3 WtCom= 9.97D-01 WtEn= 3.09D-03
 Coeff-Com:  0.811D-02-0.107D-01 0.232D+00 0.290D+00 0.481D+00
 Coeff-En:   0.000D+00 0.000D+00 0.000D+00 0.000D+00 0.100D+01
 Coeff:      0.808D-02-0.107D-01 0.231D+00 0.289D+00 0.482D+00
 Gap=     0.071 Goal=   None    Shift=    0.000
 Gap=     0.043 Goal=   None    Shift=    0.000
 RMSDP=4.14D-04 MaxDP=2.99D-02 DE=-1.44D-03 OVMax= 6.16D-03

 Cycle   6  Pass 1  IDiag  1:
 E= -1136.04286593616     Delta-E=       -0.000017098384 Rises=F Damp=F
 DIIS: error= 1.35D-04 at cycle   6 NSaved=   6.
 NSaved= 6 IEnMin= 6 EnMin= -1136.04286593616     IErMin= 6 ErrMin= 1.35D-04
 ErrMax= 1.35D-04  0.00D+00 EMaxC= 1.00D-01 BMatC= 4.14D-06 BMatP= 2.19D-05
 IDIUse=3 WtCom= 9.99D-01 WtEn= 1.35D-03
 Coeff-Com: -0.273D-02 0.336D-02-0.289D-01-0.431D-01 0.288D+00 0.783D+00
 Coeff-En:   0.000D+00 0.000D+00 0.000D+00 0.000D+00 0.180D+00 0.820D+00
 Coeff:     -0.273D-02 0.336D-02-0.289D-01-0.430D-01 0.288D+00 0.783D+00
 Gap=     0.072 Goal=   None    Shift=    0.000
 Gap=     0.043 Goal=   None    Shift=    0.000
 RMSDP=4.02D-04 MaxDP=2.77D-02 DE=-1.71D-05 OVMax= 2.02D-03

 Cycle   7  Pass 1  IDiag  1:
 E= -1136.04287027362     Delta-E=       -0.000004337461 Rises=F Damp=F
 DIIS: error= 1.65D-05 at cycle   7 NSaved=   7.
 NSaved= 7 IEnMin= 7 EnMin= -1136.04287027362     IErMin= 7 ErrMin= 1.65D-05
 ErrMax= 1.65D-05  0.00D+00 EMaxC= 1.00D-01 BMatC= 4.39D-08 BMatP= 4.14D-06
 IDIUse=1 WtCom= 1.00D+00 WtEn= 0.00D+00
 Coeff-Com:  0.208D-03-0.289D-03-0.617D-02-0.579D-02-0.580D-01-0.112D+00
 Coeff-Com:  0.118D+01
 Coeff:      0.208D-03-0.289D-03-0.617D-02-0.579D-02-0.580D-01-0.112D+00
 Coeff:      0.118D+01
 Gap=     0.072 Goal=   None    Shift=    0.000
 Gap=     0.043 Goal=   None    Shift=    0.000
 RMSDP=9.35D-05 MaxDP=7.09D-03 DE=-4.34D-06 OVMax= 6.50D-04

 Cycle   8  Pass 1  IDiag  1:
 E= -1136.04287038197     Delta-E=       -0.000000108345 Rises=F Damp=F
 DIIS: error= 1.12D-05 at cycle   8 NSaved=   8.
 NSaved= 8 IEnMin= 8 EnMin= -1136.04287038197     IErMin= 8 ErrMin= 1.12D-05
 ErrMax= 1.12D-05  0.00D+00 EMaxC= 1.00D-01 BMatC= 3.49D-08 BMatP= 4.39D-08
 IDIUse=1 WtCom= 1.00D+00 WtEn= 0.00D+00
 Coeff-Com:  0.328D-03-0.424D-03-0.193D-02-0.546D-03-0.554D-01-0.121D+00
 Coeff-Com:  0.670D+00 0.509D+00
 Coeff:      0.328D-03-0.424D-03-0.193D-02-0.546D-03-0.554D-01-0.121D+00
 Coeff:      0.670D+00 0.509D+00
 Gap=     0.072 Goal=   None    Shift=    0.000
 Gap=     0.043 Goal=   None    Shift=    0.000
 RMSDP=1.81D-05 MaxDP=1.64D-03 DE=-1.08D-07 OVMax= 2.45D-04

 Cycle   9  Pass 1  IDiag  1:
 E= -1136.04287041380     Delta-E=       -0.000000031831 Rises=F Damp=F
 DIIS: error= 4.69D-06 at cycle   9 NSaved=   9.
 NSaved= 9 IEnMin= 9 EnMin= -1136.04287041380     IErMin= 9 ErrMin= 4.69D-06
 ErrMax= 4.69D-06  0.00D+00 EMaxC= 1.00D-01 BMatC= 4.66D-09 BMatP= 3.49D-08
 IDIUse=1 WtCom= 1.00D+00 WtEn= 0.00D+00
 Coeff-Com:  0.115D-03-0.143D-03-0.116D-03 0.483D-03-0.164D-01-0.369D-01
 Coeff-Com:  0.114D+00 0.223D+00 0.716D+00
 Coeff:      0.115D-03-0.143D-03-0.116D-03 0.483D-03-0.164D-01-0.369D-01
 Coeff:      0.114D+00 0.223D+00 0.716D+00
 Gap=     0.072 Goal=   None    Shift=    0.000
 Gap=     0.043 Goal=   None    Shift=    0.000
 RMSDP=9.58D-06 MaxDP=7.48D-04 DE=-3.18D-08 OVMax= 2.14D-04

 Cycle  10  Pass 1  IDiag  1:
 E= -1136.04287042488     Delta-E=       -0.000000011081 Rises=F Damp=F
 DIIS: error= 2.56D-06 at cycle  10 NSaved=  10.
 NSaved=10 IEnMin=10 EnMin= -1136.04287042488     IErMin=10 ErrMin= 2.56D-06
 ErrMax= 2.56D-06  0.00D+00 EMaxC= 1.00D-01 BMatC= 1.82D-09 BMatP= 4.66D-09
 IDIUse=1 WtCom= 1.00D+00 WtEn= 0.00D+00
 Coeff-Com: -0.405D-04 0.580D-04 0.824D-03 0.730D-03 0.887D-02 0.173D-01
 Coeff-Com: -0.167D+00-0.748D-01 0.385D+00 0.829D+00
 Coeff:     -0.405D-04 0.580D-04 0.824D-03 0.730D-03 0.887D-02 0.173D-01
 Coeff:     -0.167D+00-0.748D-01 0.385D+00 0.829D+00
 Gap=     0.072 Goal=   None    Shift=    0.000
 Gap=     0.043 Goal=   None    Shift=    0.000
 RMSDP=9.26D-06 MaxDP=8.75D-04 DE=-1.11D-08 OVMax= 2.32D-04

 Cycle  11  Pass 1  IDiag  1:
 E= -1136.04287043190     Delta-E=       -0.000000007024 Rises=F Damp=F
 DIIS: error= 1.42D-06 at cycle  11 NSaved=  11.
 NSaved=11 IEnMin=11 EnMin= -1136.04287043190     IErMin=11 ErrMin= 1.42D-06
 ErrMax= 1.42D-06  0.00D+00 EMaxC= 1.00D-01 BMatC= 3.34D-10 BMatP= 1.82D-09
 IDIUse=1 WtCom= 1.00D+00 WtEn= 0.00D+00
 Coeff-Com: -0.457D-04 0.576D-04 0.136D-03-0.733D-04 0.592D-02 0.125D-01
 Coeff-Com: -0.537D-01-0.418D-01-0.156D+00-0.889D-01 0.132D+01
 Coeff:     -0.457D-04 0.576D-04 0.136D-03-0.733D-04 0.592D-02 0.125D-01
 Coeff:     -0.537D-01-0.418D-01-0.156D+00-0.889D-01 0.132D+01
 Gap=     0.072 Goal=   None    Shift=    0.000
 Gap=     0.043 Goal=   None    Shift=    0.000
 RMSDP=6.39D-06 MaxDP=4.53D-04 DE=-7.02D-09 OVMax= 2.24D-04

 Cycle  12  Pass 1  IDiag  1:
 E= -1136.04287043467     Delta-E=       -0.000000002769 Rises=F Damp=F
 DIIS: error= 1.24D-06 at cycle  12 NSaved=  12.
 NSaved=12 IEnMin=12 EnMin= -1136.04287043467     IErMin=12 ErrMin= 1.24D-06
 ErrMax= 1.24D-06  0.00D+00 EMaxC= 1.00D-01 BMatC= 4.16D-10 BMatP= 3.34D-10
 IDIUse=1 WtCom= 1.00D+00 WtEn= 0.00D+00
 Coeff-Com: -0.248D-04 0.293D-04-0.893D-04-0.236D-03 0.257D-02 0.585D-02
 Coeff-Com: -0.210D-02-0.146D-01-0.219D+00-0.278D+00 0.103D+01 0.481D+00
 Coeff:     -0.248D-04 0.293D-04-0.893D-04-0.236D-03 0.257D-02 0.585D-02
 Coeff:     -0.210D-02-0.146D-01-0.219D+00-0.278D+00 0.103D+01 0.481D+00
 Gap=     0.072 Goal=   None    Shift=    0.000
 Gap=     0.043 Goal=   None    Shift=    0.000
 RMSDP=2.31D-06 MaxDP=1.37D-04 DE=-2.77D-09 OVMax= 8.85D-05

 Cycle  13  Pass 1  IDiag  1:
 E= -1136.04287043556     Delta-E=       -0.000000000882 Rises=F Damp=F
 DIIS: error= 4.79D-07 at cycle  13 NSaved=  13.
 NSaved=13 IEnMin=13 EnMin= -1136.04287043556     IErMin=13 ErrMin= 4.79D-07
 ErrMax= 4.79D-07  0.00D+00 EMaxC= 1.00D-01 BMatC= 2.92D-11 BMatP= 3.34D-10
 IDIUse=1 WtCom= 1.00D+00 WtEn= 0.00D+00
 Coeff-Com:  0.195D-04-0.254D-04-0.427D-04 0.172D-04-0.191D-02-0.388D-02
 Coeff-Com:  0.207D-01 0.711D-02 0.178D-01 0.241D-01-0.341D+00 0.248D-01
 Coeff-Com:  0.125D+01
 Coeff:      0.195D-04-0.254D-04-0.427D-04 0.172D-04-0.191D-02-0.388D-02
 Coeff:      0.207D-01 0.711D-02 0.178D-01 0.241D-01-0.341D+00 0.248D-01
 Coeff:      0.125D+01
 Gap=     0.072 Goal=   None    Shift=    0.000
 Gap=     0.043 Goal=   None    Shift=    0.000
 RMSDP=1.62D-06 MaxDP=9.26D-05 DE=-8.82D-10 OVMax= 7.59D-05

 Cycle  14  Pass 1  IDiag  1:
 E= -1136.04287043581     Delta-E=       -0.000000000255 Rises=F Damp=F
 DIIS: error= 2.17D-07 at cycle  14 NSaved=  14.
 NSaved=14 IEnMin=14 EnMin= -1136.04287043581     IErMin=14 ErrMin= 2.17D-07
 ErrMax= 2.17D-07  0.00D+00 EMaxC= 1.00D-01 BMatC= 5.92D-12 BMatP= 2.92D-11
 IDIUse=1 WtCom= 1.00D+00 WtEn= 0.00D+00
 Coeff-Com: -0.110D-05 0.225D-05 0.983D-05 0.350D-04-0.134D-03-0.522D-03
 Coeff-Com: -0.355D-02 0.275D-02 0.454D-01 0.543D-01-0.144D+00-0.121D+00
 Coeff-Com: -0.349D+00 0.152D+01
 Coeff:     -0.110D-05 0.225D-05 0.983D-05 0.350D-04-0.134D-03-0.522D-03
 Coeff:     -0.355D-02 0.275D-02 0.454D-01 0.543D-01-0.144D+00-0.121D+00
 Coeff:     -0.349D+00 0.152D+01
 Gap=     0.072 Goal=   None    Shift=    0.000
 Gap=     0.043 Goal=   None    Shift=    0.000
 RMSDP=8.44D-07 MaxDP=4.57D-05 DE=-2.55D-10 OVMax= 4.52D-05

 Cycle  15  Pass 1  IDiag  1:
 E= -1136.04287043587     Delta-E=       -0.000000000063 Rises=F Damp=F
 DIIS: error= 7.58D-08 at cycle  15 NSaved=  15.
 NSaved=15 IEnMin=15 EnMin= -1136.04287043587     IErMin=15 ErrMin= 7.58D-08
 ErrMax= 7.58D-08  0.00D+00 EMaxC= 1.00D-01 BMatC= 1.08D-12 BMatP= 5.92D-12
 IDIUse=1 WtCom= 1.00D+00 WtEn= 0.00D+00
 Coeff-Com: -0.424D-05 0.556D-05 0.107D-04-0.463D-05 0.350D-03 0.779D-03
 Coeff-Com: -0.401D-02-0.446D-03-0.504D-02-0.103D-01 0.796D-01-0.544D-02
 Coeff-Com: -0.288D+00 0.492D-01 0.118D+01
 Coeff:     -0.424D-05 0.556D-05 0.107D-04-0.463D-05 0.350D-03 0.779D-03
 Coeff:     -0.401D-02-0.446D-03-0.504D-02-0.103D-01 0.796D-01-0.544D-02
 Coeff:     -0.288D+00 0.492D-01 0.118D+01
 Gap=     0.072 Goal=   None    Shift=    0.000
 Gap=     0.043 Goal=   None    Shift=    0.000
 RMSDP=4.41D-07 MaxDP=3.22D-05 DE=-6.28D-11 OVMax= 1.71D-05

 Cycle  16  Pass 1  IDiag  1:
 E= -1136.04287043591     Delta-E=       -0.000000000034 Rises=F Damp=F
 DIIS: error= 2.33D-08 at cycle  16 NSaved=  16.
 NSaved=16 IEnMin=16 EnMin= -1136.04287043591     IErMin=16 ErrMin= 2.33D-08
 ErrMax= 2.33D-08  0.00D+00 EMaxC= 1.00D-01 BMatC= 1.49D-13 BMatP= 1.08D-12
 IDIUse=1 WtCom= 1.00D+00 WtEn= 0.00D+00
 Coeff-Com:  0.320D-06-0.582D-06 0.166D-05-0.409D-05 0.541D-04 0.983D-04
 Coeff-Com:  0.450D-03-0.820D-03-0.848D-02-0.943D-02 0.307D-01 0.208D-01
 Coeff-Com:  0.420D-01-0.248D+00 0.372D-01 0.114D+01
 Coeff:      0.320D-06-0.582D-06 0.166D-05-0.409D-05 0.541D-04 0.983D-04
 Coeff:      0.450D-03-0.820D-03-0.848D-02-0.943D-02 0.307D-01 0.208D-01
 Coeff:      0.420D-01-0.248D+00 0.372D-01 0.114D+01
 Gap=     0.072 Goal=   None    Shift=    0.000
 Gap=     0.043 Goal=   None    Shift=    0.000
 RMSDP=1.60D-07 MaxDP=1.13D-05 DE=-3.43D-11 OVMax= 4.58D-06

 Cycle  17  Pass 1  IDiag  1:
 E= -1136.04287043590     Delta-E=        0.000000000010 Rises=F Damp=F
 DIIS: error= 9.95D-09 at cycle  17 NSaved=  17.
 NSaved=17 IEnMin=16 EnMin= -1136.04287043591     IErMin=17 ErrMin= 9.95D-09
 ErrMax= 9.95D-09  0.00D+00 EMaxC= 1.00D-01 BMatC= 2.99D-14 BMatP= 1.49D-13
 IDIUse=1 WtCom= 1.00D+00 WtEn= 0.00D+00
 Coeff-Com:  0.658D-06-0.898D-06-0.187D-05-0.552D-06-0.415D-04-0.755D-04
 Coeff-Com:  0.655D-03-0.213D-03-0.112D-02 0.191D-03-0.568D-02 0.493D-02
 Coeff-Com:  0.534D-01-0.576D-01-0.190D+00 0.302D+00 0.894D+00
 Coeff:      0.658D-06-0.898D-06-0.187D-05-0.552D-06-0.415D-04-0.755D-04
 Coeff:      0.655D-03-0.213D-03-0.112D-02 0.191D-03-0.568D-02 0.493D-02
 Coeff:      0.534D-01-0.576D-01-0.190D+00 0.302D+00 0.894D+00
 Gap=     0.072 Goal=   None    Shift=    0.000
 Gap=     0.043 Goal=   None    Shift=    0.000
 RMSDP=4.38D-08 MaxDP=3.37D-06 DE= 1.02D-11 OVMax= 8.31D-07

 Cycle  18  Pass 1  IDiag  1:
 E= -1136.04287043590     Delta-E=       -0.000000000006 Rises=F Damp=F
 DIIS: error= 3.25D-09 at cycle  18 NSaved=  18.
 NSaved=18 IEnMin=16 EnMin= -1136.04287043591     IErMin=18 ErrMin= 3.25D-09
 ErrMax= 3.25D-09  0.00D+00 EMaxC= 1.00D-01 BMatC= 2.56D-15 BMatP= 2.99D-14
 IDIUse=1 WtCom= 1.00D+00 WtEn= 0.00D+00
 Large coefficients: NSaved= 18 BigCof=    0.00 CofMax=   10.00 Det=-9.83D-15
 Inversion failed.  Reducing to 17 matrices.
 Coeff-Com:  0.138D-07-0.572D-06 0.764D-06-0.140D-04-0.331D-04 0.177D-04
 Coeff-Com:  0.173D-03 0.118D-02 0.108D-02-0.468D-02-0.265D-02-0.387D-02
 Coeff-Com:  0.297D-01 0.308D-03-0.172D+00 0.860D-02 0.114D+01
 Coeff:      0.138D-07-0.572D-06 0.764D-06-0.140D-04-0.331D-04 0.177D-04
 Coeff:      0.173D-03 0.118D-02 0.108D-02-0.468D-02-0.265D-02-0.387D-02
 Coeff:      0.297D-01 0.308D-03-0.172D+00 0.860D-02 0.114D+01
 Gap=     0.072 Goal=   None    Shift=    0.000
 Gap=     0.043 Goal=   None    Shift=    0.000
 RMSDP=2.99D-08 MaxDP=2.28D-06 DE=-5.91D-12 OVMax= 3.34D-07

 Cycle  19  Pass 1  IDiag  1:
 E= -1136.04287043590     Delta-E=        0.000000000006 Rises=F Damp=F
 DIIS: error= 7.37D-10 at cycle  19 NSaved=  18.
 NSaved=18 IEnMin=15 EnMin= -1136.04287043591     IErMin=18 ErrMin= 7.37D-10
 ErrMax= 7.37D-10  0.00D+00 EMaxC= 1.00D-01 BMatC= 1.56D-16 BMatP= 2.56D-15
 IDIUse=1 WtCom= 1.00D+00 WtEn= 0.00D+00
 Large coefficients: NSaved= 18 BigCof=    0.00 CofMax=   10.00 Det=-2.92D-16
 Inversion failed.  Reducing to 17 matrices.
 Large coefficients: NSaved= 17 BigCof=    0.00 CofMax=   10.00 Det=-2.97D-16
 Inversion failed.  Reducing to 16 matrices.
 Large coefficients: NSaved= 16 BigCof=    0.00 CofMax=   10.00 Det=-3.13D-16
 Inversion failed.  Reducing to 15 matrices.
 Coeff-Com: -0.115D-05-0.227D-05-0.749D-05 0.207D-04 0.149D-03 0.123D-03
 Coeff-Com: -0.290D-03-0.410D-03-0.198D-02 0.502D-02 0.476D-02-0.121D-01
 Coeff-Com: -0.426D-01-0.440D-01 0.109D+01
 Coeff:     -0.115D-05-0.227D-05-0.749D-05 0.207D-04 0.149D-03 0.123D-03
 Coeff:     -0.290D-03-0.410D-03-0.198D-02 0.502D-02 0.476D-02-0.121D-01
 Coeff:     -0.426D-01-0.440D-01 0.109D+01
 Gap=     0.072 Goal=   None    Shift=    0.000
 Gap=     0.043 Goal=   None    Shift=    0.000
 RMSDP=8.01D-09 MaxDP=6.28D-07 DE= 6.37D-12 OVMax= 5.33D-08

 SCF Done:  E(UB3LYP) =  -1136.04287044     A.U. after   19 cycles
            NFock= 19  Conv=0.80D-08     -V/T= 2.0020
 <Sx>= 0.0000 <Sy>= 0.0000 <Sz>= 0.5000 <S**2>= 0.7572 S= 0.5036
 <L.S>= 0.000000000000E+00
 KE= 1.133753805969D+03 PE=-3.602378455355D+03 EE= 8.960273370313D+02
 Annihilation of the first spin contaminant:
 S**2 before annihilation     0.7572,   after     0.7500
 Leave Link  502 at Mon Nov 13 20:45:47 2023, MaxMem=  1879048192 cpu:             196.1 elap:              16.8
 (Enter /home/sekinelabo/g16/l601.exe)
 Copying SCF densities to generalized density rwf, IOpCl= 1 IROHF=0.

 **********************************************************************

            Population analysis using the SCF Density.

 **********************************************************************

 Orbital symmetries:
 Alpha Orbitals:
       Occupied  (A) (A) (A) (A) (A) (A) (A) (A) (A) (A) (A) (A)
                 (A) (A) (A) (A) (A) (A) (A) (A) (A) (A) (A) (A)
                 (A) (A) (A) (A) (A) (A) (A) (A) (A) (A) (A) (A)
                 (A) (A) (A)
       Virtual   (A) (A) (A) (A) (A) (A) (A) (A) (A) (A) (A) (A)
                 (A) (A) (A) (A) (A) (A) (A) (A) (A) (A) (A) (A)
                 (A) (A) (A) (A) (A) (A) (A) (A) (A) (A) (A) (A)
                 (A) (A) (A) (A) (A) (A) (A) (A) (A) (A) (A) (A)
                 (A) (A) (A) (A) (A) (A) (A) (A) (A) (A) (A) (A)
                 (A) (A) (A) (A) (A) (A) (A) (A) (A) (A) (A) (A)
                 (A) (A) (A) (A) (A) (A) (A) (A) (A) (A) (A) (A)
                 (A) (A) (A) (A) (A) (A) (A) (A) (A) (A) (A) (A)
                 (A) (A) (A) (A) (A) (A) (A) (A) (A) (A) (A) (A)
                 (A) (A) (A) (A) (A) (A) (A) (A) (A) (A) (A) (A)
                 (A) (A) (A) (A) (A) (A) (A) (A) (A) (A) (A) (A)
                 (A) (A) (A) (A) (A) (A) (A) (A) (A) (A) (A) (A)
                 (A) (A) (A) (A) (A) (A) (A) (A) (A) (A) (A) (A)
                 (A) (A) (A) (A) (A) (A) (A) (A) (A) (A) (A) (A)
                 (A) (A)
 Beta  Orbitals:
       Occupied  (A) (A) (A) (A) (A) (A) (A) (A) (A) (A) (A) (A)
                 (A) (A) (A) (A) (A) (A) (A) (A) (A) (A) (A) (A)
                 (A) (A) (A) (A) (A) (A) (A) (A) (A) (A) (A) (A)
                 (A) (A)
       Virtual   (A) (A) (A) (A) (A) (A) (A) (A) (A) (A) (A) (A)
                 (A) (A) (A) (A) (A) (A) (A) (A) (A) (A) (A) (A)
                 (A) (A) (A) (A) (A) (A) (A) (A) (A) (A) (A) (A)
                 (A) (A) (A) (A) (A) (A) (A) (A) (A) (A) (A) (A)
                 (A) (A) (A) (A) (A) (A) (A) (A) (A) (A) (A) (A)
                 (A) (A) (A) (A) (A) (A) (A) (A) (A) (A) (A) (A)
                 (A) (A) (A) (A) (A) (A) (A) (A) (A) (A) (A) (A)
                 (A) (A) (A) (A) (A) (A) (A) (A) (A) (A) (A) (A)
                 (A) (A) (A) (A) (A) (A) (A) (A) (A) (A) (A) (A)
                 (A) (A) (A) (A) (A) (A) (A) (A) (A) (A) (A) (A)
                 (A) (A) (A) (A) (A) (A) (A) (A) (A) (A) (A) (A)
                 (A) (A) (A) (A) (A) (A) (A) (A) (A) (A) (A) (A)
                 (A) (A) (A) (A) (A) (A) (A) (A) (A) (A) (A) (A)
                 (A) (A) (A) (A) (A) (A) (A) (A) (A) (A) (A) (A)
                 (A) (A) (A)
 The electronic state is 2-A.
 Alpha  occ. eigenvalues --  -38.44776 -38.44563 -38.44239 -38.44234 -38.44003
 Alpha  occ. eigenvalues --  -38.43948 -38.43944  -2.21173  -2.20937  -2.20417
 Alpha  occ. eigenvalues --   -2.20397  -2.20293  -2.20219  -2.20179  -1.15144
 Alpha  occ. eigenvalues --   -1.15045  -1.14845  -1.14777  -1.14743  -1.14648
 Alpha  occ. eigenvalues --   -1.14440  -1.14332  -1.14229  -1.14157  -1.13983
 Alpha  occ. eigenvalues --   -1.13952  -1.13948  -1.13832  -1.13793  -1.13763
 Alpha  occ. eigenvalues --   -1.13752  -1.13742  -1.13651  -1.13629  -1.13526
 Alpha  occ. eigenvalues --   -0.22440  -0.14341  -0.12982  -0.12537
 Alpha virt. eigenvalues --   -0.05372  -0.04206  -0.03969  -0.03872  -0.03143
 Alpha virt. eigenvalues --   -0.02671  -0.01164  -0.00383  -0.00070   0.00312
 Alpha virt. eigenvalues --    0.00826   0.00902   0.01077   0.01193   0.01291
 Alpha virt. eigenvalues --    0.01299   0.01455   0.01501   0.01540   0.01589
 Alpha virt. eigenvalues --    0.01733   0.01829   0.01853   0.01966   0.01991
 Alpha virt. eigenvalues --    0.02708   0.02719   0.02988   0.03034   0.03085
 Alpha virt. eigenvalues --    0.03131   0.03232   0.03332   0.03337   0.03429
 Alpha virt. eigenvalues --    0.03656   0.03858   0.03938   0.03957   0.04056
 Alpha virt. eigenvalues --    0.04763   0.05041   0.05202   0.05330   0.05343
 Alpha virt. eigenvalues --    0.05465   0.05721   0.05965   0.06109   0.06383
 Alpha virt. eigenvalues --    0.06452   0.07451   0.07476   0.07849   0.08179
 Alpha virt. eigenvalues --    0.08716   0.09317   0.09333   0.09805   0.09934
 Alpha virt. eigenvalues --    0.10393   0.11500   0.11858   0.12722   0.13058
 Alpha virt. eigenvalues --    0.13580   0.14002   0.14062   0.14252   0.14277
 Alpha virt. eigenvalues --    0.14489   0.15189   0.15448   0.16209   0.17458
 Alpha virt. eigenvalues --    0.18565   0.18637   0.19062   0.19980   0.24193
 Alpha virt. eigenvalues --    0.25206   0.25331   0.26967   0.27329   0.28147
 Alpha virt. eigenvalues --    0.28679   0.32681   0.34589   0.36481   0.36572
 Alpha virt. eigenvalues --    0.37746   0.38332   0.39102   0.39508   0.40107
 Alpha virt. eigenvalues --    0.41212   0.43706   0.44090   0.44754   0.45717
 Alpha virt. eigenvalues --    0.45896   0.46387   0.47047   0.47581   0.48479
 Alpha virt. eigenvalues --    0.48862   0.48964   0.49364   0.49532   0.49775
 Alpha virt. eigenvalues --    0.49802   0.52044   0.52071   0.54620   0.54628
 Alpha virt. eigenvalues --    0.55571   0.56517   0.56666   0.58768   0.59031
 Alpha virt. eigenvalues --    0.59667   0.62998   0.65211   0.68757   0.72219
 Alpha virt. eigenvalues --    0.76094   0.78387   0.81706   0.82083   0.82753
 Alpha virt. eigenvalues --    0.86846   0.87948   0.90594   0.90631   0.91540
 Alpha virt. eigenvalues --    2.18363   2.23385   2.27864   2.30110   2.31048
 Alpha virt. eigenvalues --    2.33027   2.34807   4.41236   4.42179   4.42866
 Alpha virt. eigenvalues --    4.43930   4.45210   4.45919   4.46937   4.47898
 Alpha virt. eigenvalues --    4.54457   4.54785   4.66540   4.70660   4.72595
 Alpha virt. eigenvalues --    4.73233   4.76996   4.83597   4.86806   4.89493
 Alpha virt. eigenvalues --    4.90497   4.93396   5.01975  96.43524  96.51547
 Alpha virt. eigenvalues --   96.56562  96.60109  96.61714  96.64373  96.66454
  Beta  occ. eigenvalues --  -38.44676 -38.44465 -38.44228 -38.44223 -38.43981
  Beta  occ. eigenvalues --  -38.43929 -38.43926  -2.20995  -2.20763  -2.20399
  Beta  occ. eigenvalues --   -2.20383  -2.20267  -2.20194  -2.20155  -1.15057
  Beta  occ. eigenvalues --   -1.14925  -1.14736  -1.14670  -1.14630  -1.14534
  Beta  occ. eigenvalues --   -1.14428  -1.14327  -1.14198  -1.14137  -1.13927
  Beta  occ. eigenvalues --   -1.13914  -1.13885  -1.13774  -1.13736  -1.13733
  Beta  occ. eigenvalues --   -1.13669  -1.13659  -1.13641  -1.13622  -1.13520
  Beta  occ. eigenvalues --   -0.21605  -0.13921  -0.12583
  Beta virt. eigenvalues --   -0.08253  -0.05422  -0.04184  -0.03893  -0.02844
  Beta virt. eigenvalues --   -0.02187  -0.01626  -0.01083  -0.00350   0.00069
  Beta virt. eigenvalues --    0.00342   0.00833   0.00897   0.01088   0.01218
  Beta virt. eigenvalues --    0.01275   0.01419   0.01547   0.01605   0.01631
  Beta virt. eigenvalues --    0.01684   0.01766   0.01896   0.01938   0.02007
  Beta virt. eigenvalues --    0.02119   0.02714   0.02716   0.02974   0.03041
  Beta virt. eigenvalues --    0.03124   0.03166   0.03225   0.03344   0.03506
  Beta virt. eigenvalues --    0.03598   0.03798   0.03956   0.03981   0.04038
  Beta virt. eigenvalues --    0.04306   0.04902   0.05124   0.05272   0.05438
  Beta virt. eigenvalues --    0.05580   0.05619   0.06017   0.06213   0.06273
  Beta virt. eigenvalues --    0.06424   0.06449   0.07568   0.07579   0.07840
  Beta virt. eigenvalues --    0.08179   0.08810   0.09343   0.09725   0.10036
  Beta virt. eigenvalues --    0.10241   0.10788   0.11872   0.12063   0.12795
  Beta virt. eigenvalues --    0.13141   0.13579   0.14365   0.14402   0.14475
  Beta virt. eigenvalues --    0.14524   0.14830   0.15538   0.15693   0.16343
  Beta virt. eigenvalues --    0.17662   0.18745   0.19030   0.19077   0.20136
  Beta virt. eigenvalues --    0.24961   0.25769   0.25944   0.27141   0.27711
  Beta virt. eigenvalues --    0.28668   0.28780   0.32652   0.34692   0.36712
  Beta virt. eigenvalues --    0.36729   0.38301   0.38911   0.39449   0.39846
  Beta virt. eigenvalues --    0.40571   0.41281   0.43966   0.44404   0.44865
  Beta virt. eigenvalues --    0.45912   0.46179   0.46400   0.47494   0.47817
  Beta virt. eigenvalues --    0.48584   0.49032   0.49132   0.49537   0.49747
  Beta virt. eigenvalues --    0.49864   0.49903   0.52051   0.52261   0.55018
  Beta virt. eigenvalues --    0.55047   0.55898   0.56789   0.57162   0.59173
  Beta virt. eigenvalues --    0.59246   0.60139   0.63532   0.65467   0.69267
  Beta virt. eigenvalues --    0.72191   0.76060   0.78642   0.82021   0.82486
  Beta virt. eigenvalues --    0.82782   0.87131   0.87996   0.90587   0.90696
  Beta virt. eigenvalues --    0.91816   2.18435   2.23398   2.27889   2.30122
  Beta virt. eigenvalues --    2.31136   2.33363   2.35193   4.41366   4.42326
  Beta virt. eigenvalues --    4.42956   4.43959   4.45315   4.45919   4.46993
  Beta virt. eigenvalues --    4.47954   4.54577   4.54910   4.66616   4.70701
  Beta virt. eigenvalues --    4.72762   4.73259   4.77090   4.83624   4.86932
  Beta virt. eigenvalues --    4.89601   4.90518   4.93453   5.02003  96.43553
  Beta virt. eigenvalues --   96.51556  96.56584  96.60122  96.61750  96.64488
  Beta virt. eigenvalues --   96.66575
          Condensed to atoms (all electrons):
               1          2          3          4          5          6
     1  Na  12.525431   0.095638  -0.395626   0.214492  -0.951280   0.221615
     2  Na   0.095638  12.756040  -0.282835  -1.001549   0.232775  -0.969134
     3  Na  -0.395626  -0.282835  15.349755   1.884087  -0.383175  -2.866167
     4  Na   0.214492  -1.001549   1.884087  14.772076   0.078326  -2.286644
     5  Na  -0.951280   0.232775  -0.383175   0.078326  12.602638   0.082443
     6  Na   0.221615  -0.969134  -2.866167  -2.286644   0.082443  14.745874
     7  Na  -0.392530  -0.252203  -2.191154  -2.865570  -0.383024   1.866878
               7
     1  Na  -0.392530
     2  Na  -0.252203
     3  Na  -2.191154
     4  Na  -2.865570
     5  Na  -0.383024
     6  Na   1.866878
     7  Na  15.337459
          Atomic-Atomic Spin Densities.
               1          2          3          4          5          6
     1  Na   1.255441   0.056023   0.038224   0.029020  -0.988730   0.026933
     2  Na   0.056023  -0.267851   0.067541   0.124550  -0.062952   0.122170
     3  Na   0.038224   0.067541  -0.365470  -0.180812   0.125717   0.271801
     4  Na   0.029020   0.124550  -0.180812  -0.402221  -0.001901   0.190375
     5  Na  -0.988730  -0.062952   0.125717  -0.001901   1.286458  -0.001809
     6  Na   0.026933   0.122170   0.271801   0.190375  -0.001809  -0.400770
     7  Na   0.036279   0.067997  -0.009253   0.270897   0.127732  -0.178255
               7
     1  Na   0.036279
     2  Na   0.067997
     3  Na  -0.009253
     4  Na   0.270897
     5  Na   0.127732
     6  Na  -0.178255
     7  Na  -0.368678
 Mulliken charges and spin densities:
               1          2
     1  Na  -0.317741   0.453189
     2  Na   0.421267   0.107477
     3  Na  -0.114884  -0.052251
     4  Na   0.204782   0.029908
     5  Na  -0.278704   0.484515
     6  Na   0.205135   0.030444
     7  Na  -0.119855  -0.053281
 Sum of Mulliken charges =  -0.00000   1.00000
 Mulliken charges and spin densities with hydrogens summed into heavy atoms:
               1          2
     1  Na  -0.317741   0.453189
     2  Na   0.421267   0.107477
     3  Na  -0.114884  -0.052251
     4  Na   0.204782   0.029908
     5  Na  -0.278704   0.484515
     6  Na   0.205135   0.030444
     7  Na  -0.119855  -0.053281
 Electronic spatial extent (au):  <R**2>=           1415.2457
 Charge=             -0.0000 electrons
 Dipole moment (field-independent basis, Debye):
    X=              0.0013    Y=             -0.0683    Z=              0.0784  Tot=              0.1040
 Quadrupole moment (field-independent basis, Debye-Ang):
   XX=            -58.8544   YY=            -71.2111   ZZ=            -68.7776
   XY=             -0.0049   XZ=             -0.0036   YZ=             -0.1833
 Traceless Quadrupole moment (field-independent basis, Debye-Ang):
   XX=              7.4266   YY=             -4.9301   ZZ=             -2.4966
   XY=             -0.0049   XZ=             -0.0036   YZ=             -0.1833
 Octapole moment (field-independent basis, Debye-Ang**2):
  XXX=              0.0966  YYY=              1.4249  ZZZ=              0.9203  XYY=             -0.0383
  XXY=             -4.9000  XXZ=              1.2550  XZZ=             -0.0116  YZZ=              0.9489
  YYZ=             -0.3155  XYZ=              0.0048
 Hexadecapole moment (field-independent basis, Debye-Ang**3):
 XXXX=           -972.1363 YYYY=           -925.0303 ZZZZ=           -558.0307 XXXY=             -0.0770
 XXXZ=             -0.0706 YYYX=             -0.0512 YYYZ=             -1.1620 ZZZX=              0.0246
 ZZZY=              0.1860 XXYY=           -313.9962 XXZZ=           -309.4548 YYZZ=           -277.1687
 XXYZ=             -3.4518 YYXZ=             -0.0377 ZZXY=             -0.0105
 N-N= 4.365544419180D+02 E-N=-3.602378455466D+03  KE= 1.133753805969D+03
                          Isotropic Fermi Contact Couplings
        Atom                 a.u.       MegaHertz       Gauss      10(-4) cm-1
     1  Na(23)             0.40717     481.69243     171.87984     160.67530
     2  Na(23)            -0.01448     -17.13237      -6.11326      -5.71474
     3  Na(23)            -0.02328     -27.53513      -9.82522      -9.18473
     4  Na(23)            -0.01716     -20.30035      -7.24367      -6.77147
     5  Na(23)             0.40037     473.64741     169.00917     157.99177
     6  Na(23)            -0.01714     -20.27739      -7.23548      -6.76381
     7  Na(23)            -0.02340     -27.67891      -9.87652      -9.23269
 --------------------------------------------------------
       Center         ----  Spin Dipole Couplings  ----
                      3XX-RR        3YY-RR        3ZZ-RR
 --------------------------------------------------------
     1   Atom        0.006906      0.009846     -0.016752
     2   Atom       -0.044883     -0.042986      0.087869
     3   Atom       -0.023549     -0.030689      0.054238
     4   Atom       -0.039006     -0.038028      0.077034
     5   Atom        0.009014      0.007908     -0.016922
     6   Atom       -0.039119     -0.038084      0.077203
     7   Atom       -0.023429     -0.030625      0.054054
 --------------------------------------------------------
                        XY            XZ            YZ
 --------------------------------------------------------
     1   Atom       -0.000005     -0.000002     -0.000840
     2   Atom        0.000003     -0.000010     -0.002404
     3   Atom        0.001873      0.002776      0.001502
     4   Atom       -0.001310     -0.003200      0.000802
     5   Atom        0.000009     -0.000018      0.000429
     6   Atom        0.001306      0.003236      0.000880
     7   Atom       -0.001869     -0.002699      0.001460
 --------------------------------------------------------


 ---------------------------------------------------------------------------------
              Anisotropic Spin Dipole Couplings in Principal Axis System
 ---------------------------------------------------------------------------------

       Atom             a.u.   MegaHertz   Gauss  10(-4) cm-1        Axes

              Baa    -0.0168    -2.369    -0.845    -0.790  0.0001  0.0315  0.9995
     1 Na(23) Bbb     0.0069     0.975     0.348     0.325  1.0000  0.0017 -0.0001
              Bcc     0.0099     1.394     0.497     0.465 -0.0017  0.9995 -0.0315
 
              Baa    -0.0449    -6.338    -2.262    -2.114  1.0000 -0.0013  0.0001
     2 Na(23) Bbb    -0.0430    -6.076    -2.168    -2.027  0.0013  0.9998  0.0184
              Bcc     0.0879    12.415     4.430     4.141 -0.0001 -0.0184  0.9998
 
              Baa    -0.0312    -4.400    -1.570    -1.468 -0.2358  0.9718 -0.0094
     3 Na(23) Bbb    -0.0232    -3.277    -1.169    -1.093  0.9711  0.2353 -0.0394
              Bcc     0.0544     7.677     2.739     2.561  0.0360  0.0184  0.9992
 
              Baa    -0.0400    -5.642    -2.013    -1.882  0.8306  0.5566  0.0189
     4 Na(23) Bbb    -0.0372    -5.249    -1.873    -1.751 -0.5562  0.8308 -0.0214
              Bcc     0.0771    10.892     3.886     3.633 -0.0276  0.0073  0.9996
 
              Baa    -0.0169    -2.391    -0.853    -0.797  0.0007 -0.0173  0.9999
     5 Na(23) Bbb     0.0079     1.118     0.399     0.373 -0.0080  0.9998  0.0173
              Bcc     0.0090     1.273     0.454     0.425  1.0000  0.0080 -0.0006
 
              Baa    -0.0400    -5.655    -2.018    -1.886  0.8365 -0.5477 -0.0190
     6 Na(23) Bbb    -0.0373    -5.261    -1.877    -1.755  0.5473  0.8366 -0.0219
              Bcc     0.0773    10.916     3.895     3.641  0.0279  0.0079  0.9996
 
              Baa    -0.0311    -4.390    -1.567    -1.464  0.2340  0.9722 -0.0093
     7 Na(23) Bbb    -0.0231    -3.260    -1.163    -1.087  0.9716 -0.2334  0.0384
              Bcc     0.0542     7.650     2.730     2.552 -0.0352  0.0180  0.9992
 

 ---------------------------------------------------------------------------------

 No NMR shielding tensors so no spin-rotation constants.
 Leave Link  601 at Mon Nov 13 20:45:47 2023, MaxMem=  1879048192 cpu:               3.3 elap:               0.2
 (Enter /home/sekinelabo/g16/l701.exe)
 ... and contract with generalized density number  0.
 Compute integral first derivatives.
 Leave Link  701 at Mon Nov 13 20:45:48 2023, MaxMem=  1879048192 cpu:               1.9 elap:               0.1
 (Enter /home/sekinelabo/g16/l702.exe)
 L702 exits ... SP integral derivatives will be done elsewhere.
 Leave Link  702 at Mon Nov 13 20:45:48 2023, MaxMem=  1879048192 cpu:               0.4 elap:               0.0
 (Enter /home/sekinelabo/g16/l703.exe)
 Integral derivatives from FoFJK, PRISM(SPDF).
 Compute integral first derivatives, UseDBF=F ICtDFT=           0.
 Calling FoFJK, ICntrl=      2127 FMM=F ISym2X=0 I1Cent= 0 IOpClX= 1 NMat=1 NMatS=1 NMatT=0.
 FoFJK:  IHMeth= 1 ICntrl=    2127 DoSepK=F KAlg= 0 I1Cent=           0 FoldK=F
 IRaf=         0 NMat=       1 IRICut=       1 DoRegI=T DoRafI=F ISym2E= 0 IDoP0=0 IntGTp=1.
 FoFCou: FMM=F IPFlag=           0 FMFlag=      100000 FMFlg1=         800
         NFxFlg=           0 DoJE=F BraDBF=F KetDBF=F FulRan=T
         wScrn=  0.000000 ICntrl=      2127 IOpCl=  1 I1Cent=           0 NGrid=           0
         NMat0=    1 NMatS0=      1 NMatT0=    0 NMatD0=    1 NMtDS0=    0 NMtDT0=    0
 Symmetry not used in FoFCou.
 Leave Link  703 at Mon Nov 13 20:45:50 2023, MaxMem=  1879048192 cpu:              38.7 elap:               2.5
 (Enter /home/sekinelabo/g16/l716.exe)
 Dipole        = 4.94601273D-04-2.68750724D-02 3.08303224D-02
 ***** Axes restored to original set *****
 -------------------------------------------------------------------
 Center     Atomic                   Forces (Hartrees/Bohr)
 Number     Number              X              Y              Z
 -------------------------------------------------------------------
      1       11           0.000004438   -0.000480564   -0.034306238
      2       11           0.000129462   -0.038820396    0.001314542
      3       11          -0.027372769   -0.011462612    0.000853395
      4       11          -0.019856653    0.031990775   -0.000508193
      5       11           0.000006592   -0.001955318    0.032374049
      6       11           0.019749860    0.032113736   -0.000551226
      7       11           0.027339069   -0.011385619    0.000823671
 -------------------------------------------------------------------
 Cartesian Forces:  Max     0.038820396 RMS     0.019924322
 Z-matrix is all fixed cartesians, so copy forces.
 Force constants in Cartesian coordinates: 
                1             2             3             4             5 
      1  0.267094D+00
      2  0.280217D-04  0.251943D+00
      3  0.418319D-04  0.237756D-02  0.380388D+00
      4 -0.812025D-01  0.570966D-04  0.493978D-04  0.283840D+00
      5  0.000000D+00 -0.853810D-01 -0.177715D-01 -0.228384D-03  0.356112D+00
      6 -0.125034D-03  0.727888D-01 -0.828568D-01  0.403345D-04  0.644487D-03
      7 -0.341857D-01 -0.564508D-02 -0.207033D-01 -0.761467D-01 -0.247746D-01
      8 -0.450222D-02 -0.216420D-01 -0.504044D-02  0.545412D-01 -0.716682D-01
      9  0.542977D-01  0.181441D-01 -0.464595D-01  0.401938D-03 -0.425482D-03
     10 -0.645004D-01  0.592225D-02 -0.164103D-01  0.997846D-02  0.295226D-02
     11  0.196824D-02 -0.630338D-01  0.113983D-01  0.307653D-01 -0.274037D-01
     12  0.395739D-01 -0.537460D-01 -0.723380D-01  0.902295D-03 -0.479882D-03
     13  0.114015D-01  0.446017D-04 -0.556211D-04 -0.705738D-01  0.246481D-04
     14  0.491703D-04  0.263917D-02  0.253047D-02  0.117742D-04 -0.723047D-01
     15  0.315597D-05 -0.354498D-02 -0.601903D-01 -0.792263D-04  0.189492D-01
     16 -0.645621D-01 -0.601576D-02  0.163836D-01  0.999557D-02 -0.276275D-02
     17 -0.195493D-02 -0.631221D-01  0.114456D-01 -0.306303D-01 -0.276237D-01
     18 -0.394622D-01 -0.539096D-01 -0.723221D-01 -0.913431D-03 -0.479097D-03
     19 -0.340451D-01  0.560886D-02  0.206944D-01 -0.758910D-01  0.247893D-01
     20  0.441224D-02 -0.214033D-01 -0.493998D-02 -0.545166D-01 -0.717304D-01
     21 -0.543293D-01  0.178901D-01 -0.462215D-01 -0.401308D-03 -0.437676D-03
                6             7             8             9            10 
      6  0.291862D+00
      7 -0.165268D-02  0.215404D+00
      8 -0.361220D-02  0.256072D-01  0.171102D+00
      9 -0.791508D-01 -0.210072D-04  0.114049D-02  0.160772D+00
     10  0.210259D-03 -0.491290D-01 -0.472540D-01 -0.124932D-03  0.246250D+00
     11  0.694520D-03  0.245462D-01 -0.820500D-01  0.441971D-03 -0.324408D-01
     12  0.102712D-01 -0.149525D-02  0.157964D-02 -0.531404D-01  0.313639D-02
     13  0.591935D-04 -0.391026D-01 -0.700194D-02 -0.531261D-01 -0.607089D-01
     14 -0.676813D-01 -0.521641D-02 -0.244799D-01 -0.195405D-01  0.867550D-02
     15 -0.711758D-01  0.213935D-01  0.499361D-02 -0.465025D-01  0.130562D-01
     16 -0.210000D-03 -0.606741D-02 -0.213946D-01 -0.316840D-03 -0.757221D-01
     17  0.726141D-03 -0.144055D-01  0.122867D-01  0.541320D-03  0.408426D-01
     18  0.102121D-01  0.133876D-02  0.123009D-02  0.299985D-01 -0.205397D-03
     19  0.167793D-02 -0.107724D-01  0.436433D-05 -0.111078D-02 -0.616765D-02
     20 -0.356051D-02 -0.111793D-03  0.164511D-01 -0.301870D-03  0.213022D-01
     21 -0.791616D-01  0.114005D-02 -0.291172D-03  0.344830D-01  0.337774D-03
               11            12            13            14            15 
     11  0.271825D+00
     12 -0.126388D-02  0.208350D+00
     13  0.180544D-02 -0.410366D-01  0.258797D+00
     14 -0.597963D-01  0.522667D-01  0.501148D-04  0.238188D+00
     15 -0.122737D-01 -0.699149D-01  0.339912D-04 -0.761594D-03  0.364226D+00
     16 -0.409658D-01  0.230999D-03 -0.608191D-01 -0.870139D-02 -0.129969D-01
     17 -0.519637D-01  0.432804D-03 -0.184829D-02 -0.599547D-01 -0.122482D-01
     18  0.462395D-03 -0.532773D-01  0.409537D-01  0.525093D-01 -0.700023D-01
     19  0.143214D-01 -0.131176D-02 -0.389940D-01  0.513125D-02 -0.214107D-01
     20  0.124229D-01  0.121066D-02  0.692542D-02 -0.242912D-01  0.488569D-02
     21  0.540418D-03  0.300497D-01  0.531713D-01 -0.193231D-01 -0.464398D-01
               16            17            18            19            20 
     16  0.246569D+00
     17  0.324108D-01  0.272588D+00
     18 -0.318604D-02 -0.135649D-02  0.208778D+00
     19 -0.493938D-01 -0.244144D-01  0.147456D-02  0.215264D+00
     20  0.474294D-01 -0.822103D-01  0.154336D-02 -0.254409D-01  0.170761D+00
     21  0.951655D-04  0.458782D-03 -0.533868D-01 -0.136745D-04  0.116265D-02
               21 
     21  0.160677D+00
 Leave Link  716 at Mon Nov 13 20:45:50 2023, MaxMem=  1879048192 cpu:               0.4 elap:               0.0
 (Enter /home/sekinelabo/g16/l103.exe)

 GradGradGradGradGradGradGradGradGradGradGradGradGradGradGradGradGradGrad
 Berny optimization.
 Search for a local minimum.
 Step number   1 out of a maximum of    2
 All quantities printed in internal units (Hartrees-Bohrs-Radians)
 Second derivative matrix not updated -- first step.
 ITU=  0
     Eigenvalues ---    0.18821   0.22273   0.26491   0.28741   0.30284
     Eigenvalues ---    0.31832   0.32129   0.33864   0.35698   0.37675
     Eigenvalues ---    0.38648   0.43710   0.43986   0.45913   0.47013
 Quadratic step=4.204D-01 exceeds max=3.000D-01 adjusted using Lamda=-8.245D-02.
 Angle between NR and scaled steps=   2.81 degrees.
 Angle between quadratic step and forces=  11.04 degrees.
 Linear search not attempted -- first point.
 B after Tr=     0.000000    0.000000    0.000000
         Rot=    1.000000   -0.000000   -0.000000    0.000000 Ang=   0.00 deg.
 Variable       Old X    -DE/DX   Delta X   Delta X   Delta X     New X
                                 (Linear)    (Quad)   (Total)
    X1        4.58780   0.00000   0.00000  -0.00004  -0.00004   4.58776
    Y1        3.80247  -0.00048   0.00000   0.00106   0.00106   3.80353
    Z1        0.00000  -0.03431   0.00000  -0.08873  -0.08873  -0.08873
    X2        4.60060   0.00013   0.00000   0.00031   0.00031   4.60091
    Y2        0.00000  -0.03882   0.00000  -0.11026  -0.11026  -0.11026
    Z2        3.08126   0.00131   0.00000  -0.00018  -0.00018   3.08108
    X3        0.00000  -0.02737   0.00000  -0.11907  -0.11907  -0.11907
    Y3        2.14813  -0.01146   0.00000  -0.04505  -0.04505   2.10308
    Z3        3.28846   0.00085   0.00000   0.00285   0.00285   3.29130
    X4        1.93348  -0.01986   0.00000  -0.07246  -0.07246   1.86102
    Y4        6.85643   0.03199   0.00000   0.09876   0.09876   6.95519
    Z4        3.11827  -0.00051   0.00000  -0.00191  -0.00191   3.11635
    X5        4.59167   0.00001   0.00000   0.00001   0.00001   4.59168
    Y5        3.91408  -0.00196   0.00000   0.00115   0.00115   3.91522
    Z5        6.38485   0.03237   0.00000   0.08720   0.08720   6.47204
    X6        7.23733   0.01975   0.00000   0.07205   0.07205   7.30938
    Y6        6.85983   0.03211   0.00000   0.09894   0.09894   6.95877
    Z6        3.11683  -0.00055   0.00000  -0.00199  -0.00199   3.11483
    X7        9.19540   0.02734   0.00000   0.11920   0.11920   9.31460
    Y7        2.16608  -0.01139   0.00000  -0.04460  -0.04460   2.12148
    Z7        3.28635   0.00082   0.00000   0.00277   0.00277   3.28912
         Item               Value     Threshold  Converged?
 Maximum Force            0.038820     0.000450     NO 
 RMS     Force            0.019924     0.000300     NO 
 Maximum Displacement     0.119195     0.001800     NO 
 RMS     Displacement     0.065483     0.001200     NO 
 Predicted change in Energy=-1.715825D-02
 GradGradGradGradGradGradGradGradGradGradGradGradGradGradGradGradGradGrad

 Leave Link  103 at Mon Nov 13 20:45:50 2023, MaxMem=  1879048192 cpu:               0.3 elap:               0.0
 (Enter /home/sekinelabo/g16/l9999.exe)
 1\1\GINC-SEKINELABO-XA7R-R37\Force\UB3LYP\6-311+G(d)\Na7(2)\SEKINELABO
 \13-Nov-2023\0\\#P B3LYP/6-311+g(d) force\\Gaussian input prepared by 
 ASE\\0,2\Na,2.4277586499,2.0121778325,0.\Na,2.4345350283,0.,1.63053342
 04\Na,0.,1.1367418807,1.7401761571\Na,1.0231510472,3.6282641653,1.6501
 151321\Na,2.4298075733,2.071239386,3.3787154259\Na,3.8298288863,3.6300
 651088,1.6493534018\Na,4.8659986081,1.1462414876,1.7390618624\\Version
 =ES64L-G16RevB.01\State=2-A\HF=-1136.0428704\S2=0.757208\S2-1=0.\S2A=0
 .750037\RMSD=8.009e-09\RMSF=1.992e-02\Dipole=0.0004946,-0.0268751,0.03
 08303\Quadrupole=5.5215232,-3.6653914,-1.8561318,-0.0036596,-0.0026854
 ,-0.1362692\PG=C01 [X(Na7)]\\@


 The cat could very well be man's best friend
 but would never stoop to admitting it.
                               -- Doug Larson
 Job cpu time:       0 days  0 hours  4 minutes 13.3 seconds.
 Elapsed time:       0 days  0 hours  0 minutes 20.5 seconds.
 File lengths (MBytes):  RWF=     32 Int=      0 D2E=      0 Chk=      6 Scr=      1
 Normal termination of Gaussian 16 at Mon Nov 13 20:45:50 2023.
