 Entering Gaussian System, Link 0=g16
 Initial command:
 /home/sekinelabo/g16/l1.exe "/home/sekinelabo/g16temp/Gau-4177398.inp" -scrdir="/home/sekinelabo/g16temp/"
 Entering Link 1 = /home/sekinelabo/g16/l1.exe PID=   4177400.
  
 Copyright (c) 1988-2017, Gaussian, Inc.  All Rights Reserved.
  
 This is part of the Gaussian(R) 16 program.  It is based on
 the Gaussian(R) 09 system (copyright 2009, Gaussian, Inc.),
 the Gaussian(R) 03 system (copyright 2003, Gaussian, Inc.),
 the Gaussian(R) 98 system (copyright 1998, Gaussian, Inc.),
 the Gaussian(R) 94 system (copyright 1995, Gaussian, Inc.),
 the Gaussian 92(TM) system (copyright 1992, Gaussian, Inc.),
 the Gaussian 90(TM) system (copyright 1990, Gaussian, Inc.),
 the Gaussian 88(TM) system (copyright 1988, Gaussian, Inc.),
 the Gaussian 86(TM) system (copyright 1986, Carnegie Mellon
 University), and the Gaussian 82(TM) system (copyright 1983,
 Carnegie Mellon University). Gaussian is a federally registered
 trademark of Gaussian, Inc.
  
 This software contains proprietary and confidential information,
 including trade secrets, belonging to Gaussian, Inc.
  
 This software is provided under written license and may be
 used, copied, transmitted, or stored only in accord with that
 written license.
  
 The following legend is applicable only to US Government
 contracts under FAR:
  
                    RESTRICTED RIGHTS LEGEND
  
 Use, reproduction and disclosure by the US Government is
 subject to restrictions as set forth in subparagraphs (a)
 and (c) of the Commercial Computer Software - Restricted
 Rights clause in FAR 52.227-19.
  
 Gaussian, Inc.
 340 Quinnipiac St., Bldg. 40, Wallingford CT 06492
  
  
 ---------------------------------------------------------------
 Warning -- This program may not be used in any manner that
 competes with the business of Gaussian, Inc. or will provide
 assistance to any competitor of Gaussian, Inc.  The licensee
 of this program is prohibited from giving any competitor of
 Gaussian, Inc. access to this program.  By using this program,
 the user acknowledges that Gaussian, Inc. is engaged in the
 business of creating and licensing software in the field of
 computational chemistry and represents and warrants to the
 licensee that it is not a competitor of Gaussian, Inc. and that
 it will not use this program in any manner prohibited above.
 ---------------------------------------------------------------
  

 Cite this work as:
 Gaussian 16, Revision B.01,
 M. J. Frisch, G. W. Trucks, H. B. Schlegel, G. E. Scuseria, 
 M. A. Robb, J. R. Cheeseman, G. Scalmani, V. Barone, 
 G. A. Petersson, H. Nakatsuji, X. Li, M. Caricato, A. V. Marenich, 
 J. Bloino, B. G. Janesko, R. Gomperts, B. Mennucci, H. P. Hratchian, 
 J. V. Ortiz, A. F. Izmaylov, J. L. Sonnenberg, D. Williams-Young, 
 F. Ding, F. Lipparini, F. Egidi, J. Goings, B. Peng, A. Petrone, 
 T. Henderson, D. Ranasinghe, V. G. Zakrzewski, J. Gao, N. Rega, 
 G. Zheng, W. Liang, M. Hada, M. Ehara, K. Toyota, R. Fukuda, 
 J. Hasegawa, M. Ishida, T. Nakajima, Y. Honda, O. Kitao, H. Nakai, 
 T. Vreven, K. Throssell, J. A. Montgomery, Jr., J. E. Peralta, 
 F. Ogliaro, M. J. Bearpark, J. J. Heyd, E. N. Brothers, K. N. Kudin, 
 V. N. Staroverov, T. A. Keith, R. Kobayashi, J. Normand, 
 K. Raghavachari, A. P. Rendell, J. C. Burant, S. S. Iyengar, 
 J. Tomasi, M. Cossi, J. M. Millam, M. Klene, C. Adamo, R. Cammi, 
 J. W. Ochterski, R. L. Martin, K. Morokuma, O. Farkas, 
 J. B. Foresman, and D. J. Fox, Gaussian, Inc., Wallingford CT, 2016.
 
 ******************************************
 Gaussian 16:  ES64L-G16RevB.01 20-Dec-2017
                13-Nov-2023 
 ******************************************
 %mem=14GB
 %chk=checkpoint.chk
 %nprocshared=16
 Will use up to   16 processors via shared memory.
 -------------------------
 #P B3LYP/6-311+g(d) force
 -------------------------
 1/10=7,30=1,38=1/1,3;
 2/12=2,17=6,18=5,40=1/2;
 3/5=4,6=6,7=11,11=2,25=1,30=1,71=1,74=-5/1,2,3;
 4//1;
 5/5=2,38=5/2;
 6/7=2,8=2,9=2,10=2,28=1/1;
 7/29=1/1,2,3,16;
 1/10=7,30=1/3;
 99//99;
 Leave Link    1 at Mon Nov 13 20:14:33 2023, MaxMem=  1879048192 cpu:               0.3 elap:               0.0
 (Enter /home/sekinelabo/g16/l101.exe)
 ------------------------------
 Gaussian input prepared by ASE
 ------------------------------
 Symbolic Z-matrix:
 Charge =  0 Multiplicity = 2
 Na                    0.25739   2.61607   0. 
 Na                    5.29925   1.32009   2.48138 
 Na                    5.20752   3.75204   0.72839 
 Na                    2.6583    2.57847   1.79975 
 Na                    0.44821   4.55148   2.2797 
 Na                    0.        1.63906   2.82275 
 Na                    1.48516   0.        0.79894 
 
 ITRead=  0  0  0  0  0  0  0
 MicOpt= -1 -1 -1 -1 -1 -1 -1
 NAtoms=      7 NQM=        7 NQMF=       0 NMMI=      0 NMMIF=      0
                NMic=       0 NMicF=      0.
                    Isotopes and Nuclear Properties:
 (Nuclear quadrupole moments (NQMom) in fm**2, nuclear magnetic moments (NMagM)
  in nuclear magnetons)

  Atom         1           2           3           4           5           6           7
 IAtWgt=          23          23          23          23          23          23          23
 AtmWgt=  22.9897697  22.9897697  22.9897697  22.9897697  22.9897697  22.9897697  22.9897697
 NucSpn=           3           3           3           3           3           3           3
 AtZEff=  -0.0000000  -0.0000000  -0.0000000  -0.0000000  -0.0000000  -0.0000000  -0.0000000
 NQMom=   10.4000000  10.4000000  10.4000000  10.4000000  10.4000000  10.4000000  10.4000000
 NMagM=    2.2175200   2.2175200   2.2175200   2.2175200   2.2175200   2.2175200   2.2175200
 AtZNuc=  11.0000000  11.0000000  11.0000000  11.0000000  11.0000000  11.0000000  11.0000000
 Leave Link  101 at Mon Nov 13 20:14:33 2023, MaxMem=  1879048192 cpu:               2.6 elap:               0.2
 (Enter /home/sekinelabo/g16/l103.exe)

 GradGradGradGradGradGradGradGradGradGradGradGradGradGradGradGradGradGrad
 Berny optimization.
 Initialization pass.
 Trust Radius=3.00D-01 FncErr=1.00D-07 GrdErr=1.00D-07 EigMax=2.50D+02 EigMin=1.00D-04
 Number of steps in this run=      2 maximum allowed number of steps=      2.
 GradGradGradGradGradGradGradGradGradGradGradGradGradGradGradGradGradGrad

 Leave Link  103 at Mon Nov 13 20:14:33 2023, MaxMem=  1879048192 cpu:               0.2 elap:               0.0
 (Enter /home/sekinelabo/g16/l202.exe)
                          Input orientation:                          
 ---------------------------------------------------------------------
 Center     Atomic      Atomic             Coordinates (Angstroms)
 Number     Number       Type             X           Y           Z
 ---------------------------------------------------------------------
      1         11           0        0.257394    2.616073    0.000000
      2         11           0        5.299255    1.320094    2.481378
      3         11           0        5.207520    3.752041    0.728389
      4         11           0        2.658299    2.578470    1.799745
      5         11           0        0.448205    4.551477    2.279705
      6         11           0        0.000000    1.639064    2.822746
      7         11           0        1.485162    0.000000    0.798939
 ---------------------------------------------------------------------
                    Distance matrix (angstroms):
                    1          2          3          4          5
     1  Na   0.000000
     2  Na   5.766901   0.000000
     3  Na   5.130762   2.999292   0.000000
     4  Na   3.000806   3.003794   3.003931   0.000000
     5  Na   2.996540   5.832254   5.069197   3.001271   0.000000
     6  Na   2.998115   5.319810   5.997439   2.999261   2.996319
     7  Na   2.998259   4.372706   5.285712   3.004392   4.897335
                    6          7
     6  Na   0.000000
     7  Na   2.998005   0.000000
 Stoichiometry    Na7(2)
 Framework group  C1[X(Na7)]
 Deg. of freedom    15
 Full point group                 C1      NOp   1
 Largest Abelian subgroup         C1      NOp   1
 Largest concise Abelian subgroup C1      NOp   1
                         Standard orientation:                         
 ---------------------------------------------------------------------
 Center     Atomic      Atomic             Coordinates (Angstroms)
 Number     Number       Type             X           Y           Z
 ---------------------------------------------------------------------
      1         11           0       -1.936296   -0.265042    1.558700
      2         11           0        3.105564    1.030937   -0.922677
      3         11           0        3.013830   -1.401010    0.830311
      4         11           0        0.464608   -0.227439   -0.241045
      5         11           0       -1.745485   -2.200445   -0.721004
      6         11           0       -2.193691    0.711967   -1.264046
      7         11           0       -0.708529    2.351031    0.759761
 ---------------------------------------------------------------------
 Rotational constants (GHZ):           1.0595572           0.5819074           0.4876647
 Leave Link  202 at Mon Nov 13 20:14:33 2023, MaxMem=  1879048192 cpu:               0.1 elap:               0.0
 (Enter /home/sekinelabo/g16/l301.exe)
 Standard basis: 6-311+G(d) (5D, 7F)
 Ernie: Thresh=  0.10000D-02 Tol=  0.10000D-05 Strict=F.
 There are   217 symmetry adapted cartesian basis functions of A   symmetry.
 There are   210 symmetry adapted basis functions of A   symmetry.
   210 basis functions,   350 primitive gaussians,   217 cartesian basis functions
    39 alpha electrons       38 beta electrons
       nuclear repulsion energy       365.8590093437 Hartrees.
 IExCor=  402 DFT=T Ex+Corr=B3LYP ExCW=0 ScaHFX=  0.200000
 ScaDFX=  0.800000  0.720000  1.000000  0.810000 ScalE2=  1.000000  1.000000
 IRadAn=      5 IRanWt=     -1 IRanGd=            0 ICorTp=0 IEmpDi=  4
 NAtoms=    7 NActive=    7 NUniq=    7 SFac= 1.00D+00 NAtFMM=   60 NAOKFM=F Big=F
 Integral buffers will be    131072 words long.
 Raffenetti 2 integral format.
 Two-electron integral symmetry is turned on.
 Leave Link  301 at Mon Nov 13 20:14:33 2023, MaxMem=  1879048192 cpu:               0.5 elap:               0.0
 (Enter /home/sekinelabo/g16/l302.exe)
 NPDir=0 NMtPBC=     1 NCelOv=     1 NCel=       1 NClECP=     1 NCelD=      1
         NCelK=      1 NCelE2=     1 NClLst=     1 CellRange=     0.0.
 One-electron integrals computed using PRISM.
 One-electron integral symmetry used in STVInt
 NBasis=   210 RedAO= T EigKep=  1.26D-06  NBF=   210
 NBsUse=   210 1.00D-06 EigRej= -1.00D+00 NBFU=   210
 Precomputing XC quadrature grid using
 IXCGrd= 4 IRadAn=           5 IRanWt=          -1 IRanGd=           0 AccXCQ= 0.00D+00.
 Generated NRdTot=       0 NPtTot=           0 NUsed=           0 NTot=          32
 NSgBfM=   212   212   212   212   212 MxSgAt=     7 MxSgA2=     7.
 Leave Link  302 at Mon Nov 13 20:14:33 2023, MaxMem=  1879048192 cpu:               2.2 elap:               0.1
 (Enter /home/sekinelabo/g16/l303.exe)
 DipDrv:  MaxL=1.
 Leave Link  303 at Mon Nov 13 20:14:33 2023, MaxMem=  1879048192 cpu:               0.6 elap:               0.0
 (Enter /home/sekinelabo/g16/l401.exe)
 ExpMin= 7.60D-03 ExpMax= 3.62D+04 ExpMxC= 1.21D+03 IAcc=3 IRadAn=         5 AccDes= 0.00D+00
 Harris functional with IExCor=  402 and IRadAn=       5 diagonalized for initial guess.
 HarFok:  IExCor=  402 AccDes= 0.00D+00 IRadAn=         5 IDoV= 1 UseB2=F ITyADJ=14
 ICtDFT=  3500011 ScaDFX=  1.000000  1.000000  1.000000  1.000000
 FoFCou: FMM=F IPFlag=           0 FMFlag=      100000 FMFlg1=           0
         NFxFlg=           0 DoJE=T BraDBF=F KetDBF=T FulRan=T
         wScrn=  0.000000 ICntrl=       500 IOpCl=  0 I1Cent=   200000004 NGrid=           0
         NMat0=    1 NMatS0=      1 NMatT0=    0 NMatD0=    1 NMtDS0=    0 NMtDT0=    0
 Petite list used in FoFCou.
 Harris En= -1135.87186711501    
 JPrj=0 DoOrth=F DoCkMO=F.
 Initial guess <Sx>= 0.0000 <Sy>= 0.0000 <Sz>= 0.5000 <S**2>= 0.7500 S= 0.5000
 Leave Link  401 at Mon Nov 13 20:14:34 2023, MaxMem=  1879048192 cpu:               4.7 elap:               0.3
 (Enter /home/sekinelabo/g16/l502.exe)
 Keep R1 and R2 ints in memory in canonical form, NReq=507620388.
 FoFCou: FMM=F IPFlag=           0 FMFlag=           0 FMFlg1=           0
         NFxFlg=           0 DoJE=F BraDBF=F KetDBF=F FulRan=T
         wScrn=  0.000000 ICntrl=       600 IOpCl=  0 I1Cent=           0 NGrid=           0
         NMat0=    1 NMatS0=  22155 NMatT0=    0 NMatD0=    1 NMtDS0=    0 NMtDT0=    0
 Symmetry not used in FoFCou.
 Two-electron integral symmetry not used.
 UHF open shell SCF:
 Using DIIS extrapolation, IDIIS=  1040.
 NGot=  1879048192 LenX=  1388082348 LenY=  1388034818
 Requested convergence on RMS density matrix=1.00D-08 within 128 cycles.
 Requested convergence on MAX density matrix=1.00D-06.
 Requested convergence on             energy=1.00D-06.
 No special actions if energy rises.

 Cycle   1  Pass 1  IDiag  1:
 E= -1136.05290045613    
 DIIS: error= 1.12D-02 at cycle   1 NSaved=   1.
 NSaved= 1 IEnMin= 1 EnMin= -1136.05290045613     IErMin= 1 ErrMin= 1.12D-02
 ErrMax= 1.12D-02  0.00D+00 EMaxC= 1.00D-01 BMatC= 2.03D-01 BMatP= 2.03D-01
 IDIUse=3 WtCom= 8.88D-01 WtEn= 1.12D-01
 Coeff-Com:  0.100D+01
 Coeff-En:   0.100D+01
 Coeff:      0.100D+01
 Gap=     0.034 Goal=   None    Shift=    0.000
 Gap=     0.045 Goal=   None    Shift=    0.000
 GapD=    0.034 DampG=0.250 DampE=0.500 DampFc=0.2500 IDamp=-1.
 Damping current iteration by 2.50D-01
 RMSDP=1.67D-01 MaxDP=1.98D+01              OVMax= 3.11D-01

 Cycle   2  Pass 1  IDiag  1:
 E= -1136.06855974362     Delta-E=       -0.015659287487 Rises=F Damp=T
 DIIS: error= 7.65D-03 at cycle   2 NSaved=   2.
 NSaved= 2 IEnMin= 2 EnMin= -1136.06855974362     IErMin= 2 ErrMin= 7.65D-03
 ErrMax= 7.65D-03  0.00D+00 EMaxC= 1.00D-01 BMatC= 7.59D-02 BMatP= 2.03D-01
 IDIUse=3 WtCom= 9.23D-01 WtEn= 7.65D-02
 Coeff-Com: -0.121D+01 0.221D+01
 Coeff-En:   0.000D+00 0.100D+01
 Coeff:     -0.111D+01 0.211D+01
 Gap=     0.054 Goal=   None    Shift=    0.000
 Gap=     0.060 Goal=   None    Shift=    0.000
 RMSDP=7.98D-02 MaxDP=8.96D+00 DE=-1.57D-02 OVMax= 3.39D-01

 Cycle   3  Pass 1  IDiag  1:
 E= -1136.08600772529     Delta-E=       -0.017447981672 Rises=F Damp=F
 DIIS: error= 5.64D-03 at cycle   3 NSaved=   3.
 NSaved= 3 IEnMin= 3 EnMin= -1136.08600772529     IErMin= 3 ErrMin= 5.64D-03
 ErrMax= 5.64D-03  0.00D+00 EMaxC= 1.00D-01 BMatC= 1.22D-02 BMatP= 7.59D-02
 IDIUse=3 WtCom= 9.44D-01 WtEn= 5.64D-02
 Coeff-Com: -0.514D+00 0.904D+00 0.611D+00
 Coeff-En:   0.000D+00 0.000D+00 0.100D+01
 Coeff:     -0.485D+00 0.853D+00 0.633D+00
 Gap=     0.043 Goal=   None    Shift=    0.000
 Gap=     0.047 Goal=   None    Shift=    0.000
 RMSDP=2.67D-02 MaxDP=3.34D+00 DE=-1.74D-02 OVMax= 1.74D-01

 Cycle   4  Pass 1  IDiag  1:
 E= -1136.09008432561     Delta-E=       -0.004076600321 Rises=F Damp=F
 DIIS: error= 5.89D-03 at cycle   4 NSaved=   4.
 NSaved= 4 IEnMin= 4 EnMin= -1136.09008432561     IErMin= 3 ErrMin= 5.64D-03
 ErrMax= 5.89D-03  0.00D+00 EMaxC= 1.00D-01 BMatC= 7.37D-03 BMatP= 1.22D-02
 IDIUse=3 WtCom= 9.41D-01 WtEn= 5.89D-02
 Coeff-Com: -0.609D-01 0.962D-01 0.430D+00 0.535D+00
 Coeff-En:   0.000D+00 0.000D+00 0.420D+00 0.580D+00
 Coeff:     -0.573D-01 0.906D-01 0.429D+00 0.537D+00
 Gap=     0.046 Goal=   None    Shift=    0.000
 Gap=     0.048 Goal=   None    Shift=    0.000
 RMSDP=6.49D-03 MaxDP=3.47D-01 DE=-4.08D-03 OVMax= 1.24D-01

 Cycle   5  Pass 1  IDiag  1:
 E= -1136.09747890594     Delta-E=       -0.007394580325 Rises=F Damp=F
 DIIS: error= 1.38D-03 at cycle   5 NSaved=   5.
 NSaved= 5 IEnMin= 5 EnMin= -1136.09747890594     IErMin= 5 ErrMin= 1.38D-03
 ErrMax= 1.38D-03  0.00D+00 EMaxC= 1.00D-01 BMatC= 6.71D-04 BMatP= 7.37D-03
 IDIUse=3 WtCom= 9.86D-01 WtEn= 1.38D-02
 Coeff-Com: -0.154D-01 0.195D-01 0.230D+00 0.329D+00 0.437D+00
 Coeff-En:   0.000D+00 0.000D+00 0.000D+00 0.370D-01 0.963D+00
 Coeff:     -0.152D-01 0.193D-01 0.227D+00 0.325D+00 0.444D+00
 Gap=     0.045 Goal=   None    Shift=    0.000
 Gap=     0.046 Goal=   None    Shift=    0.000
 RMSDP=4.22D-03 MaxDP=3.67D-01 DE=-7.39D-03 OVMax= 2.62D-02

 Cycle   6  Pass 1  IDiag  1:
 E= -1136.09813079715     Delta-E=       -0.000651891214 Rises=F Damp=F
 DIIS: error= 2.41D-04 at cycle   6 NSaved=   6.
 NSaved= 6 IEnMin= 6 EnMin= -1136.09813079715     IErMin= 6 ErrMin= 2.41D-04
 ErrMax= 2.41D-04  0.00D+00 EMaxC= 1.00D-01 BMatC= 1.54D-05 BMatP= 6.71D-04
 IDIUse=3 WtCom= 9.98D-01 WtEn= 2.41D-03
 Coeff-Com: -0.623D-03 0.358D-03-0.279D-01-0.369D-01 0.904D-01 0.975D+00
 Coeff-En:   0.000D+00 0.000D+00 0.000D+00 0.000D+00 0.000D+00 0.100D+01
 Coeff:     -0.622D-03 0.357D-03-0.279D-01-0.368D-01 0.902D-01 0.975D+00
 Gap=     0.045 Goal=   None    Shift=    0.000
 Gap=     0.046 Goal=   None    Shift=    0.000
 RMSDP=1.52D-03 MaxDP=1.61D-01 DE=-6.52D-04 OVMax= 7.54D-03

 Cycle   7  Pass 1  IDiag  1:
 E= -1136.09815456110     Delta-E=       -0.000023763945 Rises=F Damp=F
 DIIS: error= 4.66D-05 at cycle   7 NSaved=   7.
 NSaved= 7 IEnMin= 7 EnMin= -1136.09815456110     IErMin= 7 ErrMin= 4.66D-05
 ErrMax= 4.66D-05  0.00D+00 EMaxC= 1.00D-01 BMatC= 5.81D-07 BMatP= 1.54D-05
 IDIUse=1 WtCom= 1.00D+00 WtEn= 0.00D+00
 Coeff-Com: -0.140D-04-0.174D-04-0.773D-02-0.903D-02-0.159D-01-0.357D-01
 Coeff-Com:  0.107D+01
 Coeff:     -0.140D-04-0.174D-04-0.773D-02-0.903D-02-0.159D-01-0.357D-01
 Coeff:      0.107D+01
 Gap=     0.045 Goal=   None    Shift=    0.000
 Gap=     0.046 Goal=   None    Shift=    0.000
 RMSDP=3.37D-04 MaxDP=2.28D-02 DE=-2.38D-05 OVMax= 3.89D-03

 Cycle   8  Pass 1  IDiag  1:
 E= -1136.09815754964     Delta-E=       -0.000002988545 Rises=F Damp=F
 DIIS: error= 2.72D-05 at cycle   8 NSaved=   8.
 NSaved= 8 IEnMin= 8 EnMin= -1136.09815754964     IErMin= 8 ErrMin= 2.72D-05
 ErrMax= 2.72D-05  0.00D+00 EMaxC= 1.00D-01 BMatC= 3.16D-07 BMatP= 5.81D-07
 IDIUse=1 WtCom= 1.00D+00 WtEn= 0.00D+00
 Coeff-Com:  0.369D-03-0.467D-03-0.103D-02-0.696D-03-0.184D-01-0.128D+00
 Coeff-Com:  0.443D+00 0.705D+00
 Coeff:      0.369D-03-0.467D-03-0.103D-02-0.696D-03-0.184D-01-0.128D+00
 Coeff:      0.443D+00 0.705D+00
 Gap=     0.046 Goal=   None    Shift=    0.000
 Gap=     0.046 Goal=   None    Shift=    0.000
 RMSDP=2.00D-04 MaxDP=1.66D-02 DE=-2.99D-06 OVMax= 2.07D-03

 Cycle   9  Pass 1  IDiag  1:
 E= -1136.09815854211     Delta-E=       -0.000000992471 Rises=F Damp=F
 DIIS: error= 1.89D-05 at cycle   9 NSaved=   9.
 NSaved= 9 IEnMin= 9 EnMin= -1136.09815854211     IErMin= 9 ErrMin= 1.89D-05
 ErrMax= 1.89D-05  0.00D+00 EMaxC= 1.00D-01 BMatC= 1.18D-07 BMatP= 3.16D-07
 IDIUse=1 WtCom= 1.00D+00 WtEn= 0.00D+00
 Coeff-Com:  0.470D-03-0.597D-03 0.268D-02 0.271D-02 0.465D-03-0.191D-01
 Coeff-Com: -0.413D+00 0.330D+00 0.110D+01
 Coeff:      0.470D-03-0.597D-03 0.268D-02 0.271D-02 0.465D-03-0.191D-01
 Coeff:     -0.413D+00 0.330D+00 0.110D+01
 Gap=     0.046 Goal=   None    Shift=    0.000
 Gap=     0.046 Goal=   None    Shift=    0.000
 RMSDP=2.49D-04 MaxDP=1.41D-02 DE=-9.92D-07 OVMax= 2.82D-03

 Cycle  10  Pass 1  IDiag  1:
 E= -1136.09815924843     Delta-E=       -0.000000706320 Rises=F Damp=F
 DIIS: error= 7.47D-06 at cycle  10 NSaved=  10.
 NSaved=10 IEnMin=10 EnMin= -1136.09815924843     IErMin=10 ErrMin= 7.47D-06
 ErrMax= 7.47D-06  0.00D+00 EMaxC= 1.00D-01 BMatC= 2.55D-08 BMatP= 1.18D-07
 IDIUse=1 WtCom= 1.00D+00 WtEn= 0.00D+00
 Coeff-Com:  0.750D-04-0.863D-04 0.156D-02 0.109D-02 0.489D-02 0.226D-01
 Coeff-Com: -0.266D+00 0.129D-01 0.436D+00 0.787D+00
 Coeff:      0.750D-04-0.863D-04 0.156D-02 0.109D-02 0.489D-02 0.226D-01
 Coeff:     -0.266D+00 0.129D-01 0.436D+00 0.787D+00
 Gap=     0.046 Goal=   None    Shift=    0.000
 Gap=     0.046 Goal=   None    Shift=    0.000
 RMSDP=1.12D-04 MaxDP=7.51D-03 DE=-7.06D-07 OVMax= 9.97D-04

 Cycle  11  Pass 1  IDiag  1:
 E= -1136.09815935975     Delta-E=       -0.000000111314 Rises=F Damp=F
 DIIS: error= 5.55D-06 at cycle  11 NSaved=  11.
 NSaved=11 IEnMin=11 EnMin= -1136.09815935975     IErMin=11 ErrMin= 5.55D-06
 ErrMax= 5.55D-06  0.00D+00 EMaxC= 1.00D-01 BMatC= 7.17D-09 BMatP= 2.55D-08
 IDIUse=1 WtCom= 1.00D+00 WtEn= 0.00D+00
 Coeff-Com: -0.129D-03 0.167D-03-0.143D-03-0.616D-03 0.413D-02 0.270D-01
 Coeff-Com: -0.174D-01-0.105D+00-0.143D+00 0.279D+00 0.956D+00
 Coeff:     -0.129D-03 0.167D-03-0.143D-03-0.616D-03 0.413D-02 0.270D-01
 Coeff:     -0.174D-01-0.105D+00-0.143D+00 0.279D+00 0.956D+00
 Gap=     0.046 Goal=   None    Shift=    0.000
 Gap=     0.046 Goal=   None    Shift=    0.000
 RMSDP=8.66D-05 MaxDP=5.13D-03 DE=-1.11D-07 OVMax= 7.04D-04

 Cycle  12  Pass 1  IDiag  1:
 E= -1136.09815939701     Delta-E=       -0.000000037265 Rises=F Damp=F
 DIIS: error= 2.55D-06 at cycle  12 NSaved=  12.
 NSaved=12 IEnMin=12 EnMin= -1136.09815939701     IErMin=12 ErrMin= 2.55D-06
 ErrMax= 2.55D-06  0.00D+00 EMaxC= 1.00D-01 BMatC= 2.27D-09 BMatP= 7.17D-09
 IDIUse=1 WtCom= 1.00D+00 WtEn= 0.00D+00
 Coeff-Com: -0.780D-04 0.970D-04-0.417D-03-0.593D-03 0.159D-02 0.117D-01
 Coeff-Com:  0.413D-01-0.644D-01-0.166D+00-0.264D-02 0.536D+00 0.643D+00
 Coeff:     -0.780D-04 0.970D-04-0.417D-03-0.593D-03 0.159D-02 0.117D-01
 Coeff:      0.413D-01-0.644D-01-0.166D+00-0.264D-02 0.536D+00 0.643D+00
 Gap=     0.046 Goal=   None    Shift=    0.000
 Gap=     0.046 Goal=   None    Shift=    0.000
 RMSDP=2.64D-05 MaxDP=1.87D-03 DE=-3.73D-08 OVMax= 2.22D-04

 Cycle  13  Pass 1  IDiag  1:
 E= -1136.09815940261     Delta-E=       -0.000000005600 Rises=F Damp=F
 DIIS: error= 7.80D-07 at cycle  13 NSaved=  13.
 NSaved=13 IEnMin=13 EnMin= -1136.09815940261     IErMin=13 ErrMin= 7.80D-07
 ErrMax= 7.80D-07  0.00D+00 EMaxC= 1.00D-01 BMatC= 2.34D-10 BMatP= 2.27D-09
 IDIUse=1 WtCom= 1.00D+00 WtEn= 0.00D+00
 Coeff-Com:  0.249D-04-0.339D-04-0.493D-04 0.964D-04-0.102D-02-0.622D-02
 Coeff-Com:  0.137D-01 0.153D-01 0.918D-02-0.564D-01-0.155D+00 0.951D-01
 Coeff-Com:  0.108D+01
 Coeff:      0.249D-04-0.339D-04-0.493D-04 0.964D-04-0.102D-02-0.622D-02
 Coeff:      0.137D-01 0.153D-01 0.918D-02-0.564D-01-0.155D+00 0.951D-01
 Coeff:      0.108D+01
 Gap=     0.046 Goal=   None    Shift=    0.000
 Gap=     0.046 Goal=   None    Shift=    0.000
 RMSDP=1.18D-05 MaxDP=9.60D-04 DE=-5.60D-09 OVMax= 8.47D-05

 Cycle  14  Pass 1  IDiag  1:
 E= -1136.09815940367     Delta-E=       -0.000000001057 Rises=F Damp=F
 DIIS: error= 2.62D-07 at cycle  14 NSaved=  14.
 NSaved=14 IEnMin=14 EnMin= -1136.09815940367     IErMin=14 ErrMin= 2.62D-07
 ErrMax= 2.62D-07  0.00D+00 EMaxC= 1.00D-01 BMatC= 2.67D-11 BMatP= 2.34D-10
 IDIUse=1 WtCom= 1.00D+00 WtEn= 0.00D+00
 Coeff-Com:  0.109D-05-0.966D-06 0.265D-04 0.388D-04-0.879D-04-0.409D-03
 Coeff-Com: -0.534D-02 0.379D-02 0.143D-01 0.567D-02-0.381D-01-0.779D-01
 Coeff-Com: -0.215D-01 0.112D+01
 Coeff:      0.109D-05-0.966D-06 0.265D-04 0.388D-04-0.879D-04-0.409D-03
 Coeff:     -0.534D-02 0.379D-02 0.143D-01 0.567D-02-0.381D-01-0.779D-01
 Coeff:     -0.215D-01 0.112D+01
 Gap=     0.046 Goal=   None    Shift=    0.000
 Gap=     0.046 Goal=   None    Shift=    0.000
 RMSDP=3.93D-06 MaxDP=3.12D-04 DE=-1.06D-09 OVMax= 3.35D-05

 Cycle  15  Pass 1  IDiag  1:
 E= -1136.09815940385     Delta-E=       -0.000000000185 Rises=F Damp=F
 DIIS: error= 1.72D-07 at cycle  15 NSaved=  15.
 NSaved=15 IEnMin=15 EnMin= -1136.09815940385     IErMin=15 ErrMin= 1.72D-07
 ErrMax= 1.72D-07  0.00D+00 EMaxC= 1.00D-01 BMatC= 8.53D-12 BMatP= 2.67D-11
 IDIUse=1 WtCom= 1.00D+00 WtEn= 0.00D+00
 Coeff-Com: -0.942D-06 0.128D-05 0.276D-04-0.710D-05 0.163D-03 0.763D-03
 Coeff-Com: -0.205D-02-0.199D-02-0.543D-03 0.725D-02 0.263D-01-0.245D-01
 Coeff-Com: -0.227D+00 0.828D-01 0.114D+01
 Coeff:     -0.942D-06 0.128D-05 0.276D-04-0.710D-05 0.163D-03 0.763D-03
 Coeff:     -0.205D-02-0.199D-02-0.543D-03 0.725D-02 0.263D-01-0.245D-01
 Coeff:     -0.227D+00 0.828D-01 0.114D+01
 Gap=     0.046 Goal=   None    Shift=    0.000
 Gap=     0.046 Goal=   None    Shift=    0.000
 RMSDP=2.62D-06 MaxDP=2.10D-04 DE=-1.85D-10 OVMax= 2.04D-05

 Cycle  16  Pass 1  IDiag  1:
 E= -1136.09815940391     Delta-E=       -0.000000000051 Rises=F Damp=F
 DIIS: error= 8.39D-08 at cycle  16 NSaved=  16.
 NSaved=16 IEnMin=16 EnMin= -1136.09815940391     IErMin=16 ErrMin= 8.39D-08
 ErrMax= 8.39D-08  0.00D+00 EMaxC= 1.00D-01 BMatC= 1.38D-12 BMatP= 8.53D-12
 IDIUse=1 WtCom= 1.00D+00 WtEn= 0.00D+00
 Coeff-Com: -0.246D-05 0.319D-05-0.120D-04-0.966D-05 0.243D-04 0.212D-03
 Coeff-Com:  0.107D-02-0.128D-02-0.277D-02 0.126D-02 0.419D-02 0.123D-01
 Coeff-Com:  0.412D-01-0.164D+00-0.371D+00 0.148D+01
 Coeff:     -0.246D-05 0.319D-05-0.120D-04-0.966D-05 0.243D-04 0.212D-03
 Coeff:      0.107D-02-0.128D-02-0.277D-02 0.126D-02 0.419D-02 0.123D-01
 Coeff:      0.412D-01-0.164D+00-0.371D+00 0.148D+01
 Gap=     0.046 Goal=   None    Shift=    0.000
 Gap=     0.046 Goal=   None    Shift=    0.000
 RMSDP=2.02D-06 MaxDP=1.60D-04 DE=-5.14D-11 OVMax= 1.29D-05

 Cycle  17  Pass 1  IDiag  1:
 E= -1136.09815940392     Delta-E=       -0.000000000016 Rises=F Damp=F
 DIIS: error= 3.90D-08 at cycle  17 NSaved=  17.
 NSaved=17 IEnMin=17 EnMin= -1136.09815940392     IErMin=17 ErrMin= 3.90D-08
 ErrMax= 3.90D-08  0.00D+00 EMaxC= 1.00D-01 BMatC= 3.86D-13 BMatP= 1.38D-12
 IDIUse=1 WtCom= 1.00D+00 WtEn= 0.00D+00
 Coeff-Com: -0.358D-06 0.407D-06-0.893D-05-0.318D-05-0.164D-04-0.445D-04
 Coeff-Com:  0.655D-03-0.201D-03-0.117D-02-0.830D-03-0.785D-03 0.775D-02
 Coeff-Com:  0.355D-01-0.412D-01-0.264D+00 0.329D+00 0.935D+00
 Coeff:     -0.358D-06 0.407D-06-0.893D-05-0.318D-05-0.164D-04-0.445D-04
 Coeff:      0.655D-03-0.201D-03-0.117D-02-0.830D-03-0.785D-03 0.775D-02
 Coeff:      0.355D-01-0.412D-01-0.264D+00 0.329D+00 0.935D+00
 Gap=     0.046 Goal=   None    Shift=    0.000
 Gap=     0.046 Goal=   None    Shift=    0.000
 RMSDP=7.17D-07 MaxDP=4.86D-05 DE=-1.64D-11 OVMax= 4.41D-06

 Cycle  18  Pass 1  IDiag  1:
 E= -1136.09815940392     Delta-E=        0.000000000000 Rises=F Damp=F
 DIIS: error= 2.28D-08 at cycle  18 NSaved=  18.
 NSaved=18 IEnMin=17 EnMin= -1136.09815940392     IErMin=18 ErrMin= 2.28D-08
 ErrMax= 2.28D-08  0.00D+00 EMaxC= 1.00D-01 BMatC= 1.36D-13 BMatP= 3.86D-13
 IDIUse=1 WtCom= 1.00D+00 WtEn= 0.00D+00
 Coeff-Com:  0.594D-06-0.748D-06-0.102D-05 0.218D-05-0.283D-04-0.136D-03
 Coeff-Com:  0.703D-04 0.454D-03 0.373D-03-0.110D-02-0.267D-02-0.112D-02
 Coeff-Com:  0.966D-02 0.427D-01-0.157D-01-0.342D+00 0.217D+00 0.109D+01
 Coeff:      0.594D-06-0.748D-06-0.102D-05 0.218D-05-0.283D-04-0.136D-03
 Coeff:      0.703D-04 0.454D-03 0.373D-03-0.110D-02-0.267D-02-0.112D-02
 Coeff:      0.966D-02 0.427D-01-0.157D-01-0.342D+00 0.217D+00 0.109D+01
 Gap=     0.046 Goal=   None    Shift=    0.000
 Gap=     0.046 Goal=   None    Shift=    0.000
 RMSDP=5.60D-07 MaxDP=5.00D-05 DE= 4.55D-13 OVMax= 3.29D-06

 Cycle  19  Pass 1  IDiag  1:
 E= -1136.09815940392     Delta-E=        0.000000000000 Rises=F Damp=F
 DIIS: error= 1.03D-08 at cycle  19 NSaved=  19.
 NSaved=19 IEnMin=17 EnMin= -1136.09815940392     IErMin=19 ErrMin= 1.03D-08
 ErrMax= 1.03D-08  0.00D+00 EMaxC= 1.00D-01 BMatC= 2.24D-14 BMatP= 1.36D-13
 IDIUse=1 WtCom= 1.00D+00 WtEn= 0.00D+00
 Coeff-Com: -0.116D-06 0.155D-06 0.143D-05-0.561D-06 0.104D-04 0.406D-04
 Coeff-Com: -0.568D-05-0.110D-03-0.127D-03 0.313D-03 0.134D-02-0.316D-03
 Coeff-Com: -0.966D-02-0.154D-01 0.845D-01-0.201D-01-0.262D+00-0.250D+00
 Coeff-Com:  0.147D+01
 Coeff:     -0.116D-06 0.155D-06 0.143D-05-0.561D-06 0.104D-04 0.406D-04
 Coeff:     -0.568D-05-0.110D-03-0.127D-03 0.313D-03 0.134D-02-0.316D-03
 Coeff:     -0.966D-02-0.154D-01 0.845D-01-0.201D-01-0.262D+00-0.250D+00
 Coeff:      0.147D+01
 Gap=     0.046 Goal=   None    Shift=    0.000
 Gap=     0.046 Goal=   None    Shift=    0.000
 RMSDP=2.86D-07 MaxDP=2.51D-05 DE= 2.27D-13 OVMax= 2.01D-06

 Cycle  20  Pass 1  IDiag  1:
 E= -1136.09815940392     Delta-E=       -0.000000000003 Rises=F Damp=F
 DIIS: error= 2.97D-09 at cycle  20 NSaved=  20.
 NSaved=20 IEnMin=20 EnMin= -1136.09815940392     IErMin=20 ErrMin= 2.97D-09
 ErrMax= 2.97D-09  0.00D+00 EMaxC= 1.00D-01 BMatC= 3.47D-15 BMatP= 2.24D-14
 IDIUse=1 WtCom= 1.00D+00 WtEn= 0.00D+00
 Large coefficients: NSaved= 20 BigCof=    0.00 CofMax=   10.00 Det=-2.07D-15
 Inversion failed.  Reducing to 19 matrices.
 Large coefficients: NSaved= 19 BigCof=    0.00 CofMax=   10.00 Det=-2.11D-15
 Inversion failed.  Reducing to 18 matrices.
 Large coefficients: NSaved= 18 BigCof=    0.00 CofMax=   10.00 Det=-2.12D-15
 Inversion failed.  Reducing to 17 matrices.
 Large coefficients: NSaved= 17 BigCof=    0.00 CofMax=   10.00 Det=-2.35D-15
 Inversion failed.  Reducing to 16 matrices.
 Large coefficients: NSaved= 16 BigCof=    0.00 CofMax=   10.00 Det=-3.56D-15
 Inversion failed.  Reducing to 15 matrices.
 Coeff-Com: -0.326D-05-0.661D-05 0.357D-05 0.492D-04 0.598D-04-0.322D-03
 Coeff-Com:  0.244D-03 0.175D-02-0.698D-02-0.104D-01 0.683D-01-0.498D-02
 Coeff-Com: -0.149D+00-0.151D+00 0.125D+01
 Coeff:     -0.326D-05-0.661D-05 0.357D-05 0.492D-04 0.598D-04-0.322D-03
 Coeff:      0.244D-03 0.175D-02-0.698D-02-0.104D-01 0.683D-01-0.498D-02
 Coeff:     -0.149D+00-0.151D+00 0.125D+01
 Gap=     0.046 Goal=   None    Shift=    0.000
 Gap=     0.046 Goal=   None    Shift=    0.000
 RMSDP=7.92D-08 MaxDP=1.04D-05 DE=-2.50D-12 OVMax= 5.48D-07

 Cycle  21  Pass 1  IDiag  1:
 E= -1136.09815940393     Delta-E=       -0.000000000003 Rises=F Damp=F
 DIIS: error= 2.32D-09 at cycle  21 NSaved=  16.
 NSaved=16 IEnMin=16 EnMin= -1136.09815940393     IErMin=16 ErrMin= 2.32D-09
 ErrMax= 2.32D-09  0.00D+00 EMaxC= 1.00D-01 BMatC= 9.14D-16 BMatP= 3.47D-15
 IDIUse=1 WtCom= 1.00D+00 WtEn= 0.00D+00
 Large coefficients: NSaved= 16 BigCof=    0.00 CofMax=   10.00 Det=-6.30D-16
 Inversion failed.  Reducing to 15 matrices.
 Coeff-Com: -0.716D-05 0.126D-04 0.155D-05-0.680D-04 0.451D-04 0.110D-03
 Coeff-Com:  0.688D-03 0.401D-04-0.617D-02 0.430D-02 0.171D-01 0.373D-01
 Coeff-Com: -0.171D+00-0.205D+00 0.132D+01
 Coeff:     -0.716D-05 0.126D-04 0.155D-05-0.680D-04 0.451D-04 0.110D-03
 Coeff:      0.688D-03 0.401D-04-0.617D-02 0.430D-02 0.171D-01 0.373D-01
 Coeff:     -0.171D+00-0.205D+00 0.132D+01
 Gap=     0.046 Goal=   None    Shift=    0.000
 Gap=     0.046 Goal=   None    Shift=    0.000
 RMSDP=4.36D-08 MaxDP=2.69D-06 DE=-3.18D-12 OVMax= 3.10D-07

 Cycle  22  Pass 1  IDiag  1:
 E= -1136.09815940393     Delta-E=       -0.000000000000 Rises=F Damp=F
 DIIS: error= 1.29D-09 at cycle  22 NSaved=  16.
 NSaved=16 IEnMin=16 EnMin= -1136.09815940393     IErMin=16 ErrMin= 1.29D-09
 ErrMax= 1.29D-09  0.00D+00 EMaxC= 1.00D-01 BMatC= 2.33D-16 BMatP= 9.14D-16
 IDIUse=1 WtCom= 1.00D+00 WtEn= 0.00D+00
 Large coefficients: NSaved= 16 BigCof=    0.00 CofMax=   10.00 Det=-1.96D-16
 Inversion failed.  Reducing to 15 matrices.
 Coeff-Com:  0.373D-05 0.692D-06-0.232D-04-0.151D-05-0.531D-04-0.170D-03
 Coeff-Com:  0.184D-02 0.144D-02-0.172D-01 0.482D-02 0.405D-01 0.324D-01
 Coeff-Com: -0.348D+00 0.781D-01 0.121D+01
 Coeff:      0.373D-05 0.692D-06-0.232D-04-0.151D-05-0.531D-04-0.170D-03
 Coeff:      0.184D-02 0.144D-02-0.172D-01 0.482D-02 0.405D-01 0.324D-01
 Coeff:     -0.348D+00 0.781D-01 0.121D+01
 Gap=     0.046 Goal=   None    Shift=    0.000
 Gap=     0.046 Goal=   None    Shift=    0.000
 RMSDP=2.46D-08 MaxDP=1.82D-06 DE=-2.27D-13 OVMax= 1.53D-07

 Cycle  23  Pass 1  IDiag  1:
 E= -1136.09815940391     Delta-E=        0.000000000014 Rises=F Damp=F
 DIIS: error= 3.37D-10 at cycle  23 NSaved=  16.
 NSaved=16 IEnMin=15 EnMin= -1136.09815940393     IErMin=16 ErrMin= 3.37D-10
 ErrMax= 3.37D-10  0.00D+00 EMaxC= 1.00D-01 BMatC= 2.90D-17 BMatP= 2.33D-16
 IDIUse=1 WtCom= 1.00D+00 WtEn= 0.00D+00
 Large coefficients: NSaved= 16 BigCof=    0.00 CofMax=   10.00 Det=-5.58D-17
 Inversion failed.  Reducing to 15 matrices.
 Coeff-Com:  0.321D-05 0.117D-04-0.205D-04-0.146D-04-0.589D-04-0.822D-04
 Coeff-Com:  0.582D-03-0.652D-03-0.231D-02-0.472D-02 0.344D-01-0.218D-01
 Coeff-Com: -0.194D+00 0.219D+00 0.970D+00
 Coeff:      0.321D-05 0.117D-04-0.205D-04-0.146D-04-0.589D-04-0.822D-04
 Coeff:      0.582D-03-0.652D-03-0.231D-02-0.472D-02 0.344D-01-0.218D-01
 Coeff:     -0.194D+00 0.219D+00 0.970D+00
 Gap=     0.046 Goal=   None    Shift=    0.000
 Gap=     0.046 Goal=   None    Shift=    0.000
 RMSDP=2.28D-08 MaxDP=1.39D-06 DE= 1.43D-11 OVMax= 3.98D-08

 Cycle  24  Pass 1  IDiag  1:
 E= -1136.09815940394     Delta-E=       -0.000000000024 Rises=F Damp=F
 DIIS: error= 1.93D-10 at cycle  24 NSaved=  16.
 NSaved=16 IEnMin=16 EnMin= -1136.09815940394     IErMin=16 ErrMin= 1.93D-10
 ErrMax= 1.93D-10  0.00D+00 EMaxC= 1.00D-01 BMatC= 7.70D-18 BMatP= 2.90D-17
 IDIUse=1 WtCom= 1.00D+00 WtEn= 0.00D+00
 Large coefficients: NSaved= 16 BigCof=    0.00 CofMax=   10.00 Det=-1.74D-17
 Inversion failed.  Reducing to 15 matrices.
 Coeff-Com:  0.412D-05 0.909D-06 0.103D-05-0.504D-04-0.307D-03 0.513D-03
 Coeff-Com:  0.213D-02-0.351D-02-0.816D-02 0.136D-01 0.464D-01-0.811D-01
 Coeff-Com: -0.139D+00 0.220D+00 0.949D+00
 Coeff:      0.412D-05 0.909D-06 0.103D-05-0.504D-04-0.307D-03 0.513D-03
 Coeff:      0.213D-02-0.351D-02-0.816D-02 0.136D-01 0.464D-01-0.811D-01
 Coeff:     -0.139D+00 0.220D+00 0.949D+00
 Gap=     0.046 Goal=   None    Shift=    0.000
 Gap=     0.046 Goal=   None    Shift=    0.000
 RMSDP=2.91D-08 MaxDP=3.87D-06 DE=-2.43D-11 OVMax= 1.97D-08

 Cycle  25  Pass 1  IDiag  1:
 E= -1136.09815940393     Delta-E=        0.000000000009 Rises=F Damp=F
 DIIS: error= 8.03D-11 at cycle  25 NSaved=  16.
 NSaved=16 IEnMin=15 EnMin= -1136.09815940394     IErMin=16 ErrMin= 8.03D-11
 ErrMax= 8.03D-11  0.00D+00 EMaxC= 1.00D-01 BMatC= 1.64D-18 BMatP= 7.70D-18
 IDIUse=1 WtCom= 1.00D+00 WtEn= 0.00D+00
 Large coefficients: NSaved= 16 BigCof=    0.00 CofMax=   10.00 Det=-3.97D-18
 Inversion failed.  Reducing to 15 matrices.
 Coeff-Com:  0.216D-05 0.614D-05 0.106D-05-0.171D-03 0.114D-03 0.114D-02
 Coeff-Com: -0.137D-02-0.306D-02 0.258D-02 0.198D-01-0.118D-01-0.725D-01
 Coeff-Com: -0.199D-01 0.357D+00 0.728D+00
 Coeff:      0.216D-05 0.614D-05 0.106D-05-0.171D-03 0.114D-03 0.114D-02
 Coeff:     -0.137D-02-0.306D-02 0.258D-02 0.198D-01-0.118D-01-0.725D-01
 Coeff:     -0.199D-01 0.357D+00 0.728D+00
 Gap=     0.046 Goal=   None    Shift=    0.000
 Gap=     0.046 Goal=   None    Shift=    0.000
 RMSDP=2.23D-08 MaxDP=1.81D-06 DE= 9.09D-12 OVMax= 3.80D-09

 Cycle  26  Pass 1  IDiag  1:
 E= -1136.09815940393     Delta-E=       -0.000000000002 Rises=F Damp=F
 DIIS: error= 3.04D-11 at cycle  26 NSaved=  16.
 NSaved=16 IEnMin=14 EnMin= -1136.09815940394     IErMin=16 ErrMin= 3.04D-11
 ErrMax= 3.04D-11  0.00D+00 EMaxC= 1.00D-01 BMatC= 4.46D-19 BMatP= 1.64D-18
 IDIUse=1 WtCom= 1.00D+00 WtEn= 0.00D+00
 Large coefficients: NSaved= 16 BigCof=    0.00 CofMax=   10.00 Det=-1.19D-18
 Inversion failed.  Reducing to 15 matrices.
 Coeff-Com:  0.333D-05 0.173D-04-0.585D-04-0.557D-04 0.373D-03-0.186D-03
 Coeff-Com: -0.365D-03-0.725D-03 0.326D-02 0.475D-02-0.184D-01-0.359D-01
 Coeff-Com:  0.211D-01 0.143D+00 0.883D+00
 Coeff:      0.333D-05 0.173D-04-0.585D-04-0.557D-04 0.373D-03-0.186D-03
 Coeff:     -0.365D-03-0.725D-03 0.326D-02 0.475D-02-0.184D-01-0.359D-01
 Coeff:      0.211D-01 0.143D+00 0.883D+00
 Gap=     0.046 Goal=   None    Shift=    0.000
 Gap=     0.046 Goal=   None    Shift=    0.000
 RMSDP=1.02D-08 MaxDP=7.87D-07 DE=-1.82D-12 OVMax= 2.57D-09

 Cycle  27  Pass 1  IDiag  1:
 E= -1136.09815940393     Delta-E=       -0.000000000002 Rises=F Damp=F
 DIIS: error= 3.52D-11 at cycle  27 NSaved=  16.
 NSaved=16 IEnMin=13 EnMin= -1136.09815940394     IErMin=15 ErrMin= 3.04D-11
 ErrMax= 3.52D-11  0.00D+00 EMaxC= 1.00D-01 BMatC= 4.52D-19 BMatP= 4.46D-19
 IDIUse=1 WtCom= 1.00D+00 WtEn= 0.00D+00
 Large coefficients: NSaved= 16 BigCof=    0.00 CofMax=   10.00 Det=-5.00D-19
 Inversion failed.  Reducing to 15 matrices.
 Coeff-Com:  0.890D-05-0.198D-04-0.330D-04 0.149D-03-0.851D-04 0.474D-04
 Coeff-Com: -0.668D-03 0.436D-03 0.598D-02-0.755D-02-0.345D-01-0.914D-02
 Coeff-Com:  0.655D-01 0.505D+00 0.475D+00
 Coeff:      0.890D-05-0.198D-04-0.330D-04 0.149D-03-0.851D-04 0.474D-04
 Coeff:     -0.668D-03 0.436D-03 0.598D-02-0.755D-02-0.345D-01-0.914D-02
 Coeff:      0.655D-01 0.505D+00 0.475D+00
 Gap=     0.046 Goal=   None    Shift=    0.000
 Gap=     0.046 Goal=   None    Shift=    0.000
 RMSDP=6.94D-09 MaxDP=5.15D-07 DE=-2.27D-12 OVMax= 1.10D-09

 SCF Done:  E(UB3LYP) =  -1136.09815940     A.U. after   27 cycles
            NFock= 27  Conv=0.69D-08     -V/T= 2.0025
 <Sx>= 0.0000 <Sy>= 0.0000 <Sz>= 0.5000 <S**2>= 0.7608 S= 0.5054
 <L.S>= 0.000000000000E+00
 KE= 1.133262284076D+03 PE=-3.461289383773D+03 EE= 8.260699309494D+02
 Annihilation of the first spin contaminant:
 S**2 before annihilation     0.7608,   after     0.7501
 Leave Link  502 at Mon Nov 13 20:14:56 2023, MaxMem=  1879048192 cpu:             257.1 elap:              22.4
 (Enter /home/sekinelabo/g16/l601.exe)
 Copying SCF densities to generalized density rwf, IOpCl= 1 IROHF=0.

 **********************************************************************

            Population analysis using the SCF Density.

 **********************************************************************

 Orbital symmetries:
 Alpha Orbitals:
       Occupied  (A) (A) (A) (A) (A) (A) (A) (A) (A) (A) (A) (A)
                 (A) (A) (A) (A) (A) (A) (A) (A) (A) (A) (A) (A)
                 (A) (A) (A) (A) (A) (A) (A) (A) (A) (A) (A) (A)
                 (A) (A) (A)
       Virtual   (A) (A) (A) (A) (A) (A) (A) (A) (A) (A) (A) (A)
                 (A) (A) (A) (A) (A) (A) (A) (A) (A) (A) (A) (A)
                 (A) (A) (A) (A) (A) (A) (A) (A) (A) (A) (A) (A)
                 (A) (A) (A) (A) (A) (A) (A) (A) (A) (A) (A) (A)
                 (A) (A) (A) (A) (A) (A) (A) (A) (A) (A) (A) (A)
                 (A) (A) (A) (A) (A) (A) (A) (A) (A) (A) (A) (A)
                 (A) (A) (A) (A) (A) (A) (A) (A) (A) (A) (A) (A)
                 (A) (A) (A) (A) (A) (A) (A) (A) (A) (A) (A) (A)
                 (A) (A) (A) (A) (A) (A) (A) (A) (A) (A) (A) (A)
                 (A) (A) (A) (A) (A) (A) (A) (A) (A) (A) (A) (A)
                 (A) (A) (A) (A) (A) (A) (A) (A) (A) (A) (A) (A)
                 (A) (A) (A) (A) (A) (A) (A) (A) (A) (A) (A) (A)
                 (A) (A) (A) (A) (A) (A) (A) (A) (A) (A) (A) (A)
                 (A) (A) (A) (A) (A) (A) (A) (A) (A) (A) (A) (A)
                 (A) (A) (A)
 Beta  Orbitals:
       Occupied  (A) (A) (A) (A) (A) (A) (A) (A) (A) (A) (A) (A)
                 (A) (A) (A) (A) (A) (A) (A) (A) (A) (A) (A) (A)
                 (A) (A) (A) (A) (A) (A) (A) (A) (A) (A) (A) (A)
                 (A) (A)
       Virtual   (A) (A) (A) (A) (A) (A) (A) (A) (A) (A) (A) (A)
                 (A) (A) (A) (A) (A) (A) (A) (A) (A) (A) (A) (A)
                 (A) (A) (A) (A) (A) (A) (A) (A) (A) (A) (A) (A)
                 (A) (A) (A) (A) (A) (A) (A) (A) (A) (A) (A) (A)
                 (A) (A) (A) (A) (A) (A) (A) (A) (A) (A) (A) (A)
                 (A) (A) (A) (A) (A) (A) (A) (A) (A) (A) (A) (A)
                 (A) (A) (A) (A) (A) (A) (A) (A) (A) (A) (A) (A)
                 (A) (A) (A) (A) (A) (A) (A) (A) (A) (A) (A) (A)
                 (A) (A) (A) (A) (A) (A) (A) (A) (A) (A) (A) (A)
                 (A) (A) (A) (A) (A) (A) (A) (A) (A) (A) (A) (A)
                 (A) (A) (A) (A) (A) (A) (A) (A) (A) (A) (A) (A)
                 (A) (A) (A) (A) (A) (A) (A) (A) (A) (A) (A) (A)
                 (A) (A) (A) (A) (A) (A) (A) (A) (A) (A) (A) (A)
                 (A) (A) (A) (A) (A) (A) (A) (A) (A) (A) (A) (A)
                 (A) (A) (A) (A)
 The electronic state is 2-A.
 Alpha  occ. eigenvalues --  -38.44916 -38.44863 -38.43920 -38.43772 -38.43046
 Alpha  occ. eigenvalues --  -38.42816 -38.42457  -2.20803  -2.20740  -2.20017
 Alpha  occ. eigenvalues --   -2.19872  -2.19336  -2.18809  -2.18454  -1.14590
 Alpha  occ. eigenvalues --   -1.14485  -1.14427  -1.14422  -1.14359  -1.14294
 Alpha  occ. eigenvalues --   -1.13835  -1.13697  -1.13643  -1.13586  -1.13495
 Alpha  occ. eigenvalues --   -1.13453  -1.13031  -1.13015  -1.12996  -1.12491
 Alpha  occ. eigenvalues --   -1.12442  -1.12424  -1.12162  -1.12088  -1.12065
 Alpha  occ. eigenvalues --   -0.19644  -0.14647  -0.11746  -0.10701
 Alpha virt. eigenvalues --   -0.06149  -0.05594  -0.03711  -0.03358  -0.02321
 Alpha virt. eigenvalues --   -0.02106  -0.01830  -0.00922  -0.00407   0.00032
 Alpha virt. eigenvalues --    0.00260   0.00342   0.00673   0.00780   0.00819
 Alpha virt. eigenvalues --    0.00889   0.00985   0.01127   0.01277   0.01405
 Alpha virt. eigenvalues --    0.01457   0.01694   0.01778   0.01850   0.02023
 Alpha virt. eigenvalues --    0.02372   0.02426   0.02664   0.02703   0.02735
 Alpha virt. eigenvalues --    0.02781   0.02885   0.03004   0.03074   0.03241
 Alpha virt. eigenvalues --    0.03345   0.03423   0.03698   0.03791   0.03945
 Alpha virt. eigenvalues --    0.04185   0.04499   0.04567   0.05013   0.05301
 Alpha virt. eigenvalues --    0.05478   0.05610   0.05710   0.05846   0.06075
 Alpha virt. eigenvalues --    0.06213   0.06656   0.06846   0.07122   0.07276
 Alpha virt. eigenvalues --    0.07986   0.08261   0.08691   0.09035   0.09136
 Alpha virt. eigenvalues --    0.09825   0.09895   0.10645   0.11091   0.12016
 Alpha virt. eigenvalues --    0.12308   0.12770   0.13303   0.13692   0.13947
 Alpha virt. eigenvalues --    0.14201   0.14317   0.14720   0.15092   0.15794
 Alpha virt. eigenvalues --    0.16215   0.16550   0.17149   0.18523   0.19551
 Alpha virt. eigenvalues --    0.24504   0.25387   0.27730   0.28743   0.29634
 Alpha virt. eigenvalues --    0.30042   0.30618   0.31165   0.31995   0.34166
 Alpha virt. eigenvalues --    0.34660   0.35859   0.37130   0.38693   0.38930
 Alpha virt. eigenvalues --    0.39745   0.40408   0.41771   0.42087   0.43581
 Alpha virt. eigenvalues --    0.43848   0.44257   0.44552   0.44924   0.45369
 Alpha virt. eigenvalues --    0.45388   0.45739   0.46363   0.47322   0.47599
 Alpha virt. eigenvalues --    0.47962   0.48043   0.48466   0.49309   0.49584
 Alpha virt. eigenvalues --    0.50515   0.51188   0.51997   0.53020   0.54219
 Alpha virt. eigenvalues --    0.54673   0.55654   0.56319   0.57893   0.63093
 Alpha virt. eigenvalues --    0.66280   0.67269   0.68612   0.70270   0.71816
 Alpha virt. eigenvalues --    0.72709   0.72905   0.73967   0.76247   0.81172
 Alpha virt. eigenvalues --    0.84187   2.12205   2.15979   2.18368   2.25295
 Alpha virt. eigenvalues --    2.25637   2.28811   2.39422   4.40599   4.41203
 Alpha virt. eigenvalues --    4.42165   4.42350   4.42726   4.43991   4.44792
 Alpha virt. eigenvalues --    4.46253   4.46797   4.49875   4.51042   4.54996
 Alpha virt. eigenvalues --    4.57161   4.58314   4.64354   4.65204   4.68183
 Alpha virt. eigenvalues --    4.70602   4.77566   4.81678   4.84437  96.33957
 Alpha virt. eigenvalues --   96.38038  96.42669  96.51598  96.52522  96.56889
 Alpha virt. eigenvalues --   96.69629
  Beta  occ. eigenvalues --  -38.44904 -38.44852 -38.43870 -38.43709 -38.43014
  Beta  occ. eigenvalues --  -38.42803 -38.42443  -2.20780  -2.20722  -2.19926
  Beta  occ. eigenvalues --   -2.19758  -2.19290  -2.18790  -2.18434  -1.14578
  Beta  occ. eigenvalues --   -1.14463  -1.14410  -1.14407  -1.14344  -1.14279
  Beta  occ. eigenvalues --   -1.13781  -1.13616  -1.13572  -1.13507  -1.13408
  Beta  occ. eigenvalues --   -1.13370  -1.13008  -1.12980  -1.12884  -1.12482
  Beta  occ. eigenvalues --   -1.12428  -1.12376  -1.12152  -1.12069  -1.12019
  Beta  occ. eigenvalues --   -0.18893  -0.14488  -0.11442
  Beta virt. eigenvalues --   -0.06817  -0.05923  -0.05150  -0.03634  -0.03139
  Beta virt. eigenvalues --   -0.01942  -0.01706  -0.01047  -0.00718  -0.00121
  Beta virt. eigenvalues --    0.00160   0.00330   0.00409   0.00791   0.00830
  Beta virt. eigenvalues --    0.00926   0.00981   0.01043   0.01173   0.01390
  Beta virt. eigenvalues --    0.01474   0.01606   0.01813   0.01903   0.01950
  Beta virt. eigenvalues --    0.02130   0.02423   0.02475   0.02695   0.02723
  Beta virt. eigenvalues --    0.02807   0.02842   0.02964   0.03021   0.03138
  Beta virt. eigenvalues --    0.03273   0.03394   0.03524   0.03780   0.03864
  Beta virt. eigenvalues --    0.04101   0.04321   0.04613   0.04725   0.05085
  Beta virt. eigenvalues --    0.05377   0.05591   0.05735   0.05817   0.05933
  Beta virt. eigenvalues --    0.06233   0.06378   0.06753   0.06994   0.07296
  Beta virt. eigenvalues --    0.07314   0.08118   0.08379   0.08858   0.09101
  Beta virt. eigenvalues --    0.09363   0.09901   0.10101   0.11007   0.11374
  Beta virt. eigenvalues --    0.12449   0.12549   0.13062   0.13405   0.13970
  Beta virt. eigenvalues --    0.14132   0.14391   0.14443   0.14914   0.15274
  Beta virt. eigenvalues --    0.15932   0.16641   0.16780   0.17317   0.18636
  Beta virt. eigenvalues --    0.19846   0.24877   0.25784   0.28273   0.28765
  Beta virt. eigenvalues --    0.29836   0.30161   0.30723   0.31569   0.32196
  Beta virt. eigenvalues --    0.34321   0.35037   0.36390   0.37357   0.39013
  Beta virt. eigenvalues --    0.39158   0.40121   0.40628   0.41852   0.42298
  Beta virt. eigenvalues --    0.43745   0.44001   0.44345   0.44808   0.45182
  Beta virt. eigenvalues --    0.45502   0.45706   0.45880   0.46493   0.47519
  Beta virt. eigenvalues --    0.47693   0.48094   0.48242   0.48606   0.49575
  Beta virt. eigenvalues --    0.49772   0.50735   0.51298   0.52190   0.53294
  Beta virt. eigenvalues --    0.54389   0.54815   0.55870   0.56546   0.58097
  Beta virt. eigenvalues --    0.63267   0.66436   0.67621   0.68747   0.70461
  Beta virt. eigenvalues --    0.71898   0.72795   0.73030   0.74233   0.76302
  Beta virt. eigenvalues --    0.81271   0.84288   2.12252   2.16062   2.18429
  Beta virt. eigenvalues --    2.25361   2.25772   2.29055   2.39506   4.40623
  Beta virt. eigenvalues --    4.41251   4.42265   4.42421   4.42808   4.44020
  Beta virt. eigenvalues --    4.44815   4.46273   4.46838   4.49945   4.51080
  Beta virt. eigenvalues --    4.55055   4.57213   4.58419   4.64454   4.65232
  Beta virt. eigenvalues --    4.68206   4.70624   4.77622   4.81707   4.84483
  Beta virt. eigenvalues --   96.33974  96.38072  96.42686  96.51614  96.52573
  Beta virt. eigenvalues --   96.56965  96.69663
          Condensed to atoms (all electrons):
               1          2          3          4          5          6
     1  Na  13.908348  -0.521810  -0.232796  -1.268077   2.637294  -1.088032
     2  Na  -0.521810  11.075055   0.327401  -0.395310  -1.182789   0.583196
     3  Na  -0.232796   0.327401  17.202519  -1.268478   0.221954  -6.120001
     4  Na  -1.268077  -0.395310  -1.268478  20.261219  -2.317466  -3.020481
     5  Na   2.637294  -1.182789   0.221954  -2.317466  16.817589  -1.775242
     6  Na  -1.088032   0.583196  -6.120001  -3.020481  -1.775242  21.752056
     7  Na  -2.244665   1.025258   0.447784   1.039178  -4.309088   0.167839
               7
     1  Na  -2.244665
     2  Na   1.025258
     3  Na   0.447784
     4  Na   1.039178
     5  Na  -4.309088
     6  Na   0.167839
     7  Na  14.571874
          Atomic-Atomic Spin Densities.
               1          2          3          4          5          6
     1  Na   0.500476   0.013951  -0.456084  -0.013270  -0.275206   0.249051
     2  Na   0.013951  -0.103457  -0.168302   0.089332   0.224374   0.011616
     3  Na  -0.456084  -0.168302   2.220416  -0.672834   0.512305  -1.998655
     4  Na  -0.013270   0.089332  -0.672834   1.286412   0.170452   0.283689
     5  Na  -0.275206   0.224374   0.512305   0.170452  -1.054885  -0.543951
     6  Na   0.249051   0.011616  -1.998655   0.283689  -0.543951   2.279483
     7  Na   0.243962  -0.204911   0.112960   0.005784   1.003500  -0.188176
               7
     1  Na   0.243962
     2  Na  -0.204911
     3  Na   0.112960
     4  Na   0.005784
     5  Na   1.003500
     6  Na  -0.188176
     7  Na  -0.927618
 Mulliken charges and spin densities:
               1          2
     1  Na  -0.190261   0.262880
     2  Na   0.088999  -0.137396
     3  Na   0.421616  -0.450195
     4  Na  -2.030586   1.149566
     5  Na   0.907747   0.036588
     6  Na   0.500664   0.093057
     7  Na   0.301820   0.045501
 Sum of Mulliken charges =  -0.00000   1.00000
 Mulliken charges and spin densities with hydrogens summed into heavy atoms:
               1          2
     1  Na  -0.190261   0.262880
     2  Na   0.088999  -0.137396
     3  Na   0.421616  -0.450195
     4  Na  -2.030586   1.149566
     5  Na   0.907747   0.036588
     6  Na   0.500664   0.093057
     7  Na   0.301820   0.045501
 Electronic spatial extent (au):  <R**2>=           2177.1929
 Charge=             -0.0000 electrons
 Dipole moment (field-independent basis, Debye):
    X=              1.3801    Y=              0.0217    Z=              0.0833  Tot=              1.3828
 Quadrupole moment (field-independent basis, Debye-Ang):
   XX=            -52.2980   YY=            -68.8914   ZZ=            -70.2936
   XY=              0.1956   XZ=              0.2762   YZ=             -2.7391
 Traceless Quadrupole moment (field-independent basis, Debye-Ang):
   XX=             11.5297   YY=             -5.0637   ZZ=             -6.4660
   XY=              0.1956   XZ=              0.2762   YZ=             -2.7391
 Octapole moment (field-independent basis, Debye-Ang**2):
  XXX=             35.5757  YYY=             -3.5987  ZZZ=              2.6018  XYY=             14.4602
  XXY=              2.2969  XXZ=             -2.6243  XZZ=              2.4346  YZZ=              0.7676
  YYZ=              0.3545  XYZ=            -10.2844
 Hexadecapole moment (field-independent basis, Debye-Ang**3):
 XXXX=          -1791.4029 YYYY=          -1110.0398 ZZZZ=           -713.3477 XXXY=             -6.7584
 XXXZ=             -1.7267 YYYX=             12.0873 YYYZ=             27.0478 ZZZX=            -10.0293
 ZZZY=            -25.9493 XXYY=           -469.1779 XXZZ=           -393.1619 YYZZ=           -309.0950
 XXYZ=            -73.9233 YYXZ=             19.7313 ZZXY=             -2.3304
 N-N= 3.658590093437D+02 E-N=-3.461289383773D+03  KE= 1.133262284076D+03
                          Isotropic Fermi Contact Couplings
        Atom                 a.u.       MegaHertz       Gauss      10(-4) cm-1
     1  Na(23)             0.24606     291.09009     103.86818      97.09720
     2  Na(23)             0.04683      55.40479      19.76981      18.48105
     3  Na(23)             0.03488      41.26566      14.72461      13.76474
     4  Na(23)             0.00719       8.50236       3.03385       2.83608
     5  Na(23)             0.00137       1.61722       0.57707       0.53945
     6  Na(23)             0.18179     215.06772      76.74151      71.73887
     7  Na(23)             0.00022       0.25736       0.09183       0.08585
 --------------------------------------------------------
       Center         ----  Spin Dipole Couplings  ----
                      3XX-RR        3YY-RR        3ZZ-RR
 --------------------------------------------------------
     1   Atom        0.007008     -0.003509     -0.003499
     2   Atom        0.003269     -0.006178      0.002909
     3   Atom        0.004011     -0.006296      0.002285
     4   Atom       -0.050464     -0.040642      0.091106
     5   Atom       -0.020144     -0.008416      0.028560
     6   Atom       -0.004465     -0.005403      0.009868
     7   Atom       -0.022614     -0.008897      0.031510
 --------------------------------------------------------
                        XY            XZ            YZ
 --------------------------------------------------------
     1   Atom        0.004000      0.016703      0.007193
     2   Atom       -0.000189      0.006010     -0.000656
     3   Atom       -0.000170     -0.006525     -0.000322
     4   Atom       -0.000598      0.009143     -0.035476
     5   Atom       -0.000364      0.005392     -0.027633
     6   Atom       -0.006253     -0.018274      0.016528
     7   Atom        0.003034     -0.011338     -0.027855
 --------------------------------------------------------


 ---------------------------------------------------------------------------------
              Anisotropic Spin Dipole Couplings in Principal Axis System
 ---------------------------------------------------------------------------------

       Atom             a.u.   MegaHertz   Gauss  10(-4) cm-1        Axes

              Baa    -0.0168    -2.367    -0.845    -0.790 -0.5196 -0.2811  0.8068
     1 Na(23) Bbb    -0.0048    -0.673    -0.240    -0.224 -0.3987  0.9150  0.0619
              Bcc     0.0215     3.040     1.085     1.014  0.7556  0.2895  0.5875
 
              Baa    -0.0062    -0.881    -0.314    -0.294 -0.0434  0.9941  0.0998
     2 Na(23) Bbb    -0.0029    -0.408    -0.146    -0.136 -0.6964 -0.1017  0.7104
              Bcc     0.0091     1.289     0.460     0.430  0.7163 -0.0387  0.6967
 
              Baa    -0.0063    -0.895    -0.319    -0.299  0.0757  0.9927  0.0943
     3 Na(23) Bbb    -0.0034    -0.479    -0.171    -0.160  0.6549 -0.1209  0.7460
              Bcc     0.0097     1.374     0.490     0.458  0.7520  0.0053 -0.6592
 
              Baa    -0.0521    -7.356    -2.625    -2.454  0.8333 -0.5219 -0.1825
     4 Na(23) Bbb    -0.0485    -6.848    -2.444    -2.284  0.5497  0.8175  0.1718
              Bcc     0.1006    14.205     5.069     4.738  0.0596 -0.2434  0.9681
 
              Baa    -0.0244    -3.450    -1.231    -1.151 -0.4916  0.7506  0.4415
     5 Na(23) Bbb    -0.0193    -2.721    -0.971    -0.908  0.8674  0.4670  0.1720
              Bcc     0.0437     6.171     2.202     2.058  0.0770 -0.4675  0.8806
 
              Baa    -0.0194    -2.741    -0.978    -0.914  0.5773 -0.5021  0.6439
     6 Na(23) Bbb    -0.0112    -1.582    -0.564    -0.528  0.6635  0.7481 -0.0114
              Bcc     0.0306     4.322     1.542     1.442 -0.4759  0.4338  0.7651
 
              Baa    -0.0263    -3.716    -1.326    -1.239  0.7886  0.4790  0.3854
     7 Na(23) Bbb    -0.0213    -3.006    -1.072    -1.003 -0.5932  0.7576  0.2723
              Bcc     0.0476     6.721     2.398     2.242 -0.1615 -0.4434  0.8817
 

 ---------------------------------------------------------------------------------

 No NMR shielding tensors so no spin-rotation constants.
 Leave Link  601 at Mon Nov 13 20:14:57 2023, MaxMem=  1879048192 cpu:               2.8 elap:               0.2
 (Enter /home/sekinelabo/g16/l701.exe)
 ... and contract with generalized density number  0.
 Compute integral first derivatives.
 Leave Link  701 at Mon Nov 13 20:14:57 2023, MaxMem=  1879048192 cpu:               1.7 elap:               0.1
 (Enter /home/sekinelabo/g16/l702.exe)
 L702 exits ... SP integral derivatives will be done elsewhere.
 Leave Link  702 at Mon Nov 13 20:14:57 2023, MaxMem=  1879048192 cpu:               0.5 elap:               0.0
 (Enter /home/sekinelabo/g16/l703.exe)
 Integral derivatives from FoFJK, PRISM(SPDF).
 Compute integral first derivatives, UseDBF=F ICtDFT=           0.
 Calling FoFJK, ICntrl=      2127 FMM=F ISym2X=0 I1Cent= 0 IOpClX= 1 NMat=1 NMatS=1 NMatT=0.
 FoFJK:  IHMeth= 1 ICntrl=    2127 DoSepK=F KAlg= 0 I1Cent=           0 FoldK=F
 IRaf=         0 NMat=       1 IRICut=       1 DoRegI=T DoRafI=F ISym2E= 0 IDoP0=0 IntGTp=1.
 FoFCou: FMM=F IPFlag=           0 FMFlag=      100000 FMFlg1=         800
         NFxFlg=           0 DoJE=F BraDBF=F KetDBF=F FulRan=T
         wScrn=  0.000000 ICntrl=      2127 IOpCl=  1 I1Cent=           0 NGrid=           0
         NMat0=    1 NMatS0=      1 NMatT0=    0 NMatD0=    1 NMtDS0=    0 NMtDT0=    0
 Symmetry not used in FoFCou.
 Leave Link  703 at Mon Nov 13 20:14:59 2023, MaxMem=  1879048192 cpu:              36.6 elap:               2.4
 (Enter /home/sekinelabo/g16/l716.exe)
 Dipole        = 5.42960882D-01 8.52276304D-03 3.27821714D-02
 ***** Axes restored to original set *****
 -------------------------------------------------------------------
 Center     Atomic                   Forces (Hartrees/Bohr)
 Number     Number              X              Y              Z
 -------------------------------------------------------------------
      1       11          -0.005450716    0.004042869   -0.016856976
      2       11           0.002512837   -0.007598100    0.004074280
      3       11           0.002250875    0.007150854   -0.005175195
      4       11           0.005744338    0.003148871    0.003464302
      5       11          -0.002164274    0.017253242    0.005162054
      6       11          -0.008005008   -0.007315048    0.014085435
      7       11           0.005111947   -0.016682688   -0.004753899
 -------------------------------------------------------------------
 Cartesian Forces:  Max     0.017253242 RMS     0.008509922
 Z-matrix is all fixed cartesians, so copy forces.
 Force constants in Cartesian coordinates: 
                1             2             3             4             5 
      1  0.762221D-01
      2 -0.162923D-01  0.999389D-01
      3  0.285648D-01 -0.596108D-02  0.145058D+00
      4  0.361476D-03  0.149082D-02 -0.451069D-03  0.439844D-01
      5 -0.131188D-02  0.552265D-02  0.186547D-02 -0.781123D-02  0.575470D-01
      6 -0.382241D-02  0.441938D-02  0.519153D-02  0.593887D-02 -0.195123D-01
      7 -0.185358D-02 -0.227899D-02  0.242510D-02 -0.584216D-02  0.954351D-02
      8  0.474049D-03  0.184271D-02 -0.593892D-03 -0.687381D-02 -0.272570D-01
      9 -0.389119D-02 -0.340419D-02  0.511982D-02  0.578304D-02  0.213157D-01
     10 -0.424901D-01 -0.337899D-02 -0.132063D-03 -0.356367D-01  0.434484D-02
     11  0.687002D-02 -0.291916D-01  0.236275D-02  0.762887D-02 -0.474165D-01
     12 -0.236448D-01 -0.457637D-02 -0.456934D-01 -0.794310D-02 -0.407138D-02
     13 -0.844137D-02 -0.497481D-02 -0.143347D-01  0.980513D-03  0.345769D-02
     14  0.926532D-02 -0.260828D-01  0.241912D-02  0.119037D-02  0.305401D-02
     15 -0.123943D-02 -0.346676D-01 -0.380864D-01 -0.378326D-03  0.336744D-02
     16 -0.992280D-02  0.372499D-02 -0.129261D-01 -0.175723D-02 -0.226020D-02
     17 -0.665025D-02 -0.140020D-01  0.102228D-01  0.298688D-02  0.513538D-02
     18  0.203813D-01  0.172030D-01 -0.502528D-01 -0.182342D-02 -0.115747D-02
     19 -0.138758D-01  0.217093D-01 -0.314597D-02 -0.209034D-02 -0.596274D-02
     20  0.764507D-02 -0.380279D-01 -0.103152D-01  0.138810D-02  0.341444D-02
     21 -0.163483D-01  0.269869D-01 -0.213373D-01 -0.112600D-02 -0.180747D-02
                6             7             8             9            10 
      6  0.373559D-01
      7 -0.594795D-02  0.462571D-01
      8  0.225000D-01  0.572074D-02  0.613803D-01
      9 -0.124830D-01  0.231817D-02 -0.145625D-01  0.685609D-01
     10  0.152039D-02 -0.422876D-01  0.137449D-02 -0.123145D-01  0.257060D+00
     11 -0.726639D-02 -0.926575D-02 -0.542842D-01 -0.145646D-01  0.301505D-02
     12 -0.437006D-01 -0.115848D-01 -0.192297D-01 -0.104650D+00  0.401967D-01
     13  0.258436D-02 -0.176474D-02  0.440100D-02  0.621809D-03 -0.447281D-01
     14  0.102604D-02 -0.234790D-02  0.550579D-02  0.444419D-03 -0.103008D-01
     15  0.768251D-02  0.152551D-02 -0.236761D-02  0.103637D-02 -0.763682D-02
     16  0.263572D-02  0.441347D-02 -0.222088D-03  0.102583D-01 -0.544785D-01
     17 -0.209202D-02 -0.708334D-03  0.120546D-01  0.115192D-01 -0.615443D-02
     18  0.492792D-02  0.108181D-01  0.104924D-01  0.372344D-01 -0.254692D-01
     19 -0.290898D-02  0.107750D-02 -0.487437D-02 -0.277559D-02 -0.374393D-01
     20  0.925346D-03 -0.663285D-03  0.757809D-03 -0.748134D-03  0.110998D-01
     21  0.102582D-02  0.445849D-03  0.376129D-02  0.518101D-02  0.383558D-02
               11            12            13            14            15 
     11  0.268827D+00
     12  0.532727D-01  0.349809D+00
     13  0.200380D-01  0.406975D-02  0.568019D-01
     14 -0.429985D-01 -0.786105D-02 -0.730945D-02  0.112275D+00
     15 -0.385195D-02 -0.290673D-01 -0.247279D-02  0.181189D-01  0.647091D-01
     16 -0.115597D-01  0.407483D-02 -0.117786D-01  0.582404D-02  0.916078D-02
     17 -0.512691D-01 -0.100480D-01 -0.192326D-01 -0.458357D-01  0.249473D-01
     18 -0.161959D-01 -0.100465D+00  0.850192D-02 -0.856812D-02 -0.155402D-01
     19 -0.167264D-01 -0.516856D-02  0.893035D-02  0.367837D-02  0.104107D-02
     20 -0.436675D-01 -0.748626D-02  0.362018D-02 -0.591733D-02 -0.554660D-02
     21 -0.137566D-01 -0.262331D-01  0.102964D-02 -0.557935D-02  0.926589D-02
               16            17            18            19            20 
     16  0.922708D-01
     17  0.105048D-01  0.118244D+00
     18 -0.321961D-01 -0.781600D-02  0.153108D+00
     19 -0.187471D-01  0.192539D-01  0.197874D-01  0.621447D-01
     20 -0.601176D-02 -0.243267D-01  0.604215D-02 -0.170781D-01  0.107767D+00
     21  0.189926D-01 -0.267334D-01 -0.290124D-01 -0.682940D-02  0.171287D-01
               21 
     21  0.611100D-01
 Leave Link  716 at Mon Nov 13 20:14:59 2023, MaxMem=  1879048192 cpu:               0.5 elap:               0.0
 (Enter /home/sekinelabo/g16/l103.exe)

 GradGradGradGradGradGradGradGradGradGradGradGradGradGradGradGradGradGrad
 Berny optimization.
 Search for a local minimum.
 Step number   1 out of a maximum of    2
 All quantities printed in internal units (Hartrees-Bohrs-Radians)
 Second derivative matrix not updated -- first step.
 ITU=  0
     Eigenvalues ---    0.03241   0.04060   0.04948   0.05858   0.06178
     Eigenvalues ---    0.08615   0.11551   0.12536   0.15307   0.15971
     Eigenvalues ---    0.18204   0.20680   0.27828   0.30889   0.47643
 Quadratic step=3.321D-01 exceeds max=3.000D-01 adjusted using Lamda=-8.461D-03.
 Angle between NR and scaled steps=   3.45 degrees.
 Angle between quadratic step and forces=  23.60 degrees.
 Linear search not attempted -- first point.
 B after Tr=     0.000000   -0.000000    0.000000
         Rot=    1.000000   -0.000000   -0.000000   -0.000000 Ang=   0.00 deg.
 Variable       Old X    -DE/DX   Delta X   Delta X   Delta X     New X
                                 (Linear)    (Quad)   (Total)
    X1        0.48640  -0.00545   0.00000  -0.05831  -0.05831   0.42810
    Y1        4.94366   0.00404   0.00000   0.01700   0.01700   4.96066
    Z1        0.00000  -0.01686   0.00000  -0.08639  -0.08639  -0.08639
    X2       10.01414   0.00251   0.00000   0.07830   0.07830  10.09244
    Y2        2.49462  -0.00760   0.00000  -0.05895  -0.05895   2.43567
    Z2        4.68912   0.00407   0.00000   0.02997   0.02997   4.71910
    X3        9.84079   0.00225   0.00000   0.07816   0.07816   9.91895
    Y3        7.09033   0.00715   0.00000   0.06922   0.06922   7.15955
    Z3        1.37646  -0.00518   0.00000  -0.03223  -0.03223   1.34423
    X4        5.02346   0.00574   0.00000   0.02706   0.02706   5.05051
    Y4        4.87260   0.00315   0.00000   0.01213   0.01213   4.88473
    Z4        3.40103   0.00346   0.00000   0.01314   0.01314   3.41416
    X5        0.84699  -0.00216   0.00000  -0.05535  -0.05535   0.79164
    Y5        8.60104   0.01725   0.00000   0.13599   0.13599   8.73703
    Z5        4.30802   0.00516   0.00000   0.03838   0.03838   4.34640
    X6        0.00000  -0.00801   0.00000  -0.07380  -0.07380  -0.07380
    Y6        3.09738  -0.00732   0.00000  -0.03759  -0.03759   3.05979
    Z6        5.33422   0.01409   0.00000   0.07235   0.07235   5.40657
    X7        2.80655   0.00511   0.00000   0.00393   0.00393   2.81048
    Y7        0.00000  -0.01668   0.00000  -0.13780  -0.13780  -0.13780
    Z7        1.50978  -0.00475   0.00000  -0.03523  -0.03523   1.47455
         Item               Value     Threshold  Converged?
 Maximum Force            0.017253     0.000450     NO 
 RMS     Force            0.008510     0.000300     NO 
 Maximum Displacement     0.137795     0.001800     NO 
 RMS     Displacement     0.065470     0.001200     NO 
 Predicted change in Energy=-5.741683D-03
 GradGradGradGradGradGradGradGradGradGradGradGradGradGradGradGradGradGrad

 Leave Link  103 at Mon Nov 13 20:14:59 2023, MaxMem=  1879048192 cpu:               0.7 elap:               0.1
 (Enter /home/sekinelabo/g16/l9999.exe)
 1\1\GINC-SEKINELABO-XA7R-R37\Force\UB3LYP\6-311+G(d)\Na7(2)\SEKINELABO
 \13-Nov-2023\0\\#P B3LYP/6-311+g(d) force\\Gaussian input prepared by 
 ASE\\0,2\Na,0.2573944222,2.6160731237,0.\Na,5.2992546505,1.320094355,2
 .481377825\Na,5.2075202242,3.7520414185,0.72838945\Na,2.6582987228,2.5
 784700705,1.7997453121\Na,0.4482053342,4.5514767249,2.2797047341\Na,0.
 ,1.6390641783,2.8227463218\Na,1.4851615512,0.,0.7989391094\\Version=ES
 64L-G16RevB.01\State=2-A\HF=-1136.0981594\S2=0.760826\S2-1=0.\S2A=0.75
 008\RMSD=6.941e-09\RMSF=8.510e-03\Dipole=0.5429609,-0.0085228,-0.03278
 22\Quadrupole=8.5720228,-3.7647473,-4.8072755,-0.1453971,-0.2053655,-2
 .0364166\PG=C01 [X(Na7)]\\@


 IF YOU GET CONFUSED, LOGIC OUT YOUR DILEMMA

           --  PICKER X-RAY CORP.    DIGITAL PRINTER MANUAL CA. 1964
 Job cpu time:       0 days  0 hours  5 minutes 11.9 seconds.
 Elapsed time:       0 days  0 hours  0 minutes 25.9 seconds.
 File lengths (MBytes):  RWF=     32 Int=      0 D2E=      0 Chk=      6 Scr=      1
 Normal termination of Gaussian 16 at Mon Nov 13 20:14:59 2023.
