 Entering Gaussian System, Link 0=g16
 Initial command:
 /home/sekinelabo/g16/l1.exe "/home/sekinelabo/g16temp/Gau-4155140.inp" -scrdir="/home/sekinelabo/g16temp/"
 Entering Link 1 = /home/sekinelabo/g16/l1.exe PID=   4155142.
  
 Copyright (c) 1988-2017, Gaussian, Inc.  All Rights Reserved.
  
 This is part of the Gaussian(R) 16 program.  It is based on
 the Gaussian(R) 09 system (copyright 2009, Gaussian, Inc.),
 the Gaussian(R) 03 system (copyright 2003, Gaussian, Inc.),
 the Gaussian(R) 98 system (copyright 1998, Gaussian, Inc.),
 the Gaussian(R) 94 system (copyright 1995, Gaussian, Inc.),
 the Gaussian 92(TM) system (copyright 1992, Gaussian, Inc.),
 the Gaussian 90(TM) system (copyright 1990, Gaussian, Inc.),
 the Gaussian 88(TM) system (copyright 1988, Gaussian, Inc.),
 the Gaussian 86(TM) system (copyright 1986, Carnegie Mellon
 University), and the Gaussian 82(TM) system (copyright 1983,
 Carnegie Mellon University). Gaussian is a federally registered
 trademark of Gaussian, Inc.
  
 This software contains proprietary and confidential information,
 including trade secrets, belonging to Gaussian, Inc.
  
 This software is provided under written license and may be
 used, copied, transmitted, or stored only in accord with that
 written license.
  
 The following legend is applicable only to US Government
 contracts under FAR:
  
                    RESTRICTED RIGHTS LEGEND
  
 Use, reproduction and disclosure by the US Government is
 subject to restrictions as set forth in subparagraphs (a)
 and (c) of the Commercial Computer Software - Restricted
 Rights clause in FAR 52.227-19.
  
 Gaussian, Inc.
 340 Quinnipiac St., Bldg. 40, Wallingford CT 06492
  
  
 ---------------------------------------------------------------
 Warning -- This program may not be used in any manner that
 competes with the business of Gaussian, Inc. or will provide
 assistance to any competitor of Gaussian, Inc.  The licensee
 of this program is prohibited from giving any competitor of
 Gaussian, Inc. access to this program.  By using this program,
 the user acknowledges that Gaussian, Inc. is engaged in the
 business of creating and licensing software in the field of
 computational chemistry and represents and warrants to the
 licensee that it is not a competitor of Gaussian, Inc. and that
 it will not use this program in any manner prohibited above.
 ---------------------------------------------------------------
  

 Cite this work as:
 Gaussian 16, Revision B.01,
 M. J. Frisch, G. W. Trucks, H. B. Schlegel, G. E. Scuseria, 
 M. A. Robb, J. R. Cheeseman, G. Scalmani, V. Barone, 
 G. A. Petersson, H. Nakatsuji, X. Li, M. Caricato, A. V. Marenich, 
 J. Bloino, B. G. Janesko, R. Gomperts, B. Mennucci, H. P. Hratchian, 
 J. V. Ortiz, A. F. Izmaylov, J. L. Sonnenberg, D. Williams-Young, 
 F. Ding, F. Lipparini, F. Egidi, J. Goings, B. Peng, A. Petrone, 
 T. Henderson, D. Ranasinghe, V. G. Zakrzewski, J. Gao, N. Rega, 
 G. Zheng, W. Liang, M. Hada, M. Ehara, K. Toyota, R. Fukuda, 
 J. Hasegawa, M. Ishida, T. Nakajima, Y. Honda, O. Kitao, H. Nakai, 
 T. Vreven, K. Throssell, J. A. Montgomery, Jr., J. E. Peralta, 
 F. Ogliaro, M. J. Bearpark, J. J. Heyd, E. N. Brothers, K. N. Kudin, 
 V. N. Staroverov, T. A. Keith, R. Kobayashi, J. Normand, 
 K. Raghavachari, A. P. Rendell, J. C. Burant, S. S. Iyengar, 
 J. Tomasi, M. Cossi, J. M. Millam, M. Klene, C. Adamo, R. Cammi, 
 J. W. Ochterski, R. L. Martin, K. Morokuma, O. Farkas, 
 J. B. Foresman, and D. J. Fox, Gaussian, Inc., Wallingford CT, 2016.
 
 ******************************************
 Gaussian 16:  ES64L-G16RevB.01 20-Dec-2017
                13-Nov-2023 
 ******************************************
 %mem=14GB
 %chk=checkpoint.chk
 %nprocshared=16
 Will use up to   16 processors via shared memory.
 -------------------------
 #P B3LYP/6-311+g(d) force
 -------------------------
 1/10=7,30=1,38=1/1,3;
 2/12=2,17=6,18=5,40=1/2;
 3/5=4,6=6,7=11,11=2,25=1,30=1,71=1,74=-5/1,2,3;
 4//1;
 5/5=2,38=5/2;
 6/7=2,8=2,9=2,10=2,28=1/1;
 7/29=1/1,2,3,16;
 1/10=7,30=1/3;
 99//99;
 Leave Link    1 at Mon Nov 13 19:39:18 2023, MaxMem=  1879048192 cpu:               0.3 elap:               0.0
 (Enter /home/sekinelabo/g16/l101.exe)
 ------------------------------
 Gaussian input prepared by ASE
 ------------------------------
 Symbolic Z-matrix:
 Charge =  0 Multiplicity = 2
 Na                    2.38489   0.1976    2.50364 
 Na                    2.04578   3.29591   2.01254 
 Na                    0.        1.34376   1.24108 
 Na                    2.64976   1.455     0. 
 Na                    4.27937   2.14689   3.23677 
 Na                    4.87989   3.05421   0.63624 
 Na                    5.17495   0.        1.14242 
 
 ITRead=  0  0  0  0  0  0  0
 MicOpt= -1 -1 -1 -1 -1 -1 -1
 NAtoms=      7 NQM=        7 NQMF=       0 NMMI=      0 NMMIF=      0
                NMic=       0 NMicF=      0.
                    Isotopes and Nuclear Properties:
 (Nuclear quadrupole moments (NQMom) in fm**2, nuclear magnetic moments (NMagM)
  in nuclear magnetons)

  Atom         1           2           3           4           5           6           7
 IAtWgt=          23          23          23          23          23          23          23
 AtmWgt=  22.9897697  22.9897697  22.9897697  22.9897697  22.9897697  22.9897697  22.9897697
 NucSpn=           3           3           3           3           3           3           3
 AtZEff=  -0.0000000  -0.0000000  -0.0000000  -0.0000000  -0.0000000  -0.0000000  -0.0000000
 NQMom=   10.4000000  10.4000000  10.4000000  10.4000000  10.4000000  10.4000000  10.4000000
 NMagM=    2.2175200   2.2175200   2.2175200   2.2175200   2.2175200   2.2175200   2.2175200
 AtZNuc=  11.0000000  11.0000000  11.0000000  11.0000000  11.0000000  11.0000000  11.0000000
 Leave Link  101 at Mon Nov 13 19:39:18 2023, MaxMem=  1879048192 cpu:               2.6 elap:               0.2
 (Enter /home/sekinelabo/g16/l103.exe)

 GradGradGradGradGradGradGradGradGradGradGradGradGradGradGradGradGradGrad
 Berny optimization.
 Initialization pass.
 Trust Radius=3.00D-01 FncErr=1.00D-07 GrdErr=1.00D-07 EigMax=2.50D+02 EigMin=1.00D-04
 Number of steps in this run=      2 maximum allowed number of steps=      2.
 GradGradGradGradGradGradGradGradGradGradGradGradGradGradGradGradGradGrad

 Leave Link  103 at Mon Nov 13 19:39:18 2023, MaxMem=  1879048192 cpu:               0.2 elap:               0.0
 (Enter /home/sekinelabo/g16/l202.exe)
                          Input orientation:                          
 ---------------------------------------------------------------------
 Center     Atomic      Atomic             Coordinates (Angstroms)
 Number     Number       Type             X           Y           Z
 ---------------------------------------------------------------------
      1         11           0        2.384892    0.197600    2.503637
      2         11           0        2.045784    3.295907    2.012545
      3         11           0        0.000000    1.343759    1.241085
      4         11           0        2.649763    1.455004    0.000000
      5         11           0        4.279373    2.146892    3.236771
      6         11           0        4.879889    3.054212    0.636237
      7         11           0        5.174955    0.000000    1.142419
 ---------------------------------------------------------------------
                    Distance matrix (angstroms):
                    1          2          3          4          5
     1  Na   0.000000
     2  Na   3.155262   0.000000
     3  Na   2.931796   2.931086   0.000000
     4  Na   2.814146   2.793574   2.928124   0.000000
     5  Na   2.815366   2.794260   4.789657   3.689312   0.000000
     6  Na   4.227579   3.159873   5.206228   2.817042   2.818976
     7  Na   3.110693   4.627293   5.347484   3.130296   3.130100
                    6          7
     6  Na   0.000000
     7  Na   3.109902   0.000000
 Stoichiometry    Na7(2)
 Framework group  C1[X(Na7)]
 Deg. of freedom    15
 Full point group                 C1      NOp   1
 Largest Abelian subgroup         C1      NOp   1
 Largest concise Abelian subgroup C1      NOp   1
                         Standard orientation:                         
 ---------------------------------------------------------------------
 Center     Atomic      Atomic             Coordinates (Angstroms)
 Number     Number       Type             X           Y           Z
 ---------------------------------------------------------------------
      1         11           0        0.674345    1.444311    0.964681
      2         11           0        1.013453   -1.653997    0.473588
      3         11           0        3.059236    0.298151   -0.297871
      4         11           0        0.409474    0.186907   -1.538956
      5         11           0       -1.220136   -0.504982    1.697815
      6         11           0       -1.820653   -1.412301   -0.902719
      7         11           0       -2.115718    1.641911   -0.396537
 ---------------------------------------------------------------------
 Rotational constants (GHZ):           1.2664520           0.7920316           0.7284074
 Leave Link  202 at Mon Nov 13 19:39:18 2023, MaxMem=  1879048192 cpu:               0.1 elap:               0.0
 (Enter /home/sekinelabo/g16/l301.exe)
 Standard basis: 6-311+G(d) (5D, 7F)
 Ernie: Thresh=  0.10000D-02 Tol=  0.10000D-05 Strict=F.
 There are   217 symmetry adapted cartesian basis functions of A   symmetry.
 There are   210 symmetry adapted basis functions of A   symmetry.
   210 basis functions,   350 primitive gaussians,   217 cartesian basis functions
    39 alpha electrons       38 beta electrons
       nuclear repulsion energy       408.9501439431 Hartrees.
 IExCor=  402 DFT=T Ex+Corr=B3LYP ExCW=0 ScaHFX=  0.200000
 ScaDFX=  0.800000  0.720000  1.000000  0.810000 ScalE2=  1.000000  1.000000
 IRadAn=      5 IRanWt=     -1 IRanGd=            0 ICorTp=0 IEmpDi=  4
 NAtoms=    7 NActive=    7 NUniq=    7 SFac= 1.00D+00 NAtFMM=   60 NAOKFM=F Big=F
 Integral buffers will be    131072 words long.
 Raffenetti 2 integral format.
 Two-electron integral symmetry is turned on.
 Leave Link  301 at Mon Nov 13 19:39:18 2023, MaxMem=  1879048192 cpu:               0.5 elap:               0.0
 (Enter /home/sekinelabo/g16/l302.exe)
 NPDir=0 NMtPBC=     1 NCelOv=     1 NCel=       1 NClECP=     1 NCelD=      1
         NCelK=      1 NCelE2=     1 NClLst=     1 CellRange=     0.0.
 One-electron integrals computed using PRISM.
 One-electron integral symmetry used in STVInt
 NBasis=   210 RedAO= T EigKep=  1.58D-06  NBF=   210
 NBsUse=   210 1.00D-06 EigRej= -1.00D+00 NBFU=   210
 Precomputing XC quadrature grid using
 IXCGrd= 4 IRadAn=           5 IRanWt=          -1 IRanGd=           0 AccXCQ= 0.00D+00.
 Generated NRdTot=       0 NPtTot=           0 NUsed=           0 NTot=          32
 NSgBfM=   211   211   211   211   211 MxSgAt=     7 MxSgA2=     7.
 Leave Link  302 at Mon Nov 13 19:39:18 2023, MaxMem=  1879048192 cpu:               2.1 elap:               0.1
 (Enter /home/sekinelabo/g16/l303.exe)
 DipDrv:  MaxL=1.
 Leave Link  303 at Mon Nov 13 19:39:18 2023, MaxMem=  1879048192 cpu:               0.6 elap:               0.0
 (Enter /home/sekinelabo/g16/l401.exe)
 ExpMin= 7.60D-03 ExpMax= 3.62D+04 ExpMxC= 1.21D+03 IAcc=3 IRadAn=         5 AccDes= 0.00D+00
 Harris functional with IExCor=  402 and IRadAn=       5 diagonalized for initial guess.
 HarFok:  IExCor=  402 AccDes= 0.00D+00 IRadAn=         5 IDoV= 1 UseB2=F ITyADJ=14
 ICtDFT=  3500011 ScaDFX=  1.000000  1.000000  1.000000  1.000000
 FoFCou: FMM=F IPFlag=           0 FMFlag=      100000 FMFlg1=           0
         NFxFlg=           0 DoJE=T BraDBF=F KetDBF=T FulRan=T
         wScrn=  0.000000 ICntrl=       500 IOpCl=  0 I1Cent=   200000004 NGrid=           0
         NMat0=    1 NMatS0=      1 NMatT0=    0 NMatD0=    1 NMtDS0=    0 NMtDT0=    0
 Petite list used in FoFCou.
 Harris En= -1135.85948369432    
 JPrj=0 DoOrth=F DoCkMO=F.
 Initial guess <Sx>= 0.0000 <Sy>= 0.0000 <Sz>= 0.5000 <S**2>= 0.7500 S= 0.5000
 Leave Link  401 at Mon Nov 13 19:39:19 2023, MaxMem=  1879048192 cpu:               4.9 elap:               0.3
 (Enter /home/sekinelabo/g16/l502.exe)
 Keep R1 and R2 ints in memory in canonical form, NReq=507620388.
 FoFCou: FMM=F IPFlag=           0 FMFlag=           0 FMFlg1=           0
         NFxFlg=           0 DoJE=F BraDBF=F KetDBF=F FulRan=T
         wScrn=  0.000000 ICntrl=       600 IOpCl=  0 I1Cent=           0 NGrid=           0
         NMat0=    1 NMatS0=  22155 NMatT0=    0 NMatD0=    1 NMtDS0=    0 NMtDT0=    0
 Symmetry not used in FoFCou.
 Two-electron integral symmetry not used.
 UHF open shell SCF:
 Using DIIS extrapolation, IDIIS=  1040.
 NGot=  1879048192 LenX=  1388082348 LenY=  1388034818
 Requested convergence on RMS density matrix=1.00D-08 within 128 cycles.
 Requested convergence on MAX density matrix=1.00D-06.
 Requested convergence on             energy=1.00D-06.
 No special actions if energy rises.

 Cycle   1  Pass 1  IDiag  1:
 E= -1136.03648167918    
 DIIS: error= 1.61D-02 at cycle   1 NSaved=   1.
 NSaved= 1 IEnMin= 1 EnMin= -1136.03648167918     IErMin= 1 ErrMin= 1.61D-02
 ErrMax= 1.61D-02  0.00D+00 EMaxC= 1.00D-01 BMatC= 2.13D-01 BMatP= 2.13D-01
 IDIUse=3 WtCom= 8.39D-01 WtEn= 1.61D-01
 Coeff-Com:  0.100D+01
 Coeff-En:   0.100D+01
 Coeff:      0.100D+01
 Gap=     0.059 Goal=   None    Shift=    0.000
 Gap=     0.031 Goal=   None    Shift=    0.000
 GapD=    0.031 DampG=0.250 DampE=0.500 DampFc=0.2500 IDamp=-1.
 Damping current iteration by 2.50D-01
 RMSDP=9.74D-02 MaxDP=9.41D+00              OVMax= 2.73D-01

 Cycle   2  Pass 1  IDiag  1:
 E= -1136.05371514016     Delta-E=       -0.017233460982 Rises=F Damp=T
 DIIS: error= 8.58D-03 at cycle   2 NSaved=   2.
 NSaved= 2 IEnMin= 2 EnMin= -1136.05371514016     IErMin= 2 ErrMin= 8.58D-03
 ErrMax= 8.58D-03  0.00D+00 EMaxC= 1.00D-01 BMatC= 7.97D-02 BMatP= 2.13D-01
 IDIUse=3 WtCom= 9.14D-01 WtEn= 8.58D-02
 Coeff-Com: -0.125D+01 0.225D+01
 Coeff-En:   0.000D+00 0.100D+01
 Coeff:     -0.114D+01 0.214D+01
 Gap=     0.064 Goal=   None    Shift=    0.000
 Gap=     0.034 Goal=   None    Shift=    0.000
 RMSDP=4.11D-02 MaxDP=4.13D+00 DE=-1.72D-02 OVMax= 1.86D-01

 Cycle   3  Pass 1  IDiag  1:
 E= -1136.08219243274     Delta-E=       -0.028477292575 Rises=F Damp=F
 DIIS: error= 4.22D-03 at cycle   3 NSaved=   3.
 NSaved= 3 IEnMin= 3 EnMin= -1136.08219243274     IErMin= 3 ErrMin= 4.22D-03
 ErrMax= 4.22D-03  0.00D+00 EMaxC= 1.00D-01 BMatC= 4.94D-03 BMatP= 7.97D-02
 IDIUse=3 WtCom= 9.58D-01 WtEn= 4.22D-02
 Coeff-Com: -0.295D+00 0.536D+00 0.759D+00
 Coeff-En:   0.000D+00 0.000D+00 0.100D+01
 Coeff:     -0.283D+00 0.513D+00 0.769D+00
 Gap=     0.059 Goal=   None    Shift=    0.000
 Gap=     0.034 Goal=   None    Shift=    0.000
 RMSDP=1.96D-02 MaxDP=1.82D+00 DE=-2.85D-02 OVMax= 5.92D-02

 Cycle   4  Pass 1  IDiag  1:
 E= -1136.08314737893     Delta-E=       -0.000954946197 Rises=F Damp=F
 DIIS: error= 3.29D-03 at cycle   4 NSaved=   4.
 NSaved= 4 IEnMin= 4 EnMin= -1136.08314737893     IErMin= 4 ErrMin= 3.29D-03
 ErrMax= 3.29D-03  0.00D+00 EMaxC= 1.00D-01 BMatC= 3.01D-03 BMatP= 4.94D-03
 IDIUse=3 WtCom= 9.67D-01 WtEn= 3.29D-02
 Coeff-Com: -0.967D-03 0.275D-02 0.437D+00 0.561D+00
 Coeff-En:   0.000D+00 0.000D+00 0.404D+00 0.596D+00
 Coeff:     -0.935D-03 0.266D-02 0.436D+00 0.562D+00
 Gap=     0.061 Goal=   None    Shift=    0.000
 Gap=     0.035 Goal=   None    Shift=    0.000
 RMSDP=6.87D-03 MaxDP=5.64D-01 DE=-9.55D-04 OVMax= 3.38D-02

 Cycle   5  Pass 1  IDiag  1:
 E= -1136.08476847816     Delta-E=       -0.001621099226 Rises=F Damp=F
 DIIS: error= 6.02D-04 at cycle   5 NSaved=   5.
 NSaved= 5 IEnMin= 5 EnMin= -1136.08476847816     IErMin= 5 ErrMin= 6.02D-04
 ErrMax= 6.02D-04  0.00D+00 EMaxC= 1.00D-01 BMatC= 1.06D-04 BMatP= 3.01D-03
 IDIUse=3 WtCom= 9.94D-01 WtEn= 6.02D-03
 Coeff-Com: -0.937D-04-0.764D-04 0.273D+00 0.359D+00 0.368D+00
 Coeff-En:   0.000D+00 0.000D+00 0.000D+00 0.000D+00 0.100D+01
 Coeff:     -0.932D-04-0.760D-04 0.272D+00 0.357D+00 0.372D+00
 Gap=     0.061 Goal=   None    Shift=    0.000
 Gap=     0.035 Goal=   None    Shift=    0.000
 RMSDP=1.00D-03 MaxDP=7.29D-02 DE=-1.62D-03 OVMax= 1.04D-02

 Cycle   6  Pass 1  IDiag  1:
 E= -1136.08487967450     Delta-E=       -0.000111196340 Rises=F Damp=F
 DIIS: error= 9.55D-05 at cycle   6 NSaved=   6.
 NSaved= 6 IEnMin= 6 EnMin= -1136.08487967450     IErMin= 6 ErrMin= 9.55D-05
 ErrMax= 9.55D-05  0.00D+00 EMaxC= 1.00D-01 BMatC= 3.06D-06 BMatP= 1.06D-04
 IDIUse=1 WtCom= 1.00D+00 WtEn= 0.00D+00
 Coeff-Com: -0.172D-02 0.189D-02-0.347D-01-0.483D-01 0.982D-01 0.985D+00
 Coeff:     -0.172D-02 0.189D-02-0.347D-01-0.483D-01 0.982D-01 0.985D+00
 Gap=     0.061 Goal=   None    Shift=    0.000
 Gap=     0.035 Goal=   None    Shift=    0.000
 RMSDP=3.76D-04 MaxDP=3.06D-02 DE=-1.11D-04 OVMax= 2.74D-03

 Cycle   7  Pass 1  IDiag  1:
 E= -1136.08488470939     Delta-E=       -0.000005034888 Rises=F Damp=F
 DIIS: error= 3.84D-05 at cycle   7 NSaved=   7.
 NSaved= 7 IEnMin= 7 EnMin= -1136.08488470939     IErMin= 7 ErrMin= 3.84D-05
 ErrMax= 3.84D-05  0.00D+00 EMaxC= 1.00D-01 BMatC= 5.04D-07 BMatP= 3.06D-06
 IDIUse=1 WtCom= 1.00D+00 WtEn= 0.00D+00
 Coeff-Com: -0.591D-03 0.607D-03-0.302D-01-0.398D-01 0.220D-01 0.391D+00
 Coeff-Com:  0.658D+00
 Coeff:     -0.591D-03 0.607D-03-0.302D-01-0.398D-01 0.220D-01 0.391D+00
 Coeff:      0.658D+00
 Gap=     0.061 Goal=   None    Shift=    0.000
 Gap=     0.035 Goal=   None    Shift=    0.000
 RMSDP=9.35D-05 MaxDP=5.99D-03 DE=-5.03D-06 OVMax= 1.30D-03

 Cycle   8  Pass 1  IDiag  1:
 E= -1136.08488536470     Delta-E=       -0.000000655314 Rises=F Damp=F
 DIIS: error= 3.04D-05 at cycle   8 NSaved=   8.
 NSaved= 8 IEnMin= 8 EnMin= -1136.08488536470     IErMin= 8 ErrMin= 3.04D-05
 ErrMax= 3.04D-05  0.00D+00 EMaxC= 1.00D-01 BMatC= 2.57D-07 BMatP= 5.04D-07
 IDIUse=1 WtCom= 1.00D+00 WtEn= 0.00D+00
 Coeff-Com:  0.549D-03-0.696D-03-0.532D-02-0.501D-02-0.279D-01-0.186D+00
 Coeff-Com:  0.456D+00 0.769D+00
 Coeff:      0.549D-03-0.696D-03-0.532D-02-0.501D-02-0.279D-01-0.186D+00
 Coeff:      0.456D+00 0.769D+00
 Gap=     0.061 Goal=   None    Shift=    0.000
 Gap=     0.035 Goal=   None    Shift=    0.000
 RMSDP=7.58D-05 MaxDP=4.87D-03 DE=-6.55D-07 OVMax= 1.34D-03

 Cycle   9  Pass 1  IDiag  1:
 E= -1136.08488589401     Delta-E=       -0.000000529307 Rises=F Damp=F
 DIIS: error= 7.61D-06 at cycle   9 NSaved=   9.
 NSaved= 9 IEnMin= 9 EnMin= -1136.08488589401     IErMin= 9 ErrMin= 7.61D-06
 ErrMax= 7.61D-06  0.00D+00 EMaxC= 1.00D-01 BMatC= 1.54D-08 BMatP= 2.57D-07
 IDIUse=1 WtCom= 1.00D+00 WtEn= 0.00D+00
 Coeff-Com:  0.228D-03-0.282D-03 0.250D-02 0.356D-02-0.627D-02-0.571D-01
 Coeff-Com: -0.335D-01 0.814D-01 0.101D+01
 Coeff:      0.228D-03-0.282D-03 0.250D-02 0.356D-02-0.627D-02-0.571D-01
 Coeff:     -0.335D-01 0.814D-01 0.101D+01
 Gap=     0.061 Goal=   None    Shift=    0.000
 Gap=     0.035 Goal=   None    Shift=    0.000
 RMSDP=3.53D-05 MaxDP=2.15D-03 DE=-5.29D-07 OVMax= 9.69D-04

 Cycle  10  Pass 1  IDiag  1:
 E= -1136.08488599770     Delta-E=       -0.000000103693 Rises=F Damp=F
 DIIS: error= 6.28D-06 at cycle  10 NSaved=  10.
 NSaved=10 IEnMin=10 EnMin= -1136.08488599770     IErMin=10 ErrMin= 6.28D-06
 ErrMax= 6.28D-06  0.00D+00 EMaxC= 1.00D-01 BMatC= 7.28D-09 BMatP= 1.54D-08
 IDIUse=1 WtCom= 1.00D+00 WtEn= 0.00D+00
 Coeff-Com: -0.231D-04 0.397D-04 0.206D-02 0.236D-02 0.158D-02 0.254D-02
 Coeff-Com: -0.852D-01-0.846D-01 0.375D+00 0.786D+00
 Coeff:     -0.231D-04 0.397D-04 0.206D-02 0.236D-02 0.158D-02 0.254D-02
 Coeff:     -0.852D-01-0.846D-01 0.375D+00 0.786D+00
 Gap=     0.061 Goal=   None    Shift=    0.000
 Gap=     0.035 Goal=   None    Shift=    0.000
 RMSDP=2.04D-05 MaxDP=1.44D-03 DE=-1.04D-07 OVMax= 6.93D-04

 Cycle  11  Pass 1  IDiag  1:
 E= -1136.08488604380     Delta-E=       -0.000000046100 Rises=F Damp=F
 DIIS: error= 5.21D-06 at cycle  11 NSaved=  11.
 NSaved=11 IEnMin=11 EnMin= -1136.08488604380     IErMin=11 ErrMin= 5.21D-06
 ErrMax= 5.21D-06  0.00D+00 EMaxC= 1.00D-01 BMatC= 4.24D-09 BMatP= 7.28D-09
 IDIUse=1 WtCom= 1.00D+00 WtEn= 0.00D+00
 Coeff-Com: -0.124D-03 0.161D-03 0.284D-03 0.568D-04 0.375D-02 0.234D-01
 Coeff-Com: -0.357D-01-0.798D-01-0.217D+00 0.403D+00 0.903D+00
 Coeff:     -0.124D-03 0.161D-03 0.284D-03 0.568D-04 0.375D-02 0.234D-01
 Coeff:     -0.357D-01-0.798D-01-0.217D+00 0.403D+00 0.903D+00
 Gap=     0.061 Goal=   None    Shift=    0.000
 Gap=     0.035 Goal=   None    Shift=    0.000
 RMSDP=2.10D-05 MaxDP=1.42D-03 DE=-4.61D-08 OVMax= 7.95D-04

 Cycle  12  Pass 1  IDiag  1:
 E= -1136.08488608295     Delta-E=       -0.000000039144 Rises=F Damp=F
 DIIS: error= 4.07D-06 at cycle  12 NSaved=  12.
 NSaved=12 IEnMin=12 EnMin= -1136.08488608295     IErMin=12 ErrMin= 4.07D-06
 ErrMax= 4.07D-06  0.00D+00 EMaxC= 1.00D-01 BMatC= 2.43D-09 BMatP= 4.24D-09
 IDIUse=1 WtCom= 1.00D+00 WtEn= 0.00D+00
 Coeff-Com: -0.693D-04 0.833D-04-0.831D-03-0.112D-02 0.197D-02 0.155D-01
 Coeff-Com:  0.185D-01-0.124D-01-0.334D+00-0.115D+00 0.577D+00 0.851D+00
 Coeff:     -0.693D-04 0.833D-04-0.831D-03-0.112D-02 0.197D-02 0.155D-01
 Coeff:      0.185D-01-0.124D-01-0.334D+00-0.115D+00 0.577D+00 0.851D+00
 Gap=     0.061 Goal=   None    Shift=    0.000
 Gap=     0.035 Goal=   None    Shift=    0.000
 RMSDP=1.52D-05 MaxDP=6.66D-04 DE=-3.91D-08 OVMax= 7.61D-04

 Cycle  13  Pass 1  IDiag  1:
 E= -1136.08488610970     Delta-E=       -0.000000026759 Rises=F Damp=F
 DIIS: error= 2.93D-06 at cycle  13 NSaved=  13.
 NSaved=13 IEnMin=13 EnMin= -1136.08488610970     IErMin=13 ErrMin= 2.93D-06
 ErrMax= 2.93D-06  0.00D+00 EMaxC= 1.00D-01 BMatC= 9.28D-10 BMatP= 2.43D-09
 IDIUse=1 WtCom= 1.00D+00 WtEn= 0.00D+00
 Coeff-Com:  0.139D-03-0.181D-03-0.987D-04 0.145D-03-0.386D-02-0.246D-01
 Coeff-Com:  0.390D-01 0.777D-01 0.170D+00-0.233D+00-0.847D+00-0.216D+00
 Coeff-Com:  0.204D+01
 Coeff:      0.139D-03-0.181D-03-0.987D-04 0.145D-03-0.386D-02-0.246D-01
 Coeff:      0.390D-01 0.777D-01 0.170D+00-0.233D+00-0.847D+00-0.216D+00
 Coeff:      0.204D+01
 Gap=     0.061 Goal=   None    Shift=    0.000
 Gap=     0.035 Goal=   None    Shift=    0.000
 RMSDP=2.45D-05 MaxDP=1.08D-03 DE=-2.68D-08 OVMax= 1.24D-03

 Cycle  14  Pass 1  IDiag  1:
 E= -1136.08488613421     Delta-E=       -0.000000024508 Rises=F Damp=F
 DIIS: error= 1.11D-06 at cycle  14 NSaved=  14.
 NSaved=14 IEnMin=14 EnMin= -1136.08488613421     IErMin=14 ErrMin= 1.11D-06
 ErrMax= 1.11D-06  0.00D+00 EMaxC= 1.00D-01 BMatC= 1.59D-10 BMatP= 9.28D-10
 IDIUse=1 WtCom= 1.00D+00 WtEn= 0.00D+00
 Coeff-Com: -0.775D-05 0.126D-04 0.780D-04 0.131D-03 0.625D-04-0.137D-02
 Coeff-Com: -0.746D-02-0.352D-02 0.810D-01 0.490D-01-0.780D-01-0.203D+00
 Coeff-Com: -0.251D+00 0.141D+01
 Coeff:     -0.775D-05 0.126D-04 0.780D-04 0.131D-03 0.625D-04-0.137D-02
 Coeff:     -0.746D-02-0.352D-02 0.810D-01 0.490D-01-0.780D-01-0.203D+00
 Coeff:     -0.251D+00 0.141D+01
 Gap=     0.061 Goal=   None    Shift=    0.000
 Gap=     0.035 Goal=   None    Shift=    0.000
 RMSDP=1.11D-05 MaxDP=9.10D-04 DE=-2.45D-08 OVMax= 5.24D-04

 Cycle  15  Pass 1  IDiag  1:
 E= -1136.08488613794     Delta-E=       -0.000000003730 Rises=F Damp=F
 DIIS: error= 3.28D-07 at cycle  15 NSaved=  15.
 NSaved=15 IEnMin=15 EnMin= -1136.08488613794     IErMin=15 ErrMin= 3.28D-07
 ErrMax= 3.28D-07  0.00D+00 EMaxC= 1.00D-01 BMatC= 2.83D-11 BMatP= 1.59D-10
 IDIUse=1 WtCom= 1.00D+00 WtEn= 0.00D+00
 Coeff-Com: -0.206D-04 0.266D-04 0.205D-04-0.486D-04 0.622D-03 0.435D-02
 Coeff-Com: -0.467D-02-0.125D-01-0.493D-01 0.324D-01 0.160D+00 0.718D-01
 Coeff-Com: -0.286D+00-0.303D+00 0.139D+01
 Coeff:     -0.206D-04 0.266D-04 0.205D-04-0.486D-04 0.622D-03 0.435D-02
 Coeff:     -0.467D-02-0.125D-01-0.493D-01 0.324D-01 0.160D+00 0.718D-01
 Coeff:     -0.286D+00-0.303D+00 0.139D+01
 Gap=     0.061 Goal=   None    Shift=    0.000
 Gap=     0.035 Goal=   None    Shift=    0.000
 RMSDP=4.00D-06 MaxDP=3.92D-04 DE=-3.73D-09 OVMax= 1.48D-04

 Cycle  16  Pass 1  IDiag  1:
 E= -1136.08488613837     Delta-E=       -0.000000000428 Rises=F Damp=F
 DIIS: error= 1.24D-07 at cycle  16 NSaved=  16.
 NSaved=16 IEnMin=16 EnMin= -1136.08488613837     IErMin=16 ErrMin= 1.24D-07
 ErrMax= 1.24D-07  0.00D+00 EMaxC= 1.00D-01 BMatC= 5.99D-12 BMatP= 2.83D-11
 IDIUse=1 WtCom= 1.00D+00 WtEn= 0.00D+00
 Coeff-Com:  0.557D-05-0.803D-05-0.698D-05-0.898D-05-0.124D-03-0.227D-03
 Coeff-Com:  0.241D-02 0.299D-02-0.163D-01-0.178D-01 0.113D-02 0.537D-01
 Coeff-Com:  0.914D-01-0.322D+00-0.212D+00 0.142D+01
 Coeff:      0.557D-05-0.803D-05-0.698D-05-0.898D-05-0.124D-03-0.227D-03
 Coeff:      0.241D-02 0.299D-02-0.163D-01-0.178D-01 0.113D-02 0.537D-01
 Coeff:      0.914D-01-0.322D+00-0.212D+00 0.142D+01
 Gap=     0.061 Goal=   None    Shift=    0.000
 Gap=     0.035 Goal=   None    Shift=    0.000
 RMSDP=1.95D-06 MaxDP=1.34D-04 DE=-4.28D-10 OVMax= 5.55D-05

 Cycle  17  Pass 1  IDiag  1:
 E= -1136.08488613843     Delta-E=       -0.000000000060 Rises=F Damp=F
 DIIS: error= 4.76D-08 at cycle  17 NSaved=  17.
 NSaved=17 IEnMin=17 EnMin= -1136.08488613843     IErMin=17 ErrMin= 4.76D-08
 ErrMax= 4.76D-08  0.00D+00 EMaxC= 1.00D-01 BMatC= 1.03D-12 BMatP= 5.99D-12
 IDIUse=1 WtCom= 1.00D+00 WtEn= 0.00D+00
 Coeff-Com:  0.240D-05-0.317D-05-0.129D-04-0.239D-05-0.543D-04-0.485D-03
 Coeff-Com:  0.718D-03 0.159D-02 0.547D-02-0.426D-02-0.220D-01-0.553D-02
 Coeff-Com:  0.427D-01 0.273D-01-0.248D+00 0.196D+00 0.101D+01
 Coeff:      0.240D-05-0.317D-05-0.129D-04-0.239D-05-0.543D-04-0.485D-03
 Coeff:      0.718D-03 0.159D-02 0.547D-02-0.426D-02-0.220D-01-0.553D-02
 Coeff:      0.427D-01 0.273D-01-0.248D+00 0.196D+00 0.101D+01
 Gap=     0.061 Goal=   None    Shift=    0.000
 Gap=     0.035 Goal=   None    Shift=    0.000
 RMSDP=4.72D-07 MaxDP=3.30D-05 DE=-5.98D-11 OVMax= 1.05D-05

 Cycle  18  Pass 1  IDiag  1:
 E= -1136.08488613845     Delta-E=       -0.000000000022 Rises=F Damp=F
 DIIS: error= 1.99D-08 at cycle  18 NSaved=  18.
 NSaved=18 IEnMin=18 EnMin= -1136.08488613845     IErMin=18 ErrMin= 1.99D-08
 ErrMax= 1.99D-08  0.00D+00 EMaxC= 1.00D-01 BMatC= 2.15D-13 BMatP= 1.03D-12
 IDIUse=1 WtCom= 1.00D+00 WtEn= 0.00D+00
 Coeff-Com: -0.362D-06 0.643D-06-0.159D-05 0.317D-05 0.122D-05-0.174D-03
 Coeff-Com: -0.159D-03 0.279D-04 0.450D-02 0.265D-02-0.675D-02-0.138D-01
 Coeff-Com: -0.564D-02 0.725D-01-0.731D-02-0.288D+00 0.290D+00 0.952D+00
 Coeff:     -0.362D-06 0.643D-06-0.159D-05 0.317D-05 0.122D-05-0.174D-03
 Coeff:     -0.159D-03 0.279D-04 0.450D-02 0.265D-02-0.675D-02-0.138D-01
 Coeff:     -0.564D-02 0.725D-01-0.731D-02-0.288D+00 0.290D+00 0.952D+00
 Gap=     0.061 Goal=   None    Shift=    0.000
 Gap=     0.035 Goal=   None    Shift=    0.000
 RMSDP=1.98D-07 MaxDP=1.26D-05 DE=-2.21D-11 OVMax= 5.11D-06

 Cycle  19  Pass 1  IDiag  1:
 E= -1136.08488613845     Delta-E=        0.000000000000 Rises=F Damp=F
 DIIS: error= 7.40D-09 at cycle  19 NSaved=  19.
 NSaved=19 IEnMin=18 EnMin= -1136.08488613845     IErMin=19 ErrMin= 7.40D-09
 ErrMax= 7.40D-09  0.00D+00 EMaxC= 1.00D-01 BMatC= 2.19D-14 BMatP= 2.15D-13
 IDIUse=1 WtCom= 1.00D+00 WtEn= 0.00D+00
 Coeff-Com: -0.402D-06 0.506D-06 0.243D-05-0.647D-06 0.721D-05 0.124D-03
 Coeff-Com: -0.103D-03-0.303D-03-0.168D-02 0.426D-03 0.471D-02 0.337D-02
 Coeff-Com: -0.674D-02-0.147D-01 0.369D-01 0.168D-01-0.177D+00-0.193D+00
 Coeff-Com:  0.133D+01
 Coeff:     -0.402D-06 0.506D-06 0.243D-05-0.647D-06 0.721D-05 0.124D-03
 Coeff:     -0.103D-03-0.303D-03-0.168D-02 0.426D-03 0.471D-02 0.337D-02
 Coeff:     -0.674D-02-0.147D-01 0.369D-01 0.168D-01-0.177D+00-0.193D+00
 Coeff:      0.133D+01
 Gap=     0.061 Goal=   None    Shift=    0.000
 Gap=     0.035 Goal=   None    Shift=    0.000
 RMSDP=7.17D-08 MaxDP=3.83D-06 DE= 2.27D-13 OVMax= 1.42D-06

 Cycle  20  Pass 1  IDiag  1:
 E= -1136.08488613845     Delta-E=        0.000000000005 Rises=F Damp=F
 DIIS: error= 3.46D-09 at cycle  20 NSaved=  20.
 NSaved=20 IEnMin=18 EnMin= -1136.08488613845     IErMin=20 ErrMin= 3.46D-09
 ErrMax= 3.46D-09  0.00D+00 EMaxC= 1.00D-01 BMatC= 3.34D-15 BMatP= 2.19D-14
 IDIUse=1 WtCom= 1.00D+00 WtEn= 0.00D+00
 Large coefficients: NSaved= 20 BigCof=    0.00 CofMax=   10.00 Det=-3.64D-15
 Inversion failed.  Reducing to 19 matrices.
 Large coefficients: NSaved= 19 BigCof=    0.00 CofMax=   10.00 Det=-4.00D-15
 Inversion failed.  Reducing to 18 matrices.
 Large coefficients: NSaved= 18 BigCof=    0.00 CofMax=   10.00 Det=-4.12D-15
 Inversion failed.  Reducing to 17 matrices.
 Large coefficients: NSaved= 17 BigCof=    0.00 CofMax=   10.00 Det=-4.33D-15
 Inversion failed.  Reducing to 16 matrices.
 Large coefficients: NSaved= 16 BigCof=    0.00 CofMax=   10.00 Det=-7.47D-15
 Inversion failed.  Reducing to 15 matrices.
 Coeff-Com: -0.852D-05 0.387D-04 0.405D-04-0.138D-03-0.381D-03 0.863D-04
 Coeff-Com:  0.923D-03 0.795D-03-0.361D-02-0.583D-02 0.261D-01-0.117D-01
 Coeff-Com: -0.527D-01-0.206D+00 0.125D+01
 Coeff:     -0.852D-05 0.387D-04 0.405D-04-0.138D-03-0.381D-03 0.863D-04
 Coeff:      0.923D-03 0.795D-03-0.361D-02-0.583D-02 0.261D-01-0.117D-01
 Coeff:     -0.527D-01-0.206D+00 0.125D+01
 Gap=     0.061 Goal=   None    Shift=    0.000
 Gap=     0.035 Goal=   None    Shift=    0.000
 RMSDP=3.52D-08 MaxDP=2.33D-06 DE= 5.46D-12 OVMax= 4.47D-07

 Cycle  21  Pass 1  IDiag  1:
 E= -1136.08488613845     Delta-E=       -0.000000000005 Rises=F Damp=F
 DIIS: error= 1.91D-09 at cycle  21 NSaved=  16.
 NSaved=16 IEnMin=13 EnMin= -1136.08488613845     IErMin=16 ErrMin= 1.91D-09
 ErrMax= 1.91D-09  0.00D+00 EMaxC= 1.00D-01 BMatC= 1.09D-15 BMatP= 3.34D-15
 IDIUse=1 WtCom= 1.00D+00 WtEn= 0.00D+00
 Large coefficients: NSaved= 16 BigCof=    0.00 CofMax=   10.00 Det=-1.36D-15
 Inversion failed.  Reducing to 15 matrices.
 Coeff-Com:  0.940D-05 0.103D-04-0.103D-03-0.101D-03 0.799D-04 0.376D-03
 Coeff-Com:  0.479D-03-0.225D-02-0.178D-02 0.116D-01 0.184D-02-0.278D-01
 Coeff-Com: -0.160D+00 0.404D+00 0.774D+00
 Coeff:      0.940D-05 0.103D-04-0.103D-03-0.101D-03 0.799D-04 0.376D-03
 Coeff:      0.479D-03-0.225D-02-0.178D-02 0.116D-01 0.184D-02-0.278D-01
 Coeff:     -0.160D+00 0.404D+00 0.774D+00
 Gap=     0.061 Goal=   None    Shift=    0.000
 Gap=     0.035 Goal=   None    Shift=    0.000
 RMSDP=1.13D-08 MaxDP=6.56D-07 DE=-5.00D-12 OVMax= 1.24D-07

 Cycle  22  Pass 1  IDiag  1:
 E= -1136.08488613845     Delta-E=       -0.000000000000 Rises=F Damp=F
 DIIS: error= 1.22D-09 at cycle  22 NSaved=  16.
 NSaved=16 IEnMin=12 EnMin= -1136.08488613845     IErMin=16 ErrMin= 1.22D-09
 ErrMax= 1.22D-09  0.00D+00 EMaxC= 1.00D-01 BMatC= 3.85D-16 BMatP= 1.09D-15
 IDIUse=1 WtCom= 1.00D+00 WtEn= 0.00D+00
 Large coefficients: NSaved= 16 BigCof=    0.00 CofMax=   10.00 Det=-6.99D-16
 Inversion failed.  Reducing to 15 matrices.
 Coeff-Com:  0.409D-05 0.870D-05 0.276D-04-0.139D-03-0.125D-03 0.387D-03
 Coeff-Com: -0.426D-04-0.533D-03-0.103D-02 0.819D-02 0.370D-02-0.184D-01
 Coeff-Com: -0.234D+00 0.352D+00 0.890D+00
 Coeff:      0.409D-05 0.870D-05 0.276D-04-0.139D-03-0.125D-03 0.387D-03
 Coeff:     -0.426D-04-0.533D-03-0.103D-02 0.819D-02 0.370D-02-0.184D-01
 Coeff:     -0.234D+00 0.352D+00 0.890D+00
 Gap=     0.061 Goal=   None    Shift=    0.000
 Gap=     0.035 Goal=   None    Shift=    0.000
 RMSDP=1.33D-08 MaxDP=9.02D-07 DE=-4.55D-13 OVMax= 6.42D-08

 Cycle  23  Pass 1  IDiag  1:
 E= -1136.08488613845     Delta-E=       -0.000000000002 Rises=F Damp=F
 DIIS: error= 2.38D-10 at cycle  23 NSaved=  16.
 NSaved=16 IEnMin=16 EnMin= -1136.08488613845     IErMin=16 ErrMin= 2.38D-10
 ErrMax= 2.38D-10  0.00D+00 EMaxC= 1.00D-01 BMatC= 3.75D-17 BMatP= 3.85D-16
 IDIUse=1 WtCom= 1.00D+00 WtEn= 0.00D+00
 Large coefficients: NSaved= 16 BigCof=    0.00 CofMax=   10.00 Det=-1.68D-16
 Inversion failed.  Reducing to 15 matrices.
 Coeff-Com:  0.107D-04 0.212D-04-0.162D-04-0.835D-04-0.310D-04 0.324D-03
 Coeff-Com:  0.424D-03-0.258D-02 0.142D-02 0.821D-02 0.199D-01-0.141D+00
 Coeff-Com: -0.578D-02 0.291D+00 0.828D+00
 Coeff:      0.107D-04 0.212D-04-0.162D-04-0.835D-04-0.310D-04 0.324D-03
 Coeff:      0.424D-03-0.258D-02 0.142D-02 0.821D-02 0.199D-01-0.141D+00
 Coeff:     -0.578D-02 0.291D+00 0.828D+00
 Gap=     0.061 Goal=   None    Shift=    0.000
 Gap=     0.035 Goal=   None    Shift=    0.000
 RMSDP=1.27D-08 MaxDP=9.13D-07 DE=-1.59D-12 OVMax= 1.66D-08

 Cycle  24  Pass 1  IDiag  1:
 E= -1136.08488613845     Delta-E=        0.000000000002 Rises=F Damp=F
 DIIS: error= 1.29D-10 at cycle  24 NSaved=  16.
 NSaved=16 IEnMin=15 EnMin= -1136.08488613845     IErMin=16 ErrMin= 1.29D-10
 ErrMax= 1.29D-10  0.00D+00 EMaxC= 1.00D-01 BMatC= 5.22D-18 BMatP= 3.75D-17
 IDIUse=1 WtCom= 1.00D+00 WtEn= 0.00D+00
 Large coefficients: NSaved= 16 BigCof=    0.00 CofMax=   10.00 Det=-2.46D-17
 Inversion failed.  Reducing to 15 matrices.
 Coeff-Com:  0.766D-06 0.107D-04-0.574D-05-0.433D-04 0.836D-04 0.193D-03
 Coeff-Com: -0.620D-03-0.813D-03 0.236D-02 0.103D-01-0.188D-01-0.523D-01
 Coeff-Com:  0.598D-04 0.263D+00 0.797D+00
 Coeff:      0.766D-06 0.107D-04-0.574D-05-0.433D-04 0.836D-04 0.193D-03
 Coeff:     -0.620D-03-0.813D-03 0.236D-02 0.103D-01-0.188D-01-0.523D-01
 Coeff:      0.598D-04 0.263D+00 0.797D+00
 Gap=     0.061 Goal=   None    Shift=    0.000
 Gap=     0.035 Goal=   None    Shift=    0.000
 RMSDP=1.18D-08 MaxDP=9.81D-07 DE= 2.27D-12 OVMax= 6.44D-09

 Cycle  25  Pass 1  IDiag  1:
 E= -1136.08488613843     Delta-E=        0.000000000022 Rises=F Damp=F
 DIIS: error= 7.98D-11 at cycle  25 NSaved=  16.
 NSaved=16 IEnMin=14 EnMin= -1136.08488613845     IErMin=16 ErrMin= 7.98D-11
 ErrMax= 7.98D-11  0.00D+00 EMaxC= 1.00D-01 BMatC= 1.31D-18 BMatP= 5.22D-18
 IDIUse=1 WtCom= 1.00D+00 WtEn= 0.00D+00
 Large coefficients: NSaved= 16 BigCof=    0.00 CofMax=   10.00 Det=-4.23D-18
 Inversion failed.  Reducing to 15 matrices.
 Coeff-Com:  0.301D-05 0.409D-05-0.967D-05-0.829D-05 0.322D-04 0.788D-04
 Coeff-Com: -0.426D-03-0.262D-03 0.221D-02 0.407D-02-0.180D-01-0.217D-01
 Coeff-Com:  0.131D-01 0.288D+00 0.732D+00
 Coeff:      0.301D-05 0.409D-05-0.967D-05-0.829D-05 0.322D-04 0.788D-04
 Coeff:     -0.426D-03-0.262D-03 0.221D-02 0.407D-02-0.180D-01-0.217D-01
 Coeff:      0.131D-01 0.288D+00 0.732D+00
 Gap=     0.061 Goal=   None    Shift=    0.000
 Gap=     0.035 Goal=   None    Shift=    0.000
 RMSDP=7.93D-09 MaxDP=4.98D-07 DE= 2.16D-11 OVMax= 2.86D-09

 SCF Done:  E(UB3LYP) =  -1136.08488614     A.U. after   25 cycles
            NFock= 25  Conv=0.79D-08     -V/T= 2.0023
 <Sx>= 0.0000 <Sy>= 0.0000 <Sz>= 0.5000 <S**2>= 0.7602 S= 0.5051
 <L.S>= 0.000000000000E+00
 KE= 1.133483137917D+03 PE=-3.547504730560D+03 EE= 8.689865625620D+02
 Annihilation of the first spin contaminant:
 S**2 before annihilation     0.7602,   after     0.7501
 Leave Link  502 at Mon Nov 13 19:39:39 2023, MaxMem=  1879048192 cpu:             238.3 elap:              20.4
 (Enter /home/sekinelabo/g16/l601.exe)
 Copying SCF densities to generalized density rwf, IOpCl= 1 IROHF=0.

 **********************************************************************

            Population analysis using the SCF Density.

 **********************************************************************

 Orbital symmetries:
 Alpha Orbitals:
       Occupied  (A) (A) (A) (A) (A) (A) (A) (A) (A) (A) (A) (A)
                 (A) (A) (A) (A) (A) (A) (A) (A) (A) (A) (A) (A)
                 (A) (A) (A) (A) (A) (A) (A) (A) (A) (A) (A) (A)
                 (A) (A) (A)
       Virtual   (A) (A) (A) (A) (A) (A) (A) (A) (A) (A) (A) (A)
                 (A) (A) (A) (A) (A) (A) (A) (A) (A) (A) (A) (A)
                 (A) (A) (A) (A) (A) (A) (A) (A) (A) (A) (A) (A)
                 (A) (A) (A) (A) (A) (A) (A) (A) (A) (A) (A) (A)
                 (A) (A) (A) (A) (A) (A) (A) (A) (A) (A) (A) (A)
                 (A) (A) (A) (A) (A) (A) (A) (A) (A) (A) (A) (A)
                 (A) (A) (A) (A) (A) (A) (A) (A) (A) (A) (A) (A)
                 (A) (A) (A) (A) (A) (A) (A) (A) (A) (A) (A) (A)
                 (A) (A) (A) (A) (A) (A) (A) (A) (A) (A) (A) (A)
                 (A) (A) (A) (A) (A) (A) (A) (A) (A) (A) (A) (A)
                 (A) (A) (A) (A) (A) (A) (A) (A) (A) (A) (A) (A)
                 (A) (A) (A) (A) (A) (A) (A) (A) (A) (A) (A) (A)
                 (A) (A) (A) (A) (A) (A) (A) (A) (A) (A) (A) (A)
                 (A) (A) (A) (A) (A) (A) (A) (A) (A) (A) (A) (A)
                 (A) (A) (A)
 Beta  Orbitals:
       Occupied  (A) (A) (A) (A) (A) (A) (A) (A) (A) (A) (A) (A)
                 (A) (A) (A) (A) (A) (A) (A) (A) (A) (A) (A) (A)
                 (A) (A) (A) (A) (A) (A) (A) (A) (A) (A) (A) (A)
                 (A) (A)
       Virtual   (A) (A) (A) (A) (A) (A) (A) (A) (A) (A) (A) (A)
                 (A) (A) (A) (A) (A) (A) (A) (A) (A) (A) (A) (A)
                 (A) (A) (A) (A) (A) (A) (A) (A) (A) (A) (A) (A)
                 (A) (A) (A) (A) (A) (A) (A) (A) (A) (A) (A) (A)
                 (A) (A) (A) (A) (A) (A) (A) (A) (A) (A) (A) (A)
                 (A) (A) (A) (A) (A) (A) (A) (A) (A) (A) (A) (A)
                 (A) (A) (A) (A) (A) (A) (A) (A) (A) (A) (A) (A)
                 (A) (A) (A) (A) (A) (A) (A) (A) (A) (A) (A) (A)
                 (A) (A) (A) (A) (A) (A) (A) (A) (A) (A) (A) (A)
                 (A) (A) (A) (A) (A) (A) (A) (A) (A) (A) (A) (A)
                 (A) (A) (A) (A) (A) (A) (A) (A) (A) (A) (A) (A)
                 (A) (A) (A) (A) (A) (A) (A) (A) (A) (A) (A) (A)
                 (A) (A) (A) (A) (A) (A) (A) (A) (A) (A) (A) (A)
                 (A) (A) (A) (A) (A) (A) (A) (A) (A) (A) (A) (A)
                 (A) (A) (A) (A)
 The electronic state is 2-A.
 Alpha  occ. eigenvalues --  -38.44437 -38.44331 -38.44155 -38.43644 -38.43278
 Alpha  occ. eigenvalues --  -38.43167 -38.42946  -2.20524  -2.20465  -2.20434
 Alpha  occ. eigenvalues --   -2.19749  -2.19477  -2.19181  -2.19143  -1.14380
 Alpha  occ. eigenvalues --   -1.14351  -1.14259  -1.14213  -1.14129  -1.14113
 Alpha  occ. eigenvalues --   -1.14111  -1.14054  -1.13986  -1.13414  -1.13381
 Alpha  occ. eigenvalues --   -1.13322  -1.13178  -1.13111  -1.13068  -1.12858
 Alpha  occ. eigenvalues --   -1.12842  -1.12825  -1.12795  -1.12787  -1.12684
 Alpha  occ. eigenvalues --   -0.21399  -0.14343  -0.12548  -0.11899
 Alpha virt. eigenvalues --   -0.05759  -0.04103  -0.04080  -0.03549  -0.02792
 Alpha virt. eigenvalues --   -0.02712  -0.01513  -0.00411  -0.00289   0.00292
 Alpha virt. eigenvalues --    0.00666   0.00833   0.00947   0.01046   0.01066
 Alpha virt. eigenvalues --    0.01120   0.01255   0.01395   0.01404   0.01455
 Alpha virt. eigenvalues --    0.01531   0.01823   0.01925   0.01960   0.02028
 Alpha virt. eigenvalues --    0.02515   0.02766   0.02805   0.02933   0.02985
 Alpha virt. eigenvalues --    0.03016   0.03116   0.03147   0.03177   0.03294
 Alpha virt. eigenvalues --    0.03316   0.03409   0.03428   0.03834   0.03971
 Alpha virt. eigenvalues --    0.04148   0.05032   0.05087   0.05137   0.05199
 Alpha virt. eigenvalues --    0.05423   0.05581   0.05641   0.05781   0.06356
 Alpha virt. eigenvalues --    0.06429   0.06596   0.06933   0.07358   0.07451
 Alpha virt. eigenvalues --    0.07676   0.08449   0.08661   0.09091   0.09304
 Alpha virt. eigenvalues --    0.09568   0.10377   0.12102   0.12447   0.12536
 Alpha virt. eigenvalues --    0.12774   0.13097   0.13249   0.13763   0.14005
 Alpha virt. eigenvalues --    0.14081   0.14559   0.14651   0.15307   0.15560
 Alpha virt. eigenvalues --    0.16404   0.16879   0.17429   0.17840   0.18730
 Alpha virt. eigenvalues --    0.22117   0.24652   0.27186   0.28431   0.28984
 Alpha virt. eigenvalues --    0.29941   0.31403   0.32608   0.33242   0.34558
 Alpha virt. eigenvalues --    0.35477   0.36377   0.37880   0.38422   0.39146
 Alpha virt. eigenvalues --    0.39725   0.41130   0.42440   0.43306   0.44291
 Alpha virt. eigenvalues --    0.44520   0.44717   0.45025   0.46291   0.47100
 Alpha virt. eigenvalues --    0.47646   0.47677   0.48061   0.48758   0.49182
 Alpha virt. eigenvalues --    0.49833   0.50185   0.50475   0.51146   0.51472
 Alpha virt. eigenvalues --    0.53156   0.54363   0.55273   0.55369   0.55786
 Alpha virt. eigenvalues --    0.57591   0.59767   0.63615   0.64226   0.65733
 Alpha virt. eigenvalues --    0.66697   0.69360   0.71202   0.73871   0.75806
 Alpha virt. eigenvalues --    0.76339   0.77436   0.80969   0.82425   0.84242
 Alpha virt. eigenvalues --    0.86474   2.16005   2.21164   2.26354   2.29432
 Alpha virt. eigenvalues --    2.30097   2.33292   2.34579   4.40902   4.41198
 Alpha virt. eigenvalues --    4.41385   4.41794   4.42146   4.44082   4.46237
 Alpha virt. eigenvalues --    4.48050   4.48151   4.52953   4.56846   4.57714
 Alpha virt. eigenvalues --    4.64571   4.67291   4.69213   4.72814   4.77784
 Alpha virt. eigenvalues --    4.80347   4.83277   4.87422   4.91031  96.37954
 Alpha virt. eigenvalues --   96.46546  96.54000  96.57937  96.59284  96.63445
 Alpha virt. eigenvalues --   96.65466
  Beta  occ. eigenvalues --  -38.44432 -38.44252 -38.44080 -38.43613 -38.43237
  Beta  occ. eigenvalues --  -38.43155 -38.42923  -2.20441  -2.20383  -2.20320
  Beta  occ. eigenvalues --   -2.19696  -2.19409  -2.19164  -2.19108  -1.14325
  Beta  occ. eigenvalues --   -1.14263  -1.14153  -1.14125  -1.14090  -1.14082
  Beta  occ. eigenvalues --   -1.14026  -1.13996  -1.13917  -1.13372  -1.13326
  Beta  occ. eigenvalues --   -1.13276  -1.13137  -1.13038  -1.13004  -1.12845
  Beta  occ. eigenvalues --   -1.12822  -1.12796  -1.12763  -1.12722  -1.12654
  Beta  occ. eigenvalues --   -0.20559  -0.14077  -0.11644
  Beta virt. eigenvalues --   -0.08141  -0.05679  -0.04098  -0.03331  -0.03185
  Beta virt. eigenvalues --   -0.02017  -0.01781  -0.01429  -0.00391  -0.00043
  Beta virt. eigenvalues --    0.00327   0.00713   0.00828   0.01043   0.01084
  Beta virt. eigenvalues --    0.01151   0.01207   0.01275   0.01467   0.01514
  Beta virt. eigenvalues --    0.01553   0.01675   0.01871   0.01960   0.02060
  Beta virt. eigenvalues --    0.02127   0.02543   0.02760   0.02927   0.02936
  Beta virt. eigenvalues --    0.03016   0.03054   0.03111   0.03187   0.03253
  Beta virt. eigenvalues --    0.03344   0.03389   0.03500   0.03520   0.03989
  Beta virt. eigenvalues --    0.04189   0.04281   0.05148   0.05186   0.05223
  Beta virt. eigenvalues --    0.05303   0.05548   0.05645   0.05894   0.06057
  Beta virt. eigenvalues --    0.06403   0.06507   0.06684   0.06977   0.07461
  Beta virt. eigenvalues --    0.07569   0.07824   0.08457   0.08890   0.09121
  Beta virt. eigenvalues --    0.09489   0.09909   0.10823   0.12342   0.12604
  Beta virt. eigenvalues --    0.12706   0.12892   0.13232   0.13397   0.14024
  Beta virt. eigenvalues --    0.14209   0.14482   0.14819   0.14937   0.15528
  Beta virt. eigenvalues --    0.15839   0.16623   0.17021   0.17702   0.18126
  Beta virt. eigenvalues --    0.18997   0.22724   0.24719   0.27959   0.28734
  Beta virt. eigenvalues --    0.29176   0.30371   0.31664   0.32929   0.33501
  Beta virt. eigenvalues --    0.34895   0.35795   0.36827   0.38296   0.38629
  Beta virt. eigenvalues --    0.39315   0.40036   0.41348   0.42749   0.43476
  Beta virt. eigenvalues --    0.44560   0.44622   0.44789   0.45231   0.46541
  Beta virt. eigenvalues --    0.47333   0.47694   0.47802   0.48275   0.48968
  Beta virt. eigenvalues --    0.49316   0.50028   0.50441   0.50596   0.51381
  Beta virt. eigenvalues --    0.51731   0.53554   0.54568   0.55484   0.55611
  Beta virt. eigenvalues --    0.56070   0.57872   0.60086   0.63820   0.64382
  Beta virt. eigenvalues --    0.65949   0.66879   0.69643   0.71316   0.74236
  Beta virt. eigenvalues --    0.75846   0.76644   0.77687   0.81195   0.82555
  Beta virt. eigenvalues --    0.84440   0.86667   2.16064   2.21196   2.26448
  Beta virt. eigenvalues --    2.29681   2.30196   2.33380   2.34897   4.40993
  Beta virt. eigenvalues --    4.41292   4.41426   4.41861   4.42208   4.44181
  Beta virt. eigenvalues --    4.46286   4.48094   4.48205   4.53072   4.56885
  Beta virt. eigenvalues --    4.57794   4.64634   4.67359   4.69261   4.72873
  Beta virt. eigenvalues --    4.77885   4.80405   4.83386   4.87467   4.91081
  Beta virt. eigenvalues --   96.37984  96.46557  96.54027  96.58008  96.59343
  Beta virt. eigenvalues --   96.63485  96.65567
          Condensed to atoms (all electrons):
               1          2          3          4          5          6
     1  Na  14.236741   2.129596  -0.374300  -1.331732  -2.419744  -0.624240
     2  Na   2.129596  15.784911   0.020014  -0.866357  -3.267983  -1.420007
     3  Na  -0.374300   0.020014  11.959844   0.377489  -0.467935  -0.669450
     4  Na  -1.331732  -0.866357   0.377489  13.899026   0.740557  -1.095210
     5  Na  -2.419744  -3.267983  -0.467935   0.740557  15.135573   0.470487
     6  Na  -0.624240  -1.420007  -0.669450  -1.095210   0.470487  13.584472
     7  Na  -0.108466  -0.682090  -0.767904  -0.657665   0.013689   0.841267
               7
     1  Na  -0.108466
     2  Na  -0.682090
     3  Na  -0.767904
     4  Na  -0.657665
     5  Na   0.013689
     6  Na   0.841267
     7  Na  12.719403
          Atomic-Atomic Spin Densities.
               1          2          3          4          5          6
     1  Na   0.676869   0.330200  -0.370013  -0.766727   0.179980   0.161904
     2  Na   0.330200  -0.132568  -0.185535  -0.544484   0.341746   0.222646
     3  Na  -0.370013  -0.185535   0.395899   0.302036  -0.123912   0.004588
     4  Na  -0.766727  -0.544484   0.302036   1.099910  -0.028484   0.073328
     5  Na   0.179980   0.341746  -0.123912  -0.028484  -0.072780  -0.080059
     6  Na   0.161904   0.222646   0.004588   0.073328  -0.080059  -0.171275
     7  Na   0.034673   0.145808  -0.043162   0.258724   0.034180  -0.205012
               7
     1  Na   0.034673
     2  Na   0.145808
     3  Na  -0.043162
     4  Na   0.258724
     5  Na   0.034180
     6  Na  -0.205012
     7  Na  -0.280910
 Mulliken charges and spin densities:
               1          2
     1  Na  -0.507856   0.246887
     2  Na  -0.698084   0.177814
     3  Na   0.922243  -0.020099
     4  Na  -0.066107   0.394303
     5  Na   0.795357   0.250673
     6  Na  -0.087319   0.006121
     7  Na  -0.358234  -0.055700
 Sum of Mulliken charges =  -0.00000   1.00000
 Mulliken charges and spin densities with hydrogens summed into heavy atoms:
               1          2
     1  Na  -0.507856   0.246887
     2  Na  -0.698084   0.177814
     3  Na   0.922243  -0.020099
     4  Na  -0.066107   0.394303
     5  Na   0.795357   0.250673
     6  Na  -0.087319   0.006121
     7  Na  -0.358234  -0.055700
 Electronic spatial extent (au):  <R**2>=           1624.1576
 Charge=             -0.0000 electrons
 Dipole moment (field-independent basis, Debye):
    X=              0.1645    Y=              0.1085    Z=             -0.0981  Tot=              0.2201
 Quadrupole moment (field-independent basis, Debye-Ang):
   XX=            -54.0668   YY=            -74.9365   ZZ=            -66.5104
   XY=             -0.0431   XZ=              0.5093   YZ=              0.0070
 Traceless Quadrupole moment (field-independent basis, Debye-Ang):
   XX=             11.1045   YY=             -9.7652   ZZ=             -1.3392
   XY=             -0.0431   XZ=              0.5093   YZ=              0.0070
 Octapole moment (field-independent basis, Debye-Ang**2):
  XXX=             22.7383  YYY=              1.3661  ZZZ=              1.1346  XYY=             -5.0448
  XXY=              4.1370  XXZ=             -6.9220  XZZ=             -5.4256  YZZ=             -1.2271
  YYZ=              0.5190  XYZ=             -0.3558
 Hexadecapole moment (field-independent basis, Debye-Ang**3):
 XXXX=          -1140.9850 YYYY=           -953.7388 ZZZZ=           -675.2581 XXXY=              4.6600
 XXXZ=             -0.2148 YYYX=            -21.9258 YYYZ=              6.0646 ZZZX=            -20.4168
 ZZZY=             -4.9425 XXYY=           -350.9623 XXZZ=           -335.8695 YYZZ=           -274.4224
 XXYZ=             -2.8261 YYXZ=             29.5661 ZZXY=             15.9149
 N-N= 4.089501439431D+02 E-N=-3.547504730556D+03  KE= 1.133483137917D+03
                          Isotropic Fermi Contact Couplings
        Atom                 a.u.       MegaHertz       Gauss      10(-4) cm-1
     1  Na(23)             0.10178     120.41168      42.96588      40.16501
     2  Na(23)             0.01409      16.67325       5.94943       5.56160
     3  Na(23)            -0.00741      -8.76637      -3.12806      -2.92415
     4  Na(23)             0.27991     331.14503     118.16078     110.45809
     5  Na(23)             0.29962     354.45796     126.47942     118.23445
     6  Na(23)             0.07777      92.00329      32.82906      30.68899
     7  Na(23)            -0.00272      -3.21755      -1.14810      -1.07326
 --------------------------------------------------------
       Center         ----  Spin Dipole Couplings  ----
                      3XX-RR        3YY-RR        3ZZ-RR
 --------------------------------------------------------
     1   Atom       -0.024887     -0.005543      0.030430
     2   Atom       -0.033839     -0.027366      0.061205
     3   Atom       -0.007411     -0.013945      0.021356
     4   Atom        0.010885     -0.003263     -0.007621
     5   Atom        0.019272     -0.000468     -0.018804
     6   Atom       -0.013915     -0.007470      0.021385
     7   Atom       -0.019465     -0.017857      0.037322
 --------------------------------------------------------
                        XY            XZ            YZ
 --------------------------------------------------------
     1   Atom        0.012548     -0.023100     -0.038995
     2   Atom       -0.006688     -0.021772      0.024795
     3   Atom        0.000865      0.007797      0.001792
     4   Atom        0.005677      0.013293      0.008179
     5   Atom        0.009481      0.015902      0.006599
     6   Atom        0.008453     -0.019930     -0.029050
     7   Atom       -0.003588     -0.005816      0.018476
 --------------------------------------------------------


 ---------------------------------------------------------------------------------
              Anisotropic Spin Dipole Couplings in Principal Axis System
 ---------------------------------------------------------------------------------

       Atom             a.u.   MegaHertz   Gauss  10(-4) cm-1        Axes

              Baa    -0.0337    -4.760    -1.699    -1.588  0.8360  0.2805  0.4716
     1 Na(23) Bbb    -0.0295    -4.164    -1.486    -1.389 -0.4687  0.8120  0.3478
              Bcc     0.0632     8.924     3.184     2.977 -0.2854 -0.5118  0.8103
 
              Baa    -0.0389    -5.491    -1.959    -1.832  0.9610  0.2312  0.1518
     2 Na(23) Bbb    -0.0337    -4.753    -1.696    -1.585 -0.1809  0.9406 -0.2874
              Bcc     0.0725    10.244     3.655     3.417 -0.2092  0.2487  0.9457
 
              Baa    -0.0141    -1.988    -0.709    -0.663 -0.0944  0.9951 -0.0296
     3 Na(23) Bbb    -0.0094    -1.321    -0.471    -0.441  0.9646  0.0841 -0.2498
              Bcc     0.0234     3.309     1.181     1.104  0.2461  0.0521  0.9678
 
              Baa    -0.0165    -2.331    -0.832    -0.778 -0.3368 -0.3860  0.8588
     4 Na(23) Bbb    -0.0046    -0.648    -0.231    -0.216 -0.4813  0.8545  0.1953
              Bcc     0.0211     2.980     1.063     0.994  0.8093  0.3476  0.4735
 
              Baa    -0.0250    -3.526    -1.258    -1.176 -0.3097 -0.1337  0.9414
     5 Na(23) Bbb    -0.0043    -0.605    -0.216    -0.202 -0.3776  0.9259  0.0073
              Bcc     0.0293     4.131     1.474     1.378  0.8726  0.3532  0.3373
 
              Baa    -0.0272    -3.840    -1.370    -1.281  0.4547  0.6697  0.5871
     6 Na(23) Bbb    -0.0197    -2.787    -0.995    -0.930  0.8263 -0.5633  0.0025
              Bcc     0.0469     6.628     2.365     2.211 -0.3324 -0.4839  0.8095
 
              Baa    -0.0242    -3.419    -1.220    -1.141  0.3909  0.8911 -0.2306
     7 Na(23) Bbb    -0.0194    -2.742    -0.978    -0.915  0.9145 -0.3476  0.2069
              Bcc     0.0436     6.161     2.198     2.055 -0.1042  0.2918  0.9508
 

 ---------------------------------------------------------------------------------

 No NMR shielding tensors so no spin-rotation constants.
 Leave Link  601 at Mon Nov 13 19:39:39 2023, MaxMem=  1879048192 cpu:               2.6 elap:               0.2
 (Enter /home/sekinelabo/g16/l701.exe)
 ... and contract with generalized density number  0.
 Compute integral first derivatives.
 Leave Link  701 at Mon Nov 13 19:39:40 2023, MaxMem=  1879048192 cpu:               1.7 elap:               0.1
 (Enter /home/sekinelabo/g16/l702.exe)
 L702 exits ... SP integral derivatives will be done elsewhere.
 Leave Link  702 at Mon Nov 13 19:39:40 2023, MaxMem=  1879048192 cpu:               0.5 elap:               0.0
 (Enter /home/sekinelabo/g16/l703.exe)
 Integral derivatives from FoFJK, PRISM(SPDF).
 Compute integral first derivatives, UseDBF=F ICtDFT=           0.
 Calling FoFJK, ICntrl=      2127 FMM=F ISym2X=0 I1Cent= 0 IOpClX= 1 NMat=1 NMatS=1 NMatT=0.
 FoFJK:  IHMeth= 1 ICntrl=    2127 DoSepK=F KAlg= 0 I1Cent=           0 FoldK=F
 IRaf=         0 NMat=       1 IRICut=       1 DoRegI=T DoRafI=F ISym2E= 0 IDoP0=0 IntGTp=1.
 FoFCou: FMM=F IPFlag=           0 FMFlag=      100000 FMFlg1=         800
         NFxFlg=           0 DoJE=F BraDBF=F KetDBF=F FulRan=T
         wScrn=  0.000000 ICntrl=      2127 IOpCl=  1 I1Cent=           0 NGrid=           0
         NMat0=    1 NMatS0=      1 NMatT0=    0 NMatD0=    1 NMtDS0=    0 NMtDT0=    0
 Symmetry not used in FoFCou.
 Leave Link  703 at Mon Nov 13 19:39:42 2023, MaxMem=  1879048192 cpu:              38.1 elap:               2.4
 (Enter /home/sekinelabo/g16/l716.exe)
 Dipole        = 6.47006364D-02 4.26889110D-02-3.85817304D-02
 ***** Axes restored to original set *****
 -------------------------------------------------------------------
 Center     Atomic                   Forces (Hartrees/Bohr)
 Number     Number              X              Y              Z
 -------------------------------------------------------------------
      1       11          -0.004589528   -0.021143434    0.011204313
      2       11          -0.008936335    0.024558755    0.005599989
      3       11          -0.018448435   -0.003112174   -0.002138551
      4       11          -0.001035783   -0.006923952   -0.022799289
      5       11           0.012522745    0.003132466    0.019219542
      6       11           0.012421107    0.016151233   -0.008942278
      7       11           0.008066228   -0.012662894   -0.002143726
 -------------------------------------------------------------------
 Cartesian Forces:  Max     0.024558755 RMS     0.012896220
 Z-matrix is all fixed cartesians, so copy forces.
 Force constants in Cartesian coordinates: 
                1             2             3             4             5 
      1  0.184615D+00
      2  0.171168D-01  0.204066D+00
      3 -0.126755D-01 -0.385483D-01  0.182291D+00
      4 -0.213676D-01 -0.743111D-02  0.836238D-02  0.187121D+00
      5  0.159316D-01 -0.484808D-01 -0.110196D-01 -0.310226D-01  0.224285D+00
      6  0.107873D-02  0.227557D-01 -0.149379D-01 -0.570509D-02  0.250528D-01
      7 -0.411831D-01 -0.106629D-01  0.523815D-02 -0.364117D-01  0.144747D-01
      8  0.306038D-01 -0.361660D-01  0.114304D-01 -0.354817D-01 -0.486953D-01
      9 -0.244745D-01  0.448066D-02 -0.371216D-01 -0.124371D-01 -0.594335D-02
     10 -0.382965D-01 -0.329211D-02  0.937613D-02 -0.387847D-01  0.103078D-01
     11 -0.379116D-03 -0.363771D-01  0.401540D-01  0.945621D-03 -0.503524D-01
     12 -0.521097D-02 -0.484301D-02 -0.683964D-01 -0.845522D-02  0.218435D-03
     13 -0.510938D-01 -0.465396D-02 -0.203489D-01 -0.573457D-01 -0.516332D-02
     14 -0.212937D-01 -0.565590D-01 -0.314613D-01  0.272903D-01 -0.487694D-01
     15  0.133188D-01  0.141436D-01 -0.386391D-01  0.680069D-02 -0.128257D-01
     16  0.521285D-02 -0.120445D-01  0.580272D-02 -0.359371D-01 -0.199874D-01
     17 -0.181109D-01  0.108720D-02  0.119197D-01  0.289120D-01 -0.285170D-01
     18  0.783245D-02  0.896767D-02  0.678956D-02  0.909701D-02  0.987857D-02
     19 -0.378871D-01  0.209677D-01  0.424502D-02  0.272623D-02  0.154592D-01
     20 -0.238685D-01 -0.275705D-01  0.175252D-01  0.167875D-01  0.530107D-03
     21  0.201311D-01 -0.695640D-02 -0.299859D-01  0.233731D-02 -0.536115D-02
                6             7             8             9            10 
      6  0.160390D+00
      7  0.302863D-02  0.132745D+00
      8 -0.797535D-02  0.478842D-02  0.870761D-01
      9 -0.301632D-01  0.959682D-02 -0.859693D-03  0.853226D-01
     10  0.166449D-01 -0.444673D-01  0.539837D-02  0.404958D-01  0.223162D+00
     11 -0.473284D-01 -0.190585D-02 -0.362486D-01  0.517586D-02  0.756563D-03
     12 -0.587076D-01 -0.151946D-01 -0.848819D-03 -0.538818D-01  0.867008D-02
     13 -0.305388D-01 -0.492837D-02 -0.407504D-02 -0.153500D-01 -0.761474D-02
     14  0.287826D-01 -0.245296D-02  0.138523D-01 -0.203886D-02 -0.233489D-02
     15 -0.474418D-01 -0.354892D-02 -0.116250D-02  0.113161D-01 -0.125576D-01
     16  0.135328D-01 -0.214645D-02 -0.588006D-02  0.186592D-02 -0.556869D-01
     17 -0.152412D-01 -0.564830D-02  0.121240D-01  0.158184D-02 -0.765932D-02
     18 -0.234746D-01  0.125406D-02  0.235436D-02  0.119939D-01 -0.318595D-01
     19  0.195882D-02 -0.360812D-02  0.464622D-02  0.303081D-03 -0.383121D-01
     20 -0.604623D-02  0.140689D-02  0.805739D-02 -0.239645D-02 -0.317643D-02
     21  0.143347D-01 -0.374097D-03 -0.293839D-02  0.125340D-01 -0.307698D-01
               11            12            13            14            15 
     11  0.209963D+00
     12  0.949284D-02  0.296325D+00
     13 -0.226976D-02 -0.477276D-02  0.167231D+00
     14 -0.146475D-02 -0.605120D-02  0.371934D-02  0.157993D+00
     15 -0.695193D-02 -0.326060D-01  0.238269D-01  0.127452D-01  0.207818D+00
     16 -0.127600D-01  0.132373D-01 -0.261504D-01  0.172357D-02 -0.125328D-01
     17 -0.550283D-01  0.126595D-01 -0.424775D-02 -0.344484D-01 -0.642421D-02
     18 -0.249550D-01 -0.437938D-01  0.268820D-01  0.289817D-01 -0.638524D-01
     19  0.156125D-01  0.117262D-01 -0.200983D-01 -0.665165D-02 -0.153070D-01
     20 -0.304915D-01 -0.106277D-01  0.166905D-01 -0.306033D-01  0.475518D-03
     21  0.244126D-01 -0.389392D-01  0.203015D-01 -0.309581D-01 -0.365945D-01
               16            17            18            19            20 
     16  0.133351D+00
     17  0.271711D-01  0.149108D+00
     18 -0.224885D-01 -0.219291D-01  0.124923D+00
     19 -0.186429D-01 -0.204168D-01  0.928249D-02  0.115822D+00
     20  0.217772D-01 -0.443250D-01 -0.329820D-02 -0.296172D-01  0.124403D+00
     21  0.582605D-03  0.174335D-01 -0.125858D-01 -0.122086D-01  0.436794D-02
               21 
     21  0.912367D-01
 Leave Link  716 at Mon Nov 13 19:39:42 2023, MaxMem=  1879048192 cpu:               0.5 elap:               0.0
 (Enter /home/sekinelabo/g16/l103.exe)

 GradGradGradGradGradGradGradGradGradGradGradGradGradGradGradGradGradGrad
 Berny optimization.
 Search for a local minimum.
 Step number   1 out of a maximum of    2
 All quantities printed in internal units (Hartrees-Bohrs-Radians)
 Second derivative matrix not updated -- first step.
 ITU=  0
     Eigenvalues ---    0.10857   0.11938   0.14567   0.17058   0.17485
     Eigenvalues ---    0.19497   0.22698   0.23925   0.24011   0.25455
     Eigenvalues ---    0.26528   0.29201   0.30586   0.31975   0.35951
 Quadratic step=3.716D-01 exceeds max=3.000D-01 adjusted using Lamda=-3.326D-02.
 Angle between NR and scaled steps=   2.80 degrees.
 Angle between quadratic step and forces=  16.99 degrees.
 Linear search not attempted -- first point.
 B after Tr=     0.000000    0.000000    0.000000
         Rot=    1.000000    0.000000   -0.000000    0.000000 Ang=   0.00 deg.
 Variable       Old X    -DE/DX   Delta X   Delta X   Delta X     New X
                                 (Linear)    (Quad)   (Total)
    X1        4.50679  -0.00459   0.00000  -0.02789  -0.02789   4.47890
    Y1        0.37341  -0.02114   0.00000  -0.08574  -0.08574   0.28767
    Z1        4.73119   0.01120   0.00000   0.04654   0.04654   4.77773
    X2        3.86597  -0.00894   0.00000  -0.04447  -0.04447   3.82150
    Y2        6.22836   0.02456   0.00000   0.09888   0.09888   6.32724
    Z2        3.80316   0.00560   0.00000   0.02137   0.02137   3.82453
    X3        0.00000  -0.01845   0.00000  -0.14188  -0.14188  -0.14188
    Y3        2.53934  -0.00311   0.00000  -0.02140  -0.02140   2.51793
    Z3        2.34531  -0.00214   0.00000  -0.01652  -0.01652   2.32879
    X4        5.00733  -0.00104   0.00000  -0.01182  -0.01182   4.99551
    Y4        2.74956  -0.00692   0.00000  -0.01687  -0.01687   2.73269
    Z4        0.00000  -0.02280   0.00000  -0.07688  -0.07688  -0.07688
    X5        8.08684   0.01252   0.00000   0.06746   0.06746   8.15430
    Y5        4.05704   0.00313   0.00000   0.02262   0.02262   4.07966
    Z5        6.11661   0.01922   0.00000   0.08184   0.08184   6.19845
    X6        9.22165   0.01242   0.00000   0.08279   0.08279   9.30444
    Y6        5.77162   0.01615   0.00000   0.08530   0.08530   5.85692
    Z6        1.20231  -0.00894   0.00000  -0.04276  -0.04276   1.15955
    X7        9.77925   0.00807   0.00000   0.07581   0.07581   9.85506
    Y7        0.00000  -0.01266   0.00000  -0.08278  -0.08278  -0.08278
    Z7        2.15886  -0.00214   0.00000  -0.01360  -0.01360   2.14526
         Item               Value     Threshold  Converged?
 Maximum Force            0.024559     0.000450     NO 
 RMS     Force            0.012896     0.000300     NO 
 Maximum Displacement     0.141881     0.001800     NO 
 RMS     Displacement     0.065541     0.001200     NO 
 Predicted change in Energy=-9.987823D-03
 GradGradGradGradGradGradGradGradGradGradGradGradGradGradGradGradGradGrad

 Leave Link  103 at Mon Nov 13 19:39:42 2023, MaxMem=  1879048192 cpu:               0.3 elap:               0.0
 (Enter /home/sekinelabo/g16/l9999.exe)
 1\1\GINC-SEKINELABO-XA7R-R37\Force\UB3LYP\6-311+G(d)\Na7(2)\SEKINELABO
 \13-Nov-2023\0\\#P B3LYP/6-311+g(d) force\\Gaussian input prepared by 
 ASE\\0,2\Na,2.3848916429,0.1975995243,2.5036366108\Na,2.0457835678,3.2
 959074456,2.0125445734\Na,0.,1.3437594159,1.2410847802\Na,2.6497628227
 ,1.4550037774,0.\Na,4.2793727686,2.1468920691,3.2367710345\Na,4.879889
 2547,3.0542116637,0.6362369731\Na,5.174954755,0.,1.1424187204\\Version
 =ES64L-G16RevB.01\State=2-A\HF=-1136.0848861\S2=0.760201\S2-1=0.\S2A=0
 .75006\RMSD=7.932e-09\RMSF=1.290e-02\Dipole=-0.0647006,-0.0426889,-0.0
 385817\Quadrupole=8.2558901,-7.2602094,-0.9956807,-0.0320513,-0.378652
 3,-0.0051887\PG=C01 [X(Na7)]\\@


 THERE IS AN OLD, OLD RECIPE IN MAINE FOR STEWING COOT. PLACE THE
 BIRD IN A KETTLE OF WATER WITH A RED BUILDING BRICK FREE OF MORTAR AND
 BLEMISHES. PARBOIL THE COOT AND BRICK TOGETHER FOR THREE HOURS.
 POUR OFF THE WATER, REFILL THE KETTLE, AND AGAIN PARBOIL FOR THREE HOURS.
 ONCE AGAIN POUR OFF THE WATER, FOR THE LAST TIME ADD FRESH WATER,
 AND LET THE COOT AND BRICK SIMMER TOGETHER OVERNIGHT. IN THE MORNING,
 THROW AWAY THE COOT AND EAT THE BRICK.
 Job cpu time:       0 days  0 hours  4 minutes 54.0 seconds.
 Elapsed time:       0 days  0 hours  0 minutes 24.0 seconds.
 File lengths (MBytes):  RWF=     32 Int=      0 D2E=      0 Chk=      6 Scr=      1
 Normal termination of Gaussian 16 at Mon Nov 13 19:39:42 2023.
