 Entering Gaussian System, Link 0=g16
 Initial command:
 /home/sekinelabo/g16/l1.exe "/home/sekinelabo/g16temp/Gau-4169140.inp" -scrdir="/home/sekinelabo/g16temp/"
 Entering Link 1 = /home/sekinelabo/g16/l1.exe PID=   4169142.
  
 Copyright (c) 1988-2017, Gaussian, Inc.  All Rights Reserved.
  
 This is part of the Gaussian(R) 16 program.  It is based on
 the Gaussian(R) 09 system (copyright 2009, Gaussian, Inc.),
 the Gaussian(R) 03 system (copyright 2003, Gaussian, Inc.),
 the Gaussian(R) 98 system (copyright 1998, Gaussian, Inc.),
 the Gaussian(R) 94 system (copyright 1995, Gaussian, Inc.),
 the Gaussian 92(TM) system (copyright 1992, Gaussian, Inc.),
 the Gaussian 90(TM) system (copyright 1990, Gaussian, Inc.),
 the Gaussian 88(TM) system (copyright 1988, Gaussian, Inc.),
 the Gaussian 86(TM) system (copyright 1986, Carnegie Mellon
 University), and the Gaussian 82(TM) system (copyright 1983,
 Carnegie Mellon University). Gaussian is a federally registered
 trademark of Gaussian, Inc.
  
 This software contains proprietary and confidential information,
 including trade secrets, belonging to Gaussian, Inc.
  
 This software is provided under written license and may be
 used, copied, transmitted, or stored only in accord with that
 written license.
  
 The following legend is applicable only to US Government
 contracts under FAR:
  
                    RESTRICTED RIGHTS LEGEND
  
 Use, reproduction and disclosure by the US Government is
 subject to restrictions as set forth in subparagraphs (a)
 and (c) of the Commercial Computer Software - Restricted
 Rights clause in FAR 52.227-19.
  
 Gaussian, Inc.
 340 Quinnipiac St., Bldg. 40, Wallingford CT 06492
  
  
 ---------------------------------------------------------------
 Warning -- This program may not be used in any manner that
 competes with the business of Gaussian, Inc. or will provide
 assistance to any competitor of Gaussian, Inc.  The licensee
 of this program is prohibited from giving any competitor of
 Gaussian, Inc. access to this program.  By using this program,
 the user acknowledges that Gaussian, Inc. is engaged in the
 business of creating and licensing software in the field of
 computational chemistry and represents and warrants to the
 licensee that it is not a competitor of Gaussian, Inc. and that
 it will not use this program in any manner prohibited above.
 ---------------------------------------------------------------
  

 Cite this work as:
 Gaussian 16, Revision B.01,
 M. J. Frisch, G. W. Trucks, H. B. Schlegel, G. E. Scuseria, 
 M. A. Robb, J. R. Cheeseman, G. Scalmani, V. Barone, 
 G. A. Petersson, H. Nakatsuji, X. Li, M. Caricato, A. V. Marenich, 
 J. Bloino, B. G. Janesko, R. Gomperts, B. Mennucci, H. P. Hratchian, 
 J. V. Ortiz, A. F. Izmaylov, J. L. Sonnenberg, D. Williams-Young, 
 F. Ding, F. Lipparini, F. Egidi, J. Goings, B. Peng, A. Petrone, 
 T. Henderson, D. Ranasinghe, V. G. Zakrzewski, J. Gao, N. Rega, 
 G. Zheng, W. Liang, M. Hada, M. Ehara, K. Toyota, R. Fukuda, 
 J. Hasegawa, M. Ishida, T. Nakajima, Y. Honda, O. Kitao, H. Nakai, 
 T. Vreven, K. Throssell, J. A. Montgomery, Jr., J. E. Peralta, 
 F. Ogliaro, M. J. Bearpark, J. J. Heyd, E. N. Brothers, K. N. Kudin, 
 V. N. Staroverov, T. A. Keith, R. Kobayashi, J. Normand, 
 K. Raghavachari, A. P. Rendell, J. C. Burant, S. S. Iyengar, 
 J. Tomasi, M. Cossi, J. M. Millam, M. Klene, C. Adamo, R. Cammi, 
 J. W. Ochterski, R. L. Martin, K. Morokuma, O. Farkas, 
 J. B. Foresman, and D. J. Fox, Gaussian, Inc., Wallingford CT, 2016.
 
 ******************************************
 Gaussian 16:  ES64L-G16RevB.01 20-Dec-2017
                13-Nov-2023 
 ******************************************
 %mem=14GB
 %chk=checkpoint.chk
 %nprocshared=16
 Will use up to   16 processors via shared memory.
 -------------------------
 #P B3LYP/6-311+g(d) force
 -------------------------
 1/10=7,30=1,38=1/1,3;
 2/12=2,17=6,18=5,40=1/2;
 3/5=4,6=6,7=11,11=2,25=1,30=1,71=1,74=-5/1,2,3;
 4//1;
 5/5=2,38=5/2;
 6/7=2,8=2,9=2,10=2,28=1/1;
 7/29=1/1,2,3,16;
 1/10=7,30=1/3;
 99//99;
 Leave Link    1 at Mon Nov 13 20:00:49 2023, MaxMem=  1879048192 cpu:               0.3 elap:               0.0
 (Enter /home/sekinelabo/g16/l101.exe)
 ------------------------------
 Gaussian input prepared by ASE
 ------------------------------
 Symbolic Z-matrix:
 Charge =  0 Multiplicity = 2
 Na                    5.2016    2.17923   2.73266 
 Na                    5.19892   2.17273   0. 
 Na                    4.36774   0.        1.37234 
 Na                    3.67905   3.92701   1.36359 
 Na                    2.49652   1.88859   2.71977 
 Na                    2.49738   1.88194   0.01739 
 Na                    0.        1.83445   1.36749 
 
 ITRead=  0  0  0  0  0  0  0
 MicOpt= -1 -1 -1 -1 -1 -1 -1
 NAtoms=      7 NQM=        7 NQMF=       0 NMMI=      0 NMMIF=      0
                NMic=       0 NMicF=      0.
                    Isotopes and Nuclear Properties:
 (Nuclear quadrupole moments (NQMom) in fm**2, nuclear magnetic moments (NMagM)
  in nuclear magnetons)

  Atom         1           2           3           4           5           6           7
 IAtWgt=          23          23          23          23          23          23          23
 AtmWgt=  22.9897697  22.9897697  22.9897697  22.9897697  22.9897697  22.9897697  22.9897697
 NucSpn=           3           3           3           3           3           3           3
 AtZEff=  -0.0000000  -0.0000000  -0.0000000  -0.0000000  -0.0000000  -0.0000000  -0.0000000
 NQMom=   10.4000000  10.4000000  10.4000000  10.4000000  10.4000000  10.4000000  10.4000000
 NMagM=    2.2175200   2.2175200   2.2175200   2.2175200   2.2175200   2.2175200   2.2175200
 AtZNuc=  11.0000000  11.0000000  11.0000000  11.0000000  11.0000000  11.0000000  11.0000000
 Leave Link  101 at Mon Nov 13 20:00:49 2023, MaxMem=  1879048192 cpu:               2.6 elap:               0.2
 (Enter /home/sekinelabo/g16/l103.exe)

 GradGradGradGradGradGradGradGradGradGradGradGradGradGradGradGradGradGrad
 Berny optimization.
 Initialization pass.
 Trust Radius=3.00D-01 FncErr=1.00D-07 GrdErr=1.00D-07 EigMax=2.50D+02 EigMin=1.00D-04
 Number of steps in this run=      2 maximum allowed number of steps=      2.
 GradGradGradGradGradGradGradGradGradGradGradGradGradGradGradGradGradGrad

 Leave Link  103 at Mon Nov 13 20:00:49 2023, MaxMem=  1879048192 cpu:               0.2 elap:               0.0
 (Enter /home/sekinelabo/g16/l202.exe)
                          Input orientation:                          
 ---------------------------------------------------------------------
 Center     Atomic      Atomic             Coordinates (Angstroms)
 Number     Number       Type             X           Y           Z
 ---------------------------------------------------------------------
      1         11           0        5.201604    2.179226    2.732664
      2         11           0        5.198925    2.172729    0.000000
      3         11           0        4.367739    0.000000    1.372338
      4         11           0        3.679050    3.927007    1.363587
      5         11           0        2.496515    1.888592    2.719771
      6         11           0        2.497379    1.881943    0.017390
      7         11           0        0.000000    1.834454    1.367490
 ---------------------------------------------------------------------
                    Distance matrix (angstroms):
                    1          2          3          4          5
     1  Na   0.000000
     2  Na   2.732673   0.000000
     3  Na   2.700897   2.700914   0.000000
     4  Na   2.692077   2.692003   3.986948   0.000000
     5  Na   2.720687   3.844594   2.980576   2.718962   0.000000
     6  Na   3.843686   2.717206   2.979235   2.718617   2.702389
     7  Na   5.388808   5.386397   4.737340   4.232517   2.839751
                    6          7
     6  Na   0.000000
     7  Na   2.839353   0.000000
 Stoichiometry    Na7(2)
 Framework group  C1[X(Na7)]
 Deg. of freedom    15
 Full point group                 C1      NOp   1
 Largest Abelian subgroup         C1      NOp   1
 Largest concise Abelian subgroup C1      NOp   1
                         Standard orientation:                         
 ---------------------------------------------------------------------
 Center     Atomic      Atomic             Coordinates (Angstroms)
 Number     Number       Type             X           Y           Z
 ---------------------------------------------------------------------
      1         11           0        1.852859   -0.195805   -1.365058
      2         11           0        1.850180   -0.189308    1.367606
      3         11           0        1.018995    1.983422   -0.004733
      4         11           0        0.330305   -1.943585    0.004018
      5         11           0       -0.852229    0.094829   -1.352165
      6         11           0       -0.851366    0.101479    1.350215
      7         11           0       -3.348745    0.148968    0.000116
 ---------------------------------------------------------------------
 Rotational constants (GHZ):           1.4450620           0.7835849           0.7714323
 Leave Link  202 at Mon Nov 13 20:00:49 2023, MaxMem=  1879048192 cpu:               0.0 elap:               0.0
 (Enter /home/sekinelabo/g16/l301.exe)
 Standard basis: 6-311+G(d) (5D, 7F)
 Ernie: Thresh=  0.10000D-02 Tol=  0.10000D-05 Strict=F.
 There are   217 symmetry adapted cartesian basis functions of A   symmetry.
 There are   210 symmetry adapted basis functions of A   symmetry.
   210 basis functions,   350 primitive gaussians,   217 cartesian basis functions
    39 alpha electrons       38 beta electrons
       nuclear repulsion energy       426.1723325502 Hartrees.
 IExCor=  402 DFT=T Ex+Corr=B3LYP ExCW=0 ScaHFX=  0.200000
 ScaDFX=  0.800000  0.720000  1.000000  0.810000 ScalE2=  1.000000  1.000000
 IRadAn=      5 IRanWt=     -1 IRanGd=            0 ICorTp=0 IEmpDi=  4
 NAtoms=    7 NActive=    7 NUniq=    7 SFac= 1.00D+00 NAtFMM=   60 NAOKFM=F Big=F
 Integral buffers will be    131072 words long.
 Raffenetti 2 integral format.
 Two-electron integral symmetry is turned on.
 Leave Link  301 at Mon Nov 13 20:00:49 2023, MaxMem=  1879048192 cpu:               0.5 elap:               0.0
 (Enter /home/sekinelabo/g16/l302.exe)
 NPDir=0 NMtPBC=     1 NCelOv=     1 NCel=       1 NClECP=     1 NCelD=      1
         NCelK=      1 NCelE2=     1 NClLst=     1 CellRange=     0.0.
 One-electron integrals computed using PRISM.
 One-electron integral symmetry used in STVInt
 NBasis=   210 RedAO= T EigKep=  1.06D-06  NBF=   210
 NBsUse=   209 1.00D-06 EigRej=  6.28D-07 NBFU=   209
 Precomputing XC quadrature grid using
 IXCGrd= 4 IRadAn=           5 IRanWt=          -1 IRanGd=           0 AccXCQ= 0.00D+00.
 Generated NRdTot=       0 NPtTot=           0 NUsed=           0 NTot=          32
 NSgBfM=   211   210   210   210   211 MxSgAt=     7 MxSgA2=     7.
 Leave Link  302 at Mon Nov 13 20:00:49 2023, MaxMem=  1879048192 cpu:               2.2 elap:               0.1
 (Enter /home/sekinelabo/g16/l303.exe)
 DipDrv:  MaxL=1.
 Leave Link  303 at Mon Nov 13 20:00:49 2023, MaxMem=  1879048192 cpu:               0.6 elap:               0.0
 (Enter /home/sekinelabo/g16/l401.exe)
 ExpMin= 7.60D-03 ExpMax= 3.62D+04 ExpMxC= 1.21D+03 IAcc=3 IRadAn=         5 AccDes= 0.00D+00
 Harris functional with IExCor=  402 and IRadAn=       5 diagonalized for initial guess.
 HarFok:  IExCor=  402 AccDes= 0.00D+00 IRadAn=         5 IDoV= 1 UseB2=F ITyADJ=14
 ICtDFT=  3500011 ScaDFX=  1.000000  1.000000  1.000000  1.000000
 FoFCou: FMM=F IPFlag=           0 FMFlag=      100000 FMFlg1=           0
         NFxFlg=           0 DoJE=T BraDBF=F KetDBF=T FulRan=T
         wScrn=  0.000000 ICntrl=       500 IOpCl=  0 I1Cent=   200000004 NGrid=           0
         NMat0=    1 NMatS0=      1 NMatT0=    0 NMatD0=    1 NMtDS0=    0 NMtDT0=    0
 Petite list used in FoFCou.
 Harris En= -1135.81123435737    
 JPrj=0 DoOrth=F DoCkMO=F.
 Initial guess <Sx>= 0.0000 <Sy>= 0.0000 <Sz>= 0.5000 <S**2>= 0.7500 S= 0.5000
 Leave Link  401 at Mon Nov 13 20:00:50 2023, MaxMem=  1879048192 cpu:               4.8 elap:               0.3
 (Enter /home/sekinelabo/g16/l502.exe)
 Keep R1 and R2 ints in memory in canonical form, NReq=507620374.
 FoFCou: FMM=F IPFlag=           0 FMFlag=           0 FMFlg1=           0
         NFxFlg=           0 DoJE=F BraDBF=F KetDBF=F FulRan=T
         wScrn=  0.000000 ICntrl=       600 IOpCl=  0 I1Cent=           0 NGrid=           0
         NMat0=    1 NMatS0=  22155 NMatT0=    0 NMatD0=    1 NMtDS0=    0 NMtDT0=    0
 Symmetry not used in FoFCou.
 Two-electron integral symmetry not used.
 UHF open shell SCF:
 Using DIIS extrapolation, IDIIS=  1040.
 NGot=  1879048192 LenX=  1388082362 LenY=  1388034832
 Requested convergence on RMS density matrix=1.00D-08 within 128 cycles.
 Requested convergence on MAX density matrix=1.00D-06.
 Requested convergence on             energy=1.00D-06.
 No special actions if energy rises.

 Cycle   1  Pass 1  IDiag  1:
 E= -1135.98664241095    
 DIIS: error= 1.65D-02 at cycle   1 NSaved=   1.
 NSaved= 1 IEnMin= 1 EnMin= -1135.98664241095     IErMin= 1 ErrMin= 1.65D-02
 ErrMax= 1.65D-02  0.00D+00 EMaxC= 1.00D-01 BMatC= 2.21D-01 BMatP= 2.21D-01
 IDIUse=3 WtCom= 8.35D-01 WtEn= 1.65D-01
 Coeff-Com:  0.100D+01
 Coeff-En:   0.100D+01
 Coeff:      0.100D+01
 Gap=     0.058 Goal=   None    Shift=    0.000
 Gap=     0.027 Goal=   None    Shift=    0.000
 GapD=    0.027 DampG=0.250 DampE=0.500 DampFc=0.2500 IDamp=-1.
 Damping current iteration by 2.50D-01
 RMSDP=1.08D-01 MaxDP=1.10D+01              OVMax= 2.72D-01

 Cycle   2  Pass 1  IDiag  1:
 E= -1136.00408452038     Delta-E=       -0.017442109435 Rises=F Damp=T
 DIIS: error= 9.10D-03 at cycle   2 NSaved=   2.
 NSaved= 2 IEnMin= 2 EnMin= -1136.00408452038     IErMin= 2 ErrMin= 9.10D-03
 ErrMax= 9.10D-03  0.00D+00 EMaxC= 1.00D-01 BMatC= 8.26D-02 BMatP= 2.21D-01
 IDIUse=3 WtCom= 9.09D-01 WtEn= 9.10D-02
 Coeff-Com: -0.125D+01 0.225D+01
 Coeff-En:   0.000D+00 0.100D+01
 Coeff:     -0.113D+01 0.213D+01
 Gap=     0.060 Goal=   None    Shift=    0.000
 Gap=     0.030 Goal=   None    Shift=    0.000
 RMSDP=4.27D-02 MaxDP=4.06D+00 DE=-1.74D-02 OVMax= 1.88D-01

 Cycle   3  Pass 1  IDiag  1:
 E= -1136.03276260276     Delta-E=       -0.028678082381 Rises=F Damp=F
 DIIS: error= 4.57D-03 at cycle   3 NSaved=   3.
 NSaved= 3 IEnMin= 3 EnMin= -1136.03276260276     IErMin= 3 ErrMin= 4.57D-03
 ErrMax= 4.57D-03  0.00D+00 EMaxC= 1.00D-01 BMatC= 6.09D-03 BMatP= 8.26D-02
 IDIUse=3 WtCom= 9.54D-01 WtEn= 4.57D-02
 Coeff-Com: -0.325D+00 0.594D+00 0.731D+00
 Coeff-En:   0.000D+00 0.000D+00 0.100D+01
 Coeff:     -0.310D+00 0.567D+00 0.743D+00
 Gap=     0.054 Goal=   None    Shift=    0.000
 Gap=     0.030 Goal=   None    Shift=    0.000
 RMSDP=2.24D-02 MaxDP=2.27D+00 DE=-2.87D-02 OVMax= 6.72D-02

 Cycle   4  Pass 1  IDiag  1:
 E= -1136.03419289967     Delta-E=       -0.001430296903 Rises=F Damp=F
 DIIS: error= 3.42D-03 at cycle   4 NSaved=   4.
 NSaved= 4 IEnMin= 4 EnMin= -1136.03419289967     IErMin= 4 ErrMin= 3.42D-03
 ErrMax= 3.42D-03  0.00D+00 EMaxC= 1.00D-01 BMatC= 3.17D-03 BMatP= 6.09D-03
 IDIUse=3 WtCom= 9.66D-01 WtEn= 3.42D-02
 Coeff-Com:  0.327D-02-0.365D-02 0.419D+00 0.582D+00
 Coeff-En:   0.000D+00 0.000D+00 0.362D+00 0.638D+00
 Coeff:      0.316D-02-0.353D-02 0.417D+00 0.584D+00
 Gap=     0.056 Goal=   None    Shift=    0.000
 Gap=     0.031 Goal=   None    Shift=    0.000
 RMSDP=6.75D-03 MaxDP=7.19D-01 DE=-1.43D-03 OVMax= 3.20D-02

 Cycle   5  Pass 1  IDiag  1:
 E= -1136.03578701440     Delta-E=       -0.001594114739 Rises=F Damp=F
 DIIS: error= 3.65D-04 at cycle   5 NSaved=   5.
 NSaved= 5 IEnMin= 5 EnMin= -1136.03578701440     IErMin= 5 ErrMin= 3.65D-04
 ErrMax= 3.65D-04  0.00D+00 EMaxC= 1.00D-01 BMatC= 2.61D-05 BMatP= 3.17D-03
 IDIUse=3 WtCom= 9.96D-01 WtEn= 3.65D-03
 Coeff-Com:  0.171D-02-0.256D-02 0.200D+00 0.280D+00 0.521D+00
 Coeff-En:   0.000D+00 0.000D+00 0.000D+00 0.000D+00 0.100D+01
 Coeff:      0.170D-02-0.255D-02 0.199D+00 0.279D+00 0.522D+00
 Gap=     0.056 Goal=   None    Shift=    0.000
 Gap=     0.031 Goal=   None    Shift=    0.000
 RMSDP=5.44D-04 MaxDP=3.60D-02 DE=-1.59D-03 OVMax= 7.76D-03

 Cycle   6  Pass 1  IDiag  1:
 E= -1136.03580412977     Delta-E=       -0.000017115363 Rises=F Damp=F
 DIIS: error= 2.16D-04 at cycle   6 NSaved=   6.
 NSaved= 6 IEnMin= 6 EnMin= -1136.03580412977     IErMin= 6 ErrMin= 2.16D-04
 ErrMax= 2.16D-04  0.00D+00 EMaxC= 1.00D-01 BMatC= 1.00D-05 BMatP= 2.61D-05
 IDIUse=3 WtCom= 9.98D-01 WtEn= 2.16D-03
 Coeff-Com: -0.140D-02 0.140D-02-0.281D-01-0.416D-01 0.378D+00 0.691D+00
 Coeff-En:   0.000D+00 0.000D+00 0.000D+00 0.000D+00 0.301D+00 0.699D+00
 Coeff:     -0.140D-02 0.140D-02-0.281D-01-0.415D-01 0.378D+00 0.691D+00
 Gap=     0.056 Goal=   None    Shift=    0.000
 Gap=     0.031 Goal=   None    Shift=    0.000
 RMSDP=5.79D-04 MaxDP=3.02D-02 DE=-1.71D-05 OVMax= 3.88D-03

 Cycle   7  Pass 1  IDiag  1:
 E= -1136.03581503739     Delta-E=       -0.000010907623 Rises=F Damp=F
 DIIS: error= 6.14D-05 at cycle   7 NSaved=   7.
 NSaved= 7 IEnMin= 7 EnMin= -1136.03581503739     IErMin= 7 ErrMin= 6.14D-05
 ErrMax= 6.14D-05  0.00D+00 EMaxC= 1.00D-01 BMatC= 8.45D-07 BMatP= 1.00D-05
 IDIUse=1 WtCom= 1.00D+00 WtEn= 0.00D+00
 Coeff-Com: -0.767D-03 0.789D-03-0.294D-01-0.415D-01 0.145D+00 0.352D+00
 Coeff-Com:  0.574D+00
 Coeff:     -0.767D-03 0.789D-03-0.294D-01-0.415D-01 0.145D+00 0.352D+00
 Coeff:      0.574D+00
 Gap=     0.056 Goal=   None    Shift=    0.000
 Gap=     0.031 Goal=   None    Shift=    0.000
 RMSDP=1.28D-04 MaxDP=1.05D-02 DE=-1.09D-05 OVMax= 1.32D-03

 Cycle   8  Pass 1  IDiag  1:
 E= -1136.03581592740     Delta-E=       -0.000000890007 Rises=F Damp=F
 DIIS: error= 2.72D-05 at cycle   8 NSaved=   8.
 NSaved= 8 IEnMin= 8 EnMin= -1136.03581592740     IErMin= 8 ErrMin= 2.72D-05
 ErrMax= 2.72D-05  0.00D+00 EMaxC= 1.00D-01 BMatC= 1.78D-07 BMatP= 8.45D-07
 IDIUse=1 WtCom= 1.00D+00 WtEn= 0.00D+00
 Coeff-Com:  0.206D-03-0.243D-03-0.638D-02-0.699D-02-0.728D-01-0.750D-01
 Coeff-Com:  0.294D+00 0.867D+00
 Coeff:      0.206D-03-0.243D-03-0.638D-02-0.699D-02-0.728D-01-0.750D-01
 Coeff:      0.294D+00 0.867D+00
 Gap=     0.056 Goal=   None    Shift=    0.000
 Gap=     0.031 Goal=   None    Shift=    0.000
 RMSDP=7.57D-05 MaxDP=4.25D-03 DE=-8.90D-07 OVMax= 8.18D-04

 Cycle   9  Pass 1  IDiag  1:
 E= -1136.03581626940     Delta-E=       -0.000000342002 Rises=F Damp=F
 DIIS: error= 7.18D-06 at cycle   9 NSaved=   9.
 NSaved= 9 IEnMin= 9 EnMin= -1136.03581626940     IErMin= 9 ErrMin= 7.18D-06
 ErrMax= 7.18D-06  0.00D+00 EMaxC= 1.00D-01 BMatC= 1.37D-08 BMatP= 1.78D-07
 IDIUse=1 WtCom= 1.00D+00 WtEn= 0.00D+00
 Coeff-Com:  0.236D-03-0.295D-03 0.998D-03 0.214D-02-0.296D-01-0.517D-01
 Coeff-Com:  0.118D-01 0.205D+00 0.861D+00
 Coeff:      0.236D-03-0.295D-03 0.998D-03 0.214D-02-0.296D-01-0.517D-01
 Coeff:      0.118D-01 0.205D+00 0.861D+00
 Gap=     0.056 Goal=   None    Shift=    0.000
 Gap=     0.031 Goal=   None    Shift=    0.000
 RMSDP=2.93D-05 MaxDP=1.51D-03 DE=-3.42D-07 OVMax= 3.92D-04

 Cycle  10  Pass 1  IDiag  1:
 E= -1136.03581631938     Delta-E=       -0.000000049980 Rises=F Damp=F
 DIIS: error= 4.13D-06 at cycle  10 NSaved=  10.
 NSaved=10 IEnMin=10 EnMin= -1136.03581631938     IErMin=10 ErrMin= 4.13D-06
 ErrMax= 4.13D-06  0.00D+00 EMaxC= 1.00D-01 BMatC= 4.13D-09 BMatP= 1.37D-08
 IDIUse=1 WtCom= 1.00D+00 WtEn= 0.00D+00
 Coeff-Com:  0.197D-04-0.189D-04 0.162D-02 0.195D-02 0.297D-02-0.671D-02
 Coeff-Com: -0.460D-01-0.976D-01 0.233D+00 0.911D+00
 Coeff:      0.197D-04-0.189D-04 0.162D-02 0.195D-02 0.297D-02-0.671D-02
 Coeff:     -0.460D-01-0.976D-01 0.233D+00 0.911D+00
 Gap=     0.056 Goal=   None    Shift=    0.000
 Gap=     0.031 Goal=   None    Shift=    0.000
 RMSDP=2.98D-05 MaxDP=2.91D-03 DE=-5.00D-08 OVMax= 2.81D-04

 Cycle  11  Pass 1  IDiag  1:
 E= -1136.03581634074     Delta-E=       -0.000000021359 Rises=F Damp=F
 DIIS: error= 2.05D-06 at cycle  11 NSaved=  11.
 NSaved=11 IEnMin=11 EnMin= -1136.03581634074     IErMin=11 ErrMin= 2.05D-06
 ErrMax= 2.05D-06  0.00D+00 EMaxC= 1.00D-01 BMatC= 9.72D-10 BMatP= 4.13D-09
 IDIUse=1 WtCom= 1.00D+00 WtEn= 0.00D+00
 Coeff-Com: -0.937D-04 0.117D-03-0.204D-03-0.528D-03 0.942D-02 0.155D-01
 Coeff-Com: -0.102D-01-0.719D-01-0.238D+00-0.561D-01 0.135D+01
 Coeff:     -0.937D-04 0.117D-03-0.204D-03-0.528D-03 0.942D-02 0.155D-01
 Coeff:     -0.102D-01-0.719D-01-0.238D+00-0.561D-01 0.135D+01
 Gap=     0.056 Goal=   None    Shift=    0.000
 Gap=     0.031 Goal=   None    Shift=    0.000
 RMSDP=3.04D-05 MaxDP=2.33D-03 DE=-2.14D-08 OVMax= 2.42D-04

 Cycle  12  Pass 1  IDiag  1:
 E= -1136.03581635086     Delta-E=       -0.000000010124 Rises=F Damp=F
 DIIS: error= 7.74D-07 at cycle  12 NSaved=  12.
 NSaved=12 IEnMin=12 EnMin= -1136.03581635086     IErMin=12 ErrMin= 7.74D-07
 ErrMax= 7.74D-07  0.00D+00 EMaxC= 1.00D-01 BMatC= 2.56D-10 BMatP= 9.72D-10
 IDIUse=1 WtCom= 1.00D+00 WtEn= 0.00D+00
 Coeff-Com: -0.138D-04 0.151D-04-0.249D-03-0.365D-03 0.148D-02 0.441D-02
 Coeff-Com:  0.456D-02-0.292D-04-0.969D-01-0.151D+00 0.336D+00 0.902D+00
 Coeff:     -0.138D-04 0.151D-04-0.249D-03-0.365D-03 0.148D-02 0.441D-02
 Coeff:      0.456D-02-0.292D-04-0.969D-01-0.151D+00 0.336D+00 0.902D+00
 Gap=     0.056 Goal=   None    Shift=    0.000
 Gap=     0.031 Goal=   None    Shift=    0.000
 RMSDP=1.04D-05 MaxDP=6.39D-04 DE=-1.01D-08 OVMax= 8.33D-05

 Cycle  13  Pass 1  IDiag  1:
 E= -1136.03581635219     Delta-E=       -0.000000001325 Rises=F Damp=F
 DIIS: error= 7.61D-07 at cycle  13 NSaved=  13.
 NSaved=13 IEnMin=13 EnMin= -1136.03581635219     IErMin=13 ErrMin= 7.61D-07
 ErrMax= 7.61D-07  0.00D+00 EMaxC= 1.00D-01 BMatC= 2.45D-10 BMatP= 2.56D-10
 IDIUse=1 WtCom= 1.00D+00 WtEn= 0.00D+00
 Coeff-Com:  0.327D-04-0.430D-04-0.109D-03-0.540D-04-0.304D-02-0.332D-02
 Coeff-Com:  0.827D-02 0.323D-01 0.256D-01-0.914D-01-0.324D+00 0.717D+00
 Coeff-Com:  0.639D+00
 Coeff:      0.327D-04-0.430D-04-0.109D-03-0.540D-04-0.304D-02-0.332D-02
 Coeff:      0.827D-02 0.323D-01 0.256D-01-0.914D-01-0.324D+00 0.717D+00
 Coeff:      0.639D+00
 Gap=     0.056 Goal=   None    Shift=    0.000
 Gap=     0.031 Goal=   None    Shift=    0.000
 RMSDP=6.41D-06 MaxDP=4.53D-04 DE=-1.33D-09 OVMax= 6.00D-05

 Cycle  14  Pass 1  IDiag  1:
 E= -1136.03581635284     Delta-E=       -0.000000000653 Rises=F Damp=F
 DIIS: error= 2.95D-07 at cycle  14 NSaved=  14.
 NSaved=14 IEnMin=14 EnMin= -1136.03581635284     IErMin=14 ErrMin= 2.95D-07
 ErrMax= 2.95D-07  0.00D+00 EMaxC= 1.00D-01 BMatC= 2.00D-11 BMatP= 2.45D-10
 IDIUse=1 WtCom= 1.00D+00 WtEn= 0.00D+00
 Coeff-Com:  0.895D-06-0.498D-06 0.307D-04 0.660D-04-0.386D-03-0.959D-03
 Coeff-Com: -0.105D-02 0.350D-03 0.258D-01 0.417D-01-0.963D-01-0.213D+00
 Coeff-Com:  0.348D-02 0.124D+01
 Coeff:      0.895D-06-0.498D-06 0.307D-04 0.660D-04-0.386D-03-0.959D-03
 Coeff:     -0.105D-02 0.350D-03 0.258D-01 0.417D-01-0.963D-01-0.213D+00
 Coeff:      0.348D-02 0.124D+01
 Gap=     0.056 Goal=   None    Shift=    0.000
 Gap=     0.031 Goal=   None    Shift=    0.000
 RMSDP=2.64D-06 MaxDP=1.51D-04 DE=-6.53D-10 OVMax= 4.69D-05

 Cycle  15  Pass 1  IDiag  1:
 E= -1136.03581635304     Delta-E=       -0.000000000199 Rises=F Damp=F
 DIIS: error= 1.49D-07 at cycle  15 NSaved=  15.
 NSaved=15 IEnMin=15 EnMin= -1136.03581635304     IErMin=15 ErrMin= 1.49D-07
 ErrMax= 1.49D-07  0.00D+00 EMaxC= 1.00D-01 BMatC= 6.66D-12 BMatP= 2.00D-11
 IDIUse=1 WtCom= 1.00D+00 WtEn= 0.00D+00
 Coeff-Com: -0.639D-05 0.837D-05 0.153D-04-0.107D-04 0.621D-03 0.870D-03
 Coeff-Com: -0.130D-02-0.594D-02-0.122D-01 0.522D-02 0.888D-01-0.712D-01
 Coeff-Com: -0.129D+00-0.347D+00 0.147D+01
 Coeff:     -0.639D-05 0.837D-05 0.153D-04-0.107D-04 0.621D-03 0.870D-03
 Coeff:     -0.130D-02-0.594D-02-0.122D-01 0.522D-02 0.888D-01-0.712D-01
 Coeff:     -0.129D+00-0.347D+00 0.147D+01
 Gap=     0.056 Goal=   None    Shift=    0.000
 Gap=     0.031 Goal=   None    Shift=    0.000
 RMSDP=1.47D-06 MaxDP=8.70D-05 DE=-1.99D-10 OVMax= 3.86D-05

 Cycle  16  Pass 1  IDiag  1:
 E= -1136.03581635314     Delta-E=       -0.000000000098 Rises=F Damp=F
 DIIS: error= 1.37D-07 at cycle  16 NSaved=  16.
 NSaved=16 IEnMin=16 EnMin= -1136.03581635314     IErMin=16 ErrMin= 1.37D-07
 ErrMax= 1.37D-07  0.00D+00 EMaxC= 1.00D-01 BMatC= 3.53D-12 BMatP= 6.66D-12
 IDIUse=1 WtCom= 1.00D+00 WtEn= 0.00D+00
 Coeff-Com: -0.139D-05 0.147D-05-0.301D-05-0.228D-04 0.377D-03 0.547D-03
 Coeff-Com:  0.164D-03-0.185D-02-0.134D-01-0.172D-01 0.603D-01 0.776D-01
 Coeff-Com: -0.348D-01-0.597D+00 0.339D+00 0.119D+01
 Coeff:     -0.139D-05 0.147D-05-0.301D-05-0.228D-04 0.377D-03 0.547D-03
 Coeff:      0.164D-03-0.185D-02-0.134D-01-0.172D-01 0.603D-01 0.776D-01
 Coeff:     -0.348D-01-0.597D+00 0.339D+00 0.119D+01
 Gap=     0.056 Goal=   None    Shift=    0.000
 Gap=     0.031 Goal=   None    Shift=    0.000
 RMSDP=1.21D-06 MaxDP=9.64D-05 DE=-9.78D-11 OVMax= 3.63D-05

 Cycle  17  Pass 1  IDiag  1:
 E= -1136.03581635319     Delta-E=       -0.000000000048 Rises=F Damp=F
 DIIS: error= 1.26D-07 at cycle  17 NSaved=  17.
 NSaved=17 IEnMin=17 EnMin= -1136.03581635319     IErMin=17 ErrMin= 1.26D-07
 ErrMax= 1.26D-07  0.00D+00 EMaxC= 1.00D-01 BMatC= 1.82D-12 BMatP= 3.53D-12
 IDIUse=1 WtCom= 1.00D+00 WtEn= 0.00D+00
 Coeff-Com:  0.133D-05-0.178D-05-0.659D-05 0.139D-05-0.152D-03-0.155D-03
 Coeff-Com:  0.290D-03 0.159D-02 0.248D-02-0.264D-02-0.206D-01 0.223D-01
 Coeff-Com:  0.279D-01 0.865D-01-0.412D+00 0.563D-01 0.124D+01
 Coeff:      0.133D-05-0.178D-05-0.659D-05 0.139D-05-0.152D-03-0.155D-03
 Coeff:      0.290D-03 0.159D-02 0.248D-02-0.264D-02-0.206D-01 0.223D-01
 Coeff:      0.279D-01 0.865D-01-0.412D+00 0.563D-01 0.124D+01
 Gap=     0.056 Goal=   None    Shift=    0.000
 Gap=     0.031 Goal=   None    Shift=    0.000
 RMSDP=8.48D-07 MaxDP=8.34D-05 DE=-4.75D-11 OVMax= 2.90D-05

 Cycle  18  Pass 1  IDiag  1:
 E= -1136.03581635322     Delta-E=       -0.000000000034 Rises=F Damp=F
 DIIS: error= 1.17D-07 at cycle  18 NSaved=  18.
 NSaved=18 IEnMin=18 EnMin= -1136.03581635322     IErMin=18 ErrMin= 1.17D-07
 ErrMax= 1.17D-07  0.00D+00 EMaxC= 1.00D-01 BMatC= 1.41D-12 BMatP= 1.82D-12
 IDIUse=1 WtCom= 1.00D+00 WtEn= 0.00D+00
 Coeff-Com: -0.792D-06 0.122D-05 0.577D-05 0.574D-05-0.298D-06-0.937D-04
 Coeff-Com: -0.319D-03-0.771D-03 0.249D-02 0.102D-01-0.530D-02-0.440D-01
 Coeff-Com: -0.212D-01 0.136D+00 0.289D+00-0.523D+00-0.116D+01 0.232D+01
 Coeff:     -0.792D-06 0.122D-05 0.577D-05 0.574D-05-0.298D-06-0.937D-04
 Coeff:     -0.319D-03-0.771D-03 0.249D-02 0.102D-01-0.530D-02-0.440D-01
 Coeff:     -0.212D-01 0.136D+00 0.289D+00-0.523D+00-0.116D+01 0.232D+01
 Gap=     0.056 Goal=   None    Shift=    0.000
 Gap=     0.031 Goal=   None    Shift=    0.000
 RMSDP=1.27D-06 MaxDP=1.47D-04 DE=-3.39D-11 OVMax= 4.34D-05

 Cycle  19  Pass 1  IDiag  1:
 E= -1136.03581635328     Delta-E=       -0.000000000059 Rises=F Damp=F
 DIIS: error= 1.02D-07 at cycle  19 NSaved=  19.
 NSaved=19 IEnMin=19 EnMin= -1136.03581635328     IErMin=19 ErrMin= 1.02D-07
 ErrMax= 1.02D-07  0.00D+00 EMaxC= 1.00D-01 BMatC= 1.10D-12 BMatP= 1.41D-12
 IDIUse=1 WtCom= 1.00D+00 WtEn= 0.00D+00
 Coeff-Com: -0.194D-05 0.240D-05 0.925D-05-0.781D-05 0.303D-03 0.455D-03
 Coeff-Com: -0.211D-03-0.251D-02-0.666D-02-0.625D-02 0.471D-01-0.962D-03
 Coeff-Com: -0.477D-01-0.253D+00 0.456D+00 0.428D+00-0.132D+01-0.220D+01
 Coeff-Com:  0.390D+01
 Coeff:     -0.194D-05 0.240D-05 0.925D-05-0.781D-05 0.303D-03 0.455D-03
 Coeff:     -0.211D-03-0.251D-02-0.666D-02-0.625D-02 0.471D-01-0.962D-03
 Coeff:     -0.477D-01-0.253D+00 0.456D+00 0.428D+00-0.132D+01-0.220D+01
 Coeff:      0.390D+01
 Gap=     0.056 Goal=   None    Shift=    0.000
 Gap=     0.031 Goal=   None    Shift=    0.000
 RMSDP=3.77D-06 MaxDP=3.65D-04 DE=-5.91D-11 OVMax= 1.34D-04

 Cycle  20  Pass 1  IDiag  1:
 E= -1136.03581635337     Delta-E=       -0.000000000095 Rises=F Damp=F
 DIIS: error= 5.77D-08 at cycle  20 NSaved=  20.
 NSaved=20 IEnMin=20 EnMin= -1136.03581635337     IErMin=20 ErrMin= 5.77D-08
 ErrMax= 5.77D-08  0.00D+00 EMaxC= 1.00D-01 BMatC= 4.21D-13 BMatP= 1.10D-12
 IDIUse=1 WtCom= 1.00D+00 WtEn= 0.00D+00
 Coeff-Com:  0.147D-05-0.208D-05-0.276D-07-0.208D-06-0.208D-04 0.314D-04
 Coeff-Com:  0.250D-03 0.862D-03-0.209D-02-0.102D-01 0.662D-02 0.434D-01
 Coeff-Com:  0.136D-01-0.140D+00-0.222D+00 0.482D+00 0.940D+00-0.207D+01
 Coeff-Com:  0.165D+00 0.179D+01
 Coeff:      0.147D-05-0.208D-05-0.276D-07-0.208D-06-0.208D-04 0.314D-04
 Coeff:      0.250D-03 0.862D-03-0.209D-02-0.102D-01 0.662D-02 0.434D-01
 Coeff:      0.136D-01-0.140D+00-0.222D+00 0.482D+00 0.940D+00-0.207D+01
 Coeff:      0.165D+00 0.179D+01
 Gap=     0.056 Goal=   None    Shift=    0.000
 Gap=     0.031 Goal=   None    Shift=    0.000
 RMSDP=3.51D-06 MaxDP=3.53D-04 DE=-9.55D-11 OVMax= 1.23D-04

 Cycle  21  Pass 1  IDiag  1:
 E= -1136.03581635342     Delta-E=       -0.000000000046 Rises=F Damp=F
 DIIS: error= 2.37D-08 at cycle  21 NSaved=  20.
 NSaved=20 IEnMin=20 EnMin= -1136.03581635342     IErMin=20 ErrMin= 2.37D-08
 ErrMax= 2.37D-08  0.00D+00 EMaxC= 1.00D-01 BMatC= 7.77D-14 BMatP= 4.21D-13
 IDIUse=1 WtCom= 1.00D+00 WtEn= 0.00D+00
 Large coefficients: NSaved= 20 BigCof=    0.00 CofMax=   10.00 Det=-9.62D-15
 Inversion failed.  Reducing to 19 matrices.
 Large coefficients: NSaved= 19 BigCof=    0.00 CofMax=   10.00 Det=-9.73D-15
 Inversion failed.  Reducing to 18 matrices.
 Large coefficients: NSaved= 18 BigCof=    0.00 CofMax=   10.00 Det=-9.75D-15
 Inversion failed.  Reducing to 17 matrices.
 Coeff-Com:  0.259D-04 0.232D-04-0.836D-04-0.268D-03-0.252D-03 0.186D-02
 Coeff-Com: -0.364D-03-0.266D-02-0.140D-02 0.272D-02-0.497D-02-0.332D-01
 Coeff-Com:  0.125D+00 0.281D+00-0.557D+00-0.156D-01 0.121D+01
 Coeff:      0.259D-04 0.232D-04-0.836D-04-0.268D-03-0.252D-03 0.186D-02
 Coeff:     -0.364D-03-0.266D-02-0.140D-02 0.272D-02-0.497D-02-0.332D-01
 Coeff:      0.125D+00 0.281D+00-0.557D+00-0.156D-01 0.121D+01
 Gap=     0.056 Goal=   None    Shift=    0.000
 Gap=     0.031 Goal=   None    Shift=    0.000
 RMSDP=1.02D-06 MaxDP=1.01D-04 DE=-4.59D-11 OVMax= 3.48D-05

 Cycle  22  Pass 1  IDiag  1:
 E= -1136.03581635342     Delta-E=       -0.000000000002 Rises=F Damp=F
 DIIS: error= 1.56D-08 at cycle  22 NSaved=  18.
 NSaved=18 IEnMin=18 EnMin= -1136.03581635342     IErMin=18 ErrMin= 1.56D-08
 ErrMax= 1.56D-08  0.00D+00 EMaxC= 1.00D-01 BMatC= 2.65D-14 BMatP= 7.77D-14
 IDIUse=1 WtCom= 1.00D+00 WtEn= 0.00D+00
 Coeff-Com: -0.162D-04-0.315D-04-0.305D-04-0.497D-04 0.796D-03 0.291D-02
 Coeff-Com: -0.465D-02-0.938D-02-0.119D-02 0.407D-01 0.643D-01-0.159D+00
 Coeff-Com: -0.301D+00 0.835D+00-0.217D+00-0.669D+00 0.218D+00 0.120D+01
 Coeff:     -0.162D-04-0.315D-04-0.305D-04-0.497D-04 0.796D-03 0.291D-02
 Coeff:     -0.465D-02-0.938D-02-0.119D-02 0.407D-01 0.643D-01-0.159D+00
 Coeff:     -0.301D+00 0.835D+00-0.217D+00-0.669D+00 0.218D+00 0.120D+01
 Gap=     0.056 Goal=   None    Shift=    0.000
 Gap=     0.031 Goal=   None    Shift=    0.000
 RMSDP=3.88D-07 MaxDP=4.24D-05 DE=-2.27D-12 OVMax= 1.36D-05

 Cycle  23  Pass 1  IDiag  1:
 E= -1136.03581635342     Delta-E=       -0.000000000001 Rises=F Damp=F
 DIIS: error= 3.60D-09 at cycle  23 NSaved=  19.
 NSaved=19 IEnMin=19 EnMin= -1136.03581635342     IErMin=19 ErrMin= 3.60D-09
 ErrMax= 3.60D-09  0.00D+00 EMaxC= 1.00D-01 BMatC= 2.16D-15 BMatP= 2.65D-14
 IDIUse=1 WtCom= 1.00D+00 WtEn= 0.00D+00
 Large coefficients: NSaved= 19 BigCof=    0.00 CofMax=   10.00 Det=-4.82D-15
 Inversion failed.  Reducing to 18 matrices.
 Large coefficients: NSaved= 18 BigCof=    0.00 CofMax=   10.00 Det=-5.37D-15
 Inversion failed.  Reducing to 17 matrices.
 Large coefficients: NSaved= 17 BigCof=    0.00 CofMax=   10.00 Det=-5.60D-15
 Inversion failed.  Reducing to 16 matrices.
 Large coefficients: NSaved= 16 BigCof=    0.00 CofMax=   10.00 Det=-5.75D-15
 Inversion failed.  Reducing to 15 matrices.
 Coeff-Com:  0.888D-04-0.662D-04-0.113D-03-0.601D-03 0.123D-03 0.487D-02
 Coeff-Com: -0.285D-02-0.107D-02-0.261D-01 0.283D-01 0.266D-01-0.245D-01
 Coeff-Com: -0.164D+00 0.138D+00 0.102D+01
 Coeff:      0.888D-04-0.662D-04-0.113D-03-0.601D-03 0.123D-03 0.487D-02
 Coeff:     -0.285D-02-0.107D-02-0.261D-01 0.283D-01 0.266D-01-0.245D-01
 Coeff:     -0.164D+00 0.138D+00 0.102D+01
 Gap=     0.056 Goal=   None    Shift=    0.000
 Gap=     0.031 Goal=   None    Shift=    0.000
 RMSDP=6.17D-08 MaxDP=8.08D-06 DE=-9.09D-13 OVMax= 1.83D-06

 Cycle  24  Pass 1  IDiag  1:
 E= -1136.03581635341     Delta-E=        0.000000000013 Rises=F Damp=F
 DIIS: error= 1.40D-09 at cycle  24 NSaved=  16.
 NSaved=16 IEnMin=15 EnMin= -1136.03581635342     IErMin=16 ErrMin= 1.40D-09
 ErrMax= 1.40D-09  0.00D+00 EMaxC= 1.00D-01 BMatC= 4.90D-16 BMatP= 2.16D-15
 IDIUse=1 WtCom= 1.00D+00 WtEn= 0.00D+00
 Large coefficients: NSaved= 16 BigCof=    0.00 CofMax=   10.00 Det=-1.30D-15
 Inversion failed.  Reducing to 15 matrices.
 Coeff-Com: -0.249D-03 0.379D-03 0.518D-03-0.297D-04-0.256D-02-0.301D-02
 Coeff-Com:  0.113D-01 0.161D-01-0.799D-01 0.421D-01 0.631D-01-0.716D-01
 Coeff-Com: -0.101D+00 0.306D+00 0.819D+00
 Coeff:     -0.249D-03 0.379D-03 0.518D-03-0.297D-04-0.256D-02-0.301D-02
 Coeff:      0.113D-01 0.161D-01-0.799D-01 0.421D-01 0.631D-01-0.716D-01
 Coeff:     -0.101D+00 0.306D+00 0.819D+00
 Gap=     0.056 Goal=   None    Shift=    0.000
 Gap=     0.031 Goal=   None    Shift=    0.000
 RMSDP=1.63D-08 MaxDP=1.34D-06 DE= 1.27D-11 OVMax= 2.59D-07

 Cycle  25  Pass 1  IDiag  1:
 E= -1136.03581635342     Delta-E=       -0.000000000014 Rises=F Damp=F
 DIIS: error= 8.39D-10 at cycle  25 NSaved=  16.
 NSaved=16 IEnMin=16 EnMin= -1136.03581635342     IErMin=16 ErrMin= 8.39D-10
 ErrMax= 8.39D-10  0.00D+00 EMaxC= 1.00D-01 BMatC= 1.94D-16 BMatP= 4.90D-16
 IDIUse=1 WtCom= 1.00D+00 WtEn= 0.00D+00
 Large coefficients: NSaved= 16 BigCof=    0.00 CofMax=   10.00 Det=-6.49D-16
 Inversion failed.  Reducing to 15 matrices.
 Coeff-Com:  0.841D-04 0.585D-04-0.153D-03-0.149D-02 0.172D-02 0.205D-02
 Coeff-Com:  0.328D-02-0.240D-01 0.931D-02 0.244D-01 0.807D-02-0.792D-01
 Coeff-Com: -0.694D-01 0.415D+00 0.710D+00
 Coeff:      0.841D-04 0.585D-04-0.153D-03-0.149D-02 0.172D-02 0.205D-02
 Coeff:      0.328D-02-0.240D-01 0.931D-02 0.244D-01 0.807D-02-0.792D-01
 Coeff:     -0.694D-01 0.415D+00 0.710D+00
 Gap=     0.056 Goal=   None    Shift=    0.000
 Gap=     0.031 Goal=   None    Shift=    0.000
 RMSDP=1.06D-08 MaxDP=1.04D-06 DE=-1.36D-11 OVMax= 6.84D-08

 Cycle  26  Pass 1  IDiag  1:
 E= -1136.03581635342     Delta-E=        0.000000000008 Rises=F Damp=F
 DIIS: error= 2.35D-10 at cycle  26 NSaved=  16.
 NSaved=16 IEnMin=15 EnMin= -1136.03581635342     IErMin=16 ErrMin= 2.35D-10
 ErrMax= 2.35D-10  0.00D+00 EMaxC= 1.00D-01 BMatC= 1.70D-17 BMatP= 1.94D-16
 IDIUse=1 WtCom= 1.00D+00 WtEn= 0.00D+00
 Large coefficients: NSaved= 16 BigCof=    0.00 CofMax=   10.00 Det=-8.75D-17
 Inversion failed.  Reducing to 15 matrices.
 Coeff-Com:  0.416D-04 0.324D-04-0.754D-04-0.970D-03 0.781D-03 0.427D-02
 Coeff-Com: -0.312D-02-0.475D-02 0.506D-02 0.907D-02-0.109D-01-0.688D-01
 Coeff-Com:  0.209D-02 0.155D+00 0.912D+00
 Coeff:      0.416D-04 0.324D-04-0.754D-04-0.970D-03 0.781D-03 0.427D-02
 Coeff:     -0.312D-02-0.475D-02 0.506D-02 0.907D-02-0.109D-01-0.688D-01
 Coeff:      0.209D-02 0.155D+00 0.912D+00
 Gap=     0.056 Goal=   None    Shift=    0.000
 Gap=     0.031 Goal=   None    Shift=    0.000
 RMSDP=3.09D-08 MaxDP=3.67D-06 DE= 8.19D-12 OVMax= 2.02D-08

 Cycle  27  Pass 1  IDiag  1:
 E= -1136.03581635341     Delta-E=        0.000000000005 Rises=F Damp=F
 DIIS: error= 9.82D-11 at cycle  27 NSaved=  16.
 NSaved=16 IEnMin=14 EnMin= -1136.03581635342     IErMin=16 ErrMin= 9.82D-11
 ErrMax= 9.82D-11  0.00D+00 EMaxC= 1.00D-01 BMatC= 2.62D-18 BMatP= 1.70D-17
 IDIUse=1 WtCom= 1.00D+00 WtEn= 0.00D+00
 Large coefficients: NSaved= 16 BigCof=    0.00 CofMax=   10.00 Det=-5.70D-18
 Inversion failed.  Reducing to 15 matrices.
 Coeff-Com:  0.102D-04 0.991D-04-0.167D-03-0.344D-03 0.528D-03 0.245D-02
 Coeff-Com: -0.245D-02-0.174D-02 0.283D-02 0.339D-02-0.102D-01-0.336D-01
 Coeff-Com: -0.213D-01 0.657D-01 0.995D+00
 Coeff:      0.102D-04 0.991D-04-0.167D-03-0.344D-03 0.528D-03 0.245D-02
 Coeff:     -0.245D-02-0.174D-02 0.283D-02 0.339D-02-0.102D-01-0.336D-01
 Coeff:     -0.213D-01 0.657D-01 0.995D+00
 Gap=     0.056 Goal=   None    Shift=    0.000
 Gap=     0.031 Goal=   None    Shift=    0.000
 RMSDP=1.86D-08 MaxDP=1.69D-06 DE= 5.00D-12 OVMax= 6.50D-09

 Cycle  28  Pass 1  IDiag  1:
 E= -1136.03581635341     Delta-E=       -0.000000000002 Rises=F Damp=F
 DIIS: error= 5.27D-11 at cycle  28 NSaved=  16.
 NSaved=16 IEnMin=13 EnMin= -1136.03581635342     IErMin=16 ErrMin= 5.27D-11
 ErrMax= 5.27D-11  0.00D+00 EMaxC= 1.00D-01 BMatC= 8.53D-19 BMatP= 2.62D-18
 IDIUse=1 WtCom= 1.00D+00 WtEn= 0.00D+00
 Large coefficients: NSaved= 16 BigCof=    0.00 CofMax=   10.00 Det=-1.68D-18
 Inversion failed.  Reducing to 15 matrices.
 Coeff-Com: -0.183D-05 0.181D-03-0.165D-03-0.937D-03 0.142D-02 0.305D-03
 Coeff-Com: -0.164D-02-0.802D-03 0.391D-02 0.899D-02-0.162D-01-0.418D-01
 Coeff-Com: -0.127D+00 0.248D+00 0.926D+00
 Coeff:     -0.183D-05 0.181D-03-0.165D-03-0.937D-03 0.142D-02 0.305D-03
 Coeff:     -0.164D-02-0.802D-03 0.391D-02 0.899D-02-0.162D-01-0.418D-01
 Coeff:     -0.127D+00 0.248D+00 0.926D+00
 Gap=     0.056 Goal=   None    Shift=    0.000
 Gap=     0.031 Goal=   None    Shift=    0.000
 RMSDP=7.76D-09 MaxDP=6.00D-07 DE=-1.82D-12 OVMax= 6.50D-09

 SCF Done:  E(UB3LYP) =  -1136.03581635     A.U. after   28 cycles
            NFock= 28  Conv=0.78D-08     -V/T= 2.0021
 <Sx>= 0.0000 <Sy>= 0.0000 <Sz>= 0.5000 <S**2>= 0.7599 S= 0.5049
 <L.S>= 0.000000000000E+00
 KE= 1.133701453614D+03 PE=-3.581482803540D+03 EE= 8.855732010230D+02
 Annihilation of the first spin contaminant:
 S**2 before annihilation     0.7599,   after     0.7500
 Leave Link  502 at Mon Nov 13 20:01:12 2023, MaxMem=  1879048192 cpu:             264.4 elap:              22.7
 (Enter /home/sekinelabo/g16/l601.exe)
 Copying SCF densities to generalized density rwf, IOpCl= 1 IROHF=0.

 **********************************************************************

            Population analysis using the SCF Density.

 **********************************************************************

 Orbital symmetries:
 Alpha Orbitals:
       Occupied  (A) (A) (A) (A) (A) (A) (A) (A) (A) (A) (A) (A)
                 (A) (A) (A) (A) (A) (A) (A) (A) (A) (A) (A) (A)
                 (A) (A) (A) (A) (A) (A) (A) (A) (A) (A) (A) (A)
                 (A) (A) (A)
       Virtual   (A) (A) (A) (A) (A) (A) (A) (A) (A) (A) (A) (A)
                 (A) (A) (A) (A) (A) (A) (A) (A) (A) (A) (A) (A)
                 (A) (A) (A) (A) (A) (A) (A) (A) (A) (A) (A) (A)
                 (A) (A) (A) (A) (A) (A) (A) (A) (A) (A) (A) (A)
                 (A) (A) (A) (A) (A) (A) (A) (A) (A) (A) (A) (A)
                 (A) (A) (A) (A) (A) (A) (A) (A) (A) (A) (A) (A)
                 (A) (A) (A) (A) (A) (A) (A) (A) (A) (A) (A) (A)
                 (A) (A) (A) (A) (A) (A) (A) (A) (A) (A) (A) (A)
                 (A) (A) (A) (A) (A) (A) (A) (A) (A) (A) (A) (A)
                 (A) (A) (A) (A) (A) (A) (A) (A) (A) (A) (A) (A)
                 (A) (A) (A) (A) (A) (A) (A) (A) (A) (A) (A) (A)
                 (A) (A) (A) (A) (A) (A) (A) (A) (A) (A) (A) (A)
                 (A) (A) (A) (A) (A) (A) (A) (A) (A) (A) (A) (A)
                 (A) (A) (A) (A) (A) (A) (A) (A) (A) (A) (A) (A)
                 (A) (A)
 Beta  Orbitals:
       Occupied  (A) (A) (A) (A) (A) (A) (A) (A) (A) (A) (A) (A)
                 (A) (A) (A) (A) (A) (A) (A) (A) (A) (A) (A) (A)
                 (A) (A) (A) (A) (A) (A) (A) (A) (A) (A) (A) (A)
                 (A) (A)
       Virtual   (A) (A) (A) (A) (A) (A) (A) (A) (A) (A) (A) (A)
                 (A) (A) (A) (A) (A) (A) (A) (A) (A) (A) (A) (A)
                 (A) (A) (A) (A) (A) (A) (A) (A) (A) (A) (A) (A)
                 (A) (A) (A) (A) (A) (A) (A) (A) (A) (A) (A) (A)
                 (A) (A) (A) (A) (A) (A) (A) (A) (A) (A) (A) (A)
                 (A) (A) (A) (A) (A) (A) (A) (A) (A) (A) (A) (A)
                 (A) (A) (A) (A) (A) (A) (A) (A) (A) (A) (A) (A)
                 (A) (A) (A) (A) (A) (A) (A) (A) (A) (A) (A) (A)
                 (A) (A) (A) (A) (A) (A) (A) (A) (A) (A) (A) (A)
                 (A) (A) (A) (A) (A) (A) (A) (A) (A) (A) (A) (A)
                 (A) (A) (A) (A) (A) (A) (A) (A) (A) (A) (A) (A)
                 (A) (A) (A) (A) (A) (A) (A) (A) (A) (A) (A) (A)
                 (A) (A) (A) (A) (A) (A) (A) (A) (A) (A) (A) (A)
                 (A) (A) (A) (A) (A) (A) (A) (A) (A) (A) (A) (A)
                 (A) (A) (A)
 The electronic state is 2-A.
 Alpha  occ. eigenvalues --  -38.45138 -38.45133 -38.45129 -38.44581 -38.44578
 Alpha  occ. eigenvalues --  -38.43209 -38.42976  -2.21488  -2.21421  -2.21068
 Alpha  occ. eigenvalues --   -2.20984  -2.20913  -2.19491  -2.19166  -1.15559
 Alpha  occ. eigenvalues --   -1.15376  -1.15328  -1.15144  -1.15099  -1.15027
 Alpha  occ. eigenvalues --   -1.14855  -1.14845  -1.14790  -1.14641  -1.14551
 Alpha  occ. eigenvalues --   -1.14514  -1.14442  -1.14427  -1.14330  -1.13180
 Alpha  occ. eigenvalues --   -1.13096  -1.13013  -1.12883  -1.12794  -1.12734
 Alpha  occ. eigenvalues --   -0.22141  -0.14359  -0.13099  -0.11968
 Alpha virt. eigenvalues --   -0.06359  -0.04100  -0.03846  -0.03495  -0.02782
 Alpha virt. eigenvalues --   -0.02511  -0.01679  -0.00463  -0.00171   0.00255
 Alpha virt. eigenvalues --    0.00587   0.00755   0.00990   0.01047   0.01055
 Alpha virt. eigenvalues --    0.01436   0.01448   0.01502   0.01521   0.01636
 Alpha virt. eigenvalues --    0.01725   0.01775   0.01874   0.01953   0.02124
 Alpha virt. eigenvalues --    0.02422   0.02591   0.02900   0.02902   0.03046
 Alpha virt. eigenvalues --    0.03062   0.03078   0.03134   0.03298   0.03510
 Alpha virt. eigenvalues --    0.03753   0.03953   0.04026   0.04149   0.04230
 Alpha virt. eigenvalues --    0.04591   0.04942   0.05218   0.05321   0.05598
 Alpha virt. eigenvalues --    0.05621   0.05990   0.06219   0.06312   0.06378
 Alpha virt. eigenvalues --    0.07032   0.07132   0.07217   0.07285   0.07321
 Alpha virt. eigenvalues --    0.08851   0.09207   0.09693   0.09900   0.10197
 Alpha virt. eigenvalues --    0.10372   0.10471   0.11588   0.13058   0.13202
 Alpha virt. eigenvalues --    0.13634   0.14163   0.14385   0.14401   0.14676
 Alpha virt. eigenvalues --    0.15490   0.15498   0.16098   0.16227   0.16900
 Alpha virt. eigenvalues --    0.18132   0.18136   0.19678   0.20291   0.21301
 Alpha virt. eigenvalues --    0.22575   0.25515   0.26666   0.29733   0.31603
 Alpha virt. eigenvalues --    0.33084   0.33889   0.34011   0.35073   0.35467
 Alpha virt. eigenvalues --    0.35934   0.37207   0.37925   0.38081   0.40043
 Alpha virt. eigenvalues --    0.40085   0.41860   0.42865   0.43410   0.44925
 Alpha virt. eigenvalues --    0.45072   0.45106   0.46133   0.46779   0.47768
 Alpha virt. eigenvalues --    0.47826   0.48037   0.49080   0.49316   0.49758
 Alpha virt. eigenvalues --    0.50177   0.51088   0.51642   0.51939   0.53767
 Alpha virt. eigenvalues --    0.55329   0.55709   0.56556   0.58495   0.58895
 Alpha virt. eigenvalues --    0.60295   0.62259   0.69919   0.72194   0.74318
 Alpha virt. eigenvalues --    0.77553   0.79715   0.80604   0.80619   0.81645
 Alpha virt. eigenvalues --    0.85309   0.88048   0.88136   0.89055   0.89715
 Alpha virt. eigenvalues --    2.14185   2.25343   2.25552   2.28350   2.30170
 Alpha virt. eigenvalues --    2.31613   2.39347   4.41208   4.42025   4.42267
 Alpha virt. eigenvalues --    4.43596   4.44085   4.45642   4.46037   4.47537
 Alpha virt. eigenvalues --    4.52446   4.59268   4.59919   4.67390   4.69945
 Alpha virt. eigenvalues --    4.79773   4.81405   4.83439   4.83989   4.84985
 Alpha virt. eigenvalues --    4.86375   4.96992   4.98682  96.37227  96.52275
 Alpha virt. eigenvalues --   96.56697  96.57523  96.60603  96.62503  96.72575
  Beta  occ. eigenvalues --  -38.45127 -38.45073 -38.45069 -38.44513 -38.44510
  Beta  occ. eigenvalues --  -38.43189 -38.42961  -2.21376  -2.21309  -2.21061
  Beta  occ. eigenvalues --   -2.20872  -2.20795  -2.19463  -2.19146  -1.15500
  Beta  occ. eigenvalues --   -1.15257  -1.15220  -1.15069  -1.15034  -1.14947
  Beta  occ. eigenvalues --   -1.14813  -1.14781  -1.14741  -1.14634  -1.14481
  Beta  occ. eigenvalues --   -1.14439  -1.14362  -1.14346  -1.14227  -1.13170
  Beta  occ. eigenvalues --   -1.13005  -1.12994  -1.12879  -1.12729  -1.12712
  Beta  occ. eigenvalues --   -0.21271  -0.14242  -0.11578
  Beta virt. eigenvalues --   -0.08480  -0.06275  -0.03526  -0.03503  -0.03168
  Beta virt. eigenvalues --   -0.01891  -0.01795  -0.01624  -0.00145  -0.00139
  Beta virt. eigenvalues --    0.00286   0.00651   0.00940   0.00996   0.01045
  Beta virt. eigenvalues --    0.01109   0.01459   0.01538   0.01597   0.01623
  Beta virt. eigenvalues --    0.01684   0.01790   0.01869   0.01947   0.02034
  Beta virt. eigenvalues --    0.02139   0.02414   0.02728   0.02901   0.02971
  Beta virt. eigenvalues --    0.03057   0.03074   0.03099   0.03209   0.03330
  Beta virt. eigenvalues --    0.03642   0.03894   0.03955   0.04198   0.04314
  Beta virt. eigenvalues --    0.04407   0.04656   0.05108   0.05197   0.05571
  Beta virt. eigenvalues --    0.05667   0.05926   0.06000   0.06243   0.06410
  Beta virt. eigenvalues --    0.06707   0.07041   0.07171   0.07258   0.07350
  Beta virt. eigenvalues --    0.07499   0.08852   0.09385   0.09900   0.10025
  Beta virt. eigenvalues --    0.10482   0.10534   0.10953   0.11977   0.13235
  Beta virt. eigenvalues --    0.13244   0.13701   0.14285   0.14516   0.14802
  Beta virt. eigenvalues --    0.15011   0.15692   0.15717   0.16533   0.16718
  Beta virt. eigenvalues --    0.16976   0.18237   0.18465   0.19862   0.20688
  Beta virt. eigenvalues --    0.21843   0.22760   0.26366   0.26708   0.30455
  Beta virt. eigenvalues --    0.31723   0.33522   0.34069   0.34190   0.35340
  Beta virt. eigenvalues --    0.35622   0.36739   0.37598   0.38216   0.38260
  Beta virt. eigenvalues --    0.40374   0.40506   0.41986   0.43431   0.43458
  Beta virt. eigenvalues --    0.45091   0.45265   0.45306   0.46386   0.46800
  Beta virt. eigenvalues --    0.47964   0.48076   0.48153   0.49205   0.49575
  Beta virt. eigenvalues --    0.49838   0.50367   0.51193   0.52025   0.52200
  Beta virt. eigenvalues --    0.54204   0.55423   0.56129   0.56748   0.58870
  Beta virt. eigenvalues --    0.59297   0.60534   0.62552   0.69999   0.72552
  Beta virt. eigenvalues --    0.74593   0.77720   0.80031   0.80686   0.80906
  Beta virt. eigenvalues --    0.81803   0.85481   0.88338   0.88364   0.89127
  Beta virt. eigenvalues --    0.90112   2.14202   2.25388   2.25797   2.28535
  Beta virt. eigenvalues --    2.30180   2.31934   2.39548   4.41351   4.42139
  Beta virt. eigenvalues --    4.42324   4.43712   4.44128   4.45679   4.46067
  Beta virt. eigenvalues --    4.47581   4.52522   4.59380   4.59985   4.67531
  Beta virt. eigenvalues --    4.69975   4.79880   4.81446   4.83570   4.84054
  Beta virt. eigenvalues --    4.85133   4.86421   4.97032   4.98740  96.37238
  Beta virt. eigenvalues --   96.52300  96.56785  96.57599  96.60622  96.62593
  Beta virt. eigenvalues --   96.72648
          Condensed to atoms (all electrons):
               1          2          3          4          5          6
     1  Na  17.303601   0.038305   1.112696   0.664376  -5.247287  -1.946414
     2  Na   0.038305  17.312114   1.112535   0.668849  -1.943597  -5.275557
     3  Na   1.112696   1.112535  12.266840  -0.478527  -1.253497  -1.259500
     4  Na   0.664376   0.668849  -0.478527  12.300926  -0.742328  -0.749109
     5  Na  -5.247287  -1.943597  -1.253497  -0.742328  16.876124   2.594104
     6  Na  -1.946414  -5.275557  -1.259500  -0.749109   2.594104  16.923240
     7  Na  -1.033787  -1.008387  -0.663233  -1.131300   1.030776   1.022810
               7
     1  Na  -1.033787
     2  Na  -1.008387
     3  Na  -0.663233
     4  Na  -1.131300
     5  Na   1.030776
     6  Na   1.022810
     7  Na  12.993298
          Atomic-Atomic Spin Densities.
               1          2          3          4          5          6
     1  Na   2.462626  -2.222511  -0.117245   0.155260  -0.999365   0.855635
     2  Na  -2.222511   2.480216  -0.114192   0.168127   0.838564  -1.022746
     3  Na  -0.117245  -0.114192   0.113484  -0.175823   0.191124   0.192483
     4  Na   0.155260   0.168127  -0.175823  -0.027007  -0.139058  -0.145798
     5  Na  -0.999365   0.838564   0.191124  -0.139058   0.659393  -0.344478
     6  Na   0.855635  -1.022746   0.192483  -0.145798  -0.344478   0.673090
     7  Na  -0.099323  -0.094700   0.048126   0.246872   0.129637   0.128290
               7
     1  Na  -0.099323
     2  Na  -0.094700
     3  Na   0.048126
     4  Na   0.246872
     5  Na   0.129637
     6  Na   0.128290
     7  Na  -0.319560
 Mulliken charges and spin densities:
               1          2
     1  Na   0.108511   0.035077
     2  Na   0.095738   0.032758
     3  Na   0.162687   0.137956
     4  Na   0.467112   0.082573
     5  Na  -0.314295   0.335817
     6  Na  -0.309575   0.336476
     7  Na  -0.210176   0.039343
 Sum of Mulliken charges =  -0.00000   1.00000
 Mulliken charges and spin densities with hydrogens summed into heavy atoms:
               1          2
     1  Na   0.108511   0.035077
     2  Na   0.095738   0.032758
     3  Na   0.162687   0.137956
     4  Na   0.467112   0.082573
     5  Na  -0.314295   0.335817
     6  Na  -0.309575   0.336476
     7  Na  -0.210176   0.039343
 Electronic spatial extent (au):  <R**2>=           1555.2084
 Charge=             -0.0000 electrons
 Dipole moment (field-independent basis, Debye):
    X=             -0.8012    Y=              0.1572    Z=             -0.0034  Tot=              0.8165
 Quadrupole moment (field-independent basis, Debye-Ang):
   XX=            -53.3785   YY=            -77.1781   ZZ=            -65.4570
   XY=             -0.1865   XZ=             -0.0054   YZ=             -0.0039
 Traceless Quadrupole moment (field-independent basis, Debye-Ang):
   XX=             11.9593   YY=            -11.8402   ZZ=             -0.1191
   XY=             -0.1865   XZ=             -0.0054   YZ=             -0.0039
 Octapole moment (field-independent basis, Debye-Ang**2):
  XXX=            -44.6501  YYY=              2.7283  ZZZ=             -0.0251  XYY=             -0.8546
  XXY=              0.9938  XXZ=             -0.0213  XZZ=              5.7287  YZZ=             -0.1889
  YYZ=             -0.0221  XYZ=              0.0006
 Hexadecapole moment (field-independent basis, Debye-Ang**3):
 XXXX=          -1083.3136 YYYY=           -792.2443 ZZZZ=           -656.0403 XXXY=            -20.5989
 XXXZ=             -0.1495 YYYX=             17.7501 YYYZ=             -0.2833 ZZZX=              0.0986
 ZZZY=              0.1068 XXYY=           -395.0083 XXZZ=           -307.5617 YYZZ=           -271.0448
 XXYZ=              0.1054 YYXZ=             -0.0904 ZZXY=             -7.2493
 N-N= 4.261723325502D+02 E-N=-3.581482803535D+03  KE= 1.133701453614D+03
                          Isotropic Fermi Contact Couplings
        Atom                 a.u.       MegaHertz       Gauss      10(-4) cm-1
     1  Na(23)             0.22241     263.11909      93.88744      87.76708
     2  Na(23)             0.22339     264.27738      94.30074      88.15345
     3  Na(23)            -0.02170     -25.67366      -9.16100      -8.56381
     4  Na(23)            -0.01959     -23.17039      -8.26777      -7.72881
     5  Na(23)             0.22803     269.76828      96.26003      89.98501
     6  Na(23)             0.22787     269.58204      96.19358      89.92289
     7  Na(23)            -0.00383      -4.52867      -1.61594      -1.51060
 --------------------------------------------------------
       Center         ----  Spin Dipole Couplings  ----
                      3XX-RR        3YY-RR        3ZZ-RR
 --------------------------------------------------------
     1   Atom        0.023434     -0.013601     -0.009833
     2   Atom        0.023536     -0.013562     -0.009975
     3   Atom       -0.036644     -0.036576      0.073220
     4   Atom       -0.047088     -0.043545      0.090633
     5   Atom        0.017819     -0.015640     -0.002179
     6   Atom        0.017617     -0.015661     -0.001956
     7   Atom       -0.004614     -0.008284      0.012898
 --------------------------------------------------------
                        XY            XZ            YZ
 --------------------------------------------------------
     1   Atom       -0.003806      0.036893     -0.003536
     2   Atom       -0.003595     -0.036840      0.003320
     3   Atom        0.003744      0.000014      0.000377
     4   Atom       -0.002206      0.000036      0.000342
     5   Atom       -0.006761     -0.036242      0.007186
     6   Atom       -0.006922      0.036403     -0.007401
     7   Atom        0.000060      0.000004      0.000007
 --------------------------------------------------------


 ---------------------------------------------------------------------------------
              Anisotropic Spin Dipole Couplings in Principal Axis System
 ---------------------------------------------------------------------------------

       Atom             a.u.   MegaHertz   Gauss  10(-4) cm-1        Axes

              Baa    -0.0337    -4.760    -1.699    -1.588 -0.5397  0.0457  0.8406
     1 Na(23) Bbb    -0.0140    -1.975    -0.705    -0.659  0.0947  0.9955  0.0067
              Bcc     0.0477     6.735     2.403     2.247  0.8365 -0.0832  0.5416
 
              Baa    -0.0337    -4.763    -1.699    -1.589  0.5387 -0.0425  0.8414
     2 Na(23) Bbb    -0.0139    -1.964    -0.701    -0.655  0.0890  0.9960 -0.0067
              Bcc     0.0476     6.726     2.400     2.244  0.8378 -0.0785 -0.5403
 
              Baa    -0.0404    -5.699    -2.033    -1.901  0.7103 -0.7039  0.0023
     3 Na(23) Bbb    -0.0329    -4.641    -1.656    -1.548  0.7039  0.7103 -0.0026
              Bcc     0.0732    10.340     3.690     3.449  0.0002  0.0034  1.0000
 
              Baa    -0.0481    -6.799    -2.426    -2.268  0.9017  0.4324 -0.0013
     4 Na(23) Bbb    -0.0425    -6.000    -2.141    -2.001 -0.4325  0.9017 -0.0022
              Bcc     0.0906    12.799     4.567     4.269  0.0002  0.0025  1.0000
 
              Baa    -0.0300    -4.233    -1.511    -1.412  0.5885 -0.1230  0.7991
     5 Na(23) Bbb    -0.0170    -2.394    -0.854    -0.799  0.1968  0.9804  0.0059
              Bcc     0.0469     6.627     2.365     2.211  0.7842 -0.1538 -0.6012
 
              Baa    -0.0301    -4.247    -1.515    -1.417 -0.5903  0.1259  0.7973
     6 Na(23) Bbb    -0.0170    -2.407    -0.859    -0.803  0.2015  0.9795 -0.0056
              Bcc     0.0471     6.654     2.374     2.219  0.7817 -0.1573  0.6035
 
              Baa    -0.0083    -1.170    -0.417    -0.390 -0.0164  0.9999 -0.0003
     7 Na(23) Bbb    -0.0046    -0.651    -0.232    -0.217  0.9999  0.0164 -0.0002
              Bcc     0.0129     1.821     0.650     0.608  0.0002  0.0003  1.0000
 

 ---------------------------------------------------------------------------------

 No NMR shielding tensors so no spin-rotation constants.
 Leave Link  601 at Mon Nov 13 20:01:13 2023, MaxMem=  1879048192 cpu:               2.7 elap:               0.2
 (Enter /home/sekinelabo/g16/l701.exe)
 ... and contract with generalized density number  0.
 Compute integral first derivatives.
 Leave Link  701 at Mon Nov 13 20:01:13 2023, MaxMem=  1879048192 cpu:               1.7 elap:               0.1
 (Enter /home/sekinelabo/g16/l702.exe)
 L702 exits ... SP integral derivatives will be done elsewhere.
 Leave Link  702 at Mon Nov 13 20:01:13 2023, MaxMem=  1879048192 cpu:               0.4 elap:               0.0
 (Enter /home/sekinelabo/g16/l703.exe)
 Integral derivatives from FoFJK, PRISM(SPDF).
 Compute integral first derivatives, UseDBF=F ICtDFT=           0.
 Calling FoFJK, ICntrl=      2127 FMM=F ISym2X=0 I1Cent= 0 IOpClX= 1 NMat=1 NMatS=1 NMatT=0.
 FoFJK:  IHMeth= 1 ICntrl=    2127 DoSepK=F KAlg= 0 I1Cent=           0 FoldK=F
 IRaf=         0 NMat=       1 IRICut=       1 DoRegI=T DoRafI=F ISym2E= 0 IDoP0=0 IntGTp=1.
 FoFCou: FMM=F IPFlag=           0 FMFlag=      100000 FMFlg1=         800
         NFxFlg=           0 DoJE=F BraDBF=F KetDBF=F FulRan=T
         wScrn=  0.000000 ICntrl=      2127 IOpCl=  1 I1Cent=           0 NGrid=           0
         NMat0=    1 NMatS0=      1 NMatT0=    0 NMatD0=    1 NMtDS0=    0 NMtDT0=    0
 Symmetry not used in FoFCou.
 Leave Link  703 at Mon Nov 13 20:01:15 2023, MaxMem=  1879048192 cpu:              38.0 elap:               2.4
 (Enter /home/sekinelabo/g16/l716.exe)
 Dipole        =-3.15224716D-01 6.18537229D-02-1.32242307D-03
 ***** Axes restored to original set *****
 -------------------------------------------------------------------
 Center     Atomic                   Forces (Hartrees/Bohr)
 Number     Number              X              Y              Z
 -------------------------------------------------------------------
      1       11           0.026222513    0.004116721    0.027700953
      2       11           0.026280130    0.003975045   -0.027759759
      3       11          -0.001685674   -0.037125394    0.000090300
      4       11          -0.006769799    0.044197884   -0.000068570
      5       11          -0.014509486   -0.007359190    0.026700664
      6       11          -0.014611634   -0.007517811   -0.026661599
      7       11          -0.014926050   -0.000287255   -0.000001989
 -------------------------------------------------------------------
 Cartesian Forces:  Max     0.044197884 RMS     0.020131389
 Z-matrix is all fixed cartesians, so copy forces.
 Force constants in Cartesian coordinates: 
                1             2             3             4             5 
      1  0.251762D+00
      2  0.235401D-03  0.254646D+00
      3  0.439259D-01  0.158642D-01  0.262238D+00
      4 -0.332313D-01  0.163648D-02 -0.428809D-01  0.251984D+00
      5  0.183141D-02 -0.563588D-01 -0.520338D-02 -0.608502D-04  0.255343D+00
      6  0.428224D-01  0.507437D-02 -0.876269D-01 -0.439593D-01 -0.159547D-01
      7 -0.544326D-01 -0.443533D-01 -0.126046D-01 -0.543650D-01 -0.442460D-01
      8  0.135867D-01 -0.711663D-01  0.671798D-02  0.135833D-01 -0.709610D-01
      9 -0.963672D-04 -0.510127D-01 -0.566894D-01  0.481517D-04  0.510691D-01
     10 -0.664691D-01  0.490925D-01 -0.253369D-02 -0.664336D-01  0.490759D-01
     11 -0.115224D-01 -0.651210D-01 -0.128796D-01 -0.114406D-01 -0.652717D-01
     12 -0.107084D-01  0.473830D-01 -0.611462D-01  0.107712D-01 -0.473592D-01
     13 -0.905755D-01  0.213072D-02  0.449837D-01 -0.467547D-02 -0.579823D-02
     14  0.302532D-02 -0.120814D+00 -0.444581D-02 -0.308994D-02  0.203344D-01
     15 -0.451888D-01 -0.155420D-01 -0.590356D-01  0.253551D-01  0.615219D-02
     16 -0.474232D-02 -0.595423D-02 -0.276225D-01 -0.909796D-01  0.204198D-02
     17 -0.321723D-02  0.204050D-01 -0.268278D-02  0.336230D-02 -0.122082D+00
     18 -0.253381D-01 -0.634490D-02 -0.133624D-01  0.452088D-01  0.160914D-01
     19 -0.231086D-02 -0.278760D-02 -0.326787D-02 -0.229909D-02 -0.284423D-02
     20 -0.393921D-02  0.384092D-01  0.262940D-02 -0.399073D-02  0.389960D-01
     21 -0.541668D-02  0.457808D-02  0.156221D-01  0.545699D-02 -0.479539D-02
                6             7             8             9            10 
      6  0.262856D+00
      7  0.128651D-01  0.187816D+00
      8 -0.670203D-02 -0.460871D-02  0.257836D+00
      9 -0.569765D-01  0.240584D-05 -0.119673D-03  0.187870D+00
     10  0.235344D-02  0.266517D-01  0.102837D-01 -0.288373D-04  0.224046D+00
     11  0.129743D-01  0.706979D-02 -0.322501D-01  0.928210D-04 -0.151605D-01
     12 -0.610881D-01 -0.317104D-04  0.170837D-03  0.269490D-01  0.207641D-04
     13  0.276385D-01 -0.503198D-01 -0.160906D-01  0.135281D-01 -0.574527D-01
     14  0.254903D-02  0.362633D-01 -0.437919D-01 -0.496776D-01 -0.374445D-01
     15 -0.134360D-01 -0.581766D-02  0.150298D-01 -0.557219D-01  0.289908D-02
     16 -0.450168D-01 -0.503988D-01 -0.161504D-01 -0.134563D-01 -0.574549D-01
     17  0.488945D-02  0.363444D-01 -0.435722D-01  0.496735D-01 -0.375296D-01
     18 -0.594192D-01  0.561687D-02 -0.151222D-01 -0.560428D-01 -0.274939D-02
     19  0.329660D-02 -0.495118D-02 -0.603960D-03  0.287235D-05 -0.288743D-02
     20 -0.283040D-02  0.135305D-01  0.390521D-02 -0.254482D-04 -0.183175D-01
     21  0.156910D-01 -0.304354D-04  0.252801D-04  0.106112D-01  0.386331D-04
               11            12            13            14            15 
     11  0.302004D+00
     12 -0.250551D-03  0.213900D+00
     13  0.155652D-01 -0.233981D-02  0.293115D+00
     14 -0.702984D-01  0.592213D-01 -0.109481D-01  0.354020D+00
     15 -0.112235D-01 -0.620634D-01 -0.222224D-01  0.594123D-02  0.356407D+00
     16  0.155523D-01  0.229389D-02 -0.457438D-01  0.648603D-02  0.280539D-01
     17 -0.704477D-01 -0.592104D-01  0.635363D-02 -0.437452D-01  0.680346D-02
     18  0.112715D-01 -0.619211D-01 -0.281334D-01 -0.711109D-02 -0.100284D+00
     19 -0.637292D-04 -0.593673D-05 -0.443476D-01  0.570784D-02  0.169207D-01
     20  0.138502D-02  0.450001D-04  0.878737D-02 -0.957046D-01 -0.716122D-02
     21  0.150011D-04  0.536982D-02 -0.334548D-01 -0.647701D-02 -0.658663D-01
               16            17            18            19            20 
     16  0.293739D+00
     17 -0.110337D-01  0.355983D+00
     18  0.223717D-01 -0.627964D-02  0.357068D+00
     19 -0.444199D-01  0.572022D-02 -0.169765D-01  0.101216D+00
     20  0.905806D-02 -0.965412D-01  0.749503D-02 -0.512854D-02  0.109550D+00
     21  0.333762D-01  0.680640D-02 -0.660383D-01  0.301313D-04 -0.152361D-03
               21 
     21  0.846104D-01
 Leave Link  716 at Mon Nov 13 20:01:15 2023, MaxMem=  1879048192 cpu:               0.5 elap:               0.0
 (Enter /home/sekinelabo/g16/l103.exe)

 GradGradGradGradGradGradGradGradGradGradGradGradGradGradGradGradGradGrad
 Berny optimization.
 Search for a local minimum.
 Step number   1 out of a maximum of    2
 All quantities printed in internal units (Hartrees-Bohrs-Radians)
 Second derivative matrix not updated -- first step.
 ITU=  0
     Eigenvalues ---    0.10331   0.16857   0.17347   0.26654   0.32876
     Eigenvalues ---    0.33103   0.35425   0.36236   0.36999   0.39640
     Eigenvalues ---    0.40334   0.41623   0.45777   0.49675   0.51271
 Quadratic step=4.285D-01 exceeds max=3.000D-01 adjusted using Lamda=-7.299D-02.
 Angle between NR and scaled steps=   8.40 degrees.
 Angle between quadratic step and forces=  16.72 degrees.
 Linear search not attempted -- first point.
 B after Tr=    -0.000000    0.000000    0.000000
         Rot=    1.000000    0.000000   -0.000000    0.000000 Ang=   0.00 deg.
 Variable       Old X    -DE/DX   Delta X   Delta X   Delta X     New X
                                 (Linear)    (Quad)   (Total)
    X1        9.82961   0.02622   0.00000   0.09327   0.09327   9.92288
    Y1        4.11814   0.00412   0.00000   0.01223   0.01223   4.13037
    Z1        5.16399   0.02770   0.00000   0.08010   0.08010   5.24409
    X2        9.82454   0.02628   0.00000   0.09328   0.09328   9.91782
    Y2        4.10586   0.00398   0.00000   0.01180   0.01180   4.11766
    Z2        0.00000  -0.02776   0.00000  -0.08025  -0.08025  -0.08025
    X3        8.25383  -0.00169   0.00000   0.02480   0.02480   8.27863
    Y3        0.00000  -0.03713   0.00000  -0.11948  -0.11948  -0.11948
    Z3        2.59334   0.00009   0.00000   0.00026   0.00026   2.59361
    X4        6.95240  -0.00677   0.00000   0.00058   0.00058   6.95297
    Y4        7.42097   0.04420   0.00000   0.12669   0.12669   7.54766
    Z4        2.57681  -0.00007   0.00000  -0.00022  -0.00022   2.57658
    X5        4.71773  -0.01451   0.00000  -0.04735  -0.04735   4.67038
    Y5        3.56892  -0.00736   0.00000  -0.01073  -0.01073   3.55819
    Z5        5.13962   0.02670   0.00000   0.07178   0.07178   5.21141
    X6        4.71936  -0.01461   0.00000  -0.04744  -0.04744   4.67192
    Y6        3.55636  -0.00752   0.00000  -0.01113  -0.01113   3.54523
    Z6        0.03286  -0.02666   0.00000  -0.07169  -0.07169  -0.03883
    X7        0.00000  -0.01493   0.00000  -0.11713  -0.11713  -0.11713
    Y7        3.46661  -0.00029   0.00000  -0.00937  -0.00937   3.45724
    Z7        2.58418  -0.00000   0.00000   0.00002   0.00002   2.58421
         Item               Value     Threshold  Converged?
 Maximum Force            0.044198     0.000450     NO 
 RMS     Force            0.020131     0.000300     NO 
 Maximum Displacement     0.126695     0.001800     NO 
 RMS     Displacement     0.065582     0.001200     NO 
 Predicted change in Energy=-1.657276D-02
 GradGradGradGradGradGradGradGradGradGradGradGradGradGradGradGradGradGrad

 Leave Link  103 at Mon Nov 13 20:01:15 2023, MaxMem=  1879048192 cpu:               0.2 elap:               0.0
 (Enter /home/sekinelabo/g16/l9999.exe)
 1\1\GINC-SEKINELABO-XA7R-R37\Force\UB3LYP\6-311+G(d)\Na7(2)\SEKINELABO
 \13-Nov-2023\0\\#P B3LYP/6-311+g(d) force\\Gaussian input prepared by 
 ASE\\0,2\Na,5.2016036841,2.1792262602,2.7326638701\Na,5.1989245681,2.1
 727292918,0.\Na,4.3677391012,0.,1.3723382307\Na,3.6790497766,3.9270068
 623,1.3635873499\Na,2.4965154829,1.8885920826,2.7197705604\Na,2.497378
 9695,1.8819429761,0.0173902949\Na,0.,1.8344535957,1.3674897239\\Versio
 n=ES64L-G16RevB.01\State=2-A\HF=-1136.0358164\S2=0.759911\S2-1=0.\S2A=
 0.75004\RMSD=7.759e-09\RMSF=2.013e-02\Dipole=-0.3152247,-0.0618537,0.0
 013224\Quadrupole=8.891478,-8.8029198,-0.0885582,0.1386752,0.004035,-0
 .0028727\PG=C01 [X(Na7)]\\@


 A MAN THINKING OR WORKING IS ALWAYS ALONE, 
 LET HIM BE WHERE HE WILL.

                                    -- THOREAU
 Job cpu time:       0 days  0 hours  5 minutes 20.0 seconds.
 Elapsed time:       0 days  0 hours  0 minutes 26.2 seconds.
 File lengths (MBytes):  RWF=     32 Int=      0 D2E=      0 Chk=      6 Scr=      1
 Normal termination of Gaussian 16 at Mon Nov 13 20:01:16 2023.
