 Entering Gaussian System, Link 0=g16
 Initial command:
 /home/sekinelabo/g16/l1.exe "/home/sekinelabo/g16temp/Gau-4091063.inp" -scrdir="/home/sekinelabo/g16temp/"
 Entering Link 1 = /home/sekinelabo/g16/l1.exe PID=   4091065.
  
 Copyright (c) 1988-2017, Gaussian, Inc.  All Rights Reserved.
  
 This is part of the Gaussian(R) 16 program.  It is based on
 the Gaussian(R) 09 system (copyright 2009, Gaussian, Inc.),
 the Gaussian(R) 03 system (copyright 2003, Gaussian, Inc.),
 the Gaussian(R) 98 system (copyright 1998, Gaussian, Inc.),
 the Gaussian(R) 94 system (copyright 1995, Gaussian, Inc.),
 the Gaussian 92(TM) system (copyright 1992, Gaussian, Inc.),
 the Gaussian 90(TM) system (copyright 1990, Gaussian, Inc.),
 the Gaussian 88(TM) system (copyright 1988, Gaussian, Inc.),
 the Gaussian 86(TM) system (copyright 1986, Carnegie Mellon
 University), and the Gaussian 82(TM) system (copyright 1983,
 Carnegie Mellon University). Gaussian is a federally registered
 trademark of Gaussian, Inc.
  
 This software contains proprietary and confidential information,
 including trade secrets, belonging to Gaussian, Inc.
  
 This software is provided under written license and may be
 used, copied, transmitted, or stored only in accord with that
 written license.
  
 The following legend is applicable only to US Government
 contracts under FAR:
  
                    RESTRICTED RIGHTS LEGEND
  
 Use, reproduction and disclosure by the US Government is
 subject to restrictions as set forth in subparagraphs (a)
 and (c) of the Commercial Computer Software - Restricted
 Rights clause in FAR 52.227-19.
  
 Gaussian, Inc.
 340 Quinnipiac St., Bldg. 40, Wallingford CT 06492
  
  
 ---------------------------------------------------------------
 Warning -- This program may not be used in any manner that
 competes with the business of Gaussian, Inc. or will provide
 assistance to any competitor of Gaussian, Inc.  The licensee
 of this program is prohibited from giving any competitor of
 Gaussian, Inc. access to this program.  By using this program,
 the user acknowledges that Gaussian, Inc. is engaged in the
 business of creating and licensing software in the field of
 computational chemistry and represents and warrants to the
 licensee that it is not a competitor of Gaussian, Inc. and that
 it will not use this program in any manner prohibited above.
 ---------------------------------------------------------------
  

 Cite this work as:
 Gaussian 16, Revision B.01,
 M. J. Frisch, G. W. Trucks, H. B. Schlegel, G. E. Scuseria, 
 M. A. Robb, J. R. Cheeseman, G. Scalmani, V. Barone, 
 G. A. Petersson, H. Nakatsuji, X. Li, M. Caricato, A. V. Marenich, 
 J. Bloino, B. G. Janesko, R. Gomperts, B. Mennucci, H. P. Hratchian, 
 J. V. Ortiz, A. F. Izmaylov, J. L. Sonnenberg, D. Williams-Young, 
 F. Ding, F. Lipparini, F. Egidi, J. Goings, B. Peng, A. Petrone, 
 T. Henderson, D. Ranasinghe, V. G. Zakrzewski, J. Gao, N. Rega, 
 G. Zheng, W. Liang, M. Hada, M. Ehara, K. Toyota, R. Fukuda, 
 J. Hasegawa, M. Ishida, T. Nakajima, Y. Honda, O. Kitao, H. Nakai, 
 T. Vreven, K. Throssell, J. A. Montgomery, Jr., J. E. Peralta, 
 F. Ogliaro, M. J. Bearpark, J. J. Heyd, E. N. Brothers, K. N. Kudin, 
 V. N. Staroverov, T. A. Keith, R. Kobayashi, J. Normand, 
 K. Raghavachari, A. P. Rendell, J. C. Burant, S. S. Iyengar, 
 J. Tomasi, M. Cossi, J. M. Millam, M. Klene, C. Adamo, R. Cammi, 
 J. W. Ochterski, R. L. Martin, K. Morokuma, O. Farkas, 
 J. B. Foresman, and D. J. Fox, Gaussian, Inc., Wallingford CT, 2016.
 
 ******************************************
 Gaussian 16:  ES64L-G16RevB.01 20-Dec-2017
                13-Nov-2023 
 ******************************************
 %mem=14GB
 %chk=checkpoint.chk
 %nprocshared=16
 Will use up to   16 processors via shared memory.
 -------------------------
 #P B3LYP/6-311+g(d) force
 -------------------------
 1/10=7,30=1,38=1/1,3;
 2/12=2,17=6,18=5,40=1/2;
 3/5=4,6=6,7=11,11=2,25=1,30=1,71=1,74=-5/1,2,3;
 4//1;
 5/5=2,38=5/2;
 6/7=2,8=2,9=2,10=2,28=1/1;
 7/29=1/1,2,3,16;
 1/10=7,30=1/3;
 99//99;
 Leave Link    1 at Mon Nov 13 17:48:02 2023, MaxMem=  1879048192 cpu:               0.3 elap:               0.0
 (Enter /home/sekinelabo/g16/l101.exe)
 ------------------------------
 Gaussian input prepared by ASE
 ------------------------------
 Symbolic Z-matrix:
 Charge =  0 Multiplicity = 2
 Na                    6.65044   0.        2.43443 
 Na                    2.90028   0.08102   0. 
 Na                    0.        2.79361   3.18217 
 Na                    1.83741   2.76243   0.81328 
 Na                    4.68555   2.03135   1.4195 
 Na                    7.2548    2.9251    2.68266 
 Na                    6.17264   4.38979   0.30081 
 
 ITRead=  0  0  0  0  0  0  0
 MicOpt= -1 -1 -1 -1 -1 -1 -1
 NAtoms=      7 NQM=        7 NQMF=       0 NMMI=      0 NMMIF=      0
                NMic=       0 NMicF=      0.
                    Isotopes and Nuclear Properties:
 (Nuclear quadrupole moments (NQMom) in fm**2, nuclear magnetic moments (NMagM)
  in nuclear magnetons)

  Atom         1           2           3           4           5           6           7
 IAtWgt=          23          23          23          23          23          23          23
 AtmWgt=  22.9897697  22.9897697  22.9897697  22.9897697  22.9897697  22.9897697  22.9897697
 NucSpn=           3           3           3           3           3           3           3
 AtZEff=  -0.0000000  -0.0000000  -0.0000000  -0.0000000  -0.0000000  -0.0000000  -0.0000000
 NQMom=   10.4000000  10.4000000  10.4000000  10.4000000  10.4000000  10.4000000  10.4000000
 NMagM=    2.2175200   2.2175200   2.2175200   2.2175200   2.2175200   2.2175200   2.2175200
 AtZNuc=  11.0000000  11.0000000  11.0000000  11.0000000  11.0000000  11.0000000  11.0000000
 Leave Link  101 at Mon Nov 13 17:48:02 2023, MaxMem=  1879048192 cpu:               2.6 elap:               0.2
 (Enter /home/sekinelabo/g16/l103.exe)

 GradGradGradGradGradGradGradGradGradGradGradGradGradGradGradGradGradGrad
 Berny optimization.
 Initialization pass.
 Trust Radius=3.00D-01 FncErr=1.00D-07 GrdErr=1.00D-07 EigMax=2.50D+02 EigMin=1.00D-04
 Number of steps in this run=      2 maximum allowed number of steps=      2.
 GradGradGradGradGradGradGradGradGradGradGradGradGradGradGradGradGradGrad

 Leave Link  103 at Mon Nov 13 17:48:02 2023, MaxMem=  1879048192 cpu:               0.2 elap:               0.0
 (Enter /home/sekinelabo/g16/l202.exe)
                          Input orientation:                          
 ---------------------------------------------------------------------
 Center     Atomic      Atomic             Coordinates (Angstroms)
 Number     Number       Type             X           Y           Z
 ---------------------------------------------------------------------
      1         11           0        6.650437    0.000000    2.434433
      2         11           0        2.900282    0.081023    0.000000
      3         11           0        0.000000    2.793607    3.182167
      4         11           0        1.837413    2.762429    0.813284
      5         11           0        4.685553    2.031347    1.419500
      6         11           0        7.254804    2.925103    2.682658
      7         11           0        6.172636    4.389786    0.300809
 ---------------------------------------------------------------------
                    Distance matrix (angstroms):
                    1          2          3          4          5
     1  Na   0.000000
     2  Na   4.471766   0.000000
     3  Na   7.252011   5.088805   0.000000
     4  Na   5.781379   2.996842   2.998110   0.000000
     5  Na   3.002870   3.000989   5.063837   3.002313   0.000000
     6  Na   2.997182   5.852120   7.273169   5.733163   2.999237
     7  Na   4.904168   5.418877   6.996531   4.658871   3.004184
                    6          7
     6  Na   0.000000
     7  Na   2.998264   0.000000
 Stoichiometry    Na7(2)
 Framework group  C1[X(Na7)]
 Deg. of freedom    15
 Full point group                 C1      NOp   1
 Largest Abelian subgroup         C1      NOp   1
 Largest concise Abelian subgroup C1      NOp   1
                         Standard orientation:                         
 ---------------------------------------------------------------------
 Center     Atomic      Atomic             Coordinates (Angstroms)
 Number     Number       Type             X           Y           Z
 ---------------------------------------------------------------------
      1         11           0       -2.435990    2.140471    0.886883
      2         11           0        1.314164    2.059448   -1.547550
      3         11           0        4.214446   -0.653137    1.634617
      4         11           0        2.377034   -0.621958   -0.734266
      5         11           0       -0.471107    0.109124   -0.128050
      6         11           0       -3.040358   -0.784632    1.135108
      7         11           0       -1.958190   -2.249315   -1.246741
 ---------------------------------------------------------------------
 Rotational constants (GHZ):           0.8945123           0.4099355           0.3682424
 Leave Link  202 at Mon Nov 13 17:48:02 2023, MaxMem=  1879048192 cpu:               0.0 elap:               0.0
 (Enter /home/sekinelabo/g16/l301.exe)
 Standard basis: 6-311+G(d) (5D, 7F)
 Ernie: Thresh=  0.10000D-02 Tol=  0.10000D-05 Strict=F.
 There are   217 symmetry adapted cartesian basis functions of A   symmetry.
 There are   210 symmetry adapted basis functions of A   symmetry.
   210 basis functions,   350 primitive gaussians,   217 cartesian basis functions
    39 alpha electrons       38 beta electrons
       nuclear repulsion energy       330.2237612583 Hartrees.
 IExCor=  402 DFT=T Ex+Corr=B3LYP ExCW=0 ScaHFX=  0.200000
 ScaDFX=  0.800000  0.720000  1.000000  0.810000 ScalE2=  1.000000  1.000000
 IRadAn=      5 IRanWt=     -1 IRanGd=            0 ICorTp=0 IEmpDi=  4
 NAtoms=    7 NActive=    7 NUniq=    7 SFac= 1.00D+00 NAtFMM=   60 NAOKFM=F Big=F
 Integral buffers will be    131072 words long.
 Raffenetti 2 integral format.
 Two-electron integral symmetry is turned on.
 Leave Link  301 at Mon Nov 13 17:48:02 2023, MaxMem=  1879048192 cpu:               0.5 elap:               0.0
 (Enter /home/sekinelabo/g16/l302.exe)
 NPDir=0 NMtPBC=     1 NCelOv=     1 NCel=       1 NClECP=     1 NCelD=      1
         NCelK=      1 NCelE2=     1 NClLst=     1 CellRange=     0.0.
 One-electron integrals computed using PRISM.
 One-electron integral symmetry used in STVInt
 NBasis=   210 RedAO= T EigKep=  1.55D-06  NBF=   210
 NBsUse=   210 1.00D-06 EigRej= -1.00D+00 NBFU=   210
 Precomputing XC quadrature grid using
 IXCGrd= 4 IRadAn=           5 IRanWt=          -1 IRanGd=           0 AccXCQ= 0.00D+00.
 Generated NRdTot=       0 NPtTot=           0 NUsed=           0 NTot=          32
 NSgBfM=   209   209   209   209   209 MxSgAt=     7 MxSgA2=     7.
 Leave Link  302 at Mon Nov 13 17:48:02 2023, MaxMem=  1879048192 cpu:               2.1 elap:               0.1
 (Enter /home/sekinelabo/g16/l303.exe)
 DipDrv:  MaxL=1.
 Leave Link  303 at Mon Nov 13 17:48:02 2023, MaxMem=  1879048192 cpu:               0.6 elap:               0.0
 (Enter /home/sekinelabo/g16/l401.exe)
 ExpMin= 7.60D-03 ExpMax= 3.62D+04 ExpMxC= 1.21D+03 IAcc=3 IRadAn=         5 AccDes= 0.00D+00
 Harris functional with IExCor=  402 and IRadAn=       5 diagonalized for initial guess.
 HarFok:  IExCor=  402 AccDes= 0.00D+00 IRadAn=         5 IDoV= 1 UseB2=F ITyADJ=14
 ICtDFT=  3500011 ScaDFX=  1.000000  1.000000  1.000000  1.000000
 FoFCou: FMM=F IPFlag=           0 FMFlag=      100000 FMFlg1=           0
         NFxFlg=           0 DoJE=T BraDBF=F KetDBF=T FulRan=T
         wScrn=  0.000000 ICntrl=       500 IOpCl=  0 I1Cent=   200000004 NGrid=           0
         NMat0=    1 NMatS0=      1 NMatT0=    0 NMatD0=    1 NMtDS0=    0 NMtDT0=    0
 Petite list used in FoFCou.
 Harris En= -1135.87062026143    
 JPrj=0 DoOrth=F DoCkMO=F.
 Initial guess <Sx>= 0.0000 <Sy>= 0.0000 <Sz>= 0.5000 <S**2>= 0.7500 S= 0.5000
 Leave Link  401 at Mon Nov 13 17:48:03 2023, MaxMem=  1879048192 cpu:               4.6 elap:               0.3
 (Enter /home/sekinelabo/g16/l502.exe)
 Keep R1 and R2 ints in memory in canonical form, NReq=507620374.
 FoFCou: FMM=F IPFlag=           0 FMFlag=           0 FMFlg1=           0
         NFxFlg=           0 DoJE=F BraDBF=F KetDBF=F FulRan=T
         wScrn=  0.000000 ICntrl=       600 IOpCl=  0 I1Cent=           0 NGrid=           0
         NMat0=    1 NMatS0=  22155 NMatT0=    0 NMatD0=    1 NMtDS0=    0 NMtDT0=    0
 Symmetry not used in FoFCou.
 Two-electron integral symmetry not used.
 UHF open shell SCF:
 Using DIIS extrapolation, IDIIS=  1040.
 NGot=  1879048192 LenX=  1388082362 LenY=  1388034832
 Requested convergence on RMS density matrix=1.00D-08 within 128 cycles.
 Requested convergence on MAX density matrix=1.00D-06.
 Requested convergence on             energy=1.00D-06.
 No special actions if energy rises.

 Cycle   1  Pass 1  IDiag  1:
 E= -1136.06494732959    
 DIIS: error= 1.24D-02 at cycle   1 NSaved=   1.
 NSaved= 1 IEnMin= 1 EnMin= -1136.06494732959     IErMin= 1 ErrMin= 1.24D-02
 ErrMax= 1.24D-02  0.00D+00 EMaxC= 1.00D-01 BMatC= 1.90D-01 BMatP= 1.90D-01
 IDIUse=3 WtCom= 8.76D-01 WtEn= 1.24D-01
 Coeff-Com:  0.100D+01
 Coeff-En:   0.100D+01
 Coeff:      0.100D+01
 Gap=     0.067 Goal=   None    Shift=    0.000
 Gap=     0.017 Goal=   None    Shift=    0.000
 GapD=    0.017 DampG=0.250 DampE=0.500 DampFc=0.2500 IDamp=-1.
 Damping current iteration by 2.50D-01
 RMSDP=6.55D-02 MaxDP=5.04D+00              OVMax= 3.57D-01

 Cycle   2  Pass 1  IDiag  1:
 E= -1136.07670284211     Delta-E=       -0.011755512519 Rises=F Damp=T
 DIIS: error= 8.81D-03 at cycle   2 NSaved=   2.
 NSaved= 2 IEnMin= 2 EnMin= -1136.07670284211     IErMin= 2 ErrMin= 8.81D-03
 ErrMax= 8.81D-03  0.00D+00 EMaxC= 1.00D-01 BMatC= 7.26D-02 BMatP= 1.90D-01
 IDIUse=3 WtCom= 9.12D-01 WtEn= 8.81D-02
 Coeff-Com: -0.125D+01 0.225D+01
 Coeff-En:   0.000D+00 0.100D+01
 Coeff:     -0.114D+01 0.214D+01
 Gap=     0.076 Goal=   None    Shift=    0.000
 Gap=     0.028 Goal=   None    Shift=    0.000
 RMSDP=2.68D-02 MaxDP=2.15D+00 DE=-1.18D-02 OVMax= 4.28D-01

 Cycle   3  Pass 1  IDiag  1:
 E= -1136.09050497184     Delta-E=       -0.013802129727 Rises=F Damp=F
 DIIS: error= 4.08D-03 at cycle   3 NSaved=   3.
 NSaved= 3 IEnMin= 3 EnMin= -1136.09050497184     IErMin= 3 ErrMin= 4.08D-03
 ErrMax= 4.08D-03  0.00D+00 EMaxC= 1.00D-01 BMatC= 7.80D-03 BMatP= 7.26D-02
 IDIUse=3 WtCom= 9.59D-01 WtEn= 4.08D-02
 Coeff-Com: -0.431D+00 0.752D+00 0.679D+00
 Coeff-En:   0.000D+00 0.000D+00 0.100D+01
 Coeff:     -0.413D+00 0.721D+00 0.692D+00
 Gap=     0.071 Goal=   None    Shift=    0.000
 Gap=     0.022 Goal=   None    Shift=    0.000
 RMSDP=1.97D-02 MaxDP=1.64D+00 DE=-1.38D-02 OVMax= 3.14D-01

 Cycle   4  Pass 1  IDiag  1:
 E= -1136.08985847770     Delta-E=        0.000646494137 Rises=F Damp=F
 DIIS: error= 4.58D-03 at cycle   4 NSaved=   4.
 NSaved= 4 IEnMin= 3 EnMin= -1136.09050497184     IErMin= 3 ErrMin= 4.08D-03
 ErrMax= 4.58D-03  0.00D+00 EMaxC= 1.00D-01 BMatC= 7.60D-03 BMatP= 7.80D-03
 IDIUse=3 WtCom= 9.54D-01 WtEn= 4.58D-02
 Coeff-Com: -0.337D-01 0.544D-01 0.492D+00 0.488D+00
 Coeff-En:   0.000D+00 0.000D+00 0.513D+00 0.487D+00
 Coeff:     -0.322D-01 0.519D-01 0.493D+00 0.488D+00
 Gap=     0.061 Goal=   None    Shift=    0.000
 Gap=     0.027 Goal=   None    Shift=    0.000
 RMSDP=6.90D-03 MaxDP=6.20D-01 DE= 6.46D-04 OVMax= 2.26D-01

 Cycle   5  Pass 1  IDiag  1:
 E= -1136.09913469108     Delta-E=       -0.009276213384 Rises=F Damp=F
 DIIS: error= 1.07D-03 at cycle   5 NSaved=   5.
 NSaved= 5 IEnMin= 5 EnMin= -1136.09913469108     IErMin= 5 ErrMin= 1.07D-03
 ErrMax= 1.07D-03  0.00D+00 EMaxC= 1.00D-01 BMatC= 4.73D-04 BMatP= 7.60D-03
 IDIUse=3 WtCom= 9.89D-01 WtEn= 1.07D-02
 Coeff-Com: -0.985D-02 0.126D-01 0.265D+00 0.291D+00 0.441D+00
 Coeff-En:   0.000D+00 0.000D+00 0.000D+00 0.000D+00 0.100D+01
 Coeff:     -0.975D-02 0.125D-01 0.262D+00 0.288D+00 0.447D+00
 Gap=     0.058 Goal=   None    Shift=    0.000
 Gap=     0.029 Goal=   None    Shift=    0.000
 RMSDP=2.66D-03 MaxDP=1.79D-01 DE=-9.28D-03 OVMax= 3.88D-02

 Cycle   6  Pass 1  IDiag  1:
 E= -1136.09970172876     Delta-E=       -0.000567037681 Rises=F Damp=F
 DIIS: error= 2.81D-04 at cycle   6 NSaved=   6.
 NSaved= 6 IEnMin= 6 EnMin= -1136.09970172876     IErMin= 6 ErrMin= 2.81D-04
 ErrMax= 2.81D-04  0.00D+00 EMaxC= 1.00D-01 BMatC= 3.36D-05 BMatP= 4.73D-04
 IDIUse=3 WtCom= 9.97D-01 WtEn= 2.81D-03
 Coeff-Com: -0.484D-02 0.607D-02-0.503D-01-0.443D-01 0.162D+00 0.931D+00
 Coeff-En:   0.000D+00 0.000D+00 0.000D+00 0.000D+00 0.000D+00 0.100D+01
 Coeff:     -0.483D-02 0.606D-02-0.502D-01-0.442D-01 0.162D+00 0.931D+00
 Gap=     0.058 Goal=   None    Shift=    0.000
 Gap=     0.030 Goal=   None    Shift=    0.000
 RMSDP=8.15D-04 MaxDP=4.76D-02 DE=-5.67D-04 OVMax= 1.93D-02

 Cycle   7  Pass 1  IDiag  1:
 E= -1136.09978981844     Delta-E=       -0.000088089679 Rises=F Damp=F
 DIIS: error= 1.72D-04 at cycle   7 NSaved=   7.
 NSaved= 7 IEnMin= 7 EnMin= -1136.09978981844     IErMin= 7 ErrMin= 1.72D-04
 ErrMax= 1.72D-04  0.00D+00 EMaxC= 1.00D-01 BMatC= 5.25D-06 BMatP= 3.36D-05
 IDIUse=3 WtCom= 9.98D-01 WtEn= 1.72D-03
 Coeff-Com: -0.934D-03 0.122D-02-0.425D-01-0.399D-01 0.107D-01 0.320D+00
 Coeff-Com:  0.752D+00
 Coeff-En:   0.000D+00 0.000D+00 0.000D+00 0.000D+00 0.000D+00 0.000D+00
 Coeff-En:   0.100D+01
 Coeff:     -0.932D-03 0.121D-02-0.424D-01-0.398D-01 0.106D-01 0.319D+00
 Coeff:      0.752D+00
 Gap=     0.058 Goal=   None    Shift=    0.000
 Gap=     0.031 Goal=   None    Shift=    0.000
 RMSDP=4.43D-04 MaxDP=4.17D-02 DE=-8.81D-05 OVMax= 9.52D-03

 Cycle   8  Pass 1  IDiag  1:
 E= -1136.09980733615     Delta-E=       -0.000017517707 Rises=F Damp=F
 DIIS: error= 7.27D-05 at cycle   8 NSaved=   8.
 NSaved= 8 IEnMin= 8 EnMin= -1136.09980733615     IErMin= 8 ErrMin= 7.27D-05
 ErrMax= 7.27D-05  0.00D+00 EMaxC= 1.00D-01 BMatC= 1.94D-06 BMatP= 5.25D-06
 IDIUse=1 WtCom= 1.00D+00 WtEn= 0.00D+00
 Coeff-Com:  0.146D-02-0.185D-02 0.444D-03 0.319D-02-0.770D-01-0.275D+00
 Coeff-Com:  0.304D+00 0.105D+01
 Coeff:      0.146D-02-0.185D-02 0.444D-03 0.319D-02-0.770D-01-0.275D+00
 Coeff:      0.304D+00 0.105D+01
 Gap=     0.058 Goal=   None    Shift=    0.000
 Gap=     0.031 Goal=   None    Shift=    0.000
 RMSDP=3.58D-04 MaxDP=2.88D-02 DE=-1.75D-05 OVMax= 9.45D-03

 Cycle   9  Pass 1  IDiag  1:
 E= -1136.09981781522     Delta-E=       -0.000010479073 Rises=F Damp=F
 DIIS: error= 3.44D-05 at cycle   9 NSaved=   9.
 NSaved= 9 IEnMin= 9 EnMin= -1136.09981781522     IErMin= 9 ErrMin= 3.44D-05
 ErrMax= 3.44D-05  0.00D+00 EMaxC= 1.00D-01 BMatC= 3.38D-07 BMatP= 1.94D-06
 IDIUse=1 WtCom= 1.00D+00 WtEn= 0.00D+00
 Coeff-Com:  0.440D-03-0.530D-03 0.417D-02 0.653D-02-0.271D-01-0.120D+00
 Coeff-Com: -0.441D-01 0.311D+00 0.870D+00
 Coeff:      0.440D-03-0.530D-03 0.417D-02 0.653D-02-0.271D-01-0.120D+00
 Coeff:     -0.441D-01 0.311D+00 0.870D+00
 Gap=     0.058 Goal=   None    Shift=    0.000
 Gap=     0.031 Goal=   None    Shift=    0.000
 RMSDP=1.88D-04 MaxDP=2.19D-02 DE=-1.05D-05 OVMax= 3.24D-03

 Cycle  10  Pass 1  IDiag  1:
 E= -1136.09981924577     Delta-E=       -0.000001430542 Rises=F Damp=F
 DIIS: error= 1.49D-05 at cycle  10 NSaved=  10.
 NSaved=10 IEnMin=10 EnMin= -1136.09981924577     IErMin=10 ErrMin= 1.49D-05
 ErrMax= 1.49D-05  0.00D+00 EMaxC= 1.00D-01 BMatC= 1.05D-07 BMatP= 3.38D-07
 IDIUse=1 WtCom= 1.00D+00 WtEn= 0.00D+00
 Coeff-Com: -0.698D-04 0.114D-03 0.205D-02 0.295D-02-0.112D-02-0.117D-01
 Coeff-Com: -0.670D-01-0.206D-01 0.409D+00 0.686D+00
 Coeff:     -0.698D-04 0.114D-03 0.205D-02 0.295D-02-0.112D-02-0.117D-01
 Coeff:     -0.670D-01-0.206D-01 0.409D+00 0.686D+00
 Gap=     0.058 Goal=   None    Shift=    0.000
 Gap=     0.031 Goal=   None    Shift=    0.000
 RMSDP=6.76D-05 MaxDP=5.77D-03 DE=-1.43D-06 OVMax= 1.23D-03

 Cycle  11  Pass 1  IDiag  1:
 E= -1136.09981954120     Delta-E=       -0.000000295431 Rises=F Damp=F
 DIIS: error= 7.58D-06 at cycle  11 NSaved=  11.
 NSaved=11 IEnMin=11 EnMin= -1136.09981954120     IErMin=11 ErrMin= 7.58D-06
 ErrMax= 7.58D-06  0.00D+00 EMaxC= 1.00D-01 BMatC= 2.15D-08 BMatP= 1.05D-07
 IDIUse=1 WtCom= 1.00D+00 WtEn= 0.00D+00
 Coeff-Com: -0.229D-03 0.301D-03-0.440D-03-0.877D-03 0.864D-02 0.411D-01
 Coeff-Com: -0.752D-02-0.112D+00-0.202D+00 0.146D+00 0.113D+01
 Coeff:     -0.229D-03 0.301D-03-0.440D-03-0.877D-03 0.864D-02 0.411D-01
 Coeff:     -0.752D-02-0.112D+00-0.202D+00 0.146D+00 0.113D+01
 Gap=     0.058 Goal=   None    Shift=    0.000
 Gap=     0.031 Goal=   None    Shift=    0.000
 RMSDP=7.99D-05 MaxDP=8.58D-03 DE=-2.95D-07 OVMax= 1.21D-03

 Cycle  12  Pass 1  IDiag  1:
 E= -1136.09981968283     Delta-E=       -0.000000141631 Rises=F Damp=F
 DIIS: error= 3.90D-06 at cycle  12 NSaved=  12.
 NSaved=12 IEnMin=12 EnMin= -1136.09981968283     IErMin=12 ErrMin= 3.90D-06
 ErrMax= 3.90D-06  0.00D+00 EMaxC= 1.00D-01 BMatC= 4.91D-09 BMatP= 2.15D-08
 IDIUse=1 WtCom= 1.00D+00 WtEn= 0.00D+00
 Coeff-Com: -0.393D-04 0.476D-04-0.642D-03-0.582D-03 0.654D-03 0.999D-02
 Coeff-Com:  0.708D-02-0.144D-01-0.102D+00-0.654D-01 0.197D+00 0.968D+00
 Coeff:     -0.393D-04 0.476D-04-0.642D-03-0.582D-03 0.654D-03 0.999D-02
 Coeff:      0.708D-02-0.144D-01-0.102D+00-0.654D-01 0.197D+00 0.968D+00
 Gap=     0.058 Goal=   None    Shift=    0.000
 Gap=     0.031 Goal=   None    Shift=    0.000
 RMSDP=2.14D-05 MaxDP=2.62D-03 DE=-1.42D-07 OVMax= 4.95D-04

 Cycle  13  Pass 1  IDiag  1:
 E= -1136.09981971366     Delta-E=       -0.000000030837 Rises=F Damp=F
 DIIS: error= 1.67D-06 at cycle  13 NSaved=  13.
 NSaved=13 IEnMin=13 EnMin= -1136.09981971366     IErMin=13 ErrMin= 1.67D-06
 ErrMax= 1.67D-06  0.00D+00 EMaxC= 1.00D-01 BMatC= 1.58D-09 BMatP= 4.91D-09
 IDIUse=1 WtCom= 1.00D+00 WtEn= 0.00D+00
 Coeff-Com:  0.298D-04-0.399D-04-0.212D-03 0.349D-04-0.233D-02-0.718D-02
 Coeff-Com:  0.593D-02 0.225D-01 0.118D-01-0.428D-01-0.254D+00 0.305D+00
 Coeff-Com:  0.961D+00
 Coeff:      0.298D-04-0.399D-04-0.212D-03 0.349D-04-0.233D-02-0.718D-02
 Coeff:      0.593D-02 0.225D-01 0.118D-01-0.428D-01-0.254D+00 0.305D+00
 Coeff:      0.961D+00
 Gap=     0.058 Goal=   None    Shift=    0.000
 Gap=     0.031 Goal=   None    Shift=    0.000
 RMSDP=1.46D-05 MaxDP=1.68D-03 DE=-3.08D-08 OVMax= 3.46D-04

 Cycle  14  Pass 1  IDiag  1:
 E= -1136.09981972548     Delta-E=       -0.000000011813 Rises=F Damp=F
 DIIS: error= 9.53D-07 at cycle  14 NSaved=  14.
 NSaved=14 IEnMin=14 EnMin= -1136.09981972548     IErMin=14 ErrMin= 9.53D-07
 ErrMax= 9.53D-07  0.00D+00 EMaxC= 1.00D-01 BMatC= 3.64D-10 BMatP= 1.58D-09
 IDIUse=1 WtCom= 1.00D+00 WtEn= 0.00D+00
 Coeff-Com:  0.389D-05-0.366D-05 0.723D-04 0.129D-03-0.397D-03-0.245D-02
 Coeff-Com: -0.904D-03 0.539D-02 0.221D-01 0.112D-01-0.493D-01-0.230D+00
 Coeff-Com: -0.816D-01 0.133D+01
 Coeff:      0.389D-05-0.366D-05 0.723D-04 0.129D-03-0.397D-03-0.245D-02
 Coeff:     -0.904D-03 0.539D-02 0.221D-01 0.112D-01-0.493D-01-0.230D+00
 Coeff:     -0.816D-01 0.133D+01
 Gap=     0.058 Goal=   None    Shift=    0.000
 Gap=     0.031 Goal=   None    Shift=    0.000
 RMSDP=1.16D-05 MaxDP=7.93D-04 DE=-1.18D-08 OVMax= 2.54D-04

 Cycle  15  Pass 1  IDiag  1:
 E= -1136.09981973002     Delta-E=       -0.000000004544 Rises=F Damp=F
 DIIS: error= 7.16D-07 at cycle  15 NSaved=  15.
 NSaved=15 IEnMin=15 EnMin= -1136.09981973002     IErMin=15 ErrMin= 7.16D-07
 ErrMax= 7.16D-07  0.00D+00 EMaxC= 1.00D-01 BMatC= 9.76D-11 BMatP= 3.64D-10
 IDIUse=1 WtCom= 1.00D+00 WtEn= 0.00D+00
 Coeff-Com: -0.119D-04 0.164D-04 0.904D-04 0.405D-04 0.678D-03 0.213D-02
 Coeff-Com: -0.253D-02-0.582D-02-0.900D-03 0.217D-01 0.754D-01-0.151D+00
 Coeff-Com: -0.319D+00 0.198D+00 0.118D+01
 Coeff:     -0.119D-04 0.164D-04 0.904D-04 0.405D-04 0.678D-03 0.213D-02
 Coeff:     -0.253D-02-0.582D-02-0.900D-03 0.217D-01 0.754D-01-0.151D+00
 Coeff:     -0.319D+00 0.198D+00 0.118D+01
 Gap=     0.058 Goal=   None    Shift=    0.000
 Gap=     0.031 Goal=   None    Shift=    0.000
 RMSDP=7.83D-06 MaxDP=4.48D-04 DE=-4.54D-09 OVMax= 1.41D-04

 Cycle  16  Pass 1  IDiag  1:
 E= -1136.09981973121     Delta-E=       -0.000000001185 Rises=F Damp=F
 DIIS: error= 2.26D-07 at cycle  16 NSaved=  16.
 NSaved=16 IEnMin=16 EnMin= -1136.09981973121     IErMin=16 ErrMin= 2.26D-07
 ErrMax= 2.26D-07  0.00D+00 EMaxC= 1.00D-01 BMatC= 1.48D-11 BMatP= 9.76D-11
 IDIUse=1 WtCom= 1.00D+00 WtEn= 0.00D+00
 Coeff-Com: -0.578D-05 0.756D-05-0.273D-04-0.219D-04 0.982D-04 0.728D-03
 Coeff-Com:  0.211D-03-0.163D-02-0.511D-02-0.258D-02 0.706D-02 0.666D-01
 Coeff-Com:  0.394D-01-0.303D+00-0.997D-01 0.130D+01
 Coeff:     -0.578D-05 0.756D-05-0.273D-04-0.219D-04 0.982D-04 0.728D-03
 Coeff:      0.211D-03-0.163D-02-0.511D-02-0.258D-02 0.706D-02 0.666D-01
 Coeff:      0.394D-01-0.303D+00-0.997D-01 0.130D+01
 Gap=     0.058 Goal=   None    Shift=    0.000
 Gap=     0.031 Goal=   None    Shift=    0.000
 RMSDP=3.06D-06 MaxDP=1.85D-04 DE=-1.18D-09 OVMax= 4.96D-05

 Cycle  17  Pass 1  IDiag  1:
 E= -1136.09981973135     Delta-E=       -0.000000000148 Rises=F Damp=F
 DIIS: error= 6.64D-08 at cycle  17 NSaved=  17.
 NSaved=17 IEnMin=17 EnMin= -1136.09981973135     IErMin=17 ErrMin= 6.64D-08
 ErrMax= 6.64D-08  0.00D+00 EMaxC= 1.00D-01 BMatC= 2.82D-12 BMatP= 1.48D-11
 IDIUse=1 WtCom= 1.00D+00 WtEn= 0.00D+00
 Coeff-Com: -0.901D-06 0.114D-05-0.234D-04-0.758D-05-0.688D-04-0.963D-04
 Coeff-Com:  0.204D-03 0.235D-03 0.107D-03-0.294D-02-0.105D-01 0.280D-01
 Coeff-Com:  0.497D-01-0.697D-01-0.194D+00 0.237D+00 0.962D+00
 Coeff:     -0.901D-06 0.114D-05-0.234D-04-0.758D-05-0.688D-04-0.963D-04
 Coeff:      0.204D-03 0.235D-03 0.107D-03-0.294D-02-0.105D-01 0.280D-01
 Coeff:      0.497D-01-0.697D-01-0.194D+00 0.237D+00 0.962D+00
 Gap=     0.058 Goal=   None    Shift=    0.000
 Gap=     0.031 Goal=   None    Shift=    0.000
 RMSDP=8.88D-07 MaxDP=6.95D-05 DE=-1.48D-10 OVMax= 1.59D-05

 Cycle  18  Pass 1  IDiag  1:
 E= -1136.09981973137     Delta-E=       -0.000000000014 Rises=F Damp=F
 DIIS: error= 2.66D-08 at cycle  18 NSaved=  18.
 NSaved=18 IEnMin=18 EnMin= -1136.09981973137     IErMin=18 ErrMin= 2.66D-08
 ErrMax= 2.66D-08  0.00D+00 EMaxC= 1.00D-01 BMatC= 3.35D-13 BMatP= 2.82D-12
 IDIUse=1 WtCom= 1.00D+00 WtEn= 0.00D+00
 Coeff-Com:  0.500D-06-0.638D-06-0.205D-05-0.513D-06-0.186D-04-0.590D-04
 Coeff-Com: -0.303D-04 0.193D-03 0.381D-03 0.348D-03-0.196D-02-0.412D-02
 Coeff-Com: -0.619D-03 0.269D-01 0.104D-01-0.171D+00 0.511D-01 0.109D+01
 Coeff:      0.500D-06-0.638D-06-0.205D-05-0.513D-06-0.186D-04-0.590D-04
 Coeff:     -0.303D-04 0.193D-03 0.381D-03 0.348D-03-0.196D-02-0.412D-02
 Coeff:     -0.619D-03 0.269D-01 0.104D-01-0.171D+00 0.511D-01 0.109D+01
 Gap=     0.058 Goal=   None    Shift=    0.000
 Gap=     0.031 Goal=   None    Shift=    0.000
 RMSDP=3.62D-07 MaxDP=3.61D-05 DE=-1.41D-11 OVMax= 6.18D-06

 Cycle  19  Pass 1  IDiag  1:
 E= -1136.09981973139     Delta-E=       -0.000000000018 Rises=F Damp=F
 DIIS: error= 2.18D-08 at cycle  19 NSaved=  19.
 NSaved=19 IEnMin=19 EnMin= -1136.09981973139     IErMin=19 ErrMin= 2.18D-08
 ErrMax= 2.18D-08  0.00D+00 EMaxC= 1.00D-01 BMatC= 1.12D-13 BMatP= 3.35D-13
 IDIUse=1 WtCom= 1.00D+00 WtEn= 0.00D+00
 Coeff-Com: -0.425D-06 0.583D-06 0.309D-06-0.549D-06 0.220D-04 0.990D-04
 Coeff-Com: -0.261D-04-0.212D-03-0.392D-03 0.380D-03 0.285D-02-0.215D-02
 Coeff-Com: -0.864D-02 0.198D-02 0.279D-01 0.643D-02-0.182D+00-0.120D+00
 Coeff-Com:  0.127D+01
 Coeff:     -0.425D-06 0.583D-06 0.309D-06-0.549D-06 0.220D-04 0.990D-04
 Coeff:     -0.261D-04-0.212D-03-0.392D-03 0.380D-03 0.285D-02-0.215D-02
 Coeff:     -0.864D-02 0.198D-02 0.279D-01 0.643D-02-0.182D+00-0.120D+00
 Coeff:      0.127D+01
 Gap=     0.058 Goal=   None    Shift=    0.000
 Gap=     0.031 Goal=   None    Shift=    0.000
 RMSDP=1.74D-07 MaxDP=1.26D-05 DE=-1.82D-11 OVMax= 3.01D-06

 Cycle  20  Pass 1  IDiag  1:
 E= -1136.09981973138     Delta-E=        0.000000000007 Rises=F Damp=F
 DIIS: error= 6.90D-09 at cycle  20 NSaved=  20.
 NSaved=20 IEnMin=19 EnMin= -1136.09981973139     IErMin=20 ErrMin= 6.90D-09
 ErrMax= 6.90D-09  0.00D+00 EMaxC= 1.00D-01 BMatC= 2.37D-14 BMatP= 1.12D-13
 IDIUse=1 WtCom= 1.00D+00 WtEn= 0.00D+00
 Coeff-Com: -0.251D-06 0.332D-06-0.232D-06 0.330D-06 0.107D-05 0.120D-04
 Coeff-Com:  0.241D-04-0.315D-04-0.156D-03-0.864D-04 0.226D-03 0.183D-02
 Coeff-Com:  0.743D-03-0.963D-02-0.104D-02 0.450D-01-0.237D-01-0.279D+00
 Coeff-Com:  0.240D-01 0.124D+01
 Coeff:     -0.251D-06 0.332D-06-0.232D-06 0.330D-06 0.107D-05 0.120D-04
 Coeff:      0.241D-04-0.315D-04-0.156D-03-0.864D-04 0.226D-03 0.183D-02
 Coeff:      0.743D-03-0.963D-02-0.104D-02 0.450D-01-0.237D-01-0.279D+00
 Coeff:      0.240D-01 0.124D+01
 Gap=     0.058 Goal=   None    Shift=    0.000
 Gap=     0.031 Goal=   None    Shift=    0.000
 RMSDP=1.16D-07 MaxDP=8.43D-06 DE= 6.82D-12 OVMax= 2.15D-06

 Cycle  21  Pass 1  IDiag  1:
 E= -1136.09981973138     Delta-E=       -0.000000000001 Rises=F Damp=F
 DIIS: error= 3.56D-09 at cycle  21 NSaved=  20.
 NSaved=20 IEnMin=18 EnMin= -1136.09981973139     IErMin=20 ErrMin= 3.56D-09
 ErrMax= 3.56D-09  0.00D+00 EMaxC= 1.00D-01 BMatC= 4.28D-15 BMatP= 2.37D-14
 IDIUse=1 WtCom= 1.00D+00 WtEn= 0.00D+00
 Large coefficients: NSaved= 20 BigCof=    0.00 CofMax=   10.00 Det=-3.18D-15
 Inversion failed.  Reducing to 19 matrices.
 Large coefficients: NSaved= 19 BigCof=    0.00 CofMax=   10.00 Det=-3.21D-15
 Inversion failed.  Reducing to 18 matrices.
 Large coefficients: NSaved= 18 BigCof=    0.00 CofMax=   10.00 Det=-3.30D-15
 Inversion failed.  Reducing to 17 matrices.
 Large coefficients: NSaved= 17 BigCof=    0.00 CofMax=   10.00 Det=-3.43D-15
 Inversion failed.  Reducing to 16 matrices.
 Large coefficients: NSaved= 16 BigCof=    0.00 CofMax=   10.00 Det=-3.43D-15
 Inversion failed.  Reducing to 15 matrices.
 Coeff-Com: -0.563D-05-0.171D-05 0.156D-04 0.364D-04-0.675D-04-0.144D-03
 Coeff-Com:  0.200D-04 0.119D-02-0.106D-02-0.683D-02 0.131D-01 0.873D-01
 Coeff-Com: -0.221D+00-0.213D+00 0.134D+01
 Coeff:     -0.563D-05-0.171D-05 0.156D-04 0.364D-04-0.675D-04-0.144D-03
 Coeff:      0.200D-04 0.119D-02-0.106D-02-0.683D-02 0.131D-01 0.873D-01
 Coeff:     -0.221D+00-0.213D+00 0.134D+01
 Gap=     0.058 Goal=   None    Shift=    0.000
 Gap=     0.031 Goal=   None    Shift=    0.000
 RMSDP=4.75D-08 MaxDP=2.62D-06 DE=-1.36D-12 OVMax= 8.54D-07

 Cycle  22  Pass 1  IDiag  1:
 E= -1136.09981973137     Delta-E=        0.000000000007 Rises=F Damp=F
 DIIS: error= 1.55D-09 at cycle  22 NSaved=  16.
 NSaved=16 IEnMin=13 EnMin= -1136.09981973139     IErMin=16 ErrMin= 1.55D-09
 ErrMax= 1.55D-09  0.00D+00 EMaxC= 1.00D-01 BMatC= 9.62D-16 BMatP= 4.28D-15
 IDIUse=1 WtCom= 1.00D+00 WtEn= 0.00D+00
 Large coefficients: NSaved= 16 BigCof=    0.00 CofMax=   10.00 Det=-1.09D-15
 Inversion failed.  Reducing to 15 matrices.
 Coeff-Com:  0.992D-06-0.253D-06 0.789D-05-0.335D-04-0.149D-03 0.692D-04
 Coeff-Com:  0.880D-03-0.370D-03-0.491D-02 0.552D-02 0.459D-01-0.603D-01
 Coeff-Com: -0.198D+00 0.342D+00 0.869D+00
 Coeff:      0.992D-06-0.253D-06 0.789D-05-0.335D-04-0.149D-03 0.692D-04
 Coeff:      0.880D-03-0.370D-03-0.491D-02 0.552D-02 0.459D-01-0.603D-01
 Coeff:     -0.198D+00 0.342D+00 0.869D+00
 Gap=     0.058 Goal=   None    Shift=    0.000
 Gap=     0.031 Goal=   None    Shift=    0.000
 RMSDP=1.71D-08 MaxDP=9.76D-07 DE= 6.82D-12 OVMax= 2.48D-07

 Cycle  23  Pass 1  IDiag  1:
 E= -1136.09981973137     Delta-E=        0.000000000006 Rises=F Damp=F
 DIIS: error= 1.03D-09 at cycle  23 NSaved=  16.
 NSaved=16 IEnMin=12 EnMin= -1136.09981973139     IErMin=16 ErrMin= 1.03D-09
 ErrMax= 1.03D-09  0.00D+00 EMaxC= 1.00D-01 BMatC= 4.87D-16 BMatP= 9.62D-16
 IDIUse=1 WtCom= 1.00D+00 WtEn= 0.00D+00
 Large coefficients: NSaved= 16 BigCof=    0.00 CofMax=   10.00 Det=-6.24D-16
 Inversion failed.  Reducing to 15 matrices.
 Coeff-Com: -0.651D-05 0.515D-05 0.454D-04-0.532D-04-0.662D-04 0.260D-03
 Coeff-Com:  0.743D-03-0.249D-02-0.284D-02 0.145D-01 0.516D-01-0.985D-01
 Coeff-Com: -0.224D+00 0.488D+00 0.773D+00
 Coeff:     -0.651D-05 0.515D-05 0.454D-04-0.532D-04-0.662D-04 0.260D-03
 Coeff:      0.743D-03-0.249D-02-0.284D-02 0.145D-01 0.516D-01-0.985D-01
 Coeff:     -0.224D+00 0.488D+00 0.773D+00
 Gap=     0.058 Goal=   None    Shift=    0.000
 Gap=     0.031 Goal=   None    Shift=    0.000
 RMSDP=1.24D-08 MaxDP=1.09D-06 DE= 5.91D-12 OVMax= 9.23D-08

 Cycle  24  Pass 1  IDiag  1:
 E= -1136.09981973137     Delta-E=       -0.000000000006 Rises=F Damp=F
 DIIS: error= 4.46D-10 at cycle  24 NSaved=  16.
 NSaved=16 IEnMin=11 EnMin= -1136.09981973139     IErMin=16 ErrMin= 4.46D-10
 ErrMax= 4.46D-10  0.00D+00 EMaxC= 1.00D-01 BMatC= 1.08D-16 BMatP= 4.87D-16
 IDIUse=1 WtCom= 1.00D+00 WtEn= 0.00D+00
 Large coefficients: NSaved= 16 BigCof=    0.00 CofMax=   10.00 Det=-3.02D-16
 Inversion failed.  Reducing to 15 matrices.
 Coeff-Com:  0.240D-05 0.222D-04-0.693D-04-0.114D-03 0.122D-03 0.539D-03
 Coeff-Com: -0.359D-03-0.310D-02-0.572D-02 0.372D-01-0.244D-02-0.212D+00
 Coeff-Com:  0.673D-01 0.323D+00 0.796D+00
 Coeff:      0.240D-05 0.222D-04-0.693D-04-0.114D-03 0.122D-03 0.539D-03
 Coeff:     -0.359D-03-0.310D-02-0.572D-02 0.372D-01-0.244D-02-0.212D+00
 Coeff:      0.673D-01 0.323D+00 0.796D+00
 Gap=     0.058 Goal=   None    Shift=    0.000
 Gap=     0.031 Goal=   None    Shift=    0.000
 RMSDP=8.27D-09 MaxDP=6.99D-07 DE=-6.37D-12 OVMax= 1.16D-07

 SCF Done:  E(UB3LYP) =  -1136.09981973     A.U. after   24 cycles
            NFock= 24  Conv=0.83D-08     -V/T= 2.0026
 <Sx>= 0.0000 <Sy>= 0.0000 <Sz>= 0.5000 <S**2>= 0.7923 S= 0.5209
 <L.S>= 0.000000000000E+00
 KE= 1.133156481024D+03 PE=-3.389844335396D+03 EE= 7.903642733820D+02
 Annihilation of the first spin contaminant:
 S**2 before annihilation     0.7923,   after     0.7507
 Leave Link  502 at Mon Nov 13 17:48:23 2023, MaxMem=  1879048192 cpu:             233.6 elap:              19.9
 (Enter /home/sekinelabo/g16/l601.exe)
 Copying SCF densities to generalized density rwf, IOpCl= 1 IROHF=0.

 **********************************************************************

            Population analysis using the SCF Density.

 **********************************************************************

 Orbital symmetries:
 Alpha Orbitals:
       Occupied  (A) (A) (A) (A) (A) (A) (A) (A) (A) (A) (A) (A)
                 (A) (A) (A) (A) (A) (A) (A) (A) (A) (A) (A) (A)
                 (A) (A) (A) (A) (A) (A) (A) (A) (A) (A) (A) (A)
                 (A) (A) (A)
       Virtual   (A) (A) (A) (A) (A) (A) (A) (A) (A) (A) (A) (A)
                 (A) (A) (A) (A) (A) (A) (A) (A) (A) (A) (A) (A)
                 (A) (A) (A) (A) (A) (A) (A) (A) (A) (A) (A) (A)
                 (A) (A) (A) (A) (A) (A) (A) (A) (A) (A) (A) (A)
                 (A) (A) (A) (A) (A) (A) (A) (A) (A) (A) (A) (A)
                 (A) (A) (A) (A) (A) (A) (A) (A) (A) (A) (A) (A)
                 (A) (A) (A) (A) (A) (A) (A) (A) (A) (A) (A) (A)
                 (A) (A) (A) (A) (A) (A) (A) (A) (A) (A) (A) (A)
                 (A) (A) (A) (A) (A) (A) (A) (A) (A) (A) (A) (A)
                 (A) (A) (A) (A) (A) (A) (A) (A) (A) (A) (A) (A)
                 (A) (A) (A) (A) (A) (A) (A) (A) (A) (A) (A) (A)
                 (A) (A) (A) (A) (A) (A) (A) (A) (A) (A) (A) (A)
                 (A) (A) (A) (A) (A) (A) (A) (A) (A) (A) (A) (A)
                 (A) (A) (A) (A) (A) (A) (A) (A) (A) (A) (A) (A)
                 (A) (A) (A)
 Beta  Orbitals:
       Occupied  (A) (A) (A) (A) (A) (A) (A) (A) (A) (A) (A) (A)
                 (A) (A) (A) (A) (A) (A) (A) (A) (A) (A) (A) (A)
                 (A) (A) (A) (A) (A) (A) (A) (A) (A) (A) (A) (A)
                 (A) (A)
       Virtual   (A) (A) (A) (A) (A) (A) (A) (A) (A) (A) (A) (A)
                 (A) (A) (A) (A) (A) (A) (A) (A) (A) (A) (A) (A)
                 (A) (A) (A) (A) (A) (A) (A) (A) (A) (A) (A) (A)
                 (A) (A) (A) (A) (A) (A) (A) (A) (A) (A) (A) (A)
                 (A) (A) (A) (A) (A) (A) (A) (A) (A) (A) (A) (A)
                 (A) (A) (A) (A) (A) (A) (A) (A) (A) (A) (A) (A)
                 (A) (A) (A) (A) (A) (A) (A) (A) (A) (A) (A) (A)
                 (A) (A) (A) (A) (A) (A) (A) (A) (A) (A) (A) (A)
                 (A) (A) (A) (A) (A) (A) (A) (A) (A) (A) (A) (A)
                 (A) (A) (A) (A) (A) (A) (A) (A) (A) (A) (A) (A)
                 (A) (A) (A) (A) (A) (A) (A) (A) (A) (A) (A) (A)
                 (A) (A) (A) (A) (A) (A) (A) (A) (A) (A) (A) (A)
                 (A) (A) (A) (A) (A) (A) (A) (A) (A) (A) (A) (A)
                 (A) (A) (A) (A) (A) (A) (A) (A) (A) (A) (A) (A)
                 (A) (A) (A) (A)
 The electronic state is 2-A.
 Alpha  occ. eigenvalues --  -38.44827 -38.44312 -38.44176 -38.43842 -38.43497
 Alpha  occ. eigenvalues --  -38.43418 -38.43310  -2.20667  -2.20210  -2.20167
 Alpha  occ. eigenvalues --   -2.19812  -2.19507  -2.19402  -2.19324  -1.14348
 Alpha  occ. eigenvalues --   -1.14281  -1.14277  -1.13978  -1.13909  -1.13855
 Alpha  occ. eigenvalues --   -1.13838  -1.13824  -1.13809  -1.13558  -1.13467
 Alpha  occ. eigenvalues --   -1.13423  -1.13263  -1.13210  -1.13154  -1.13045
 Alpha  occ. eigenvalues --   -1.13030  -1.12994  -1.12954  -1.12945  -1.12918
 Alpha  occ. eigenvalues --   -0.18350  -0.14881  -0.11780  -0.11428
 Alpha virt. eigenvalues --   -0.05662  -0.05249  -0.04626  -0.03405  -0.02761
 Alpha virt. eigenvalues --   -0.02175  -0.02052  -0.01039  -0.00866  -0.00002
 Alpha virt. eigenvalues --    0.00167   0.00205   0.00282   0.00538   0.00714
 Alpha virt. eigenvalues --    0.00910   0.00960   0.01024   0.01143   0.01375
 Alpha virt. eigenvalues --    0.01446   0.01594   0.01764   0.01791   0.01913
 Alpha virt. eigenvalues --    0.02289   0.02411   0.02497   0.02572   0.02666
 Alpha virt. eigenvalues --    0.02773   0.02827   0.02889   0.02989   0.03050
 Alpha virt. eigenvalues --    0.03204   0.03226   0.03425   0.03516   0.03665
 Alpha virt. eigenvalues --    0.03939   0.04019   0.04188   0.04403   0.04835
 Alpha virt. eigenvalues --    0.05155   0.05341   0.05465   0.05612   0.05858
 Alpha virt. eigenvalues --    0.06335   0.06859   0.07135   0.07286   0.07466
 Alpha virt. eigenvalues --    0.07492   0.08014   0.08387   0.08484   0.08701
 Alpha virt. eigenvalues --    0.08993   0.09225   0.09449   0.09909   0.10937
 Alpha virt. eigenvalues --    0.11389   0.12211   0.12584   0.13026   0.13228
 Alpha virt. eigenvalues --    0.13451   0.13539   0.14531   0.14717   0.15140
 Alpha virt. eigenvalues --    0.15389   0.16098   0.16343   0.18015   0.18810
 Alpha virt. eigenvalues --    0.25719   0.26649   0.28245   0.28993   0.29318
 Alpha virt. eigenvalues --    0.30111   0.30740   0.31650   0.32599   0.33626
 Alpha virt. eigenvalues --    0.33947   0.34994   0.35821   0.36638   0.37127
 Alpha virt. eigenvalues --    0.37980   0.38439   0.39546   0.40569   0.41447
 Alpha virt. eigenvalues --    0.42394   0.42932   0.43306   0.43738   0.44339
 Alpha virt. eigenvalues --    0.44649   0.45002   0.45204   0.45661   0.45800
 Alpha virt. eigenvalues --    0.46432   0.46512   0.47095   0.47200   0.48549
 Alpha virt. eigenvalues --    0.49003   0.49569   0.49767   0.50383   0.50933
 Alpha virt. eigenvalues --    0.51293   0.51809   0.53762   0.55460   0.55821
 Alpha virt. eigenvalues --    0.57697   0.58312   0.65724   0.66976   0.67448
 Alpha virt. eigenvalues --    0.70585   0.71776   0.74187   0.76979   0.78063
 Alpha virt. eigenvalues --    0.81764   2.08252   2.11246   2.14299   2.17005
 Alpha virt. eigenvalues --    2.21784   2.23010   2.33121   4.40580   4.40999
 Alpha virt. eigenvalues --    4.42307   4.43262   4.43756   4.44319   4.44521
 Alpha virt. eigenvalues --    4.45350   4.46013   4.46365   4.46716   4.47314
 Alpha virt. eigenvalues --    4.51085   4.55238   4.57237   4.62706   4.65257
 Alpha virt. eigenvalues --    4.67182   4.73357   4.76768   4.78149  96.28896
 Alpha virt. eigenvalues --   96.32846  96.36877  96.40609  96.47311  96.48628
 Alpha virt. eigenvalues --   96.61270
  Beta  occ. eigenvalues --  -38.44722 -38.44277 -38.44157 -38.43833 -38.43467
  Beta  occ. eigenvalues --  -38.43387 -38.43292  -2.20473  -2.20147  -2.20137
  Beta  occ. eigenvalues --   -2.19808  -2.19479  -2.19348  -2.19269  -1.14220
  Beta  occ. eigenvalues --   -1.14149  -1.14145  -1.13934  -1.13886  -1.13821
  Beta  occ. eigenvalues --   -1.13795  -1.13784  -1.13778  -1.13547  -1.13428
  Beta  occ. eigenvalues --   -1.13401  -1.13224  -1.13191  -1.13119  -1.13001
  Beta  occ. eigenvalues --   -1.12992  -1.12958  -1.12921  -1.12907  -1.12881
  Beta  occ. eigenvalues --   -0.17843  -0.14135  -0.11174
  Beta virt. eigenvalues --   -0.08041  -0.05499  -0.04780  -0.04334  -0.03201
  Beta virt. eigenvalues --   -0.02427  -0.01741  -0.01582  -0.00906  -0.00498
  Beta virt. eigenvalues --    0.00205   0.00271   0.00331   0.00473   0.00606
  Beta virt. eigenvalues --    0.00751   0.00946   0.01024   0.01042   0.01171
  Beta virt. eigenvalues --    0.01429   0.01544   0.01678   0.01789   0.01937
  Beta virt. eigenvalues --    0.01977   0.02451   0.02476   0.02533   0.02656
  Beta virt. eigenvalues --    0.02705   0.02802   0.02885   0.02900   0.03030
  Beta virt. eigenvalues --    0.03095   0.03244   0.03277   0.03486   0.03588
  Beta virt. eigenvalues --    0.03670   0.04048   0.04085   0.04279   0.04497
  Beta virt. eigenvalues --    0.04861   0.05249   0.05410   0.05491   0.05657
  Beta virt. eigenvalues --    0.05954   0.06370   0.06977   0.07187   0.07454
  Beta virt. eigenvalues --    0.07575   0.07607   0.08166   0.08517   0.08827
  Beta virt. eigenvalues --    0.08846   0.09207   0.09430   0.09652   0.10133
  Beta virt. eigenvalues --    0.11052   0.11493   0.12218   0.12852   0.13148
  Beta virt. eigenvalues --    0.13290   0.13552   0.13649   0.14709   0.14919
  Beta virt. eigenvalues --    0.15317   0.15513   0.16202   0.16571   0.18141
  Beta virt. eigenvalues --    0.19073   0.26017   0.26881   0.28575   0.29143
  Beta virt. eigenvalues --    0.29744   0.30279   0.31247   0.31942   0.32779
  Beta virt. eigenvalues --    0.33984   0.34442   0.35646   0.36349   0.37251
  Beta virt. eigenvalues --    0.37549   0.38173   0.38727   0.39744   0.40769
  Beta virt. eigenvalues --    0.41581   0.42531   0.43221   0.43548   0.44027
  Beta virt. eigenvalues --    0.44528   0.44799   0.45111   0.45297   0.45863
  Beta virt. eigenvalues --    0.45934   0.46560   0.46650   0.47292   0.47331
  Beta virt. eigenvalues --    0.48611   0.49166   0.49646   0.49866   0.50467
  Beta virt. eigenvalues --    0.51089   0.51256   0.51927   0.53938   0.55613
  Beta virt. eigenvalues --    0.56010   0.57757   0.58475   0.65874   0.67133
  Beta virt. eigenvalues --    0.67592   0.70532   0.71816   0.74305   0.77097
  Beta virt. eigenvalues --    0.78227   0.81822   2.08516   2.11493   2.14412
  Beta virt. eigenvalues --    2.17132   2.21844   2.23066   2.33173   4.40641
  Beta virt. eigenvalues --    4.41054   4.42379   4.43310   4.43793   4.44399
  Beta virt. eigenvalues --    4.44635   4.45457   4.46083   4.46426   4.46768
  Beta virt. eigenvalues --    4.47364   4.51125   4.55238   4.57280   4.62764
  Beta virt. eigenvalues --    4.65296   4.67219   4.73428   4.76815   4.78192
  Beta virt. eigenvalues --   96.28978  96.32935  96.36918  96.40652  96.47335
  Beta virt. eigenvalues --   96.48655  96.61291
          Condensed to atoms (all electrons):
               1          2          3          4          5          6
     1  Na  12.390750   0.844271   0.150990  -2.224682   0.344251  -0.124129
     2  Na   0.844271  13.950995   0.107480   0.065215  -1.566655  -3.307178
     3  Na   0.150990   0.107480  10.950124  -0.651144  -0.080309   0.233182
     4  Na  -2.224682   0.065215  -0.651144  16.406754  -3.026790  -2.122437
     5  Na   0.344251  -1.566655  -0.080309  -3.026790  21.863797  -0.094819
     6  Na  -0.124129  -3.307178   0.233182  -2.122437  -0.094819  16.613388
     7  Na  -1.185950  -0.418006  -0.041850   2.185257  -2.452373  -0.515294
               7
     1  Na  -1.185950
     2  Na  -0.418006
     3  Na  -0.041850
     4  Na   2.185257
     5  Na  -2.452373
     6  Na  -0.515294
     7  Na  12.586133
          Atomic-Atomic Spin Densities.
               1          2          3          4          5          6
     1  Na   0.187188   0.082053  -0.062074  -0.456718   0.543778  -0.077114
     2  Na   0.082053  -0.070429  -0.120796   0.226310   0.018680   0.001533
     3  Na  -0.062074  -0.120796   0.334734   0.121467   0.149597   0.110256
     4  Na  -0.456718   0.226310   0.121467   2.578121  -2.586283  -0.792783
     5  Na   0.543778   0.018680   0.149597  -2.586283   2.707299   0.544742
     6  Na  -0.077114   0.001533   0.110256  -0.792783   0.544742   0.234196
     7  Na  -0.113899   0.079680  -0.010125   0.764292  -0.948618  -0.137024
               7
     1  Na  -0.113899
     2  Na   0.079680
     3  Na  -0.010125
     4  Na   0.764292
     5  Na  -0.948618
     6  Na  -0.137024
     7  Na   0.354984
 Mulliken charges and spin densities:
               1          2
     1  Na   0.804498   0.103214
     2  Na   1.323879   0.217031
     3  Na   0.331529   0.523060
     4  Na   0.367826  -0.145595
     5  Na  -3.987101   0.429195
     6  Na   0.317287  -0.116194
     7  Na   0.842082  -0.010711
 Sum of Mulliken charges =  -0.00000   1.00000
 Mulliken charges and spin densities with hydrogens summed into heavy atoms:
               1          2
     1  Na   0.804498   0.103214
     2  Na   1.323879   0.217031
     3  Na   0.331529   0.523060
     4  Na   0.367826  -0.145595
     5  Na  -3.987101   0.429195
     6  Na   0.317287  -0.116194
     7  Na   0.842082  -0.010711
 Electronic spatial extent (au):  <R**2>=           2854.0480
 Charge=              0.0000 electrons
 Dipole moment (field-independent basis, Debye):
    X=              0.0909    Y=              0.5400    Z=             -0.0163  Tot=              0.5479
 Quadrupole moment (field-independent basis, Debye-Ang):
   XX=            -61.0398   YY=            -70.8272   ZZ=            -64.0245
   XY=              3.1570   XZ=             -0.8671   YZ=             -1.6028
 Traceless Quadrupole moment (field-independent basis, Debye-Ang):
   XX=              4.2574   YY=             -5.5300   ZZ=              1.2726
   XY=              3.1570   XZ=             -0.8671   YZ=             -1.6028
 Octapole moment (field-independent basis, Debye-Ang**2):
  XXX=             -7.8049  YYY=             19.7471  ZZZ=             -1.3703  XYY=             -2.4098
  XXY=              3.7189  XXZ=             22.9039  XZZ=              6.6228  YZZ=             -3.1891
  YYZ=            -13.2864  XYZ=             -5.5977
 Hexadecapole moment (field-independent basis, Debye-Ang**3):
 XXXX=          -2796.3001 YYYY=          -1240.5736 ZZZZ=           -779.3857 XXXY=             38.9149
 XXXZ=             31.0673 YYYX=             25.1064 YYYZ=             -0.6887 ZZZX=              5.1425
 ZZZY=            -25.9423 XXYY=           -675.7133 XXZZ=           -533.2767 YYZZ=           -309.7255
 XXYZ=            -23.6728 YYXZ=            -24.4842 ZZXY=             33.6970
 N-N= 3.302237612583D+02 E-N=-3.389844335436D+03  KE= 1.133156481024D+03
                          Isotropic Fermi Contact Couplings
        Atom                 a.u.       MegaHertz       Gauss      10(-4) cm-1
     1  Na(23)             0.11949     141.36431      50.44230      47.15406
     2  Na(23)             0.14814     175.24798      62.53284      58.45643
     3  Na(23)             0.45369     536.72848     191.51807     179.03335
     4  Na(23)            -0.08553    -101.18368     -36.10485     -33.75124
     5  Na(23)             0.02372      28.05701      10.01144       9.35881
     6  Na(23)             0.03788      44.81593      15.99144      14.94898
     7  Na(23)             0.12889     152.48219      54.40944      50.86258
 --------------------------------------------------------
       Center         ----  Spin Dipole Couplings  ----
                      3XX-RR        3YY-RR        3ZZ-RR
 --------------------------------------------------------
     1   Atom       -0.007192      0.008211     -0.001018
     2   Atom       -0.009745      0.013316     -0.003571
     3   Atom       -0.001424      0.002629     -0.001205
     4   Atom        0.029902     -0.034968      0.005067
     5   Atom       -0.014334     -0.029305      0.043638
     6   Atom       -0.016018      0.022648     -0.006630
     7   Atom        0.007505     -0.000401     -0.007104
 --------------------------------------------------------
                        XY            XZ            YZ
 --------------------------------------------------------
     1   Atom        0.008613     -0.000814     -0.012023
     2   Atom        0.014302      0.004559      0.005783
     3   Atom        0.000341     -0.003724      0.000826
     4   Atom       -0.025426      0.063650     -0.023829
     5   Atom        0.005242     -0.035873      0.023679
     6   Atom       -0.005894     -0.001596      0.022215
     7   Atom        0.007344     -0.000278     -0.003762
 --------------------------------------------------------


 ---------------------------------------------------------------------------------
              Anisotropic Spin Dipole Couplings in Principal Axis System
 ---------------------------------------------------------------------------------

       Atom             a.u.   MegaHertz   Gauss  10(-4) cm-1        Axes

              Baa    -0.0134    -1.893    -0.675    -0.631  0.6889 -0.5422 -0.4811
     1 Na(23) Bbb    -0.0053    -0.753    -0.269    -0.251  0.6660  0.2115  0.7153
              Bcc     0.0187     2.645     0.944     0.882  0.2861  0.8132 -0.5068
 
              Baa    -0.0168    -2.373    -0.847    -0.792  0.9049 -0.4036 -0.1353
     2 Na(23) Bbb    -0.0054    -0.757    -0.270    -0.252  0.0081 -0.3014  0.9535
              Bcc     0.0222     3.130     1.117     1.044  0.4256  0.8638  0.2695
 
              Baa    -0.0051    -0.724    -0.258    -0.241  0.7100 -0.1054  0.6963
     3 Na(23) Bbb     0.0022     0.308     0.110     0.103  0.6265  0.5460 -0.5562
              Bcc     0.0029     0.416     0.149     0.139 -0.3215  0.8311  0.4537
 
              Baa    -0.0485    -6.851    -2.445    -2.285 -0.4672  0.4558  0.7576
     4 Na(23) Bbb    -0.0434    -6.122    -2.185    -2.042  0.4814  0.8499 -0.2145
              Bcc     0.0919    12.973     4.629     4.327  0.7417 -0.2645  0.6164
 
              Baa    -0.0470    -6.641    -2.370    -2.215 -0.5652  0.7156 -0.4105
     5 Na(23) Bbb    -0.0177    -2.503    -0.893    -0.835  0.7253  0.6681  0.1662
              Bcc     0.0648     9.144     3.263     3.050 -0.3932  0.2038  0.8966
 
              Baa    -0.0193    -2.729    -0.974    -0.910 -0.4637 -0.4645  0.7545
     6 Na(23) Bbb    -0.0160    -2.256    -0.805    -0.753  0.8785 -0.1303  0.4597
              Bcc     0.0353     4.985     1.779     1.663 -0.1152  0.8760  0.4684
 
              Baa    -0.0094    -1.327    -0.473    -0.442 -0.2121  0.5195  0.8277
     7 Na(23) Bbb    -0.0027    -0.388    -0.139    -0.130 -0.4964  0.6724 -0.5492
              Bcc     0.0121     1.715     0.612     0.572  0.8418  0.5273 -0.1152
 

 ---------------------------------------------------------------------------------

 No NMR shielding tensors so no spin-rotation constants.
 Leave Link  601 at Mon Nov 13 17:48:23 2023, MaxMem=  1879048192 cpu:               2.5 elap:               0.2
 (Enter /home/sekinelabo/g16/l701.exe)
 ... and contract with generalized density number  0.
 Compute integral first derivatives.
 Leave Link  701 at Mon Nov 13 17:48:23 2023, MaxMem=  1879048192 cpu:               1.8 elap:               0.1
 (Enter /home/sekinelabo/g16/l702.exe)
 L702 exits ... SP integral derivatives will be done elsewhere.
 Leave Link  702 at Mon Nov 13 17:48:23 2023, MaxMem=  1879048192 cpu:               0.4 elap:               0.0
 (Enter /home/sekinelabo/g16/l703.exe)
 Integral derivatives from FoFJK, PRISM(SPDF).
 Compute integral first derivatives, UseDBF=F ICtDFT=           0.
 Calling FoFJK, ICntrl=      2127 FMM=F ISym2X=0 I1Cent= 0 IOpClX= 1 NMat=1 NMatS=1 NMatT=0.
 FoFJK:  IHMeth= 1 ICntrl=    2127 DoSepK=F KAlg= 0 I1Cent=           0 FoldK=F
 IRaf=         0 NMat=       1 IRICut=       1 DoRegI=T DoRafI=F ISym2E= 0 IDoP0=0 IntGTp=1.
 FoFCou: FMM=F IPFlag=           0 FMFlag=      100000 FMFlg1=         800
         NFxFlg=           0 DoJE=F BraDBF=F KetDBF=F FulRan=T
         wScrn=  0.000000 ICntrl=      2127 IOpCl=  1 I1Cent=           0 NGrid=           0
         NMat0=    1 NMatS0=      1 NMatT0=    0 NMatD0=    1 NMtDS0=    0 NMtDT0=    0
 Symmetry not used in FoFCou.
 Leave Link  703 at Mon Nov 13 17:48:25 2023, MaxMem=  1879048192 cpu:              34.0 elap:               2.2
 (Enter /home/sekinelabo/g16/l716.exe)
 Dipole        = 3.57790627D-02 2.12467863D-01-6.39540682D-03
 ***** Axes restored to original set *****
 -------------------------------------------------------------------
 Center     Atomic                   Forces (Hartrees/Bohr)
 Number     Number              X              Y              Z
 -------------------------------------------------------------------
      1       11           0.000514761   -0.012260336    0.000548210
      2       11           0.001044992   -0.010481604   -0.002327062
      3       11          -0.002542278    0.000228955    0.003666353
      4       11          -0.004425975    0.008385110   -0.004145674
      5       11          -0.002353245   -0.000923699    0.001789952
      6       11           0.008192191    0.005543961    0.006945249
      7       11          -0.000430447    0.009507614   -0.006477028
 -------------------------------------------------------------------
 Cartesian Forces:  Max     0.012260336 RMS     0.005700907
 Z-matrix is all fixed cartesians, so copy forces.
 Force constants in Cartesian coordinates: 
                1             2             3             4             5 
      1  0.405942D-01
      2  0.811139D-03  0.748144D-01
      3  0.136422D-01 -0.582992D-02  0.206052D-01
      4 -0.183586D-02 -0.323110D-02 -0.291274D-02  0.393948D-01
      5  0.320892D-02  0.435765D-02  0.250928D-02 -0.367780D-02  0.673473D-01
      6 -0.209997D-02 -0.192352D-02  0.215644D-03  0.484027D-02  0.159555D-01
      7  0.339731D-05 -0.117969D-04 -0.301881D-04 -0.324165D-03 -0.291715D-03
      8  0.152538D-04 -0.529674D-04 -0.135543D-03  0.396245D-02  0.335738D-02
      9  0.243434D-05 -0.845305D-05 -0.216313D-04 -0.303590D-03 -0.270456D-03
     10  0.205788D-02  0.148949D-02 -0.100286D-02 -0.115939D-01  0.239501D-02
     11  0.553723D-02  0.501196D-02 -0.688686D-03  0.160036D-01 -0.393137D-01
     12 -0.299063D-02 -0.953633D-03  0.388113D-02  0.860938D-02 -0.118594D-01
     13 -0.388489D-01 -0.539496D-02 -0.478737D-03 -0.291543D-01  0.200239D-02
     14  0.928648D-02 -0.406981D-01  0.849570D-02 -0.694305D-02 -0.403306D-01
     15 -0.274681D-02  0.443155D-02 -0.194154D-01 -0.545318D-02 -0.344315D-02
     16 -0.869738D-02  0.275087D-02 -0.900728D-02  0.339631D-02 -0.204685D-02
     17 -0.189294D-01 -0.404787D-01 -0.126369D-01 -0.527817D-02  0.518555D-02
     18 -0.809296D-02  0.321673D-02 -0.923114D-02 -0.317346D-02  0.494205D-03
     19  0.672667D-02  0.358637D-02 -0.210401D-03  0.117130D-03 -0.158995D-02
     20  0.704014D-04 -0.295422D-02  0.828606D-02 -0.835961D-03 -0.603569D-03
     21  0.228574D-02  0.106725D-02  0.396620D-02 -0.160668D-02 -0.338598D-02
                6             7             8             9            10 
      6  0.286632D-01
      7  0.538141D-03  0.186566D-01
      8 -0.589085D-02 -0.246350D-02  0.856605D-02
      9  0.494940D-03 -0.143816D-01 -0.153340D-02  0.261050D-01
     10  0.127467D-03 -0.169340D-01 -0.202228D-02  0.157768D-01  0.683347D-01
     11 -0.581839D-03  0.336718D-02 -0.123571D-01  0.228424D-02 -0.132124D-01
     12 -0.726614D-02  0.801133D-02  0.935996D-02 -0.311491D-01 -0.102716D-01
     13 -0.398392D-02 -0.139197D-02  0.552362D-03 -0.108694D-02 -0.395982D-01
     14 -0.895351D-02 -0.596132D-03  0.504804D-03 -0.469031D-03  0.919299D-02
     15 -0.320927D-01  0.582085D-02 -0.198634D-02  0.454106D-02 -0.329190D-02
     16 -0.145919D-02 -0.866275D-05 -0.388954D-04 -0.620730D-05 -0.122915D-03
     17 -0.486465D-03 -0.120613D-04 -0.541544D-04 -0.864249D-05  0.116711D-02
     18  0.331217D-02  0.261540D-04  0.117430D-03  0.187406D-04 -0.575791D-03
     19  0.203720D-02 -0.120035D-05 -0.538953D-05  0.000000D+00 -0.214356D-02
     20  0.188064D-02  0.801913D-05  0.360055D-04  0.574611D-05  0.990128D-03
     21  0.667286D-02  0.153104D-04  0.687430D-04  0.109707D-04 -0.762046D-03
               11            12            13            14            15 
     11  0.791392D-01
     12 -0.444090D-02  0.644495D-01
     13 -0.285861D-02 -0.334965D-02  0.184733D+00
     14 -0.424386D-01  0.601971D-02  0.397838D-02  0.193586D+00
     15  0.342231D-02 -0.362067D-01  0.148946D-01 -0.660861D-02  0.140787D+00
     16 -0.285720D-02 -0.286823D-02 -0.449391D-01 -0.274129D-02 -0.133036D-01
     17  0.669513D-02  0.259081D-02  0.260165D-02 -0.384674D-01 -0.911572D-02
     18  0.107433D-02  0.400080D-02 -0.118277D-02 -0.739365D-02 -0.288264D-01
     19 -0.597979D-02  0.285943D-02 -0.308009D-01 -0.121774D-01  0.408004D-02
     20  0.326320D-02 -0.716501D-03 -0.881209D-03 -0.321558D-01  0.133000D-01
     21 -0.106945D-02  0.229053D-02 -0.481254D-02  0.890940D-02 -0.287864D-01
               16            17            18            19            20 
     16  0.614519D-01
     17  0.117862D-01  0.842227D-01
     18  0.353441D-01 -0.226029D-03  0.618366D-01
     19 -0.110802D-01  0.866464D-02 -0.223452D-01  0.371820D-01
     20 -0.685289D-02 -0.171032D-01  0.271699D-02  0.750151D-02  0.495175D-01
     21 -0.869961D-02  0.198829D-01 -0.311107D-01  0.135798D-01 -0.254729D-01
               21 
     21  0.469566D-01
 Leave Link  716 at Mon Nov 13 17:48:26 2023, MaxMem=  1879048192 cpu:               0.4 elap:               0.0
 (Enter /home/sekinelabo/g16/l103.exe)

 GradGradGradGradGradGradGradGradGradGradGradGradGradGradGradGradGradGrad
 Berny optimization.
 Search for a local minimum.
 Step number   1 out of a maximum of    2
 All quantities printed in internal units (Hartrees-Bohrs-Radians)
 Second derivative matrix not updated -- first step.
 ITU=  0
     Eigenvalues ---    0.00719   0.00891   0.02252   0.02803   0.03960
     Eigenvalues ---    0.04178   0.06377   0.07592   0.08935   0.11919
     Eigenvalues ---    0.12379   0.12873   0.17672   0.22996   0.23924
 Quadratic step=4.559D-01 exceeds max=3.000D-01 adjusted using Lamda=-1.379D-02.
 Angle between NR and scaled steps=  19.10 degrees.
 Angle between quadratic step and forces=  27.73 degrees.
 Linear search not attempted -- first point.
 B after Tr=    -0.000000    0.000000   -0.000000
         Rot=    1.000000   -0.000000   -0.000000   -0.000000 Ang=   0.00 deg.
 Variable       Old X    -DE/DX   Delta X   Delta X   Delta X     New X
                                 (Linear)    (Quad)   (Total)
    X1       12.56750   0.00051   0.00000   0.04942   0.04942  12.61692
    Y1        0.00000  -0.01226   0.00000  -0.12503  -0.12503  -0.12503
    Z1        4.60041   0.00055   0.00000   0.00958   0.00958   4.60999
    X2        5.48074   0.00104   0.00000  -0.01197  -0.01197   5.46877
    Y2        0.15311  -0.01048   0.00000  -0.12000  -0.12000   0.03311
    Z2        0.00000  -0.00233   0.00000  -0.02018  -0.02018  -0.02018
    X3        0.00000  -0.00254   0.00000  -0.08339  -0.08339  -0.08339
    Y3        5.27915   0.00023   0.00000   0.05139   0.05139   5.33054
    Z3        6.01342   0.00367   0.00000   0.04748   0.04748   6.06090
    X4        3.47221  -0.00443   0.00000  -0.07672  -0.07672   3.39549
    Y4        5.22023   0.00839   0.00000   0.03106   0.03106   5.25129
    Z4        1.53688  -0.00415   0.00000  -0.05691  -0.05691   1.47997
    X5        8.85441  -0.00235   0.00000   0.00330   0.00330   8.85771
    Y5        3.83869  -0.00092   0.00000  -0.01203  -0.01203   3.82666
    Z5        2.68247   0.00179   0.00000  -0.00191  -0.00191   2.68056
    X6       13.70959   0.00819   0.00000   0.10268   0.10268  13.81227
    Y6        5.52764   0.00554   0.00000   0.03271   0.03271   5.56036
    Z6        5.06949   0.00695   0.00000   0.04673   0.04673   5.11622
    X7       11.66459  -0.00043   0.00000   0.01668   0.01668  11.68127
    Y7        8.29549   0.00951   0.00000   0.14190   0.14190   8.43739
    Z7        0.56845  -0.00648   0.00000  -0.02479  -0.02479   0.54366
         Item               Value     Threshold  Converged?
 Maximum Force            0.012260     0.000450     NO 
 RMS     Force            0.005701     0.000300     NO 
 Maximum Displacement     0.141900     0.001800     NO 
 RMS     Displacement     0.065480     0.001200     NO 
 Predicted change in Energy=-4.090598D-03
 GradGradGradGradGradGradGradGradGradGradGradGradGradGradGradGradGradGrad

 Leave Link  103 at Mon Nov 13 17:48:26 2023, MaxMem=  1879048192 cpu:               0.3 elap:               0.0
 (Enter /home/sekinelabo/g16/l9999.exe)
 1\1\GINC-SEKINELABO-XA7R-R37\Force\UB3LYP\6-311+G(d)\Na7(2)\SEKINELABO
 \13-Nov-2023\0\\#P B3LYP/6-311+g(d) force\\Gaussian input prepared by 
 ASE\\0,2\Na,6.6504369602,0.,2.4344329325\Na,2.9002820401,0.0810229302,
 0.\Na,0.,2.793607494,3.1821666969\Na,1.837412926,2.7624289883,0.813283
 7106\Na,4.6855530252,2.0313467708,1.4195001642\Na,7.2548041975,2.92510
 28086,2.6826583613\Na,6.1726362977,4.3897856934,0.3008093054\\Version=
 ES64L-G16RevB.01\State=2-A\HF=-1136.0998197\S2=0.792278\S2-1=0.\S2A=0.
 750715\RMSD=8.265e-09\RMSF=5.701e-03\Dipole=-0.0357791,-0.2124679,-0.0
 063954\Quadrupole=3.1652363,-4.1114058,0.9461695,2.3471541,0.6446493,1
 .191629\PG=C01 [X(Na7)]\\@


  DISAPPOINTMENT IS THE NURSE OF WISDOM.               
                              SIR BOYLE ROCHE                 
 Job cpu time:       0 days  0 hours  4 minutes 44.8 seconds.
 Elapsed time:       0 days  0 hours  0 minutes 23.2 seconds.
 File lengths (MBytes):  RWF=     32 Int=      0 D2E=      0 Chk=      5 Scr=      1
 Normal termination of Gaussian 16 at Mon Nov 13 17:48:26 2023.
