 Entering Gaussian System, Link 0=g16
 Initial command:
 /home/sekinelabo/g16/l1.exe "/home/sekinelabo/g16temp/Gau-4148000.inp" -scrdir="/home/sekinelabo/g16temp/"
 Entering Link 1 = /home/sekinelabo/g16/l1.exe PID=   4148002.
  
 Copyright (c) 1988-2017, Gaussian, Inc.  All Rights Reserved.
  
 This is part of the Gaussian(R) 16 program.  It is based on
 the Gaussian(R) 09 system (copyright 2009, Gaussian, Inc.),
 the Gaussian(R) 03 system (copyright 2003, Gaussian, Inc.),
 the Gaussian(R) 98 system (copyright 1998, Gaussian, Inc.),
 the Gaussian(R) 94 system (copyright 1995, Gaussian, Inc.),
 the Gaussian 92(TM) system (copyright 1992, Gaussian, Inc.),
 the Gaussian 90(TM) system (copyright 1990, Gaussian, Inc.),
 the Gaussian 88(TM) system (copyright 1988, Gaussian, Inc.),
 the Gaussian 86(TM) system (copyright 1986, Carnegie Mellon
 University), and the Gaussian 82(TM) system (copyright 1983,
 Carnegie Mellon University). Gaussian is a federally registered
 trademark of Gaussian, Inc.
  
 This software contains proprietary and confidential information,
 including trade secrets, belonging to Gaussian, Inc.
  
 This software is provided under written license and may be
 used, copied, transmitted, or stored only in accord with that
 written license.
  
 The following legend is applicable only to US Government
 contracts under FAR:
  
                    RESTRICTED RIGHTS LEGEND
  
 Use, reproduction and disclosure by the US Government is
 subject to restrictions as set forth in subparagraphs (a)
 and (c) of the Commercial Computer Software - Restricted
 Rights clause in FAR 52.227-19.
  
 Gaussian, Inc.
 340 Quinnipiac St., Bldg. 40, Wallingford CT 06492
  
  
 ---------------------------------------------------------------
 Warning -- This program may not be used in any manner that
 competes with the business of Gaussian, Inc. or will provide
 assistance to any competitor of Gaussian, Inc.  The licensee
 of this program is prohibited from giving any competitor of
 Gaussian, Inc. access to this program.  By using this program,
 the user acknowledges that Gaussian, Inc. is engaged in the
 business of creating and licensing software in the field of
 computational chemistry and represents and warrants to the
 licensee that it is not a competitor of Gaussian, Inc. and that
 it will not use this program in any manner prohibited above.
 ---------------------------------------------------------------
  

 Cite this work as:
 Gaussian 16, Revision B.01,
 M. J. Frisch, G. W. Trucks, H. B. Schlegel, G. E. Scuseria, 
 M. A. Robb, J. R. Cheeseman, G. Scalmani, V. Barone, 
 G. A. Petersson, H. Nakatsuji, X. Li, M. Caricato, A. V. Marenich, 
 J. Bloino, B. G. Janesko, R. Gomperts, B. Mennucci, H. P. Hratchian, 
 J. V. Ortiz, A. F. Izmaylov, J. L. Sonnenberg, D. Williams-Young, 
 F. Ding, F. Lipparini, F. Egidi, J. Goings, B. Peng, A. Petrone, 
 T. Henderson, D. Ranasinghe, V. G. Zakrzewski, J. Gao, N. Rega, 
 G. Zheng, W. Liang, M. Hada, M. Ehara, K. Toyota, R. Fukuda, 
 J. Hasegawa, M. Ishida, T. Nakajima, Y. Honda, O. Kitao, H. Nakai, 
 T. Vreven, K. Throssell, J. A. Montgomery, Jr., J. E. Peralta, 
 F. Ogliaro, M. J. Bearpark, J. J. Heyd, E. N. Brothers, K. N. Kudin, 
 V. N. Staroverov, T. A. Keith, R. Kobayashi, J. Normand, 
 K. Raghavachari, A. P. Rendell, J. C. Burant, S. S. Iyengar, 
 J. Tomasi, M. Cossi, J. M. Millam, M. Klene, C. Adamo, R. Cammi, 
 J. W. Ochterski, R. L. Martin, K. Morokuma, O. Farkas, 
 J. B. Foresman, and D. J. Fox, Gaussian, Inc., Wallingford CT, 2016.
 
 ******************************************
 Gaussian 16:  ES64L-G16RevB.01 20-Dec-2017
                13-Nov-2023 
 ******************************************
 %mem=14GB
 %chk=checkpoint.chk
 %nprocshared=16
 Will use up to   16 processors via shared memory.
 -------------------------
 #P B3LYP/6-311+g(d) force
 -------------------------
 1/10=7,30=1,38=1/1,3;
 2/12=2,17=6,18=5,40=1/2;
 3/5=4,6=6,7=11,11=2,25=1,30=1,71=1,74=-5/1,2,3;
 4//1;
 5/5=2,38=5/2;
 6/7=2,8=2,9=2,10=2,28=1/1;
 7/29=1/1,2,3,16;
 1/10=7,30=1/3;
 99//99;
 Leave Link    1 at Mon Nov 13 19:28:00 2023, MaxMem=  1879048192 cpu:               0.3 elap:               0.0
 (Enter /home/sekinelabo/g16/l101.exe)
 ------------------------------
 Gaussian input prepared by ASE
 ------------------------------
 Symbolic Z-matrix:
 Charge =  0 Multiplicity = 2
 Na                    5.30368   4.58723   1.16005 
 Na                    3.94928   2.31569   0. 
 Na                    0.        5.071     2.30364 
 Na                    2.78243   4.01027   2.39216 
 Na                    5.47718   4.14695   4.01272 
 Na                    4.4956    1.72911   2.76997 
 Na                    2.04638   0.        2.74032 
 
 ITRead=  0  0  0  0  0  0  0
 MicOpt= -1 -1 -1 -1 -1 -1 -1
 NAtoms=      7 NQM=        7 NQMF=       0 NMMI=      0 NMMIF=      0
                NMic=       0 NMicF=      0.
                    Isotopes and Nuclear Properties:
 (Nuclear quadrupole moments (NQMom) in fm**2, nuclear magnetic moments (NMagM)
  in nuclear magnetons)

  Atom         1           2           3           4           5           6           7
 IAtWgt=          23          23          23          23          23          23          23
 AtmWgt=  22.9897697  22.9897697  22.9897697  22.9897697  22.9897697  22.9897697  22.9897697
 NucSpn=           3           3           3           3           3           3           3
 AtZEff=  -0.0000000  -0.0000000  -0.0000000  -0.0000000  -0.0000000  -0.0000000  -0.0000000
 NQMom=   10.4000000  10.4000000  10.4000000  10.4000000  10.4000000  10.4000000  10.4000000
 NMagM=    2.2175200   2.2175200   2.2175200   2.2175200   2.2175200   2.2175200   2.2175200
 AtZNuc=  11.0000000  11.0000000  11.0000000  11.0000000  11.0000000  11.0000000  11.0000000
 Leave Link  101 at Mon Nov 13 19:28:01 2023, MaxMem=  1879048192 cpu:               2.7 elap:               0.2
 (Enter /home/sekinelabo/g16/l103.exe)

 GradGradGradGradGradGradGradGradGradGradGradGradGradGradGradGradGradGrad
 Berny optimization.
 Initialization pass.
 Trust Radius=3.00D-01 FncErr=1.00D-07 GrdErr=1.00D-07 EigMax=2.50D+02 EigMin=1.00D-04
 Number of steps in this run=      2 maximum allowed number of steps=      2.
 GradGradGradGradGradGradGradGradGradGradGradGradGradGradGradGradGradGrad

 Leave Link  103 at Mon Nov 13 19:28:01 2023, MaxMem=  1879048192 cpu:               0.2 elap:               0.0
 (Enter /home/sekinelabo/g16/l202.exe)
                          Input orientation:                          
 ---------------------------------------------------------------------
 Center     Atomic      Atomic             Coordinates (Angstroms)
 Number     Number       Type             X           Y           Z
 ---------------------------------------------------------------------
      1         11           0        5.303679    4.587229    1.160051
      2         11           0        3.949277    2.315688    0.000000
      3         11           0        0.000000    5.070999    2.303643
      4         11           0        2.782428    4.010267    2.392163
      5         11           0        5.477183    4.146945    4.012721
      6         11           0        4.495603    1.729113    2.769969
      7         11           0        2.046379    0.000000    2.740318
 ---------------------------------------------------------------------
                    Distance matrix (angstroms):
                    1          2          3          4          5
     1  Na   0.000000
     2  Na   2.887909   0.000000
     3  Na   5.447095   5.338098   0.000000
     4  Na   2.864906   3.155246   2.979076   0.000000
     5  Na   2.891657   4.667969   5.811572   3.147475   0.000000
     6  Na   3.378409   2.883621   5.621041   2.877737   2.890303
     7  Na   5.843793   4.061130   5.485743   4.092093   5.530514
                    6          7
     6  Na   0.000000
     7  Na   2.998234   0.000000
 Stoichiometry    Na7(2)
 Framework group  C1[X(Na7)]
 Deg. of freedom    15
 Full point group                 C1      NOp   1
 Largest Abelian subgroup         C1      NOp   1
 Largest concise Abelian subgroup C1      NOp   1
                         Standard orientation:                         
 ---------------------------------------------------------------------
 Center     Atomic      Atomic             Coordinates (Angstroms)
 Number     Number       Type             X           Y           Z
 ---------------------------------------------------------------------
      1         11           0        1.867315   -1.464337    1.036930
      2         11           0        0.512913    0.807203    2.196981
      3         11           0       -3.436364   -1.948107   -0.106662
      4         11           0       -0.653936   -0.887376   -0.195182
      5         11           0        2.040819   -1.024054   -1.815741
      6         11           0        1.059239    1.393779   -0.572988
      7         11           0       -1.389985    3.122892   -0.543337
 ---------------------------------------------------------------------
 Rotational constants (GHZ):           0.7329049           0.6645935           0.5073651
 Leave Link  202 at Mon Nov 13 19:28:01 2023, MaxMem=  1879048192 cpu:               0.1 elap:               0.0
 (Enter /home/sekinelabo/g16/l301.exe)
 Standard basis: 6-311+G(d) (5D, 7F)
 Ernie: Thresh=  0.10000D-02 Tol=  0.10000D-05 Strict=F.
 There are   217 symmetry adapted cartesian basis functions of A   symmetry.
 There are   210 symmetry adapted basis functions of A   symmetry.
   210 basis functions,   350 primitive gaussians,   217 cartesian basis functions
    39 alpha electrons       38 beta electrons
       nuclear repulsion energy       361.2094682090 Hartrees.
 IExCor=  402 DFT=T Ex+Corr=B3LYP ExCW=0 ScaHFX=  0.200000
 ScaDFX=  0.800000  0.720000  1.000000  0.810000 ScalE2=  1.000000  1.000000
 IRadAn=      5 IRanWt=     -1 IRanGd=            0 ICorTp=0 IEmpDi=  4
 NAtoms=    7 NActive=    7 NUniq=    7 SFac= 1.00D+00 NAtFMM=   60 NAOKFM=F Big=F
 Integral buffers will be    131072 words long.
 Raffenetti 2 integral format.
 Two-electron integral symmetry is turned on.
 Leave Link  301 at Mon Nov 13 19:28:01 2023, MaxMem=  1879048192 cpu:               0.5 elap:               0.0
 (Enter /home/sekinelabo/g16/l302.exe)
 NPDir=0 NMtPBC=     1 NCelOv=     1 NCel=       1 NClECP=     1 NCelD=      1
         NCelK=      1 NCelE2=     1 NClLst=     1 CellRange=     0.0.
 One-electron integrals computed using PRISM.
 One-electron integral symmetry used in STVInt
 NBasis=   210 RedAO= T EigKep=  1.30D-06  NBF=   210
 NBsUse=   210 1.00D-06 EigRej= -1.00D+00 NBFU=   210
 Precomputing XC quadrature grid using
 IXCGrd= 4 IRadAn=           5 IRanWt=          -1 IRanGd=           0 AccXCQ= 0.00D+00.
 Generated NRdTot=       0 NPtTot=           0 NUsed=           0 NTot=          32
 NSgBfM=   210   210   210   210   210 MxSgAt=     7 MxSgA2=     7.
 Leave Link  302 at Mon Nov 13 19:28:01 2023, MaxMem=  1879048192 cpu:               2.2 elap:               0.1
 (Enter /home/sekinelabo/g16/l303.exe)
 DipDrv:  MaxL=1.
 Leave Link  303 at Mon Nov 13 19:28:01 2023, MaxMem=  1879048192 cpu:               0.6 elap:               0.0
 (Enter /home/sekinelabo/g16/l401.exe)
 ExpMin= 7.60D-03 ExpMax= 3.62D+04 ExpMxC= 1.21D+03 IAcc=3 IRadAn=         5 AccDes= 0.00D+00
 Harris functional with IExCor=  402 and IRadAn=       5 diagonalized for initial guess.
 HarFok:  IExCor=  402 AccDes= 0.00D+00 IRadAn=         5 IDoV= 1 UseB2=F ITyADJ=14
 ICtDFT=  3500011 ScaDFX=  1.000000  1.000000  1.000000  1.000000
 FoFCou: FMM=F IPFlag=           0 FMFlag=      100000 FMFlg1=           0
         NFxFlg=           0 DoJE=T BraDBF=F KetDBF=T FulRan=T
         wScrn=  0.000000 ICntrl=       500 IOpCl=  0 I1Cent=   200000004 NGrid=           0
         NMat0=    1 NMatS0=      1 NMatT0=    0 NMatD0=    1 NMtDS0=    0 NMtDT0=    0
 Petite list used in FoFCou.
 Harris En= -1135.86457038115    
 JPrj=0 DoOrth=F DoCkMO=F.
 Initial guess <Sx>= 0.0000 <Sy>= 0.0000 <Sz>= 0.5000 <S**2>= 0.7500 S= 0.5000
 Leave Link  401 at Mon Nov 13 19:28:01 2023, MaxMem=  1879048192 cpu:               5.4 elap:               0.4
 (Enter /home/sekinelabo/g16/l502.exe)
 Keep R1 and R2 ints in memory in canonical form, NReq=507620374.
 FoFCou: FMM=F IPFlag=           0 FMFlag=           0 FMFlg1=           0
         NFxFlg=           0 DoJE=F BraDBF=F KetDBF=F FulRan=T
         wScrn=  0.000000 ICntrl=       600 IOpCl=  0 I1Cent=           0 NGrid=           0
         NMat0=    1 NMatS0=  22155 NMatT0=    0 NMatD0=    1 NMtDS0=    0 NMtDT0=    0
 Symmetry not used in FoFCou.
 Two-electron integral symmetry not used.
 UHF open shell SCF:
 Using DIIS extrapolation, IDIIS=  1040.
 NGot=  1879048192 LenX=  1388082362 LenY=  1388034832
 Requested convergence on RMS density matrix=1.00D-08 within 128 cycles.
 Requested convergence on MAX density matrix=1.00D-06.
 Requested convergence on             energy=1.00D-06.
 No special actions if energy rises.

 Cycle   1  Pass 1  IDiag  1:
 E= -1136.05002919419    
 DIIS: error= 1.20D-02 at cycle   1 NSaved=   1.
 NSaved= 1 IEnMin= 1 EnMin= -1136.05002919419     IErMin= 1 ErrMin= 1.20D-02
 ErrMax= 1.20D-02  0.00D+00 EMaxC= 1.00D-01 BMatC= 2.01D-01 BMatP= 2.01D-01
 IDIUse=3 WtCom= 8.80D-01 WtEn= 1.20D-01
 Coeff-Com:  0.100D+01
 Coeff-En:   0.100D+01
 Coeff:      0.100D+01
 Gap=     0.064 Goal=   None    Shift=    0.000
 Gap=     0.031 Goal=   None    Shift=    0.000
 GapD=    0.031 DampG=0.250 DampE=0.500 DampFc=0.2500 IDamp=-1.
 Damping current iteration by 2.50D-01
 RMSDP=8.43D-02 MaxDP=7.92D+00              OVMax= 2.51D-01

 Cycle   2  Pass 1  IDiag  1:
 E= -1136.06444537093     Delta-E=       -0.014416176739 Rises=F Damp=T
 DIIS: error= 6.81D-03 at cycle   2 NSaved=   2.
 NSaved= 2 IEnMin= 2 EnMin= -1136.06444537093     IErMin= 2 ErrMin= 6.81D-03
 ErrMax= 6.81D-03  0.00D+00 EMaxC= 1.00D-01 BMatC= 7.59D-02 BMatP= 2.01D-01
 IDIUse=3 WtCom= 9.32D-01 WtEn= 6.81D-02
 Coeff-Com: -0.124D+01 0.224D+01
 Coeff-En:   0.000D+00 0.100D+01
 Coeff:     -0.116D+01 0.216D+01
 Gap=     0.056 Goal=   None    Shift=    0.000
 Gap=     0.024 Goal=   None    Shift=    0.000
 RMSDP=4.89D-02 MaxDP=6.07D+00 DE=-1.44D-02 OVMax= 2.30D-01

 Cycle   3  Pass 1  IDiag  1:
 E= -1136.08470101552     Delta-E=       -0.020255644593 Rises=F Damp=F
 DIIS: error= 5.32D-03 at cycle   3 NSaved=   3.
 NSaved= 3 IEnMin= 3 EnMin= -1136.08470101552     IErMin= 3 ErrMin= 5.32D-03
 ErrMax= 5.32D-03  0.00D+00 EMaxC= 1.00D-01 BMatC= 7.62D-03 BMatP= 7.59D-02
 IDIUse=3 WtCom= 9.47D-01 WtEn= 5.32D-02
 Coeff-Com: -0.418D+00 0.731D+00 0.686D+00
 Coeff-En:   0.000D+00 0.000D+00 0.100D+01
 Coeff:     -0.395D+00 0.692D+00 0.703D+00
 Gap=     0.062 Goal=   None    Shift=    0.000
 Gap=     0.038 Goal=   None    Shift=    0.000
 RMSDP=1.97D-02 MaxDP=1.75D+00 DE=-2.03D-02 OVMax= 1.64D-01

 Cycle   4  Pass 1  IDiag  1:
 E= -1136.08533334087     Delta-E=       -0.000632325346 Rises=F Damp=F
 DIIS: error= 4.31D-03 at cycle   4 NSaved=   4.
 NSaved= 4 IEnMin= 4 EnMin= -1136.08533334087     IErMin= 4 ErrMin= 4.31D-03
 ErrMax= 4.31D-03  0.00D+00 EMaxC= 1.00D-01 BMatC= 6.27D-03 BMatP= 7.62D-03
 IDIUse=3 WtCom= 9.57D-01 WtEn= 4.31D-02
 Coeff-Com: -0.318D-01 0.487D-01 0.472D+00 0.511D+00
 Coeff-En:   0.000D+00 0.000D+00 0.481D+00 0.519D+00
 Coeff:     -0.304D-01 0.466D-01 0.472D+00 0.512D+00
 Gap=     0.059 Goal=   None    Shift=    0.000
 Gap=     0.031 Goal=   None    Shift=    0.000
 RMSDP=8.59D-03 MaxDP=9.37D-01 DE=-6.32D-04 OVMax= 9.64D-02

 Cycle   5  Pass 1  IDiag  1:
 E= -1136.09121759264     Delta-E=       -0.005884251772 Rises=F Damp=F
 DIIS: error= 7.29D-04 at cycle   5 NSaved=   5.
 NSaved= 5 IEnMin= 5 EnMin= -1136.09121759264     IErMin= 5 ErrMin= 7.29D-04
 ErrMax= 7.29D-04  0.00D+00 EMaxC= 1.00D-01 BMatC= 2.44D-04 BMatP= 6.27D-03
 IDIUse=3 WtCom= 9.93D-01 WtEn= 7.29D-03
 Coeff-Com: -0.107D-01 0.133D-01 0.253D+00 0.299D+00 0.446D+00
 Coeff-En:   0.000D+00 0.000D+00 0.000D+00 0.000D+00 0.100D+01
 Coeff:     -0.107D-01 0.132D-01 0.251D+00 0.296D+00 0.450D+00
 Gap=     0.060 Goal=   None    Shift=    0.000
 Gap=     0.032 Goal=   None    Shift=    0.000
 RMSDP=2.54D-03 MaxDP=2.68D-01 DE=-5.88D-03 OVMax= 1.77D-02

 Cycle   6  Pass 1  IDiag  1:
 E= -1136.09147632779     Delta-E=       -0.000258735152 Rises=F Damp=F
 DIIS: error= 1.19D-04 at cycle   6 NSaved=   6.
 NSaved= 6 IEnMin= 6 EnMin= -1136.09147632779     IErMin= 6 ErrMin= 1.19D-04
 ErrMax= 1.19D-04  0.00D+00 EMaxC= 1.00D-01 BMatC= 6.78D-06 BMatP= 2.44D-04
 IDIUse=3 WtCom= 9.99D-01 WtEn= 1.19D-03
 Coeff-Com: -0.720D-03 0.341D-03-0.150D-01-0.190D-01 0.104D+00 0.930D+00
 Coeff-En:   0.000D+00 0.000D+00 0.000D+00 0.000D+00 0.000D+00 0.100D+01
 Coeff:     -0.719D-03 0.340D-03-0.150D-01-0.190D-01 0.104D+00 0.930D+00
 Gap=     0.060 Goal=   None    Shift=    0.000
 Gap=     0.032 Goal=   None    Shift=    0.000
 RMSDP=6.84D-04 MaxDP=5.83D-02 DE=-2.59D-04 OVMax= 4.82D-03

 Cycle   7  Pass 1  IDiag  1:
 E= -1136.09148839613     Delta-E=       -0.000012068335 Rises=F Damp=F
 DIIS: error= 4.93D-05 at cycle   7 NSaved=   7.
 NSaved= 7 IEnMin= 7 EnMin= -1136.09148839613     IErMin= 7 ErrMin= 4.93D-05
 ErrMax= 4.93D-05  0.00D+00 EMaxC= 1.00D-01 BMatC= 7.85D-07 BMatP= 6.78D-06
 IDIUse=1 WtCom= 1.00D+00 WtEn= 0.00D+00
 Coeff-Com:  0.528D-03-0.837D-03-0.214D-01-0.251D-01-0.465D-02 0.258D+00
 Coeff-Com:  0.793D+00
 Coeff:      0.528D-03-0.837D-03-0.214D-01-0.251D-01-0.465D-02 0.258D+00
 Coeff:      0.793D+00
 Gap=     0.059 Goal=   None    Shift=    0.000
 Gap=     0.032 Goal=   None    Shift=    0.000
 RMSDP=2.80D-04 MaxDP=3.44D-02 DE=-1.21D-05 OVMax= 2.51D-03

 Cycle   8  Pass 1  IDiag  1:
 E= -1136.09149032051     Delta-E=       -0.000001924381 Rises=F Damp=F
 DIIS: error= 4.58D-05 at cycle   8 NSaved=   8.
 NSaved= 8 IEnMin= 8 EnMin= -1136.09149032051     IErMin= 8 ErrMin= 4.58D-05
 ErrMax= 4.58D-05  0.00D+00 EMaxC= 1.00D-01 BMatC= 4.51D-07 BMatP= 7.85D-07
 IDIUse=1 WtCom= 1.00D+00 WtEn= 0.00D+00
 Coeff-Com:  0.627D-03-0.822D-03-0.868D-02-0.923D-02-0.243D-01-0.498D-01
 Coeff-Com:  0.448D+00 0.644D+00
 Coeff:      0.627D-03-0.822D-03-0.868D-02-0.923D-02-0.243D-01-0.498D-01
 Coeff:      0.448D+00 0.644D+00
 Gap=     0.060 Goal=   None    Shift=    0.000
 Gap=     0.033 Goal=   None    Shift=    0.000
 RMSDP=1.74D-04 MaxDP=1.49D-02 DE=-1.92D-06 OVMax= 2.14D-03

 Cycle   9  Pass 1  IDiag  1:
 E= -1136.09149149443     Delta-E=       -0.000001173924 Rises=F Damp=F
 DIIS: error= 2.19D-05 at cycle   9 NSaved=   9.
 NSaved= 9 IEnMin= 9 EnMin= -1136.09149149443     IErMin= 9 ErrMin= 2.19D-05
 ErrMax= 2.19D-05  0.00D+00 EMaxC= 1.00D-01 BMatC= 9.04D-08 BMatP= 4.51D-07
 IDIUse=1 WtCom= 1.00D+00 WtEn= 0.00D+00
 Coeff-Com:  0.226D-03-0.254D-03 0.251D-02 0.358D-02-0.648D-02-0.859D-01
 Coeff-Com: -0.192D+00 0.198D+00 0.108D+01
 Coeff:      0.226D-03-0.254D-03 0.251D-02 0.358D-02-0.648D-02-0.859D-01
 Coeff:     -0.192D+00 0.198D+00 0.108D+01
 Gap=     0.059 Goal=   None    Shift=    0.000
 Gap=     0.033 Goal=   None    Shift=    0.000
 RMSDP=2.19D-04 MaxDP=1.77D-02 DE=-1.17D-06 OVMax= 2.08D-03

 Cycle  10  Pass 1  IDiag  1:
 E= -1136.09149218245     Delta-E=       -0.000000688015 Rises=F Damp=F
 DIIS: error= 1.00D-05 at cycle  10 NSaved=  10.
 NSaved=10 IEnMin=10 EnMin= -1136.09149218245     IErMin=10 ErrMin= 1.00D-05
 ErrMax= 1.00D-05  0.00D+00 EMaxC= 1.00D-01 BMatC= 1.96D-08 BMatP= 9.04D-08
 IDIUse=1 WtCom= 1.00D+00 WtEn= 0.00D+00
 Coeff-Com: -0.191D-03 0.262D-03 0.180D-02 0.185D-02 0.291D-02 0.113D-01
 Coeff-Com: -0.565D-01-0.139D+00-0.994D-01 0.128D+01
 Coeff:     -0.191D-03 0.262D-03 0.180D-02 0.185D-02 0.291D-02 0.113D-01
 Coeff:     -0.565D-01-0.139D+00-0.994D-01 0.128D+01
 Gap=     0.059 Goal=   None    Shift=    0.000
 Gap=     0.033 Goal=   None    Shift=    0.000
 RMSDP=1.58D-04 MaxDP=1.27D-02 DE=-6.88D-07 OVMax= 1.57D-03

 Cycle  11  Pass 1  IDiag  1:
 E= -1136.09149241728     Delta-E=       -0.000000234835 Rises=F Damp=F
 DIIS: error= 6.60D-06 at cycle  11 NSaved=  11.
 NSaved=11 IEnMin=11 EnMin= -1136.09149241728     IErMin=11 ErrMin= 6.60D-06
 ErrMax= 6.60D-06  0.00D+00 EMaxC= 1.00D-01 BMatC= 1.48D-08 BMatP= 1.96D-08
 IDIUse=1 WtCom= 1.00D+00 WtEn= 0.00D+00
 Coeff-Com: -0.240D-03 0.308D-03 0.426D-03 0.512D-04 0.511D-02 0.419D-01
 Coeff-Com:  0.214D-01-0.165D+00-0.448D+00 0.859D+00 0.685D+00
 Coeff:     -0.240D-03 0.308D-03 0.426D-03 0.512D-04 0.511D-02 0.419D-01
 Coeff:      0.214D-01-0.165D+00-0.448D+00 0.859D+00 0.685D+00
 Gap=     0.059 Goal=   None    Shift=    0.000
 Gap=     0.033 Goal=   None    Shift=    0.000
 RMSDP=8.76D-05 MaxDP=7.18D-03 DE=-2.35D-07 OVMax= 7.86D-04

 Cycle  12  Pass 1  IDiag  1:
 E= -1136.09149250166     Delta-E=       -0.000000084384 Rises=F Damp=F
 DIIS: error= 2.77D-06 at cycle  12 NSaved=  12.
 NSaved=12 IEnMin=12 EnMin= -1136.09149250166     IErMin=12 ErrMin= 2.77D-06
 ErrMax= 2.77D-06  0.00D+00 EMaxC= 1.00D-01 BMatC= 2.99D-09 BMatP= 1.48D-08
 IDIUse=1 WtCom= 1.00D+00 WtEn= 0.00D+00
 Coeff-Com: -0.855D-04 0.105D-03-0.343D-03-0.498D-03 0.208D-02 0.190D-01
 Coeff-Com:  0.303D-01-0.430D-01-0.221D+00 0.583D-01 0.283D+00 0.872D+00
 Coeff:     -0.855D-04 0.105D-03-0.343D-03-0.498D-03 0.208D-02 0.190D-01
 Coeff:      0.303D-01-0.430D-01-0.221D+00 0.583D-01 0.283D+00 0.872D+00
 Gap=     0.059 Goal=   None    Shift=    0.000
 Gap=     0.033 Goal=   None    Shift=    0.000
 RMSDP=5.98D-05 MaxDP=5.57D-03 DE=-8.44D-08 OVMax= 6.05D-04

 Cycle  13  Pass 1  IDiag  1:
 E= -1136.09149252998     Delta-E=       -0.000000028311 Rises=F Damp=F
 DIIS: error= 2.18D-06 at cycle  13 NSaved=  13.
 NSaved=13 IEnMin=13 EnMin= -1136.09149252998     IErMin=13 ErrMin= 2.18D-06
 ErrMax= 2.18D-06  0.00D+00 EMaxC= 1.00D-01 BMatC= 9.96D-10 BMatP= 2.99D-09
 IDIUse=1 WtCom= 1.00D+00 WtEn= 0.00D+00
 Coeff-Com:  0.263D-04-0.368D-04-0.287D-03-0.163D-03-0.795D-03-0.501D-02
 Coeff-Com:  0.121D-01 0.302D-01 0.287D-01-0.222D+00-0.955D-01 0.320D+00
 Coeff-Com:  0.932D+00
 Coeff:      0.263D-04-0.368D-04-0.287D-03-0.163D-03-0.795D-03-0.501D-02
 Coeff:      0.121D-01 0.302D-01 0.287D-01-0.222D+00-0.955D-01 0.320D+00
 Coeff:      0.932D+00
 Gap=     0.059 Goal=   None    Shift=    0.000
 Gap=     0.033 Goal=   None    Shift=    0.000
 RMSDP=3.15D-05 MaxDP=2.59D-03 DE=-2.83D-08 OVMax= 4.41D-04

 Cycle  14  Pass 1  IDiag  1:
 E= -1136.09149254052     Delta-E=       -0.000000010547 Rises=F Damp=F
 DIIS: error= 1.70D-06 at cycle  14 NSaved=  14.
 NSaved=14 IEnMin=14 EnMin= -1136.09149254052     IErMin=14 ErrMin= 1.70D-06
 ErrMax= 1.70D-06  0.00D+00 EMaxC= 1.00D-01 BMatC= 2.78D-10 BMatP= 9.96D-10
 IDIUse=1 WtCom= 1.00D+00 WtEn= 0.00D+00
 Coeff-Com:  0.321D-04-0.410D-04-0.191D-04 0.936D-05-0.714D-03-0.536D-02
 Coeff-Com: -0.780D-02 0.126D-01 0.651D-01-0.103D-01-0.113D+00-0.212D+00
 Coeff-Com: -0.512D-01 0.132D+01
 Coeff:      0.321D-04-0.410D-04-0.191D-04 0.936D-05-0.714D-03-0.536D-02
 Coeff:     -0.780D-02 0.126D-01 0.651D-01-0.103D-01-0.113D+00-0.212D+00
 Coeff:     -0.512D-01 0.132D+01
 Gap=     0.059 Goal=   None    Shift=    0.000
 Gap=     0.033 Goal=   None    Shift=    0.000
 RMSDP=1.87D-05 MaxDP=1.34D-03 DE=-1.05D-08 OVMax= 3.77D-04

 Cycle  15  Pass 1  IDiag  1:
 E= -1136.09149254585     Delta-E=       -0.000000005323 Rises=F Damp=F
 DIIS: error= 1.08D-06 at cycle  15 NSaved=  15.
 NSaved=15 IEnMin=15 EnMin= -1136.09149254585     IErMin=15 ErrMin= 1.08D-06
 ErrMax= 1.08D-06  0.00D+00 EMaxC= 1.00D-01 BMatC= 1.25D-10 BMatP= 2.78D-10
 IDIUse=1 WtCom= 1.00D+00 WtEn= 0.00D+00
 Coeff-Com: -0.192D-04 0.260D-04 0.149D-03 0.404D-04 0.469D-03 0.349D-02
 Coeff-Com: -0.984D-03-0.176D-01-0.414D-01 0.130D+00 0.266D-01-0.663D-01
 Coeff-Com: -0.362D+00-0.365D+00 0.169D+01
 Coeff:     -0.192D-04 0.260D-04 0.149D-03 0.404D-04 0.469D-03 0.349D-02
 Coeff:     -0.984D-03-0.176D-01-0.414D-01 0.130D+00 0.266D-01-0.663D-01
 Coeff:     -0.362D+00-0.365D+00 0.169D+01
 Gap=     0.059 Goal=   None    Shift=    0.000
 Gap=     0.033 Goal=   None    Shift=    0.000
 RMSDP=1.56D-05 MaxDP=1.07D-03 DE=-5.32D-09 OVMax= 3.64D-04

 Cycle  16  Pass 1  IDiag  1:
 E= -1136.09149254867     Delta-E=       -0.000000002823 Rises=F Damp=F
 DIIS: error= 4.84D-07 at cycle  16 NSaved=  16.
 NSaved=16 IEnMin=16 EnMin= -1136.09149254867     IErMin=16 ErrMin= 4.84D-07
 ErrMax= 4.84D-07  0.00D+00 EMaxC= 1.00D-01 BMatC= 2.29D-11 BMatP= 1.25D-10
 IDIUse=1 WtCom= 1.00D+00 WtEn= 0.00D+00
 Coeff-Com: -0.144D-04 0.182D-04-0.259D-04-0.575D-05 0.237D-03 0.170D-02
 Coeff-Com:  0.322D-02-0.322D-02-0.200D-01-0.550D-02 0.347D-01 0.733D-01
 Coeff-Com:  0.674D-01-0.351D+00-0.328D+00 0.153D+01
 Coeff:     -0.144D-04 0.182D-04-0.259D-04-0.575D-05 0.237D-03 0.170D-02
 Coeff:      0.322D-02-0.322D-02-0.200D-01-0.550D-02 0.347D-01 0.733D-01
 Coeff:      0.674D-01-0.351D+00-0.328D+00 0.153D+01
 Gap=     0.059 Goal=   None    Shift=    0.000
 Gap=     0.033 Goal=   None    Shift=    0.000
 RMSDP=7.86D-06 MaxDP=4.92D-04 DE=-2.82D-09 OVMax= 2.03D-04

 Cycle  17  Pass 1  IDiag  1:
 E= -1136.09149254925     Delta-E=       -0.000000000580 Rises=F Damp=F
 DIIS: error= 1.03D-07 at cycle  17 NSaved=  17.
 NSaved=17 IEnMin=17 EnMin= -1136.09149254925     IErMin=17 ErrMin= 1.03D-07
 ErrMax= 1.03D-07  0.00D+00 EMaxC= 1.00D-01 BMatC= 3.50D-12 BMatP= 2.29D-11
 IDIUse=1 WtCom= 1.00D+00 WtEn= 0.00D+00
 Coeff-Com:  0.164D-05-0.231D-05-0.193D-04-0.121D-05-0.572D-04-0.439D-03
 Coeff-Com:  0.419D-03 0.188D-02 0.404D-02-0.137D-01-0.592D-02 0.108D-01
 Coeff-Com:  0.484D-01 0.709D-01-0.338D+00 0.186D+00 0.104D+01
 Coeff:      0.164D-05-0.231D-05-0.193D-04-0.121D-05-0.572D-04-0.439D-03
 Coeff:      0.419D-03 0.188D-02 0.404D-02-0.137D-01-0.592D-02 0.108D-01
 Coeff:      0.484D-01 0.709D-01-0.338D+00 0.186D+00 0.104D+01
 Gap=     0.059 Goal=   None    Shift=    0.000
 Gap=     0.033 Goal=   None    Shift=    0.000
 RMSDP=1.60D-06 MaxDP=9.59D-05 DE=-5.80D-10 OVMax= 4.29D-05

 Cycle  18  Pass 1  IDiag  1:
 E= -1136.09149254929     Delta-E=       -0.000000000042 Rises=F Damp=F
 DIIS: error= 4.45D-08 at cycle  18 NSaved=  18.
 NSaved=18 IEnMin=18 EnMin= -1136.09149254929     IErMin=18 ErrMin= 4.45D-08
 ErrMax= 4.45D-08  0.00D+00 EMaxC= 1.00D-01 BMatC= 9.19D-13 BMatP= 3.50D-12
 IDIUse=1 WtCom= 1.00D+00 WtEn= 0.00D+00
 Coeff-Com:  0.281D-05-0.363D-05-0.326D-06 0.153D-06-0.578D-04-0.335D-03
 Coeff-Com: -0.633D-03 0.760D-03 0.395D-02 0.581D-03-0.871D-02-0.137D-01
 Coeff-Com: -0.185D-02 0.685D-01 0.736D-02-0.242D+00 0.231D+00 0.955D+00
 Coeff:      0.281D-05-0.363D-05-0.326D-06 0.153D-06-0.578D-04-0.335D-03
 Coeff:     -0.633D-03 0.760D-03 0.395D-02 0.581D-03-0.871D-02-0.137D-01
 Coeff:     -0.185D-02 0.685D-01 0.736D-02-0.242D+00 0.231D+00 0.955D+00
 Gap=     0.059 Goal=   None    Shift=    0.000
 Gap=     0.033 Goal=   None    Shift=    0.000
 RMSDP=5.77D-07 MaxDP=3.59D-05 DE=-4.18D-11 OVMax= 1.30D-05

 Cycle  19  Pass 1  IDiag  1:
 E= -1136.09149254931     Delta-E=       -0.000000000017 Rises=F Damp=F
 DIIS: error= 3.00D-08 at cycle  19 NSaved=  19.
 NSaved=19 IEnMin=19 EnMin= -1136.09149254931     IErMin=19 ErrMin= 3.00D-08
 ErrMax= 3.00D-08  0.00D+00 EMaxC= 1.00D-01 BMatC= 2.32D-13 BMatP= 9.19D-13
 IDIUse=1 WtCom= 1.00D+00 WtEn= 0.00D+00
 Coeff-Com: -0.148D-05 0.196D-05 0.366D-05-0.111D-05 0.242D-04 0.215D-03
 Coeff-Com:  0.143D-03-0.809D-03-0.258D-02 0.518D-02 0.366D-02-0.234D-02
 Coeff-Com: -0.151D-01-0.195D-01 0.749D-01 0.406D-02-0.281D+00-0.288D+00
 Coeff-Com:  0.152D+01
 Coeff:     -0.148D-05 0.196D-05 0.366D-05-0.111D-05 0.242D-04 0.215D-03
 Coeff:      0.143D-03-0.809D-03-0.258D-02 0.518D-02 0.366D-02-0.234D-02
 Coeff:     -0.151D-01-0.195D-01 0.749D-01 0.406D-02-0.281D+00-0.288D+00
 Coeff:      0.152D+01
 Gap=     0.059 Goal=   None    Shift=    0.000
 Gap=     0.033 Goal=   None    Shift=    0.000
 RMSDP=3.56D-07 MaxDP=2.51D-05 DE=-1.73D-11 OVMax= 5.68D-06

 Cycle  20  Pass 1  IDiag  1:
 E= -1136.09149254930     Delta-E=        0.000000000010 Rises=F Damp=F
 DIIS: error= 1.39D-08 at cycle  20 NSaved=  20.
 NSaved=20 IEnMin=19 EnMin= -1136.09149254931     IErMin=20 ErrMin= 1.39D-08
 ErrMax= 1.39D-08  0.00D+00 EMaxC= 1.00D-01 BMatC= 7.67D-14 BMatP= 2.32D-13
 IDIUse=1 WtCom= 1.00D+00 WtEn= 0.00D+00
 Coeff-Com: -0.656D-06 0.839D-06 0.216D-05 0.287D-05 0.170D-04 0.658D-04
 Coeff-Com:  0.111D-03-0.346D-04-0.957D-03-0.545D-03 0.235D-02 0.373D-02
 Coeff-Com:  0.342D-02-0.218D-01-0.148D-01 0.947D-01-0.617D-01-0.405D+00
 Coeff-Com: -0.185D-02 0.140D+01
 Coeff:     -0.656D-06 0.839D-06 0.216D-05 0.287D-05 0.170D-04 0.658D-04
 Coeff:      0.111D-03-0.346D-04-0.957D-03-0.545D-03 0.235D-02 0.373D-02
 Coeff:      0.342D-02-0.218D-01-0.148D-01 0.947D-01-0.617D-01-0.405D+00
 Coeff:     -0.185D-02 0.140D+01
 Gap=     0.059 Goal=   None    Shift=    0.000
 Gap=     0.033 Goal=   None    Shift=    0.000
 RMSDP=2.87D-07 MaxDP=2.10D-05 DE= 9.55D-12 OVMax= 4.47D-06

 Cycle  21  Pass 1  IDiag  1:
 E= -1136.09149254932     Delta-E=       -0.000000000018 Rises=F Damp=F
 DIIS: error= 4.01D-09 at cycle  21 NSaved=  20.
 NSaved=20 IEnMin=20 EnMin= -1136.09149254932     IErMin=20 ErrMin= 4.01D-09
 ErrMax= 4.01D-09  0.00D+00 EMaxC= 1.00D-01 BMatC= 5.14D-15 BMatP= 7.67D-14
 IDIUse=1 WtCom= 1.00D+00 WtEn= 0.00D+00
 Large coefficients: NSaved= 20 BigCof=    0.00 CofMax=   10.00 Det=-8.80D-15
 Inversion failed.  Reducing to 19 matrices.
 Large coefficients: NSaved= 19 BigCof=    0.00 CofMax=   10.00 Det=-8.99D-15
 Inversion failed.  Reducing to 18 matrices.
 Large coefficients: NSaved= 18 BigCof=    0.00 CofMax=   10.00 Det=-9.14D-15
 Inversion failed.  Reducing to 17 matrices.
 Large coefficients: NSaved= 17 BigCof=    0.00 CofMax=   10.00 Det=-9.64D-15
 Inversion failed.  Reducing to 16 matrices.
 Coeff-Com:  0.562D-05-0.137D-04-0.351D-04 0.345D-04 0.701D-04-0.124D-03
 Coeff-Com:  0.705D-04 0.820D-05 0.161D-02-0.445D-02-0.153D-02 0.341D-01
 Coeff-Com:  0.431D-01-0.180D+00-0.768D-01 0.118D+01
 Coeff:      0.562D-05-0.137D-04-0.351D-04 0.345D-04 0.701D-04-0.124D-03
 Coeff:      0.705D-04 0.820D-05 0.161D-02-0.445D-02-0.153D-02 0.341D-01
 Coeff:      0.431D-01-0.180D+00-0.768D-01 0.118D+01
 Gap=     0.059 Goal=   None    Shift=    0.000
 Gap=     0.033 Goal=   None    Shift=    0.000
 RMSDP=8.03D-08 MaxDP=7.24D-06 DE=-1.77D-11 OVMax= 8.94D-07

 Cycle  22  Pass 1  IDiag  1:
 E= -1136.09149254930     Delta-E=        0.000000000018 Rises=F Damp=F
 DIIS: error= 1.41D-09 at cycle  22 NSaved=  17.
 NSaved=17 IEnMin=16 EnMin= -1136.09149254932     IErMin=17 ErrMin= 1.41D-09
 ErrMax= 1.41D-09  0.00D+00 EMaxC= 1.00D-01 BMatC= 6.56D-16 BMatP= 5.14D-15
 IDIUse=1 WtCom= 1.00D+00 WtEn= 0.00D+00
 Large coefficients: NSaved= 17 BigCof=    0.00 CofMax=   10.00 Det=-1.41D-15
 Inversion failed.  Reducing to 16 matrices.
 Large coefficients: NSaved= 16 BigCof=    0.00 CofMax=   10.00 Det=-1.57D-15
 Inversion failed.  Reducing to 15 matrices.
 Coeff-Com:  0.417D-05 0.192D-04-0.962D-04 0.557D-05 0.758D-04 0.276D-03
 Coeff-Com:  0.296D-03-0.508D-03-0.245D-02 0.513D-02 0.204D-01 0.164D-02
 Coeff-Com: -0.104D+00 0.864D-02 0.107D+01
 Coeff:      0.417D-05 0.192D-04-0.962D-04 0.557D-05 0.758D-04 0.276D-03
 Coeff:      0.296D-03-0.508D-03-0.245D-02 0.513D-02 0.204D-01 0.164D-02
 Coeff:     -0.104D+00 0.864D-02 0.107D+01
 Gap=     0.059 Goal=   None    Shift=    0.000
 Gap=     0.033 Goal=   None    Shift=    0.000
 RMSDP=2.17D-08 MaxDP=2.36D-06 DE= 1.77D-11 OVMax= 1.55D-07

 Cycle  23  Pass 1  IDiag  1:
 E= -1136.09149254930     Delta-E=        0.000000000002 Rises=F Damp=F
 DIIS: error= 5.36D-10 at cycle  23 NSaved=  16.
 NSaved=16 IEnMin=14 EnMin= -1136.09149254932     IErMin=16 ErrMin= 5.36D-10
 ErrMax= 5.36D-10  0.00D+00 EMaxC= 1.00D-01 BMatC= 1.47D-16 BMatP= 6.56D-16
 IDIUse=1 WtCom= 1.00D+00 WtEn= 0.00D+00
 Large coefficients: NSaved= 16 BigCof=    0.00 CofMax=   10.00 Det=-3.82D-16
 Inversion failed.  Reducing to 15 matrices.
 Coeff-Com: -0.502D-05 0.116D-04 0.143D-04-0.555D-04-0.844D-05 0.854D-04
 Coeff-Com:  0.360D-03-0.755D-03-0.195D-02 0.306D-02 0.209D-01-0.256D-01
 Coeff-Com: -0.131D+00 0.316D+00 0.819D+00
 Coeff:     -0.502D-05 0.116D-04 0.143D-04-0.555D-04-0.844D-05 0.854D-04
 Coeff:      0.360D-03-0.755D-03-0.195D-02 0.306D-02 0.209D-01-0.256D-01
 Coeff:     -0.131D+00 0.316D+00 0.819D+00
 Gap=     0.059 Goal=   None    Shift=    0.000
 Gap=     0.033 Goal=   None    Shift=    0.000
 RMSDP=1.46D-08 MaxDP=1.63D-06 DE= 2.27D-12 OVMax= 3.14D-08

 Cycle  24  Pass 1  IDiag  1:
 E= -1136.09149254931     Delta-E=       -0.000000000015 Rises=F Damp=F
 DIIS: error= 2.91D-10 at cycle  24 NSaved=  16.
 NSaved=16 IEnMin=13 EnMin= -1136.09149254932     IErMin=16 ErrMin= 2.91D-10
 ErrMax= 2.91D-10  0.00D+00 EMaxC= 1.00D-01 BMatC= 4.52D-17 BMatP= 1.47D-16
 IDIUse=1 WtCom= 1.00D+00 WtEn= 0.00D+00
 Large coefficients: NSaved= 16 BigCof=    0.00 CofMax=   10.00 Det=-1.40D-16
 Inversion failed.  Reducing to 15 matrices.
 Coeff-Com:  0.169D-04-0.347D-05-0.475D-04-0.901D-04-0.881D-04 0.660D-03
 Coeff-Com:  0.864D-04-0.348D-02-0.496D-02 0.127D-01 0.109D-01-0.722D-01
 Coeff-Com: -0.624D-01 0.273D+00 0.846D+00
 Coeff:      0.169D-04-0.347D-05-0.475D-04-0.901D-04-0.881D-04 0.660D-03
 Coeff:      0.864D-04-0.348D-02-0.496D-02 0.127D-01 0.109D-01-0.722D-01
 Coeff:     -0.624D-01 0.273D+00 0.846D+00
 Gap=     0.059 Goal=   None    Shift=    0.000
 Gap=     0.033 Goal=   None    Shift=    0.000
 RMSDP=1.26D-08 MaxDP=1.33D-06 DE=-1.50D-11 OVMax= 3.63D-08

 Cycle  25  Pass 1  IDiag  1:
 E= -1136.09149254930     Delta-E=        0.000000000010 Rises=F Damp=F
 DIIS: error= 2.40D-10 at cycle  25 NSaved=  16.
 NSaved=16 IEnMin=12 EnMin= -1136.09149254932     IErMin=16 ErrMin= 2.40D-10
 ErrMax= 2.40D-10  0.00D+00 EMaxC= 1.00D-01 BMatC= 1.77D-17 BMatP= 4.52D-17
 IDIUse=1 WtCom= 1.00D+00 WtEn= 0.00D+00
 Large coefficients: NSaved= 16 BigCof=    0.00 CofMax=   10.00 Det=-4.28D-17
 Inversion failed.  Reducing to 15 matrices.
 Coeff-Com: -0.207D-05 0.821D-05-0.109D-04-0.115D-03 0.122D-03 0.356D-03
 Coeff-Com: -0.982D-03-0.260D-02-0.353D-03 0.140D-01-0.269D-02-0.121D+00
 Coeff-Com: -0.249D-01 0.442D+00 0.696D+00
 Coeff:     -0.207D-05 0.821D-05-0.109D-04-0.115D-03 0.122D-03 0.356D-03
 Coeff:     -0.982D-03-0.260D-02-0.353D-03 0.140D-01-0.269D-02-0.121D+00
 Coeff:     -0.249D-01 0.442D+00 0.696D+00
 Gap=     0.059 Goal=   None    Shift=    0.000
 Gap=     0.033 Goal=   None    Shift=    0.000
 RMSDP=7.33D-09 MaxDP=7.57D-07 DE= 1.00D-11 OVMax= 1.27D-08

 SCF Done:  E(UB3LYP) =  -1136.09149255     A.U. after   25 cycles
            NFock= 25  Conv=0.73D-08     -V/T= 2.0025
 <Sx>= 0.0000 <Sy>= 0.0000 <Sz>= 0.5000 <S**2>= 0.7670 S= 0.5084
 <L.S>= 0.000000000000E+00
 KE= 1.133231501842D+03 PE=-3.451755128932D+03 EE= 8.212226663322D+02
 Annihilation of the first spin contaminant:
 S**2 before annihilation     0.7670,   after     0.7502
 Leave Link  502 at Mon Nov 13 19:28:21 2023, MaxMem=  1879048192 cpu:             235.4 elap:              20.2
 (Enter /home/sekinelabo/g16/l601.exe)
 Copying SCF densities to generalized density rwf, IOpCl= 1 IROHF=0.

 **********************************************************************

            Population analysis using the SCF Density.

 **********************************************************************

 Orbital symmetries:
 Alpha Orbitals:
       Occupied  (A) (A) (A) (A) (A) (A) (A) (A) (A) (A) (A) (A)
                 (A) (A) (A) (A) (A) (A) (A) (A) (A) (A) (A) (A)
                 (A) (A) (A) (A) (A) (A) (A) (A) (A) (A) (A) (A)
                 (A) (A) (A)
       Virtual   (A) (A) (A) (A) (A) (A) (A) (A) (A) (A) (A) (A)
                 (A) (A) (A) (A) (A) (A) (A) (A) (A) (A) (A) (A)
                 (A) (A) (A) (A) (A) (A) (A) (A) (A) (A) (A) (A)
                 (A) (A) (A) (A) (A) (A) (A) (A) (A) (A) (A) (A)
                 (A) (A) (A) (A) (A) (A) (A) (A) (A) (A) (A) (A)
                 (A) (A) (A) (A) (A) (A) (A) (A) (A) (A) (A) (A)
                 (A) (A) (A) (A) (A) (A) (A) (A) (A) (A) (A) (A)
                 (A) (A) (A) (A) (A) (A) (A) (A) (A) (A) (A) (A)
                 (A) (A) (A) (A) (A) (A) (A) (A) (A) (A) (A) (A)
                 (A) (A) (A) (A) (A) (A) (A) (A) (A) (A) (A) (A)
                 (A) (A) (A) (A) (A) (A) (A) (A) (A) (A) (A) (A)
                 (A) (A) (A) (A) (A) (A) (A) (A) (A) (A) (A) (A)
                 (A) (A) (A) (A) (A) (A) (A) (A) (A) (A) (A) (A)
                 (A) (A) (A) (A) (A) (A) (A) (A) (A) (A) (A) (A)
                 (A) (A) (A)
 Beta  Orbitals:
       Occupied  (A) (A) (A) (A) (A) (A) (A) (A) (A) (A) (A) (A)
                 (A) (A) (A) (A) (A) (A) (A) (A) (A) (A) (A) (A)
                 (A) (A) (A) (A) (A) (A) (A) (A) (A) (A) (A) (A)
                 (A) (A)
       Virtual   (A) (A) (A) (A) (A) (A) (A) (A) (A) (A) (A) (A)
                 (A) (A) (A) (A) (A) (A) (A) (A) (A) (A) (A) (A)
                 (A) (A) (A) (A) (A) (A) (A) (A) (A) (A) (A) (A)
                 (A) (A) (A) (A) (A) (A) (A) (A) (A) (A) (A) (A)
                 (A) (A) (A) (A) (A) (A) (A) (A) (A) (A) (A) (A)
                 (A) (A) (A) (A) (A) (A) (A) (A) (A) (A) (A) (A)
                 (A) (A) (A) (A) (A) (A) (A) (A) (A) (A) (A) (A)
                 (A) (A) (A) (A) (A) (A) (A) (A) (A) (A) (A) (A)
                 (A) (A) (A) (A) (A) (A) (A) (A) (A) (A) (A) (A)
                 (A) (A) (A) (A) (A) (A) (A) (A) (A) (A) (A) (A)
                 (A) (A) (A) (A) (A) (A) (A) (A) (A) (A) (A) (A)
                 (A) (A) (A) (A) (A) (A) (A) (A) (A) (A) (A) (A)
                 (A) (A) (A) (A) (A) (A) (A) (A) (A) (A) (A) (A)
                 (A) (A) (A) (A) (A) (A) (A) (A) (A) (A) (A) (A)
                 (A) (A) (A) (A)
 The electronic state is 2-A.
 Alpha  occ. eigenvalues --  -38.45224 -38.44609 -38.44560 -38.44446 -38.43481
 Alpha  occ. eigenvalues --  -38.43130 -38.42529  -2.21238  -2.20656  -2.20614
 Alpha  occ. eigenvalues --   -2.20263  -2.19664  -2.18927  -2.18702  -1.15032
 Alpha  occ. eigenvalues --   -1.14863  -1.14831  -1.14490  -1.14364  -1.14332
 Alpha  occ. eigenvalues --   -1.14244  -1.14205  -1.14099  -1.13983  -1.13897
 Alpha  occ. eigenvalues --   -1.13888  -1.13413  -1.13340  -1.13215  -1.12685
 Alpha  occ. eigenvalues --   -1.12573  -1.12567  -1.12387  -1.12325  -1.12285
 Alpha  occ. eigenvalues --   -0.20199  -0.13038  -0.12710  -0.11643
 Alpha virt. eigenvalues --   -0.05697  -0.05429  -0.04083  -0.03457  -0.02824
 Alpha virt. eigenvalues --   -0.02466  -0.01619  -0.00809  -0.00686   0.00177
 Alpha virt. eigenvalues --    0.00254   0.00544   0.00678   0.00748   0.00889
 Alpha virt. eigenvalues --    0.00978   0.01009   0.01133   0.01154   0.01310
 Alpha virt. eigenvalues --    0.01401   0.01471   0.01736   0.01796   0.02024
 Alpha virt. eigenvalues --    0.02504   0.02520   0.02630   0.02713   0.02797
 Alpha virt. eigenvalues --    0.02856   0.02906   0.03028   0.03116   0.03157
 Alpha virt. eigenvalues --    0.03237   0.03322   0.03438   0.03669   0.03782
 Alpha virt. eigenvalues --    0.03937   0.04067   0.04517   0.04764   0.04978
 Alpha virt. eigenvalues --    0.05415   0.05582   0.05803   0.06195   0.06230
 Alpha virt. eigenvalues --    0.06368   0.06654   0.06983   0.07280   0.07518
 Alpha virt. eigenvalues --    0.07923   0.08354   0.08470   0.08712   0.09314
 Alpha virt. eigenvalues --    0.09557   0.09998   0.10362   0.10568   0.11831
 Alpha virt. eigenvalues --    0.12041   0.12759   0.12987   0.13374   0.13565
 Alpha virt. eigenvalues --    0.14182   0.14289   0.14638   0.15160   0.16140
 Alpha virt. eigenvalues --    0.16370   0.16469   0.16925   0.18097   0.20121
 Alpha virt. eigenvalues --    0.24002   0.25616   0.26098   0.29189   0.30093
 Alpha virt. eigenvalues --    0.30717   0.32367   0.33202   0.33536   0.35741
 Alpha virt. eigenvalues --    0.36288   0.36449   0.37126   0.37771   0.38263
 Alpha virt. eigenvalues --    0.38968   0.40081   0.40888   0.41844   0.41939
 Alpha virt. eigenvalues --    0.42684   0.43503   0.43960   0.44235   0.44426
 Alpha virt. eigenvalues --    0.44961   0.45134   0.45567   0.46008   0.46838
 Alpha virt. eigenvalues --    0.47095   0.47906   0.48177   0.48683   0.49220
 Alpha virt. eigenvalues --    0.49803   0.50497   0.50828   0.52027   0.52889
 Alpha virt. eigenvalues --    0.55293   0.55634   0.55950   0.57704   0.58361
 Alpha virt. eigenvalues --    0.60634   0.61773   0.68552   0.69781   0.71706
 Alpha virt. eigenvalues --    0.72990   0.76287   0.77587   0.78366   0.80432
 Alpha virt. eigenvalues --    0.83539   2.11025   2.14180   2.17032   2.21125
 Alpha virt. eigenvalues --    2.23449   2.32462   2.37174   4.40763   4.41870
 Alpha virt. eigenvalues --    4.42166   4.42922   4.44158   4.45474   4.46005
 Alpha virt. eigenvalues --    4.46105   4.46998   4.48102   4.49197   4.50483
 Alpha virt. eigenvalues --    4.56064   4.57736   4.59510   4.64315   4.70945
 Alpha virt. eigenvalues --    4.73904   4.75969   4.82595   4.83943  96.32353
 Alpha virt. eigenvalues --   96.36264  96.39852  96.46656  96.50589  96.61492
 Alpha virt. eigenvalues --   96.66837
  Beta  occ. eigenvalues --  -38.45123 -38.44546 -38.44517 -38.44435 -38.43447
  Beta  occ. eigenvalues --  -38.43142 -38.42508  -2.21058  -2.20583  -2.20503
  Beta  occ. eigenvalues --   -2.20243  -2.19611  -2.18949  -2.18669  -1.14908
  Beta  occ. eigenvalues --   -1.14727  -1.14700  -1.14435  -1.14283  -1.14248
  Beta  occ. eigenvalues --   -1.14180  -1.14126  -1.14025  -1.13963  -1.13882
  Beta  occ. eigenvalues --   -1.13875  -1.13385  -1.13242  -1.13183  -1.12695
  Beta  occ. eigenvalues --   -1.12586  -1.12582  -1.12341  -1.12291  -1.12262
  Beta  occ. eigenvalues --   -0.19239  -0.12841  -0.11579
  Beta virt. eigenvalues --   -0.08310  -0.05472  -0.05178  -0.03485  -0.02787
  Beta virt. eigenvalues --   -0.02354  -0.01900  -0.01513  -0.00755  -0.00348
  Beta virt. eigenvalues --    0.00233   0.00255   0.00688   0.00792   0.00872
  Beta virt. eigenvalues --    0.00922   0.01031   0.01133   0.01176   0.01254
  Beta virt. eigenvalues --    0.01408   0.01483   0.01491   0.01771   0.01976
  Beta virt. eigenvalues --    0.02072   0.02494   0.02581   0.02745   0.02776
  Beta virt. eigenvalues --    0.02849   0.02867   0.02907   0.03089   0.03156
  Beta virt. eigenvalues --    0.03215   0.03286   0.03406   0.03483   0.03730
  Beta virt. eigenvalues --    0.03871   0.04077   0.04216   0.04689   0.04897
  Beta virt. eigenvalues --    0.05048   0.05595   0.05760   0.05905   0.06272
  Beta virt. eigenvalues --    0.06306   0.06475   0.06744   0.07100   0.07336
  Beta virt. eigenvalues --    0.07542   0.08181   0.08563   0.08764   0.08821
  Beta virt. eigenvalues --    0.09374   0.09555   0.10073   0.10780   0.10868
  Beta virt. eigenvalues --    0.11945   0.12453   0.12837   0.13188   0.13596
  Beta virt. eigenvalues --    0.13799   0.14408   0.14632   0.14883   0.15407
  Beta virt. eigenvalues --    0.16225   0.16545   0.16815   0.17174   0.18323
  Beta virt. eigenvalues --    0.20217   0.24205   0.26293   0.26624   0.29704
  Beta virt. eigenvalues --    0.30710   0.31062   0.32818   0.33632   0.33850
  Beta virt. eigenvalues --    0.35914   0.36238   0.36499   0.37337   0.37917
  Beta virt. eigenvalues --    0.38796   0.39169   0.40348   0.41039   0.42036
  Beta virt. eigenvalues --    0.42180   0.42875   0.43696   0.44207   0.44333
  Beta virt. eigenvalues --    0.44524   0.45099   0.45296   0.45790   0.46053
  Beta virt. eigenvalues --    0.46961   0.47287   0.48100   0.48365   0.48911
  Beta virt. eigenvalues --    0.49476   0.50092   0.50654   0.51104   0.52222
  Beta virt. eigenvalues --    0.53068   0.55618   0.55800   0.56237   0.57827
  Beta virt. eigenvalues --    0.58509   0.60727   0.62096   0.68871   0.70020
  Beta virt. eigenvalues --    0.71830   0.73277   0.76319   0.77889   0.78418
  Beta virt. eigenvalues --    0.80523   0.83707   2.11108   2.14141   2.17241
  Beta virt. eigenvalues --    2.21477   2.23604   2.32556   2.37233   4.40892
  Beta virt. eigenvalues --    4.41953   4.42283   4.43030   4.44192   4.45502
  Beta virt. eigenvalues --    4.46063   4.46128   4.47009   4.48112   4.49302
  Beta virt. eigenvalues --    4.50519   4.56138   4.57769   4.59617   4.64404
  Beta virt. eigenvalues --    4.71008   4.73998   4.76011   4.82703   4.83962
  Beta virt. eigenvalues --   96.32384  96.36253  96.39919  96.46775  96.50653
  Beta virt. eigenvalues --   96.61533  96.66864
          Condensed to atoms (all electrons):
               1          2          3          4          5          6
     1  Na  13.762852  -0.156020   0.528300  -3.240525   1.549295  -1.741586
     2  Na  -0.156020  11.836245  -0.063347  -0.460905  -1.036384   0.217373
     3  Na   0.528300  -0.063347  17.404754  -2.332642  -3.136867  -2.734167
     4  Na  -3.240525  -0.460905  -2.332642  26.191880  -5.661518  -0.340788
     5  Na   1.549295  -1.036384  -3.136867  -5.661518  21.158822  -3.333920
     6  Na  -1.741586   0.217373  -2.734167  -0.340788  -3.333920  19.620265
     7  Na  -0.363357   0.210155   0.714888   0.759486  -0.274509  -1.106688
               7
     1  Na  -0.363357
     2  Na   0.210155
     3  Na   0.714888
     4  Na   0.759486
     5  Na  -0.274509
     6  Na  -1.106688
     7  Na  11.032633
          Atomic-Atomic Spin Densities.
               1          2          3          4          5          6
     1  Na   0.101389  -0.058820   0.059774   0.116752  -0.280246   0.250087
     2  Na  -0.058820   0.630178   0.342389  -0.174970  -0.747205   0.127326
     3  Na   0.059774   0.342389   1.309741  -0.908377  -1.386779   0.307735
     4  Na   0.116752  -0.174970  -0.908377   2.756264  -1.517662   0.794844
     5  Na  -0.280246  -0.747205  -1.386779  -1.517662   3.594813   0.076670
     6  Na   0.250087   0.127326   0.307735   0.794844   0.076670  -1.156471
     7  Na  -0.022547   0.045647   0.008824  -0.414105   0.090695   0.203812
               7
     1  Na  -0.022547
     2  Na   0.045647
     3  Na   0.008824
     4  Na  -0.414105
     5  Na   0.090695
     6  Na   0.203812
     7  Na  -0.063600
 Mulliken charges and spin densities:
               1          2
     1  Na   0.661040   0.166388
     2  Na   0.452883   0.164544
     3  Na   0.619080  -0.266693
     4  Na  -3.914987   0.652746
     5  Na   1.735082  -0.169715
     6  Na   0.419511   0.604003
     7  Na   0.027391  -0.151274
 Sum of Mulliken charges =  -0.00000   1.00000
 Mulliken charges and spin densities with hydrogens summed into heavy atoms:
               1          2
     1  Na   0.661040   0.166388
     2  Na   0.452883   0.164544
     3  Na   0.619080  -0.266693
     4  Na  -3.914987   0.652746
     5  Na   1.735082  -0.169715
     6  Na   0.419511   0.604003
     7  Na   0.027391  -0.151274
 Electronic spatial extent (au):  <R**2>=           2233.6758
 Charge=              0.0000 electrons
 Dipole moment (field-independent basis, Debye):
    X=              0.7473    Y=              0.8096    Z=              0.1622  Tot=              1.1136
 Quadrupole moment (field-independent basis, Debye-Ang):
   XX=            -63.7356   YY=            -66.3475   ZZ=            -63.4942
   XY=             -8.0036   XZ=             -0.2386   YZ=             -0.4479
 Traceless Quadrupole moment (field-independent basis, Debye-Ang):
   XX=              0.7902   YY=             -1.8218   ZZ=              1.0316
   XY=             -8.0036   XZ=             -0.2386   YZ=             -0.4479
 Octapole moment (field-independent basis, Debye-Ang**2):
  XXX=            -15.0530  YYY=             26.0899  ZZZ=              9.2417  XYY=            -14.0104
  XXY=             -9.6293  XXZ=             -7.3200  XZZ=             19.3222  YZZ=              2.9347
  YYZ=             -4.6891  XYZ=              3.8705
 Hexadecapole moment (field-independent basis, Debye-Ang**3):
 XXXX=          -1552.3847 YYYY=          -1432.7824 ZZZZ=           -763.6399 XXXY=             -4.8985
 XXXZ=             -2.7751 YYYX=           -136.2973 YYYZ=            -43.4455 ZZZX=            -24.6052
 ZZZY=             41.2746 XXYY=           -428.2218 XXZZ=           -402.6105 YYZZ=           -375.1888
 XXYZ=            -11.3758 YYXZ=             23.4846 ZZXY=            -41.0195
 N-N= 3.612094682090D+02 E-N=-3.451755128939D+03  KE= 1.133231501842D+03
                          Isotropic Fermi Contact Couplings
        Atom                 a.u.       MegaHertz       Gauss      10(-4) cm-1
     1  Na(23)             0.08479     100.31094      35.79344      33.46013
     2  Na(23)             0.38876     459.91186     164.10799     153.41008
     3  Na(23)            -0.05384     -63.68907     -22.72584     -21.24439
     4  Na(23)             0.02080      24.61224       8.78226       8.20976
     5  Na(23)             0.25709     304.14558     108.52671     101.45205
     6  Na(23)             0.05214      61.68332      22.01014      20.57534
     7  Na(23)             0.04045      47.85077      17.07435      15.96130
 --------------------------------------------------------
       Center         ----  Spin Dipole Couplings  ----
                      3XX-RR        3YY-RR        3ZZ-RR
 --------------------------------------------------------
     1   Atom       -0.018653     -0.014400      0.033054
     2   Atom        0.001117      0.024739     -0.025856
     3   Atom        0.001449     -0.001516      0.000068
     4   Atom       -0.041433     -0.029399      0.070832
     5   Atom        0.009236      0.011230     -0.020466
     6   Atom       -0.027741     -0.032606      0.060347
     7   Atom       -0.001409     -0.000680      0.002089
 --------------------------------------------------------
                        XY            XZ            YZ
 --------------------------------------------------------
     1   Atom       -0.013567     -0.032443      0.045488
     2   Atom       -0.016415      0.002363     -0.000676
     3   Atom        0.001803     -0.000554     -0.000626
     4   Atom       -0.003518     -0.001001     -0.007058
     5   Atom       -0.008190      0.005134     -0.003532
     6   Atom        0.001000      0.011995      0.016966
     7   Atom       -0.002141     -0.006025      0.004896
 --------------------------------------------------------


 ---------------------------------------------------------------------------------
              Anisotropic Spin Dipole Couplings in Principal Axis System
 ---------------------------------------------------------------------------------

       Atom             a.u.   MegaHertz   Gauss  10(-4) cm-1        Axes

              Baa    -0.0440    -6.208    -2.215    -2.071 -0.3525  0.7332 -0.5816
     1 Na(23) Bbb    -0.0298    -4.207    -1.501    -1.403  0.8667  0.4902  0.0926
              Bcc     0.0738    10.415     3.716     3.474 -0.3530  0.4714  0.8082
 
              Baa    -0.0261    -3.682    -1.314    -1.228 -0.0975 -0.0183  0.9951
     2 Na(23) Bbb    -0.0071    -1.006    -0.359    -0.336  0.8841  0.4575  0.0950
              Bcc     0.0332     4.688     1.673     1.564 -0.4570  0.8890 -0.0285
 
              Baa    -0.0024    -0.341    -0.122    -0.114 -0.4024  0.9049  0.1385
     3 Na(23) Bbb    -0.0001    -0.018    -0.006    -0.006  0.3296  0.0020  0.9441
              Bcc     0.0025     0.359     0.128     0.120  0.8541  0.4256 -0.2991
 
              Baa    -0.0425    -5.996    -2.139    -2.000  0.9617  0.2729  0.0255
     4 Na(23) Bbb    -0.0289    -4.077    -1.455    -1.360 -0.2740  0.9595  0.0652
              Bcc     0.0713    10.073     3.594     3.360 -0.0067 -0.0697  0.9975
 
              Baa    -0.0215    -3.033    -1.082    -1.012 -0.1463  0.0699  0.9868
     5 Na(23) Bbb     0.0021     0.293     0.104     0.098  0.7323  0.6783  0.0605
              Bcc     0.0194     2.740     0.978     0.914 -0.6651  0.7314 -0.1504
 
              Baa    -0.0358    -5.054    -1.803    -1.686  0.1649  0.9676 -0.1913
     6 Na(23) Bbb    -0.0291    -4.110    -1.467    -1.371  0.9779 -0.1856 -0.0959
              Bcc     0.0649     9.164     3.270     3.057  0.1283  0.1713  0.9768
 
              Baa    -0.0064    -0.897    -0.320    -0.299  0.6730 -0.3210  0.6664
     7 Na(23) Bbb    -0.0030    -0.422    -0.150    -0.141  0.5435  0.8257 -0.1511
              Bcc     0.0093     1.319     0.471     0.440 -0.5017  0.4639  0.7301
 

 ---------------------------------------------------------------------------------

 No NMR shielding tensors so no spin-rotation constants.
 Leave Link  601 at Mon Nov 13 19:28:22 2023, MaxMem=  1879048192 cpu:               2.6 elap:               0.2
 (Enter /home/sekinelabo/g16/l701.exe)
 ... and contract with generalized density number  0.
 Compute integral first derivatives.
 Leave Link  701 at Mon Nov 13 19:28:22 2023, MaxMem=  1879048192 cpu:               1.7 elap:               0.1
 (Enter /home/sekinelabo/g16/l702.exe)
 L702 exits ... SP integral derivatives will be done elsewhere.
 Leave Link  702 at Mon Nov 13 19:28:22 2023, MaxMem=  1879048192 cpu:               0.5 elap:               0.0
 (Enter /home/sekinelabo/g16/l703.exe)
 Integral derivatives from FoFJK, PRISM(SPDF).
 Compute integral first derivatives, UseDBF=F ICtDFT=           0.
 Calling FoFJK, ICntrl=      2127 FMM=F ISym2X=0 I1Cent= 0 IOpClX= 1 NMat=1 NMatS=1 NMatT=0.
 FoFJK:  IHMeth= 1 ICntrl=    2127 DoSepK=F KAlg= 0 I1Cent=           0 FoldK=F
 IRaf=         0 NMat=       1 IRICut=       1 DoRegI=T DoRafI=F ISym2E= 0 IDoP0=0 IntGTp=1.
 FoFCou: FMM=F IPFlag=           0 FMFlag=      100000 FMFlg1=         800
         NFxFlg=           0 DoJE=F BraDBF=F KetDBF=F FulRan=T
         wScrn=  0.000000 ICntrl=      2127 IOpCl=  1 I1Cent=           0 NGrid=           0
         NMat0=    1 NMatS0=      1 NMatT0=    0 NMatD0=    1 NMtDS0=    0 NMtDT0=    0
 Symmetry not used in FoFCou.
 Leave Link  703 at Mon Nov 13 19:28:24 2023, MaxMem=  1879048192 cpu:              35.9 elap:               2.3
 (Enter /home/sekinelabo/g16/l716.exe)
 Dipole        = 2.93993860D-01 3.18528460D-01 6.38209307D-02
 ***** Axes restored to original set *****
 -------------------------------------------------------------------
 Center     Atomic                   Forces (Hartrees/Bohr)
 Number     Number              X              Y              Z
 -------------------------------------------------------------------
      1       11           0.012409132    0.012275146   -0.008931989
      2       11          -0.006729274   -0.009822859   -0.012608859
      3       11          -0.002453189    0.000841780   -0.000636653
      4       11          -0.016423212    0.005249015    0.004319579
      5       11           0.007518777    0.007094240    0.014345804
      6       11           0.008700928   -0.015722603    0.006056888
      7       11          -0.003023163    0.000085281   -0.002544771
 -------------------------------------------------------------------
 Cartesian Forces:  Max     0.016423212 RMS     0.008987143
 Z-matrix is all fixed cartesians, so copy forces.
 Force constants in Cartesian coordinates: 
                1             2             3             4             5 
      1  0.116024D+00
      2  0.335684D-01  0.125028D+00
      3 -0.149254D-01 -0.192195D-01  0.133743D+00
      4 -0.282858D-01 -0.206986D-01 -0.173213D-01  0.769083D-01
      5 -0.118466D-01 -0.434975D-01 -0.284785D-01  0.172930D-01  0.979629D-01
      6  0.115172D-01  0.134422D-01 -0.388403D-01  0.508752D-02  0.148393D-01
      7 -0.877567D-03  0.255686D-02 -0.598448D-03  0.122427D-02  0.353930D-03
      8 -0.198640D-02  0.654984D-02 -0.997641D-03  0.380814D-02  0.833881D-03
      9  0.378141D-02 -0.188277D-02  0.685620D-02  0.715045D-02 -0.113263D-02
     10 -0.576708D-01  0.163856D-01  0.763994D-02 -0.299756D-01  0.957415D-04
     11 -0.219207D-01 -0.392343D-01  0.113233D-01  0.929029D-02 -0.279334D-01
     12  0.198267D-01 -0.667059D-02 -0.418196D-01  0.180719D-01 -0.202828D-01
     13 -0.169976D-01 -0.782386D-02  0.157798D-01  0.108399D-01 -0.146838D-02
     14 -0.132083D-02 -0.207190D-01  0.232899D-01 -0.456315D-02  0.104461D-01
     15 -0.158173D-01 -0.761675D-02 -0.555448D-01 -0.938367D-02 -0.743434D-02
     16 -0.185164D-01 -0.161441D-01  0.646859D-02 -0.263364D-01 -0.748954D-03
     17  0.120320D-01 -0.299192D-01  0.115967D-01 -0.484344D-02 -0.316116D-01
     18 -0.831115D-02  0.193596D-01 -0.148618D-01 -0.208781D-01  0.261724D-01
     19  0.632378D-02 -0.784417D-02  0.295691D-02 -0.437458D-02 -0.367872D-02
     20 -0.852575D-02  0.179219D-02  0.248577D-02 -0.286256D-03 -0.620049D-02
     21  0.392863D-02  0.258771D-02  0.104676D-01  0.172732D-01  0.163167D-01
                6             7             8             9            10 
      6  0.148830D+00
      7  0.346457D-03  0.371686D-01
      8  0.126682D-02 -0.304644D-02  0.306774D-01
      9  0.429019D-02  0.155920D-02  0.346291D-02  0.308654D-01
     10 -0.831500D-02 -0.419029D-01 -0.978857D-02 -0.654586D-02  0.235559D+00
     11  0.297729D-04 -0.333025D-02 -0.475342D-01 -0.502069D-02 -0.155291D-01
     12 -0.364159D-01 -0.186869D-02 -0.673530D-02 -0.603502D-01 -0.443820D-02
     13 -0.363550D-02 -0.414616D-03 -0.142635D-02 -0.405932D-02 -0.393079D-01
     14 -0.903150D-02  0.177797D-02  0.496973D-02  0.366541D-02  0.155015D-01
     15 -0.388216D-02  0.539492D-03  0.195266D-02  0.644092D-02  0.763972D-02
     16 -0.253637D-02  0.274448D-02  0.707813D-02 -0.144964D-02 -0.558088D-01
     17 -0.101757D-01  0.206653D-02  0.548487D-02  0.768132D-03  0.569286D-02
     18 -0.573539D-01  0.325775D-04  0.102106D-02  0.112113D-01  0.320843D-02
     19 -0.246430D-02  0.205781D-02  0.536149D-02 -0.436255D-03 -0.108930D-01
     20 -0.103709D-01 -0.378613D-03 -0.981495D-03  0.139638D-03 -0.123580D-01
     21 -0.166282D-01 -0.105889D-04  0.294835D-04  0.686137D-03  0.810970D-03
               11            12            13            14            15 
     11  0.220223D+00
     12  0.154560D-01  0.224306D+00
     13 -0.512285D-02 -0.209796D-01  0.726605D-01
     14 -0.281157D-01  0.454104D-02  0.132022D-01  0.836905D-01
     15 -0.863435D-02 -0.307657D-01  0.181678D-01  0.120411D-01  0.111233D+00
     16  0.191922D-01 -0.990022D-02 -0.302427D-01 -0.187294D-01 -0.793147D-03
     17 -0.576710D-01  0.926464D-02  0.804145D-02 -0.521867D-01  0.813848D-02
     18 -0.728272D-02 -0.437584D-01  0.949620D-03 -0.301071D-01 -0.342341D-01
     19  0.174204D-01 -0.711896D-03  0.346251D-02 -0.586828D-02 -0.352918D-03
     20 -0.197341D-01  0.442701D-02 -0.540223D-02  0.191512D-02  0.155322D-02
     21 -0.587133D-02 -0.111960D-01 -0.622286D-02 -0.439882D-02  0.675243D-02
               16            17            18            19            20 
     16  0.181404D+00
     17 -0.633608D-02  0.195627D+00
     18  0.229124D-01 -0.149515D-01  0.171162D+00
     19 -0.532444D-01 -0.166533D-01  0.208615D-02  0.566679D-01
     20  0.156882D-01 -0.297231D-01  0.578828D-02  0.112626D-01  0.529319D-01
     21 -0.147016D-01 -0.464067D-02 -0.321651D-01 -0.107769D-02 -0.402304D-02
               21 
     21  0.420830D-01
 Leave Link  716 at Mon Nov 13 19:28:24 2023, MaxMem=  1879048192 cpu:               0.5 elap:               0.0
 (Enter /home/sekinelabo/g16/l103.exe)

 GradGradGradGradGradGradGradGradGradGradGradGradGradGradGradGradGradGrad
 Berny optimization.
 Search for a local minimum.
 Step number   1 out of a maximum of    2
 All quantities printed in internal units (Hartrees-Bohrs-Radians)
 Second derivative matrix not updated -- first step.
 ITU=  0
     Eigenvalues ---    0.03515   0.04098   0.04982   0.07112   0.08796
     Eigenvalues ---    0.10366   0.14262   0.17463   0.18887   0.19850
     Eigenvalues ---    0.22538   0.24231   0.27811   0.28988   0.30706
 Quadratic step=3.153D-01 exceeds max=3.000D-01 adjusted using Lamda=-3.951D-03.
 Angle between NR and scaled steps=   1.73 degrees.
 Angle between quadratic step and forces=  29.54 degrees.
 Linear search not attempted -- first point.
 B after Tr=     0.000000   -0.000000    0.000000
         Rot=    1.000000   -0.000000   -0.000000   -0.000000 Ang=   0.00 deg.
 Variable       Old X    -DE/DX   Delta X   Delta X   Delta X     New X
                                 (Linear)    (Quad)   (Total)
    X1       10.02250   0.01241   0.00000   0.09493   0.09493  10.11743
    Y1        8.66861   0.01228   0.00000   0.06684   0.06684   8.73545
    Z1        2.19218  -0.00893   0.00000  -0.05123  -0.05123   2.14095
    X2        7.46305  -0.00673   0.00000  -0.02777  -0.02777   7.43528
    Y2        4.37602  -0.00982   0.00000  -0.07190  -0.07190   4.30412
    Z2        0.00000  -0.01261   0.00000  -0.09060  -0.09060  -0.09060
    X3        0.00000  -0.00245   0.00000  -0.11165  -0.11165  -0.11165
    Y3        9.58280   0.00084   0.00000   0.03859   0.03859   9.62139
    Z3        4.35325  -0.00064   0.00000   0.00331   0.00331   4.35657
    X4        5.25803  -0.01642   0.00000  -0.05519  -0.05519   5.20284
    Y4        7.57831   0.00525   0.00000   0.03111   0.03111   7.60941
    Z4        4.52053   0.00432   0.00000   0.01625   0.01625   4.53679
    X5       10.35038   0.00752   0.00000   0.09827   0.09827  10.44865
    Y5        7.83659   0.00709   0.00000   0.06936   0.06936   7.90595
    Z5        7.58294   0.01435   0.00000   0.11105   0.11105   7.69399
    X6        8.49546   0.00870   0.00000   0.04715   0.04715   8.54260
    Y6        3.26755  -0.01572   0.00000  -0.07760  -0.07760   3.18995
    Z6        5.23448   0.00606   0.00000   0.03006   0.03006   5.26454
    X7        3.86710  -0.00302   0.00000  -0.04573  -0.04573   3.82136
    Y7        0.00000   0.00009   0.00000  -0.05640  -0.05640  -0.05640
    Z7        5.17845  -0.00254   0.00000  -0.01884  -0.01884   5.15961
         Item               Value     Threshold  Converged?
 Maximum Force            0.016423     0.000450     NO 
 RMS     Force            0.008987     0.000300     NO 
 Maximum Displacement     0.111647     0.001800     NO 
 RMS     Displacement     0.065491     0.001200     NO 
 Predicted change in Energy=-5.554718D-03
 GradGradGradGradGradGradGradGradGradGradGradGradGradGradGradGradGradGrad

 Leave Link  103 at Mon Nov 13 19:28:25 2023, MaxMem=  1879048192 cpu:               0.3 elap:               0.0
 (Enter /home/sekinelabo/g16/l9999.exe)
 1\1\GINC-SEKINELABO-XA7R-R37\Force\UB3LYP\6-311+G(d)\Na7(2)\SEKINELABO
 \13-Nov-2023\0\\#P B3LYP/6-311+g(d) force\\Gaussian input prepared by 
 ASE\\0,2\Na,5.3036788257,4.5872286836,1.1600508344\Na,3.9492766123,2.3
 156883834,0.\Na,0.,5.0709987786,2.3036427222\Na,2.7824282005,4.0102673
 245,2.3921627072\Na,5.4771834781,4.1469454468,4.0127214387\Na,4.495602
 5928,1.7291129822,2.7699685129\Na,2.0463786545,0.,2.7403175181\\Versio
 n=ES64L-G16RevB.01\State=2-A\HF=-1136.0914925\S2=0.766951\S2-1=0.\S2A=
 0.750178\RMSD=7.331e-09\RMSF=8.987e-03\Dipole=0.2939939,-0.3185285,-0.
 0638209\Quadrupole=0.5874814,-1.3544317,0.7669503,5.9505156,0.1773626,
 -0.3330329\PG=C01 [X(Na7)]\\@


 There was a great rattling of the words for the fewness of ideas.
                   -- Charles Baxter in Gryphon
 Job cpu time:       0 days  0 hours  4 minutes 49.6 seconds.
 Elapsed time:       0 days  0 hours  0 minutes 23.7 seconds.
 File lengths (MBytes):  RWF=     32 Int=      0 D2E=      0 Chk=      6 Scr=      1
 Normal termination of Gaussian 16 at Mon Nov 13 19:28:25 2023.
