 Entering Gaussian System, Link 0=g16
 Initial command:
 /home/sekinelabo/g16/l1.exe "/home/sekinelabo/g16temp/Gau-4071397.inp" -scrdir="/home/sekinelabo/g16temp/"
 Entering Link 1 = /home/sekinelabo/g16/l1.exe PID=   4071399.
  
 Copyright (c) 1988-2017, Gaussian, Inc.  All Rights Reserved.
  
 This is part of the Gaussian(R) 16 program.  It is based on
 the Gaussian(R) 09 system (copyright 2009, Gaussian, Inc.),
 the Gaussian(R) 03 system (copyright 2003, Gaussian, Inc.),
 the Gaussian(R) 98 system (copyright 1998, Gaussian, Inc.),
 the Gaussian(R) 94 system (copyright 1995, Gaussian, Inc.),
 the Gaussian 92(TM) system (copyright 1992, Gaussian, Inc.),
 the Gaussian 90(TM) system (copyright 1990, Gaussian, Inc.),
 the Gaussian 88(TM) system (copyright 1988, Gaussian, Inc.),
 the Gaussian 86(TM) system (copyright 1986, Carnegie Mellon
 University), and the Gaussian 82(TM) system (copyright 1983,
 Carnegie Mellon University). Gaussian is a federally registered
 trademark of Gaussian, Inc.
  
 This software contains proprietary and confidential information,
 including trade secrets, belonging to Gaussian, Inc.
  
 This software is provided under written license and may be
 used, copied, transmitted, or stored only in accord with that
 written license.
  
 The following legend is applicable only to US Government
 contracts under FAR:
  
                    RESTRICTED RIGHTS LEGEND
  
 Use, reproduction and disclosure by the US Government is
 subject to restrictions as set forth in subparagraphs (a)
 and (c) of the Commercial Computer Software - Restricted
 Rights clause in FAR 52.227-19.
  
 Gaussian, Inc.
 340 Quinnipiac St., Bldg. 40, Wallingford CT 06492
  
  
 ---------------------------------------------------------------
 Warning -- This program may not be used in any manner that
 competes with the business of Gaussian, Inc. or will provide
 assistance to any competitor of Gaussian, Inc.  The licensee
 of this program is prohibited from giving any competitor of
 Gaussian, Inc. access to this program.  By using this program,
 the user acknowledges that Gaussian, Inc. is engaged in the
 business of creating and licensing software in the field of
 computational chemistry and represents and warrants to the
 licensee that it is not a competitor of Gaussian, Inc. and that
 it will not use this program in any manner prohibited above.
 ---------------------------------------------------------------
  

 Cite this work as:
 Gaussian 16, Revision B.01,
 M. J. Frisch, G. W. Trucks, H. B. Schlegel, G. E. Scuseria, 
 M. A. Robb, J. R. Cheeseman, G. Scalmani, V. Barone, 
 G. A. Petersson, H. Nakatsuji, X. Li, M. Caricato, A. V. Marenich, 
 J. Bloino, B. G. Janesko, R. Gomperts, B. Mennucci, H. P. Hratchian, 
 J. V. Ortiz, A. F. Izmaylov, J. L. Sonnenberg, D. Williams-Young, 
 F. Ding, F. Lipparini, F. Egidi, J. Goings, B. Peng, A. Petrone, 
 T. Henderson, D. Ranasinghe, V. G. Zakrzewski, J. Gao, N. Rega, 
 G. Zheng, W. Liang, M. Hada, M. Ehara, K. Toyota, R. Fukuda, 
 J. Hasegawa, M. Ishida, T. Nakajima, Y. Honda, O. Kitao, H. Nakai, 
 T. Vreven, K. Throssell, J. A. Montgomery, Jr., J. E. Peralta, 
 F. Ogliaro, M. J. Bearpark, J. J. Heyd, E. N. Brothers, K. N. Kudin, 
 V. N. Staroverov, T. A. Keith, R. Kobayashi, J. Normand, 
 K. Raghavachari, A. P. Rendell, J. C. Burant, S. S. Iyengar, 
 J. Tomasi, M. Cossi, J. M. Millam, M. Klene, C. Adamo, R. Cammi, 
 J. W. Ochterski, R. L. Martin, K. Morokuma, O. Farkas, 
 J. B. Foresman, and D. J. Fox, Gaussian, Inc., Wallingford CT, 2016.
 
 ******************************************
 Gaussian 16:  ES64L-G16RevB.01 20-Dec-2017
                13-Nov-2023 
 ******************************************
 %mem=14GB
 %chk=checkpoint.chk
 %nprocshared=16
 Will use up to   16 processors via shared memory.
 -------------------------
 #P B3LYP/6-311+g(d) force
 -------------------------
 1/10=7,30=1,38=1/1,3;
 2/12=2,17=6,18=5,40=1/2;
 3/5=4,6=6,7=11,11=2,25=1,30=1,71=1,74=-5/1,2,3;
 4//1;
 5/5=2,38=5/2;
 6/7=2,8=2,9=2,10=2,28=1/1;
 7/29=1/1,2,3,16;
 1/10=7,30=1/3;
 99//99;
 Leave Link    1 at Mon Nov 13 17:07:20 2023, MaxMem=  1879048192 cpu:               0.3 elap:               0.0
 (Enter /home/sekinelabo/g16/l101.exe)
 ------------------------------
 Gaussian input prepared by ASE
 ------------------------------
 Symbolic Z-matrix:
 Charge =  0 Multiplicity = 2
 Na                    3.44276   2.60449   0. 
 Na                    2.20275   2.60498   2.72304 
 Na                    0.53166   3.26902   0.32477 
 Na                    0.        0.75896   1.87664 
 Na                    2.86342   0.        1.38056 
 Na                    5.69671   0.80225   0.80112 
 Na                    5.11227   3.27509   2.39954 
 
 ITRead=  0  0  0  0  0  0  0
 MicOpt= -1 -1 -1 -1 -1 -1 -1
 NAtoms=      7 NQM=        7 NQMF=       0 NMMI=      0 NMMIF=      0
                NMic=       0 NMicF=      0.
                    Isotopes and Nuclear Properties:
 (Nuclear quadrupole moments (NQMom) in fm**2, nuclear magnetic moments (NMagM)
  in nuclear magnetons)

  Atom         1           2           3           4           5           6           7
 IAtWgt=          23          23          23          23          23          23          23
 AtmWgt=  22.9897697  22.9897697  22.9897697  22.9897697  22.9897697  22.9897697  22.9897697
 NucSpn=           3           3           3           3           3           3           3
 AtZEff=  -0.0000000  -0.0000000  -0.0000000  -0.0000000  -0.0000000  -0.0000000  -0.0000000
 NQMom=   10.4000000  10.4000000  10.4000000  10.4000000  10.4000000  10.4000000  10.4000000
 NMagM=    2.2175200   2.2175200   2.2175200   2.2175200   2.2175200   2.2175200   2.2175200
 AtZNuc=  11.0000000  11.0000000  11.0000000  11.0000000  11.0000000  11.0000000  11.0000000
 Leave Link  101 at Mon Nov 13 17:07:20 2023, MaxMem=  1879048192 cpu:               2.6 elap:               0.2
 (Enter /home/sekinelabo/g16/l103.exe)

 GradGradGradGradGradGradGradGradGradGradGradGradGradGradGradGradGradGrad
 Berny optimization.
 Initialization pass.
 Trust Radius=3.00D-01 FncErr=1.00D-07 GrdErr=1.00D-07 EigMax=2.50D+02 EigMin=1.00D-04
 Number of steps in this run=      2 maximum allowed number of steps=      2.
 GradGradGradGradGradGradGradGradGradGradGradGradGradGradGradGradGradGrad

 Leave Link  103 at Mon Nov 13 17:07:20 2023, MaxMem=  1879048192 cpu:               0.2 elap:               0.0
 (Enter /home/sekinelabo/g16/l202.exe)
                          Input orientation:                          
 ---------------------------------------------------------------------
 Center     Atomic      Atomic             Coordinates (Angstroms)
 Number     Number       Type             X           Y           Z
 ---------------------------------------------------------------------
      1         11           0        3.442765    2.604485    0.000000
      2         11           0        2.202755    2.604981    2.723039
      3         11           0        0.531663    3.269020    0.324773
      4         11           0        0.000000    0.758955    1.876642
      5         11           0        2.863417    0.000000    1.380556
      6         11           0        5.696706    0.802254    0.801115
      7         11           0        5.112269    3.275087    2.399538
 ---------------------------------------------------------------------
                    Distance matrix (angstroms):
                    1          2          3          4          5
     1  Na   0.000000
     2  Na   2.992084   0.000000
     3  Na   3.003597   2.997528   0.000000
     4  Na   4.333636   2.996051   2.998565   0.000000
     5  Na   3.004151   3.004107   4.151897   3.003543   0.000000
     6  Na   2.995009   4.376221   5.743650   5.797508   3.001148
     7  Na   2.999122   3.003159   5.028582   5.721855   4.101445
                    6          7
     6  Na   0.000000
     7  Na   3.001904   0.000000
 Stoichiometry    Na7(2)
 Framework group  C1[X(Na7)]
 Deg. of freedom    15
 Full point group                 C1      NOp   1
 Largest Abelian subgroup         C1      NOp   1
 Largest concise Abelian subgroup C1      NOp   1
                         Standard orientation:                         
 ---------------------------------------------------------------------
 Center     Atomic      Atomic             Coordinates (Angstroms)
 Number     Number       Type             X           Y           Z
 ---------------------------------------------------------------------
      1         11           0       -0.607111   -0.702374   -1.357952
      2         11           0        0.632899   -0.702869    1.365087
      3         11           0        2.303990   -1.366908   -1.033179
      4         11           0        2.835653    1.143156    0.518690
      5         11           0       -0.027764    1.902112    0.022604
      6         11           0       -2.861053    1.099858   -0.556836
      7         11           0       -2.276615   -1.372975    1.041587
 ---------------------------------------------------------------------
 Rotational constants (GHZ):           1.2695910           0.6479379           0.5730174
 Leave Link  202 at Mon Nov 13 17:07:20 2023, MaxMem=  1879048192 cpu:               0.0 elap:               0.0
 (Enter /home/sekinelabo/g16/l301.exe)
 Standard basis: 6-311+G(d) (5D, 7F)
 Ernie: Thresh=  0.10000D-02 Tol=  0.10000D-05 Strict=F.
 There are   217 symmetry adapted cartesian basis functions of A   symmetry.
 There are   210 symmetry adapted basis functions of A   symmetry.
   210 basis functions,   350 primitive gaussians,   217 cartesian basis functions
    39 alpha electrons       38 beta electrons
       nuclear repulsion energy       384.0225594795 Hartrees.
 IExCor=  402 DFT=T Ex+Corr=B3LYP ExCW=0 ScaHFX=  0.200000
 ScaDFX=  0.800000  0.720000  1.000000  0.810000 ScalE2=  1.000000  1.000000
 IRadAn=      5 IRanWt=     -1 IRanGd=            0 ICorTp=0 IEmpDi=  4
 NAtoms=    7 NActive=    7 NUniq=    7 SFac= 1.00D+00 NAtFMM=   60 NAOKFM=F Big=F
 Integral buffers will be    131072 words long.
 Raffenetti 2 integral format.
 Two-electron integral symmetry is turned on.
 Leave Link  301 at Mon Nov 13 17:07:20 2023, MaxMem=  1879048192 cpu:               0.5 elap:               0.0
 (Enter /home/sekinelabo/g16/l302.exe)
 NPDir=0 NMtPBC=     1 NCelOv=     1 NCel=       1 NClECP=     1 NCelD=      1
         NCelK=      1 NCelE2=     1 NClLst=     1 CellRange=     0.0.
 One-electron integrals computed using PRISM.
 One-electron integral symmetry used in STVInt
 NBasis=   210 RedAO= T EigKep=  1.62D-06  NBF=   210
 NBsUse=   210 1.00D-06 EigRej= -1.00D+00 NBFU=   210
 Precomputing XC quadrature grid using
 IXCGrd= 4 IRadAn=           5 IRanWt=          -1 IRanGd=           0 AccXCQ= 0.00D+00.
 Generated NRdTot=       0 NPtTot=           0 NUsed=           0 NTot=          32
 NSgBfM=   210   210   210   210   210 MxSgAt=     7 MxSgA2=     7.
 Leave Link  302 at Mon Nov 13 17:07:20 2023, MaxMem=  1879048192 cpu:               2.1 elap:               0.1
 (Enter /home/sekinelabo/g16/l303.exe)
 DipDrv:  MaxL=1.
 Leave Link  303 at Mon Nov 13 17:07:20 2023, MaxMem=  1879048192 cpu:               0.5 elap:               0.0
 (Enter /home/sekinelabo/g16/l401.exe)
 ExpMin= 7.60D-03 ExpMax= 3.62D+04 ExpMxC= 1.21D+03 IAcc=3 IRadAn=         5 AccDes= 0.00D+00
 Harris functional with IExCor=  402 and IRadAn=       5 diagonalized for initial guess.
 HarFok:  IExCor=  402 AccDes= 0.00D+00 IRadAn=         5 IDoV= 1 UseB2=F ITyADJ=14
 ICtDFT=  3500011 ScaDFX=  1.000000  1.000000  1.000000  1.000000
 FoFCou: FMM=F IPFlag=           0 FMFlag=      100000 FMFlg1=           0
         NFxFlg=           0 DoJE=T BraDBF=F KetDBF=T FulRan=T
         wScrn=  0.000000 ICntrl=       500 IOpCl=  0 I1Cent=   200000004 NGrid=           0
         NMat0=    1 NMatS0=      1 NMatT0=    0 NMatD0=    1 NMtDS0=    0 NMtDT0=    0
 Petite list used in FoFCou.
 Harris En= -1135.87092028913    
 JPrj=0 DoOrth=F DoCkMO=F.
 Initial guess <Sx>= 0.0000 <Sy>= 0.0000 <Sz>= 0.5000 <S**2>= 0.7500 S= 0.5000
 Leave Link  401 at Mon Nov 13 17:07:21 2023, MaxMem=  1879048192 cpu:               4.8 elap:               0.3
 (Enter /home/sekinelabo/g16/l502.exe)
 Keep R1 and R2 ints in memory in canonical form, NReq=507620374.
 FoFCou: FMM=F IPFlag=           0 FMFlag=           0 FMFlg1=           0
         NFxFlg=           0 DoJE=F BraDBF=F KetDBF=F FulRan=T
         wScrn=  0.000000 ICntrl=       600 IOpCl=  0 I1Cent=           0 NGrid=           0
         NMat0=    1 NMatS0=  22155 NMatT0=    0 NMatD0=    1 NMtDS0=    0 NMtDT0=    0
 Symmetry not used in FoFCou.
 Two-electron integral symmetry not used.
 UHF open shell SCF:
 Using DIIS extrapolation, IDIIS=  1040.
 NGot=  1879048192 LenX=  1388082362 LenY=  1388034832
 Requested convergence on RMS density matrix=1.00D-08 within 128 cycles.
 Requested convergence on MAX density matrix=1.00D-06.
 Requested convergence on             energy=1.00D-06.
 No special actions if energy rises.

 Cycle   1  Pass 1  IDiag  1:
 E= -1136.05190763970    
 DIIS: error= 1.49D-02 at cycle   1 NSaved=   1.
 NSaved= 1 IEnMin= 1 EnMin= -1136.05190763970     IErMin= 1 ErrMin= 1.49D-02
 ErrMax= 1.49D-02  0.00D+00 EMaxC= 1.00D-01 BMatC= 2.06D-01 BMatP= 2.06D-01
 IDIUse=3 WtCom= 8.51D-01 WtEn= 1.49D-01
 Coeff-Com:  0.100D+01
 Coeff-En:   0.100D+01
 Coeff:      0.100D+01
 Gap=     0.035 Goal=   None    Shift=    0.000
 Gap=     0.036 Goal=   None    Shift=    0.000
 GapD=    0.035 DampG=0.250 DampE=0.500 DampFc=0.2500 IDamp=-1.
 Damping current iteration by 2.50D-01
 RMSDP=4.74D-02 MaxDP=3.79D+00              OVMax= 2.86D-01

 Cycle   2  Pass 1  IDiag  1:
 E= -1136.06800435799     Delta-E=       -0.016096718293 Rises=F Damp=T
 DIIS: error= 1.04D-02 at cycle   2 NSaved=   2.
 NSaved= 2 IEnMin= 2 EnMin= -1136.06800435799     IErMin= 2 ErrMin= 1.04D-02
 ErrMax= 1.04D-02  0.00D+00 EMaxC= 1.00D-01 BMatC= 7.67D-02 BMatP= 2.06D-01
 IDIUse=3 WtCom= 8.96D-01 WtEn= 1.04D-01
 Coeff-Com: -0.122D+01 0.222D+01
 Coeff-En:   0.000D+00 0.100D+01
 Coeff:     -0.109D+01 0.209D+01
 Gap=     0.049 Goal=   None    Shift=    0.000
 Gap=     0.040 Goal=   None    Shift=    0.000
 RMSDP=1.90D-02 MaxDP=2.08D+00 DE=-1.61D-02 OVMax= 2.02D-01

 Cycle   3  Pass 1  IDiag  1:
 E= -1136.09396921939     Delta-E=       -0.025964861401 Rises=F Damp=F
 DIIS: error= 4.31D-03 at cycle   3 NSaved=   3.
 NSaved= 3 IEnMin= 3 EnMin= -1136.09396921939     IErMin= 3 ErrMin= 4.31D-03
 ErrMax= 4.31D-03  0.00D+00 EMaxC= 1.00D-01 BMatC= 5.67D-03 BMatP= 7.67D-02
 IDIUse=3 WtCom= 9.57D-01 WtEn= 4.31D-02
 Coeff-Com: -0.317D+00 0.578D+00 0.739D+00
 Coeff-En:   0.000D+00 0.000D+00 0.100D+01
 Coeff:     -0.303D+00 0.553D+00 0.750D+00
 Gap=     0.045 Goal=   None    Shift=    0.000
 Gap=     0.038 Goal=   None    Shift=    0.000
 RMSDP=9.38D-03 MaxDP=4.39D-01 DE=-2.60D-02 OVMax= 6.77D-02

 Cycle   4  Pass 1  IDiag  1:
 E= -1136.09548659845     Delta-E=       -0.001517379054 Rises=F Damp=F
 DIIS: error= 3.35D-03 at cycle   4 NSaved=   4.
 NSaved= 4 IEnMin= 4 EnMin= -1136.09548659845     IErMin= 4 ErrMin= 3.35D-03
 ErrMax= 3.35D-03  0.00D+00 EMaxC= 1.00D-01 BMatC= 3.02D-03 BMatP= 5.67D-03
 IDIUse=3 WtCom= 9.67D-01 WtEn= 3.35D-02
 Coeff-Com:  0.492D-02-0.669D-02 0.421D+00 0.580D+00
 Coeff-En:   0.000D+00 0.000D+00 0.365D+00 0.635D+00
 Coeff:      0.476D-02-0.646D-02 0.420D+00 0.582D+00
 Gap=     0.048 Goal=   None    Shift=    0.000
 Gap=     0.038 Goal=   None    Shift=    0.000
 RMSDP=3.80D-03 MaxDP=1.95D-01 DE=-1.52D-03 OVMax= 2.98D-02

 Cycle   5  Pass 1  IDiag  1:
 E= -1136.09724686799     Delta-E=       -0.001760269541 Rises=F Damp=F
 DIIS: error= 2.21D-04 at cycle   5 NSaved=   5.
 NSaved= 5 IEnMin= 5 EnMin= -1136.09724686799     IErMin= 5 ErrMin= 2.21D-04
 ErrMax= 2.21D-04  0.00D+00 EMaxC= 1.00D-01 BMatC= 9.76D-06 BMatP= 3.02D-03
 IDIUse=3 WtCom= 9.98D-01 WtEn= 2.21D-03
 Coeff-Com: -0.286D-03-0.182D-03 0.117D+00 0.165D+00 0.718D+00
 Coeff-En:   0.000D+00 0.000D+00 0.000D+00 0.000D+00 0.100D+01
 Coeff:     -0.285D-03-0.181D-03 0.117D+00 0.165D+00 0.719D+00
 Gap=     0.048 Goal=   None    Shift=    0.000
 Gap=     0.039 Goal=   None    Shift=    0.000
 RMSDP=7.74D-04 MaxDP=8.70D-02 DE=-1.76D-03 OVMax= 7.04D-03

 Cycle   6  Pass 1  IDiag  1:
 E= -1136.09725426259     Delta-E=       -0.000007394600 Rises=F Damp=F
 DIIS: error= 1.84D-04 at cycle   6 NSaved=   6.
 NSaved= 6 IEnMin= 6 EnMin= -1136.09725426259     IErMin= 6 ErrMin= 1.84D-04
 ErrMax= 1.84D-04  0.00D+00 EMaxC= 1.00D-01 BMatC= 7.67D-06 BMatP= 9.76D-06
 IDIUse=3 WtCom= 9.98D-01 WtEn= 1.84D-03
 Coeff-Com: -0.243D-02 0.292D-02-0.450D-01-0.602D-01 0.491D+00 0.613D+00
 Coeff-En:   0.000D+00 0.000D+00 0.000D+00 0.000D+00 0.298D+00 0.702D+00
 Coeff:     -0.243D-02 0.292D-02-0.449D-01-0.601D-01 0.491D+00 0.613D+00
 Gap=     0.048 Goal=   None    Shift=    0.000
 Gap=     0.039 Goal=   None    Shift=    0.000
 RMSDP=4.49D-04 MaxDP=3.52D-02 DE=-7.39D-06 OVMax= 4.44D-03

 Cycle   7  Pass 1  IDiag  1:
 E= -1136.09726480613     Delta-E=       -0.000010543541 Rises=F Damp=F
 DIIS: error= 3.71D-05 at cycle   7 NSaved=   7.
 NSaved= 7 IEnMin= 7 EnMin= -1136.09726480613     IErMin= 7 ErrMin= 3.71D-05
 ErrMax= 3.71D-05  0.00D+00 EMaxC= 1.00D-01 BMatC= 3.91D-07 BMatP= 7.67D-06
 IDIUse=1 WtCom= 1.00D+00 WtEn= 0.00D+00
 Coeff-Com: -0.189D-03 0.209D-03-0.248D-01-0.328D-01-0.180D-01 0.104D+00
 Coeff-Com:  0.972D+00
 Coeff:     -0.189D-03 0.209D-03-0.248D-01-0.328D-01-0.180D-01 0.104D+00
 Coeff:      0.972D+00
 Gap=     0.049 Goal=   None    Shift=    0.000
 Gap=     0.039 Goal=   None    Shift=    0.000
 RMSDP=1.65D-04 MaxDP=1.21D-02 DE=-1.05D-05 OVMax= 2.21D-03

 Cycle   8  Pass 1  IDiag  1:
 E= -1136.09726557394     Delta-E=       -0.000000767816 Rises=F Damp=F
 DIIS: error= 5.19D-05 at cycle   8 NSaved=   8.
 NSaved= 8 IEnMin= 8 EnMin= -1136.09726557394     IErMin= 7 ErrMin= 3.71D-05
 ErrMax= 5.19D-05  0.00D+00 EMaxC= 1.00D-01 BMatC= 5.68D-07 BMatP= 3.91D-07
 IDIUse=1 WtCom= 1.00D+00 WtEn= 0.00D+00
 Coeff-Com:  0.618D-03-0.793D-03-0.932D-02-0.122D-01-0.127D+00-0.571D-01
 Coeff-Com:  0.756D+00 0.450D+00
 Coeff:      0.618D-03-0.793D-03-0.932D-02-0.122D-01-0.127D+00-0.571D-01
 Coeff:      0.756D+00 0.450D+00
 Gap=     0.049 Goal=   None    Shift=    0.000
 Gap=     0.039 Goal=   None    Shift=    0.000
 RMSDP=8.09D-05 MaxDP=6.32D-03 DE=-7.68D-07 OVMax= 1.29D-03

 Cycle   9  Pass 1  IDiag  1:
 E= -1136.09726639347     Delta-E=       -0.000000819522 Rises=F Damp=F
 DIIS: error= 1.15D-05 at cycle   9 NSaved=   9.
 NSaved= 9 IEnMin= 9 EnMin= -1136.09726639347     IErMin= 9 ErrMin= 1.15D-05
 ErrMax= 1.15D-05  0.00D+00 EMaxC= 1.00D-01 BMatC= 4.12D-08 BMatP= 3.91D-07
 IDIUse=1 WtCom= 1.00D+00 WtEn= 0.00D+00
 Coeff-Com:  0.621D-03-0.798D-03 0.361D-02 0.447D-02-0.493D-01-0.546D-01
 Coeff-Com:  0.264D-02 0.202D+00 0.891D+00
 Coeff:      0.621D-03-0.798D-03 0.361D-02 0.447D-02-0.493D-01-0.546D-01
 Coeff:      0.264D-02 0.202D+00 0.891D+00
 Gap=     0.049 Goal=   None    Shift=    0.000
 Gap=     0.039 Goal=   None    Shift=    0.000
 RMSDP=6.05D-05 MaxDP=5.11D-03 DE=-8.20D-07 OVMax= 6.37D-04

 Cycle  10  Pass 1  IDiag  1:
 E= -1136.09726651225     Delta-E=       -0.000000118788 Rises=F Damp=F
 DIIS: error= 2.82D-06 at cycle  10 NSaved=  10.
 NSaved=10 IEnMin=10 EnMin= -1136.09726651225     IErMin=10 ErrMin= 2.82D-06
 ErrMax= 2.82D-06  0.00D+00 EMaxC= 1.00D-01 BMatC= 3.54D-09 BMatP= 4.12D-08
 IDIUse=1 WtCom= 1.00D+00 WtEn= 0.00D+00
 Coeff-Com:  0.455D-04-0.503D-04 0.188D-02 0.217D-02 0.297D-03-0.978D-02
 Coeff-Com: -0.713D-01-0.449D-03 0.183D+00 0.895D+00
 Coeff:      0.455D-04-0.503D-04 0.188D-02 0.217D-02 0.297D-03-0.978D-02
 Coeff:     -0.713D-01-0.449D-03 0.183D+00 0.895D+00
 Gap=     0.049 Goal=   None    Shift=    0.000
 Gap=     0.039 Goal=   None    Shift=    0.000
 RMSDP=2.52D-05 MaxDP=2.39D-03 DE=-1.19D-07 OVMax= 2.09D-04

 Cycle  11  Pass 1  IDiag  1:
 E= -1136.09726652580     Delta-E=       -0.000000013549 Rises=F Damp=F
 DIIS: error= 1.40D-06 at cycle  11 NSaved=  11.
 NSaved=11 IEnMin=11 EnMin= -1136.09726652580     IErMin=11 ErrMin= 1.40D-06
 ErrMax= 1.40D-06  0.00D+00 EMaxC= 1.00D-01 BMatC= 9.18D-10 BMatP= 3.54D-09
 IDIUse=1 WtCom= 1.00D+00 WtEn= 0.00D+00
 Coeff-Com: -0.139D-03 0.181D-03-0.522D-04-0.923D-04 0.131D-01 0.913D-02
 Coeff-Com: -0.362D-01-0.476D-01-0.126D+00 0.293D+00 0.894D+00
 Coeff:     -0.139D-03 0.181D-03-0.522D-04-0.923D-04 0.131D-01 0.913D-02
 Coeff:     -0.362D-01-0.476D-01-0.126D+00 0.293D+00 0.894D+00
 Gap=     0.049 Goal=   None    Shift=    0.000
 Gap=     0.039 Goal=   None    Shift=    0.000
 RMSDP=1.46D-05 MaxDP=1.51D-03 DE=-1.35D-08 OVMax= 1.42D-04

 Cycle  12  Pass 1  IDiag  1:
 E= -1136.09726652979     Delta-E=       -0.000000003984 Rises=F Damp=F
 DIIS: error= 8.47D-07 at cycle  12 NSaved=  12.
 NSaved=12 IEnMin=12 EnMin= -1136.09726652979     IErMin=12 ErrMin= 8.47D-07
 ErrMax= 8.47D-07  0.00D+00 EMaxC= 1.00D-01 BMatC= 2.48D-10 BMatP= 9.18D-10
 IDIUse=1 WtCom= 1.00D+00 WtEn= 0.00D+00
 Coeff-Com: -0.562D-04 0.717D-04-0.162D-03-0.192D-03 0.519D-02 0.453D-02
 Coeff-Com: -0.628D-02-0.193D-01-0.747D-01 0.107D-01 0.372D+00 0.708D+00
 Coeff:     -0.562D-04 0.717D-04-0.162D-03-0.192D-03 0.519D-02 0.453D-02
 Coeff:     -0.628D-02-0.193D-01-0.747D-01 0.107D-01 0.372D+00 0.708D+00
 Gap=     0.049 Goal=   None    Shift=    0.000
 Gap=     0.039 Goal=   None    Shift=    0.000
 RMSDP=3.93D-06 MaxDP=4.51D-04 DE=-3.98D-09 OVMax= 6.85D-05

 Cycle  13  Pass 1  IDiag  1:
 E= -1136.09726653080     Delta-E=       -0.000000001017 Rises=F Damp=F
 DIIS: error= 6.88D-07 at cycle  13 NSaved=  13.
 NSaved=13 IEnMin=13 EnMin= -1136.09726653080     IErMin=13 ErrMin= 6.88D-07
 ErrMax= 6.88D-07  0.00D+00 EMaxC= 1.00D-01 BMatC= 1.08D-10 BMatP= 2.48D-10
 IDIUse=1 WtCom= 1.00D+00 WtEn= 0.00D+00
 Coeff-Com:  0.231D-04-0.309D-04-0.480D-04-0.461D-04-0.213D-02-0.117D-02
 Coeff-Com:  0.110D-01 0.705D-02 0.235D-02-0.101D+00-0.123D+00 0.375D+00
 Coeff-Com:  0.832D+00
 Coeff:      0.231D-04-0.309D-04-0.480D-04-0.461D-04-0.213D-02-0.117D-02
 Coeff:      0.110D-01 0.705D-02 0.235D-02-0.101D+00-0.123D+00 0.375D+00
 Coeff:      0.832D+00
 Gap=     0.049 Goal=   None    Shift=    0.000
 Gap=     0.039 Goal=   None    Shift=    0.000
 RMSDP=2.96D-06 MaxDP=2.38D-04 DE=-1.02D-09 OVMax= 6.89D-05

 Cycle  14  Pass 1  IDiag  1:
 E= -1136.09726653152     Delta-E=       -0.000000000714 Rises=F Damp=F
 DIIS: error= 4.79D-07 at cycle  14 NSaved=  14.
 NSaved=14 IEnMin=14 EnMin= -1136.09726653152     IErMin=14 ErrMin= 4.79D-07
 ErrMax= 4.79D-07  0.00D+00 EMaxC= 1.00D-01 BMatC= 2.85D-11 BMatP= 1.08D-10
 IDIUse=1 WtCom= 1.00D+00 WtEn= 0.00D+00
 Coeff-Com:  0.198D-04-0.251D-04 0.237D-04 0.310D-04-0.188D-02-0.191D-02
 Coeff-Com:  0.435D-03 0.839D-02 0.381D-01 0.208D-01-0.165D+00-0.483D+00
 Coeff-Com: -0.255D+00 0.184D+01
 Coeff:      0.198D-04-0.251D-04 0.237D-04 0.310D-04-0.188D-02-0.191D-02
 Coeff:      0.435D-03 0.839D-02 0.381D-01 0.208D-01-0.165D+00-0.483D+00
 Coeff:     -0.255D+00 0.184D+01
 Gap=     0.049 Goal=   None    Shift=    0.000
 Gap=     0.039 Goal=   None    Shift=    0.000
 RMSDP=3.40D-06 MaxDP=2.88D-04 DE=-7.14D-10 OVMax= 1.03D-04

 Cycle  15  Pass 1  IDiag  1:
 E= -1136.09726653204     Delta-E=       -0.000000000522 Rises=F Damp=F
 DIIS: error= 1.37D-07 at cycle  15 NSaved=  15.
 NSaved=15 IEnMin=15 EnMin= -1136.09726653204     IErMin=15 ErrMin= 1.37D-07
 ErrMax= 1.37D-07  0.00D+00 EMaxC= 1.00D-01 BMatC= 3.35D-12 BMatP= 2.85D-11
 IDIUse=1 WtCom= 1.00D+00 WtEn= 0.00D+00
 Coeff-Com: -0.453D-05 0.617D-05 0.736D-05-0.360D-06 0.362D-03 0.298D-03
 Coeff-Com: -0.224D-02-0.141D-02-0.313D-04 0.216D-01 0.227D-01-0.721D-01
 Coeff-Com: -0.158D+00-0.379D-01 0.123D+01
 Coeff:     -0.453D-05 0.617D-05 0.736D-05-0.360D-06 0.362D-03 0.298D-03
 Coeff:     -0.224D-02-0.141D-02-0.313D-04 0.216D-01 0.227D-01-0.721D-01
 Coeff:     -0.158D+00-0.379D-01 0.123D+01
 Gap=     0.049 Goal=   None    Shift=    0.000
 Gap=     0.039 Goal=   None    Shift=    0.000
 RMSDP=1.05D-06 MaxDP=8.16D-05 DE=-5.22D-10 OVMax= 3.32D-05

 Cycle  16  Pass 1  IDiag  1:
 E= -1136.09726653208     Delta-E=       -0.000000000044 Rises=F Damp=F
 DIIS: error= 4.83D-08 at cycle  16 NSaved=  16.
 NSaved=16 IEnMin=16 EnMin= -1136.09726653208     IErMin=16 ErrMin= 4.83D-08
 ErrMax= 4.83D-08  0.00D+00 EMaxC= 1.00D-01 BMatC= 4.75D-13 BMatP= 3.35D-12
 IDIUse=1 WtCom= 1.00D+00 WtEn= 0.00D+00
 Coeff-Com: -0.232D-05 0.293D-05 0.375D-05 0.513D-06 0.244D-03 0.273D-03
 Coeff-Com: -0.698D-04-0.120D-02-0.552D-02-0.413D-02 0.279D-01 0.729D-01
 Coeff-Com:  0.299D-01-0.295D+00 0.124D+00 0.105D+01
 Coeff:     -0.232D-05 0.293D-05 0.375D-05 0.513D-06 0.244D-03 0.273D-03
 Coeff:     -0.698D-04-0.120D-02-0.552D-02-0.413D-02 0.279D-01 0.729D-01
 Coeff:      0.299D-01-0.295D+00 0.124D+00 0.105D+01
 Gap=     0.049 Goal=   None    Shift=    0.000
 Gap=     0.039 Goal=   None    Shift=    0.000
 RMSDP=2.81D-07 MaxDP=1.88D-05 DE=-4.37D-11 OVMax= 6.06D-06

 Cycle  17  Pass 1  IDiag  1:
 E= -1136.09726653209     Delta-E=       -0.000000000007 Rises=F Damp=F
 DIIS: error= 1.54D-08 at cycle  17 NSaved=  17.
 NSaved=17 IEnMin=17 EnMin= -1136.09726653209     IErMin=17 ErrMin= 1.54D-08
 ErrMax= 1.54D-08  0.00D+00 EMaxC= 1.00D-01 BMatC= 6.36D-14 BMatP= 4.75D-13
 IDIUse=1 WtCom= 1.00D+00 WtEn= 0.00D+00
 Coeff-Com:  0.563D-06-0.783D-06-0.116D-05 0.295D-06-0.273D-04-0.248D-04
 Coeff-Com:  0.190D-03 0.177D-03 0.143D-03-0.279D-02-0.247D-02 0.666D-02
 Coeff-Com:  0.186D-01 0.137D-01-0.182D+00 0.135D+00 0.101D+01
 Coeff:      0.563D-06-0.783D-06-0.116D-05 0.295D-06-0.273D-04-0.248D-04
 Coeff:      0.190D-03 0.177D-03 0.143D-03-0.279D-02-0.247D-02 0.666D-02
 Coeff:      0.186D-01 0.137D-01-0.182D+00 0.135D+00 0.101D+01
 Gap=     0.049 Goal=   None    Shift=    0.000
 Gap=     0.039 Goal=   None    Shift=    0.000
 RMSDP=1.27D-07 MaxDP=1.25D-05 DE=-7.28D-12 OVMax= 9.68D-07

 Cycle  18  Pass 1  IDiag  1:
 E= -1136.09726653209     Delta-E=        0.000000000004 Rises=F Damp=F
 DIIS: error= 5.07D-09 at cycle  18 NSaved=  18.
 NSaved=18 IEnMin=17 EnMin= -1136.09726653209     IErMin=18 ErrMin= 5.07D-09
 ErrMax= 5.07D-09  0.00D+00 EMaxC= 1.00D-01 BMatC= 9.04D-15 BMatP= 6.36D-14
 IDIUse=1 WtCom= 1.00D+00 WtEn= 0.00D+00
 Coeff-Com:  0.340D-06-0.437D-06-0.154D-05-0.953D-06-0.394D-04-0.386D-04
 Coeff-Com:  0.727D-04 0.187D-03 0.661D-03 0.792D-04-0.418D-02-0.679D-02
 Coeff-Com:  0.137D-02 0.320D-01-0.267D-01-0.145D+00 0.147D+00 0.100D+01
 Coeff:      0.340D-06-0.437D-06-0.154D-05-0.953D-06-0.394D-04-0.386D-04
 Coeff:      0.727D-04 0.187D-03 0.661D-03 0.792D-04-0.418D-02-0.679D-02
 Coeff:      0.137D-02 0.320D-01-0.267D-01-0.145D+00 0.147D+00 0.100D+01
 Gap=     0.049 Goal=   None    Shift=    0.000
 Gap=     0.039 Goal=   None    Shift=    0.000
 RMSDP=5.39D-08 MaxDP=4.55D-06 DE= 3.64D-12 OVMax= 3.18D-07

 Cycle  19  Pass 1  IDiag  1:
 E= -1136.09726653210     Delta-E=       -0.000000000009 Rises=F Damp=F
 DIIS: error= 1.74D-09 at cycle  19 NSaved=  19.
 NSaved=19 IEnMin=19 EnMin= -1136.09726653210     IErMin=19 ErrMin= 1.74D-09
 ErrMax= 1.74D-09  0.00D+00 EMaxC= 1.00D-01 BMatC= 8.55D-16 BMatP= 9.04D-15
 IDIUse=1 WtCom= 1.00D+00 WtEn= 0.00D+00
 Large coefficients: NSaved= 19 BigCof=    0.00 CofMax=   10.00 Det=-3.22D-15
 Inversion failed.  Reducing to 18 matrices.
 Large coefficients: NSaved= 18 BigCof=    0.00 CofMax=   10.00 Det=-3.45D-15
 Inversion failed.  Reducing to 17 matrices.
 Large coefficients: NSaved= 17 BigCof=    0.00 CofMax=   10.00 Det=-3.49D-15
 Inversion failed.  Reducing to 16 matrices.
 Large coefficients: NSaved= 16 BigCof=    0.00 CofMax=   10.00 Det=-3.78D-15
 Inversion failed.  Reducing to 15 matrices.
 Coeff-Com: -0.173D-05-0.151D-05-0.192D-04 0.805D-05 0.845D-04 0.365D-03
 Coeff-Com: -0.330D-03-0.228D-02-0.194D-02 0.530D-02 0.121D-01-0.339D-01
 Coeff-Com: -0.947D-01 0.918D-01 0.102D+01
 Coeff:     -0.173D-05-0.151D-05-0.192D-04 0.805D-05 0.845D-04 0.365D-03
 Coeff:     -0.330D-03-0.228D-02-0.194D-02 0.530D-02 0.121D-01-0.339D-01
 Coeff:     -0.947D-01 0.918D-01 0.102D+01
 Gap=     0.049 Goal=   None    Shift=    0.000
 Gap=     0.039 Goal=   None    Shift=    0.000
 RMSDP=1.99D-08 MaxDP=1.30D-06 DE=-9.09D-12 OVMax= 1.32D-07

 Cycle  20  Pass 1  IDiag  1:
 E= -1136.09726653209     Delta-E=        0.000000000008 Rises=F Damp=F
 DIIS: error= 6.24D-10 at cycle  20 NSaved=  16.
 NSaved=16 IEnMin=15 EnMin= -1136.09726653210     IErMin=16 ErrMin= 6.24D-10
 ErrMax= 6.24D-10  0.00D+00 EMaxC= 1.00D-01 BMatC= 1.58D-16 BMatP= 8.55D-16
 IDIUse=1 WtCom= 1.00D+00 WtEn= 0.00D+00
 Large coefficients: NSaved= 16 BigCof=    0.00 CofMax=   10.00 Det=-2.63D-16
 Inversion failed.  Reducing to 15 matrices.
 Coeff-Com: -0.421D-06 0.731D-05 0.176D-06-0.390D-04-0.984D-04 0.285D-03
 Coeff-Com:  0.437D-03 0.225D-05-0.188D-02-0.626D-03 0.175D-01 0.813D-02
 Coeff-Com: -0.134D+00-0.169D+00 0.128D+01
 Coeff:     -0.421D-06 0.731D-05 0.176D-06-0.390D-04-0.984D-04 0.285D-03
 Coeff:      0.437D-03 0.225D-05-0.188D-02-0.626D-03 0.175D-01 0.813D-02
 Coeff:     -0.134D+00-0.169D+00 0.128D+01
 Gap=     0.049 Goal=   None    Shift=    0.000
 Gap=     0.039 Goal=   None    Shift=    0.000
 RMSDP=9.10D-09 MaxDP=4.92D-07 DE= 7.73D-12 OVMax= 8.32D-08

 SCF Done:  E(UB3LYP) =  -1136.09726653     A.U. after   20 cycles
            NFock= 20  Conv=0.91D-08     -V/T= 2.0025
 <Sx>= 0.0000 <Sy>= 0.0000 <Sz>= 0.5000 <S**2>= 0.7683 S= 0.5091
 <L.S>= 0.000000000000E+00
 KE= 1.133315673170D+03 PE=-3.497493888568D+03 EE= 8.440583893865D+02
 Annihilation of the first spin contaminant:
 S**2 before annihilation     0.7683,   after     0.7502
 Leave Link  502 at Mon Nov 13 17:07:38 2023, MaxMem=  1879048192 cpu:             199.1 elap:              16.9
 (Enter /home/sekinelabo/g16/l601.exe)
 Copying SCF densities to generalized density rwf, IOpCl= 1 IROHF=0.

 **********************************************************************

            Population analysis using the SCF Density.

 **********************************************************************

 Orbital symmetries:
 Alpha Orbitals:
       Occupied  (A) (A) (A) (A) (A) (A) (A) (A) (A) (A) (A) (A)
                 (A) (A) (A) (A) (A) (A) (A) (A) (A) (A) (A) (A)
                 (A) (A) (A) (A) (A) (A) (A) (A) (A) (A) (A) (A)
                 (A) (A) (A)
       Virtual   (A) (A) (A) (A) (A) (A) (A) (A) (A) (A) (A) (A)
                 (A) (A) (A) (A) (A) (A) (A) (A) (A) (A) (A) (A)
                 (A) (A) (A) (A) (A) (A) (A) (A) (A) (A) (A) (A)
                 (A) (A) (A) (A) (A) (A) (A) (A) (A) (A) (A) (A)
                 (A) (A) (A) (A) (A) (A) (A) (A) (A) (A) (A) (A)
                 (A) (A) (A) (A) (A) (A) (A) (A) (A) (A) (A) (A)
                 (A) (A) (A) (A) (A) (A) (A) (A) (A) (A) (A) (A)
                 (A) (A) (A) (A) (A) (A) (A) (A) (A) (A) (A) (A)
                 (A) (A) (A) (A) (A) (A) (A) (A) (A) (A) (A) (A)
                 (A) (A) (A) (A) (A) (A) (A) (A) (A) (A) (A) (A)
                 (A) (A) (A) (A) (A) (A) (A) (A) (A) (A) (A) (A)
                 (A) (A) (A) (A) (A) (A) (A) (A) (A) (A) (A) (A)
                 (A) (A) (A) (A) (A) (A) (A) (A) (A) (A) (A) (A)
                 (A) (A) (A) (A) (A) (A) (A) (A) (A) (A) (A) (A)
                 (A) (A) (A)
 Beta  Orbitals:
       Occupied  (A) (A) (A) (A) (A) (A) (A) (A) (A) (A) (A) (A)
                 (A) (A) (A) (A) (A) (A) (A) (A) (A) (A) (A) (A)
                 (A) (A) (A) (A) (A) (A) (A) (A) (A) (A) (A) (A)
                 (A) (A)
       Virtual   (A) (A) (A) (A) (A) (A) (A) (A) (A) (A) (A) (A)
                 (A) (A) (A) (A) (A) (A) (A) (A) (A) (A) (A) (A)
                 (A) (A) (A) (A) (A) (A) (A) (A) (A) (A) (A) (A)
                 (A) (A) (A) (A) (A) (A) (A) (A) (A) (A) (A) (A)
                 (A) (A) (A) (A) (A) (A) (A) (A) (A) (A) (A) (A)
                 (A) (A) (A) (A) (A) (A) (A) (A) (A) (A) (A) (A)
                 (A) (A) (A) (A) (A) (A) (A) (A) (A) (A) (A) (A)
                 (A) (A) (A) (A) (A) (A) (A) (A) (A) (A) (A) (A)
                 (A) (A) (A) (A) (A) (A) (A) (A) (A) (A) (A) (A)
                 (A) (A) (A) (A) (A) (A) (A) (A) (A) (A) (A) (A)
                 (A) (A) (A) (A) (A) (A) (A) (A) (A) (A) (A) (A)
                 (A) (A) (A) (A) (A) (A) (A) (A) (A) (A) (A) (A)
                 (A) (A) (A) (A) (A) (A) (A) (A) (A) (A) (A) (A)
                 (A) (A) (A) (A) (A) (A) (A) (A) (A) (A) (A) (A)
                 (A) (A) (A) (A)
 The electronic state is 2-A.
 Alpha  occ. eigenvalues --  -38.44478 -38.44439 -38.44110 -38.44102 -38.43576
 Alpha  occ. eigenvalues --  -38.43559 -38.42794  -2.20461  -2.20423  -2.20101
 Alpha  occ. eigenvalues --   -2.20094  -2.19763  -2.19736  -2.18850  -1.14206
 Alpha  occ. eigenvalues --   -1.14172  -1.14142  -1.14109  -1.14098  -1.14061
 Alpha  occ. eigenvalues --   -1.13859  -1.13854  -1.13767  -1.13743  -1.13688
 Alpha  occ. eigenvalues --   -1.13682  -1.13568  -1.13386  -1.13357  -1.13353
 Alpha  occ. eigenvalues --   -1.13341  -1.13274  -1.12556  -1.12493  -1.12464
 Alpha  occ. eigenvalues --   -0.20503  -0.14965  -0.11644  -0.11506
 Alpha virt. eigenvalues --   -0.06652  -0.04847  -0.04385  -0.03313  -0.02436
 Alpha virt. eigenvalues --   -0.02287  -0.02055  -0.00771  -0.00340   0.00187
 Alpha virt. eigenvalues --    0.00418   0.00514   0.00703   0.00871   0.00971
 Alpha virt. eigenvalues --    0.01028   0.01044   0.01265   0.01381   0.01536
 Alpha virt. eigenvalues --    0.01542   0.01832   0.01909   0.02000   0.02246
 Alpha virt. eigenvalues --    0.02426   0.02433   0.02725   0.02792   0.02849
 Alpha virt. eigenvalues --    0.02874   0.02978   0.03044   0.03061   0.03202
 Alpha virt. eigenvalues --    0.03207   0.03296   0.03705   0.04087   0.04152
 Alpha virt. eigenvalues --    0.04360   0.04485   0.04976   0.05024   0.05115
 Alpha virt. eigenvalues --    0.05403   0.05572   0.05692   0.05745   0.06158
 Alpha virt. eigenvalues --    0.06356   0.06792   0.06818   0.07260   0.07343
 Alpha virt. eigenvalues --    0.07557   0.07948   0.08630   0.08779   0.09326
 Alpha virt. eigenvalues --    0.09776   0.10661   0.10992   0.11067   0.11433
 Alpha virt. eigenvalues --    0.11977   0.13009   0.13212   0.13337   0.13601
 Alpha virt. eigenvalues --    0.13628   0.13951   0.14532   0.14609   0.15538
 Alpha virt. eigenvalues --    0.16051   0.16151   0.16637   0.18768   0.19441
 Alpha virt. eigenvalues --    0.22325   0.23531   0.26866   0.27345   0.29608
 Alpha virt. eigenvalues --    0.30644   0.31337   0.32923   0.33012   0.33907
 Alpha virt. eigenvalues --    0.34738   0.34915   0.35252   0.37550   0.37897
 Alpha virt. eigenvalues --    0.37976   0.38678   0.40566   0.43512   0.43646
 Alpha virt. eigenvalues --    0.44077   0.44993   0.45079   0.45497   0.45643
 Alpha virt. eigenvalues --    0.46331   0.46776   0.47056   0.47521   0.48354
 Alpha virt. eigenvalues --    0.48504   0.48915   0.49470   0.50584   0.50712
 Alpha virt. eigenvalues --    0.51230   0.53119   0.53262   0.53757   0.53827
 Alpha virt. eigenvalues --    0.54399   0.55778   0.57733   0.64087   0.66474
 Alpha virt. eigenvalues --    0.68315   0.68803   0.69357   0.70356   0.71123
 Alpha virt. eigenvalues --    0.73837   0.75687   0.75976   0.76479   0.80271
 Alpha virt. eigenvalues --    0.81012   2.10787   2.17543   2.22743   2.24209
 Alpha virt. eigenvalues --    2.29376   2.33347   2.34506   4.40001   4.40393
 Alpha virt. eigenvalues --    4.41192   4.41519   4.42600   4.43147   4.43846
 Alpha virt. eigenvalues --    4.45283   4.47738   4.50101   4.52487   4.56942
 Alpha virt. eigenvalues --    4.58576   4.62553   4.68391   4.70901   4.73833
 Alpha virt. eigenvalues --    4.74568   4.74966   4.76058   4.80263  96.31572
 Alpha virt. eigenvalues --   96.41202  96.48264  96.50618  96.56922  96.63153
 Alpha virt. eigenvalues --   96.64436
  Beta  occ. eigenvalues --  -38.44465 -38.44428 -38.44075 -38.44066 -38.43518
  Beta  occ. eigenvalues --  -38.43500 -38.42781  -2.20440  -2.20405  -2.20038
  Beta  occ. eigenvalues --   -2.20030  -2.19662  -2.19633  -2.18833  -1.14191
  Beta  occ. eigenvalues --   -1.14158  -1.14118  -1.14083  -1.14073  -1.14038
  Beta  occ. eigenvalues --   -1.13811  -1.13806  -1.13705  -1.13682  -1.13649
  Beta  occ. eigenvalues --   -1.13643  -1.13510  -1.13320  -1.13279  -1.13270
  Beta  occ. eigenvalues --   -1.13257  -1.13188  -1.12551  -1.12469  -1.12419
  Beta  occ. eigenvalues --   -0.19782  -0.14712  -0.11299
  Beta virt. eigenvalues --   -0.07424  -0.06547  -0.04834  -0.03607  -0.03103
  Beta virt. eigenvalues --   -0.02219  -0.01704  -0.01200  -0.00646  -0.00051
  Beta virt. eigenvalues --    0.00220   0.00399   0.00521   0.00791   0.00943
  Beta virt. eigenvalues --    0.01036   0.01089   0.01128   0.01303   0.01522
  Beta virt. eigenvalues --    0.01636   0.01709   0.01885   0.01980   0.02126
  Beta virt. eigenvalues --    0.02270   0.02443   0.02474   0.02737   0.02784
  Beta virt. eigenvalues --    0.02851   0.02956   0.03009   0.03126   0.03156
  Beta virt. eigenvalues --    0.03243   0.03272   0.03334   0.03867   0.04152
  Beta virt. eigenvalues --    0.04232   0.04567   0.04634   0.05078   0.05120
  Beta virt. eigenvalues --    0.05156   0.05536   0.05752   0.05800   0.05916
  Beta virt. eigenvalues --    0.06227   0.06391   0.06860   0.06882   0.07356
  Beta virt. eigenvalues --    0.07471   0.07783   0.08070   0.08731   0.08934
  Beta virt. eigenvalues --    0.09431   0.10035   0.10702   0.11264   0.11345
  Beta virt. eigenvalues --    0.11774   0.12253   0.13216   0.13498   0.13552
  Beta virt. eigenvalues --    0.13762   0.13848   0.14098   0.14755   0.14895
  Beta virt. eigenvalues --    0.15742   0.16350   0.16500   0.17141   0.18949
  Beta virt. eigenvalues --    0.19577   0.22499   0.23892   0.27065   0.27686
  Beta virt. eigenvalues --    0.29739   0.30823   0.31633   0.33170   0.33372
  Beta virt. eigenvalues --    0.34205   0.35061   0.35172   0.35761   0.37960
  Beta virt. eigenvalues --    0.38184   0.38430   0.39025   0.40858   0.43686
  Beta virt. eigenvalues --    0.43854   0.44249   0.45121   0.45156   0.45639
  Beta virt. eigenvalues --    0.45771   0.46604   0.46906   0.47248   0.47673
  Beta virt. eigenvalues --    0.48509   0.48666   0.49146   0.49616   0.50820
  Beta virt. eigenvalues --    0.50902   0.51518   0.53291   0.53604   0.53879
  Beta virt. eigenvalues --    0.54193   0.54677   0.55862   0.57922   0.64605
  Beta virt. eigenvalues --    0.66714   0.68487   0.68854   0.69496   0.70439
  Beta virt. eigenvalues --    0.71202   0.74060   0.75862   0.76264   0.76685
  Beta virt. eigenvalues --    0.80514   0.81068   2.10874   2.17630   2.22842
  Beta virt. eigenvalues --    2.24328   2.29425   2.33588   2.34682   4.40075
  Beta virt. eigenvalues --    4.40446   4.41265   4.41590   4.42657   4.43174
  Beta virt. eigenvalues --    4.43905   4.45336   4.47820   4.50142   4.52538
  Beta virt. eigenvalues --    4.56995   4.58659   4.62609   4.68440   4.70952
  Beta virt. eigenvalues --    4.73905   4.74592   4.75036   4.76082   4.80334
  Beta virt. eigenvalues --   96.31607  96.41234  96.48297  96.50654  96.56944
  Beta virt. eigenvalues --   96.63227  96.64496
          Condensed to atoms (all electrons):
               1          2          3          4          5          6
     1  Na  15.914416  -2.103181  -1.301702   1.102421  -0.330476  -2.273952
     2  Na  -2.103181  15.442321   0.117181  -2.020043  -0.355124   1.007787
     3  Na  -1.301702   0.117181  12.976834  -1.637265   1.603266  -0.129465
     4  Na   1.102421  -2.020043  -1.637265  15.420662  -2.248142  -0.831603
     5  Na  -0.330476  -0.355124   1.603266  -2.248142  14.819249  -2.496161
     6  Na  -2.273952   1.007787  -0.129465  -0.831603  -2.496161  15.889806
     7  Na   0.122894  -1.120827  -0.133743  -0.006383   1.462754  -1.571383
               7
     1  Na   0.122894
     2  Na  -1.120827
     3  Na  -0.133743
     4  Na  -0.006383
     5  Na   1.462754
     6  Na  -1.571383
     7  Na  12.823003
          Atomic-Atomic Spin Densities.
               1          2          3          4          5          6
     1  Na   2.702720  -1.833907   0.081777   0.604328   0.265732  -1.436294
     2  Na  -1.833907   2.336698   0.170485  -1.404594   0.424226   0.485702
     3  Na   0.081777   0.170485  -0.091545   0.135291  -0.275233   0.271529
     4  Na   0.604328  -1.404594   0.135291   0.594987   0.007208  -0.139980
     5  Na   0.265732   0.424226  -0.275233   0.007208  -0.248148   0.093238
     6  Na  -1.436294   0.485702   0.271529  -0.139980   0.093238   0.525848
     7  Na   0.020761   0.227321  -0.215449   0.242594  -0.321221   0.257094
               7
     1  Na   0.020761
     2  Na   0.227321
     3  Na  -0.215449
     4  Na   0.242594
     5  Na  -0.321221
     6  Na   0.257094
     7  Na  -0.141777
 Mulliken charges and spin densities:
               1          2
     1  Na  -0.130419   0.405118
     2  Na   0.031886   0.405929
     3  Na  -0.495107   0.076855
     4  Na   1.220353   0.039835
     5  Na  -1.455368  -0.054198
     6  Na   1.404970   0.057138
     7  Na  -0.576316   0.069323
 Sum of Mulliken charges =  -0.00000   1.00000
 Mulliken charges and spin densities with hydrogens summed into heavy atoms:
               1          2
     1  Na  -0.130419   0.405118
     2  Na   0.031886   0.405929
     3  Na  -0.495107   0.076855
     4  Na   1.220353   0.039835
     5  Na  -1.455368  -0.054198
     6  Na   1.404970   0.057138
     7  Na  -0.576316   0.069323
 Electronic spatial extent (au):  <R**2>=           1904.2185
 Charge=             -0.0000 electrons
 Dipole moment (field-independent basis, Debye):
    X=             -0.0158    Y=             -0.0792    Z=             -0.0044  Tot=              0.0809
 Quadrupole moment (field-independent basis, Debye-Ang):
   XX=            -46.7679   YY=            -76.1549   ZZ=            -71.1561
   XY=              0.0388   XZ=             -0.7772   YZ=             -0.0682
 Traceless Quadrupole moment (field-independent basis, Debye-Ang):
   XX=             17.9251   YY=            -11.4620   ZZ=             -6.4631
   XY=              0.0388   XZ=             -0.7772   YZ=             -0.0682
 Octapole moment (field-independent basis, Debye-Ang**2):
  XXX=             -0.6149  YYY=              1.4603  ZZZ=              0.0288  XYY=              0.1767
  XXY=              5.2329  XXZ=             -0.3350  XZZ=             -0.1393  YZZ=             -8.2245
  YYZ=              0.1459  XYZ=              9.0591
 Hexadecapole moment (field-independent basis, Debye-Ang**3):
 XXXX=          -1415.2996 YYYY=          -1057.1369 ZZZZ=           -692.3566 XXXY=              0.4676
 XXXZ=             -6.0508 YYYX=              0.6725 YYYZ=             -0.1580 ZZZX=              1.1280
 ZZZY=             -0.5991 XXYY=           -407.5268 XXZZ=           -387.4538 YYZZ=           -290.1813
 XXYZ=             -1.0375 YYXZ=            -13.2615 ZZXY=             -0.2405
 N-N= 3.840225594795D+02 E-N=-3.497493888526D+03  KE= 1.133315673170D+03
                          Isotropic Fermi Contact Couplings
        Atom                 a.u.       MegaHertz       Gauss      10(-4) cm-1
     1  Na(23)             0.19255     227.79668      81.28352      75.98479
     2  Na(23)             0.19868     235.04489      83.86986      78.40254
     3  Na(23)             0.12638     149.51312      53.35000      49.87221
     4  Na(23)             0.01863      22.04251       7.86532       7.35259
     5  Na(23)            -0.01946     -23.01656      -8.21288      -7.67750
     6  Na(23)             0.02595      30.70374      10.95586      10.24166
     7  Na(23)             0.12582     148.84938      53.11316      49.65081
 --------------------------------------------------------
       Center         ----  Spin Dipole Couplings  ----
                      3XX-RR        3YY-RR        3ZZ-RR
 --------------------------------------------------------
     1   Atom       -0.003356     -0.005430      0.008787
     2   Atom       -0.002331     -0.004514      0.006845
     3   Atom        0.001289     -0.011243      0.009954
     4   Atom       -0.003468     -0.020658      0.024127
     5   Atom       -0.023438     -0.028741      0.052179
     6   Atom       -0.003045     -0.020131      0.023176
     7   Atom        0.002158     -0.012248      0.010090
 --------------------------------------------------------
                        XY            XZ            YZ
 --------------------------------------------------------
     1   Atom       -0.007410     -0.014060     -0.012509
     2   Atom        0.006638     -0.015523      0.012361
     3   Atom       -0.005967      0.020967     -0.006902
     4   Atom        0.001351     -0.017313      0.003142
     5   Atom       -0.000437      0.023680     -0.001418
     6   Atom       -0.001348     -0.017154     -0.002250
     7   Atom        0.006295      0.022239      0.006884
 --------------------------------------------------------


 ---------------------------------------------------------------------------------
              Anisotropic Spin Dipole Couplings in Principal Axis System
 ---------------------------------------------------------------------------------

       Atom             a.u.   MegaHertz   Gauss  10(-4) cm-1        Axes

              Baa    -0.0229    -3.239    -1.156    -1.080  0.5994  0.6176  0.5092
     1 Na(23) Bbb     0.0029     0.409     0.146     0.136 -0.6812  0.7276 -0.0807
              Bcc     0.0200     2.830     1.010     0.944 -0.4203 -0.2985  0.8569
 
              Baa    -0.0231    -3.257    -1.162    -1.086  0.5987 -0.5814  0.5510
     2 Na(23) Bbb     0.0029     0.404     0.144     0.135  0.6366  0.7629  0.1133
              Bcc     0.0202     2.853     1.018     0.952 -0.4862  0.2829  0.8268
 
              Baa    -0.0158    -2.233    -0.797    -0.745  0.7848  0.1012 -0.6114
     3 Na(23) Bbb    -0.0133    -1.875    -0.669    -0.625  0.0584  0.9701  0.2355
              Bcc     0.0291     4.108     1.466     1.370  0.6170 -0.2205  0.7554
 
              Baa    -0.0214    -3.028    -1.080    -1.010 -0.2155  0.9652 -0.1484
     4 Na(23) Bbb    -0.0111    -1.570    -0.560    -0.524  0.8760  0.2582  0.4073
              Bcc     0.0326     4.598     1.641     1.534 -0.4314  0.0422  0.9012
 
              Baa    -0.0302    -4.271    -1.524    -1.425  0.9610  0.0193 -0.2758
     5 Na(23) Bbb    -0.0288    -4.062    -1.449    -1.355 -0.0139  0.9997  0.0216
              Bcc     0.0590     8.333     2.973     2.779  0.2761 -0.0169  0.9610
 
              Baa    -0.0207    -2.923    -1.043    -0.975  0.1978  0.9720  0.1272
     6 Na(23) Bbb    -0.0110    -1.553    -0.554    -0.518  0.8751 -0.2335  0.4239
              Bcc     0.0317     4.476     1.597     1.493 -0.4417 -0.0274  0.8967
 
              Baa    -0.0165    -2.335    -0.833    -0.779  0.7775 -0.1690 -0.6057
     7 Na(23) Bbb    -0.0142    -2.005    -0.715    -0.669 -0.0020  0.9626 -0.2710
              Bcc     0.0307     4.340     1.549     1.448  0.6289  0.2119  0.7481
 

 ---------------------------------------------------------------------------------

 No NMR shielding tensors so no spin-rotation constants.
 Leave Link  601 at Mon Nov 13 17:07:38 2023, MaxMem=  1879048192 cpu:               2.6 elap:               0.2
 (Enter /home/sekinelabo/g16/l701.exe)
 ... and contract with generalized density number  0.
 Compute integral first derivatives.
 Leave Link  701 at Mon Nov 13 17:07:38 2023, MaxMem=  1879048192 cpu:               1.7 elap:               0.1
 (Enter /home/sekinelabo/g16/l702.exe)
 L702 exits ... SP integral derivatives will be done elsewhere.
 Leave Link  702 at Mon Nov 13 17:07:38 2023, MaxMem=  1879048192 cpu:               0.5 elap:               0.0
 (Enter /home/sekinelabo/g16/l703.exe)
 Integral derivatives from FoFJK, PRISM(SPDF).
 Compute integral first derivatives, UseDBF=F ICtDFT=           0.
 Calling FoFJK, ICntrl=      2127 FMM=F ISym2X=0 I1Cent= 0 IOpClX= 1 NMat=1 NMatS=1 NMatT=0.
 FoFJK:  IHMeth= 1 ICntrl=    2127 DoSepK=F KAlg= 0 I1Cent=           0 FoldK=F
 IRaf=         0 NMat=       1 IRICut=       1 DoRegI=T DoRafI=F ISym2E= 0 IDoP0=0 IntGTp=1.
 FoFCou: FMM=F IPFlag=           0 FMFlag=      100000 FMFlg1=         800
         NFxFlg=           0 DoJE=F BraDBF=F KetDBF=F FulRan=T
         wScrn=  0.000000 ICntrl=      2127 IOpCl=  1 I1Cent=           0 NGrid=           0
         NMat0=    1 NMatS0=      1 NMatT0=    0 NMatD0=    1 NMtDS0=    0 NMtDT0=    0
 Symmetry not used in FoFCou.
 Leave Link  703 at Mon Nov 13 17:07:41 2023, MaxMem=  1879048192 cpu:              37.1 elap:               2.4
 (Enter /home/sekinelabo/g16/l716.exe)
 Dipole        =-6.20145030D-03-3.11540114D-02-1.74257139D-03
 ***** Axes restored to original set *****
 -------------------------------------------------------------------
 Center     Atomic                   Forces (Hartrees/Bohr)
 Number     Number              X              Y              Z
 -------------------------------------------------------------------
      1       11           0.000541202    0.007724939   -0.015929108
      2       11          -0.000836372    0.007811399    0.016010323
      3       11          -0.005812210    0.010249170   -0.007948766
      4       11          -0.009428807   -0.009824478    0.002767741
      5       11           0.000153991   -0.016591947    0.000301441
      6       11           0.009707592   -0.009446258   -0.003161761
      7       11           0.005674605    0.010077175    0.007960130
 -------------------------------------------------------------------
 Cartesian Forces:  Max     0.016591947 RMS     0.008978367
 Z-matrix is all fixed cartesians, so copy forces.
 Force constants in Cartesian coordinates: 
                1             2             3             4             5 
      1  0.156970D+00
      2 -0.359401D-02  0.139857D+00
      3 -0.691279D-02 -0.308783D-01  0.189133D+00
      4 -0.236169D-01  0.411122D-02  0.757903D-02  0.158984D+00
      5 -0.432653D-02 -0.212382D-01  0.950617D-02  0.548066D-02  0.140317D+00
      6  0.891496D-02 -0.972683D-02 -0.551894D-01 -0.923996D-02  0.308884D-01
      7 -0.409315D-01  0.115739D-01 -0.106795D-01 -0.244440D-01  0.533674D-02
      8 -0.535049D-02 -0.300911D-01  0.117919D-01 -0.451559D-02 -0.148665D-01
      9  0.263712D-01  0.936919D-03 -0.318339D-01 -0.219303D-01  0.182280D-01
     10 -0.404300D-02 -0.835216D-02  0.352645D-02 -0.335213D-01 -0.488859D-02
     11 -0.639300D-02  0.499320D-02  0.674572D-03 -0.177478D-01 -0.316630D-01
     12  0.940409D-02  0.503223D-02  0.269116D-02 -0.186858D-01 -0.237280D-01
     13 -0.269727D-01 -0.808987D-03 -0.275303D-02 -0.284719D-01  0.629321D-02
     14 -0.373146D-02 -0.436808D-01 -0.305118D-02 -0.194276D-02 -0.451414D-01
     15  0.653108D-02  0.326416D-01 -0.303683D-01  0.433214D-02 -0.287100D-01
     16 -0.346738D-01  0.523474D-02  0.105913D-01 -0.380362D-02  0.772826D-02
     17  0.180789D-01 -0.318364D-01  0.308885D-02  0.592452D-02  0.595131D-02
     18 -0.198403D-01  0.234778D-01 -0.274841D-01  0.973028D-02 -0.579677D-02
     19 -0.267317D-01 -0.816467D-02 -0.135147D-02 -0.451259D-01 -0.156238D-01
     20  0.531663D-02 -0.180036D-01  0.886802D-02  0.868973D-02 -0.333594D-01
     21 -0.244682D-01 -0.214834D-01 -0.469489D-01  0.282146D-01 -0.387860D-03
                6             7             8             9            10 
      6  0.188391D+00
      7 -0.161311D-02  0.849743D-01
      8 -0.553527D-02 -0.117912D-01  0.734691D-01
      9 -0.437251D-01  0.116986D-01 -0.308173D-01  0.730135D-01
     10  0.100075D-01 -0.190185D-01  0.940465D-02 -0.592548D-02  0.969641D-01
     11 -0.410887D-02 -0.158627D-01 -0.318515D-01  0.123971D-01  0.218515D-01
     12 -0.270901D-01  0.115755D-01  0.218760D-01 -0.148940D-01 -0.899998D-02
     13  0.245158D-03  0.123095D-02  0.107397D-01 -0.148619D-02 -0.392225D-01
     14  0.309461D-02  0.666513D-02 -0.542083D-02 -0.390241D-03 -0.159481D-01
     15 -0.327896D-01 -0.520899D-02  0.686397D-02  0.506465D-02  0.364227D-02
     16  0.450334D-02  0.699502D-03  0.469274D-02 -0.311673D-02 -0.477646D-03
     17 -0.190571D-02  0.904752D-03  0.461285D-02 -0.165217D-02  0.190302D-02
     18  0.493412D-02 -0.164050D-03 -0.281228D-02  0.504024D-02  0.533227D-03
     19 -0.128179D-01 -0.251077D-02 -0.317977D-02 -0.561110D-02 -0.681081D-03
     20 -0.127063D-01  0.317340D-02  0.414800D-02  0.129766D-02 -0.397039D-02
     21 -0.345309D-01 -0.560848D-02 -0.136698D-02  0.733447D-02 -0.278399D-02
               11            12            13            14            15 
     11  0.887598D-01
     12 -0.106673D-01  0.481147D-01
     13  0.260153D-01  0.679266D-02  0.142047D+00
     14 -0.459367D-01  0.593464D-02 -0.125724D-02  0.198280D+00
     15  0.137123D-03 -0.196533D-01 -0.749996D-02 -0.567361D-02  0.102889D+00
     16 -0.234391D-02  0.110643D-02 -0.435939D-01  0.165645D-01  0.620887D-02
     17  0.817519D-02 -0.128372D-02 -0.267584D-01 -0.397051D-01  0.459600D-02
     18 -0.330985D-03  0.381562D-02  0.644843D-02 -0.498373D-02 -0.196038D-01
     19 -0.551944D-02 -0.119288D-02 -0.501684D-02 -0.350094D-03 -0.800540D-02
     20  0.752300D-02  0.283612D-02 -0.142236D-01 -0.183951D-01 -0.985505D-02
     21  0.189833D-02  0.701586D-02 -0.174707D-02  0.506951D-02 -0.553826D-02
               16            17            18            19            20 
     16  0.104190D+00
     17 -0.189223D-01  0.874710D-01
     18 -0.116014D-01  0.118627D-01  0.520947D-01
     19 -0.223407D-01  0.188695D-01  0.148938D-01  0.102407D+00
     20 -0.129540D-01 -0.346688D-01 -0.214168D-01  0.139682D-01  0.927558D-01
     21 -0.769183D-02 -0.147059D-01 -0.187968D-01  0.140850D-01  0.309764D-01
               21 
     21  0.914645D-01
 Leave Link  716 at Mon Nov 13 17:07:41 2023, MaxMem=  1879048192 cpu:               0.5 elap:               0.0
 (Enter /home/sekinelabo/g16/l103.exe)

 GradGradGradGradGradGradGradGradGradGradGradGradGradGradGradGradGradGrad
 Berny optimization.
 Search for a local minimum.
 Step number   1 out of a maximum of    2
 All quantities printed in internal units (Hartrees-Bohrs-Radians)
 Second derivative matrix not updated -- first step.
 ITU=  0
     Eigenvalues ---    0.05081   0.07432   0.08752   0.09080   0.11726
     Eigenvalues ---    0.12194   0.14018   0.16291   0.17460   0.18284
     Eigenvalues ---    0.21095   0.21722   0.24222   0.24987   0.26667
 Quadratic step=3.417D-01 exceeds max=3.000D-01 adjusted using Lamda=-1.390D-02.
 Angle between NR and scaled steps=   2.22 degrees.
 Angle between quadratic step and forces=  20.48 degrees.
 Linear search not attempted -- first point.
 B after Tr=    -0.000000    0.000000    0.000000
         Rot=    1.000000    0.000000   -0.000000    0.000000 Ang=   0.00 deg.
 Variable       Old X    -DE/DX   Delta X   Delta X   Delta X     New X
                                 (Linear)    (Quad)   (Total)
    X1        6.50588   0.00054   0.00000   0.02071   0.02071   6.52659
    Y1        4.92176   0.00772   0.00000   0.04278   0.04278   4.96454
    Z1        0.00000  -0.01593   0.00000  -0.07001  -0.07001  -0.07001
    X2        4.16260  -0.00084   0.00000  -0.02462  -0.02462   4.13798
    Y2        4.92270   0.00781   0.00000   0.04339   0.04339   4.96609
    Z2        5.14580   0.01601   0.00000   0.06893   0.06893   5.21473
    X3        1.00470  -0.00581   0.00000  -0.08013  -0.08013   0.92457
    Y3        6.17755   0.01025   0.00000   0.08843   0.08843   6.26598
    Z3        0.61373  -0.00795   0.00000  -0.05168  -0.05168   0.56205
    X4        0.00000  -0.00943   0.00000  -0.10315  -0.10315  -0.10315
    Y4        1.43422  -0.00982   0.00000  -0.07850  -0.07850   1.35571
    Z4        3.54634   0.00277   0.00000   0.02654   0.02654   3.57288
    X5        5.41107   0.00015   0.00000   0.00549   0.00549   5.41656
    Y5        0.00000  -0.01659   0.00000  -0.09964  -0.09964  -0.09964
    Z5        2.60887   0.00030   0.00000   0.00628   0.00628   2.61515
    X6       10.76521   0.00971   0.00000   0.10682   0.10682  10.87203
    Y6        1.51604  -0.00945   0.00000  -0.07211  -0.07211   1.44393
    Z6        1.51389  -0.00316   0.00000  -0.02913  -0.02913   1.48476
    X7        9.66079   0.00567   0.00000   0.07489   0.07489   9.73568
    Y7        6.18902   0.01008   0.00000   0.07565   0.07565   6.26467
    Z7        4.53447   0.00796   0.00000   0.04907   0.04907   4.58354
         Item               Value     Threshold  Converged?
 Maximum Force            0.016592     0.000450     NO 
 RMS     Force            0.008978     0.000300     NO 
 Maximum Displacement     0.106818     0.001800     NO 
 RMS     Displacement     0.065470     0.001200     NO 
 Predicted change in Energy=-6.407788D-03
 GradGradGradGradGradGradGradGradGradGradGradGradGradGradGradGradGradGrad

 Leave Link  103 at Mon Nov 13 17:07:41 2023, MaxMem=  1879048192 cpu:               0.3 elap:               0.0
 (Enter /home/sekinelabo/g16/l9999.exe)
 1\1\GINC-SEKINELABO-XA7R-R37\Force\UB3LYP\6-311+G(d)\Na7(2)\SEKINELABO
 \13-Nov-2023\0\\#P B3LYP/6-311+g(d) force\\Gaussian input prepared by 
 ASE\\0,2\Na,3.4427649006,2.604485356,0.\Na,2.2027545419,2.6049808692,2
 .7230385505\Na,0.5316630353,3.2690202003,0.3247725358\Na,0.,0.75895548
 4,1.8766422883\Na,2.8634170888,0.,1.380555927\Na,5.6967062306,0.802253
 833,0.8011154408\Na,5.1122686146,3.27508692,2.3995384636\\Version=ES64
 L-G16RevB.01\State=2-A\HF=-1136.0972665\S2=0.768285\S2-1=0.\S2A=0.7502
 04\RMSD=9.099e-09\RMSF=8.978e-03\Dipole=0.0062015,0.031154,-0.0017426\
 Quadrupole=13.3268382,-8.52169,-4.8051482,0.0288536,0.5778236,0.050728
 \PG=C01 [X(Na7)]\\@


 Standing in the middle of the road is very dangerous;
 you get knocked down by the traffic from both sides.
                                -- Margaret Thatcher
 Job cpu time:       0 days  0 hours  4 minutes 13.8 seconds.
 Elapsed time:       0 days  0 hours  0 minutes 20.4 seconds.
 File lengths (MBytes):  RWF=     32 Int=      0 D2E=      0 Chk=      5 Scr=      1
 Normal termination of Gaussian 16 at Mon Nov 13 17:07:41 2023.
