 Entering Gaussian System, Link 0=g16
 Initial command:
 /home/sekinelabo/g16/l1.exe "/home/sekinelabo/g16temp/Gau-4190008.inp" -scrdir="/home/sekinelabo/g16temp/"
 Entering Link 1 = /home/sekinelabo/g16/l1.exe PID=   4190010.
  
 Copyright (c) 1988-2017, Gaussian, Inc.  All Rights Reserved.
  
 This is part of the Gaussian(R) 16 program.  It is based on
 the Gaussian(R) 09 system (copyright 2009, Gaussian, Inc.),
 the Gaussian(R) 03 system (copyright 2003, Gaussian, Inc.),
 the Gaussian(R) 98 system (copyright 1998, Gaussian, Inc.),
 the Gaussian(R) 94 system (copyright 1995, Gaussian, Inc.),
 the Gaussian 92(TM) system (copyright 1992, Gaussian, Inc.),
 the Gaussian 90(TM) system (copyright 1990, Gaussian, Inc.),
 the Gaussian 88(TM) system (copyright 1988, Gaussian, Inc.),
 the Gaussian 86(TM) system (copyright 1986, Carnegie Mellon
 University), and the Gaussian 82(TM) system (copyright 1983,
 Carnegie Mellon University). Gaussian is a federally registered
 trademark of Gaussian, Inc.
  
 This software contains proprietary and confidential information,
 including trade secrets, belonging to Gaussian, Inc.
  
 This software is provided under written license and may be
 used, copied, transmitted, or stored only in accord with that
 written license.
  
 The following legend is applicable only to US Government
 contracts under FAR:
  
                    RESTRICTED RIGHTS LEGEND
  
 Use, reproduction and disclosure by the US Government is
 subject to restrictions as set forth in subparagraphs (a)
 and (c) of the Commercial Computer Software - Restricted
 Rights clause in FAR 52.227-19.
  
 Gaussian, Inc.
 340 Quinnipiac St., Bldg. 40, Wallingford CT 06492
  
  
 ---------------------------------------------------------------
 Warning -- This program may not be used in any manner that
 competes with the business of Gaussian, Inc. or will provide
 assistance to any competitor of Gaussian, Inc.  The licensee
 of this program is prohibited from giving any competitor of
 Gaussian, Inc. access to this program.  By using this program,
 the user acknowledges that Gaussian, Inc. is engaged in the
 business of creating and licensing software in the field of
 computational chemistry and represents and warrants to the
 licensee that it is not a competitor of Gaussian, Inc. and that
 it will not use this program in any manner prohibited above.
 ---------------------------------------------------------------
  

 Cite this work as:
 Gaussian 16, Revision B.01,
 M. J. Frisch, G. W. Trucks, H. B. Schlegel, G. E. Scuseria, 
 M. A. Robb, J. R. Cheeseman, G. Scalmani, V. Barone, 
 G. A. Petersson, H. Nakatsuji, X. Li, M. Caricato, A. V. Marenich, 
 J. Bloino, B. G. Janesko, R. Gomperts, B. Mennucci, H. P. Hratchian, 
 J. V. Ortiz, A. F. Izmaylov, J. L. Sonnenberg, D. Williams-Young, 
 F. Ding, F. Lipparini, F. Egidi, J. Goings, B. Peng, A. Petrone, 
 T. Henderson, D. Ranasinghe, V. G. Zakrzewski, J. Gao, N. Rega, 
 G. Zheng, W. Liang, M. Hada, M. Ehara, K. Toyota, R. Fukuda, 
 J. Hasegawa, M. Ishida, T. Nakajima, Y. Honda, O. Kitao, H. Nakai, 
 T. Vreven, K. Throssell, J. A. Montgomery, Jr., J. E. Peralta, 
 F. Ogliaro, M. J. Bearpark, J. J. Heyd, E. N. Brothers, K. N. Kudin, 
 V. N. Staroverov, T. A. Keith, R. Kobayashi, J. Normand, 
 K. Raghavachari, A. P. Rendell, J. C. Burant, S. S. Iyengar, 
 J. Tomasi, M. Cossi, J. M. Millam, M. Klene, C. Adamo, R. Cammi, 
 J. W. Ochterski, R. L. Martin, K. Morokuma, O. Farkas, 
 J. B. Foresman, and D. J. Fox, Gaussian, Inc., Wallingford CT, 2016.
 
 ******************************************
 Gaussian 16:  ES64L-G16RevB.01 20-Dec-2017
                13-Nov-2023 
 ******************************************
 %mem=14GB
 %chk=checkpoint.chk
 %nprocshared=16
 Will use up to   16 processors via shared memory.
 -------------------------
 #P B3LYP/6-311+g(d) force
 -------------------------
 1/10=7,30=1,38=1/1,3;
 2/12=2,17=6,18=5,40=1/2;
 3/5=4,6=6,7=11,11=2,25=1,30=1,71=1,74=-5/1,2,3;
 4//1;
 5/5=2,38=5/2;
 6/7=2,8=2,9=2,10=2,28=1/1;
 7/29=1/1,2,3,16;
 1/10=7,30=1/3;
 99//99;
 Leave Link    1 at Mon Nov 13 20:35:36 2023, MaxMem=  1879048192 cpu:               0.3 elap:               0.0
 (Enter /home/sekinelabo/g16/l101.exe)
 ------------------------------
 Gaussian input prepared by ASE
 ------------------------------
 Symbolic Z-matrix:
 Charge =  0 Multiplicity = 2
 Na                    2.52828   2.07054   3.04582 
 Na                    4.12754   0.        1.52271 
 Na                    5.06327   2.70346   1.52352 
 Na                    2.54129   4.69018   1.52287 
 Na                    2.52868   2.0665    0. 
 Na                    0.        2.72473   1.52134 
 Na                    0.91438   0.00932   1.52576 
 
 ITRead=  0  0  0  0  0  0  0
 MicOpt= -1 -1 -1 -1 -1 -1 -1
 NAtoms=      7 NQM=        7 NQMF=       0 NMMI=      0 NMMIF=      0
                NMic=       0 NMicF=      0.
                    Isotopes and Nuclear Properties:
 (Nuclear quadrupole moments (NQMom) in fm**2, nuclear magnetic moments (NMagM)
  in nuclear magnetons)

  Atom         1           2           3           4           5           6           7
 IAtWgt=          23          23          23          23          23          23          23
 AtmWgt=  22.9897697  22.9897697  22.9897697  22.9897697  22.9897697  22.9897697  22.9897697
 NucSpn=           3           3           3           3           3           3           3
 AtZEff=  -0.0000000  -0.0000000  -0.0000000  -0.0000000  -0.0000000  -0.0000000  -0.0000000
 NQMom=   10.4000000  10.4000000  10.4000000  10.4000000  10.4000000  10.4000000  10.4000000
 NMagM=    2.2175200   2.2175200   2.2175200   2.2175200   2.2175200   2.2175200   2.2175200
 AtZNuc=  11.0000000  11.0000000  11.0000000  11.0000000  11.0000000  11.0000000  11.0000000
 Leave Link  101 at Mon Nov 13 20:35:37 2023, MaxMem=  1879048192 cpu:               2.6 elap:               0.2
 (Enter /home/sekinelabo/g16/l103.exe)

 GradGradGradGradGradGradGradGradGradGradGradGradGradGradGradGradGradGrad
 Berny optimization.
 Initialization pass.
 Trust Radius=3.00D-01 FncErr=1.00D-07 GrdErr=1.00D-07 EigMax=2.50D+02 EigMin=1.00D-04
 Number of steps in this run=      2 maximum allowed number of steps=      2.
 GradGradGradGradGradGradGradGradGradGradGradGradGradGradGradGradGradGrad

 Leave Link  103 at Mon Nov 13 20:35:37 2023, MaxMem=  1879048192 cpu:               0.2 elap:               0.0
 (Enter /home/sekinelabo/g16/l202.exe)
                          Input orientation:                          
 ---------------------------------------------------------------------
 Center     Atomic      Atomic             Coordinates (Angstroms)
 Number     Number       Type             X           Y           Z
 ---------------------------------------------------------------------
      1         11           0        2.528276    2.070544    3.045823
      2         11           0        4.127539    0.000000    1.522714
      3         11           0        5.063273    2.703460    1.523523
      4         11           0        2.541292    4.690175    1.522870
      5         11           0        2.528685    2.066501    0.000000
      6         11           0        0.000000    2.724729    1.521336
      7         11           0        0.914383    0.009324    1.525758
 ---------------------------------------------------------------------
                    Distance matrix (angstroms):
                    1          2          3          4          5
     1  Na   0.000000
     2  Na   3.027318   0.000000
     3  Na   3.023936   2.860821   0.000000
     4  Na   3.030186   4.951154   3.210518   0.000000
     5  Na   3.045826   3.024140   3.025058   3.033638   0.000000
     6  Na   3.023937   4.945779   5.063318   3.212654   3.023570
     7  Na   3.027190   3.213171   4.946884   4.955523   3.027521
                    6          7
     6  Na   0.000000
     7  Na   2.865229   0.000000
 Stoichiometry    Na7(2)
 Framework group  C1[X(Na7)]
 Deg. of freedom    15
 Full point group                 C1      NOp   1
 Largest Abelian subgroup         C1      NOp   1
 Largest concise Abelian subgroup C1      NOp   1
                         Standard orientation:                         
 ---------------------------------------------------------------------
 Center     Atomic      Atomic             Coordinates (Angstroms)
 Number     Number       Type             X           Y           Z
 ---------------------------------------------------------------------
      1         11           0        0.000788    0.032725   -1.522677
      2         11           0       -1.598475   -2.037819    0.000432
      3         11           0       -2.534209    0.665641   -0.000377
      4         11           0       -0.012228    2.652356    0.000276
      5         11           0        0.000379    0.028682    1.523146
      6         11           0        2.529064    0.686910    0.001810
      7         11           0        1.614681   -2.028495   -0.002611
 ---------------------------------------------------------------------
 Rotational constants (GHZ):           1.0539336           0.9718560           0.6427683
 Leave Link  202 at Mon Nov 13 20:35:37 2023, MaxMem=  1879048192 cpu:               0.1 elap:               0.0
 (Enter /home/sekinelabo/g16/l301.exe)
 Standard basis: 6-311+G(d) (5D, 7F)
 Ernie: Thresh=  0.10000D-02 Tol=  0.10000D-05 Strict=F.
 There are   217 symmetry adapted cartesian basis functions of A   symmetry.
 There are   210 symmetry adapted basis functions of A   symmetry.
   210 basis functions,   350 primitive gaussians,   217 cartesian basis functions
    39 alpha electrons       38 beta electrons
       nuclear repulsion energy       401.4989776120 Hartrees.
 IExCor=  402 DFT=T Ex+Corr=B3LYP ExCW=0 ScaHFX=  0.200000
 ScaDFX=  0.800000  0.720000  1.000000  0.810000 ScalE2=  1.000000  1.000000
 IRadAn=      5 IRanWt=     -1 IRanGd=            0 ICorTp=0 IEmpDi=  4
 NAtoms=    7 NActive=    7 NUniq=    7 SFac= 1.00D+00 NAtFMM=   60 NAOKFM=F Big=F
 Integral buffers will be    131072 words long.
 Raffenetti 2 integral format.
 Two-electron integral symmetry is turned on.
 Leave Link  301 at Mon Nov 13 20:35:37 2023, MaxMem=  1879048192 cpu:               0.5 elap:               0.0
 (Enter /home/sekinelabo/g16/l302.exe)
 NPDir=0 NMtPBC=     1 NCelOv=     1 NCel=       1 NClECP=     1 NCelD=      1
         NCelK=      1 NCelE2=     1 NClLst=     1 CellRange=     0.0.
 One-electron integrals computed using PRISM.
 One-electron integral symmetry used in STVInt
 NBasis=   210 RedAO= T EigKep=  1.36D-06  NBF=   210
 NBsUse=   210 1.00D-06 EigRej= -1.00D+00 NBFU=   210
 Precomputing XC quadrature grid using
 IXCGrd= 4 IRadAn=           5 IRanWt=          -1 IRanGd=           0 AccXCQ= 0.00D+00.
 Generated NRdTot=       0 NPtTot=           0 NUsed=           0 NTot=          32
 NSgBfM=   212   212   212   212   212 MxSgAt=     7 MxSgA2=     7.
 Leave Link  302 at Mon Nov 13 20:35:37 2023, MaxMem=  1879048192 cpu:               2.2 elap:               0.1
 (Enter /home/sekinelabo/g16/l303.exe)
 DipDrv:  MaxL=1.
 Leave Link  303 at Mon Nov 13 20:35:37 2023, MaxMem=  1879048192 cpu:               0.5 elap:               0.0
 (Enter /home/sekinelabo/g16/l401.exe)
 ExpMin= 7.60D-03 ExpMax= 3.62D+04 ExpMxC= 1.21D+03 IAcc=3 IRadAn=         5 AccDes= 0.00D+00
 Harris functional with IExCor=  402 and IRadAn=       5 diagonalized for initial guess.
 HarFok:  IExCor=  402 AccDes= 0.00D+00 IRadAn=         5 IDoV= 1 UseB2=F ITyADJ=14
 ICtDFT=  3500011 ScaDFX=  1.000000  1.000000  1.000000  1.000000
 FoFCou: FMM=F IPFlag=           0 FMFlag=      100000 FMFlg1=           0
         NFxFlg=           0 DoJE=T BraDBF=F KetDBF=T FulRan=T
         wScrn=  0.000000 ICntrl=       500 IOpCl=  0 I1Cent=   200000004 NGrid=           0
         NMat0=    1 NMatS0=      1 NMatT0=    0 NMatD0=    1 NMtDS0=    0 NMtDT0=    0
 Petite list used in FoFCou.
 Harris En= -1135.88162340268    
 JPrj=0 DoOrth=F DoCkMO=F.
 Initial guess <Sx>= 0.0000 <Sy>= 0.0000 <Sz>= 0.5000 <S**2>= 0.7500 S= 0.5000
 Leave Link  401 at Mon Nov 13 20:35:37 2023, MaxMem=  1879048192 cpu:               4.9 elap:               0.3
 (Enter /home/sekinelabo/g16/l502.exe)
 Keep R1 and R2 ints in memory in canonical form, NReq=507620388.
 FoFCou: FMM=F IPFlag=           0 FMFlag=           0 FMFlg1=           0
         NFxFlg=           0 DoJE=F BraDBF=F KetDBF=F FulRan=T
         wScrn=  0.000000 ICntrl=       600 IOpCl=  0 I1Cent=           0 NGrid=           0
         NMat0=    1 NMatS0=  22155 NMatT0=    0 NMatD0=    1 NMtDS0=    0 NMtDT0=    0
 Symmetry not used in FoFCou.
 Two-electron integral symmetry not used.
 UHF open shell SCF:
 Using DIIS extrapolation, IDIIS=  1040.
 NGot=  1879048192 LenX=  1388082348 LenY=  1388034818
 Requested convergence on RMS density matrix=1.00D-08 within 128 cycles.
 Requested convergence on MAX density matrix=1.00D-06.
 Requested convergence on             energy=1.00D-06.
 No special actions if energy rises.

 Cycle   1  Pass 1  IDiag  1:
 E= -1136.05670541924    
 DIIS: error= 1.64D-02 at cycle   1 NSaved=   1.
 NSaved= 1 IEnMin= 1 EnMin= -1136.05670541924     IErMin= 1 ErrMin= 1.64D-02
 ErrMax= 1.64D-02  0.00D+00 EMaxC= 1.00D-01 BMatC= 2.12D-01 BMatP= 2.12D-01
 IDIUse=3 WtCom= 8.36D-01 WtEn= 1.64D-01
 Coeff-Com:  0.100D+01
 Coeff-En:   0.100D+01
 Coeff:      0.100D+01
 Gap=     0.050 Goal=   None    Shift=    0.000
 Gap=     0.057 Goal=   None    Shift=    0.000
 GapD=    0.050 DampG=0.500 DampE=0.500 DampFc=0.2500 IDamp=-1.
 Damping current iteration by 2.50D-01
 RMSDP=1.25D-01 MaxDP=7.17D+00              OVMax= 2.84D-01

 Cycle   2  Pass 1  IDiag  1:
 E= -1136.07485541582     Delta-E=       -0.018149996576 Rises=F Damp=T
 DIIS: error= 1.09D-02 at cycle   2 NSaved=   2.
 NSaved= 2 IEnMin= 2 EnMin= -1136.07485541582     IErMin= 2 ErrMin= 1.09D-02
 ErrMax= 1.09D-02  0.00D+00 EMaxC= 1.00D-01 BMatC= 7.90D-02 BMatP= 2.12D-01
 IDIUse=3 WtCom= 8.91D-01 WtEn= 1.09D-01
 Coeff-Com: -0.124D+01 0.224D+01
 Coeff-En:   0.000D+00 0.100D+01
 Coeff:     -0.110D+01 0.210D+01
 Gap=     0.064 Goal=   None    Shift=    0.000
 Gap=     0.058 Goal=   None    Shift=    0.000
 RMSDP=5.40D-02 MaxDP=3.27D+00 DE=-1.81D-02 OVMax= 1.90D-01

 Cycle   3  Pass 1  IDiag  1:
 E= -1136.10471150294     Delta-E=       -0.029856087123 Rises=F Damp=F
 DIIS: error= 3.88D-03 at cycle   3 NSaved=   3.
 NSaved= 3 IEnMin= 3 EnMin= -1136.10471150294     IErMin= 3 ErrMin= 3.88D-03
 ErrMax= 3.88D-03  0.00D+00 EMaxC= 1.00D-01 BMatC= 4.70D-03 BMatP= 7.90D-02
 IDIUse=3 WtCom= 9.61D-01 WtEn= 3.88D-02
 Coeff-Com: -0.263D+00 0.493D+00 0.771D+00
 Coeff-En:   0.000D+00 0.000D+00 0.100D+01
 Coeff:     -0.253D+00 0.474D+00 0.779D+00
 Gap=     0.058 Goal=   None    Shift=    0.000
 Gap=     0.058 Goal=   None    Shift=    0.000
 RMSDP=2.38D-02 MaxDP=1.57D+00 DE=-2.99D-02 OVMax= 5.31D-02

 Cycle   4  Pass 1  IDiag  1:
 E= -1136.10558906236     Delta-E=       -0.000877559421 Rises=F Damp=F
 DIIS: error= 3.21D-03 at cycle   4 NSaved=   4.
 NSaved= 4 IEnMin= 4 EnMin= -1136.10558906236     IErMin= 4 ErrMin= 3.21D-03
 ErrMax= 3.21D-03  0.00D+00 EMaxC= 1.00D-01 BMatC= 2.62D-03 BMatP= 4.70D-03
 IDIUse=3 WtCom= 9.68D-01 WtEn= 3.21D-02
 Coeff-Com:  0.168D-01-0.222D-01 0.428D+00 0.577D+00
 Coeff-En:   0.000D+00 0.000D+00 0.390D+00 0.610D+00
 Coeff:      0.163D-01-0.215D-01 0.427D+00 0.578D+00
 Gap=     0.060 Goal=   None    Shift=    0.000
 Gap=     0.059 Goal=   None    Shift=    0.000
 RMSDP=6.48D-03 MaxDP=3.94D-01 DE=-8.78D-04 OVMax= 2.44D-02

 Cycle   5  Pass 1  IDiag  1:
 E= -1136.10695157890     Delta-E=       -0.001362516537 Rises=F Damp=F
 DIIS: error= 4.81D-05 at cycle   5 NSaved=   5.
 NSaved= 5 IEnMin= 5 EnMin= -1136.10695157890     IErMin= 5 ErrMin= 4.81D-05
 ErrMax= 4.81D-05  0.00D+00 EMaxC= 1.00D-01 BMatC= 8.17D-07 BMatP= 2.62D-03
 IDIUse=1 WtCom= 1.00D+00 WtEn= 0.00D+00
 Coeff-Com: -0.406D-02 0.511D-02-0.186D-01-0.284D-01 0.105D+01
 Coeff:     -0.406D-02 0.511D-02-0.186D-01-0.284D-01 0.105D+01
 Gap=     0.060 Goal=   None    Shift=    0.000
 Gap=     0.059 Goal=   None    Shift=    0.000
 RMSDP=9.54D-04 MaxDP=1.07D-01 DE=-1.36D-03 OVMax= 1.40D-03

 Cycle   6  Pass 1  IDiag  1:
 E= -1136.10695192293     Delta-E=       -0.000000344025 Rises=F Damp=F
 DIIS: error= 6.53D-05 at cycle   6 NSaved=   6.
 NSaved= 6 IEnMin= 6 EnMin= -1136.10695192293     IErMin= 5 ErrMin= 4.81D-05
 ErrMax= 6.53D-05  0.00D+00 EMaxC= 1.00D-01 BMatC= 7.67D-07 BMatP= 8.17D-07
 IDIUse=1 WtCom= 1.00D+00 WtEn= 0.00D+00
 Coeff-Com: -0.273D-02 0.345D-02-0.227D-01-0.321D-01 0.593D+00 0.461D+00
 Coeff:     -0.273D-02 0.345D-02-0.227D-01-0.321D-01 0.593D+00 0.461D+00
 Gap=     0.060 Goal=   None    Shift=    0.000
 Gap=     0.059 Goal=   None    Shift=    0.000
 RMSDP=1.35D-04 MaxDP=1.40D-02 DE=-3.44D-07 OVMax= 1.08D-03

 Cycle   7  Pass 1  IDiag  1:
 E= -1136.10695266956     Delta-E=       -0.000000746629 Rises=F Damp=F
 DIIS: error= 2.03D-05 at cycle   7 NSaved=   7.
 NSaved= 7 IEnMin= 7 EnMin= -1136.10695266956     IErMin= 7 ErrMin= 2.03D-05
 ErrMax= 2.03D-05  0.00D+00 EMaxC= 1.00D-01 BMatC= 1.00D-07 BMatP= 7.67D-07
 IDIUse=1 WtCom= 1.00D+00 WtEn= 0.00D+00
 Coeff-Com:  0.451D-03-0.608D-03-0.356D-02-0.366D-02-0.128D+00 0.243D+00
 Coeff-Com:  0.893D+00
 Coeff:      0.451D-03-0.608D-03-0.356D-02-0.366D-02-0.128D+00 0.243D+00
 Coeff:      0.893D+00
 Gap=     0.060 Goal=   None    Shift=    0.000
 Gap=     0.059 Goal=   None    Shift=    0.000
 RMSDP=1.57D-04 MaxDP=1.99D-02 DE=-7.47D-07 OVMax= 3.57D-04

 Cycle   8  Pass 1  IDiag  1:
 E= -1136.10695279421     Delta-E=       -0.000000124652 Rises=F Damp=F
 DIIS: error= 1.65D-06 at cycle   8 NSaved=   8.
 NSaved= 8 IEnMin= 8 EnMin= -1136.10695279421     IErMin= 8 ErrMin= 1.65D-06
 ErrMax= 1.65D-06  0.00D+00 EMaxC= 1.00D-01 BMatC= 1.28D-09 BMatP= 1.00D-07
 IDIUse=1 WtCom= 1.00D+00 WtEn= 0.00D+00
 Coeff-Com:  0.212D-03-0.274D-03 0.194D-04 0.335D-03-0.430D-01 0.197D-01
 Coeff-Com:  0.135D+00 0.888D+00
 Coeff:      0.212D-03-0.274D-03 0.194D-04 0.335D-03-0.430D-01 0.197D-01
 Coeff:      0.135D+00 0.888D+00
 Gap=     0.060 Goal=   None    Shift=    0.000
 Gap=     0.059 Goal=   None    Shift=    0.000
 RMSDP=2.19D-05 MaxDP=2.70D-03 DE=-1.25D-07 OVMax= 4.44D-05

 Cycle   9  Pass 1  IDiag  1:
 E= -1136.10695279601     Delta-E=       -0.000000001802 Rises=F Damp=F
 DIIS: error= 6.38D-07 at cycle   9 NSaved=   9.
 NSaved= 9 IEnMin= 9 EnMin= -1136.10695279601     IErMin= 9 ErrMin= 6.38D-07
 ErrMax= 6.38D-07  0.00D+00 EMaxC= 1.00D-01 BMatC= 3.13D-10 BMatP= 1.28D-09
 IDIUse=1 WtCom= 1.00D+00 WtEn= 0.00D+00
 Coeff-Com:  0.501D-04-0.620D-04 0.186D-03 0.290D-03-0.949D-02-0.609D-02
 Coeff-Com: -0.233D-02 0.330D+00 0.687D+00
 Coeff:      0.501D-04-0.620D-04 0.186D-03 0.290D-03-0.949D-02-0.609D-02
 Coeff:     -0.233D-02 0.330D+00 0.687D+00
 Gap=     0.060 Goal=   None    Shift=    0.000
 Gap=     0.059 Goal=   None    Shift=    0.000
 RMSDP=4.04D-06 MaxDP=3.60D-04 DE=-1.80D-09 OVMax= 1.85D-05

 Cycle  10  Pass 1  IDiag  1:
 E= -1136.10695279627     Delta-E=       -0.000000000256 Rises=F Damp=F
 DIIS: error= 3.89D-07 at cycle  10 NSaved=  10.
 NSaved=10 IEnMin=10 EnMin= -1136.10695279627     IErMin=10 ErrMin= 3.89D-07
 ErrMax= 3.89D-07  0.00D+00 EMaxC= 1.00D-01 BMatC= 3.79D-11 BMatP= 3.13D-10
 IDIUse=1 WtCom= 1.00D+00 WtEn= 0.00D+00
 Coeff-Com: -0.202D-04 0.274D-04 0.480D-04 0.243D-04 0.382D-02-0.558D-02
 Coeff-Com: -0.224D-01-0.135D-01 0.153D+00 0.885D+00
 Coeff:     -0.202D-04 0.274D-04 0.480D-04 0.243D-04 0.382D-02-0.558D-02
 Coeff:     -0.224D-01-0.135D-01 0.153D+00 0.885D+00
 Gap=     0.060 Goal=   None    Shift=    0.000
 Gap=     0.059 Goal=   None    Shift=    0.000
 RMSDP=2.75D-06 MaxDP=2.18D-04 DE=-2.56D-10 OVMax= 1.54D-05

 Cycle  11  Pass 1  IDiag  1:
 E= -1136.10695279636     Delta-E=       -0.000000000088 Rises=F Damp=F
 DIIS: error= 2.94D-07 at cycle  11 NSaved=  11.
 NSaved=11 IEnMin=11 EnMin= -1136.10695279636     IErMin=11 ErrMin= 2.94D-07
 ErrMax= 2.94D-07  0.00D+00 EMaxC= 1.00D-01 BMatC= 2.17D-11 BMatP= 3.79D-11
 IDIUse=1 WtCom= 1.00D+00 WtEn= 0.00D+00
 Coeff-Com: -0.174D-04 0.227D-04 0.890D-05-0.175D-04 0.334D-02-0.196D-02
 Coeff-Com: -0.114D-01-0.580D-01-0.160D-01 0.456D+00 0.628D+00
 Coeff:     -0.174D-04 0.227D-04 0.890D-05-0.175D-04 0.334D-02-0.196D-02
 Coeff:     -0.114D-01-0.580D-01-0.160D-01 0.456D+00 0.628D+00
 Gap=     0.060 Goal=   None    Shift=    0.000
 Gap=     0.059 Goal=   None    Shift=    0.000
 RMSDP=1.24D-06 MaxDP=8.15D-05 DE=-8.80D-11 OVMax= 9.14D-06

 Cycle  12  Pass 1  IDiag  1:
 E= -1136.10695279641     Delta-E=       -0.000000000060 Rises=F Damp=F
 DIIS: error= 2.21D-07 at cycle  12 NSaved=  12.
 NSaved=12 IEnMin=12 EnMin= -1136.10695279641     IErMin=12 ErrMin= 2.21D-07
 ErrMax= 2.21D-07  0.00D+00 EMaxC= 1.00D-01 BMatC= 1.15D-11 BMatP= 2.17D-11
 IDIUse=1 WtCom= 1.00D+00 WtEn= 0.00D+00
 Coeff-Com:  0.860D-06-0.198D-05-0.204D-04-0.241D-04-0.381D-04 0.273D-02
 Coeff-Com:  0.722D-02-0.457D-01-0.121D+00-0.267D+00 0.536D+00 0.888D+00
 Coeff:      0.860D-06-0.198D-05-0.204D-04-0.241D-04-0.381D-04 0.273D-02
 Coeff:      0.722D-02-0.457D-01-0.121D+00-0.267D+00 0.536D+00 0.888D+00
 Gap=     0.060 Goal=   None    Shift=    0.000
 Gap=     0.059 Goal=   None    Shift=    0.000
 RMSDP=1.62D-06 MaxDP=8.02D-05 DE=-5.98D-11 OVMax= 1.01D-05

 Cycle  13  Pass 1  IDiag  1:
 E= -1136.10695279644     Delta-E=       -0.000000000029 Rises=F Damp=F
 DIIS: error= 4.60D-08 at cycle  13 NSaved=  13.
 NSaved=13 IEnMin=13 EnMin= -1136.10695279644     IErMin=13 ErrMin= 4.60D-08
 ErrMax= 4.60D-08  0.00D+00 EMaxC= 1.00D-01 BMatC= 3.53D-13 BMatP= 1.15D-11
 IDIUse=1 WtCom= 1.00D+00 WtEn= 0.00D+00
 Coeff-Com:  0.270D-05-0.345D-05-0.526D-05-0.535D-06-0.457D-03 0.342D-04
 Coeff-Com:  0.966D-03 0.138D-01 0.138D-01-0.354D-01-0.154D+00-0.100D+00
 Coeff-Com:  0.126D+01
 Coeff:      0.270D-05-0.345D-05-0.526D-05-0.535D-06-0.457D-03 0.342D-04
 Coeff:      0.966D-03 0.138D-01 0.138D-01-0.354D-01-0.154D+00-0.100D+00
 Coeff:      0.126D+01
 Gap=     0.060 Goal=   None    Shift=    0.000
 Gap=     0.059 Goal=   None    Shift=    0.000
 RMSDP=6.00D-07 MaxDP=4.79D-05 DE=-2.91D-11 OVMax= 3.34D-06

 Cycle  14  Pass 1  IDiag  1:
 E= -1136.10695279644     Delta-E=        0.000000000001 Rises=F Damp=F
 DIIS: error= 1.45D-08 at cycle  14 NSaved=  14.
 NSaved=14 IEnMin=13 EnMin= -1136.10695279644     IErMin=14 ErrMin= 1.45D-08
 ErrMax= 1.45D-08  0.00D+00 EMaxC= 1.00D-01 BMatC= 6.41D-14 BMatP= 3.53D-13
 IDIUse=1 WtCom= 1.00D+00 WtEn= 0.00D+00
 Coeff-Com:  0.728D-06-0.870D-06-0.105D-05 0.113D-05-0.154D-03-0.166D-03
 Coeff-Com: -0.425D-04 0.728D-02 0.122D-01 0.406D-02-0.831D-01-0.856D-01
 Coeff-Com:  0.419D+00 0.726D+00
 Coeff:      0.728D-06-0.870D-06-0.105D-05 0.113D-05-0.154D-03-0.166D-03
 Coeff:     -0.425D-04 0.728D-02 0.122D-01 0.406D-02-0.831D-01-0.856D-01
 Coeff:      0.419D+00 0.726D+00
 Gap=     0.060 Goal=   None    Shift=    0.000
 Gap=     0.059 Goal=   None    Shift=    0.000
 RMSDP=8.81D-08 MaxDP=1.49D-05 DE= 6.82D-13 OVMax= 4.80D-07

 Cycle  15  Pass 1  IDiag  1:
 E= -1136.10695279645     Delta-E=       -0.000000000005 Rises=F Damp=F
 DIIS: error= 1.19D-08 at cycle  15 NSaved=  15.
 NSaved=15 IEnMin=15 EnMin= -1136.10695279645     IErMin=15 ErrMin= 1.19D-08
 ErrMax= 1.19D-08  0.00D+00 EMaxC= 1.00D-01 BMatC= 3.30D-14 BMatP= 6.41D-14
 IDIUse=1 WtCom= 1.00D+00 WtEn= 0.00D+00
 Coeff-Com: -0.487D-06 0.660D-06 0.124D-05 0.104D-05 0.547D-04-0.111D-03
 Coeff-Com: -0.321D-03-0.234D-03 0.289D-02 0.146D-01 0.155D-02-0.183D-01
 Coeff-Com: -0.179D+00 0.468D+00 0.710D+00
 Coeff:     -0.487D-06 0.660D-06 0.124D-05 0.104D-05 0.547D-04-0.111D-03
 Coeff:     -0.321D-03-0.234D-03 0.289D-02 0.146D-01 0.155D-02-0.183D-01
 Coeff:     -0.179D+00 0.468D+00 0.710D+00
 Gap=     0.060 Goal=   None    Shift=    0.000
 Gap=     0.059 Goal=   None    Shift=    0.000
 RMSDP=4.59D-08 MaxDP=7.05D-06 DE=-4.77D-12 OVMax= 2.54D-07

 Cycle  16  Pass 1  IDiag  1:
 E= -1136.10695279644     Delta-E=        0.000000000006 Rises=F Damp=F
 DIIS: error= 3.01D-09 at cycle  16 NSaved=  16.
 NSaved=16 IEnMin=15 EnMin= -1136.10695279645     IErMin=16 ErrMin= 3.01D-09
 ErrMax= 3.01D-09  0.00D+00 EMaxC= 1.00D-01 BMatC= 1.43D-15 BMatP= 3.30D-14
 IDIUse=1 WtCom= 1.00D+00 WtEn= 0.00D+00
 Large coefficients: NSaved= 16 BigCof=    0.00 CofMax=   10.00 Det=-8.04D-15
 Inversion failed.  Reducing to 15 matrices.
 Coeff-Com: -0.145D-07 0.616D-06 0.206D-06 0.129D-04 0.300D-04 0.257D-04
 Coeff-Com: -0.926D-03-0.169D-02-0.560D-03 0.114D-01 0.114D-01-0.628D-01
 Coeff-Com: -0.701D-01 0.373D-01 0.108D+01
 Coeff:     -0.145D-07 0.616D-06 0.206D-06 0.129D-04 0.300D-04 0.257D-04
 Coeff:     -0.926D-03-0.169D-02-0.560D-03 0.114D-01 0.114D-01-0.628D-01
 Coeff:     -0.701D-01 0.373D-01 0.108D+01
 Gap=     0.060 Goal=   None    Shift=    0.000
 Gap=     0.059 Goal=   None    Shift=    0.000
 RMSDP=2.79D-08 MaxDP=2.28D-06 DE= 6.37D-12 OVMax= 9.94D-08

 Cycle  17  Pass 1  IDiag  1:
 E= -1136.10695279645     Delta-E=       -0.000000000004 Rises=F Damp=F
 DIIS: error= 1.05D-09 at cycle  17 NSaved=  16.
 NSaved=16 IEnMin=14 EnMin= -1136.10695279645     IErMin=16 ErrMin= 1.05D-09
 ErrMax= 1.05D-09  0.00D+00 EMaxC= 1.00D-01 BMatC= 3.16D-16 BMatP= 1.43D-15
 IDIUse=1 WtCom= 1.00D+00 WtEn= 0.00D+00
 Large coefficients: NSaved= 16 BigCof=    0.00 CofMax=   10.00 Det=-8.29D-16
 Inversion failed.  Reducing to 15 matrices.
 Coeff-Com: -0.547D-07-0.312D-06 0.813D-05 0.105D-04 0.146D-04-0.318D-03
 Coeff-Com: -0.768D-03-0.109D-02 0.314D-02 0.481D-02 0.760D-04-0.818D-01
 Coeff-Com: -0.746D-01 0.374D+00 0.777D+00
 Coeff:     -0.547D-07-0.312D-06 0.813D-05 0.105D-04 0.146D-04-0.318D-03
 Coeff:     -0.768D-03-0.109D-02 0.314D-02 0.481D-02 0.760D-04-0.818D-01
 Coeff:     -0.746D-01 0.374D+00 0.777D+00
 Gap=     0.060 Goal=   None    Shift=    0.000
 Gap=     0.059 Goal=   None    Shift=    0.000
 RMSDP=9.65D-09 MaxDP=7.33D-07 DE=-4.32D-12 OVMax= 4.69D-08

 SCF Done:  E(UB3LYP) =  -1136.10695280     A.U. after   17 cycles
            NFock= 17  Conv=0.97D-08     -V/T= 2.0024
 <Sx>= 0.0000 <Sy>= 0.0000 <Sz>= 0.5000 <S**2>= 0.7567 S= 0.5033
 <L.S>= 0.000000000000E+00
 KE= 1.133405311192D+03 PE=-3.532851927286D+03 EE= 8.618406856859D+02
 Annihilation of the first spin contaminant:
 S**2 before annihilation     0.7567,   after     0.7500
 Leave Link  502 at Mon Nov 13 20:35:52 2023, MaxMem=  1879048192 cpu:             175.5 elap:              15.1
 (Enter /home/sekinelabo/g16/l601.exe)
 Copying SCF densities to generalized density rwf, IOpCl= 1 IROHF=0.

 **********************************************************************

            Population analysis using the SCF Density.

 **********************************************************************

 Orbital symmetries:
 Alpha Orbitals:
       Occupied  (A) (A) (A) (A) (A) (A) (A) (A) (A) (A) (A) (A)
                 (A) (A) (A) (A) (A) (A) (A) (A) (A) (A) (A) (A)
                 (A) (A) (A) (A) (A) (A) (A) (A) (A) (A) (A) (A)
                 (A) (A) (A)
       Virtual   (A) (A) (A) (A) (A) (A) (A) (A) (A) (A) (A) (A)
                 (A) (A) (A) (A) (A) (A) (A) (A) (A) (A) (A) (A)
                 (A) (A) (A) (A) (A) (A) (A) (A) (A) (A) (A) (A)
                 (A) (A) (A) (A) (A) (A) (A) (A) (A) (A) (A) (A)
                 (A) (A) (A) (A) (A) (A) (A) (A) (A) (A) (A) (A)
                 (A) (A) (A) (A) (A) (A) (A) (A) (A) (A) (A) (A)
                 (A) (A) (A) (A) (A) (A) (A) (A) (A) (A) (A) (A)
                 (A) (A) (A) (A) (A) (A) (A) (A) (A) (A) (A) (A)
                 (A) (A) (A) (A) (A) (A) (A) (A) (A) (A) (A) (A)
                 (A) (A) (A) (A) (A) (A) (A) (A) (A) (A) (A) (A)
                 (A) (A) (A) (A) (A) (A) (A) (A) (A) (A) (A) (A)
                 (A) (A) (A) (A) (A) (A) (A) (A) (A) (A) (A) (A)
                 (A) (A) (A) (A) (A) (A) (A) (A) (A) (A) (A) (A)
                 (A) (A) (A) (A) (A) (A) (A) (A) (A) (A) (A) (A)
                 (A) (A) (A)
 Beta  Orbitals:
       Occupied  (A) (A) (A) (A) (A) (A) (A) (A) (A) (A) (A) (A)
                 (A) (A) (A) (A) (A) (A) (A) (A) (A) (A) (A) (A)
                 (A) (A) (A) (A) (A) (A) (A) (A) (A) (A) (A) (A)
                 (A) (A)
       Virtual   (A) (A) (A) (A) (A) (A) (A) (A) (A) (A) (A) (A)
                 (A) (A) (A) (A) (A) (A) (A) (A) (A) (A) (A) (A)
                 (A) (A) (A) (A) (A) (A) (A) (A) (A) (A) (A) (A)
                 (A) (A) (A) (A) (A) (A) (A) (A) (A) (A) (A) (A)
                 (A) (A) (A) (A) (A) (A) (A) (A) (A) (A) (A) (A)
                 (A) (A) (A) (A) (A) (A) (A) (A) (A) (A) (A) (A)
                 (A) (A) (A) (A) (A) (A) (A) (A) (A) (A) (A) (A)
                 (A) (A) (A) (A) (A) (A) (A) (A) (A) (A) (A) (A)
                 (A) (A) (A) (A) (A) (A) (A) (A) (A) (A) (A) (A)
                 (A) (A) (A) (A) (A) (A) (A) (A) (A) (A) (A) (A)
                 (A) (A) (A) (A) (A) (A) (A) (A) (A) (A) (A) (A)
                 (A) (A) (A) (A) (A) (A) (A) (A) (A) (A) (A) (A)
                 (A) (A) (A) (A) (A) (A) (A) (A) (A) (A) (A) (A)
                 (A) (A) (A) (A) (A) (A) (A) (A) (A) (A) (A) (A)
                 (A) (A) (A) (A)
 The electronic state is 2-A.
 Alpha  occ. eigenvalues --  -38.43649 -38.43647 -38.43427 -38.43426 -38.43233
 Alpha  occ. eigenvalues --  -38.43051 -38.43050  -2.19706  -2.19702  -2.19484
 Alpha  occ. eigenvalues --   -2.19475  -2.19330  -2.19309  -2.19238  -1.13586
 Alpha  occ. eigenvalues --   -1.13581  -1.13413  -1.13390  -1.13378  -1.13348
 Alpha  occ. eigenvalues --   -1.13309  -1.13167  -1.13138  -1.13116  -1.13111
 Alpha  occ. eigenvalues --   -1.13069  -1.13010  -1.12972  -1.12964  -1.12892
 Alpha  occ. eigenvalues --   -1.12890  -1.12886  -1.12841  -1.12808  -1.12801
 Alpha  occ. eigenvalues --   -0.20962  -0.13756  -0.13243  -0.11133
 Alpha virt. eigenvalues --   -0.05141  -0.04691  -0.04617  -0.03222  -0.02855
 Alpha virt. eigenvalues --   -0.02022  -0.01119  -0.00953   0.00064   0.00330
 Alpha virt. eigenvalues --    0.00422   0.00427   0.00979   0.01050   0.01064
 Alpha virt. eigenvalues --    0.01074   0.01320   0.01332   0.01372   0.01568
 Alpha virt. eigenvalues --    0.01644   0.01710   0.01935   0.01963   0.02170
 Alpha virt. eigenvalues --    0.02508   0.02512   0.02840   0.02845   0.02895
 Alpha virt. eigenvalues --    0.03190   0.03214   0.03372   0.03375   0.03450
 Alpha virt. eigenvalues --    0.03473   0.03584   0.03602   0.03700   0.03806
 Alpha virt. eigenvalues --    0.04808   0.04896   0.04954   0.05024   0.05069
 Alpha virt. eigenvalues --    0.05336   0.05392   0.05469   0.05614   0.05740
 Alpha virt. eigenvalues --    0.06082   0.07785   0.07795   0.07939   0.08050
 Alpha virt. eigenvalues --    0.08191   0.08365   0.08739   0.08908   0.09670
 Alpha virt. eigenvalues --    0.10028   0.10080   0.11680   0.11844   0.12400
 Alpha virt. eigenvalues --    0.12591   0.13865   0.13896   0.14124   0.14248
 Alpha virt. eigenvalues --    0.14485   0.14770   0.14800   0.14926   0.15151
 Alpha virt. eigenvalues --    0.16093   0.17371   0.17579   0.17844   0.18686
 Alpha virt. eigenvalues --    0.25683   0.25954   0.27036   0.28035   0.28113
 Alpha virt. eigenvalues --    0.28287   0.28910   0.30007   0.31016   0.36611
 Alpha virt. eigenvalues --    0.37096   0.37474   0.38517   0.38581   0.39363
 Alpha virt. eigenvalues --    0.40372   0.40417   0.42032   0.44067   0.44236
 Alpha virt. eigenvalues --    0.45003   0.46082   0.46233   0.46301   0.47316
 Alpha virt. eigenvalues --    0.47488   0.47719   0.48065   0.48565   0.48696
 Alpha virt. eigenvalues --    0.48835   0.49908   0.51133   0.51804   0.52012
 Alpha virt. eigenvalues --    0.54379   0.54567   0.54874   0.55666   0.56235
 Alpha virt. eigenvalues --    0.59841   0.62238   0.63261   0.64349   0.65338
 Alpha virt. eigenvalues --    0.65914   0.66658   0.66675   0.67709   0.69912
 Alpha virt. eigenvalues --    0.73557   0.74737   0.75025   0.80352   0.82474
 Alpha virt. eigenvalues --    0.83849   2.15577   2.24974   2.25656   2.26737
 Alpha virt. eigenvalues --    2.27927   2.38380   2.39096   4.41518   4.41525
 Alpha virt. eigenvalues --    4.41780   4.42063   4.42390   4.42743   4.46220
 Alpha virt. eigenvalues --    4.46608   4.49863   4.50085   4.54640   4.58868
 Alpha virt. eigenvalues --    4.63470   4.65269   4.66431   4.67039   4.67188
 Alpha virt. eigenvalues --    4.76109   4.77892   4.87542   4.91637  96.37051
 Alpha virt. eigenvalues --   96.51853  96.52848  96.53352  96.54757  96.69790
 Alpha virt. eigenvalues --   96.70116
  Beta  occ. eigenvalues --  -38.43638 -38.43635 -38.43415 -38.43415 -38.43224
  Beta  occ. eigenvalues --  -38.42969 -38.42969  -2.19692  -2.19687  -2.19469
  Beta  occ. eigenvalues --   -2.19460  -2.19231  -2.19180  -2.19162  -1.13574
  Beta  occ. eigenvalues --   -1.13568  -1.13403  -1.13385  -1.13315  -1.13288
  Beta  occ. eigenvalues --   -1.13286  -1.13129  -1.13099  -1.13072  -1.13054
  Beta  occ. eigenvalues --   -1.13053  -1.13006  -1.12911  -1.12900  -1.12842
  Beta  occ. eigenvalues --   -1.12794  -1.12791  -1.12787  -1.12732  -1.12726
  Beta  occ. eigenvalues --   -0.20198  -0.13395  -0.12910
  Beta virt. eigenvalues --   -0.07030  -0.05168  -0.04672  -0.04620  -0.02284
  Beta virt. eigenvalues --   -0.01988  -0.01045  -0.00989  -0.00899   0.00180
  Beta virt. eigenvalues --    0.00333   0.00376   0.00419   0.01004   0.01069
  Beta virt. eigenvalues --    0.01074   0.01085   0.01469   0.01493   0.01513
  Beta virt. eigenvalues --    0.01653   0.01710   0.01853   0.01946   0.01962
  Beta virt. eigenvalues --    0.02343   0.02512   0.02514   0.02843   0.02852
  Beta virt. eigenvalues --    0.02905   0.03195   0.03212   0.03366   0.03371
  Beta virt. eigenvalues --    0.03566   0.03616   0.03665   0.03738   0.03780
  Beta virt. eigenvalues --    0.04049   0.04936   0.05035   0.05070   0.05153
  Beta virt. eigenvalues --    0.05189   0.05542   0.05572   0.05578   0.05702
  Beta virt. eigenvalues --    0.05713   0.06417   0.07761   0.07787   0.08185
  Beta virt. eigenvalues --    0.08222   0.08320   0.08324   0.08866   0.09016
  Beta virt. eigenvalues --    0.10032   0.10343   0.10418   0.11822   0.12046
  Beta virt. eigenvalues --    0.12541   0.12714   0.14235   0.14428   0.14462
  Beta virt. eigenvalues --    0.14592   0.14662   0.14948   0.15071   0.15170
  Beta virt. eigenvalues --    0.15268   0.16353   0.17302   0.17900   0.18150
  Beta virt. eigenvalues --    0.19244   0.26078   0.26338   0.27027   0.28071
  Beta virt. eigenvalues --    0.28209   0.28261   0.29409   0.30687   0.31676
  Beta virt. eigenvalues --    0.36701   0.37204   0.37996   0.38879   0.39022
  Beta virt. eigenvalues --    0.39684   0.40449   0.40966   0.42182   0.44123
  Beta virt. eigenvalues --    0.44469   0.45323   0.46207   0.46298   0.46434
  Beta virt. eigenvalues --    0.47376   0.47401   0.48210   0.48388   0.48657
  Beta virt. eigenvalues --    0.48757   0.48983   0.50200   0.51302   0.51871
  Beta virt. eigenvalues --    0.52174   0.54444   0.54654   0.54963   0.56138
  Beta virt. eigenvalues --    0.56657   0.59765   0.62173   0.63441   0.64750
  Beta virt. eigenvalues --    0.65471   0.66451   0.66927   0.67287   0.68339
  Beta virt. eigenvalues --    0.70302   0.73522   0.75028   0.75301   0.80425
  Beta virt. eigenvalues --    0.82533   0.83984   2.15610   2.24990   2.25670
  Beta virt. eigenvalues --    2.26746   2.27939   2.38781   2.39421   4.41593
  Beta virt. eigenvalues --    4.41628   4.41842   4.42168   4.42395   4.42736
  Beta virt. eigenvalues --    4.46287   4.46691   4.49937   4.50164   4.54660
  Beta virt. eigenvalues --    4.58892   4.63479   4.65289   4.66456   4.67184
  Beta virt. eigenvalues --    4.67325   4.76120   4.77974   4.87614   4.91695
  Beta virt. eigenvalues --   96.37069  96.51862  96.52857  96.53360  96.54765
  Beta virt. eigenvalues --   96.69905  96.70219
          Condensed to atoms (all electrons):
               1          2          3          4          5          6
     1  Na  18.991912  -0.338126  -0.307964  -0.378672  -5.465446  -0.319159
     2  Na  -0.338126  13.972936  -0.153846  -2.312025  -0.353900  -2.228375
     3  Na  -0.307964  -0.153846  14.578972   1.306891  -0.308922  -2.201732
     4  Na  -0.378672  -2.312025   1.306891  13.449676  -0.362938   1.293019
     5  Na  -5.465446  -0.353900  -0.308922  -0.362938  18.994711  -0.300427
     6  Na  -0.319159  -2.228375  -2.201732   1.293019  -0.300427  14.569186
     7  Na  -0.334418   2.048046  -2.238537  -2.312591  -0.355951  -0.136991
               7
     1  Na  -0.334418
     2  Na   2.048046
     3  Na  -2.238537
     4  Na  -2.312591
     5  Na  -0.355951
     6  Na  -0.136991
     7  Na  13.966735
          Atomic-Atomic Spin Densities.
               1          2          3          4          5          6
     1  Na   6.638332   0.052440   0.045110   0.023540  -6.333965   0.037628
     2  Na   0.052440  -0.523853  -0.013627   0.356209   0.057560   0.364290
     3  Na   0.045110  -0.013627  -0.584779  -0.187036   0.039655   0.330214
     4  Na   0.023540   0.356209  -0.187036  -0.432177   0.021319  -0.184369
     5  Na  -6.333965   0.057560   0.039655   0.021319   6.638492   0.044536
     6  Na   0.037628   0.364290   0.330214  -0.184369   0.044536  -0.582234
     7  Na   0.056928  -0.283676   0.365424   0.355376   0.052822  -0.016160
               7
     1  Na   0.056928
     2  Na  -0.283676
     3  Na   0.365424
     4  Na   0.355376
     5  Na   0.052822
     6  Na  -0.016160
     7  Na  -0.522220
 Mulliken charges and spin densities:
               1          2
     1  Na  -0.848128   0.520014
     2  Na   0.365290   0.009344
     3  Na   0.325139  -0.005040
     4  Na   0.316640  -0.047137
     5  Na  -0.847127   0.520419
     6  Na   0.324480  -0.006095
     7  Na   0.363707   0.008495
 Sum of Mulliken charges =  -0.00000   1.00000
 Mulliken charges and spin densities with hydrogens summed into heavy atoms:
               1          2
     1  Na  -0.848128   0.520014
     2  Na   0.365290   0.009344
     3  Na   0.325139  -0.005040
     4  Na   0.316640  -0.047137
     5  Na  -0.847127   0.520419
     6  Na   0.324480  -0.006095
     7  Na   0.363707   0.008495
 Electronic spatial extent (au):  <R**2>=           1670.0836
 Charge=             -0.0000 electrons
 Dipole moment (field-independent basis, Debye):
    X=              0.0029    Y=              0.1019    Z=              0.0004  Tot=              0.1019
 Quadrupole moment (field-independent basis, Debye-Ang):
   XX=            -59.1296   YY=            -61.2103   ZZ=            -73.9280
   XY=             -0.0092   XZ=              0.0014   YZ=              0.0096
 Traceless Quadrupole moment (field-independent basis, Debye-Ang):
   XX=              5.6263   YY=              3.5457   ZZ=             -9.1720
   XY=             -0.0092   XZ=              0.0014   YZ=              0.0096
 Octapole moment (field-independent basis, Debye-Ang**2):
  XXX=              0.0416  YYY=              2.2894  ZZZ=              0.0081  XYY=              0.0297
  XXY=              0.4724  XXZ=              0.0046  XZZ=              0.0168  YZZ=              0.6297
  YYZ=             -0.0068  XYZ=              0.0160
 Hexadecapole moment (field-independent basis, Debye-Ang**3):
 XXXX=          -1113.7377 YYYY=          -1048.8606 ZZZZ=           -584.4848 XXXY=              0.1226
 XXXZ=              0.0919 YYYX=             -0.3788 YYYZ=              0.1576 ZZZX=              0.0002
 ZZZY=             -0.0052 XXYY=           -368.5607 XXZZ=           -336.3130 YYZZ=           -320.9631
 XXYZ=              0.0869 YYXZ=             -0.0578 ZZXY=             -0.0173
 N-N= 4.014989776120D+02 E-N=-3.532851927324D+03  KE= 1.133405311192D+03
                          Isotropic Fermi Contact Couplings
        Atom                 a.u.       MegaHertz       Gauss      10(-4) cm-1
     1  Na(23)             0.31960     378.08999     134.91191     126.11725
     2  Na(23)            -0.01770     -20.93616      -7.47054      -6.98355
     3  Na(23)            -0.01667     -19.71564      -7.03503      -6.57643
     4  Na(23)            -0.01781     -21.07333      -7.51949      -7.02930
     5  Na(23)             0.31976     378.28277     134.98070     126.18155
     6  Na(23)            -0.01663     -19.67793      -7.02157      -6.56385
     7  Na(23)            -0.01771     -20.95666      -7.47786      -6.99039
 --------------------------------------------------------
       Center         ----  Spin Dipole Couplings  ----
                      3XX-RR        3YY-RR        3ZZ-RR
 --------------------------------------------------------
     1   Atom        0.001025      0.000745     -0.001770
     2   Atom       -0.026311     -0.024468      0.050779
     3   Atom       -0.022517     -0.027939      0.050456
     4   Atom       -0.024706     -0.019319      0.044025
     5   Atom        0.001065      0.000726     -0.001791
     6   Atom       -0.022499     -0.027856      0.050355
     7   Atom       -0.026169     -0.024423      0.050593
 --------------------------------------------------------
                        XY            XZ            YZ
 --------------------------------------------------------
     1   Atom       -0.000029      0.000030      0.001079
     2   Atom        0.002877     -0.000028      0.000027
     3   Atom       -0.001943     -0.000022     -0.000034
     4   Atom       -0.000024      0.000049     -0.000027
     5   Atom        0.000040     -0.000021     -0.001007
     6   Atom        0.001980     -0.000091      0.000020
     7   Atom       -0.002894      0.000078     -0.000091
 --------------------------------------------------------


 ---------------------------------------------------------------------------------
              Anisotropic Spin Dipole Couplings in Principal Axis System
 ---------------------------------------------------------------------------------

       Atom             a.u.   MegaHertz   Gauss  10(-4) cm-1        Axes

              Baa    -0.0022    -0.306    -0.109    -0.102 -0.0119 -0.3473  0.9377
     1 Na(23) Bbb     0.0010     0.144     0.052     0.048  0.9905  0.1246  0.0587
              Bcc     0.0011     0.162     0.058     0.054 -0.1372  0.9295  0.3425
 
              Baa    -0.0284    -4.012    -1.432    -1.338  0.8077 -0.5895  0.0005
     2 Na(23) Bbb    -0.0224    -3.159    -1.127    -1.054  0.5895  0.8077 -0.0001
              Bcc     0.0508     7.171     2.559     2.392 -0.0003  0.0003  1.0000
 
              Baa    -0.0286    -4.034    -1.439    -1.345  0.3059  0.9521  0.0005
     3 Na(23) Bbb    -0.0219    -3.092    -1.103    -1.031  0.9521 -0.3059  0.0001
              Bcc     0.0505     7.125     2.542     2.377 -0.0003 -0.0004  1.0000
 
              Baa    -0.0247    -3.489    -1.245    -1.164  1.0000  0.0044 -0.0007
     4 Na(23) Bbb    -0.0193    -2.728    -0.973    -0.910 -0.0044  1.0000  0.0004
              Bcc     0.0440     6.217     2.218     2.074  0.0007 -0.0004  1.0000
 
              Baa    -0.0021    -0.303    -0.108    -0.101  0.0019  0.3309  0.9437
     5 Na(23) Bbb     0.0010     0.145     0.052     0.048  0.7617 -0.6119  0.2131
              Bcc     0.0011     0.158     0.056     0.053  0.6480  0.7184 -0.2532
 
              Baa    -0.0285    -4.026    -1.436    -1.343 -0.3129  0.9498 -0.0006
     6 Na(23) Bbb    -0.0218    -3.085    -1.101    -1.029  0.9498  0.3129  0.0011
              Bcc     0.0504     7.111     2.537     2.372 -0.0012  0.0002  1.0000
 
              Baa    -0.0283    -3.999    -1.427    -1.334  0.8027  0.5963 -0.0001
     7 Na(23) Bbb    -0.0223    -3.145    -1.122    -1.049 -0.5963  0.8027  0.0016
              Bcc     0.0506     7.144     2.549     2.383  0.0011 -0.0013  1.0000
 

 ---------------------------------------------------------------------------------

 No NMR shielding tensors so no spin-rotation constants.
 Leave Link  601 at Mon Nov 13 20:35:53 2023, MaxMem=  1879048192 cpu:               2.6 elap:               0.2
 (Enter /home/sekinelabo/g16/l701.exe)
 ... and contract with generalized density number  0.
 Compute integral first derivatives.
 Leave Link  701 at Mon Nov 13 20:35:53 2023, MaxMem=  1879048192 cpu:               1.7 elap:               0.1
 (Enter /home/sekinelabo/g16/l702.exe)
 L702 exits ... SP integral derivatives will be done elsewhere.
 Leave Link  702 at Mon Nov 13 20:35:53 2023, MaxMem=  1879048192 cpu:               0.5 elap:               0.0
 (Enter /home/sekinelabo/g16/l703.exe)
 Integral derivatives from FoFJK, PRISM(SPDF).
 Compute integral first derivatives, UseDBF=F ICtDFT=           0.
 Calling FoFJK, ICntrl=      2127 FMM=F ISym2X=0 I1Cent= 0 IOpClX= 1 NMat=1 NMatS=1 NMatT=0.
 FoFJK:  IHMeth= 1 ICntrl=    2127 DoSepK=F KAlg= 0 I1Cent=           0 FoldK=F
 IRaf=         0 NMat=       1 IRICut=       1 DoRegI=T DoRafI=F ISym2E= 0 IDoP0=0 IntGTp=1.
 FoFCou: FMM=F IPFlag=           0 FMFlag=      100000 FMFlg1=         800
         NFxFlg=           0 DoJE=F BraDBF=F KetDBF=F FulRan=T
         wScrn=  0.000000 ICntrl=      2127 IOpCl=  1 I1Cent=           0 NGrid=           0
         NMat0=    1 NMatS0=      1 NMatT0=    0 NMatD0=    1 NMtDS0=    0 NMtDT0=    0
 Symmetry not used in FoFCou.
 Leave Link  703 at Mon Nov 13 20:35:55 2023, MaxMem=  1879048192 cpu:              37.8 elap:               2.4
 (Enter /home/sekinelabo/g16/l716.exe)
 Dipole        = 1.12616301D-03 4.00828899D-02 1.44028181D-04
 ***** Axes restored to original set *****
 -------------------------------------------------------------------
 Center     Atomic                   Forces (Hartrees/Bohr)
 Number     Number              X              Y              Z
 -------------------------------------------------------------------
      1       11          -0.000009920    0.000529443    0.020016365
      2       11           0.005899731   -0.017693534    0.000026192
      3       11           0.015076722    0.009973561   -0.000005871
      4       11           0.000039741    0.014101871   -0.000033983
      5       11          -0.000016362    0.000578145   -0.020009611
      6       11          -0.014951875    0.010020516   -0.000018636
      7       11          -0.006038038   -0.017510004    0.000025543
 -------------------------------------------------------------------
 Cartesian Forces:  Max     0.020016365 RMS     0.010560926
 Z-matrix is all fixed cartesians, so copy forces.
 Force constants in Cartesian coordinates: 
                1             2             3             4             5 
      1  0.174650D+00
      2  0.117457D-04  0.170484D+00
      3  0.979949D-05  0.692264D-03  0.265169D+00
      4 -0.271107D-01  0.108731D-01 -0.697705D-02  0.124742D+00
      5  0.927219D-02 -0.336959D-01  0.689280D-02 -0.262011D-01  0.152778D+00
      6  0.230866D-01 -0.322002D-01 -0.394152D-01  0.213522D-04 -0.350158D-04
      7 -0.399072D-01 -0.664926D-02 -0.100767D-01 -0.370627D-01  0.175554D-01
      8 -0.440832D-02 -0.210409D-01 -0.199631D-02 -0.327404D-01 -0.563592D-01
      9  0.375424D-01  0.109889D-01 -0.400548D-01  0.000000D+00  0.118662D-05
     10 -0.205219D-01 -0.113844D-03 -0.412225D-04  0.784737D-02  0.521183D-02
     11 -0.827892D-04 -0.395260D-01 -0.902958D-02  0.513320D-02 -0.682752D-02
     12  0.169097D-03  0.399849D-01 -0.400056D-01  0.000000D+00  0.172898D-05
     13 -0.200921D-01 -0.204067D-04  0.391979D-04 -0.272273D-01  0.927792D-02
     14 -0.172753D-04 -0.215133D-01 -0.133151D-02  0.109334D-01 -0.337866D-01
     15 -0.322272D-04  0.126793D-02 -0.661724D-01  0.696211D-02 -0.688779D-02
     16 -0.397667D-01  0.679118D-02  0.100224D-01 -0.272416D-02  0.835343D-02
     17  0.455862D-02 -0.211361D-01 -0.207954D-02  0.843290D-02  0.366221D-02
     18 -0.374414D-01  0.113053D-01 -0.400814D-01 -0.786081D-05  0.000000D+00
     19 -0.272513D-01 -0.108925D-01  0.702365D-02 -0.384646D-01 -0.234696D-01
     20 -0.933417D-02 -0.335713D-01  0.685188D-02  0.235689D-01 -0.257716D-01
     21 -0.233343D-01 -0.320391D-01 -0.394398D-01  0.214170D-05  0.270804D-04
                6             7             8             9            10 
      6  0.764645D-01
      7  0.560200D-05  0.161312D+00
      8 -0.123958D-04  0.204530D-01  0.116013D+00
      9 -0.114352D-01 -0.102506D-04  0.358793D-04  0.758648D-01
     10 -0.110099D-05 -0.337109D-01  0.297411D-01 -0.258993D-04  0.928303D-01
     11  0.630315D-05 -0.167896D-01 -0.298937D-01  0.000000D+00  0.248630D-03
     12  0.111913D-01 -0.675126D-05 -0.141147D-05 -0.689233D-02  0.188660D-04
     13 -0.231473D-01 -0.398455D-01 -0.444467D-02 -0.375049D-01 -0.204436D-01
     14  0.322520D-01 -0.661100D-02 -0.210079D-01 -0.110454D-01 -0.899710D-04
     15 -0.395648D-01  0.100930D-01  0.196137D-02 -0.400079D-01  0.405528D-04
     16 -0.140233D-04 -0.794825D-02 -0.208695D-03 -0.105533D-04 -0.337472D-01
     17  0.178168D-05  0.351575D-03  0.848811D-02  0.514586D-05 -0.296792D-01
     18  0.117418D-01 -0.330192D-05  0.480567D-05  0.107285D-01  0.000000D+00
     19  0.489097D-04 -0.283735D-02 -0.839204D-02  0.965727D-05  0.774591D-02
     20 -0.124693D-04 -0.831001D-02  0.380105D-02  0.137158D-04 -0.531858D-02
     21 -0.898244D-02 -0.157239D-05  0.806744D-05  0.117969D-01  0.975171D-05
               11            12            13            14            15 
     11  0.152073D+00
     12 -0.666698D-04  0.712265D-01
     13 -0.811144D-04 -0.170812D-03  0.174627D+00
     14 -0.393923D-01 -0.399142D-01 -0.769231D-04  0.170367D+00
     15  0.905960D-02 -0.398375D-01 -0.183971D-04 -0.615632D-03  0.265130D+00
     16  0.168215D-01 -0.230841D-04 -0.398044D-01  0.676955D-02 -0.100544D-01
     17 -0.297106D-01 -0.202847D-04  0.462997D-02 -0.211751D-01  0.205614D-02
     18  0.195868D-04 -0.679978D-02  0.374502D-01 -0.113556D-01 -0.400546D-01
     19 -0.524979D-02  0.129111D-04 -0.272137D-01 -0.109078D-01 -0.699068D-02
     20 -0.672264D-02  0.159381D-04 -0.928477D-02 -0.334917D-01 -0.684161D-02
     21  0.102148D-04  0.111174D-01  0.233521D-01  0.320104D-01 -0.394925D-01
               16            17            18            19            20 
     16  0.160769D+00
     17 -0.207846D-01  0.116009D+00
     18  0.605991D-04 -0.443793D-04  0.757241D-01
     19 -0.367786D-01  0.324907D-01 -0.573194D-04  0.124800D+00
     20 -0.177424D-01 -0.561379D-01  0.703060D-04  0.264210D-01  0.151894D+00
     21  0.190662D-04  0.811453D-04 -0.112586D-01 -0.471275D-04 -0.977604D-04
               21 
     21  0.762590D-01
 Leave Link  716 at Mon Nov 13 20:35:55 2023, MaxMem=  1879048192 cpu:               0.5 elap:               0.0
 (Enter /home/sekinelabo/g16/l103.exe)

 GradGradGradGradGradGradGradGradGradGradGradGradGradGradGradGradGradGrad
 Berny optimization.
 Search for a local minimum.
 Step number   1 out of a maximum of    2
 All quantities printed in internal units (Hartrees-Bohrs-Radians)
 Second derivative matrix not updated -- first step.
 ITU=  0
     Eigenvalues ---    0.09334   0.10043   0.12109   0.13425   0.13488
     Eigenvalues ---    0.16022   0.16475   0.22866   0.23304   0.23435
     Eigenvalues ---    0.23536   0.23628   0.23972   0.27865   0.33601
 Quadratic step=3.336D-01 exceeds max=3.000D-01 adjusted using Lamda=-1.436D-02.
 Angle between NR and scaled steps=   1.02 degrees.
 Angle between quadratic step and forces=  17.44 degrees.
 Linear search not attempted -- first point.
 B after Tr=     0.000000    0.000000    0.000000
         Rot=    1.000000    0.000000    0.000000    0.000000 Ang=   0.00 deg.
 Variable       Old X    -DE/DX   Delta X   Delta X   Delta X     New X
                                 (Linear)    (Quad)   (Total)
    X1        4.77775  -0.00001   0.00000  -0.00002  -0.00002   4.77773
    Y1        3.91276   0.00053   0.00000   0.00065   0.00065   3.91342
    Z1        5.75577   0.02002   0.00000   0.07529   0.07529   5.83106
    X2        7.79992   0.00590   0.00000   0.06241   0.06241   7.86233
    Y2        0.00000  -0.01769   0.00000  -0.11344  -0.11344  -0.11344
    Z2        2.87751   0.00003   0.00000   0.00010   0.00010   2.87761
    X3        9.56820   0.01508   0.00000   0.11317   0.11317   9.68137
    Y3        5.10880   0.00997   0.00000   0.05127   0.05127   5.16007
    Z3        2.87904  -0.00001   0.00000  -0.00002  -0.00002   2.87902
    X4        4.80235   0.00004   0.00000   0.00040   0.00040   4.80275
    Y4        8.86315   0.01410   0.00000   0.12141   0.12141   8.98456
    Z4        2.87781  -0.00003   0.00000  -0.00012  -0.00012   2.87769
    X5        4.77852  -0.00002   0.00000  -0.00003  -0.00003   4.77849
    Y5        3.90512   0.00058   0.00000   0.00070   0.00070   3.90582
    Z5        0.00000  -0.02001   0.00000  -0.07528  -0.07528  -0.07528
    X6        0.00000  -0.01495   0.00000  -0.11261  -0.11261  -0.11261
    Y6        5.14899   0.01002   0.00000   0.05206   0.05206   5.20105
    Z6        2.87491  -0.00002   0.00000  -0.00005  -0.00005   2.87486
    X7        1.72793  -0.00604   0.00000  -0.06333  -0.06333   1.66461
    Y7        0.01762  -0.01751   0.00000  -0.11265  -0.11265  -0.09503
    Z7        2.88326   0.00003   0.00000   0.00008   0.00008   2.88334
         Item               Value     Threshold  Converged?
 Maximum Force            0.020016     0.000450     NO 
 RMS     Force            0.010561     0.000300     NO 
 Maximum Displacement     0.121408     0.001800     NO 
 RMS     Displacement     0.065599     0.001200     NO 
 Predicted change in Energy=-7.588428D-03
 GradGradGradGradGradGradGradGradGradGradGradGradGradGradGradGradGradGrad

 Leave Link  103 at Mon Nov 13 20:35:55 2023, MaxMem=  1879048192 cpu:               0.3 elap:               0.0
 (Enter /home/sekinelabo/g16/l9999.exe)
 1\1\GINC-SEKINELABO-XA7R-R37\Force\UB3LYP\6-311+G(d)\Na7(2)\SEKINELABO
 \13-Nov-2023\0\\#P B3LYP/6-311+g(d) force\\Gaussian input prepared by 
 ASE\\0,2\Na,2.5282758785,2.0705441643,3.0458233587\Na,4.1275389954,0.,
 1.5227144237\Na,5.0632729633,2.7034602204,1.5235233011\Na,2.5412918728
 ,4.6901754838,1.5228699732\Na,2.5286846937,2.0665011507,0.\Na,0.,2.724
 7291559,1.5213363378\Na,0.9143827688,0.0093241826,1.5257578817\\Versio
 n=ES64L-G16RevB.01\State=2-A\HF=-1136.1069528\S2=0.756683\S2-1=0.\S2A=
 0.750031\RMSD=9.654e-09\RMSF=1.056e-02\Dipole=-0.0011262,0.0400829,-0.
 000144\Quadrupole=4.1830366,2.636121,-6.8191575,0.0068431,0.0010581,-0
 .0071353\PG=C01 [X(Na7)]\\@


 THE RARE EARTHS PERPLEX US IN OUR RESEARCHES,
 BAFFLE US IN OUR SPECULATIONS, AND HAUNT US IN OUR
 VERY DREAMS.  THEY STRETCH LIKE AN UNKNOWN BEFORE US,
 MOCKING, MYSTIFYING, AND MURMURING STRANGE REVELATIONS
 AND POSSIBILITIES.  -- SIR WILLIAM CROOKE, 1832-1919
 Job cpu time:       0 days  0 hours  3 minutes 51.0 seconds.
 Elapsed time:       0 days  0 hours  0 minutes 18.7 seconds.
 File lengths (MBytes):  RWF=     32 Int=      0 D2E=      0 Chk=      6 Scr=      1
 Normal termination of Gaussian 16 at Mon Nov 13 20:35:55 2023.
