 Entering Gaussian System, Link 0=g16
 Initial command:
 /home/sekinelabo/g16/l1.exe "/home/sekinelabo/g16temp/Gau-1720.inp" -scrdir="/home/sekinelabo/g16temp/"
 Entering Link 1 = /home/sekinelabo/g16/l1.exe PID=      1722.
  
 Copyright (c) 1988-2017, Gaussian, Inc.  All Rights Reserved.
  
 This is part of the Gaussian(R) 16 program.  It is based on
 the Gaussian(R) 09 system (copyright 2009, Gaussian, Inc.),
 the Gaussian(R) 03 system (copyright 2003, Gaussian, Inc.),
 the Gaussian(R) 98 system (copyright 1998, Gaussian, Inc.),
 the Gaussian(R) 94 system (copyright 1995, Gaussian, Inc.),
 the Gaussian 92(TM) system (copyright 1992, Gaussian, Inc.),
 the Gaussian 90(TM) system (copyright 1990, Gaussian, Inc.),
 the Gaussian 88(TM) system (copyright 1988, Gaussian, Inc.),
 the Gaussian 86(TM) system (copyright 1986, Carnegie Mellon
 University), and the Gaussian 82(TM) system (copyright 1983,
 Carnegie Mellon University). Gaussian is a federally registered
 trademark of Gaussian, Inc.
  
 This software contains proprietary and confidential information,
 including trade secrets, belonging to Gaussian, Inc.
  
 This software is provided under written license and may be
 used, copied, transmitted, or stored only in accord with that
 written license.
  
 The following legend is applicable only to US Government
 contracts under FAR:
  
                    RESTRICTED RIGHTS LEGEND
  
 Use, reproduction and disclosure by the US Government is
 subject to restrictions as set forth in subparagraphs (a)
 and (c) of the Commercial Computer Software - Restricted
 Rights clause in FAR 52.227-19.
  
 Gaussian, Inc.
 340 Quinnipiac St., Bldg. 40, Wallingford CT 06492
  
  
 ---------------------------------------------------------------
 Warning -- This program may not be used in any manner that
 competes with the business of Gaussian, Inc. or will provide
 assistance to any competitor of Gaussian, Inc.  The licensee
 of this program is prohibited from giving any competitor of
 Gaussian, Inc. access to this program.  By using this program,
 the user acknowledges that Gaussian, Inc. is engaged in the
 business of creating and licensing software in the field of
 computational chemistry and represents and warrants to the
 licensee that it is not a competitor of Gaussian, Inc. and that
 it will not use this program in any manner prohibited above.
 ---------------------------------------------------------------
  

 Cite this work as:
 Gaussian 16, Revision B.01,
 M. J. Frisch, G. W. Trucks, H. B. Schlegel, G. E. Scuseria, 
 M. A. Robb, J. R. Cheeseman, G. Scalmani, V. Barone, 
 G. A. Petersson, H. Nakatsuji, X. Li, M. Caricato, A. V. Marenich, 
 J. Bloino, B. G. Janesko, R. Gomperts, B. Mennucci, H. P. Hratchian, 
 J. V. Ortiz, A. F. Izmaylov, J. L. Sonnenberg, D. Williams-Young, 
 F. Ding, F. Lipparini, F. Egidi, J. Goings, B. Peng, A. Petrone, 
 T. Henderson, D. Ranasinghe, V. G. Zakrzewski, J. Gao, N. Rega, 
 G. Zheng, W. Liang, M. Hada, M. Ehara, K. Toyota, R. Fukuda, 
 J. Hasegawa, M. Ishida, T. Nakajima, Y. Honda, O. Kitao, H. Nakai, 
 T. Vreven, K. Throssell, J. A. Montgomery, Jr., J. E. Peralta, 
 F. Ogliaro, M. J. Bearpark, J. J. Heyd, E. N. Brothers, K. N. Kudin, 
 V. N. Staroverov, T. A. Keith, R. Kobayashi, J. Normand, 
 K. Raghavachari, A. P. Rendell, J. C. Burant, S. S. Iyengar, 
 J. Tomasi, M. Cossi, J. M. Millam, M. Klene, C. Adamo, R. Cammi, 
 J. W. Ochterski, R. L. Martin, K. Morokuma, O. Farkas, 
 J. B. Foresman, and D. J. Fox, Gaussian, Inc., Wallingford CT, 2016.
 
 ******************************************
 Gaussian 16:  ES64L-G16RevB.01 20-Dec-2017
                13-Nov-2023 
 ******************************************
 %mem=14GB
 %chk=checkpoint.chk
 %nprocshared=16
 Will use up to   16 processors via shared memory.
 -------------------------
 #P B3LYP/6-311+g(d) force
 -------------------------
 1/10=7,30=1,38=1/1,3;
 2/12=2,17=6,18=5,40=1/2;
 3/5=4,6=6,7=11,11=2,25=1,30=1,71=1,74=-5/1,2,3;
 4//1;
 5/5=2,38=5/2;
 6/7=2,8=2,9=2,10=2,28=1/1;
 7/29=1/1,2,3,16;
 1/10=7,30=1/3;
 99//99;
 Leave Link    1 at Mon Nov 13 20:43:41 2023, MaxMem=  1879048192 cpu:               0.3 elap:               0.0
 (Enter /home/sekinelabo/g16/l101.exe)
 ------------------------------
 Gaussian input prepared by ASE
 ------------------------------
 Symbolic Z-matrix:
 Charge =  0 Multiplicity = 2
 Na                    2.33799   2.09498   0. 
 Na                    3.54718   3.67508   1.78986 
 Na                    4.78874   1.29611   1.65807 
 Na                    2.38667   1.87379   3.41383 
 Na                    2.44768   0.        1.46643 
 Na                    0.        0.99085   1.79577 
 Na                    0.7638    3.54188   1.59671 
 
 ITRead=  0  0  0  0  0  0  0
 MicOpt= -1 -1 -1 -1 -1 -1 -1
 NAtoms=      7 NQM=        7 NQMF=       0 NMMI=      0 NMMIF=      0
                NMic=       0 NMicF=      0.
                    Isotopes and Nuclear Properties:
 (Nuclear quadrupole moments (NQMom) in fm**2, nuclear magnetic moments (NMagM)
  in nuclear magnetons)

  Atom         1           2           3           4           5           6           7
 IAtWgt=          23          23          23          23          23          23          23
 AtmWgt=  22.9897697  22.9897697  22.9897697  22.9897697  22.9897697  22.9897697  22.9897697
 NucSpn=           3           3           3           3           3           3           3
 AtZEff=  -0.0000000  -0.0000000  -0.0000000  -0.0000000  -0.0000000  -0.0000000  -0.0000000
 NQMom=   10.4000000  10.4000000  10.4000000  10.4000000  10.4000000  10.4000000  10.4000000
 NMagM=    2.2175200   2.2175200   2.2175200   2.2175200   2.2175200   2.2175200   2.2175200
 AtZNuc=  11.0000000  11.0000000  11.0000000  11.0000000  11.0000000  11.0000000  11.0000000
 Leave Link  101 at Mon Nov 13 20:43:41 2023, MaxMem=  1879048192 cpu:               2.7 elap:               0.2
 (Enter /home/sekinelabo/g16/l103.exe)

 GradGradGradGradGradGradGradGradGradGradGradGradGradGradGradGradGradGrad
 Berny optimization.
 Initialization pass.
 Trust Radius=3.00D-01 FncErr=1.00D-07 GrdErr=1.00D-07 EigMax=2.50D+02 EigMin=1.00D-04
 Number of steps in this run=      2 maximum allowed number of steps=      2.
 GradGradGradGradGradGradGradGradGradGradGradGradGradGradGradGradGradGrad

 Leave Link  103 at Mon Nov 13 20:43:41 2023, MaxMem=  1879048192 cpu:               0.2 elap:               0.0
 (Enter /home/sekinelabo/g16/l202.exe)
                          Input orientation:                          
 ---------------------------------------------------------------------
 Center     Atomic      Atomic             Coordinates (Angstroms)
 Number     Number       Type             X           Y           Z
 ---------------------------------------------------------------------
      1         11           0        2.337989    2.094976    0.000000
      2         11           0        3.547182    3.675077    1.789865
      3         11           0        4.788736    1.296107    1.658069
      4         11           0        2.386667    1.873787    3.413833
      5         11           0        2.447678    0.000000    1.466434
      6         11           0        0.000000    0.990852    1.795767
      7         11           0        0.763795    3.541877    1.596711
 ---------------------------------------------------------------------
                    Distance matrix (angstroms):
                    1          2          3          4          5
     1  Na   0.000000
     2  Na   2.676282   0.000000
     3  Na   3.064889   2.686694   0.000000
     4  Na   3.421337   2.688627   3.030899   0.000000
     5  Na   2.559567   3.849638   2.682754   2.703176   0.000000
     6  Na   3.148024   4.448326   4.800430   3.015608   2.661086
     7  Na   2.668538   2.793259   4.609489   2.952655   3.923942
                    6          7
     6  Na   0.000000
     7  Na   2.670343   0.000000
 Stoichiometry    Na7(2)
 Framework group  C1[X(Na7)]
 Deg. of freedom    15
 Full point group                 C1      NOp   1
 Largest Abelian subgroup         C1      NOp   1
 Largest concise Abelian subgroup C1      NOp   1
                         Standard orientation:                         
 ---------------------------------------------------------------------
 Center     Atomic      Atomic             Coordinates (Angstroms)
 Number     Number       Type             X           Y           Z
 ---------------------------------------------------------------------
      1         11           0        0.013410    0.170308   -1.674383
      2         11           0        1.222604    1.750409    0.115482
      3         11           0        2.464157   -0.628561   -0.016313
      4         11           0        0.062089   -0.050881    1.739450
      5         11           0        0.123100   -1.924668   -0.207949
      6         11           0       -2.324578   -0.933816    0.121384
      7         11           0       -1.560783    1.617209   -0.077672
 ---------------------------------------------------------------------
 Rotational constants (GHZ):           1.3251264           1.0304789           0.8419918
 Leave Link  202 at Mon Nov 13 20:43:41 2023, MaxMem=  1879048192 cpu:               0.0 elap:               0.0
 (Enter /home/sekinelabo/g16/l301.exe)
 Standard basis: 6-311+G(d) (5D, 7F)
 Ernie: Thresh=  0.10000D-02 Tol=  0.10000D-05 Strict=F.
 There are   217 symmetry adapted cartesian basis functions of A   symmetry.
 There are   210 symmetry adapted basis functions of A   symmetry.
   210 basis functions,   350 primitive gaussians,   217 cartesian basis functions
    39 alpha electrons       38 beta electrons
       nuclear repulsion energy       437.6670978529 Hartrees.
 IExCor=  402 DFT=T Ex+Corr=B3LYP ExCW=0 ScaHFX=  0.200000
 ScaDFX=  0.800000  0.720000  1.000000  0.810000 ScalE2=  1.000000  1.000000
 IRadAn=      5 IRanWt=     -1 IRanGd=            0 ICorTp=0 IEmpDi=  4
 NAtoms=    7 NActive=    7 NUniq=    7 SFac= 1.00D+00 NAtFMM=   60 NAOKFM=F Big=F
 Integral buffers will be    131072 words long.
 Raffenetti 2 integral format.
 Two-electron integral symmetry is turned on.
 Leave Link  301 at Mon Nov 13 20:43:41 2023, MaxMem=  1879048192 cpu:               0.5 elap:               0.0
 (Enter /home/sekinelabo/g16/l302.exe)
 NPDir=0 NMtPBC=     1 NCelOv=     1 NCel=       1 NClECP=     1 NCelD=      1
         NCelK=      1 NCelE2=     1 NClLst=     1 CellRange=     0.0.
 One-electron integrals computed using PRISM.
 One-electron integral symmetry used in STVInt
 NBasis=   210 RedAO= T EigKep=  2.66D-06  NBF=   210
 NBsUse=   209 1.00D-06 EigRej=  4.15D-07 NBFU=   209
 Precomputing XC quadrature grid using
 IXCGrd= 4 IRadAn=           5 IRanWt=          -1 IRanGd=           0 AccXCQ= 0.00D+00.
 Generated NRdTot=       0 NPtTot=           0 NUsed=           0 NTot=          32
 NSgBfM=   211   211   211   211   211 MxSgAt=     7 MxSgA2=     7.
 Leave Link  302 at Mon Nov 13 20:43:41 2023, MaxMem=  1879048192 cpu:               2.2 elap:               0.1
 (Enter /home/sekinelabo/g16/l303.exe)
 DipDrv:  MaxL=1.
 Leave Link  303 at Mon Nov 13 20:43:41 2023, MaxMem=  1879048192 cpu:               0.6 elap:               0.0
 (Enter /home/sekinelabo/g16/l401.exe)
 ExpMin= 7.60D-03 ExpMax= 3.62D+04 ExpMxC= 1.21D+03 IAcc=3 IRadAn=         5 AccDes= 0.00D+00
 Harris functional with IExCor=  402 and IRadAn=       5 diagonalized for initial guess.
 HarFok:  IExCor=  402 AccDes= 0.00D+00 IRadAn=         5 IDoV= 1 UseB2=F ITyADJ=14
 ICtDFT=  3500011 ScaDFX=  1.000000  1.000000  1.000000  1.000000
 FoFCou: FMM=F IPFlag=           0 FMFlag=      100000 FMFlg1=           0
         NFxFlg=           0 DoJE=T BraDBF=F KetDBF=T FulRan=T
         wScrn=  0.000000 ICntrl=       500 IOpCl=  0 I1Cent=   200000004 NGrid=           0
         NMat0=    1 NMatS0=      1 NMatT0=    0 NMatD0=    1 NMtDS0=    0 NMtDT0=    0
 Petite list used in FoFCou.
 Harris En= -1135.81492506808    
 JPrj=0 DoOrth=F DoCkMO=F.
 Initial guess <Sx>= 0.0000 <Sy>= 0.0000 <Sz>= 0.5000 <S**2>= 0.7500 S= 0.5000
 Leave Link  401 at Mon Nov 13 20:43:41 2023, MaxMem=  1879048192 cpu:               5.5 elap:               0.4
 (Enter /home/sekinelabo/g16/l502.exe)
 Keep R1 and R2 ints in memory in canonical form, NReq=507620388.
 FoFCou: FMM=F IPFlag=           0 FMFlag=           0 FMFlg1=           0
         NFxFlg=           0 DoJE=F BraDBF=F KetDBF=F FulRan=T
         wScrn=  0.000000 ICntrl=       600 IOpCl=  0 I1Cent=           0 NGrid=           0
         NMat0=    1 NMatS0=  22155 NMatT0=    0 NMatD0=    1 NMtDS0=    0 NMtDT0=    0
 Symmetry not used in FoFCou.
 Two-electron integral symmetry not used.
 UHF open shell SCF:
 Using DIIS extrapolation, IDIIS=  1040.
 NGot=  1879048192 LenX=  1388082348 LenY=  1388034818
 Requested convergence on RMS density matrix=1.00D-08 within 128 cycles.
 Requested convergence on MAX density matrix=1.00D-06.
 Requested convergence on             energy=1.00D-06.
 No special actions if energy rises.

 Cycle   1  Pass 1  IDiag  1:
 E= -1135.99170791609    
 DIIS: error= 1.74D-02 at cycle   1 NSaved=   1.
 NSaved= 1 IEnMin= 1 EnMin= -1135.99170791609     IErMin= 1 ErrMin= 1.74D-02
 ErrMax= 1.74D-02  0.00D+00 EMaxC= 1.00D-01 BMatC= 2.22D-01 BMatP= 2.22D-01
 IDIUse=3 WtCom= 8.26D-01 WtEn= 1.74D-01
 Coeff-Com:  0.100D+01
 Coeff-En:   0.100D+01
 Coeff:      0.100D+01
 Gap=     0.068 Goal=   None    Shift=    0.000
 Gap=     0.041 Goal=   None    Shift=    0.000
 GapD=    0.041 DampG=0.250 DampE=0.500 DampFc=0.2500 IDamp=-1.
 Damping current iteration by 2.50D-01
 RMSDP=1.09D-01 MaxDP=7.20D+00              OVMax= 2.64D-01

 Cycle   2  Pass 1  IDiag  1:
 E= -1136.00897179054     Delta-E=       -0.017263874456 Rises=F Damp=T
 DIIS: error= 9.02D-03 at cycle   2 NSaved=   2.
 NSaved= 2 IEnMin= 2 EnMin= -1136.00897179054     IErMin= 2 ErrMin= 9.02D-03
 ErrMax= 9.02D-03  0.00D+00 EMaxC= 1.00D-01 BMatC= 8.31D-02 BMatP= 2.22D-01
 IDIUse=3 WtCom= 9.10D-01 WtEn= 9.02D-02
 Coeff-Com: -0.127D+01 0.227D+01
 Coeff-En:   0.000D+00 0.100D+01
 Coeff:     -0.116D+01 0.216D+01
 Gap=     0.077 Goal=   None    Shift=    0.000
 Gap=     0.042 Goal=   None    Shift=    0.000
 RMSDP=4.55D-02 MaxDP=3.13D+00 DE=-1.73D-02 OVMax= 1.75D-01

 Cycle   3  Pass 1  IDiag  1:
 E= -1136.03794849008     Delta-E=       -0.028976699537 Rises=F Damp=F
 DIIS: error= 4.03D-03 at cycle   3 NSaved=   3.
 NSaved= 3 IEnMin= 3 EnMin= -1136.03794849008     IErMin= 3 ErrMin= 4.03D-03
 ErrMax= 4.03D-03  0.00D+00 EMaxC= 1.00D-01 BMatC= 4.38D-03 BMatP= 8.31D-02
 IDIUse=3 WtCom= 9.60D-01 WtEn= 4.03D-02
 Coeff-Com: -0.250D+00 0.466D+00 0.784D+00
 Coeff-En:   0.000D+00 0.000D+00 0.100D+01
 Coeff:     -0.240D+00 0.448D+00 0.792D+00
 Gap=     0.072 Goal=   None    Shift=    0.000
 Gap=     0.042 Goal=   None    Shift=    0.000
 RMSDP=1.90D-02 MaxDP=1.25D+00 DE=-2.90D-02 OVMax= 5.21D-02

 Cycle   4  Pass 1  IDiag  1:
 E= -1136.03854709577     Delta-E=       -0.000598605695 Rises=F Damp=F
 DIIS: error= 3.47D-03 at cycle   4 NSaved=   4.
 NSaved= 4 IEnMin= 4 EnMin= -1136.03854709577     IErMin= 4 ErrMin= 3.47D-03
 ErrMax= 3.47D-03  0.00D+00 EMaxC= 1.00D-01 BMatC= 2.88D-03 BMatP= 4.38D-03
 IDIUse=3 WtCom= 9.65D-01 WtEn= 3.47D-02
 Coeff-Com:  0.122D-01-0.151D-01 0.449D+00 0.554D+00
 Coeff-En:   0.000D+00 0.000D+00 0.425D+00 0.575D+00
 Coeff:      0.118D-01-0.146D-01 0.448D+00 0.554D+00
 Gap=     0.073 Goal=   None    Shift=    0.000
 Gap=     0.042 Goal=   None    Shift=    0.000
 RMSDP=6.39D-03 MaxDP=4.71D-01 DE=-5.99D-04 OVMax= 2.56D-02

 Cycle   5  Pass 1  IDiag  1:
 E= -1136.03999789448     Delta-E=       -0.001450798707 Rises=F Damp=F
 DIIS: error= 3.56D-04 at cycle   5 NSaved=   5.
 NSaved= 5 IEnMin= 5 EnMin= -1136.03999789448     IErMin= 5 ErrMin= 3.56D-04
 ErrMax= 3.56D-04  0.00D+00 EMaxC= 1.00D-01 BMatC= 3.30D-05 BMatP= 2.88D-03
 IDIUse=3 WtCom= 9.96D-01 WtEn= 3.56D-03
 Coeff-Com:  0.636D-02-0.829D-02 0.257D+00 0.316D+00 0.429D+00
 Coeff-En:   0.000D+00 0.000D+00 0.000D+00 0.000D+00 0.100D+01
 Coeff:      0.634D-02-0.826D-02 0.256D+00 0.315D+00 0.431D+00
 Gap=     0.073 Goal=   None    Shift=    0.000
 Gap=     0.042 Goal=   None    Shift=    0.000
 RMSDP=4.14D-04 MaxDP=2.86D-02 DE=-1.45D-03 OVMax= 6.34D-03

 Cycle   6  Pass 1  IDiag  1:
 E= -1136.04002692715     Delta-E=       -0.000029032666 Rises=F Damp=F
 DIIS: error= 1.16D-04 at cycle   6 NSaved=   6.
 NSaved= 6 IEnMin= 6 EnMin= -1136.04002692715     IErMin= 6 ErrMin= 1.16D-04
 ErrMax= 1.16D-04  0.00D+00 EMaxC= 1.00D-01 BMatC= 3.72D-06 BMatP= 3.30D-05
 IDIUse=3 WtCom= 9.99D-01 WtEn= 1.16D-03
 Coeff-Com: -0.240D-02 0.291D-02-0.292D-01-0.429D-01 0.229D+00 0.843D+00
 Coeff-En:   0.000D+00 0.000D+00 0.000D+00 0.000D+00 0.108D+00 0.892D+00
 Coeff:     -0.240D-02 0.291D-02-0.292D-01-0.429D-01 0.229D+00 0.843D+00
 Gap=     0.073 Goal=   None    Shift=    0.000
 Gap=     0.042 Goal=   None    Shift=    0.000
 RMSDP=3.49D-04 MaxDP=2.65D-02 DE=-2.90D-05 OVMax= 1.69D-03

 Cycle   7  Pass 1  IDiag  1:
 E= -1136.04003098685     Delta-E=       -0.000004059704 Rises=F Damp=F
 DIIS: error= 1.69D-05 at cycle   7 NSaved=   7.
 NSaved= 7 IEnMin= 7 EnMin= -1136.04003098685     IErMin= 7 ErrMin= 1.69D-05
 ErrMax= 1.69D-05  0.00D+00 EMaxC= 1.00D-01 BMatC= 9.07D-08 BMatP= 3.72D-06
 IDIUse=1 WtCom= 1.00D+00 WtEn= 0.00D+00
 Coeff-Com: -0.410D-03 0.463D-03-0.134D-01-0.168D-01 0.182D-01 0.115D+00
 Coeff-Com:  0.897D+00
 Coeff:     -0.410D-03 0.463D-03-0.134D-01-0.168D-01 0.182D-01 0.115D+00
 Coeff:      0.897D+00
 Gap=     0.073 Goal=   None    Shift=    0.000
 Gap=     0.042 Goal=   None    Shift=    0.000
 RMSDP=6.81D-05 MaxDP=4.62D-03 DE=-4.06D-06 OVMax= 6.46D-04

 Cycle   8  Pass 1  IDiag  1:
 E= -1136.04003103529     Delta-E=       -0.000000048435 Rises=F Damp=F
 DIIS: error= 1.74D-05 at cycle   8 NSaved=   8.
 NSaved= 8 IEnMin= 8 EnMin= -1136.04003103529     IErMin= 7 ErrMin= 1.69D-05
 ErrMax= 1.74D-05  0.00D+00 EMaxC= 1.00D-01 BMatC= 1.34D-07 BMatP= 9.07D-08
 IDIUse=1 WtCom= 1.00D+00 WtEn= 0.00D+00
 Coeff-Com:  0.391D-03-0.509D-03-0.253D-02-0.108D-02-0.505D-01-0.147D+00
 Coeff-Com:  0.678D+00 0.524D+00
 Coeff:      0.391D-03-0.509D-03-0.253D-02-0.108D-02-0.505D-01-0.147D+00
 Coeff:      0.678D+00 0.524D+00
 Gap=     0.073 Goal=   None    Shift=    0.000
 Gap=     0.042 Goal=   None    Shift=    0.000
 RMSDP=3.52D-05 MaxDP=2.67D-03 DE=-4.84D-08 OVMax= 4.74D-04

 Cycle   9  Pass 1  IDiag  1:
 E= -1136.04003117900     Delta-E=       -0.000000143719 Rises=F Damp=F
 DIIS: error= 3.33D-06 at cycle   9 NSaved=   9.
 NSaved= 9 IEnMin= 9 EnMin= -1136.04003117900     IErMin= 9 ErrMin= 3.33D-06
 ErrMax= 3.33D-06  0.00D+00 EMaxC= 1.00D-01 BMatC= 5.07D-09 BMatP= 9.07D-08
 IDIUse=1 WtCom= 1.00D+00 WtEn= 0.00D+00
 Coeff-Com:  0.159D-03-0.200D-03-0.378D-03 0.385D-03-0.188D-01-0.549D-01
 Coeff-Com:  0.162D+00 0.176D+00 0.736D+00
 Coeff:      0.159D-03-0.200D-03-0.378D-03 0.385D-03-0.188D-01-0.549D-01
 Coeff:      0.162D+00 0.176D+00 0.736D+00
 Gap=     0.073 Goal=   None    Shift=    0.000
 Gap=     0.042 Goal=   None    Shift=    0.000
 RMSDP=9.15D-06 MaxDP=7.77D-04 DE=-1.44D-07 OVMax= 2.35D-04

 Cycle  10  Pass 1  IDiag  1:
 E= -1136.04003119155     Delta-E=       -0.000000012548 Rises=F Damp=F
 DIIS: error= 2.43D-06 at cycle  10 NSaved=  10.
 NSaved=10 IEnMin=10 EnMin= -1136.04003119155     IErMin=10 ErrMin= 2.43D-06
 ErrMax= 2.43D-06  0.00D+00 EMaxC= 1.00D-01 BMatC= 1.54D-09 BMatP= 5.07D-09
 IDIUse=1 WtCom= 1.00D+00 WtEn= 0.00D+00
 Coeff-Com: -0.373D-04 0.543D-04 0.900D-03 0.879D-03 0.582D-02 0.147D-01
 Coeff-Com: -0.128D+00-0.892D-01 0.232D+00 0.963D+00
 Coeff:     -0.373D-04 0.543D-04 0.900D-03 0.879D-03 0.582D-02 0.147D-01
 Coeff:     -0.128D+00-0.892D-01 0.232D+00 0.963D+00
 Gap=     0.073 Goal=   None    Shift=    0.000
 Gap=     0.042 Goal=   None    Shift=    0.000
 RMSDP=1.07D-05 MaxDP=6.91D-04 DE=-1.25D-08 OVMax= 2.88D-04

 Cycle  11  Pass 1  IDiag  1:
 E= -1136.04003120021     Delta-E=       -0.000000008662 Rises=F Damp=F
 DIIS: error= 1.64D-06 at cycle  11 NSaved=  11.
 NSaved=11 IEnMin=11 EnMin= -1136.04003120021     IErMin=11 ErrMin= 1.64D-06
 ErrMax= 1.64D-06  0.00D+00 EMaxC= 1.00D-01 BMatC= 5.32D-10 BMatP= 1.54D-09
 IDIUse=1 WtCom= 1.00D+00 WtEn= 0.00D+00
 Coeff-Com: -0.479D-04 0.629D-04 0.408D-03 0.235D-03 0.550D-02 0.145D-01
 Coeff-Com: -0.718D-01-0.599D-01-0.634D-01 0.215D+00 0.959D+00
 Coeff:     -0.479D-04 0.629D-04 0.408D-03 0.235D-03 0.550D-02 0.145D-01
 Coeff:     -0.718D-01-0.599D-01-0.634D-01 0.215D+00 0.959D+00
 Gap=     0.073 Goal=   None    Shift=    0.000
 Gap=     0.042 Goal=   None    Shift=    0.000
 RMSDP=5.68D-06 MaxDP=3.61D-04 DE=-8.66D-09 OVMax= 2.01D-04

 Cycle  12  Pass 1  IDiag  1:
 E= -1136.04003120337     Delta-E=       -0.000000003159 Rises=F Damp=F
 DIIS: error= 1.20D-06 at cycle  12 NSaved=  12.
 NSaved=12 IEnMin=12 EnMin= -1136.04003120337     IErMin=12 ErrMin= 1.20D-06
 ErrMax= 1.20D-06  0.00D+00 EMaxC= 1.00D-01 BMatC= 5.56D-10 BMatP= 5.32D-10
 IDIUse=1 WtCom= 1.00D+00 WtEn= 0.00D+00
 Coeff-Com: -0.253D-04 0.296D-04-0.114D-03-0.275D-03 0.210D-02 0.627D-02
 Coeff-Com:  0.221D-02-0.603D-02-0.176D+00-0.376D+00 0.846D+00 0.702D+00
 Coeff:     -0.253D-04 0.296D-04-0.114D-03-0.275D-03 0.210D-02 0.627D-02
 Coeff:      0.221D-02-0.603D-02-0.176D+00-0.376D+00 0.846D+00 0.702D+00
 Gap=     0.073 Goal=   None    Shift=    0.000
 Gap=     0.042 Goal=   None    Shift=    0.000
 RMSDP=5.11D-06 MaxDP=3.19D-04 DE=-3.16D-09 OVMax= 1.87D-04

 Cycle  13  Pass 1  IDiag  1:
 E= -1136.04003120535     Delta-E=       -0.000000001981 Rises=F Damp=F
 DIIS: error= 5.92D-07 at cycle  13 NSaved=  13.
 NSaved=13 IEnMin=13 EnMin= -1136.04003120535     IErMin=13 ErrMin= 5.92D-07
 ErrMax= 5.92D-07  0.00D+00 EMaxC= 1.00D-01 BMatC= 3.84D-11 BMatP= 5.32D-10
 IDIUse=1 WtCom= 1.00D+00 WtEn= 0.00D+00
 Coeff-Com:  0.254D-04-0.331D-04-0.515D-04 0.341D-04-0.209D-02-0.546D-02
 Coeff-Com:  0.214D-01 0.159D-01 0.194D-01 0.420D-01-0.353D+00-0.187D+00
 Coeff-Com:  0.145D+01
 Coeff:      0.254D-04-0.331D-04-0.515D-04 0.341D-04-0.209D-02-0.546D-02
 Coeff:      0.214D-01 0.159D-01 0.194D-01 0.420D-01-0.353D+00-0.187D+00
 Coeff:      0.145D+01
 Gap=     0.073 Goal=   None    Shift=    0.000
 Gap=     0.042 Goal=   None    Shift=    0.000
 RMSDP=2.55D-06 MaxDP=1.88D-04 DE=-1.98D-09 OVMax= 1.11D-04

 Cycle  14  Pass 1  IDiag  1:
 E= -1136.04003120580     Delta-E=       -0.000000000448 Rises=F Damp=F
 DIIS: error= 2.10D-07 at cycle  14 NSaved=  14.
 NSaved=14 IEnMin=14 EnMin= -1136.04003120580     IErMin=14 ErrMin= 2.10D-07
 ErrMax= 2.10D-07  0.00D+00 EMaxC= 1.00D-01 BMatC= 7.69D-12 BMatP= 3.84D-11
 IDIUse=1 WtCom= 1.00D+00 WtEn= 0.00D+00
 Coeff-Com: -0.406D-05 0.620D-05 0.160D-04 0.361D-04 0.116D-03-0.190D-03
 Coeff-Com: -0.481D-02-0.239D-02 0.341D-01 0.703D-01-0.635D-01-0.968D-01
 Coeff-Com: -0.510D+00 0.157D+01
 Coeff:     -0.406D-05 0.620D-05 0.160D-04 0.361D-04 0.116D-03-0.190D-03
 Coeff:     -0.481D-02-0.239D-02 0.341D-01 0.703D-01-0.635D-01-0.968D-01
 Coeff:     -0.510D+00 0.157D+01
 Gap=     0.073 Goal=   None    Shift=    0.000
 Gap=     0.042 Goal=   None    Shift=    0.000
 RMSDP=1.23D-06 MaxDP=7.68D-05 DE=-4.48D-10 OVMax= 5.03D-05

 Cycle  15  Pass 1  IDiag  1:
 E= -1136.04003120591     Delta-E=       -0.000000000103 Rises=F Damp=F
 DIIS: error= 8.98D-08 at cycle  15 NSaved=  15.
 NSaved=15 IEnMin=15 EnMin= -1136.04003120591     IErMin=15 ErrMin= 8.98D-08
 ErrMax= 8.98D-08  0.00D+00 EMaxC= 1.00D-01 BMatC= 1.41D-12 BMatP= 7.69D-12
 IDIUse=1 WtCom= 1.00D+00 WtEn= 0.00D+00
 Coeff-Com: -0.438D-05 0.575D-05 0.120D-04-0.322D-05 0.284D-03 0.797D-03
 Coeff-Com: -0.325D-02-0.215D-02-0.197D-02-0.136D-01 0.597D-01 0.266D-01
 Coeff-Com: -0.290D+00 0.113D+00 0.111D+01
 Coeff:     -0.438D-05 0.575D-05 0.120D-04-0.322D-05 0.284D-03 0.797D-03
 Coeff:     -0.325D-02-0.215D-02-0.197D-02-0.136D-01 0.597D-01 0.266D-01
 Coeff:     -0.290D+00 0.113D+00 0.111D+01
 Gap=     0.073 Goal=   None    Shift=    0.000
 Gap=     0.042 Goal=   None    Shift=    0.000
 RMSDP=5.54D-07 MaxDP=3.64D-05 DE=-1.03D-10 OVMax= 2.06D-05

 Cycle  16  Pass 1  IDiag  1:
 E= -1136.04003120591     Delta-E=        0.000000000000 Rises=F Damp=F
 DIIS: error= 2.33D-08 at cycle  16 NSaved=  16.
 NSaved=16 IEnMin=15 EnMin= -1136.04003120591     IErMin=16 ErrMin= 2.33D-08
 ErrMax= 2.33D-08  0.00D+00 EMaxC= 1.00D-01 BMatC= 2.25D-13 BMatP= 1.41D-12
 IDIUse=1 WtCom= 1.00D+00 WtEn= 0.00D+00
 Coeff-Com:  0.379D-06-0.698D-06 0.106D-05-0.626D-05 0.373D-04 0.155D-03
 Coeff-Com:  0.478D-03 0.151D-04-0.802D-02-0.148D-01 0.229D-01 0.275D-01
 Coeff-Com:  0.578D-01-0.295D+00 0.127D+00 0.108D+01
 Coeff:      0.379D-06-0.698D-06 0.106D-05-0.626D-05 0.373D-04 0.155D-03
 Coeff:      0.478D-03 0.151D-04-0.802D-02-0.148D-01 0.229D-01 0.275D-01
 Coeff:      0.578D-01-0.295D+00 0.127D+00 0.108D+01
 Gap=     0.073 Goal=   None    Shift=    0.000
 Gap=     0.042 Goal=   None    Shift=    0.000
 RMSDP=1.92D-07 MaxDP=1.53D-05 DE= 0.00D+00 OVMax= 4.79D-06

 Cycle  17  Pass 1  IDiag  1:
 E= -1136.04003120590     Delta-E=        0.000000000008 Rises=F Damp=F
 DIIS: error= 8.73D-09 at cycle  17 NSaved=  17.
 NSaved=17 IEnMin=15 EnMin= -1136.04003120591     IErMin=17 ErrMin= 8.73D-09
 ErrMax= 8.73D-09  0.00D+00 EMaxC= 1.00D-01 BMatC= 4.13D-14 BMatP= 2.25D-13
 IDIUse=1 WtCom= 1.00D+00 WtEn= 0.00D+00
 Coeff-Com:  0.824D-06-0.112D-05-0.245D-05-0.878D-06-0.451D-04-0.932D-04
 Coeff-Com:  0.637D-03 0.362D-03-0.141D-02 0.101D-03-0.486D-02-0.387D-03
 Coeff-Com:  0.649D-01-0.797D-01-0.158D+00 0.213D+00 0.965D+00
 Coeff:      0.824D-06-0.112D-05-0.245D-05-0.878D-06-0.451D-04-0.932D-04
 Coeff:      0.637D-03 0.362D-03-0.141D-02 0.101D-03-0.486D-02-0.387D-03
 Coeff:      0.649D-01-0.797D-01-0.158D+00 0.213D+00 0.965D+00
 Gap=     0.073 Goal=   None    Shift=    0.000
 Gap=     0.042 Goal=   None    Shift=    0.000
 RMSDP=6.20D-08 MaxDP=4.27D-06 DE= 7.73D-12 OVMax= 9.07D-07

 Cycle  18  Pass 1  IDiag  1:
 E= -1136.04003120591     Delta-E=       -0.000000000011 Rises=F Damp=F
 DIIS: error= 3.29D-09 at cycle  18 NSaved=  18.
 NSaved=18 IEnMin=18 EnMin= -1136.04003120591     IErMin=18 ErrMin= 3.29D-09
 ErrMax= 3.29D-09  0.00D+00 EMaxC= 1.00D-01 BMatC= 5.43D-15 BMatP= 4.13D-14
 IDIUse=1 WtCom= 1.00D+00 WtEn= 0.00D+00
 Coeff-Com: -0.118D-06 0.190D-06-0.831D-06 0.701D-06-0.555D-05-0.306D-04
 Coeff-Com: -0.673D-04 0.472D-05 0.139D-02 0.205D-02-0.428D-02-0.441D-02
 Coeff-Com: -0.998D-02 0.448D-01-0.838D-02-0.196D+00-0.162D-02 0.118D+01
 Coeff:     -0.118D-06 0.190D-06-0.831D-06 0.701D-06-0.555D-05-0.306D-04
 Coeff:     -0.673D-04 0.472D-05 0.139D-02 0.205D-02-0.428D-02-0.441D-02
 Coeff:     -0.998D-02 0.448D-01-0.838D-02-0.196D+00-0.162D-02 0.118D+01
 Gap=     0.073 Goal=   None    Shift=    0.000
 Gap=     0.042 Goal=   None    Shift=    0.000
 RMSDP=3.37D-08 MaxDP=2.80D-06 DE=-1.14D-11 OVMax= 7.12D-07

 Cycle  19  Pass 1  IDiag  1:
 E= -1136.04003120592     Delta-E=       -0.000000000006 Rises=F Damp=F
 DIIS: error= 1.45D-09 at cycle  19 NSaved=  19.
 NSaved=19 IEnMin=19 EnMin= -1136.04003120592     IErMin=19 ErrMin= 1.45D-09
 ErrMax= 1.45D-09  0.00D+00 EMaxC= 1.00D-01 BMatC= 6.16D-16 BMatP= 5.43D-15
 IDIUse=1 WtCom= 1.00D+00 WtEn= 0.00D+00
 Large coefficients: NSaved= 19 BigCof=    0.00 CofMax=   10.00 Det=-9.23D-16
 Inversion failed.  Reducing to 18 matrices.
 Large coefficients: NSaved= 18 BigCof=    0.00 CofMax=   10.00 Det=-9.46D-16
 Inversion failed.  Reducing to 17 matrices.
 Large coefficients: NSaved= 17 BigCof=    0.00 CofMax=   10.00 Det=-9.70D-16
 Inversion failed.  Reducing to 16 matrices.
 Large coefficients: NSaved= 16 BigCof=    0.00 CofMax=   10.00 Det=-1.00D-15
 Inversion failed.  Reducing to 15 matrices.
 Coeff-Com: -0.244D-05-0.543D-05-0.114D-05 0.160D-04 0.206D-03 0.645D-04
 Coeff-Com: -0.218D-03-0.241D-03-0.297D-02 0.530D-02 0.111D-01-0.214D-01
 Coeff-Com: -0.903D-01 0.181D-01 0.108D+01
 Coeff:     -0.244D-05-0.543D-05-0.114D-05 0.160D-04 0.206D-03 0.645D-04
 Coeff:     -0.218D-03-0.241D-03-0.297D-02 0.530D-02 0.111D-01-0.214D-01
 Coeff:     -0.903D-01 0.181D-01 0.108D+01
 Gap=     0.073 Goal=   None    Shift=    0.000
 Gap=     0.042 Goal=   None    Shift=    0.000
 RMSDP=8.39D-09 MaxDP=1.01D-06 DE=-6.37D-12 OVMax= 1.46D-07

 Cycle  20  Pass 1  IDiag  1:
 E= -1136.04003120591     Delta-E=        0.000000000005 Rises=F Damp=F
 DIIS: error= 5.04D-10 at cycle  20 NSaved=  16.
 NSaved=16 IEnMin=15 EnMin= -1136.04003120592     IErMin=16 ErrMin= 5.04D-10
 ErrMax= 5.04D-10  0.00D+00 EMaxC= 1.00D-01 BMatC= 8.04D-17 BMatP= 6.16D-16
 IDIUse=1 WtCom= 1.00D+00 WtEn= 0.00D+00
 Large coefficients: NSaved= 16 BigCof=    0.00 CofMax=   10.00 Det=-2.00D-16
 Inversion failed.  Reducing to 15 matrices.
 Coeff-Com: -0.429D-06-0.702D-06-0.154D-05 0.107D-04 0.266D-04-0.145D-04
 Coeff-Com: -0.663D-04-0.546D-03 0.556D-03 0.321D-02 0.954D-03-0.722D-02
 Coeff-Com: -0.376D-01-0.106D+00 0.115D+01
 Coeff:     -0.429D-06-0.702D-06-0.154D-05 0.107D-04 0.266D-04-0.145D-04
 Coeff:     -0.663D-04-0.546D-03 0.556D-03 0.321D-02 0.954D-03-0.722D-02
 Coeff:     -0.376D-01-0.106D+00 0.115D+01
 Gap=     0.073 Goal=   None    Shift=    0.000
 Gap=     0.042 Goal=   None    Shift=    0.000
 RMSDP=8.66D-09 MaxDP=6.39D-07 DE= 5.46D-12 OVMax= 5.50D-08

 SCF Done:  E(UB3LYP) =  -1136.04003121     A.U. after   20 cycles
            NFock= 20  Conv=0.87D-08     -V/T= 2.0020
 <Sx>= 0.0000 <Sy>= 0.0000 <Sz>= 0.5000 <S**2>= 0.7573 S= 0.5036
 <L.S>= 0.000000000000E+00
 KE= 1.133763990759D+03 PE=-3.604561652106D+03 EE= 8.970905322881D+02
 Annihilation of the first spin contaminant:
 S**2 before annihilation     0.7573,   after     0.7500
 Leave Link  502 at Mon Nov 13 20:43:59 2023, MaxMem=  1879048192 cpu:             206.7 elap:              17.7
 (Enter /home/sekinelabo/g16/l601.exe)
 Copying SCF densities to generalized density rwf, IOpCl= 1 IROHF=0.

 **********************************************************************

            Population analysis using the SCF Density.

 **********************************************************************

 Orbital symmetries:
 Alpha Orbitals:
       Occupied  (A) (A) (A) (A) (A) (A) (A) (A) (A) (A) (A) (A)
                 (A) (A) (A) (A) (A) (A) (A) (A) (A) (A) (A) (A)
                 (A) (A) (A) (A) (A) (A) (A) (A) (A) (A) (A) (A)
                 (A) (A) (A)
       Virtual   (A) (A) (A) (A) (A) (A) (A) (A) (A) (A) (A) (A)
                 (A) (A) (A) (A) (A) (A) (A) (A) (A) (A) (A) (A)
                 (A) (A) (A) (A) (A) (A) (A) (A) (A) (A) (A) (A)
                 (A) (A) (A) (A) (A) (A) (A) (A) (A) (A) (A) (A)
                 (A) (A) (A) (A) (A) (A) (A) (A) (A) (A) (A) (A)
                 (A) (A) (A) (A) (A) (A) (A) (A) (A) (A) (A) (A)
                 (A) (A) (A) (A) (A) (A) (A) (A) (A) (A) (A) (A)
                 (A) (A) (A) (A) (A) (A) (A) (A) (A) (A) (A) (A)
                 (A) (A) (A) (A) (A) (A) (A) (A) (A) (A) (A) (A)
                 (A) (A) (A) (A) (A) (A) (A) (A) (A) (A) (A) (A)
                 (A) (A) (A) (A) (A) (A) (A) (A) (A) (A) (A) (A)
                 (A) (A) (A) (A) (A) (A) (A) (A) (A) (A) (A) (A)
                 (A) (A) (A) (A) (A) (A) (A) (A) (A) (A) (A) (A)
                 (A) (A) (A) (A) (A) (A) (A) (A) (A) (A) (A) (A)
                 (A) (A)
 Beta  Orbitals:
       Occupied  (A) (A) (A) (A) (A) (A) (A) (A) (A) (A) (A) (A)
                 (A) (A) (A) (A) (A) (A) (A) (A) (A) (A) (A) (A)
                 (A) (A) (A) (A) (A) (A) (A) (A) (A) (A) (A) (A)
                 (A) (A)
       Virtual   (A) (A) (A) (A) (A) (A) (A) (A) (A) (A) (A) (A)
                 (A) (A) (A) (A) (A) (A) (A) (A) (A) (A) (A) (A)
                 (A) (A) (A) (A) (A) (A) (A) (A) (A) (A) (A) (A)
                 (A) (A) (A) (A) (A) (A) (A) (A) (A) (A) (A) (A)
                 (A) (A) (A) (A) (A) (A) (A) (A) (A) (A) (A) (A)
                 (A) (A) (A) (A) (A) (A) (A) (A) (A) (A) (A) (A)
                 (A) (A) (A) (A) (A) (A) (A) (A) (A) (A) (A) (A)
                 (A) (A) (A) (A) (A) (A) (A) (A) (A) (A) (A) (A)
                 (A) (A) (A) (A) (A) (A) (A) (A) (A) (A) (A) (A)
                 (A) (A) (A) (A) (A) (A) (A) (A) (A) (A) (A) (A)
                 (A) (A) (A) (A) (A) (A) (A) (A) (A) (A) (A) (A)
                 (A) (A) (A) (A) (A) (A) (A) (A) (A) (A) (A) (A)
                 (A) (A) (A) (A) (A) (A) (A) (A) (A) (A) (A) (A)
                 (A) (A) (A) (A) (A) (A) (A) (A) (A) (A) (A) (A)
                 (A) (A) (A)
 The electronic state is 2-A.
 Alpha  occ. eigenvalues --  -38.44961 -38.44567 -38.44262 -38.44258 -38.44142
 Alpha  occ. eigenvalues --  -38.43983 -38.43947  -2.21377  -2.20918  -2.20508
 Alpha  occ. eigenvalues --   -2.20437  -2.20393  -2.20258  -2.20169  -1.15340
 Alpha  occ. eigenvalues --   -1.15252  -1.15033  -1.14811  -1.14762  -1.14621
 Alpha  occ. eigenvalues --   -1.14517  -1.14376  -1.14273  -1.14216  -1.14037
 Alpha  occ. eigenvalues --   -1.14003  -1.13981  -1.13941  -1.13888  -1.13805
 Alpha  occ. eigenvalues --   -1.13769  -1.13738  -1.13708  -1.13660  -1.13540
 Alpha  occ. eigenvalues --   -0.22497  -0.14313  -0.12993  -0.12646
 Alpha virt. eigenvalues --   -0.05338  -0.04172  -0.03969  -0.03916  -0.03201
 Alpha virt. eigenvalues --   -0.02752  -0.01104  -0.00364  -0.00086   0.00310
 Alpha virt. eigenvalues --    0.00850   0.00940   0.01083   0.01209   0.01296
 Alpha virt. eigenvalues --    0.01322   0.01448   0.01489   0.01533   0.01589
 Alpha virt. eigenvalues --    0.01727   0.01804   0.01859   0.01957   0.01987
 Alpha virt. eigenvalues --    0.02735   0.02749   0.02994   0.03040   0.03079
 Alpha virt. eigenvalues --    0.03129   0.03244   0.03324   0.03335   0.03419
 Alpha virt. eigenvalues --    0.03663   0.03719   0.03837   0.03916   0.04019
 Alpha virt. eigenvalues --    0.04771   0.05076   0.05203   0.05335   0.05376
 Alpha virt. eigenvalues --    0.05427   0.05707   0.05967   0.06071   0.06413
 Alpha virt. eigenvalues --    0.06475   0.07398   0.07426   0.07847   0.08222
 Alpha virt. eigenvalues --    0.08649   0.09140   0.09292   0.09753   0.09903
 Alpha virt. eigenvalues --    0.10288   0.11565   0.11919   0.12712   0.13024
 Alpha virt. eigenvalues --    0.13557   0.13957   0.14078   0.14234   0.14332
 Alpha virt. eigenvalues --    0.14454   0.15246   0.15569   0.16270   0.17131
 Alpha virt. eigenvalues --    0.18164   0.18477   0.18886   0.20024   0.23830
 Alpha virt. eigenvalues --    0.25092   0.25669   0.26956   0.27486   0.27995
 Alpha virt. eigenvalues --    0.29349   0.32596   0.34425   0.36273   0.36571
 Alpha virt. eigenvalues --    0.37879   0.38248   0.38881   0.39631   0.40347
 Alpha virt. eigenvalues --    0.41356   0.43718   0.44195   0.44867   0.45614
 Alpha virt. eigenvalues --    0.45813   0.46451   0.46893   0.47457   0.48093
 Alpha virt. eigenvalues --    0.48603   0.48975   0.49470   0.49609   0.49777
 Alpha virt. eigenvalues --    0.50082   0.51745   0.52239   0.54361   0.54711
 Alpha virt. eigenvalues --    0.55378   0.55866   0.56589   0.58516   0.59566
 Alpha virt. eigenvalues --    0.60665   0.63648   0.66107   0.69036   0.72703
 Alpha virt. eigenvalues --    0.74559   0.77890   0.80246   0.82833   0.83048
 Alpha virt. eigenvalues --    0.86901   0.88640   0.90801   0.91457   0.92835
 Alpha virt. eigenvalues --    2.18405   2.22896   2.27088   2.29777   2.31385
 Alpha virt. eigenvalues --    2.32583   2.34997   4.40892   4.42088   4.42836
 Alpha virt. eigenvalues --    4.44126   4.44978   4.46582   4.47009   4.48390
 Alpha virt. eigenvalues --    4.54373   4.55887   4.67363   4.68721   4.72515
 Alpha virt. eigenvalues --    4.74120   4.77016   4.83518   4.86100   4.90136
 Alpha virt. eigenvalues --    4.92161   4.94250   5.01864  96.43894  96.51177
 Alpha virt. eigenvalues --   96.55225  96.59615  96.62046  96.64079  96.66587
  Beta  occ. eigenvalues --  -38.44861 -38.44468 -38.44250 -38.44247 -38.44118
  Beta  occ. eigenvalues --  -38.43964 -38.43931  -2.21200  -2.20741  -2.20479
  Beta  occ. eigenvalues --   -2.20422  -2.20372  -2.20232  -2.20147  -1.15241
  Beta  occ. eigenvalues --   -1.15135  -1.14914  -1.14714  -1.14650  -1.14567
  Beta  occ. eigenvalues --   -1.14455  -1.14371  -1.14232  -1.14187  -1.13978
  Beta  occ. eigenvalues --   -1.13959  -1.13915  -1.13877  -1.13839  -1.13751
  Beta  occ. eigenvalues --   -1.13705  -1.13702  -1.13673  -1.13643  -1.13534
  Beta  occ. eigenvalues --   -0.21657  -0.13889  -0.12593
  Beta virt. eigenvalues --   -0.08355  -0.05387  -0.04147  -0.03884  -0.02883
  Beta virt. eigenvalues --   -0.02244  -0.01710  -0.01025  -0.00331   0.00056
  Beta virt. eigenvalues --    0.00335   0.00861   0.00937   0.01100   0.01226
  Beta virt. eigenvalues --    0.01299   0.01413   0.01536   0.01600   0.01617
  Beta virt. eigenvalues --    0.01682   0.01762   0.01899   0.01915   0.02012
  Beta virt. eigenvalues --    0.02103   0.02740   0.02746   0.02979   0.03042
  Beta virt. eigenvalues --    0.03121   0.03163   0.03240   0.03341   0.03501
  Beta virt. eigenvalues --    0.03588   0.03718   0.03806   0.03975   0.04010
  Beta virt. eigenvalues --    0.04260   0.04907   0.05157   0.05278   0.05466
  Beta virt. eigenvalues --    0.05576   0.05588   0.05999   0.06205   0.06290
  Beta virt. eigenvalues --    0.06428   0.06453   0.07513   0.07525   0.07838
  Beta virt. eigenvalues --    0.08225   0.08721   0.09174   0.09691   0.09991
  Beta virt. eigenvalues --    0.10211   0.10682   0.11945   0.12128   0.12789
  Beta virt. eigenvalues --    0.13103   0.13569   0.14315   0.14381   0.14442
  Beta virt. eigenvalues --    0.14572   0.14781   0.15660   0.15756   0.16422
  Beta virt. eigenvalues --    0.17336   0.18335   0.18767   0.19017   0.20200
  Beta virt. eigenvalues --    0.24578   0.25633   0.26296   0.27286   0.27694
  Beta virt. eigenvalues --    0.28573   0.29397   0.32578   0.34575   0.36509
  Beta virt. eigenvalues --    0.36772   0.38405   0.38758   0.39254   0.40042
  Beta virt. eigenvalues --    0.40757   0.41436   0.43984   0.44537   0.44954
  Beta virt. eigenvalues --    0.45782   0.46101   0.46550   0.47228   0.47722
  Beta virt. eigenvalues --    0.48259   0.48827   0.49103   0.49633   0.49685
  Beta virt. eigenvalues --    0.49960   0.50228   0.51855   0.52317   0.54753
  Beta virt. eigenvalues --    0.55092   0.55824   0.56371   0.56779   0.58945
  Beta virt. eigenvalues --    0.59767   0.61157   0.64033   0.66387   0.69544
  Beta virt. eigenvalues --    0.72789   0.74658   0.77982   0.80543   0.83118
  Beta virt. eigenvalues --    0.83222   0.87146   0.88706   0.90828   0.91499
  Beta virt. eigenvalues --    0.93090   2.18483   2.22926   2.27145   2.29800
  Beta virt. eigenvalues --    2.31444   2.32908   2.35368   4.41021   4.42230
  Beta virt. eigenvalues --    4.42935   4.44171   4.45048   4.46601   4.47071
  Beta virt. eigenvalues --    4.48450   4.54491   4.56014   4.67440   4.68836
  Beta virt. eigenvalues --    4.72575   4.74178   4.77115   4.83549   4.86210
  Beta virt. eigenvalues --    4.90227   4.92202   4.94317   5.01893  96.43927
  Beta virt. eigenvalues --   96.51192  96.55253  96.59630  96.62077  96.64191
  Beta virt. eigenvalues --   96.66703
          Condensed to atoms (all electrons):
               1          2          3          4          5          6
     1  Na  12.307284   0.412918  -0.152705  -0.823979   0.213494  -0.488179
     2  Na   0.412918  13.483485   1.271722  -0.034349  -0.847833  -1.902161
     3  Na  -0.152705   1.271722  16.462402  -0.642171  -0.298924  -2.437731
     4  Na  -0.823979  -0.034349  -0.642171  12.452870   0.208436  -0.250679
     5  Na   0.213494  -0.847833  -0.298924   0.208436  12.653928  -0.338319
     6  Na  -0.488179  -1.902161  -2.437731  -0.250679  -0.338319  14.930576
     7  Na  -0.160061  -1.574573  -3.089916   0.313245  -0.940109   1.556887
               7
     1  Na  -0.160061
     2  Na  -1.574573
     3  Na  -3.089916
     4  Na   0.313245
     5  Na  -0.940109
     6  Na   1.556887
     7  Na  14.719431
          Atomic-Atomic Spin Densities.
               1          2          3          4          5          6
     1  Na   1.023740   0.050134  -0.052299  -0.788341   0.054897   0.005229
     2  Na   0.050134  -0.249027  -0.088838  -0.036104   0.114699   0.186979
     3  Na  -0.052299  -0.088838  -0.405675   0.219963   0.061017  -0.010535
     4  Na  -0.788341  -0.036104   0.219963   1.116332  -0.054647   0.136572
     5  Na   0.054897   0.114699   0.061017  -0.054647  -0.221031   0.016445
     6  Na   0.005229   0.186979  -0.010535   0.136572   0.016445  -0.245601
     7  Na   0.137452   0.063151   0.205706  -0.094655   0.115474  -0.116535
               7
     1  Na   0.137452
     2  Na   0.063151
     3  Na   0.205706
     4  Na  -0.094655
     5  Na   0.115474
     6  Na  -0.116535
     7  Na  -0.270268
 Mulliken charges and spin densities:
               1          2
     1  Na  -0.308772   0.430813
     2  Na   0.190792   0.040995
     3  Na  -0.112676  -0.070661
     4  Na  -0.223374   0.499120
     5  Na   0.349326   0.086854
     6  Na  -0.070393  -0.027446
     7  Na   0.175096   0.040326
 Sum of Mulliken charges =  -0.00000   1.00000
 Mulliken charges and spin densities with hydrogens summed into heavy atoms:
               1          2
     1  Na  -0.308772   0.430813
     2  Na   0.190792   0.040995
     3  Na  -0.112676  -0.070661
     4  Na  -0.223374   0.499120
     5  Na   0.349326   0.086854
     6  Na  -0.070393  -0.027446
     7  Na   0.175096   0.040326
 Electronic spatial extent (au):  <R**2>=           1405.7208
 Charge=             -0.0000 electrons
 Dipole moment (field-independent basis, Debye):
    X=             -0.0251    Y=             -0.0094    Z=              0.1872  Tot=              0.1891
 Quadrupole moment (field-independent basis, Debye-Ang):
   XX=            -59.5877   YY=            -71.3596   ZZ=            -68.2790
   XY=             -0.1117   XZ=             -0.1928   YZ=              0.2027
 Traceless Quadrupole moment (field-independent basis, Debye-Ang):
   XX=              6.8210   YY=             -4.9508   ZZ=             -1.8702
   XY=             -0.1117   XZ=             -0.1928   YZ=              0.2027
 Octapole moment (field-independent basis, Debye-Ang**2):
  XXX=              1.1273  YYY=              2.3137  ZZZ=              2.9333  XYY=             -1.4818
  XXY=             -3.9450  XXZ=              1.6155  XZZ=              0.2810  YZZ=              0.5863
  YYZ=             -0.4370  XYZ=              1.3800
 Hexadecapole moment (field-independent basis, Debye-Ang**3):
 XXXX=           -965.9308 YYYY=           -921.4547 ZZZZ=           -561.6810 XXXY=             -3.7000
 XXXZ=             -6.1440 YYYX=              0.6303 YYYZ=              8.6872 ZZZX=             -0.1308
 ZZZY=             -3.9115 XXYY=           -312.7465 XXZZ=           -307.8882 YYZZ=           -276.7024
 XXYZ=             -1.6823 YYXZ=              1.2069 ZZXY=             -0.1287
 N-N= 4.376670978529D+02 E-N=-3.604561652141D+03  KE= 1.133763990759D+03
                          Isotropic Fermi Contact Couplings
        Atom                 a.u.       MegaHertz       Gauss      10(-4) cm-1
     1  Na(23)             0.40486     478.95870     170.90437     159.76342
     2  Na(23)            -0.01510     -17.86867      -6.37598      -5.96035
     3  Na(23)            -0.02268     -26.83011      -9.57365      -8.94956
     4  Na(23)             0.40888     483.72243     172.60419     161.35243
     5  Na(23)            -0.00835      -9.87569      -3.52389      -3.29418
     6  Na(23)            -0.02202     -26.04851      -9.29476      -8.68885
     7  Na(23)            -0.01784     -21.10911      -7.53226      -7.04124
 --------------------------------------------------------
       Center         ----  Spin Dipole Couplings  ----
                      3XX-RR        3YY-RR        3ZZ-RR
 --------------------------------------------------------
     1   Atom        0.006817      0.010259     -0.017076
     2   Atom       -0.039781     -0.038947      0.078728
     3   Atom       -0.025496     -0.031950      0.057446
     4   Atom        0.009333      0.008177     -0.017510
     5   Atom       -0.044917     -0.042782      0.087699
     6   Atom       -0.024278     -0.031183      0.055461
     7   Atom       -0.035593     -0.034983      0.070577
 --------------------------------------------------------
                        XY            XZ            YZ
 --------------------------------------------------------
     1   Atom       -0.001935     -0.000538      0.001936
     2   Atom        0.001292     -0.003396     -0.008369
     3   Atom       -0.001234      0.002432      0.002581
     4   Atom        0.001832      0.000516      0.001114
     5   Atom       -0.000320     -0.002666     -0.014517
     6   Atom        0.002617      0.006036      0.002506
     7   Atom       -0.002289     -0.002470      0.001125
 --------------------------------------------------------


 ---------------------------------------------------------------------------------
              Anisotropic Spin Dipole Couplings in Principal Axis System
 ---------------------------------------------------------------------------------

       Atom             a.u.   MegaHertz   Gauss  10(-4) cm-1        Axes

              Baa    -0.0172    -2.432    -0.868    -0.811  0.0168 -0.0691  0.9975
     1 Na(23) Bbb     0.0060     0.841     0.300     0.280  0.9142  0.4051  0.0127
              Bcc     0.0113     1.591     0.568     0.531 -0.4049  0.9117  0.0700
 
              Baa    -0.0408    -5.758    -2.055    -1.921  0.7619 -0.6473 -0.0237
     2 Na(23) Bbb    -0.0386    -5.458    -1.947    -1.820  0.6471  0.7590  0.0728
              Bcc     0.0794    11.215     4.002     3.741 -0.0292 -0.0708  0.9971
 
              Baa    -0.0323    -4.558    -1.626    -1.520  0.1905  0.9811 -0.0334
     3 Na(23) Bbb    -0.0253    -3.574    -1.275    -1.192  0.9813 -0.1913 -0.0229
              Bcc     0.0576     8.132     2.902     2.713  0.0288  0.0284  0.9992
 
              Baa    -0.0176    -2.480    -0.885    -0.827 -0.0163 -0.0421  0.9990
     4 Na(23) Bbb     0.0068     0.967     0.345     0.323 -0.5964  0.8023  0.0241
              Bcc     0.0107     1.513     0.540     0.505  0.8025  0.5954  0.0382
 
              Baa    -0.0454    -6.404    -2.285    -2.136  0.8472  0.5260  0.0744
     5 Na(23) Bbb    -0.0440    -6.213    -2.217    -2.072 -0.5309  0.8434  0.0822
              Bcc     0.0893    12.617     4.502     4.209 -0.0195 -0.1091  0.9938
 
              Baa    -0.0321    -4.528    -1.616    -1.510 -0.3147  0.9492 -0.0055
     6 Na(23) Bbb    -0.0239    -3.380    -1.206    -1.127  0.9461  0.3132 -0.0818
              Bcc     0.0560     7.908     2.822     2.638  0.0759  0.0309  0.9966
 
              Baa    -0.0376    -5.311    -1.895    -1.772  0.7560  0.6545  0.0105
     7 Na(23) Bbb    -0.0330    -4.665    -1.665    -1.556 -0.6542  0.7559 -0.0238
              Bcc     0.0706     9.976     3.560     3.328 -0.0235  0.0112  0.9997
 

 ---------------------------------------------------------------------------------

 No NMR shielding tensors so no spin-rotation constants.
 Leave Link  601 at Mon Nov 13 20:44:00 2023, MaxMem=  1879048192 cpu:               2.8 elap:               0.2
 (Enter /home/sekinelabo/g16/l701.exe)
 ... and contract with generalized density number  0.
 Compute integral first derivatives.
 Leave Link  701 at Mon Nov 13 20:44:00 2023, MaxMem=  1879048192 cpu:               1.8 elap:               0.1
 (Enter /home/sekinelabo/g16/l702.exe)
 L702 exits ... SP integral derivatives will be done elsewhere.
 Leave Link  702 at Mon Nov 13 20:44:00 2023, MaxMem=  1879048192 cpu:               0.4 elap:               0.0
 (Enter /home/sekinelabo/g16/l703.exe)
 Integral derivatives from FoFJK, PRISM(SPDF).
 Compute integral first derivatives, UseDBF=F ICtDFT=           0.
 Calling FoFJK, ICntrl=      2127 FMM=F ISym2X=0 I1Cent= 0 IOpClX= 1 NMat=1 NMatS=1 NMatT=0.
 FoFJK:  IHMeth= 1 ICntrl=    2127 DoSepK=F KAlg= 0 I1Cent=           0 FoldK=F
 IRaf=         0 NMat=       1 IRICut=       1 DoRegI=T DoRafI=F ISym2E= 0 IDoP0=0 IntGTp=1.
 FoFCou: FMM=F IPFlag=           0 FMFlag=      100000 FMFlg1=         800
         NFxFlg=           0 DoJE=F BraDBF=F KetDBF=F FulRan=T
         wScrn=  0.000000 ICntrl=      2127 IOpCl=  1 I1Cent=           0 NGrid=           0
         NMat0=    1 NMatS0=      1 NMatT0=    0 NMatD0=    1 NMtDS0=    0 NMtDT0=    0
 Symmetry not used in FoFCou.
 Leave Link  703 at Mon Nov 13 20:44:02 2023, MaxMem=  1879048192 cpu:              39.7 elap:               2.6
 (Enter /home/sekinelabo/g16/l716.exe)
 Dipole        =-9.85653259D-03-3.70359350D-03 7.36414407D-02
 ***** Axes restored to original set *****
 -------------------------------------------------------------------
 Center     Atomic                   Forces (Hartrees/Bohr)
 Number     Number              X              Y              Z
 -------------------------------------------------------------------
      1       11           0.000083942    0.001675580   -0.035762434
      2       11           0.017511697    0.034686127    0.002636896
      3       11           0.030129026   -0.009590175   -0.000237920
      4       11          -0.002320917   -0.001604383    0.030582607
      5       11           0.002452893   -0.040500559   -0.001856294
      6       11          -0.027620263   -0.013638134    0.002001198
      7       11          -0.020236378    0.028971544    0.002635947
 -------------------------------------------------------------------
 Cartesian Forces:  Max     0.040500559 RMS     0.020236694
 Z-matrix is all fixed cartesians, so copy forces.
 Force constants in Cartesian coordinates: 
                1             2             3             4             5 
      1  0.275706D+00
      2 -0.504026D-02  0.257994D+00
      3  0.419203D-03 -0.428470D-02  0.393668D+00
      4 -0.664169D-01 -0.592907D-02  0.148422D-01  0.251129D+00
      5  0.233814D-02 -0.611091D-01  0.124186D-01  0.303510D-01  0.281970D+00
      6 -0.346049D-01 -0.568930D-01 -0.782319D-01  0.120831D-03 -0.941346D-03
      7 -0.375460D-01  0.337064D-02  0.229048D-01 -0.518066D-01 -0.215605D-01
      8  0.831387D-02 -0.236895D-01 -0.184966D-02  0.510332D-01 -0.806792D-01
      9 -0.566161D-01  0.162985D-01 -0.489599D-01  0.531142D-02 -0.177076D-02
     10  0.135938D-01 -0.290070D-03  0.476720D-04 -0.649843D-01 -0.660514D-02
     11 -0.336606D-03  0.264081D-02  0.641482D-02 -0.697518D-02 -0.666405D-01
     12 -0.312697D-03  0.517342D-03 -0.587018D-01 -0.125376D-01 -0.998681D-02
     13 -0.882171D-01  0.172488D-02  0.138219D-03  0.133115D-01 -0.265519D-01
     14  0.323062D-03 -0.935593D-01 -0.198704D-01 -0.893005D-03 -0.294901D-01
     15 -0.464622D-02  0.725926D-01 -0.842699D-01 -0.500912D-03 -0.474640D-02
     16 -0.289584D-01 -0.338177D-02 -0.195222D-01 -0.472567D-02 -0.145029D-01
     17 -0.811989D-02 -0.202931D-01 -0.400312D-02 -0.234268D-01  0.838924D-02
     18  0.521244D-01  0.219368D-01 -0.431885D-01 -0.288635D-02 -0.229137D-02
     19 -0.681618D-01  0.954566D-02 -0.188299D-01 -0.765073D-01  0.365313D-01
     20  0.252169D-02 -0.619839D-01  0.111744D-01 -0.441601D-01 -0.524407D-01
     21  0.436362D-01 -0.501676D-01 -0.803156D-01 -0.434965D-02  0.731804D-02
                6             7             8             9            10 
      6  0.212654D+00
      7 -0.126656D-03  0.225469D+00
      8 -0.513807D-03 -0.238545D-01  0.168400D+00
      9 -0.546271D-01 -0.346452D-02  0.564790D-03  0.166204D+00
     10  0.324559D-01 -0.416007D-01  0.247869D-02  0.563008D-01  0.250036D+00
     11  0.591480D-01  0.719068D-02 -0.217052D-01 -0.128234D-01  0.180966D-02
     12 -0.649249D-01 -0.211231D-01  0.703315D-02 -0.493101D-01  0.188667D-02
     13 -0.690062D-03 -0.747004D-01 -0.557664D-01 -0.480502D-02 -0.682139D-01
     14 -0.342814D-02  0.242746D-01 -0.733372D-01  0.251881D-03  0.370213D-02
     15  0.982143D-02  0.373769D-02 -0.259522D-02 -0.786709D-01  0.247828D-02
     16  0.305979D-02 -0.109518D-01 -0.122646D-02  0.339249D-02 -0.437142D-01
     17  0.185163D-02 -0.199741D-02  0.166612D-01 -0.169930D-02 -0.497380D-02
     18  0.284955D-01 -0.683504D-03 -0.272062D-02  0.343784D-01 -0.530416D-01
     19 -0.214922D-03 -0.886367D-02  0.190215D-01 -0.119097D-03 -0.451163D-01
     20  0.776715D-03  0.125764D-01  0.143495D-01 -0.821726D-03  0.387854D-02
     21 -0.531873D-01 -0.124470D-02  0.813714D-04  0.309852D-01 -0.401277D-01
               11            12            13            14            15 
     11  0.227549D+00
     12 -0.878386D-02  0.348550D+00
     13  0.760471D-03 -0.479727D-02  0.289503D+00
     14 -0.684526D-01  0.162773D-01 -0.750118D-02  0.362194D+00
     15 -0.703318D-01 -0.724587D-01  0.162170D-02  0.108724D-01  0.295922D+00
     16 -0.109343D-01  0.204131D-01 -0.796886D-01 -0.239897D-01 -0.487697D-02
     17 -0.281497D-01  0.917914D-02  0.544603D-01 -0.723471D-01 -0.749843D-02
     18 -0.169251D-01 -0.472248D-01  0.294888D-02 -0.361038D-03 -0.825951D-01
     19  0.848525D-02  0.164709D-01  0.800563D-02  0.408408D-02  0.218643D-02
     20 -0.452419D-01 -0.142362D-01  0.328738D-01 -0.250076D-01  0.170680D-02
     21  0.433014D-01 -0.559293D-01  0.558355D-02 -0.374197D-02  0.122516D-01
               16            17            18            19            20 
     16  0.216732D+00
     17  0.296435D-01  0.180743D+00
     18  0.494792D-02 -0.223991D-02  0.163428D+00
     19 -0.486937D-01 -0.455859D-01 -0.340973D-02  0.239337D+00
     20  0.243916D-01 -0.850035D-01  0.260126D-02 -0.320819D-01  0.255328D+00
     21 -0.741408D-02  0.440999D-02 -0.532937D-01  0.391632D-02 -0.120127D-02
               21 
     21  0.199489D+00
 Leave Link  716 at Mon Nov 13 20:44:02 2023, MaxMem=  1879048192 cpu:               0.5 elap:               0.0
 (Enter /home/sekinelabo/g16/l103.exe)

 GradGradGradGradGradGradGradGradGradGradGradGradGradGradGradGradGradGrad
 Berny optimization.
 Search for a local minimum.
 Step number   1 out of a maximum of    2
 All quantities printed in internal units (Hartrees-Bohrs-Radians)
 Second derivative matrix not updated -- first step.
 ITU=  0
     Eigenvalues ---    0.19177   0.22351   0.26846   0.28879   0.30287
     Eigenvalues ---    0.31181   0.32323   0.33221   0.35585   0.37895
     Eigenvalues ---    0.39050   0.42600   0.44525   0.46440   0.48908
 Quadratic step=4.224D-01 exceeds max=3.000D-01 adjusted using Lamda=-8.508D-02.
 Angle between NR and scaled steps=   2.70 degrees.
 Angle between quadratic step and forces=  10.66 degrees.
 Linear search not attempted -- first point.
 B after Tr=     0.000000    0.000000    0.000000
         Rot=    1.000000    0.000000   -0.000000   -0.000000 Ang=   0.00 deg.
 Variable       Old X    -DE/DX   Delta X   Delta X   Delta X     New X
                                 (Linear)    (Quad)   (Total)
    X1        4.41816   0.00008   0.00000   0.00051   0.00051   4.41867
    Y1        3.95893   0.00168   0.00000   0.00652   0.00652   3.96545
    Z1        0.00000  -0.03576   0.00000  -0.08961  -0.08961  -0.08961
    X2        6.70320   0.01751   0.00000   0.06312   0.06312   6.76632
    Y2        6.94489   0.03469   0.00000   0.10357   0.10357   7.04846
    Z2        3.38235   0.00264   0.00000   0.00614   0.00614   3.38849
    X3        9.04940   0.03013   0.00000   0.12427   0.12427   9.17367
    Y3        2.44929  -0.00959   0.00000  -0.03586  -0.03586   2.41343
    Z3        3.13330  -0.00024   0.00000  -0.00106  -0.00106   3.13224
    X4        4.51015  -0.00232   0.00000  -0.00150  -0.00150   4.50865
    Y4        3.54094  -0.00160   0.00000  -0.00329  -0.00329   3.53765
    Z4        6.45121   0.03058   0.00000   0.08609   0.08609   6.53730
    X5        4.62544   0.00245   0.00000   0.00643   0.00643   4.63187
    Y5        0.00000  -0.04050   0.00000  -0.11089  -0.11089  -0.11089
    Z5        2.77116  -0.00186   0.00000  -0.00868  -0.00868   2.76248
    X6        0.00000  -0.02762   0.00000  -0.11524  -0.11524  -0.11524
    Y6        1.87244  -0.01364   0.00000  -0.05258  -0.05258   1.81986
    Z6        3.39351   0.00200   0.00000   0.00572   0.00572   3.39923
    X7        1.44336  -0.02024   0.00000  -0.07760  -0.07760   1.36577
    Y7        6.69318   0.02897   0.00000   0.09254   0.09254   6.78572
    Z7        3.01735   0.00264   0.00000   0.00140   0.00140   3.01875
         Item               Value     Threshold  Converged?
 Maximum Force            0.040501     0.000450     NO 
 RMS     Force            0.020237     0.000300     NO 
 Maximum Displacement     0.124268     0.001800     NO 
 RMS     Displacement     0.065485     0.001200     NO 
 Predicted change in Energy=-1.750524D-02
 GradGradGradGradGradGradGradGradGradGradGradGradGradGradGradGradGradGrad

 Leave Link  103 at Mon Nov 13 20:44:02 2023, MaxMem=  1879048192 cpu:               0.3 elap:               0.0
 (Enter /home/sekinelabo/g16/l9999.exe)
 1\1\GINC-SEKINELABO-XA7R-R37\Force\UB3LYP\6-311+G(d)\Na7(2)\SEKINELABO
 \13-Nov-2023\0\\#P B3LYP/6-311+g(d) force\\Gaussian input prepared by 
 ASE\\0,2\Na,2.3379886809,2.0949758455,0.\Na,3.5471823739,3.6750773754,
 1.7898649212\Na,4.7887356137,1.2961074784,1.6580691026\Na,2.3866673304
 ,1.8737866543,3.4138327006\Na,2.4476781675,0.,1.466433757\Na,0.,0.9908
 522614,1.7957667583\Na,0.7637953728,3.5418767284,1.5967109011\\Version
 =ES64L-G16RevB.01\State=2-A\HF=-1136.0400312\S2=0.757261\S2-1=0.\S2A=0
 .750037\RMSD=8.665e-09\RMSF=2.024e-02\Dipole=-0.0098565,-0.0037036,0.0
 736414\Quadrupole=5.0712621,-3.6808008,-1.3904613,-0.0830613,-0.143341
 4,0.1506706\PG=C01 [X(Na7)]\\@


 THE REASON MAN'S BEST FRIEND IS A DOG IS BECAUSE
 HE WAGS HIS TAIL INSTEAD OF HIS TONGUE.
 Job cpu time:       0 days  0 hours  4 minutes 25.1 seconds.
 Elapsed time:       0 days  0 hours  0 minutes 21.5 seconds.
 File lengths (MBytes):  RWF=     32 Int=      0 D2E=      0 Chk=      6 Scr=      1
 Normal termination of Gaussian 16 at Mon Nov 13 20:44:02 2023.
