 Entering Gaussian System, Link 0=g16
 Initial command:
 /home/sekinelabo/g16/l1.exe "/home/sekinelabo/g16temp/Gau-4022097.inp" -scrdir="/home/sekinelabo/g16temp/"
 Entering Link 1 = /home/sekinelabo/g16/l1.exe PID=   4022099.
  
 Copyright (c) 1988-2017, Gaussian, Inc.  All Rights Reserved.
  
 This is part of the Gaussian(R) 16 program.  It is based on
 the Gaussian(R) 09 system (copyright 2009, Gaussian, Inc.),
 the Gaussian(R) 03 system (copyright 2003, Gaussian, Inc.),
 the Gaussian(R) 98 system (copyright 1998, Gaussian, Inc.),
 the Gaussian(R) 94 system (copyright 1995, Gaussian, Inc.),
 the Gaussian 92(TM) system (copyright 1992, Gaussian, Inc.),
 the Gaussian 90(TM) system (copyright 1990, Gaussian, Inc.),
 the Gaussian 88(TM) system (copyright 1988, Gaussian, Inc.),
 the Gaussian 86(TM) system (copyright 1986, Carnegie Mellon
 University), and the Gaussian 82(TM) system (copyright 1983,
 Carnegie Mellon University). Gaussian is a federally registered
 trademark of Gaussian, Inc.
  
 This software contains proprietary and confidential information,
 including trade secrets, belonging to Gaussian, Inc.
  
 This software is provided under written license and may be
 used, copied, transmitted, or stored only in accord with that
 written license.
  
 The following legend is applicable only to US Government
 contracts under FAR:
  
                    RESTRICTED RIGHTS LEGEND
  
 Use, reproduction and disclosure by the US Government is
 subject to restrictions as set forth in subparagraphs (a)
 and (c) of the Commercial Computer Software - Restricted
 Rights clause in FAR 52.227-19.
  
 Gaussian, Inc.
 340 Quinnipiac St., Bldg. 40, Wallingford CT 06492
  
  
 ---------------------------------------------------------------
 Warning -- This program may not be used in any manner that
 competes with the business of Gaussian, Inc. or will provide
 assistance to any competitor of Gaussian, Inc.  The licensee
 of this program is prohibited from giving any competitor of
 Gaussian, Inc. access to this program.  By using this program,
 the user acknowledges that Gaussian, Inc. is engaged in the
 business of creating and licensing software in the field of
 computational chemistry and represents and warrants to the
 licensee that it is not a competitor of Gaussian, Inc. and that
 it will not use this program in any manner prohibited above.
 ---------------------------------------------------------------
  

 Cite this work as:
 Gaussian 16, Revision B.01,
 M. J. Frisch, G. W. Trucks, H. B. Schlegel, G. E. Scuseria, 
 M. A. Robb, J. R. Cheeseman, G. Scalmani, V. Barone, 
 G. A. Petersson, H. Nakatsuji, X. Li, M. Caricato, A. V. Marenich, 
 J. Bloino, B. G. Janesko, R. Gomperts, B. Mennucci, H. P. Hratchian, 
 J. V. Ortiz, A. F. Izmaylov, J. L. Sonnenberg, D. Williams-Young, 
 F. Ding, F. Lipparini, F. Egidi, J. Goings, B. Peng, A. Petrone, 
 T. Henderson, D. Ranasinghe, V. G. Zakrzewski, J. Gao, N. Rega, 
 G. Zheng, W. Liang, M. Hada, M. Ehara, K. Toyota, R. Fukuda, 
 J. Hasegawa, M. Ishida, T. Nakajima, Y. Honda, O. Kitao, H. Nakai, 
 T. Vreven, K. Throssell, J. A. Montgomery, Jr., J. E. Peralta, 
 F. Ogliaro, M. J. Bearpark, J. J. Heyd, E. N. Brothers, K. N. Kudin, 
 V. N. Staroverov, T. A. Keith, R. Kobayashi, J. Normand, 
 K. Raghavachari, A. P. Rendell, J. C. Burant, S. S. Iyengar, 
 J. Tomasi, M. Cossi, J. M. Millam, M. Klene, C. Adamo, R. Cammi, 
 J. W. Ochterski, R. L. Martin, K. Morokuma, O. Farkas, 
 J. B. Foresman, and D. J. Fox, Gaussian, Inc., Wallingford CT, 2016.
 
 ******************************************
 Gaussian 16:  ES64L-G16RevB.01 20-Dec-2017
                13-Nov-2023 
 ******************************************
 %mem=14GB
 %chk=checkpoint.chk
 %nprocshared=16
 Will use up to   16 processors via shared memory.
 -------------------------
 #P B3LYP/6-311+g(d) force
 -------------------------
 1/10=7,30=1,38=1/1,3;
 2/12=2,17=6,18=5,40=1/2;
 3/5=4,6=6,7=11,11=2,25=1,30=1,71=1,74=-5/1,2,3;
 4//1;
 5/5=2,38=5/2;
 6/7=2,8=2,9=2,10=2,28=1/1;
 7/29=1/1,2,3,16;
 1/10=7,30=1/3;
 99//99;
 Leave Link    1 at Mon Nov 13 15:39:17 2023, MaxMem=  1879048192 cpu:               0.3 elap:               0.0
 (Enter /home/sekinelabo/g16/l101.exe)
 ------------------------------
 Gaussian input prepared by ASE
 ------------------------------
 Symbolic Z-matrix:
 Charge =  0 Multiplicity = 2
 Na                    4.78898   0.21452   2.23373 
 Na                    7.61596   1.09937   2.70493 
 Na                    6.78406   0.1181    0. 
 Na                    5.79324   2.7619    1.00309 
 Na                    3.024     3.90836   1.18787 
 Na                    2.07212   1.44098   2.61336 
 Na                    0.        0.        0.98947 
 
 ITRead=  0  0  0  0  0  0  0
 MicOpt= -1 -1 -1 -1 -1 -1 -1
 NAtoms=      7 NQM=        7 NQMF=       0 NMMI=      0 NMMIF=      0
                NMic=       0 NMicF=      0.
                    Isotopes and Nuclear Properties:
 (Nuclear quadrupole moments (NQMom) in fm**2, nuclear magnetic moments (NMagM)
  in nuclear magnetons)

  Atom         1           2           3           4           5           6           7
 IAtWgt=          23          23          23          23          23          23          23
 AtmWgt=  22.9897697  22.9897697  22.9897697  22.9897697  22.9897697  22.9897697  22.9897697
 NucSpn=           3           3           3           3           3           3           3
 AtZEff=  -0.0000000  -0.0000000  -0.0000000  -0.0000000  -0.0000000  -0.0000000  -0.0000000
 NQMom=   10.4000000  10.4000000  10.4000000  10.4000000  10.4000000  10.4000000  10.4000000
 NMagM=    2.2175200   2.2175200   2.2175200   2.2175200   2.2175200   2.2175200   2.2175200
 AtZNuc=  11.0000000  11.0000000  11.0000000  11.0000000  11.0000000  11.0000000  11.0000000
 Leave Link  101 at Mon Nov 13 15:39:18 2023, MaxMem=  1879048192 cpu:               2.6 elap:               0.2
 (Enter /home/sekinelabo/g16/l103.exe)

 GradGradGradGradGradGradGradGradGradGradGradGradGradGradGradGradGradGrad
 Berny optimization.
 Initialization pass.
 Trust Radius=3.00D-01 FncErr=1.00D-07 GrdErr=1.00D-07 EigMax=2.50D+02 EigMin=1.00D-04
 Number of steps in this run=      2 maximum allowed number of steps=      2.
 GradGradGradGradGradGradGradGradGradGradGradGradGradGradGradGradGradGrad

 Leave Link  103 at Mon Nov 13 15:39:18 2023, MaxMem=  1879048192 cpu:               0.3 elap:               0.0
 (Enter /home/sekinelabo/g16/l202.exe)
                          Input orientation:                          
 ---------------------------------------------------------------------
 Center     Atomic      Atomic             Coordinates (Angstroms)
 Number     Number       Type             X           Y           Z
 ---------------------------------------------------------------------
      1         11           0        4.788984    0.214516    2.233725
      2         11           0        7.615965    1.099370    2.704929
      3         11           0        6.784056    0.118099    0.000000
      4         11           0        5.793238    2.761897    1.003085
      5         11           0        3.024002    3.908364    1.187870
      6         11           0        2.072119    1.440980    2.613365
      7         11           0        0.000000    0.000000    0.989474
 ---------------------------------------------------------------------
                    Distance matrix (angstroms):
                    1          2          3          4          5
     1  Na   0.000000
     2  Na   2.999470   0.000000
     3  Na   2.996521   2.995264   0.000000
     4  Na   3.002024   2.997099   2.996259   0.000000
     5  Na   4.225339   5.592677   5.469475   3.002865   0.000000
     6  Na   3.004946   5.555116   5.548157   4.264334   3.004347
     7  Na   4.952631   7.883801   6.856853   6.417933   4.945631
                    6          7
     6  Na   0.000000
     7  Na   3.001187   0.000000
 Stoichiometry    Na7(2)
 Framework group  C1[X(Na7)]
 Deg. of freedom    15
 Full point group                 C1      NOp   1
 Largest Abelian subgroup         C1      NOp   1
 Largest concise Abelian subgroup C1      NOp   1
                         Standard orientation:                         
 ---------------------------------------------------------------------
 Center     Atomic      Atomic             Coordinates (Angstroms)
 Number     Number       Type             X           Y           Z
 ---------------------------------------------------------------------
      1         11           0       -0.492075   -1.148802   -0.700519
      2         11           0       -3.319056   -0.263948   -1.171722
      3         11           0       -2.487147   -1.245219    1.533207
      4         11           0       -1.496328    1.398579    0.530122
      5         11           0        1.272907    2.545046    0.345337
      6         11           0        2.224790    0.077662   -1.080158
      7         11           0        4.296909   -1.363318    0.543733
 ---------------------------------------------------------------------
 Rotational constants (GHZ):           1.1381201           0.4327861           0.3793109
 Leave Link  202 at Mon Nov 13 15:39:18 2023, MaxMem=  1879048192 cpu:               0.1 elap:               0.0
 (Enter /home/sekinelabo/g16/l301.exe)
 Standard basis: 6-311+G(d) (5D, 7F)
 Ernie: Thresh=  0.10000D-02 Tol=  0.10000D-05 Strict=F.
 There are   217 symmetry adapted cartesian basis functions of A   symmetry.
 There are   210 symmetry adapted basis functions of A   symmetry.
   210 basis functions,   350 primitive gaussians,   217 cartesian basis functions
    39 alpha electrons       38 beta electrons
       nuclear repulsion energy       343.1397574660 Hartrees.
 IExCor=  402 DFT=T Ex+Corr=B3LYP ExCW=0 ScaHFX=  0.200000
 ScaDFX=  0.800000  0.720000  1.000000  0.810000 ScalE2=  1.000000  1.000000
 IRadAn=      5 IRanWt=     -1 IRanGd=            0 ICorTp=0 IEmpDi=  4
 NAtoms=    7 NActive=    7 NUniq=    7 SFac= 1.00D+00 NAtFMM=   60 NAOKFM=F Big=F
 Integral buffers will be    131072 words long.
 Raffenetti 2 integral format.
 Two-electron integral symmetry is turned on.
 Leave Link  301 at Mon Nov 13 15:39:18 2023, MaxMem=  1879048192 cpu:               0.5 elap:               0.0
 (Enter /home/sekinelabo/g16/l302.exe)
 NPDir=0 NMtPBC=     1 NCelOv=     1 NCel=       1 NClECP=     1 NCelD=      1
         NCelK=      1 NCelE2=     1 NClLst=     1 CellRange=     0.0.
 One-electron integrals computed using PRISM.
 One-electron integral symmetry used in STVInt
 NBasis=   210 RedAO= T EigKep=  2.02D-06  NBF=   210
 NBsUse=   210 1.00D-06 EigRej= -1.00D+00 NBFU=   210
 Precomputing XC quadrature grid using
 IXCGrd= 4 IRadAn=           5 IRanWt=          -1 IRanGd=           0 AccXCQ= 0.00D+00.
 Generated NRdTot=       0 NPtTot=           0 NUsed=           0 NTot=          32
 NSgBfM=   209   209   209   209   209 MxSgAt=     7 MxSgA2=     7.
 Leave Link  302 at Mon Nov 13 15:39:18 2023, MaxMem=  1879048192 cpu:               2.1 elap:               0.1
 (Enter /home/sekinelabo/g16/l303.exe)
 DipDrv:  MaxL=1.
 Leave Link  303 at Mon Nov 13 15:39:18 2023, MaxMem=  1879048192 cpu:               0.5 elap:               0.0
 (Enter /home/sekinelabo/g16/l401.exe)
 ExpMin= 7.60D-03 ExpMax= 3.62D+04 ExpMxC= 1.21D+03 IAcc=3 IRadAn=         5 AccDes= 0.00D+00
 Harris functional with IExCor=  402 and IRadAn=       5 diagonalized for initial guess.
 HarFok:  IExCor=  402 AccDes= 0.00D+00 IRadAn=         5 IDoV= 1 UseB2=F ITyADJ=14
 ICtDFT=  3500011 ScaDFX=  1.000000  1.000000  1.000000  1.000000
 FoFCou: FMM=F IPFlag=           0 FMFlag=      100000 FMFlg1=           0
         NFxFlg=           0 DoJE=T BraDBF=F KetDBF=T FulRan=T
         wScrn=  0.000000 ICntrl=       500 IOpCl=  0 I1Cent=   200000004 NGrid=           0
         NMat0=    1 NMatS0=      1 NMatT0=    0 NMatD0=    1 NMtDS0=    0 NMtDT0=    0
 Petite list used in FoFCou.
 Harris En= -1135.86211337879    
 JPrj=0 DoOrth=F DoCkMO=F.
 Initial guess <Sx>= 0.0000 <Sy>= 0.0000 <Sz>= 0.5000 <S**2>= 0.7500 S= 0.5000
 Leave Link  401 at Mon Nov 13 15:39:18 2023, MaxMem=  1879048192 cpu:               6.3 elap:               0.4
 (Enter /home/sekinelabo/g16/l502.exe)
 Keep R1 and R2 ints in memory in canonical form, NReq=507620360.
 FoFCou: FMM=F IPFlag=           0 FMFlag=           0 FMFlg1=           0
         NFxFlg=           0 DoJE=F BraDBF=F KetDBF=F FulRan=T
         wScrn=  0.000000 ICntrl=       600 IOpCl=  0 I1Cent=           0 NGrid=           0
         NMat0=    1 NMatS0=  22155 NMatT0=    0 NMatD0=    1 NMtDS0=    0 NMtDT0=    0
 Symmetry not used in FoFCou.
 Two-electron integral symmetry not used.
 UHF open shell SCF:
 Using DIIS extrapolation, IDIIS=  1040.
 NGot=  1879048192 LenX=  1388082376 LenY=  1388034846
 Requested convergence on RMS density matrix=1.00D-08 within 128 cycles.
 Requested convergence on MAX density matrix=1.00D-06.
 Requested convergence on             energy=1.00D-06.
 No special actions if energy rises.

 Cycle   1  Pass 1  IDiag  1:
 E= -1136.05444311937    
 DIIS: error= 1.23D-02 at cycle   1 NSaved=   1.
 NSaved= 1 IEnMin= 1 EnMin= -1136.05444311937     IErMin= 1 ErrMin= 1.23D-02
 ErrMax= 1.23D-02  0.00D+00 EMaxC= 1.00D-01 BMatC= 1.93D-01 BMatP= 1.93D-01
 IDIUse=3 WtCom= 8.77D-01 WtEn= 1.23D-01
 Coeff-Com:  0.100D+01
 Coeff-En:   0.100D+01
 Coeff:      0.100D+01
 Gap=     0.025 Goal=   None    Shift=    0.000
 Gap=     0.036 Goal=   None    Shift=    0.000
 GapD=    0.025 DampG=0.250 DampE=0.500 DampFc=0.2500 IDamp=-1.
 Damping current iteration by 2.50D-01
 RMSDP=2.80D-02 MaxDP=3.89D+00              OVMax= 3.06D-01

 Cycle   2  Pass 1  IDiag  1:
 E= -1136.06642791873     Delta-E=       -0.011984799354 Rises=F Damp=T
 DIIS: error= 8.52D-03 at cycle   2 NSaved=   2.
 NSaved= 2 IEnMin= 2 EnMin= -1136.06642791873     IErMin= 2 ErrMin= 8.52D-03
 ErrMax= 8.52D-03  0.00D+00 EMaxC= 1.00D-01 BMatC= 7.39D-02 BMatP= 1.93D-01
 IDIUse=3 WtCom= 9.15D-01 WtEn= 8.52D-02
 Coeff-Com: -0.126D+01 0.226D+01
 Coeff-En:   0.000D+00 0.100D+01
 Coeff:     -0.116D+01 0.216D+01
 Gap=     0.033 Goal=   None    Shift=    0.000
 Gap=     0.048 Goal=   None    Shift=    0.000
 RMSDP=1.86D-02 MaxDP=1.78D+00 DE=-1.20D-02 OVMax= 1.99D-01

 Cycle   3  Pass 1  IDiag  1:
 E= -1136.08576602658     Delta-E=       -0.019338107855 Rises=F Damp=F
 DIIS: error= 3.01D-03 at cycle   3 NSaved=   3.
 NSaved= 3 IEnMin= 3 EnMin= -1136.08576602658     IErMin= 3 ErrMin= 3.01D-03
 ErrMax= 3.01D-03  0.00D+00 EMaxC= 1.00D-01 BMatC= 4.51D-03 BMatP= 7.39D-02
 IDIUse=3 WtCom= 9.70D-01 WtEn= 3.01D-02
 Coeff-Com: -0.309D+00 0.542D+00 0.767D+00
 Coeff-En:   0.000D+00 0.000D+00 0.100D+01
 Coeff:     -0.300D+00 0.526D+00 0.774D+00
 Gap=     0.029 Goal=   None    Shift=    0.000
 Gap=     0.038 Goal=   None    Shift=    0.000
 RMSDP=1.17D-02 MaxDP=1.92D+00 DE=-1.93D-02 OVMax= 1.29D-01

 Cycle   4  Pass 1  IDiag  1:
 E= -1136.08617129877     Delta-E=       -0.000405272192 Rises=F Damp=F
 DIIS: error= 2.26D-03 at cycle   4 NSaved=   4.
 NSaved= 4 IEnMin= 4 EnMin= -1136.08617129877     IErMin= 4 ErrMin= 2.26D-03
 ErrMax= 2.26D-03  0.00D+00 EMaxC= 1.00D-01 BMatC= 4.13D-03 BMatP= 4.51D-03
 IDIUse=3 WtCom= 9.77D-01 WtEn= 2.26D-02
 Coeff-Com: -0.558D-02 0.866D-02 0.488D+00 0.509D+00
 Coeff-En:   0.000D+00 0.000D+00 0.479D+00 0.521D+00
 Coeff:     -0.545D-02 0.846D-02 0.488D+00 0.509D+00
 Gap=     0.031 Goal=   None    Shift=    0.000
 Gap=     0.042 Goal=   None    Shift=    0.000
 RMSDP=7.42D-03 MaxDP=9.34D-01 DE=-4.05D-04 OVMax= 6.46D-02

 Cycle   5  Pass 1  IDiag  1:
 E= -1136.08985375752     Delta-E=       -0.003682458751 Rises=F Damp=F
 DIIS: error= 6.02D-04 at cycle   5 NSaved=   5.
 NSaved= 5 IEnMin= 5 EnMin= -1136.08985375752     IErMin= 5 ErrMin= 6.02D-04
 ErrMax= 6.02D-04  0.00D+00 EMaxC= 1.00D-01 BMatC= 1.55D-04 BMatP= 4.13D-03
 IDIUse=3 WtCom= 9.94D-01 WtEn= 6.02D-03
 Coeff-Com: -0.132D-02 0.131D-02 0.303D+00 0.323D+00 0.374D+00
 Coeff-En:   0.000D+00 0.000D+00 0.000D+00 0.000D+00 0.100D+01
 Coeff:     -0.131D-02 0.130D-02 0.301D+00 0.321D+00 0.378D+00
 Gap=     0.031 Goal=   None    Shift=    0.000
 Gap=     0.040 Goal=   None    Shift=    0.000
 RMSDP=8.01D-04 MaxDP=7.33D-02 DE=-3.68D-03 OVMax= 2.84D-02

 Cycle   6  Pass 1  IDiag  1:
 E= -1136.09007282104     Delta-E=       -0.000219063515 Rises=F Damp=F
 DIIS: error= 1.86D-04 at cycle   6 NSaved=   6.
 NSaved= 6 IEnMin= 6 EnMin= -1136.09007282104     IErMin= 6 ErrMin= 1.86D-04
 ErrMax= 1.86D-04  0.00D+00 EMaxC= 1.00D-01 BMatC= 1.76D-05 BMatP= 1.55D-04
 IDIUse=3 WtCom= 9.98D-01 WtEn= 1.86D-03
 Coeff-Com: -0.357D-03-0.169D-03-0.295D-01-0.348D-01 0.213D+00 0.852D+00
 Coeff-En:   0.000D+00 0.000D+00 0.000D+00 0.000D+00 0.439D-01 0.956D+00
 Coeff:     -0.356D-03-0.169D-03-0.294D-01-0.348D-01 0.212D+00 0.853D+00
 Gap=     0.032 Goal=   None    Shift=    0.000
 Gap=     0.040 Goal=   None    Shift=    0.000
 RMSDP=1.07D-03 MaxDP=8.99D-02 DE=-2.19D-04 OVMax= 1.74D-02

 Cycle   7  Pass 1  IDiag  1:
 E= -1136.09013002169     Delta-E=       -0.000057200650 Rises=F Damp=F
 DIIS: error= 8.79D-05 at cycle   7 NSaved=   7.
 NSaved= 7 IEnMin= 7 EnMin= -1136.09013002169     IErMin= 7 ErrMin= 8.79D-05
 ErrMax= 8.79D-05  0.00D+00 EMaxC= 1.00D-01 BMatC= 2.92D-06 BMatP= 1.76D-05
 IDIUse=1 WtCom= 1.00D+00 WtEn= 0.00D+00
 Coeff-Com: -0.930D-04 0.136D-03-0.519D-01-0.591D-01 0.302D-01 0.214D+00
 Coeff-Com:  0.867D+00
 Coeff:     -0.930D-04 0.136D-03-0.519D-01-0.591D-01 0.302D-01 0.214D+00
 Coeff:      0.867D+00
 Gap=     0.032 Goal=   None    Shift=    0.000
 Gap=     0.040 Goal=   None    Shift=    0.000
 RMSDP=4.58D-04 MaxDP=4.80D-02 DE=-5.72D-05 OVMax= 1.59D-02

 Cycle   8  Pass 1  IDiag  1:
 E= -1136.09015248432     Delta-E=       -0.000022462629 Rises=F Damp=F
 DIIS: error= 6.53D-05 at cycle   8 NSaved=   8.
 NSaved= 8 IEnMin= 8 EnMin= -1136.09015248432     IErMin= 8 ErrMin= 6.53D-05
 ErrMax= 6.53D-05  0.00D+00 EMaxC= 1.00D-01 BMatC= 1.52D-06 BMatP= 2.92D-06
 IDIUse=1 WtCom= 1.00D+00 WtEn= 0.00D+00
 Coeff-Com:  0.125D-02-0.138D-02-0.798D-02-0.117D-01-0.387D-01-0.210D+00
 Coeff-Com:  0.252D+00 0.102D+01
 Coeff:      0.125D-02-0.138D-02-0.798D-02-0.117D-01-0.387D-01-0.210D+00
 Coeff:      0.252D+00 0.102D+01
 Gap=     0.032 Goal=   None    Shift=    0.000
 Gap=     0.041 Goal=   None    Shift=    0.000
 RMSDP=5.78D-04 MaxDP=6.30D-02 DE=-2.25D-05 OVMax= 1.68D-02

 Cycle   9  Pass 1  IDiag  1:
 E= -1136.09016914495     Delta-E=       -0.000016660636 Rises=F Damp=F
 DIIS: error= 4.96D-05 at cycle   9 NSaved=   9.
 NSaved= 9 IEnMin= 9 EnMin= -1136.09016914495     IErMin= 9 ErrMin= 4.96D-05
 ErrMax= 4.96D-05  0.00D+00 EMaxC= 1.00D-01 BMatC= 7.59D-07 BMatP= 1.52D-06
 IDIUse=1 WtCom= 1.00D+00 WtEn= 0.00D+00
 Coeff-Com:  0.137D-02-0.163D-02 0.227D-01 0.223D-01-0.157D-01-0.180D+00
 Coeff-Com: -0.407D+00 0.400D+00 0.116D+01
 Coeff:      0.137D-02-0.163D-02 0.227D-01 0.223D-01-0.157D-01-0.180D+00
 Coeff:     -0.407D+00 0.400D+00 0.116D+01
 Gap=     0.032 Goal=   None    Shift=    0.000
 Gap=     0.041 Goal=   None    Shift=    0.000
 RMSDP=5.47D-04 MaxDP=7.17D-02 DE=-1.67D-05 OVMax= 1.87D-02

 Cycle  10  Pass 1  IDiag  1:
 E= -1136.09018036434     Delta-E=       -0.000011219385 Rises=F Damp=F
 DIIS: error= 2.69D-05 at cycle  10 NSaved=  10.
 NSaved=10 IEnMin=10 EnMin= -1136.09018036434     IErMin=10 ErrMin= 2.69D-05
 ErrMax= 2.69D-05  0.00D+00 EMaxC= 1.00D-01 BMatC= 2.35D-07 BMatP= 7.59D-07
 IDIUse=1 WtCom= 1.00D+00 WtEn= 0.00D+00
 Coeff-Com: -0.968D-03 0.130D-02 0.569D-02 0.633D-02 0.339D-01 0.858D-01
 Coeff-Com: -0.173D+00-0.389D+00 0.932D-01 0.134D+01
 Coeff:     -0.968D-03 0.130D-02 0.569D-02 0.633D-02 0.339D-01 0.858D-01
 Coeff:     -0.173D+00-0.389D+00 0.932D-01 0.134D+01
 Gap=     0.032 Goal=   None    Shift=    0.000
 Gap=     0.041 Goal=   None    Shift=    0.000
 RMSDP=5.63D-04 MaxDP=9.40D-02 DE=-1.12D-05 OVMax= 1.33D-02

 Cycle  11  Pass 1  IDiag  1:
 E= -1136.09018444764     Delta-E=       -0.000004083302 Rises=F Damp=F
 DIIS: error= 1.32D-05 at cycle  11 NSaved=  11.
 NSaved=11 IEnMin=11 EnMin= -1136.09018444764     IErMin=11 ErrMin= 1.32D-05
 ErrMax= 1.32D-05  0.00D+00 EMaxC= 1.00D-01 BMatC= 1.01D-07 BMatP= 2.35D-07
 IDIUse=1 WtCom= 1.00D+00 WtEn= 0.00D+00
 Coeff-Com: -0.897D-03 0.116D-02-0.173D-02-0.134D-02 0.267D-01 0.923D-01
 Coeff-Com: -0.702D-02-0.306D+00-0.237D+00 0.733D+00 0.701D+00
 Coeff:     -0.897D-03 0.116D-02-0.173D-02-0.134D-02 0.267D-01 0.923D-01
 Coeff:     -0.702D-02-0.306D+00-0.237D+00 0.733D+00 0.701D+00
 Gap=     0.032 Goal=   None    Shift=    0.000
 Gap=     0.041 Goal=   None    Shift=    0.000
 RMSDP=1.98D-04 MaxDP=3.24D-02 DE=-4.08D-06 OVMax= 4.88D-03

 Cycle  12  Pass 1  IDiag  1:
 E= -1136.09018527128     Delta-E=       -0.000000823636 Rises=F Damp=F
 DIIS: error= 8.81D-06 at cycle  12 NSaved=  12.
 NSaved=12 IEnMin=12 EnMin= -1136.09018527128     IErMin=12 ErrMin= 8.81D-06
 ErrMax= 8.81D-06  0.00D+00 EMaxC= 1.00D-01 BMatC= 2.91D-08 BMatP= 1.01D-07
 IDIUse=1 WtCom= 1.00D+00 WtEn= 0.00D+00
 Coeff-Com:  0.817D-04-0.115D-03-0.213D-02-0.239D-02-0.332D-03 0.228D-02
 Coeff-Com:  0.415D-01 0.187D-01-0.989D-01-0.222D+00 0.271D+00 0.992D+00
 Coeff:      0.817D-04-0.115D-03-0.213D-02-0.239D-02-0.332D-03 0.228D-02
 Coeff:      0.415D-01 0.187D-01-0.989D-01-0.222D+00 0.271D+00 0.992D+00
 Gap=     0.032 Goal=   None    Shift=    0.000
 Gap=     0.041 Goal=   None    Shift=    0.000
 RMSDP=1.40D-04 MaxDP=2.28D-02 DE=-8.24D-07 OVMax= 3.66D-03

 Cycle  13  Pass 1  IDiag  1:
 E= -1136.09018566530     Delta-E=       -0.000000394028 Rises=F Damp=F
 DIIS: error= 4.46D-06 at cycle  13 NSaved=  13.
 NSaved=13 IEnMin=13 EnMin= -1136.09018566530     IErMin=13 ErrMin= 4.46D-06
 ErrMax= 4.46D-06  0.00D+00 EMaxC= 1.00D-01 BMatC= 9.33D-09 BMatP= 2.91D-08
 IDIUse=1 WtCom= 1.00D+00 WtEn= 0.00D+00
 Coeff-Com:  0.279D-03-0.357D-03-0.275D-03-0.383D-03-0.750D-02-0.283D-01
 Coeff-Com:  0.185D-01 0.950D-01 0.490D-01-0.275D+00-0.137D+00 0.585D-01
 Coeff-Com:  0.123D+01
 Coeff:      0.279D-03-0.357D-03-0.275D-03-0.383D-03-0.750D-02-0.283D-01
 Coeff:      0.185D-01 0.950D-01 0.490D-01-0.275D+00-0.137D+00 0.585D-01
 Coeff:      0.123D+01
 Gap=     0.032 Goal=   None    Shift=    0.000
 Gap=     0.041 Goal=   None    Shift=    0.000
 RMSDP=7.65D-05 MaxDP=1.06D-02 DE=-3.94D-07 OVMax= 2.08D-03

 Cycle  14  Pass 1  IDiag  1:
 E= -1136.09018585680     Delta-E=       -0.000000191499 Rises=F Damp=F
 DIIS: error= 3.86D-06 at cycle  14 NSaved=  14.
 NSaved=14 IEnMin=14 EnMin= -1136.09018585680     IErMin=14 ErrMin= 3.86D-06
 ErrMax= 3.86D-06  0.00D+00 EMaxC= 1.00D-01 BMatC= 5.07D-09 BMatP= 9.33D-09
 IDIUse=1 WtCom= 1.00D+00 WtEn= 0.00D+00
 Coeff-Com:  0.586D-04-0.718D-04 0.263D-03 0.321D-03-0.145D-02-0.568D-02
 Coeff-Com: -0.850D-02 0.166D-01 0.411D-01-0.839D-02-0.883D-01-0.296D+00
 Coeff-Com:  0.270D+00 0.108D+01
 Coeff:      0.586D-04-0.718D-04 0.263D-03 0.321D-03-0.145D-02-0.568D-02
 Coeff:     -0.850D-02 0.166D-01 0.411D-01-0.839D-02-0.883D-01-0.296D+00
 Coeff:      0.270D+00 0.108D+01
 Gap=     0.032 Goal=   None    Shift=    0.000
 Gap=     0.041 Goal=   None    Shift=    0.000
 RMSDP=4.66D-05 MaxDP=5.34D-03 DE=-1.91D-07 OVMax= 1.09D-03

 Cycle  15  Pass 1  IDiag  1:
 E= -1136.09018596206     Delta-E=       -0.000000105258 Rises=F Damp=F
 DIIS: error= 4.07D-06 at cycle  15 NSaved=  15.
 NSaved=15 IEnMin=15 EnMin= -1136.09018596206     IErMin=14 ErrMin= 3.86D-06
 ErrMax= 4.07D-06  0.00D+00 EMaxC= 1.00D-01 BMatC= 3.35D-09 BMatP= 5.07D-09
 IDIUse=1 WtCom= 1.00D+00 WtEn= 0.00D+00
 Coeff-Com: -0.186D-03 0.244D-03 0.157D-03 0.704D-05 0.455D-02 0.166D-01
 Coeff-Com: -0.251D-02-0.557D-01-0.460D-01 0.152D+00 0.106D+00 0.138D-01
 Coeff-Com: -0.696D+00-0.147D+00 0.165D+01
 Coeff:     -0.186D-03 0.244D-03 0.157D-03 0.704D-05 0.455D-02 0.166D-01
 Coeff:     -0.251D-02-0.557D-01-0.460D-01 0.152D+00 0.106D+00 0.138D-01
 Coeff:     -0.696D+00-0.147D+00 0.165D+01
 Gap=     0.032 Goal=   None    Shift=    0.000
 Gap=     0.041 Goal=   None    Shift=    0.000
 RMSDP=5.49D-05 MaxDP=5.64D-03 DE=-1.05D-07 OVMax= 1.27D-03

 Cycle  16  Pass 1  IDiag  1:
 E= -1136.09018607428     Delta-E=       -0.000000112221 Rises=F Damp=F
 DIIS: error= 3.33D-06 at cycle  16 NSaved=  16.
 NSaved=16 IEnMin=16 EnMin= -1136.09018607428     IErMin=16 ErrMin= 3.33D-06
 ErrMax= 3.33D-06  0.00D+00 EMaxC= 1.00D-01 BMatC= 2.11D-09 BMatP= 3.35D-09
 IDIUse=1 WtCom= 1.00D+00 WtEn= 0.00D+00
 Coeff-Com:  0.775D-04-0.106D-03-0.581D-03-0.516D-03-0.847D-03-0.361D-02
 Coeff-Com:  0.106D-01 0.207D-01-0.144D-01-0.110D+00 0.369D-01 0.307D+00
 Coeff-Com:  0.233D+00-0.997D+00-0.123D+01 0.274D+01
 Coeff:      0.775D-04-0.106D-03-0.581D-03-0.516D-03-0.847D-03-0.361D-02
 Coeff:      0.106D-01 0.207D-01-0.144D-01-0.110D+00 0.369D-01 0.307D+00
 Coeff:      0.233D+00-0.997D+00-0.123D+01 0.274D+01
 Gap=     0.032 Goal=   None    Shift=    0.000
 Gap=     0.041 Goal=   None    Shift=    0.000
 RMSDP=9.96D-05 MaxDP=1.04D-02 DE=-1.12D-07 OVMax= 2.31D-03

 Cycle  17  Pass 1  IDiag  1:
 E= -1136.09018621843     Delta-E=       -0.000000144145 Rises=F Damp=F
 DIIS: error= 2.17D-06 at cycle  17 NSaved=  17.
 NSaved=17 IEnMin=17 EnMin= -1136.09018621843     IErMin=17 ErrMin= 2.17D-06
 ErrMax= 2.17D-06  0.00D+00 EMaxC= 1.00D-01 BMatC= 8.60D-10 BMatP= 2.11D-09
 IDIUse=1 WtCom= 1.00D+00 WtEn= 0.00D+00
 Coeff-Com:  0.101D-03-0.133D-03-0.341D-03-0.219D-03-0.227D-02-0.937D-02
 Coeff-Com:  0.759D-02 0.306D-01 0.162D-01-0.102D+00-0.505D-01 0.128D-01
 Coeff-Com:  0.466D+00-0.370D-01-0.112D+01 0.241D+00 0.155D+01
 Coeff:      0.101D-03-0.133D-03-0.341D-03-0.219D-03-0.227D-02-0.937D-02
 Coeff:      0.759D-02 0.306D-01 0.162D-01-0.102D+00-0.505D-01 0.128D-01
 Coeff:      0.466D+00-0.370D-01-0.112D+01 0.241D+00 0.155D+01
 Gap=     0.032 Goal=   None    Shift=    0.000
 Gap=     0.041 Goal=   None    Shift=    0.000
 RMSDP=8.07D-05 MaxDP=8.65D-03 DE=-1.44D-07 OVMax= 1.86D-03

 Cycle  18  Pass 1  IDiag  1:
 E= -1136.09018627919     Delta-E=       -0.000000060760 Rises=F Damp=F
 DIIS: error= 8.10D-07 at cycle  18 NSaved=  18.
 NSaved=18 IEnMin=18 EnMin= -1136.09018627919     IErMin=18 ErrMin= 8.10D-07
 ErrMax= 8.10D-07  0.00D+00 EMaxC= 1.00D-01 BMatC= 2.53D-10 BMatP= 8.60D-10
 IDIUse=1 WtCom= 1.00D+00 WtEn= 0.00D+00
 Coeff-Com: -0.967D-05 0.150D-04 0.154D-03 0.943D-04-0.930D-04-0.892D-05
 Coeff-Com: -0.278D-02-0.204D-02 0.469D-02 0.257D-01-0.234D-01-0.105D+00
 Coeff-Com: -0.199D-02 0.331D+00 0.334D+00-0.105D+01 0.198D+00 0.129D+01
 Coeff:     -0.967D-05 0.150D-04 0.154D-03 0.943D-04-0.930D-04-0.892D-05
 Coeff:     -0.278D-02-0.204D-02 0.469D-02 0.257D-01-0.234D-01-0.105D+00
 Coeff:     -0.199D-02 0.331D+00 0.334D+00-0.105D+01 0.198D+00 0.129D+01
 Gap=     0.032 Goal=   None    Shift=    0.000
 Gap=     0.041 Goal=   None    Shift=    0.000
 RMSDP=3.98D-05 MaxDP=4.35D-03 DE=-6.08D-08 OVMax= 9.58D-04

 Cycle  19  Pass 1  IDiag  1:
 E= -1136.09018629163     Delta-E=       -0.000000012445 Rises=F Damp=F
 DIIS: error= 3.09D-07 at cycle  19 NSaved=  19.
 NSaved=19 IEnMin=19 EnMin= -1136.09018629163     IErMin=19 ErrMin= 3.09D-07
 ErrMax= 3.09D-07  0.00D+00 EMaxC= 1.00D-01 BMatC= 5.25D-11 BMatP= 2.53D-10
 IDIUse=1 WtCom= 1.00D+00 WtEn= 0.00D+00
 Coeff-Com: -0.466D-04 0.614D-04 0.986D-04 0.843D-04 0.940D-03 0.359D-02
 Coeff-Com: -0.222D-02-0.115D-01-0.692D-02 0.407D-01 0.157D-01-0.238D-01
 Coeff-Com: -0.161D+00 0.609D-01 0.408D+00-0.215D+00-0.445D+00 0.150D+00
 Coeff-Com:  0.119D+01
 Coeff:     -0.466D-04 0.614D-04 0.986D-04 0.843D-04 0.940D-03 0.359D-02
 Coeff:     -0.222D-02-0.115D-01-0.692D-02 0.407D-01 0.157D-01-0.238D-01
 Coeff:     -0.161D+00 0.609D-01 0.408D+00-0.215D+00-0.445D+00 0.150D+00
 Coeff:      0.119D+01
 Gap=     0.032 Goal=   None    Shift=    0.000
 Gap=     0.040 Goal=   None    Shift=    0.000
 RMSDP=1.12D-05 MaxDP=1.25D-03 DE=-1.24D-08 OVMax= 3.17D-04

 Cycle  20  Pass 1  IDiag  1:
 E= -1136.09018629278     Delta-E=       -0.000000001151 Rises=F Damp=F
 DIIS: error= 1.55D-07 at cycle  20 NSaved=  20.
 NSaved=20 IEnMin=20 EnMin= -1136.09018629278     IErMin=20 ErrMin= 1.55D-07
 ErrMax= 1.55D-07  0.00D+00 EMaxC= 1.00D-01 BMatC= 8.31D-12 BMatP= 5.25D-11
 IDIUse=1 WtCom= 1.00D+00 WtEn= 0.00D+00
 Coeff-Com:  0.618D-05-0.846D-05-0.314D-05 0.210D-05-0.482D-04-0.252D-03
 Coeff-Com:  0.193D-03 0.898D-03 0.132D-02-0.649D-02 0.204D-02 0.203D-01
 Coeff-Com:  0.327D-02-0.503D-01-0.719D-01 0.190D+00-0.310D-01-0.222D+00
 Coeff-Com:  0.238D-01 0.114D+01
 Coeff:      0.618D-05-0.846D-05-0.314D-05 0.210D-05-0.482D-04-0.252D-03
 Coeff:      0.193D-03 0.898D-03 0.132D-02-0.649D-02 0.204D-02 0.203D-01
 Coeff:      0.327D-02-0.503D-01-0.719D-01 0.190D+00-0.310D-01-0.222D+00
 Coeff:      0.238D-01 0.114D+01
 Gap=     0.032 Goal=   None    Shift=    0.000
 Gap=     0.040 Goal=   None    Shift=    0.000
 RMSDP=1.19D-06 MaxDP=8.79D-05 DE=-1.15D-09 OVMax= 2.60D-05

 Cycle  21  Pass 1  IDiag  1:
 E= -1136.09018629285     Delta-E=       -0.000000000063 Rises=F Damp=F
 DIIS: error= 6.23D-08 at cycle  21 NSaved=  20.
 NSaved=20 IEnMin=20 EnMin= -1136.09018629285     IErMin=20 ErrMin= 6.23D-08
 ErrMax= 6.23D-08  0.00D+00 EMaxC= 1.00D-01 BMatC= 1.56D-12 BMatP= 8.31D-12
 IDIUse=1 WtCom= 1.00D+00 WtEn= 0.00D+00
 Coeff-Com:  0.398D-06-0.122D-04-0.148D-04-0.454D-04-0.105D-03 0.165D-03
 Coeff-Com:  0.193D-03-0.107D-03-0.130D-02-0.130D-02-0.193D-02 0.116D-01
 Coeff-Com:  0.247D-02-0.216D-01-0.866D-02 0.454D-01 0.166D-01-0.183D+00
 Coeff-Com: -0.123D+00 0.126D+01
 Coeff:      0.398D-06-0.122D-04-0.148D-04-0.454D-04-0.105D-03 0.165D-03
 Coeff:      0.193D-03-0.107D-03-0.130D-02-0.130D-02-0.193D-02 0.116D-01
 Coeff:      0.247D-02-0.216D-01-0.866D-02 0.454D-01 0.166D-01-0.183D+00
 Coeff:     -0.123D+00 0.126D+01
 Gap=     0.032 Goal=   None    Shift=    0.000
 Gap=     0.040 Goal=   None    Shift=    0.000
 RMSDP=1.05D-06 MaxDP=1.72D-04 DE=-6.32D-11 OVMax= 2.22D-05

 Cycle  22  Pass 1  IDiag  1:
 E= -1136.09018629286     Delta-E=       -0.000000000011 Rises=F Damp=F
 DIIS: error= 2.86D-08 at cycle  22 NSaved=  20.
 NSaved=20 IEnMin=20 EnMin= -1136.09018629286     IErMin=20 ErrMin= 2.86D-08
 ErrMax= 2.86D-08  0.00D+00 EMaxC= 1.00D-01 BMatC= 3.46D-13 BMatP= 1.56D-12
 IDIUse=1 WtCom= 1.00D+00 WtEn= 0.00D+00
 Coeff-Com: -0.349D-05-0.216D-05-0.205D-04-0.451D-04 0.100D-03 0.222D-03
 Coeff-Com: -0.409D-04-0.222D-03-0.591D-03-0.140D-02 0.206D-02 0.531D-02
 Coeff-Com:  0.201D-02-0.196D-01 0.893D-02 0.275D-01 0.556D-02-0.207D+00
 Coeff-Com: -0.545D-01 0.123D+01
 Coeff:     -0.349D-05-0.216D-05-0.205D-04-0.451D-04 0.100D-03 0.222D-03
 Coeff:     -0.409D-04-0.222D-03-0.591D-03-0.140D-02 0.206D-02 0.531D-02
 Coeff:      0.201D-02-0.196D-01 0.893D-02 0.275D-01 0.556D-02-0.207D+00
 Coeff:     -0.545D-01 0.123D+01
 Gap=     0.032 Goal=   None    Shift=    0.000
 Gap=     0.040 Goal=   None    Shift=    0.000
 RMSDP=4.12D-07 MaxDP=3.01D-05 DE=-1.07D-11 OVMax= 8.35D-06

 Cycle  23  Pass 1  IDiag  1:
 E= -1136.09018629286     Delta-E=       -0.000000000007 Rises=F Damp=F
 DIIS: error= 1.56D-08 at cycle  23 NSaved=  20.
 NSaved=20 IEnMin=20 EnMin= -1136.09018629286     IErMin=20 ErrMin= 1.56D-08
 ErrMax= 1.56D-08  0.00D+00 EMaxC= 1.00D-01 BMatC= 7.11D-14 BMatP= 3.46D-13
 IDIUse=1 WtCom= 1.00D+00 WtEn= 0.00D+00
 Coeff-Com: -0.149D-06 0.514D-05 0.667D-05-0.689D-05 0.138D-04-0.469D-04
 Coeff-Com:  0.299D-03 0.892D-04-0.352D-03-0.155D-02 0.117D-02 0.466D-02
 Coeff-Com: -0.498D-02-0.521D-02 0.635D-02 0.269D-01-0.170D-01-0.219D+00
 Coeff-Com:  0.154D+00 0.105D+01
 Coeff:     -0.149D-06 0.514D-05 0.667D-05-0.689D-05 0.138D-04-0.469D-04
 Coeff:      0.299D-03 0.892D-04-0.352D-03-0.155D-02 0.117D-02 0.466D-02
 Coeff:     -0.498D-02-0.521D-02 0.635D-02 0.269D-01-0.170D-01-0.219D+00
 Coeff:      0.154D+00 0.105D+01
 Gap=     0.032 Goal=   None    Shift=    0.000
 Gap=     0.040 Goal=   None    Shift=    0.000
 RMSDP=1.40D-07 MaxDP=1.25D-05 DE=-7.05D-12 OVMax= 3.89D-06

 Cycle  24  Pass 1  IDiag  1:
 E= -1136.09018629286     Delta-E=       -0.000000000001 Rises=F Damp=F
 DIIS: error= 6.78D-09 at cycle  24 NSaved=  20.
 NSaved=20 IEnMin=20 EnMin= -1136.09018629286     IErMin=20 ErrMin= 6.78D-09
 ErrMax= 6.78D-09  0.00D+00 EMaxC= 1.00D-01 BMatC= 1.90D-14 BMatP= 7.11D-14
 IDIUse=1 WtCom= 1.00D+00 WtEn= 0.00D+00
 Coeff-Com:  0.672D-05 0.255D-04-0.319D-04-0.870D-04-0.896D-05 0.191D-03
 Coeff-Com:  0.252D-03 0.181D-03-0.101D-02-0.830D-03 0.898D-03 0.230D-02
 Coeff-Com: -0.256D-02-0.486D-02 0.614D-02 0.395D-01-0.555D-01-0.201D+00
 Coeff-Com:  0.282D+00 0.934D+00
 Coeff:      0.672D-05 0.255D-04-0.319D-04-0.870D-04-0.896D-05 0.191D-03
 Coeff:      0.252D-03 0.181D-03-0.101D-02-0.830D-03 0.898D-03 0.230D-02
 Coeff:     -0.256D-02-0.486D-02 0.614D-02 0.395D-01-0.555D-01-0.201D+00
 Coeff:      0.282D+00 0.934D+00
 Gap=     0.032 Goal=   None    Shift=    0.000
 Gap=     0.040 Goal=   None    Shift=    0.000
 RMSDP=8.83D-08 MaxDP=9.67D-06 DE=-9.09D-13 OVMax= 2.46D-06

 Cycle  25  Pass 1  IDiag  1:
 E= -1136.09018629287     Delta-E=       -0.000000000004 Rises=F Damp=F
 DIIS: error= 3.28D-09 at cycle  25 NSaved=  20.
 NSaved=20 IEnMin=20 EnMin= -1136.09018629287     IErMin=20 ErrMin= 3.28D-09
 ErrMax= 3.28D-09  0.00D+00 EMaxC= 1.00D-01 BMatC= 3.76D-15 BMatP= 1.90D-14
 IDIUse=1 WtCom= 1.00D+00 WtEn= 0.00D+00
 Large coefficients: NSaved= 20 BigCof=    0.00 CofMax=   10.00 Det=-9.69D-15
 Inversion failed.  Reducing to 19 matrices.
 Coeff-Com:  0.276D-05-0.825D-05-0.224D-05-0.376D-04-0.104D-04 0.114D-03
 Coeff-Com:  0.928D-04-0.282D-03-0.481D-03 0.121D-02 0.265D-03-0.236D-02
 Coeff-Com: -0.469D-02 0.114D-01 0.453D-01-0.888D-01-0.150D+00 0.144D+00
 Coeff-Com:  0.104D+01
 Coeff:      0.276D-05-0.825D-05-0.224D-05-0.376D-04-0.104D-04 0.114D-03
 Coeff:      0.928D-04-0.282D-03-0.481D-03 0.121D-02 0.265D-03-0.236D-02
 Coeff:     -0.469D-02 0.114D-01 0.453D-01-0.888D-01-0.150D+00 0.144D+00
 Coeff:      0.104D+01
 Gap=     0.032 Goal=   None    Shift=    0.000
 Gap=     0.040 Goal=   None    Shift=    0.000
 RMSDP=2.68D-08 MaxDP=2.35D-06 DE=-3.64D-12 OVMax= 9.41D-07

 Cycle  26  Pass 1  IDiag  1:
 E= -1136.09018629287     Delta-E=       -0.000000000002 Rises=F Damp=F
 DIIS: error= 1.34D-09 at cycle  26 NSaved=  20.
 NSaved=20 IEnMin=20 EnMin= -1136.09018629287     IErMin=20 ErrMin= 1.34D-09
 ErrMax= 1.34D-09  0.00D+00 EMaxC= 1.00D-01 BMatC= 9.29D-16 BMatP= 3.76D-15
 IDIUse=1 WtCom= 1.00D+00 WtEn= 0.00D+00
 Large coefficients: NSaved= 20 BigCof=    0.00 CofMax=   10.00 Det=-1.58D-15
 Inversion failed.  Reducing to 19 matrices.
 Large coefficients: NSaved= 19 BigCof=    0.00 CofMax=   10.00 Det=-1.58D-15
 Inversion failed.  Reducing to 18 matrices.
 Large coefficients: NSaved= 18 BigCof=    0.00 CofMax=   10.00 Det=-1.59D-15
 Inversion failed.  Reducing to 17 matrices.
 Large coefficients: NSaved= 17 BigCof=    0.00 CofMax=   10.00 Det=-1.59D-15
 Inversion failed.  Reducing to 16 matrices.
 Large coefficients: NSaved= 16 BigCof=    0.00 CofMax=   10.00 Det=-1.62D-15
 Inversion failed.  Reducing to 15 matrices.
 Coeff-Com:  0.222D-04 0.826D-05-0.495D-04-0.246D-03 0.435D-03 0.316D-05
 Coeff-Com: -0.574D-04-0.164D-03-0.347D-02 0.795D-02 0.206D-01-0.627D-01
 Coeff-Com: -0.100D+00 0.119D+00 0.102D+01
 Coeff:      0.222D-04 0.826D-05-0.495D-04-0.246D-03 0.435D-03 0.316D-05
 Coeff:     -0.574D-04-0.164D-03-0.347D-02 0.795D-02 0.206D-01-0.627D-01
 Coeff:     -0.100D+00 0.119D+00 0.102D+01
 Gap=     0.032 Goal=   None    Shift=    0.000
 Gap=     0.040 Goal=   None    Shift=    0.000
 RMSDP=1.53D-08 MaxDP=1.54D-06 DE=-2.27D-12 OVMax= 1.82D-07

 Cycle  27  Pass 1  IDiag  1:
 E= -1136.09018629287     Delta-E=        0.000000000005 Rises=F Damp=F
 DIIS: error= 1.27D-09 at cycle  27 NSaved=  16.
 NSaved=16 IEnMin=15 EnMin= -1136.09018629287     IErMin=16 ErrMin= 1.27D-09
 ErrMax= 1.27D-09  0.00D+00 EMaxC= 1.00D-01 BMatC= 3.87D-16 BMatP= 9.29D-16
 IDIUse=1 WtCom= 1.00D+00 WtEn= 0.00D+00
 Large coefficients: NSaved= 16 BigCof=    0.00 CofMax=   10.00 Det=-6.99D-16
 Inversion failed.  Reducing to 15 matrices.
 Coeff-Com:  0.326D-04-0.325D-04-0.101D-03-0.828D-06 0.205D-03 0.407D-03
 Coeff-Com: -0.214D-03-0.279D-02-0.169D-02 0.199D-01 0.302D-02-0.854D-01
 Coeff-Com: -0.190D+00 0.413D+00 0.844D+00
 Coeff:      0.326D-04-0.325D-04-0.101D-03-0.828D-06 0.205D-03 0.407D-03
 Coeff:     -0.214D-03-0.279D-02-0.169D-02 0.199D-01 0.302D-02-0.854D-01
 Coeff:     -0.190D+00 0.413D+00 0.844D+00
 Gap=     0.032 Goal=   None    Shift=    0.000
 Gap=     0.040 Goal=   None    Shift=    0.000
 RMSDP=6.85D-09 MaxDP=8.84D-07 DE= 4.77D-12 OVMax= 1.34D-07

 SCF Done:  E(UB3LYP) =  -1136.09018629     A.U. after   27 cycles
            NFock= 27  Conv=0.68D-08     -V/T= 2.0026
 <Sx>= 0.0000 <Sy>= 0.0000 <Sz>= 0.5000 <S**2>= 0.7663 S= 0.5081
 <L.S>= 0.000000000000E+00
 KE= 1.133174077323D+03 PE=-3.415395348363D+03 EE= 8.029913272807D+02
 Annihilation of the first spin contaminant:
 S**2 before annihilation     0.7663,   after     0.7502
 Leave Link  502 at Mon Nov 13 15:39:40 2023, MaxMem=  1879048192 cpu:             254.4 elap:              21.9
 (Enter /home/sekinelabo/g16/l601.exe)
 Copying SCF densities to generalized density rwf, IOpCl= 1 IROHF=0.

 **********************************************************************

            Population analysis using the SCF Density.

 **********************************************************************

 Orbital symmetries:
 Alpha Orbitals:
       Occupied  (A) (A) (A) (A) (A) (A) (A) (A) (A) (A) (A) (A)
                 (A) (A) (A) (A) (A) (A) (A) (A) (A) (A) (A) (A)
                 (A) (A) (A) (A) (A) (A) (A) (A) (A) (A) (A) (A)
                 (A) (A) (A)
       Virtual   (A) (A) (A) (A) (A) (A) (A) (A) (A) (A) (A) (A)
                 (A) (A) (A) (A) (A) (A) (A) (A) (A) (A) (A) (A)
                 (A) (A) (A) (A) (A) (A) (A) (A) (A) (A) (A) (A)
                 (A) (A) (A) (A) (A) (A) (A) (A) (A) (A) (A) (A)
                 (A) (A) (A) (A) (A) (A) (A) (A) (A) (A) (A) (A)
                 (A) (A) (A) (A) (A) (A) (A) (A) (A) (A) (A) (A)
                 (A) (A) (A) (A) (A) (A) (A) (A) (A) (A) (A) (A)
                 (A) (A) (A) (A) (A) (A) (A) (A) (A) (A) (A) (A)
                 (A) (A) (A) (A) (A) (A) (A) (A) (A) (A) (A) (A)
                 (A) (A) (A) (A) (A) (A) (A) (A) (A) (A) (A) (A)
                 (A) (A) (A) (A) (A) (A) (A) (A) (A) (A) (A) (A)
                 (A) (A) (A) (A) (A) (A) (A) (A) (A) (A) (A) (A)
                 (A) (A) (A) (A) (A) (A) (A) (A) (A) (A) (A) (A)
                 (A) (A) (A) (A) (A) (A) (A) (A) (A) (A) (A) (A)
                 (A) (A) (A)
 Beta  Orbitals:
       Occupied  (A) (A) (A) (A) (A) (A) (A) (A) (A) (A) (A) (A)
                 (A) (A) (A) (A) (A) (A) (A) (A) (A) (A) (A) (A)
                 (A) (A) (A) (A) (A) (A) (A) (A) (A) (A) (A) (A)
                 (A) (A)
       Virtual   (A) (A) (A) (A) (A) (A) (A) (A) (A) (A) (A) (A)
                 (A) (A) (A) (A) (A) (A) (A) (A) (A) (A) (A) (A)
                 (A) (A) (A) (A) (A) (A) (A) (A) (A) (A) (A) (A)
                 (A) (A) (A) (A) (A) (A) (A) (A) (A) (A) (A) (A)
                 (A) (A) (A) (A) (A) (A) (A) (A) (A) (A) (A) (A)
                 (A) (A) (A) (A) (A) (A) (A) (A) (A) (A) (A) (A)
                 (A) (A) (A) (A) (A) (A) (A) (A) (A) (A) (A) (A)
                 (A) (A) (A) (A) (A) (A) (A) (A) (A) (A) (A) (A)
                 (A) (A) (A) (A) (A) (A) (A) (A) (A) (A) (A) (A)
                 (A) (A) (A) (A) (A) (A) (A) (A) (A) (A) (A) (A)
                 (A) (A) (A) (A) (A) (A) (A) (A) (A) (A) (A) (A)
                 (A) (A) (A) (A) (A) (A) (A) (A) (A) (A) (A) (A)
                 (A) (A) (A) (A) (A) (A) (A) (A) (A) (A) (A) (A)
                 (A) (A) (A) (A) (A) (A) (A) (A) (A) (A) (A) (A)
                 (A) (A) (A) (A)
 The electronic state is 2-A.
 Alpha  occ. eigenvalues --  -38.45555 -38.44947 -38.44443 -38.44433 -38.43745
 Alpha  occ. eigenvalues --  -38.43439 -38.43289  -2.21544  -2.21005  -2.20455
 Alpha  occ. eigenvalues --   -2.20238  -2.19719  -2.19524  -2.19182  -1.15279
 Alpha  occ. eigenvalues --   -1.15199  -1.15176  -1.14751  -1.14662  -1.14622
 Alpha  occ. eigenvalues --   -1.14143  -1.14090  -1.14046  -1.13948  -1.13879
 Alpha  occ. eigenvalues --   -1.13870  -1.13443  -1.13387  -1.13325  -1.13229
 Alpha  occ. eigenvalues --   -1.13216  -1.13153  -1.12842  -1.12812  -1.12794
 Alpha  occ. eigenvalues --   -0.19488  -0.14874  -0.11468  -0.10689
 Alpha virt. eigenvalues --   -0.07516  -0.05587  -0.04494  -0.03189  -0.02925
 Alpha virt. eigenvalues --   -0.02137  -0.01783  -0.01093  -0.00841  -0.00326
 Alpha virt. eigenvalues --   -0.00071   0.00224   0.00249   0.00561   0.00698
 Alpha virt. eigenvalues --    0.00798   0.00973   0.01034   0.01176   0.01422
 Alpha virt. eigenvalues --    0.01556   0.01700   0.01840   0.01855   0.01968
 Alpha virt. eigenvalues --    0.02084   0.02288   0.02429   0.02615   0.02654
 Alpha virt. eigenvalues --    0.02725   0.02751   0.02831   0.02884   0.02987
 Alpha virt. eigenvalues --    0.02998   0.03136   0.03336   0.03492   0.03724
 Alpha virt. eigenvalues --    0.03855   0.04192   0.04455   0.04773   0.05122
 Alpha virt. eigenvalues --    0.05347   0.05659   0.05768   0.05934   0.06124
 Alpha virt. eigenvalues --    0.06192   0.06240   0.06554   0.07017   0.07162
 Alpha virt. eigenvalues --    0.07795   0.07929   0.08107   0.08400   0.08597
 Alpha virt. eigenvalues --    0.09027   0.09231   0.09591   0.11078   0.11490
 Alpha virt. eigenvalues --    0.11748   0.11924   0.12122   0.12665   0.13269
 Alpha virt. eigenvalues --    0.13732   0.14037   0.14187   0.14420   0.14967
 Alpha virt. eigenvalues --    0.15426   0.16340   0.16530   0.17300   0.19381
 Alpha virt. eigenvalues --    0.23219   0.26767   0.27251   0.29389   0.29617
 Alpha virt. eigenvalues --    0.30113   0.30676   0.31999   0.32798   0.33223
 Alpha virt. eigenvalues --    0.34485   0.35533   0.35928   0.36442   0.37661
 Alpha virt. eigenvalues --    0.37801   0.38144   0.39581   0.40489   0.41336
 Alpha virt. eigenvalues --    0.42524   0.42763   0.43031   0.43602   0.43868
 Alpha virt. eigenvalues --    0.44190   0.44700   0.45094   0.45343   0.46082
 Alpha virt. eigenvalues --    0.46629   0.47093   0.47439   0.47812   0.48231
 Alpha virt. eigenvalues --    0.48609   0.49682   0.51977   0.52198   0.52471
 Alpha virt. eigenvalues --    0.53021   0.53629   0.54275   0.55686   0.56346
 Alpha virt. eigenvalues --    0.57705   0.65382   0.69294   0.70193   0.70587
 Alpha virt. eigenvalues --    0.71208   0.72312   0.72707   0.73899   0.77928
 Alpha virt. eigenvalues --    0.79455   2.09155   2.11480   2.15267   2.20942
 Alpha virt. eigenvalues --    2.22189   2.28028   2.32394   4.39932   4.41049
 Alpha virt. eigenvalues --    4.41426   4.41644   4.42458   4.42821   4.43790
 Alpha virt. eigenvalues --    4.44613   4.45482   4.46061   4.47271   4.50602
 Alpha virt. eigenvalues --    4.55823   4.56425   4.56955   4.63011   4.66369
 Alpha virt. eigenvalues --    4.73901   4.75123   4.77036   4.77375  96.29862
 Alpha virt. eigenvalues --   96.32942  96.38132  96.45923  96.48327  96.55138
 Alpha virt. eigenvalues --   96.61214
  Beta  occ. eigenvalues --  -38.45518 -38.44903 -38.44413 -38.44378 -38.43737
  Beta  occ. eigenvalues --  -38.43415 -38.43293  -2.21480  -2.20932  -2.20337
  Beta  occ. eigenvalues --   -2.20199  -2.19708  -2.19487  -2.19190  -1.15243
  Beta  occ. eigenvalues --   -1.15155  -1.15090  -1.14692  -1.14613  -1.14536
  Beta  occ. eigenvalues --   -1.14065  -1.14009  -1.13949  -1.13923  -1.13852
  Beta  occ. eigenvalues --   -1.13845  -1.13428  -1.13382  -1.13302  -1.13210
  Beta  occ. eigenvalues --   -1.13199  -1.13072  -1.12845  -1.12814  -1.12794
  Beta  occ. eigenvalues --   -0.18765  -0.14633  -0.11313
  Beta virt. eigenvalues --   -0.07263  -0.06712  -0.05437  -0.03978  -0.03069
  Beta virt. eigenvalues --   -0.02805  -0.01686  -0.01036  -0.00949  -0.00435
  Beta virt. eigenvalues --   -0.00191   0.00060   0.00295   0.00432   0.00615
  Beta virt. eigenvalues --    0.00761   0.00933   0.01041   0.01129   0.01247
  Beta virt. eigenvalues --    0.01502   0.01717   0.01812   0.01904   0.01978
  Beta virt. eigenvalues --    0.02061   0.02184   0.02362   0.02512   0.02657
  Beta virt. eigenvalues --    0.02683   0.02751   0.02826   0.02933   0.02958
  Beta virt. eigenvalues --    0.03032   0.03062   0.03231   0.03404   0.03582
  Beta virt. eigenvalues --    0.03780   0.03880   0.04290   0.04563   0.04920
  Beta virt. eigenvalues --    0.05311   0.05478   0.05746   0.05849   0.06041
  Beta virt. eigenvalues --    0.06170   0.06255   0.06359   0.06754   0.07131
  Beta virt. eigenvalues --    0.07316   0.07944   0.08158   0.08200   0.08553
  Beta virt. eigenvalues --    0.08730   0.09169   0.09301   0.09704   0.11203
  Beta virt. eigenvalues --    0.11635   0.12133   0.12282   0.12366   0.12957
  Beta virt. eigenvalues --    0.13476   0.13960   0.14157   0.14371   0.14571
  Beta virt. eigenvalues --    0.15130   0.15635   0.16503   0.16810   0.17528
  Beta virt. eigenvalues --    0.19563   0.23339   0.27286   0.27573   0.29546
  Beta virt. eigenvalues --    0.29929   0.30228   0.31026   0.32162   0.32974
  Beta virt. eigenvalues --    0.33452   0.34669   0.35781   0.36122   0.36703
  Beta virt. eigenvalues --    0.37890   0.38150   0.38301   0.39731   0.40864
  Beta virt. eigenvalues --    0.41706   0.42606   0.43204   0.43220   0.43762
  Beta virt. eigenvalues --    0.44071   0.44421   0.44824   0.45315   0.45428
  Beta virt. eigenvalues --    0.46229   0.46766   0.47304   0.47623   0.47989
  Beta virt. eigenvalues --    0.48333   0.48863   0.49846   0.52153   0.52434
  Beta virt. eigenvalues --    0.52677   0.53188   0.53833   0.54378   0.55877
  Beta virt. eigenvalues --    0.56452   0.57799   0.65486   0.69637   0.70239
  Beta virt. eigenvalues --    0.70743   0.71432   0.72465   0.72816   0.73976
  Beta virt. eigenvalues --    0.77987   0.79463   2.09226   2.11568   2.15353
  Beta virt. eigenvalues --    2.21008   2.22414   2.28142   2.32473   4.39968
  Beta virt. eigenvalues --    4.41102   4.41502   4.41721   4.42538   4.42850
  Beta virt. eigenvalues --    4.43857   4.44655   4.45510   4.46094   4.47280
  Beta virt. eigenvalues --    4.50657   4.55950   4.56527   4.56975   4.63030
  Beta virt. eigenvalues --    4.66383   4.73952   4.75154   4.77065   4.77419
  Beta virt. eigenvalues --   96.29888  96.32976  96.38160  96.45945  96.48397
  Beta virt. eigenvalues --   96.55180  96.61242
          Condensed to atoms (all electrons):
               1          2          3          4          5          6
     1  Na  18.714736  -2.427852  -2.432234  -0.291802   0.857891  -3.687223
     2  Na  -2.427852  14.968390  -0.725585  -2.860692   0.562440   0.472148
     3  Na  -2.432234  -0.725585  13.426681  -0.199674  -0.229911   1.552957
     4  Na  -0.291802  -2.860692  -0.199674  15.506753  -0.605610  -0.249257
     5  Na   0.857891   0.562440  -0.229911  -0.605610  11.829466  -1.717211
     6  Na  -3.687223   0.472148   1.552957  -0.249257  -1.717211  15.308345
     7  Na   1.224293  -0.415997  -0.440696   0.559561   0.540678  -1.596646
               7
     1  Na   1.224293
     2  Na  -0.415997
     3  Na  -0.440696
     4  Na   0.559561
     5  Na   0.540678
     6  Na  -1.596646
     7  Na  11.466472
          Atomic-Atomic Spin Densities.
               1          2          3          4          5          6
     1  Na   5.219050  -1.826261  -0.966084  -0.360152   0.030539  -2.032570
     2  Na  -1.826261   0.935632   0.416188  -0.295314  -0.090425   1.121861
     3  Na  -0.966084   0.416188   0.409889   0.139871   0.047730   0.275248
     4  Na  -0.360152  -0.295314   0.139871   0.973510   0.120843  -0.439432
     5  Na   0.030539  -0.090425   0.047730   0.120843  -0.060212  -0.126482
     6  Na  -2.032570   1.121861   0.275248  -0.439432  -0.126482   1.561972
     7  Na   0.582848  -0.322824  -0.080295   0.123367   0.092930  -0.531229
               7
     1  Na   0.582848
     2  Na  -0.322824
     3  Na  -0.080295
     4  Na   0.123367
     5  Na   0.092930
     6  Na  -0.531229
     7  Na   0.199445
 Mulliken charges and spin densities:
               1          2
     1  Na  -0.957809   0.647369
     2  Na   1.427148  -0.061143
     3  Na   0.048461   0.242548
     4  Na  -0.859279   0.262694
     5  Na  -0.237743   0.014923
     6  Na   0.916887  -0.170632
     7  Na  -0.337664   0.064241
 Sum of Mulliken charges =  -0.00000   1.00000
 Mulliken charges and spin densities with hydrogens summed into heavy atoms:
               1          2
     1  Na  -0.957809   0.647369
     2  Na   1.427148  -0.061143
     3  Na   0.048461   0.242548
     4  Na  -0.859279   0.262694
     5  Na  -0.237743   0.014923
     6  Na   0.916887  -0.170632
     7  Na  -0.337664   0.064241
 Electronic spatial extent (au):  <R**2>=           2661.4924
 Charge=             -0.0000 electrons
 Dipole moment (field-independent basis, Debye):
    X=             -1.0042    Y=             -0.1067    Z=              0.1367  Tot=              1.0190
 Quadrupole moment (field-independent basis, Debye-Ang):
   XX=            -52.3074   YY=            -71.7682   ZZ=            -72.5988
   XY=              1.5516   XZ=              5.6442   YZ=             -3.7587
 Traceless Quadrupole moment (field-independent basis, Debye-Ang):
   XX=             13.2507   YY=             -6.2101   ZZ=             -7.0407
   XY=              1.5516   XZ=              5.6442   YZ=             -3.7587
 Octapole moment (field-independent basis, Debye-Ang**2):
  XXX=            -27.4655  YYY=              6.0299  ZZZ=             -2.0444  XYY=              6.5951
  XXY=              3.8758  XXZ=             -3.3508  XZZ=             -0.4611  YZZ=             -3.4144
  YYZ=              9.2596  XYZ=              1.0108
 Hexadecapole moment (field-independent basis, Debye-Ang**3):
 XXXX=          -2490.2806 YYYY=          -1133.4626 ZZZZ=           -699.7651 XXXY=            -61.2598
 XXXZ=            199.3623 YYYX=             50.3063 YYYZ=            -20.8385 ZZZX=             13.9792
 ZZZY=            -31.3625 XXYY=           -629.7535 XXZZ=           -556.3626 YYZZ=           -305.4613
 XXYZ=            -54.3138 YYXZ=             11.4407 ZZXY=             18.3851
 N-N= 3.431397574660D+02 E-N=-3.415395348469D+03  KE= 1.133174077323D+03
                          Isotropic Fermi Contact Couplings
        Atom                 a.u.       MegaHertz       Gauss      10(-4) cm-1
     1  Na(23)             0.10871     128.61044      45.89140      42.89983
     2  Na(23)             0.10311     121.98662      43.52786      40.69036
     3  Na(23)             0.26087     308.61407     110.12117     102.94257
     4  Na(23)             0.02303      27.24350       9.72116       9.08745
     5  Na(23)            -0.02856     -33.79125     -12.05756     -11.27155
     6  Na(23)            -0.00379      -4.48957      -1.60199      -1.49756
     7  Na(23)             0.09137     108.08978      38.56912      36.05487
 --------------------------------------------------------
       Center         ----  Spin Dipole Couplings  ----
                      3XX-RR        3YY-RR        3ZZ-RR
 --------------------------------------------------------
     1   Atom       -0.033250     -0.021761      0.055010
     2   Atom        0.001138     -0.024472      0.023335
     3   Atom       -0.007313      0.007767     -0.000454
     4   Atom       -0.025544     -0.035521      0.061065
     5   Atom       -0.003542     -0.003092      0.006634
     6   Atom        0.024965     -0.022344     -0.002621
     7   Atom       -0.001073      0.001193     -0.000120
 --------------------------------------------------------
                        XY            XZ            YZ
 --------------------------------------------------------
     1   Atom        0.003466      0.013312     -0.020808
     2   Atom       -0.001112     -0.037737      0.004254
     3   Atom        0.005996      0.006091      0.019623
     4   Atom       -0.000867     -0.015903     -0.012225
     5   Atom        0.004297     -0.000046      0.001205
     6   Atom       -0.000777      0.020058      0.000671
     7   Atom        0.000258     -0.002000      0.000661
 --------------------------------------------------------


 ---------------------------------------------------------------------------------
              Anisotropic Spin Dipole Couplings in Principal Axis System
 ---------------------------------------------------------------------------------

       Atom             a.u.   MegaHertz   Gauss  10(-4) cm-1        Axes

              Baa    -0.0385    -5.443    -1.942    -1.815  0.8616 -0.4556 -0.2239
     1 Na(23) Bbb    -0.0233    -3.288    -1.173    -1.097  0.4916  0.8587  0.1446
              Bcc     0.0618     8.730     3.115     2.912  0.1264 -0.2347  0.9638
 
              Baa    -0.0279    -3.946    -1.408    -1.316  0.6997 -0.4530  0.5525
     2 Na(23) Bbb    -0.0238    -3.368    -1.202    -1.123  0.3920  0.8899  0.2333
              Bcc     0.0518     7.313     2.610     2.439 -0.5974  0.0533  0.8002
 
              Baa    -0.0165    -2.332    -0.832    -0.778 -0.1268 -0.6044  0.7866
     3 Na(23) Bbb    -0.0094    -1.323    -0.472    -0.441  0.9604 -0.2731 -0.0550
              Bcc     0.0259     3.655     1.304     1.219  0.2481  0.7484  0.6151
 
              Baa    -0.0379    -5.346    -1.907    -1.783  0.2752  0.9478  0.1614
     4 Na(23) Bbb    -0.0274    -3.875    -1.383    -1.293  0.9462 -0.2967  0.1290
              Bcc     0.0653     9.221     3.290     3.076 -0.1702 -0.1172  0.9784
 
              Baa    -0.0077    -1.083    -0.387    -0.361  0.7200 -0.6913  0.0606
     5 Na(23) Bbb     0.0009     0.122     0.044     0.041  0.6918  0.7080 -0.1424
              Bcc     0.0068     0.961     0.343     0.321  0.0555  0.1444  0.9880
 
              Baa    -0.0224    -3.169    -1.131    -1.057  0.0534  0.9947 -0.0877
     6 Na(23) Bbb    -0.0131    -1.846    -0.659    -0.616 -0.4624  0.1025  0.8808
              Bcc     0.0355     5.015     1.790     1.673  0.8851 -0.0065  0.4654
 
              Baa    -0.0027    -0.388    -0.138    -0.129  0.7672 -0.1546  0.6225
     7 Na(23) Bbb     0.0010     0.143     0.051     0.048  0.4848  0.7752 -0.4050
              Bcc     0.0017     0.245     0.088     0.082 -0.4200  0.6125  0.6696
 

 ---------------------------------------------------------------------------------

 No NMR shielding tensors so no spin-rotation constants.
 Leave Link  601 at Mon Nov 13 15:39:41 2023, MaxMem=  1879048192 cpu:               2.6 elap:               0.2
 (Enter /home/sekinelabo/g16/l701.exe)
 ... and contract with generalized density number  0.
 Compute integral first derivatives.
 Leave Link  701 at Mon Nov 13 15:39:41 2023, MaxMem=  1879048192 cpu:               1.7 elap:               0.1
 (Enter /home/sekinelabo/g16/l702.exe)
 L702 exits ... SP integral derivatives will be done elsewhere.
 Leave Link  702 at Mon Nov 13 15:39:41 2023, MaxMem=  1879048192 cpu:               0.5 elap:               0.0
 (Enter /home/sekinelabo/g16/l703.exe)
 Integral derivatives from FoFJK, PRISM(SPDF).
 Compute integral first derivatives, UseDBF=F ICtDFT=           0.
 Calling FoFJK, ICntrl=      2127 FMM=F ISym2X=0 I1Cent= 0 IOpClX= 1 NMat=1 NMatS=1 NMatT=0.
 FoFJK:  IHMeth= 1 ICntrl=    2127 DoSepK=F KAlg= 0 I1Cent=           0 FoldK=F
 IRaf=         0 NMat=       1 IRICut=       1 DoRegI=T DoRafI=F ISym2E= 0 IDoP0=0 IntGTp=1.
 FoFCou: FMM=F IPFlag=           0 FMFlag=      100000 FMFlg1=         800
         NFxFlg=           0 DoJE=F BraDBF=F KetDBF=F FulRan=T
         wScrn=  0.000000 ICntrl=      2127 IOpCl=  1 I1Cent=           0 NGrid=           0
         NMat0=    1 NMatS0=      1 NMatT0=    0 NMatD0=    1 NMtDS0=    0 NMtDT0=    0
 Symmetry not used in FoFCou.
 Leave Link  703 at Mon Nov 13 15:39:43 2023, MaxMem=  1879048192 cpu:              34.5 elap:               2.2
 (Enter /home/sekinelabo/g16/l716.exe)
 Dipole        =-3.95063876D-01-4.19954582D-02 5.37859899D-02
 ***** Axes restored to original set *****
 -------------------------------------------------------------------
 Center     Atomic                   Forces (Hartrees/Bohr)
 Number     Number              X              Y              Z
 -------------------------------------------------------------------
      1       11          -0.007759361   -0.008200020    0.006822512
      2       11           0.009114694   -0.001959006    0.011578292
      3       11           0.005778557   -0.008232279   -0.014929616
      4       11          -0.001923246    0.014534051   -0.005100471
      5       11          -0.000832891    0.007037252   -0.002889441
      6       11          -0.003541595   -0.000036185    0.006294400
      7       11          -0.000836158   -0.003143812   -0.001775676
 -------------------------------------------------------------------
 Cartesian Forces:  Max     0.014929616 RMS     0.007186097
 Z-matrix is all fixed cartesians, so copy forces.
 Force constants in Cartesian coordinates: 
                1             2             3             4             5 
      1  0.126239D+00
      2  0.394348D-02  0.117130D+00
      3 -0.151510D-01 -0.135638D-01  0.850691D-01
      4 -0.437789D-01 -0.203527D-02 -0.195107D-01  0.814767D-01
      5 -0.189096D-01 -0.221715D-01 -0.113317D-01 -0.664392D-03  0.460063D-01
      6  0.807938D-02  0.812598D-03 -0.115704D-01  0.283931D-01  0.358520D-02
      7 -0.281368D-01  0.133484D-01  0.231191D-01 -0.104331D-01 -0.943568D-02
      8 -0.752200D-02 -0.125505D-01  0.151983D-01  0.426700D-02 -0.907108D-02
      9  0.928097D-02 -0.855908D-02 -0.373350D-01  0.317310D-02 -0.193892D-01
     10 -0.257575D-01 -0.136222D-01  0.984885D-02 -0.267603D-01  0.255143D-01
     11  0.207660D-02 -0.403320D-01  0.106847D-01 -0.179165D-02 -0.218032D-01
     12  0.434869D-02  0.159889D-01 -0.149826D-01 -0.556401D-02  0.247169D-01
     13  0.458279D-02  0.483766D-02 -0.324182D-02  0.709255D-03  0.301985D-03
     14  0.534343D-02 -0.520502D-02  0.145858D-02  0.258378D-02  0.714161D-03
     15 -0.311982D-02  0.869310D-03  0.153096D-02 -0.540614D-02  0.503762D-04
     16 -0.310328D-01 -0.283445D-02  0.832746D-02 -0.121435D-02  0.318644D-02
     17  0.131100D-01 -0.402219D-01 -0.563232D-02 -0.236205D-02  0.630027D-02
     18 -0.440081D-02  0.278426D-02 -0.242127D-01 -0.108209D-02  0.239959D-02
     19 -0.211607D-02 -0.363760D-02 -0.339187D-02  0.000000D+00  0.697010D-05
     20  0.195811D-02  0.335133D-02  0.318629D-02  0.257912D-05  0.250828D-04
     21  0.962592D-03  0.166781D-02  0.150071D-02 -0.320313D-05 -0.311516D-04
                6             7             8             9            10 
      6  0.748321D-01
      7 -0.251744D-01  0.553426D-01
      8 -0.822969D-02 -0.104121D-01  0.600029D-01
      9 -0.409533D-01 -0.114003D-01  0.256752D-01  0.869160D-01
     10 -0.119769D-01 -0.197323D-01  0.123369D-01 -0.158456D-02  0.114983D+00
     11  0.385977D-02  0.137675D-02 -0.427056D-01  0.259257D-02 -0.834212D-02
     12 -0.297093D-01  0.541718D-02 -0.291243D-01 -0.143720D-01 -0.840119D-02
     13 -0.502459D-03  0.295512D-02  0.867327D-03  0.568724D-03 -0.382338D-01
     14 -0.211913D-02  0.665366D-02  0.201125D-02  0.118725D-02 -0.107649D-01
     15  0.572845D-02  0.305531D-02  0.619063D-03  0.119789D-02  0.880357D-02
     16  0.119862D-02  0.123784D-04  0.478542D-03 -0.314810D-04 -0.448261D-02
     17  0.215382D-02 -0.150237D-02  0.236926D-02 -0.148360D-02 -0.511842D-02
     18  0.159467D-02  0.494750D-02 -0.420849D-02  0.451761D-02  0.328618D-02
     19 -0.173887D-04 -0.796129D-05 -0.156438D-04 -0.643544D-05 -0.163613D-04
     20 -0.625754D-04 -0.286497D-04 -0.562964D-04 -0.231588D-04 -0.353119D-05
     21  0.777154D-04  0.355815D-04  0.699172D-04  0.287620D-04  0.240108D-04
               11            12            13            14            15 
     11  0.125999D+00
     12 -0.188280D-01  0.787861D-01
     13  0.113683D-01  0.220319D-03  0.494993D-01
     14 -0.266042D-01  0.749032D-02 -0.573367D-02  0.567169D-01
     15  0.235510D-02 -0.199380D-01 -0.320116D-02 -0.184626D-01  0.252341D-01
     16 -0.466059D-02  0.403923D-02 -0.191774D-01  0.202561D-02  0.278903D-03
     17  0.544433D-02 -0.236858D-03 -0.828143D-02 -0.265400D-01  0.187047D-01
     18 -0.697575D-03  0.132860D-03  0.274688D-02  0.933783D-02 -0.179475D-01
     19 -0.273260D-04 -0.602241D-04 -0.335259D-03 -0.107908D-03 -0.410648D-03
     20  0.153337D-05 -0.690223D-05 -0.336021D-02 -0.109315D-02 -0.413593D-02
     21  0.335079D-04  0.829720D-04  0.340952D-02  0.110772D-02  0.419407D-02
               16            17            18            19            20 
     16  0.750208D-01
     17  0.966185D-02  0.703146D-01
     18  0.209896D-02 -0.332464D-02  0.576992D-01
     19 -0.191260D-01 -0.550759D-02 -0.759661D-02  0.216009D-01
     20 -0.785740D-02 -0.176666D-01 -0.629098D-02  0.928910D-02  0.154381D-01
     21 -0.159117D-01 -0.101811D-01 -0.217841D-01  0.114832D-01  0.733327D-02
               21 
     21  0.158998D-01
 Leave Link  716 at Mon Nov 13 15:39:43 2023, MaxMem=  1879048192 cpu:               0.5 elap:               0.0
 (Enter /home/sekinelabo/g16/l103.exe)

 GradGradGradGradGradGradGradGradGradGradGradGradGradGradGradGradGradGrad
 Berny optimization.
 Search for a local minimum.
 Step number   1 out of a maximum of    2
 All quantities printed in internal units (Hartrees-Bohrs-Radians)
 Second derivative matrix not updated -- first step.
 ITU=  0
     Eigenvalues ---    0.00645   0.01402   0.02492   0.04014   0.04842
     Eigenvalues ---    0.06665   0.08656   0.09621   0.11185   0.12754
     Eigenvalues ---    0.13255   0.14565   0.16098   0.18619   0.19084
 Quadratic step=3.821D-01 exceeds max=3.000D-01 adjusted using Lamda=-1.108D-02.
 Angle between NR and scaled steps=  11.28 degrees.
 Angle between quadratic step and forces=  30.47 degrees.
 Linear search not attempted -- first point.
 B after Tr=     0.000000   -0.000000    0.000000
         Rot=    1.000000    0.000000    0.000000    0.000000 Ang=   0.00 deg.
 Variable       Old X    -DE/DX   Delta X   Delta X   Delta X     New X
                                 (Linear)    (Quad)   (Total)
    X1        9.04987  -0.00776   0.00000  -0.04035  -0.04035   9.00952
    Y1        0.40538  -0.00820   0.00000  -0.04034  -0.04034   0.36503
    Z1        4.22113   0.00682   0.00000   0.03422   0.03422   4.25535
    X2       14.39209   0.00911   0.00000   0.07774   0.07774  14.46982
    Y2        2.07751  -0.00196   0.00000  -0.06557  -0.06557   2.01194
    Z2        5.11158   0.01158   0.00000   0.07794   0.07794   5.18952
    X3       12.82001   0.00578   0.00000   0.06524   0.06524  12.88525
    Y3        0.22317  -0.00823   0.00000  -0.05001  -0.05001   0.17316
    Z3        0.00000  -0.01493   0.00000  -0.11065  -0.11065  -0.11065
    X4       10.94763  -0.00192   0.00000   0.02764   0.02764  10.97527
    Y4        5.21923   0.01453   0.00000   0.08963   0.08963   5.30886
    Z4        1.89556  -0.00510   0.00000  -0.02547  -0.02547   1.87008
    X5        5.71454  -0.00083   0.00000  -0.02489  -0.02489   5.68964
    Y5        7.38574   0.00704   0.00000   0.13332   0.13332   7.51906
    Z5        2.24475  -0.00289   0.00000  -0.03721  -0.03721   2.20754
    X6        3.91574  -0.00354   0.00000  -0.07917  -0.07917   3.83657
    Y6        2.72306  -0.00004   0.00000   0.02845   0.02845   2.75150
    Z6        4.93854   0.00629   0.00000   0.06695   0.06695   5.00550
    X7        0.00000  -0.00084   0.00000  -0.02620  -0.02620  -0.02620
    Y7        0.00000  -0.00314   0.00000  -0.09547  -0.09547  -0.09547
    Z7        1.86983  -0.00178   0.00000  -0.00578  -0.00578   1.86405
         Item               Value     Threshold  Converged?
 Maximum Force            0.014930     0.000450     NO 
 RMS     Force            0.007186     0.000300     NO 
 Maximum Displacement     0.133321     0.001800     NO 
 RMS     Displacement     0.065634     0.001200     NO 
 Predicted change in Energy=-4.769250D-03
 GradGradGradGradGradGradGradGradGradGradGradGradGradGradGradGradGradGrad

 Leave Link  103 at Mon Nov 13 15:39:43 2023, MaxMem=  1879048192 cpu:               0.3 elap:               0.0
 (Enter /home/sekinelabo/g16/l9999.exe)
 1\1\GINC-SEKINELABO-XA7R-R37\Force\UB3LYP\6-311+G(d)\Na7(2)\SEKINELABO
 \13-Nov-2023\0\\#P B3LYP/6-311+g(d) force\\Gaussian input prepared by 
 ASE\\0,2\Na,4.7889844196,0.2145162836,2.2337253077\Na,7.6159647849,1.0
 993700792,2.7049291717\Na,6.784056367,0.1180986257,0.\Na,5.7932376887,
 2.7618968778,1.0030850275\Na,3.02400248,3.9083640691,1.1878695075\Na,2
 .0721187893,1.4409802885,2.6133645634\Na,0.,0.,0.9894740506\\Version=E
 S64L-G16RevB.01\State=2-A\HF=-1136.0901863\S2=0.766334\S2-1=0.\S2A=0.7
 50165\RMSD=6.848e-09\RMSF=7.186e-03\Dipole=0.3950639,-0.0419955,-0.053
 786\Quadrupole=9.8516058,-4.6170437,-5.234562,-1.1535485,4.1963315,2.7
 945007\PG=C01 [X(Na7)]\\@


 THE MORE POWERFUL THE METHOD, THE MORE CATASTROPHIC THE ERRORS.
     -- M.D. KAMEN
 Job cpu time:       0 days  0 hours  5 minutes  8.2 seconds.
 Elapsed time:       0 days  0 hours  0 minutes 25.3 seconds.
 File lengths (MBytes):  RWF=     32 Int=      0 D2E=      0 Chk=      5 Scr=      1
 Normal termination of Gaussian 16 at Mon Nov 13 15:39:43 2023.
