 Entering Gaussian System, Link 0=g16
 Initial command:
 /home/sekinelabo/g16/l1.exe "/home/sekinelabo/g16temp/Gau-4106597.inp" -scrdir="/home/sekinelabo/g16temp/"
 Entering Link 1 = /home/sekinelabo/g16/l1.exe PID=   4106599.
  
 Copyright (c) 1988-2017, Gaussian, Inc.  All Rights Reserved.
  
 This is part of the Gaussian(R) 16 program.  It is based on
 the Gaussian(R) 09 system (copyright 2009, Gaussian, Inc.),
 the Gaussian(R) 03 system (copyright 2003, Gaussian, Inc.),
 the Gaussian(R) 98 system (copyright 1998, Gaussian, Inc.),
 the Gaussian(R) 94 system (copyright 1995, Gaussian, Inc.),
 the Gaussian 92(TM) system (copyright 1992, Gaussian, Inc.),
 the Gaussian 90(TM) system (copyright 1990, Gaussian, Inc.),
 the Gaussian 88(TM) system (copyright 1988, Gaussian, Inc.),
 the Gaussian 86(TM) system (copyright 1986, Carnegie Mellon
 University), and the Gaussian 82(TM) system (copyright 1983,
 Carnegie Mellon University). Gaussian is a federally registered
 trademark of Gaussian, Inc.
  
 This software contains proprietary and confidential information,
 including trade secrets, belonging to Gaussian, Inc.
  
 This software is provided under written license and may be
 used, copied, transmitted, or stored only in accord with that
 written license.
  
 The following legend is applicable only to US Government
 contracts under FAR:
  
                    RESTRICTED RIGHTS LEGEND
  
 Use, reproduction and disclosure by the US Government is
 subject to restrictions as set forth in subparagraphs (a)
 and (c) of the Commercial Computer Software - Restricted
 Rights clause in FAR 52.227-19.
  
 Gaussian, Inc.
 340 Quinnipiac St., Bldg. 40, Wallingford CT 06492
  
  
 ---------------------------------------------------------------
 Warning -- This program may not be used in any manner that
 competes with the business of Gaussian, Inc. or will provide
 assistance to any competitor of Gaussian, Inc.  The licensee
 of this program is prohibited from giving any competitor of
 Gaussian, Inc. access to this program.  By using this program,
 the user acknowledges that Gaussian, Inc. is engaged in the
 business of creating and licensing software in the field of
 computational chemistry and represents and warrants to the
 licensee that it is not a competitor of Gaussian, Inc. and that
 it will not use this program in any manner prohibited above.
 ---------------------------------------------------------------
  

 Cite this work as:
 Gaussian 16, Revision B.01,
 M. J. Frisch, G. W. Trucks, H. B. Schlegel, G. E. Scuseria, 
 M. A. Robb, J. R. Cheeseman, G. Scalmani, V. Barone, 
 G. A. Petersson, H. Nakatsuji, X. Li, M. Caricato, A. V. Marenich, 
 J. Bloino, B. G. Janesko, R. Gomperts, B. Mennucci, H. P. Hratchian, 
 J. V. Ortiz, A. F. Izmaylov, J. L. Sonnenberg, D. Williams-Young, 
 F. Ding, F. Lipparini, F. Egidi, J. Goings, B. Peng, A. Petrone, 
 T. Henderson, D. Ranasinghe, V. G. Zakrzewski, J. Gao, N. Rega, 
 G. Zheng, W. Liang, M. Hada, M. Ehara, K. Toyota, R. Fukuda, 
 J. Hasegawa, M. Ishida, T. Nakajima, Y. Honda, O. Kitao, H. Nakai, 
 T. Vreven, K. Throssell, J. A. Montgomery, Jr., J. E. Peralta, 
 F. Ogliaro, M. J. Bearpark, J. J. Heyd, E. N. Brothers, K. N. Kudin, 
 V. N. Staroverov, T. A. Keith, R. Kobayashi, J. Normand, 
 K. Raghavachari, A. P. Rendell, J. C. Burant, S. S. Iyengar, 
 J. Tomasi, M. Cossi, J. M. Millam, M. Klene, C. Adamo, R. Cammi, 
 J. W. Ochterski, R. L. Martin, K. Morokuma, O. Farkas, 
 J. B. Foresman, and D. J. Fox, Gaussian, Inc., Wallingford CT, 2016.
 
 ******************************************
 Gaussian 16:  ES64L-G16RevB.01 20-Dec-2017
                13-Nov-2023 
 ******************************************
 %mem=14GB
 %chk=checkpoint.chk
 %nprocshared=16
 Will use up to   16 processors via shared memory.
 -------------------------
 #P B3LYP/6-311+g(d) force
 -------------------------
 1/10=7,30=1,38=1/1,3;
 2/12=2,17=6,18=5,40=1/2;
 3/5=4,6=6,7=11,11=2,25=1,30=1,71=1,74=-5/1,2,3;
 4//1;
 5/5=2,38=5/2;
 6/7=2,8=2,9=2,10=2,28=1/1;
 7/29=1/1,2,3,16;
 1/10=7,30=1/3;
 99//99;
 Leave Link    1 at Mon Nov 13 18:19:39 2023, MaxMem=  1879048192 cpu:               0.3 elap:               0.0
 (Enter /home/sekinelabo/g16/l101.exe)
 ------------------------------
 Gaussian input prepared by ASE
 ------------------------------
 Symbolic Z-matrix:
 Charge =  0 Multiplicity = 2
 Na                    2.12448   3.16534   0.77135 
 Na                    2.60126   1.31667   3.12052 
 Na                    0.        1.49279   1.83495 
 Na                    2.22673   0.06891   0.63267 
 Na                    5.05043   0.        1.91821 
 Na                    4.52204   1.96      0. 
 Na                    4.70895   3.05109   2.54074 
 
 ITRead=  0  0  0  0  0  0  0
 MicOpt= -1 -1 -1 -1 -1 -1 -1
 NAtoms=      7 NQM=        7 NQMF=       0 NMMI=      0 NMMIF=      0
                NMic=       0 NMicF=      0.
                    Isotopes and Nuclear Properties:
 (Nuclear quadrupole moments (NQMom) in fm**2, nuclear magnetic moments (NMagM)
  in nuclear magnetons)

  Atom         1           2           3           4           5           6           7
 IAtWgt=          23          23          23          23          23          23          23
 AtmWgt=  22.9897697  22.9897697  22.9897697  22.9897697  22.9897697  22.9897697  22.9897697
 NucSpn=           3           3           3           3           3           3           3
 AtZEff=  -0.0000000  -0.0000000  -0.0000000  -0.0000000  -0.0000000  -0.0000000  -0.0000000
 NQMom=   10.4000000  10.4000000  10.4000000  10.4000000  10.4000000  10.4000000  10.4000000
 NMagM=    2.2175200   2.2175200   2.2175200   2.2175200   2.2175200   2.2175200   2.2175200
 AtZNuc=  11.0000000  11.0000000  11.0000000  11.0000000  11.0000000  11.0000000  11.0000000
 Leave Link  101 at Mon Nov 13 18:19:39 2023, MaxMem=  1879048192 cpu:               2.6 elap:               0.2
 (Enter /home/sekinelabo/g16/l103.exe)

 GradGradGradGradGradGradGradGradGradGradGradGradGradGradGradGradGradGrad
 Berny optimization.
 Initialization pass.
 Trust Radius=3.00D-01 FncErr=1.00D-07 GrdErr=1.00D-07 EigMax=2.50D+02 EigMin=1.00D-04
 Number of steps in this run=      2 maximum allowed number of steps=      2.
 GradGradGradGradGradGradGradGradGradGradGradGradGradGradGradGradGradGrad

 Leave Link  103 at Mon Nov 13 18:19:39 2023, MaxMem=  1879048192 cpu:               0.2 elap:               0.0
 (Enter /home/sekinelabo/g16/l202.exe)
                          Input orientation:                          
 ---------------------------------------------------------------------
 Center     Atomic      Atomic             Coordinates (Angstroms)
 Number     Number       Type             X           Y           Z
 ---------------------------------------------------------------------
      1         11           0        2.124477    3.165344    0.771351
      2         11           0        2.601261    1.316665    3.120518
      3         11           0        0.000000    1.492792    1.834949
      4         11           0        2.226731    0.068907    0.632671
      5         11           0        5.050431    0.000000    1.918212
      6         11           0        4.522045    1.959998    0.000000
      7         11           0        4.708952    3.051095    2.540741
 ---------------------------------------------------------------------
                    Distance matrix (angstroms):
                    1          2          3          4          5
     1  Na   0.000000
     2  Na   3.027131   0.000000
     3  Na   2.905525   2.906934   0.000000
     4  Na   3.101228   2.808301   2.903662   0.000000
     5  Na   4.460482   3.029452   5.267088   3.103328   0.000000
     6  Na   2.792162   3.720339   4.902470   3.040553   2.792905
     7  Na   3.134215   2.790475   5.010058   4.323841   3.132624
                    6          7
     6  Na   0.000000
     7  Na   2.771425   0.000000
 Stoichiometry    Na7(2)
 Framework group  C1[X(Na7)]
 Deg. of freedom    15
 Full point group                 C1      NOp   1
 Largest Abelian subgroup         C1      NOp   1
 Largest concise Abelian subgroup C1      NOp   1
                         Standard orientation:                         
 ---------------------------------------------------------------------
 Center     Atomic      Atomic             Coordinates (Angstroms)
 Number     Number       Type             X           Y           Z
 ---------------------------------------------------------------------
      1         11           0        0.908936   -1.586087   -0.774141
      2         11           0        0.432153    0.262592    1.575026
      3         11           0        3.033414    0.086465    0.289457
      4         11           0        0.806683    1.510350   -0.912821
      5         11           0       -2.017017    1.579257    0.372720
      6         11           0       -1.488631   -0.380741   -1.545492
      7         11           0       -1.675538   -1.471838    0.995250
 ---------------------------------------------------------------------
 Rotational constants (GHZ):           1.2785442           0.8001861           0.7417680
 Leave Link  202 at Mon Nov 13 18:19:39 2023, MaxMem=  1879048192 cpu:               0.0 elap:               0.0
 (Enter /home/sekinelabo/g16/l301.exe)
 Standard basis: 6-311+G(d) (5D, 7F)
 Ernie: Thresh=  0.10000D-02 Tol=  0.10000D-05 Strict=F.
 There are   217 symmetry adapted cartesian basis functions of A   symmetry.
 There are   210 symmetry adapted basis functions of A   symmetry.
   210 basis functions,   350 primitive gaussians,   217 cartesian basis functions
    39 alpha electrons       38 beta electrons
       nuclear repulsion energy       410.6930878082 Hartrees.
 IExCor=  402 DFT=T Ex+Corr=B3LYP ExCW=0 ScaHFX=  0.200000
 ScaDFX=  0.800000  0.720000  1.000000  0.810000 ScalE2=  1.000000  1.000000
 IRadAn=      5 IRanWt=     -1 IRanGd=            0 ICorTp=0 IEmpDi=  4
 NAtoms=    7 NActive=    7 NUniq=    7 SFac= 1.00D+00 NAtFMM=   60 NAOKFM=F Big=F
 Integral buffers will be    131072 words long.
 Raffenetti 2 integral format.
 Two-electron integral symmetry is turned on.
 Leave Link  301 at Mon Nov 13 18:19:39 2023, MaxMem=  1879048192 cpu:               0.5 elap:               0.0
 (Enter /home/sekinelabo/g16/l302.exe)
 NPDir=0 NMtPBC=     1 NCelOv=     1 NCel=       1 NClECP=     1 NCelD=      1
         NCelK=      1 NCelE2=     1 NClLst=     1 CellRange=     0.0.
 One-electron integrals computed using PRISM.
 One-electron integral symmetry used in STVInt
 NBasis=   210 RedAO= T EigKep=  1.75D-06  NBF=   210
 NBsUse=   210 1.00D-06 EigRej= -1.00D+00 NBFU=   210
 Precomputing XC quadrature grid using
 IXCGrd= 4 IRadAn=           5 IRanWt=          -1 IRanGd=           0 AccXCQ= 0.00D+00.
 Generated NRdTot=       0 NPtTot=           0 NUsed=           0 NTot=          32
 NSgBfM=   211   211   211   211   211 MxSgAt=     7 MxSgA2=     7.
 Leave Link  302 at Mon Nov 13 18:19:40 2023, MaxMem=  1879048192 cpu:               2.2 elap:               0.1
 (Enter /home/sekinelabo/g16/l303.exe)
 DipDrv:  MaxL=1.
 Leave Link  303 at Mon Nov 13 18:19:40 2023, MaxMem=  1879048192 cpu:               0.6 elap:               0.0
 (Enter /home/sekinelabo/g16/l401.exe)
 ExpMin= 7.60D-03 ExpMax= 3.62D+04 ExpMxC= 1.21D+03 IAcc=3 IRadAn=         5 AccDes= 0.00D+00
 Harris functional with IExCor=  402 and IRadAn=       5 diagonalized for initial guess.
 HarFok:  IExCor=  402 AccDes= 0.00D+00 IRadAn=         5 IDoV= 1 UseB2=F ITyADJ=14
 ICtDFT=  3500011 ScaDFX=  1.000000  1.000000  1.000000  1.000000
 FoFCou: FMM=F IPFlag=           0 FMFlag=      100000 FMFlg1=           0
         NFxFlg=           0 DoJE=T BraDBF=F KetDBF=T FulRan=T
         wScrn=  0.000000 ICntrl=       500 IOpCl=  0 I1Cent=   200000004 NGrid=           0
         NMat0=    1 NMatS0=      1 NMatT0=    0 NMatD0=    1 NMtDS0=    0 NMtDT0=    0
 Petite list used in FoFCou.
 Harris En= -1135.85670886159    
 JPrj=0 DoOrth=F DoCkMO=F.
 Initial guess <Sx>= 0.0000 <Sy>= 0.0000 <Sz>= 0.5000 <S**2>= 0.7500 S= 0.5000
 Leave Link  401 at Mon Nov 13 18:19:40 2023, MaxMem=  1879048192 cpu:               4.8 elap:               0.3
 (Enter /home/sekinelabo/g16/l502.exe)
 Keep R1 and R2 ints in memory in canonical form, NReq=507620388.
 FoFCou: FMM=F IPFlag=           0 FMFlag=           0 FMFlg1=           0
         NFxFlg=           0 DoJE=F BraDBF=F KetDBF=F FulRan=T
         wScrn=  0.000000 ICntrl=       600 IOpCl=  0 I1Cent=           0 NGrid=           0
         NMat0=    1 NMatS0=  22155 NMatT0=    0 NMatD0=    1 NMtDS0=    0 NMtDT0=    0
 Symmetry not used in FoFCou.
 Two-electron integral symmetry not used.
 UHF open shell SCF:
 Using DIIS extrapolation, IDIIS=  1040.
 NGot=  1879048192 LenX=  1388082348 LenY=  1388034818
 Requested convergence on RMS density matrix=1.00D-08 within 128 cycles.
 Requested convergence on MAX density matrix=1.00D-06.
 Requested convergence on             energy=1.00D-06.
 No special actions if energy rises.

 Cycle   1  Pass 1  IDiag  1:
 E= -1136.03485023237    
 DIIS: error= 1.59D-02 at cycle   1 NSaved=   1.
 NSaved= 1 IEnMin= 1 EnMin= -1136.03485023237     IErMin= 1 ErrMin= 1.59D-02
 ErrMax= 1.59D-02  0.00D+00 EMaxC= 1.00D-01 BMatC= 2.13D-01 BMatP= 2.13D-01
 IDIUse=3 WtCom= 8.41D-01 WtEn= 1.59D-01
 Coeff-Com:  0.100D+01
 Coeff-En:   0.100D+01
 Coeff:      0.100D+01
 Gap=     0.059 Goal=   None    Shift=    0.000
 Gap=     0.031 Goal=   None    Shift=    0.000
 GapD=    0.031 DampG=0.250 DampE=0.500 DampFc=0.2500 IDamp=-1.
 Damping current iteration by 2.50D-01
 RMSDP=8.35D-02 MaxDP=7.85D+00              OVMax= 2.71D-01

 Cycle   2  Pass 1  IDiag  1:
 E= -1136.05178753859     Delta-E=       -0.016937306219 Rises=F Damp=T
 DIIS: error= 8.82D-03 at cycle   2 NSaved=   2.
 NSaved= 2 IEnMin= 2 EnMin= -1136.05178753859     IErMin= 2 ErrMin= 8.82D-03
 ErrMax= 8.82D-03  0.00D+00 EMaxC= 1.00D-01 BMatC= 7.98D-02 BMatP= 2.13D-01
 IDIUse=3 WtCom= 9.12D-01 WtEn= 8.82D-02
 Coeff-Com: -0.126D+01 0.226D+01
 Coeff-En:   0.000D+00 0.100D+01
 Coeff:     -0.115D+01 0.215D+01
 Gap=     0.063 Goal=   None    Shift=    0.000
 Gap=     0.034 Goal=   None    Shift=    0.000
 RMSDP=3.72D-02 MaxDP=3.87D+00 DE=-1.69D-02 OVMax= 1.81D-01

 Cycle   3  Pass 1  IDiag  1:
 E= -1136.08020666788     Delta-E=       -0.028419129290 Rises=F Damp=F
 DIIS: error= 4.01D-03 at cycle   3 NSaved=   3.
 NSaved= 3 IEnMin= 3 EnMin= -1136.08020666788     IErMin= 3 ErrMin= 4.01D-03
 ErrMax= 4.01D-03  0.00D+00 EMaxC= 1.00D-01 BMatC= 4.30D-03 BMatP= 7.98D-02
 IDIUse=3 WtCom= 9.60D-01 WtEn= 4.01D-02
 Coeff-Com: -0.263D+00 0.481D+00 0.782D+00
 Coeff-En:   0.000D+00 0.000D+00 0.100D+01
 Coeff:     -0.252D+00 0.462D+00 0.790D+00
 Gap=     0.059 Goal=   None    Shift=    0.000
 Gap=     0.034 Goal=   None    Shift=    0.000
 RMSDP=1.58D-02 MaxDP=1.23D+00 DE=-2.84D-02 OVMax= 5.59D-02

 Cycle   4  Pass 1  IDiag  1:
 E= -1136.08099732569     Delta-E=       -0.000790657813 Rises=F Damp=F
 DIIS: error= 3.35D-03 at cycle   4 NSaved=   4.
 NSaved= 4 IEnMin= 4 EnMin= -1136.08099732569     IErMin= 4 ErrMin= 3.35D-03
 ErrMax= 3.35D-03  0.00D+00 EMaxC= 1.00D-01 BMatC= 2.72D-03 BMatP= 4.30D-03
 IDIUse=3 WtCom= 9.67D-01 WtEn= 3.35D-02
 Coeff-Com:  0.471D-02-0.560D-02 0.443D+00 0.558D+00
 Coeff-En:   0.000D+00 0.000D+00 0.404D+00 0.596D+00
 Coeff:      0.455D-02-0.541D-02 0.442D+00 0.559D+00
 Gap=     0.061 Goal=   None    Shift=    0.000
 Gap=     0.035 Goal=   None    Shift=    0.000
 RMSDP=5.37D-03 MaxDP=3.74D-01 DE=-7.91D-04 OVMax= 2.62D-02

 Cycle   5  Pass 1  IDiag  1:
 E= -1136.08244721491     Delta-E=       -0.001449889223 Rises=F Damp=F
 DIIS: error= 3.59D-04 at cycle   5 NSaved=   5.
 NSaved= 5 IEnMin= 5 EnMin= -1136.08244721491     IErMin= 5 ErrMin= 3.59D-04
 ErrMax= 3.59D-04  0.00D+00 EMaxC= 1.00D-01 BMatC= 3.26D-05 BMatP= 2.72D-03
 IDIUse=3 WtCom= 9.96D-01 WtEn= 3.59D-03
 Coeff-Com:  0.183D-02-0.264D-02 0.241D+00 0.306D+00 0.454D+00
 Coeff-En:   0.000D+00 0.000D+00 0.000D+00 0.000D+00 0.100D+01
 Coeff:      0.182D-02-0.263D-02 0.240D+00 0.305D+00 0.455D+00
 Gap=     0.061 Goal=   None    Shift=    0.000
 Gap=     0.035 Goal=   None    Shift=    0.000
 RMSDP=6.27D-04 MaxDP=3.15D-02 DE=-1.45D-03 OVMax= 6.77D-03

 Cycle   6  Pass 1  IDiag  1:
 E= -1136.08247597058     Delta-E=       -0.000028755663 Rises=F Damp=F
 DIIS: error= 1.61D-04 at cycle   6 NSaved=   6.
 NSaved= 6 IEnMin= 6 EnMin= -1136.08247597058     IErMin= 6 ErrMin= 1.61D-04
 ErrMax= 1.61D-04  0.00D+00 EMaxC= 1.00D-01 BMatC= 6.37D-06 BMatP= 3.26D-05
 IDIUse=3 WtCom= 9.98D-01 WtEn= 1.61D-03
 Coeff-Com: -0.210D-02 0.239D-02-0.367D-01-0.486D-01 0.292D+00 0.793D+00
 Coeff-En:   0.000D+00 0.000D+00 0.000D+00 0.000D+00 0.176D+00 0.824D+00
 Coeff:     -0.210D-02 0.239D-02-0.367D-01-0.485D-01 0.292D+00 0.793D+00
 Gap=     0.061 Goal=   None    Shift=    0.000
 Gap=     0.035 Goal=   None    Shift=    0.000
 RMSDP=3.21D-04 MaxDP=2.05D-02 DE=-2.88D-05 OVMax= 2.93D-03

 Cycle   7  Pass 1  IDiag  1:
 E= -1136.08248402701     Delta-E=       -0.000008056433 Rises=F Damp=F
 DIIS: error= 3.58D-05 at cycle   7 NSaved=   7.
 NSaved= 7 IEnMin= 7 EnMin= -1136.08248402701     IErMin= 7 ErrMin= 3.58D-05
 ErrMax= 3.58D-05  0.00D+00 EMaxC= 1.00D-01 BMatC= 4.59D-07 BMatP= 6.37D-06
 IDIUse=1 WtCom= 1.00D+00 WtEn= 0.00D+00
 Coeff-Com: -0.914D-03 0.104D-02-0.316D-01-0.399D-01 0.895D-01 0.307D+00
 Coeff-Com:  0.675D+00
 Coeff:     -0.914D-03 0.104D-02-0.316D-01-0.399D-01 0.895D-01 0.307D+00
 Coeff:      0.675D+00
 Gap=     0.061 Goal=   None    Shift=    0.000
 Gap=     0.035 Goal=   None    Shift=    0.000
 RMSDP=1.05D-04 MaxDP=6.20D-03 DE=-8.06D-06 OVMax= 1.11D-03

 Cycle   8  Pass 1  IDiag  1:
 E= -1136.08248456396     Delta-E=       -0.000000536951 Rises=F Damp=F
 DIIS: error= 2.86D-05 at cycle   8 NSaved=   8.
 NSaved= 8 IEnMin= 8 EnMin= -1136.08248456396     IErMin= 8 ErrMin= 2.86D-05
 ErrMax= 2.86D-05  0.00D+00 EMaxC= 1.00D-01 BMatC= 2.79D-07 BMatP= 4.59D-07
 IDIUse=1 WtCom= 1.00D+00 WtEn= 0.00D+00
 Coeff-Com:  0.404D-03-0.508D-03-0.717D-02-0.728D-02-0.609D-01-0.131D+00
 Coeff-Com:  0.496D+00 0.710D+00
 Coeff:      0.404D-03-0.508D-03-0.717D-02-0.728D-02-0.609D-01-0.131D+00
 Coeff:      0.496D+00 0.710D+00
 Gap=     0.061 Goal=   None    Shift=    0.000
 Gap=     0.035 Goal=   None    Shift=    0.000
 RMSDP=7.09D-05 MaxDP=4.48D-03 DE=-5.37D-07 OVMax= 1.00D-03

 Cycle   9  Pass 1  IDiag  1:
 E= -1136.08248504843     Delta-E=       -0.000000484469 Rises=F Damp=F
 DIIS: error= 5.90D-06 at cycle   9 NSaved=   9.
 NSaved= 9 IEnMin= 9 EnMin= -1136.08248504843     IErMin= 9 ErrMin= 5.90D-06
 ErrMax= 5.90D-06  0.00D+00 EMaxC= 1.00D-01 BMatC= 1.43D-08 BMatP= 2.79D-07
 IDIUse=1 WtCom= 1.00D+00 WtEn= 0.00D+00
 Coeff-Com:  0.292D-03-0.367D-03 0.212D-02 0.310D-02-0.192D-01-0.521D-01
 Coeff-Com: -0.764D-02 0.123D+00 0.951D+00
 Coeff:      0.292D-03-0.367D-03 0.212D-02 0.310D-02-0.192D-01-0.521D-01
 Coeff:     -0.764D-02 0.123D+00 0.951D+00
 Gap=     0.061 Goal=   None    Shift=    0.000
 Gap=     0.035 Goal=   None    Shift=    0.000
 RMSDP=3.31D-05 MaxDP=1.93D-03 DE=-4.84D-07 OVMax= 6.66D-04

 Cycle  10  Pass 1  IDiag  1:
 E= -1136.08248512163     Delta-E=       -0.000000073198 Rises=F Damp=F
 DIIS: error= 4.35D-06 at cycle  10 NSaved=  10.
 NSaved=10 IEnMin=10 EnMin= -1136.08248512163     IErMin=10 ErrMin= 4.35D-06
 ErrMax= 4.35D-06  0.00D+00 EMaxC= 1.00D-01 BMatC= 5.10D-09 BMatP= 1.43D-08
 IDIUse=1 WtCom= 1.00D+00 WtEn= 0.00D+00
 Coeff-Com:  0.746D-05-0.478D-06 0.221D-02 0.247D-02 0.249D-02 0.195D-02
 Coeff-Com: -0.908D-01-0.776D-01 0.300D+00 0.859D+00
 Coeff:      0.746D-05-0.478D-06 0.221D-02 0.247D-02 0.249D-02 0.195D-02
 Coeff:     -0.908D-01-0.776D-01 0.300D+00 0.859D+00
 Gap=     0.061 Goal=   None    Shift=    0.000
 Gap=     0.035 Goal=   None    Shift=    0.000
 RMSDP=2.20D-05 MaxDP=1.38D-03 DE=-7.32D-08 OVMax= 5.43D-04

 Cycle  11  Pass 1  IDiag  1:
 E= -1136.08248515375     Delta-E=       -0.000000032117 Rises=F Damp=F
 DIIS: error= 3.63D-06 at cycle  11 NSaved=  11.
 NSaved=11 IEnMin=11 EnMin= -1136.08248515375     IErMin=11 ErrMin= 3.63D-06
 ErrMax= 3.63D-06  0.00D+00 EMaxC= 1.00D-01 BMatC= 2.05D-09 BMatP= 5.10D-09
 IDIUse=1 WtCom= 1.00D+00 WtEn= 0.00D+00
 Coeff-Com: -0.118D-03 0.152D-03-0.142D-05-0.256D-03 0.743D-02 0.185D-01
 Coeff-Com: -0.300D-01-0.680D-01-0.203D+00 0.184D+00 0.109D+01
 Coeff:     -0.118D-03 0.152D-03-0.142D-05-0.256D-03 0.743D-02 0.185D-01
 Coeff:     -0.300D-01-0.680D-01-0.203D+00 0.184D+00 0.109D+01
 Gap=     0.061 Goal=   None    Shift=    0.000
 Gap=     0.035 Goal=   None    Shift=    0.000
 RMSDP=1.93D-05 MaxDP=1.10D-03 DE=-3.21D-08 OVMax= 6.09D-04

 Cycle  12  Pass 1  IDiag  1:
 E= -1136.08248517637     Delta-E=       -0.000000022620 Rises=F Damp=F
 DIIS: error= 2.79D-06 at cycle  12 NSaved=  12.
 NSaved=12 IEnMin=12 EnMin= -1136.08248517637     IErMin=12 ErrMin= 2.79D-06
 ErrMax= 2.79D-06  0.00D+00 EMaxC= 1.00D-01 BMatC= 1.50D-09 BMatP= 2.05D-09
 IDIUse=1 WtCom= 1.00D+00 WtEn= 0.00D+00
 Coeff-Com: -0.694D-04 0.857D-04-0.604D-03-0.828D-03 0.388D-02 0.108D-01
 Coeff-Com:  0.808D-02-0.186D-01-0.217D+00-0.138D+00 0.695D+00 0.657D+00
 Coeff:     -0.694D-04 0.857D-04-0.604D-03-0.828D-03 0.388D-02 0.108D-01
 Coeff:      0.808D-02-0.186D-01-0.217D+00-0.138D+00 0.695D+00 0.657D+00
 Gap=     0.061 Goal=   None    Shift=    0.000
 Gap=     0.035 Goal=   None    Shift=    0.000
 RMSDP=1.03D-05 MaxDP=6.68D-04 DE=-2.26D-08 OVMax= 3.72D-04

 Cycle  13  Pass 1  IDiag  1:
 E= -1136.08248518677     Delta-E=       -0.000000010406 Rises=F Damp=F
 DIIS: error= 2.27D-06 at cycle  13 NSaved=  13.
 NSaved=13 IEnMin=13 EnMin= -1136.08248518677     IErMin=13 ErrMin= 2.27D-06
 ErrMax= 2.27D-06  0.00D+00 EMaxC= 1.00D-01 BMatC= 5.96D-10 BMatP= 1.50D-09
 IDIUse=1 WtCom= 1.00D+00 WtEn= 0.00D+00
 Coeff-Com:  0.108D-03-0.141D-03-0.186D-03-0.199D-04-0.627D-02-0.150D-01
 Coeff-Com:  0.344D-01 0.647D-01 0.101D+00-0.184D+00-0.810D+00 0.103D+00
 Coeff-Com:  0.171D+01
 Coeff:      0.108D-03-0.141D-03-0.186D-03-0.199D-04-0.627D-02-0.150D-01
 Coeff:      0.344D-01 0.647D-01 0.101D+00-0.184D+00-0.810D+00 0.103D+00
 Coeff:      0.171D+01
 Gap=     0.061 Goal=   None    Shift=    0.000
 Gap=     0.035 Goal=   None    Shift=    0.000
 RMSDP=1.89D-05 MaxDP=1.07D-03 DE=-1.04D-08 OVMax= 7.47D-04

 Cycle  14  Pass 1  IDiag  1:
 E= -1136.08248519978     Delta-E=       -0.000000013010 Rises=F Damp=F
 DIIS: error= 1.22D-06 at cycle  14 NSaved=  14.
 NSaved=14 IEnMin=14 EnMin= -1136.08248519978     IErMin=14 ErrMin= 1.22D-06
 ErrMax= 1.22D-06  0.00D+00 EMaxC= 1.00D-01 BMatC= 1.56D-10 BMatP= 5.96D-10
 IDIUse=1 WtCom= 1.00D+00 WtEn= 0.00D+00
 Coeff-Com:  0.382D-05-0.268D-05 0.128D-03 0.202D-03-0.453D-03-0.183D-02
 Coeff-Com: -0.752D-02-0.257D-05 0.753D-01 0.713D-01-0.159D+00-0.294D+00
 Coeff-Com: -0.236D+00 0.155D+01
 Coeff:      0.382D-05-0.268D-05 0.128D-03 0.202D-03-0.453D-03-0.183D-02
 Coeff:     -0.752D-02-0.257D-05 0.753D-01 0.713D-01-0.159D+00-0.294D+00
 Coeff:     -0.236D+00 0.155D+01
 Gap=     0.061 Goal=   None    Shift=    0.000
 Gap=     0.035 Goal=   None    Shift=    0.000
 RMSDP=1.15D-05 MaxDP=6.99D-04 DE=-1.30D-08 OVMax= 5.01D-04

 Cycle  15  Pass 1  IDiag  1:
 E= -1136.08248520382     Delta-E=       -0.000000004035 Rises=F Damp=F
 DIIS: error= 4.95D-07 at cycle  15 NSaved=  15.
 NSaved=15 IEnMin=15 EnMin= -1136.08248520382     IErMin=15 ErrMin= 4.95D-07
 ErrMax= 4.95D-07  0.00D+00 EMaxC= 1.00D-01 BMatC= 3.66D-11 BMatP= 1.56D-10
 IDIUse=1 WtCom= 1.00D+00 WtEn= 0.00D+00
 Coeff-Com: -0.295D-04 0.381D-04 0.540D-05-0.821D-04 0.168D-02 0.436D-02
 Coeff-Com: -0.560D-02-0.162D-01-0.526D-01 0.198D-01 0.261D+00 0.663D-01
 Coeff-Com: -0.330D+00-0.545D+00 0.160D+01
 Coeff:     -0.295D-04 0.381D-04 0.540D-05-0.821D-04 0.168D-02 0.436D-02
 Coeff:     -0.560D-02-0.162D-01-0.526D-01 0.198D-01 0.261D+00 0.663D-01
 Coeff:     -0.330D+00-0.545D+00 0.160D+01
 Gap=     0.061 Goal=   None    Shift=    0.000
 Gap=     0.035 Goal=   None    Shift=    0.000
 RMSDP=4.62D-06 MaxDP=3.02D-04 DE=-4.03D-09 OVMax= 2.08D-04

 Cycle  16  Pass 1  IDiag  1:
 E= -1136.08248520457     Delta-E=       -0.000000000751 Rises=F Damp=F
 DIIS: error= 1.88D-07 at cycle  16 NSaved=  16.
 NSaved=16 IEnMin=16 EnMin= -1136.08248520457     IErMin=16 ErrMin= 1.88D-07
 ErrMax= 1.88D-07  0.00D+00 EMaxC= 1.00D-01 BMatC= 8.71D-12 BMatP= 3.66D-11
 IDIUse=1 WtCom= 1.00D+00 WtEn= 0.00D+00
 Coeff-Com:  0.444D-05-0.669D-05-0.949D-05-0.198D-04-0.102D-03 0.415D-04
 Coeff-Com:  0.240D-02 0.267D-02-0.191D-01-0.255D-01 0.252D-01 0.881D-01
 Coeff-Com:  0.101D+00-0.425D+00-0.156D+00 0.141D+01
 Coeff:      0.444D-05-0.669D-05-0.949D-05-0.198D-04-0.102D-03 0.415D-04
 Coeff:      0.240D-02 0.267D-02-0.191D-01-0.255D-01 0.252D-01 0.881D-01
 Coeff:      0.101D+00-0.425D+00-0.156D+00 0.141D+01
 Gap=     0.061 Goal=   None    Shift=    0.000
 Gap=     0.035 Goal=   None    Shift=    0.000
 RMSDP=2.35D-06 MaxDP=1.25D-04 DE=-7.51D-10 OVMax= 9.39D-05

 Cycle  17  Pass 1  IDiag  1:
 E= -1136.08248520472     Delta-E=       -0.000000000151 Rises=F Damp=F
 DIIS: error= 6.15D-08 at cycle  17 NSaved=  17.
 NSaved=17 IEnMin=17 EnMin= -1136.08248520472     IErMin=17 ErrMin= 6.15D-08
 ErrMax= 6.15D-08  0.00D+00 EMaxC= 1.00D-01 BMatC= 1.80D-12 BMatP= 8.71D-12
 IDIUse=1 WtCom= 1.00D+00 WtEn= 0.00D+00
 Coeff-Com:  0.516D-05-0.690D-05-0.938D-05 0.548D-05-0.218D-03-0.647D-03
 Coeff-Com:  0.125D-02 0.282D-02 0.499D-02-0.679D-02-0.376D-01 0.556D-02
 Coeff-Com:  0.712D-01 0.161D-01-0.336D+00 0.359D+00 0.921D+00
 Coeff:      0.516D-05-0.690D-05-0.938D-05 0.548D-05-0.218D-03-0.647D-03
 Coeff:      0.125D-02 0.282D-02 0.499D-02-0.679D-02-0.376D-01 0.556D-02
 Coeff:      0.712D-01 0.161D-01-0.336D+00 0.359D+00 0.921D+00
 Gap=     0.061 Goal=   None    Shift=    0.000
 Gap=     0.035 Goal=   None    Shift=    0.000
 RMSDP=6.44D-07 MaxDP=3.98D-05 DE=-1.51D-10 OVMax= 2.08D-05

 Cycle  18  Pass 1  IDiag  1:
 E= -1136.08248520471     Delta-E=        0.000000000005 Rises=F Damp=F
 DIIS: error= 2.27D-08 at cycle  18 NSaved=  18.
 NSaved=18 IEnMin=17 EnMin= -1136.08248520472     IErMin=18 ErrMin= 2.27D-08
 ErrMax= 2.27D-08  0.00D+00 EMaxC= 1.00D-01 BMatC= 2.93D-13 BMatP= 1.80D-12
 IDIUse=1 WtCom= 1.00D+00 WtEn= 0.00D+00
 Coeff-Com: -0.761D-06 0.122D-05-0.328D-05 0.180D-05-0.184D-04-0.121D-03
 Coeff-Com: -0.234D-03-0.826D-04 0.430D-02 0.502D-02-0.982D-02-0.198D-01
 Coeff-Com: -0.139D-01 0.930D-01 0.209D-01-0.334D+00 0.100D+00 0.115D+01
 Coeff:     -0.761D-06 0.122D-05-0.328D-05 0.180D-05-0.184D-04-0.121D-03
 Coeff:     -0.234D-03-0.826D-04 0.430D-02 0.502D-02-0.982D-02-0.198D-01
 Coeff:     -0.139D-01 0.930D-01 0.209D-01-0.334D+00 0.100D+00 0.115D+01
 Gap=     0.061 Goal=   None    Shift=    0.000
 Gap=     0.035 Goal=   None    Shift=    0.000
 RMSDP=3.26D-07 MaxDP=2.05D-05 DE= 5.00D-12 OVMax= 9.57D-06

 Cycle  19  Pass 1  IDiag  1:
 E= -1136.08248520471     Delta-E=        0.000000000001 Rises=F Damp=F
 DIIS: error= 8.10D-09 at cycle  19 NSaved=  19.
 NSaved=19 IEnMin=17 EnMin= -1136.08248520472     IErMin=19 ErrMin= 8.10D-09
 ErrMax= 8.10D-09  0.00D+00 EMaxC= 1.00D-01 BMatC= 2.91D-14 BMatP= 2.93D-13
 IDIUse=1 WtCom= 1.00D+00 WtEn= 0.00D+00
 Coeff-Com: -0.353D-06 0.436D-06 0.340D-05-0.141D-06 0.264D-04 0.104D-03
 Coeff-Com: -0.141D-03-0.307D-03-0.143D-02-0.657D-04 0.639D-02 0.282D-02
 Coeff-Com: -0.572D-02-0.190D-01 0.344D-01 0.235D-01-0.112D+00-0.273D+00
 Coeff-Com:  0.134D+01
 Coeff:     -0.353D-06 0.436D-06 0.340D-05-0.141D-06 0.264D-04 0.104D-03
 Coeff:     -0.141D-03-0.307D-03-0.143D-02-0.657D-04 0.639D-02 0.282D-02
 Coeff:     -0.572D-02-0.190D-01 0.344D-01 0.235D-01-0.112D+00-0.273D+00
 Coeff:      0.134D+01
 Gap=     0.061 Goal=   None    Shift=    0.000
 Gap=     0.035 Goal=   None    Shift=    0.000
 RMSDP=8.10D-08 MaxDP=5.43D-06 DE= 6.82D-13 OVMax= 1.74D-06

 Cycle  20  Pass 1  IDiag  1:
 E= -1136.08248520473     Delta-E=       -0.000000000021 Rises=F Damp=F
 DIIS: error= 5.37D-09 at cycle  20 NSaved=  20.
 NSaved=20 IEnMin=20 EnMin= -1136.08248520473     IErMin=20 ErrMin= 5.37D-09
 ErrMax= 5.37D-09  0.00D+00 EMaxC= 1.00D-01 BMatC= 4.82D-15 BMatP= 2.91D-14
 IDIUse=1 WtCom= 1.00D+00 WtEn= 0.00D+00
 Large coefficients: NSaved= 20 BigCof=    0.00 CofMax=   10.00 Det=-6.14D-15
 Inversion failed.  Reducing to 19 matrices.
 Large coefficients: NSaved= 19 BigCof=    0.00 CofMax=   10.00 Det=-6.32D-15
 Inversion failed.  Reducing to 18 matrices.
 Large coefficients: NSaved= 18 BigCof=    0.00 CofMax=   10.00 Det=-6.42D-15
 Inversion failed.  Reducing to 17 matrices.
 Large coefficients: NSaved= 17 BigCof=    0.00 CofMax=   10.00 Det=-6.87D-15
 Inversion failed.  Reducing to 16 matrices.
 Coeff-Com:  0.647D-06-0.551D-05 0.467D-04 0.212D-04-0.131D-03-0.464D-03
 Coeff-Com:  0.556D-03 0.944D-03 0.304D-03-0.333D-02-0.472D-02 0.193D-01
 Coeff-Com: -0.422D-02-0.458D-01-0.108D+00 0.115D+01
 Coeff:      0.647D-06-0.551D-05 0.467D-04 0.212D-04-0.131D-03-0.464D-03
 Coeff:      0.556D-03 0.944D-03 0.304D-03-0.333D-02-0.472D-02 0.193D-01
 Coeff:     -0.422D-02-0.458D-01-0.108D+00 0.115D+01
 Gap=     0.061 Goal=   None    Shift=    0.000
 Gap=     0.035 Goal=   None    Shift=    0.000
 RMSDP=3.62D-08 MaxDP=2.42D-06 DE=-2.14D-11 OVMax= 6.57D-07

 Cycle  21  Pass 1  IDiag  1:
 E= -1136.08248520473     Delta-E=        0.000000000004 Rises=F Damp=F
 DIIS: error= 3.64D-09 at cycle  21 NSaved=  17.
 NSaved=17 IEnMin=16 EnMin= -1136.08248520473     IErMin=17 ErrMin= 3.64D-09
 ErrMax= 3.64D-09  0.00D+00 EMaxC= 1.00D-01 BMatC= 2.00D-15 BMatP= 4.82D-15
 IDIUse=1 WtCom= 1.00D+00 WtEn= 0.00D+00
 Large coefficients: NSaved= 17 BigCof=    0.00 CofMax=   10.00 Det=-3.61D-15
 Inversion failed.  Reducing to 16 matrices.
 Large coefficients: NSaved= 16 BigCof=    0.00 CofMax=   10.00 Det=-3.64D-15
 Inversion failed.  Reducing to 15 matrices.
 Coeff-Com:  0.140D-04 0.124D-04-0.162D-03-0.217D-03 0.355D-03 0.868D-03
 Coeff-Com:  0.691D-03-0.391D-02-0.261D-02 0.161D-01 0.315D-02-0.383D-01
 Coeff-Com: -0.160D+00 0.429D+00 0.755D+00
 Coeff:      0.140D-04 0.124D-04-0.162D-03-0.217D-03 0.355D-03 0.868D-03
 Coeff:      0.691D-03-0.391D-02-0.261D-02 0.161D-01 0.315D-02-0.383D-01
 Coeff:     -0.160D+00 0.429D+00 0.755D+00
 Gap=     0.061 Goal=   None    Shift=    0.000
 Gap=     0.035 Goal=   None    Shift=    0.000
 RMSDP=1.29D-08 MaxDP=7.01D-07 DE= 4.32D-12 OVMax= 1.84D-07

 Cycle  22  Pass 1  IDiag  1:
 E= -1136.08248520473     Delta-E=        0.000000000002 Rises=F Damp=F
 DIIS: error= 1.35D-09 at cycle  22 NSaved=  16.
 NSaved=16 IEnMin=14 EnMin= -1136.08248520473     IErMin=16 ErrMin= 1.35D-09
 ErrMax= 1.35D-09  0.00D+00 EMaxC= 1.00D-01 BMatC= 2.61D-16 BMatP= 2.00D-15
 IDIUse=1 WtCom= 1.00D+00 WtEn= 0.00D+00
 Large coefficients: NSaved= 16 BigCof=    0.00 CofMax=   10.00 Det=-8.82D-16
 Inversion failed.  Reducing to 15 matrices.
 Coeff-Com:  0.114D-05 0.216D-04 0.915D-04-0.261D-03-0.223D-03 0.205D-03
 Coeff-Com:  0.891D-03 0.452D-03-0.498D-02 0.379D-02 0.176D-01-0.286D-02
 Coeff-Com: -0.269D+00-0.172D-01 0.127D+01
 Coeff:      0.114D-05 0.216D-04 0.915D-04-0.261D-03-0.223D-03 0.205D-03
 Coeff:      0.891D-03 0.452D-03-0.498D-02 0.379D-02 0.176D-01-0.286D-02
 Coeff:     -0.269D+00-0.172D-01 0.127D+01
 Gap=     0.061 Goal=   None    Shift=    0.000
 Gap=     0.035 Goal=   None    Shift=    0.000
 RMSDP=1.58D-08 MaxDP=9.66D-07 DE= 1.82D-12 OVMax= 9.92D-08

 Cycle  23  Pass 1  IDiag  1:
 E= -1136.08248520473     Delta-E=       -0.000000000005 Rises=F Damp=F
 DIIS: error= 6.29D-10 at cycle  23 NSaved=  16.
 NSaved=16 IEnMin=13 EnMin= -1136.08248520473     IErMin=16 ErrMin= 6.29D-10
 ErrMax= 6.29D-10  0.00D+00 EMaxC= 1.00D-01 BMatC= 9.90D-17 BMatP= 2.61D-16
 IDIUse=1 WtCom= 1.00D+00 WtEn= 0.00D+00
 Large coefficients: NSaved= 16 BigCof=    0.00 CofMax=   10.00 Det=-1.41D-16
 Inversion failed.  Reducing to 15 matrices.
 Coeff-Com:  0.302D-04 0.571D-04-0.163D-03-0.191D-03 0.337D-04 0.821D-03
 Coeff-Com:  0.346D-03-0.404D-02 0.181D-02 0.142D-01 0.134D-01-0.172D+00
 Coeff-Com: -0.108D+00 0.686D+00 0.567D+00
 Coeff:      0.302D-04 0.571D-04-0.163D-03-0.191D-03 0.337D-04 0.821D-03
 Coeff:      0.346D-03-0.404D-02 0.181D-02 0.142D-01 0.134D-01-0.172D+00
 Coeff:     -0.108D+00 0.686D+00 0.567D+00
 Gap=     0.061 Goal=   None    Shift=    0.000
 Gap=     0.035 Goal=   None    Shift=    0.000
 RMSDP=2.89D-09 MaxDP=1.98D-07 DE=-4.55D-12 OVMax= 1.99D-08

 SCF Done:  E(UB3LYP) =  -1136.08248520     A.U. after   23 cycles
            NFock= 23  Conv=0.29D-08     -V/T= 2.0023
 <Sx>= 0.0000 <Sy>= 0.0000 <Sz>= 0.5000 <S**2>= 0.7602 S= 0.5051
 <L.S>= 0.000000000000E+00
 KE= 1.133501842476D+03 PE=-3.550955415238D+03 EE= 8.706779997492D+02
 Annihilation of the first spin contaminant:
 S**2 before annihilation     0.7602,   after     0.7501
 Leave Link  502 at Mon Nov 13 18:19:59 2023, MaxMem=  1879048192 cpu:             226.6 elap:              19.5
 (Enter /home/sekinelabo/g16/l601.exe)
 Copying SCF densities to generalized density rwf, IOpCl= 1 IROHF=0.

 **********************************************************************

            Population analysis using the SCF Density.

 **********************************************************************

 Orbital symmetries:
 Alpha Orbitals:
       Occupied  (A) (A) (A) (A) (A) (A) (A) (A) (A) (A) (A) (A)
                 (A) (A) (A) (A) (A) (A) (A) (A) (A) (A) (A) (A)
                 (A) (A) (A) (A) (A) (A) (A) (A) (A) (A) (A) (A)
                 (A) (A) (A)
       Virtual   (A) (A) (A) (A) (A) (A) (A) (A) (A) (A) (A) (A)
                 (A) (A) (A) (A) (A) (A) (A) (A) (A) (A) (A) (A)
                 (A) (A) (A) (A) (A) (A) (A) (A) (A) (A) (A) (A)
                 (A) (A) (A) (A) (A) (A) (A) (A) (A) (A) (A) (A)
                 (A) (A) (A) (A) (A) (A) (A) (A) (A) (A) (A) (A)
                 (A) (A) (A) (A) (A) (A) (A) (A) (A) (A) (A) (A)
                 (A) (A) (A) (A) (A) (A) (A) (A) (A) (A) (A) (A)
                 (A) (A) (A) (A) (A) (A) (A) (A) (A) (A) (A) (A)
                 (A) (A) (A) (A) (A) (A) (A) (A) (A) (A) (A) (A)
                 (A) (A) (A) (A) (A) (A) (A) (A) (A) (A) (A) (A)
                 (A) (A) (A) (A) (A) (A) (A) (A) (A) (A) (A) (A)
                 (A) (A) (A) (A) (A) (A) (A) (A) (A) (A) (A) (A)
                 (A) (A) (A) (A) (A) (A) (A) (A) (A) (A) (A) (A)
                 (A) (A) (A) (A) (A) (A) (A) (A) (A) (A) (A) (A)
                 (A) (A) (A)
 Beta  Orbitals:
       Occupied  (A) (A) (A) (A) (A) (A) (A) (A) (A) (A) (A) (A)
                 (A) (A) (A) (A) (A) (A) (A) (A) (A) (A) (A) (A)
                 (A) (A) (A) (A) (A) (A) (A) (A) (A) (A) (A) (A)
                 (A) (A)
       Virtual   (A) (A) (A) (A) (A) (A) (A) (A) (A) (A) (A) (A)
                 (A) (A) (A) (A) (A) (A) (A) (A) (A) (A) (A) (A)
                 (A) (A) (A) (A) (A) (A) (A) (A) (A) (A) (A) (A)
                 (A) (A) (A) (A) (A) (A) (A) (A) (A) (A) (A) (A)
                 (A) (A) (A) (A) (A) (A) (A) (A) (A) (A) (A) (A)
                 (A) (A) (A) (A) (A) (A) (A) (A) (A) (A) (A) (A)
                 (A) (A) (A) (A) (A) (A) (A) (A) (A) (A) (A) (A)
                 (A) (A) (A) (A) (A) (A) (A) (A) (A) (A) (A) (A)
                 (A) (A) (A) (A) (A) (A) (A) (A) (A) (A) (A) (A)
                 (A) (A) (A) (A) (A) (A) (A) (A) (A) (A) (A) (A)
                 (A) (A) (A) (A) (A) (A) (A) (A) (A) (A) (A) (A)
                 (A) (A) (A) (A) (A) (A) (A) (A) (A) (A) (A) (A)
                 (A) (A) (A) (A) (A) (A) (A) (A) (A) (A) (A) (A)
                 (A) (A) (A) (A) (A) (A) (A) (A) (A) (A) (A) (A)
                 (A) (A) (A) (A)
 The electronic state is 2-A.
 Alpha  occ. eigenvalues --  -38.44570 -38.44386 -38.44169 -38.43724 -38.43307
 Alpha  occ. eigenvalues --  -38.43199 -38.42989  -2.20602  -2.20590  -2.20447
 Alpha  occ. eigenvalues --   -2.19839  -2.19385  -2.19374  -2.19164  -1.14459
 Alpha  occ. eigenvalues --   -1.14403  -1.14350  -1.14282  -1.14242  -1.14217
 Alpha  occ. eigenvalues --   -1.14196  -1.14131  -1.13996  -1.13485  -1.13457
 Alpha  occ. eigenvalues --   -1.13402  -1.13127  -1.13075  -1.13037  -1.13012
 Alpha  occ. eigenvalues --   -1.13008  -1.12899  -1.12852  -1.12806  -1.12721
 Alpha  occ. eigenvalues --   -0.21499  -0.14412  -0.12620  -0.11918
 Alpha virt. eigenvalues --   -0.05843  -0.04203  -0.04059  -0.03578  -0.02811
 Alpha virt. eigenvalues --   -0.02706  -0.01433  -0.00351  -0.00312   0.00292
 Alpha virt. eigenvalues --    0.00653   0.00881   0.00944   0.01042   0.01070
 Alpha virt. eigenvalues --    0.01100   0.01309   0.01347   0.01409   0.01475
 Alpha virt. eigenvalues --    0.01530   0.01832   0.01927   0.01961   0.02026
 Alpha virt. eigenvalues --    0.02517   0.02780   0.02792   0.02955   0.02972
 Alpha virt. eigenvalues --    0.03017   0.03098   0.03148   0.03164   0.03279
 Alpha virt. eigenvalues --    0.03315   0.03409   0.03444   0.03861   0.03964
 Alpha virt. eigenvalues --    0.04093   0.05044   0.05084   0.05143   0.05276
 Alpha virt. eigenvalues --    0.05551   0.05596   0.05701   0.05868   0.06170
 Alpha virt. eigenvalues --    0.06511   0.06561   0.06889   0.07302   0.07370
 Alpha virt. eigenvalues --    0.07649   0.08499   0.08608   0.09135   0.09242
 Alpha virt. eigenvalues --    0.09558   0.10421   0.12045   0.12396   0.12632
 Alpha virt. eigenvalues --    0.12807   0.13015   0.13251   0.13573   0.13984
 Alpha virt. eigenvalues --    0.14335   0.14589   0.15003   0.15344   0.15501
 Alpha virt. eigenvalues --    0.16717   0.16845   0.17068   0.18077   0.18491
 Alpha virt. eigenvalues --    0.21892   0.24677   0.26934   0.28268   0.29251
 Alpha virt. eigenvalues --    0.30162   0.31504   0.31837   0.32789   0.34763
 Alpha virt. eigenvalues --    0.35449   0.36063   0.37436   0.38598   0.38779
 Alpha virt. eigenvalues --    0.40129   0.41188   0.42469   0.44053   0.44419
 Alpha virt. eigenvalues --    0.44469   0.44666   0.44933   0.46270   0.46987
 Alpha virt. eigenvalues --    0.47833   0.47908   0.48572   0.48939   0.49301
 Alpha virt. eigenvalues --    0.49729   0.50206   0.50315   0.51294   0.51705
 Alpha virt. eigenvalues --    0.52660   0.54413   0.55040   0.55465   0.55811
 Alpha virt. eigenvalues --    0.57494   0.60083   0.64093   0.65035   0.65596
 Alpha virt. eigenvalues --    0.68779   0.71357   0.71776   0.72269   0.75179
 Alpha virt. eigenvalues --    0.77142   0.78146   0.80294   0.82192   0.85147
 Alpha virt. eigenvalues --    0.86714   2.16833   2.22058   2.26983   2.27748
 Alpha virt. eigenvalues --    2.30346   2.31972   2.35414   4.40695   4.40917
 Alpha virt. eigenvalues --    4.41482   4.41910   4.42107   4.43744   4.45933
 Alpha virt. eigenvalues --    4.48267   4.48606   4.53744   4.57355   4.58041
 Alpha virt. eigenvalues --    4.63572   4.67390   4.73284   4.76028   4.76469
 Alpha virt. eigenvalues --    4.78744   4.84457   4.86004   4.92272  96.39054
 Alpha virt. eigenvalues --   96.48115  96.55395  96.55782  96.59443  96.62160
 Alpha virt. eigenvalues --   96.65907
  Beta  occ. eigenvalues --  -38.44566 -38.44320 -38.44091 -38.43689 -38.43295
  Beta  occ. eigenvalues --  -38.43164 -38.42958  -2.20583  -2.20485  -2.20309
  Beta  occ. eigenvalues --   -2.19779  -2.19365  -2.19319  -2.19115  -1.14423
  Beta  occ. eigenvalues --   -1.14340  -1.14253  -1.14242  -1.14216  -1.14150
  Beta  occ. eigenvalues --   -1.14117  -1.14042  -1.13908  -1.13442  -1.13396
  Beta  occ. eigenvalues --   -1.13347  -1.13103  -1.13049  -1.13009  -1.12969
  Beta  occ. eigenvalues --   -1.12926  -1.12873  -1.12818  -1.12748  -1.12670
  Beta  occ. eigenvalues --   -0.20645  -0.14162  -0.11668
  Beta virt. eigenvalues --   -0.08183  -0.05756  -0.04075  -0.03425  -0.03222
  Beta virt. eigenvalues --   -0.02046  -0.01753  -0.01372  -0.00330  -0.00055
  Beta virt. eigenvalues --    0.00327   0.00707   0.00878   0.01047   0.01089
  Beta virt. eigenvalues --    0.01145   0.01175   0.01339   0.01411   0.01516
  Beta virt. eigenvalues --    0.01575   0.01678   0.01877   0.01975   0.02062
  Beta virt. eigenvalues --    0.02119   0.02547   0.02781   0.02934   0.02945
  Beta virt. eigenvalues --    0.03002   0.03044   0.03097   0.03179   0.03243
  Beta virt. eigenvalues --    0.03355   0.03369   0.03504   0.03531   0.04003
  Beta virt. eigenvalues --    0.04167   0.04240   0.05138   0.05189   0.05273
  Beta virt. eigenvalues --    0.05411   0.05611   0.05734   0.05909   0.06128
  Beta virt. eigenvalues --    0.06319   0.06525   0.06607   0.06918   0.07408
  Beta virt. eigenvalues --    0.07487   0.07796   0.08498   0.08848   0.09214
  Beta virt. eigenvalues --    0.09351   0.09901   0.10876   0.12347   0.12501
  Beta virt. eigenvalues --    0.12801   0.12998   0.13148   0.13435   0.13808
  Beta virt. eigenvalues --    0.14160   0.14694   0.14806   0.15448   0.15587
  Beta virt. eigenvalues --    0.15689   0.16806   0.16995   0.17350   0.18386
  Beta virt. eigenvalues --    0.18725   0.22457   0.24729   0.27596   0.28770
  Beta virt. eigenvalues --    0.29590   0.30306   0.31959   0.32056   0.33055
  Beta virt. eigenvalues --    0.35078   0.35587   0.36684   0.37702   0.38900
  Beta virt. eigenvalues --    0.39014   0.40376   0.41489   0.42739   0.44216
  Beta virt. eigenvalues --    0.44530   0.44695   0.44815   0.45136   0.46522
  Beta virt. eigenvalues --    0.47142   0.47975   0.48058   0.48808   0.49117
  Beta virt. eigenvalues --    0.49506   0.49864   0.50301   0.50573   0.51344
  Beta virt. eigenvalues --    0.52154   0.53113   0.54545   0.55343   0.55733
  Beta virt. eigenvalues --    0.55940   0.57766   0.60435   0.64286   0.65168
  Beta virt. eigenvalues --    0.65729   0.69067   0.71567   0.72158   0.72526
  Beta virt. eigenvalues --    0.75397   0.77400   0.78209   0.80380   0.82386
  Beta virt. eigenvalues --    0.85410   0.86865   2.16889   2.22099   2.27206
  Beta virt. eigenvalues --    2.27799   2.30453   2.32190   2.35641   4.40778
  Beta virt. eigenvalues --    4.41007   4.41512   4.42006   4.42183   4.43815
  Beta virt. eigenvalues --    4.45980   4.48309   4.48669   4.53865   4.57428
  Beta virt. eigenvalues --    4.58106   4.63628   4.67468   4.73327   4.76117
  Beta virt. eigenvalues --    4.76531   4.78800   4.84546   4.86044   4.92330
  Beta virt. eigenvalues --   96.39085  96.48128  96.55428  96.55836  96.59497
  Beta virt. eigenvalues --   96.62228  96.65989
          Condensed to atoms (all electrons):
               1          2          3          4          5          6
     1  Na  14.575779   0.060678  -0.047766   1.172912  -0.587925  -1.930117
     2  Na   0.060678  13.612485   0.322436  -0.980092  -0.777106   0.341558
     3  Na  -0.047766   0.322436  12.784513  -0.349082  -1.560290  -0.348142
     4  Na   1.172912  -0.980092  -0.349082  13.446666  -0.275130  -1.387962
     5  Na  -0.587925  -0.777106  -1.560290  -0.275130  13.871446   0.015193
     6  Na  -1.930117   0.341558  -0.348142  -1.387962   0.015193  13.984245
     7  Na  -1.412945  -1.496540  -0.903808   0.064088   0.433947  -0.402694
               7
     1  Na  -1.412945
     2  Na  -1.496540
     3  Na  -0.903808
     4  Na   0.064088
     5  Na   0.433947
     6  Na  -0.402694
     7  Na  14.822443
          Atomic-Atomic Spin Densities.
               1          2          3          4          5          6
     1  Na  -0.014548  -0.295230  -0.357578   0.184618   0.284362   0.382370
     2  Na  -0.295230   0.750314   0.160669  -0.432420   0.196499  -0.155341
     3  Na  -0.357578   0.160669   0.485835  -0.302673  -0.119436  -0.239964
     4  Na   0.184618  -0.432420  -0.302673   0.379820   0.127403   0.233746
     5  Na   0.284362   0.196499  -0.119436   0.127403  -0.258314   0.110391
     6  Na   0.382370  -0.155341  -0.239964   0.233746   0.110391  -0.028544
     7  Na  -0.012593   0.141541   0.372680   0.015977  -0.410867   0.004305
               7
     1  Na  -0.012593
     2  Na   0.141541
     3  Na   0.372680
     4  Na   0.015977
     5  Na  -0.410867
     6  Na   0.004305
     7  Na  -0.091487
 Mulliken charges and spin densities:
               1          2
     1  Na  -0.830615   0.171402
     2  Na  -0.083419   0.366033
     3  Na   1.102139  -0.000466
     4  Na  -0.691400   0.206472
     5  Na  -0.120134  -0.069961
     6  Na   0.727919   0.306964
     7  Na  -0.104490   0.019557
 Sum of Mulliken charges =  -0.00000   1.00000
 Mulliken charges and spin densities with hydrogens summed into heavy atoms:
               1          2
     1  Na  -0.830615   0.171402
     2  Na  -0.083419   0.366033
     3  Na   1.102139  -0.000466
     4  Na  -0.691400   0.206472
     5  Na  -0.120134  -0.069961
     6  Na   0.727919   0.306964
     7  Na  -0.104490   0.019557
 Electronic spatial extent (au):  <R**2>=           1605.2988
 Charge=             -0.0000 electrons
 Dipole moment (field-independent basis, Debye):
    X=              0.3376    Y=              0.0210    Z=              0.1108  Tot=              0.3560
 Quadrupole moment (field-independent basis, Debye-Ang):
   XX=            -54.9525   YY=            -75.2592   ZZ=            -66.1054
   XY=             -0.3642   XZ=             -0.2761   YZ=             -0.6460
 Traceless Quadrupole moment (field-independent basis, Debye-Ang):
   XX=             10.4866   YY=             -9.8202   ZZ=             -0.6664
   XY=             -0.3642   XZ=             -0.2761   YZ=             -0.6460
 Octapole moment (field-independent basis, Debye-Ang**2):
  XXX=             24.8780  YYY=              1.1456  ZZZ=              1.0314  XYY=             -4.0576
  XXY=              1.9408  XXZ=              4.8480  XZZ=             -4.3853  YZZ=             -1.7733
  YYZ=             -0.9026  XYZ=              0.8729
 Hexadecapole moment (field-independent basis, Debye-Ang**3):
 XXXX=          -1144.4504 YYYY=           -942.0060 ZZZZ=           -679.7307 XXXY=            -11.5782
 XXXZ=             12.4322 YYYX=            -12.9322 YYYZ=            -11.0947 ZZZX=             18.5616
 ZZZY=             -0.8799 XXYY=           -357.0961 XXZZ=           -327.5203 YYZZ=           -268.3511
 XXYZ=             -1.3467 YYXZ=            -33.7570 ZZXY=             13.8461
 N-N= 4.106930878082D+02 E-N=-3.550955415206D+03  KE= 1.133501842476D+03
                          Isotropic Fermi Contact Couplings
        Atom                 a.u.       MegaHertz       Gauss      10(-4) cm-1
     1  Na(23)             0.05171      61.16945      21.82678      20.40393
     2  Na(23)             0.29447     348.36715     124.30606     116.20277
     3  Na(23)            -0.00849     -10.04963      -3.58596      -3.35220
     4  Na(23)             0.08213      97.16321      34.67025      32.41016
     5  Na(23)            -0.00913     -10.80358      -3.85498      -3.60368
     6  Na(23)             0.23947     283.29451     101.08653      94.49688
     7  Na(23)             0.09614     113.73715      40.58424      37.93863
 --------------------------------------------------------
       Center         ----  Spin Dipole Couplings  ----
                      3XX-RR        3YY-RR        3ZZ-RR
 --------------------------------------------------------
     1   Atom       -0.027447     -0.015957      0.043404
     2   Atom        0.011005     -0.002885     -0.008120
     3   Atom       -0.007943     -0.014988      0.022930
     4   Atom       -0.019218     -0.007788      0.027007
     5   Atom       -0.023668     -0.023384      0.047052
     6   Atom        0.017775     -0.004357     -0.013419
     7   Atom       -0.012627     -0.004608      0.017236
 --------------------------------------------------------
                        XY            XZ            YZ
 --------------------------------------------------------
     1   Atom       -0.010074      0.023112     -0.032557
     2   Atom        0.007524     -0.014568     -0.009294
     3   Atom        0.000170     -0.007798     -0.000387
     4   Atom        0.012656      0.023554      0.033279
     5   Atom       -0.004153      0.006237     -0.020090
     6   Atom        0.007603     -0.021981     -0.005508
     7   Atom        0.010597      0.019896      0.031648
 --------------------------------------------------------


 ---------------------------------------------------------------------------------
              Anisotropic Spin Dipole Couplings in Principal Axis System
 ---------------------------------------------------------------------------------

       Atom             a.u.   MegaHertz   Gauss  10(-4) cm-1        Axes

              Baa    -0.0343    -4.851    -1.731    -1.618  0.9641  0.0803 -0.2530
     1 Na(23) Bbb    -0.0303    -4.283    -1.528    -1.429  0.0276  0.9176  0.3965
              Bcc     0.0647     9.134     3.259     3.047  0.2640 -0.3893  0.8825
 
              Baa    -0.0178    -2.515    -0.897    -0.839  0.3418  0.3665  0.8654
     2 Na(23) Bbb    -0.0058    -0.813    -0.290    -0.271 -0.5134  0.8441 -0.1548
              Bcc     0.0236     3.328     1.188     1.110  0.7872  0.3914 -0.4767
 
              Baa    -0.0150    -2.117    -0.755    -0.706 -0.0167  0.9998  0.0068
     3 Na(23) Bbb    -0.0098    -1.384    -0.494    -0.462  0.9726  0.0146  0.2319
              Bcc     0.0248     3.501     1.249     1.168 -0.2318 -0.0105  0.9727
 
              Baa    -0.0296    -4.184    -1.493    -1.396  0.7479  0.3877 -0.5389
     4 Na(23) Bbb    -0.0269    -3.805    -1.358    -1.269 -0.5746  0.7845 -0.2331
              Bcc     0.0566     7.989     2.851     2.665  0.3324  0.4839  0.8095
 
              Baa    -0.0298    -4.204    -1.500    -1.402  0.4023  0.8932  0.2009
     5 Na(23) Bbb    -0.0233    -3.285    -1.172    -1.096  0.9108 -0.3684 -0.1861
              Bcc     0.0530     7.489     2.672     2.498  0.0922 -0.2578  0.9618
 
              Baa    -0.0249    -3.513    -1.254    -1.172  0.4464  0.0740  0.8918
     6 Na(23) Bbb    -0.0067    -0.940    -0.335    -0.314 -0.2568  0.9653  0.0485
              Bcc     0.0315     4.453     1.589     1.485  0.8572  0.2506 -0.4499
 
              Baa    -0.0282    -3.982    -1.421    -1.328  0.3324  0.6994 -0.6327
     7 Na(23) Bbb    -0.0198    -2.802    -1.000    -0.935  0.8773 -0.4756 -0.0648
              Bcc     0.0480     6.784     2.421     2.263  0.3462  0.5335  0.7717
 

 ---------------------------------------------------------------------------------

 No NMR shielding tensors so no spin-rotation constants.
 Leave Link  601 at Mon Nov 13 18:20:00 2023, MaxMem=  1879048192 cpu:               2.7 elap:               0.2
 (Enter /home/sekinelabo/g16/l701.exe)
 ... and contract with generalized density number  0.
 Compute integral first derivatives.
 Leave Link  701 at Mon Nov 13 18:20:00 2023, MaxMem=  1879048192 cpu:               1.7 elap:               0.1
 (Enter /home/sekinelabo/g16/l702.exe)
 L702 exits ... SP integral derivatives will be done elsewhere.
 Leave Link  702 at Mon Nov 13 18:20:00 2023, MaxMem=  1879048192 cpu:               0.4 elap:               0.0
 (Enter /home/sekinelabo/g16/l703.exe)
 Integral derivatives from FoFJK, PRISM(SPDF).
 Compute integral first derivatives, UseDBF=F ICtDFT=           0.
 Calling FoFJK, ICntrl=      2127 FMM=F ISym2X=0 I1Cent= 0 IOpClX= 1 NMat=1 NMatS=1 NMatT=0.
 FoFJK:  IHMeth= 1 ICntrl=    2127 DoSepK=F KAlg= 0 I1Cent=           0 FoldK=F
 IRaf=         0 NMat=       1 IRICut=       1 DoRegI=T DoRafI=F ISym2E= 0 IDoP0=0 IntGTp=1.
 FoFCou: FMM=F IPFlag=           0 FMFlag=      100000 FMFlg1=         800
         NFxFlg=           0 DoJE=F BraDBF=F KetDBF=F FulRan=T
         wScrn=  0.000000 ICntrl=      2127 IOpCl=  1 I1Cent=           0 NGrid=           0
         NMat0=    1 NMatS0=      1 NMatT0=    0 NMatD0=    1 NMtDS0=    0 NMtDT0=    0
 Symmetry not used in FoFCou.
 Leave Link  703 at Mon Nov 13 18:20:03 2023, MaxMem=  1879048192 cpu:              38.3 elap:               2.5
 (Enter /home/sekinelabo/g16/l716.exe)
 Dipole        = 1.32841462D-01 8.26257337D-03 4.36037821D-02
 ***** Axes restored to original set *****
 -------------------------------------------------------------------
 Center     Atomic                   Forces (Hartrees/Bohr)
 Number     Number              X              Y              Z
 -------------------------------------------------------------------
      1       11          -0.007290996    0.021404963   -0.005923012
      2       11          -0.003274702   -0.004642386    0.020531423
      3       11          -0.019578885   -0.000389585    0.003032118
      4       11          -0.002491969   -0.019757398   -0.012758485
      5       11           0.010643180   -0.017972402    0.006554513
      6       11           0.010671174    0.002830043   -0.022336947
      7       11           0.011322196    0.018526765    0.010900390
 -------------------------------------------------------------------
 Cartesian Forces:  Max     0.022336947 RMS     0.013170259
 Z-matrix is all fixed cartesians, so copy forces.
 Force constants in Cartesian coordinates: 
                1             2             3             4             5 
      1  0.179596D+00
      2 -0.253996D-01  0.207131D+00
      3  0.592263D-02 -0.340840D-01  0.156553D+00
      4 -0.269477D-01  0.986101D-02 -0.102721D-01  0.213513D+00
      5 -0.254308D-03 -0.378128D-01  0.360411D-01  0.613702D-02  0.198738D+00
      6  0.101103D-01 -0.327660D-02 -0.494693D-01 -0.937954D-02 -0.862025D-02
      7 -0.400001D-01  0.113182D-01 -0.546231D-02 -0.453955D-01 -0.272780D-02
      8 -0.335295D-01 -0.406896D-01  0.137110D-01  0.653950D-02 -0.340849D-01
      9  0.184830D-01  0.928896D-02 -0.336730D-01 -0.392238D-01  0.312521D-02
     10 -0.224433D-01  0.135652D-01 -0.540988D-02 -0.328357D-01 -0.227507D-02
     11 -0.930952D-02 -0.525465D-01 -0.214791D-01 -0.588531D-02 -0.370967D-01
     12 -0.719538D-02  0.170328D-01 -0.164928D-01 -0.132866D-01 -0.418999D-01
     13  0.310085D-02  0.169812D-01 -0.225025D-02 -0.427321D-01  0.185218D-01
     14  0.161176D-01  0.580070D-03  0.652362D-02 -0.355156D-02 -0.317289D-01
     15 -0.479141D-02  0.832369D-02  0.128781D-01  0.307191D-01 -0.228294D-01
     16 -0.606729D-01 -0.427139D-02  0.312171D-01 -0.905975D-02 -0.220933D-02
     17  0.304541D-01 -0.507349D-01 -0.200606D-01 -0.332875D-02 -0.127604D-02
     18 -0.954388D-02  0.150766D-01 -0.405595D-01  0.148504D-01  0.493965D-02
     19 -0.326329D-01 -0.220547D-01 -0.137451D-01 -0.565424D-01 -0.171923D-01
     20  0.219212D-01 -0.259275D-01  0.193479D-01 -0.977191D-02 -0.567387D-01
     21 -0.129852D-01 -0.123615D-01 -0.292364D-01  0.265926D-01  0.292435D-01
                6             7             8             9            10 
      6  0.287067D+00
      7  0.158428D-01  0.136874D+00
      8  0.268908D-02  0.240377D-02  0.837761D-01
      9 -0.527515D-01 -0.108772D-01 -0.297089D-02  0.842959D-01
     10  0.642236D-02 -0.392037D-01  0.300528D-01  0.228591D-01  0.166801D+00
     11  0.465791D-02 -0.111243D-01 -0.408101D-01 -0.855981D-02  0.160541D-01
     12 -0.691871D-01 -0.341770D-02 -0.137353D-01 -0.316908D-01  0.129688D-01
     13 -0.123861D-01 -0.310525D-02  0.353130D-02  0.415658D-03 -0.388074D-01
     14  0.113979D-01  0.340380D-02  0.806097D-02  0.113540D-02 -0.230490D-01
     15 -0.438068D-01 -0.336378D-03  0.268551D-02  0.120998D-01 -0.188419D-01
     16  0.510728D-02 -0.605319D-02 -0.230328D-02  0.110325D-01 -0.393286D-01
     17  0.577339D-02  0.616363D-04  0.139630D-01  0.108391D-02 -0.204116D-01
     18 -0.313531D-01  0.428207D-02  0.504884D-03  0.111631D-01 -0.125297D-01
     19 -0.157171D-01 -0.311666D-02 -0.669461D-02 -0.268928D-02  0.581810D-02
     20 -0.126214D-01 -0.333534D-02  0.978458D-02 -0.310279D-02 -0.139365D-01
     21 -0.404990D-01 -0.312399D-04 -0.288429D-02  0.105564D-01 -0.546881D-02
               11            12            13            14            15 
     11  0.201660D+00
     12  0.444672D-01  0.168040D+00
     13  0.239388D-01 -0.579528D-02  0.130714D+00
     14 -0.292827D-01 -0.151750D-01 -0.343670D-01  0.141179D+00
     15  0.625950D-02 -0.260564D-01  0.136672D-01 -0.152035D-01  0.106293D+00
     16  0.425067D-03  0.250877D-01 -0.314363D-01  0.189064D-01 -0.221931D-01
     17 -0.426741D-01  0.211277D-01 -0.103459D-01 -0.463099D-01  0.399262D-01
     18 -0.160735D-01 -0.315919D-01  0.146586D-01  0.719862D-02 -0.502398D-01
     19 -0.140989D-01 -0.836157D-02 -0.177338D-01  0.225397D-01  0.177657D-02
     20  0.750185D-03 -0.118175D-01 -0.182602D-01 -0.424984D-01 -0.191620D-01
     21 -0.927225D-02  0.697927D-02 -0.830989D-02  0.412295D-02 -0.111681D-01
               16            17            18            19            20 
     16  0.175108D+00
     17 -0.336429D-02  0.161304D+00
     18 -0.311519D-01 -0.154238D-01  0.209928D+00
     19 -0.285572D-01  0.693479D-02  0.194343D-01  0.132765D+00
     20 -0.718321D-02 -0.342722D-01  0.377753D-02  0.305659D-01  0.148902D+00
     21 -0.190996D-01 -0.324268D-01 -0.673469D-01  0.193022D-01  0.235783D-01
               21 
     21  0.130715D+00
 Leave Link  716 at Mon Nov 13 18:20:03 2023, MaxMem=  1879048192 cpu:               0.5 elap:               0.0
 (Enter /home/sekinelabo/g16/l103.exe)

 GradGradGradGradGradGradGradGradGradGradGradGradGradGradGradGradGradGrad
 Berny optimization.
 Search for a local minimum.
 Step number   1 out of a maximum of    2
 All quantities printed in internal units (Hartrees-Bohrs-Radians)
 Second derivative matrix not updated -- first step.
 ITU=  0
     Eigenvalues ---    0.11333   0.11947   0.14540   0.16691   0.18655
     Eigenvalues ---    0.20291   0.21693   0.23345   0.24079   0.24587
     Eigenvalues ---    0.26366   0.29123   0.30522   0.30747   0.34889
 Quadratic step=3.796D-01 exceeds max=3.000D-01 adjusted using Lamda=-3.791D-02.
 Angle between NR and scaled steps=   2.97 degrees.
 Angle between quadratic step and forces=  14.12 degrees.
 Linear search not attempted -- first point.
 B after Tr=     0.000000    0.000000    0.000000
         Rot=    1.000000    0.000000    0.000000    0.000000 Ang=   0.00 deg.
 Variable       Old X    -DE/DX   Delta X   Delta X   Delta X     New X
                                 (Linear)    (Quad)   (Total)
    X1        4.01468  -0.00729   0.00000  -0.03990  -0.03990   3.97478
    Y1        5.98163   0.02140   0.00000   0.09289   0.09289   6.07452
    Z1        1.45764  -0.00592   0.00000  -0.02724  -0.02724   1.43040
    X2        4.91567  -0.00327   0.00000  -0.01686  -0.01686   4.89881
    Y2        2.48814  -0.00464   0.00000  -0.01537  -0.01537   2.47276
    Z2        5.89692   0.02053   0.00000   0.07391   0.07391   5.97084
    X3        0.00000  -0.01958   0.00000  -0.13930  -0.13930  -0.13930
    Y3        2.82097  -0.00039   0.00000  -0.00859  -0.00859   2.81238
    Z3        3.46755   0.00303   0.00000   0.01640   0.01640   3.48395
    X4        4.20791  -0.00249   0.00000  -0.02492  -0.02492   4.18299
    Y4        0.13022  -0.01976   0.00000  -0.08304  -0.08304   0.04717
    Z4        1.19558  -0.01276   0.00000  -0.05113  -0.05113   1.14444
    X5        9.54393   0.01064   0.00000   0.07858   0.07858   9.62252
    Y5        0.00000  -0.01797   0.00000  -0.09320  -0.09320  -0.09320
    Z5        3.62489   0.00655   0.00000   0.02671   0.02671   3.65161
    X6        8.54543   0.01067   0.00000   0.06632   0.06632   8.61174
    Y6        3.70386   0.00283   0.00000   0.01684   0.01684   3.72070
    Z6        0.00000  -0.02234   0.00000  -0.08466  -0.08466  -0.08466
    X7        8.89863   0.01132   0.00000   0.07607   0.07607   8.97470
    Y7        5.76573   0.01853   0.00000   0.09048   0.09048   5.85622
    Z7        4.80131   0.01090   0.00000   0.04601   0.04601   4.84731
         Item               Value     Threshold  Converged?
 Maximum Force            0.022337     0.000450     NO 
 RMS     Force            0.013170     0.000300     NO 
 Maximum Displacement     0.139302     0.001800     NO 
 RMS     Displacement     0.065589     0.001200     NO 
 Predicted change in Energy=-1.050829D-02
 GradGradGradGradGradGradGradGradGradGradGradGradGradGradGradGradGradGrad

 Leave Link  103 at Mon Nov 13 18:20:03 2023, MaxMem=  1879048192 cpu:               0.3 elap:               0.0
 (Enter /home/sekinelabo/g16/l9999.exe)
 1\1\GINC-SEKINELABO-XA7R-R37\Force\UB3LYP\6-311+G(d)\Na7(2)\SEKINELABO
 \13-Nov-2023\0\\#P B3LYP/6-311+g(d) force\\Gaussian input prepared by 
 ASE\\0,2\Na,2.1244774627,3.165344389,0.7713505768\Na,2.6012609494,1.31
 66653112,3.1205180989\Na,0.,1.4927920949,1.834949232\Na,2.2267309459,0
 .0689069787,0.6326712138\Na,5.0504308694,0.,1.9182116547\Na,4.52204464
 98,1.9599978844,0.\Na,4.708952249,3.051094972,2.5407413769\\Version=ES
 64L-G16RevB.01\State=2-A\HF=-1136.0824852\S2=0.760205\S2-1=0.\S2A=0.75
 0057\RMSD=2.887e-09\RMSF=1.317e-02\Dipole=-0.1328415,-0.0082626,0.0436
 038\Quadrupole=7.796519,-7.3010758,-0.4954432,-0.2707928,0.2052421,0.4
 803132\PG=C01 [X(Na7)]\\@


 When cryptography is outlawed, bayl bhgynjf jvyy unir cevinpl.
 Job cpu time:       0 days  0 hours  4 minutes 42.7 seconds.
 Elapsed time:       0 days  0 hours  0 minutes 23.1 seconds.
 File lengths (MBytes):  RWF=     32 Int=      0 D2E=      0 Chk=      5 Scr=      1
 Normal termination of Gaussian 16 at Mon Nov 13 18:20:03 2023.
