 Entering Gaussian System, Link 0=g16
 Initial command:
 /home/sekinelabo/g16/l1.exe "/home/sekinelabo/g16temp/Gau-4150709.inp" -scrdir="/home/sekinelabo/g16temp/"
 Entering Link 1 = /home/sekinelabo/g16/l1.exe PID=   4150711.
  
 Copyright (c) 1988-2017, Gaussian, Inc.  All Rights Reserved.
  
 This is part of the Gaussian(R) 16 program.  It is based on
 the Gaussian(R) 09 system (copyright 2009, Gaussian, Inc.),
 the Gaussian(R) 03 system (copyright 2003, Gaussian, Inc.),
 the Gaussian(R) 98 system (copyright 1998, Gaussian, Inc.),
 the Gaussian(R) 94 system (copyright 1995, Gaussian, Inc.),
 the Gaussian 92(TM) system (copyright 1992, Gaussian, Inc.),
 the Gaussian 90(TM) system (copyright 1990, Gaussian, Inc.),
 the Gaussian 88(TM) system (copyright 1988, Gaussian, Inc.),
 the Gaussian 86(TM) system (copyright 1986, Carnegie Mellon
 University), and the Gaussian 82(TM) system (copyright 1983,
 Carnegie Mellon University). Gaussian is a federally registered
 trademark of Gaussian, Inc.
  
 This software contains proprietary and confidential information,
 including trade secrets, belonging to Gaussian, Inc.
  
 This software is provided under written license and may be
 used, copied, transmitted, or stored only in accord with that
 written license.
  
 The following legend is applicable only to US Government
 contracts under FAR:
  
                    RESTRICTED RIGHTS LEGEND
  
 Use, reproduction and disclosure by the US Government is
 subject to restrictions as set forth in subparagraphs (a)
 and (c) of the Commercial Computer Software - Restricted
 Rights clause in FAR 52.227-19.
  
 Gaussian, Inc.
 340 Quinnipiac St., Bldg. 40, Wallingford CT 06492
  
  
 ---------------------------------------------------------------
 Warning -- This program may not be used in any manner that
 competes with the business of Gaussian, Inc. or will provide
 assistance to any competitor of Gaussian, Inc.  The licensee
 of this program is prohibited from giving any competitor of
 Gaussian, Inc. access to this program.  By using this program,
 the user acknowledges that Gaussian, Inc. is engaged in the
 business of creating and licensing software in the field of
 computational chemistry and represents and warrants to the
 licensee that it is not a competitor of Gaussian, Inc. and that
 it will not use this program in any manner prohibited above.
 ---------------------------------------------------------------
  

 Cite this work as:
 Gaussian 16, Revision B.01,
 M. J. Frisch, G. W. Trucks, H. B. Schlegel, G. E. Scuseria, 
 M. A. Robb, J. R. Cheeseman, G. Scalmani, V. Barone, 
 G. A. Petersson, H. Nakatsuji, X. Li, M. Caricato, A. V. Marenich, 
 J. Bloino, B. G. Janesko, R. Gomperts, B. Mennucci, H. P. Hratchian, 
 J. V. Ortiz, A. F. Izmaylov, J. L. Sonnenberg, D. Williams-Young, 
 F. Ding, F. Lipparini, F. Egidi, J. Goings, B. Peng, A. Petrone, 
 T. Henderson, D. Ranasinghe, V. G. Zakrzewski, J. Gao, N. Rega, 
 G. Zheng, W. Liang, M. Hada, M. Ehara, K. Toyota, R. Fukuda, 
 J. Hasegawa, M. Ishida, T. Nakajima, Y. Honda, O. Kitao, H. Nakai, 
 T. Vreven, K. Throssell, J. A. Montgomery, Jr., J. E. Peralta, 
 F. Ogliaro, M. J. Bearpark, J. J. Heyd, E. N. Brothers, K. N. Kudin, 
 V. N. Staroverov, T. A. Keith, R. Kobayashi, J. Normand, 
 K. Raghavachari, A. P. Rendell, J. C. Burant, S. S. Iyengar, 
 J. Tomasi, M. Cossi, J. M. Millam, M. Klene, C. Adamo, R. Cammi, 
 J. W. Ochterski, R. L. Martin, K. Morokuma, O. Farkas, 
 J. B. Foresman, and D. J. Fox, Gaussian, Inc., Wallingford CT, 2016.
 
 ******************************************
 Gaussian 16:  ES64L-G16RevB.01 20-Dec-2017
                13-Nov-2023 
 ******************************************
 %mem=14GB
 %chk=checkpoint.chk
 %nprocshared=16
 Will use up to   16 processors via shared memory.
 -------------------------
 #P B3LYP/6-311+g(d) force
 -------------------------
 1/10=7,30=1,38=1/1,3;
 2/12=2,17=6,18=5,40=1/2;
 3/5=4,6=6,7=11,11=2,25=1,30=1,71=1,74=-5/1,2,3;
 4//1;
 5/5=2,38=5/2;
 6/7=2,8=2,9=2,10=2,28=1/1;
 7/29=1/1,2,3,16;
 1/10=7,30=1/3;
 99//99;
 Leave Link    1 at Mon Nov 13 19:32:20 2023, MaxMem=  1879048192 cpu:               0.3 elap:               0.0
 (Enter /home/sekinelabo/g16/l101.exe)
 ------------------------------
 Gaussian input prepared by ASE
 ------------------------------
 Symbolic Z-matrix:
 Charge =  0 Multiplicity = 2
 Na                    2.7981    0.08678   0.82665 
 Na                    1.58994   2.48361   0. 
 Na                    0.        0.        1.02504 
 Na                    1.91315   0.07653   3.49448 
 Na                    0.72876   2.48424   2.67288 
 Na                    3.52615   2.5568    2.46229 
 Na                    5.58517   0.78173   1.38447 
 
 ITRead=  0  0  0  0  0  0  0
 MicOpt= -1 -1 -1 -1 -1 -1 -1
 NAtoms=      7 NQM=        7 NQMF=       0 NMMI=      0 NMMIF=      0
                NMic=       0 NMicF=      0.
                    Isotopes and Nuclear Properties:
 (Nuclear quadrupole moments (NQMom) in fm**2, nuclear magnetic moments (NMagM)
  in nuclear magnetons)

  Atom         1           2           3           4           5           6           7
 IAtWgt=          23          23          23          23          23          23          23
 AtmWgt=  22.9897697  22.9897697  22.9897697  22.9897697  22.9897697  22.9897697  22.9897697
 NucSpn=           3           3           3           3           3           3           3
 AtZEff=  -0.0000000  -0.0000000  -0.0000000  -0.0000000  -0.0000000  -0.0000000  -0.0000000
 NQMom=   10.4000000  10.4000000  10.4000000  10.4000000  10.4000000  10.4000000  10.4000000
 NMagM=    2.2175200   2.2175200   2.2175200   2.2175200   2.2175200   2.2175200   2.2175200
 AtZNuc=  11.0000000  11.0000000  11.0000000  11.0000000  11.0000000  11.0000000  11.0000000
 Leave Link  101 at Mon Nov 13 19:32:20 2023, MaxMem=  1879048192 cpu:               2.6 elap:               0.2
 (Enter /home/sekinelabo/g16/l103.exe)

 GradGradGradGradGradGradGradGradGradGradGradGradGradGradGradGradGradGrad
 Berny optimization.
 Initialization pass.
 Trust Radius=3.00D-01 FncErr=1.00D-07 GrdErr=1.00D-07 EigMax=2.50D+02 EigMin=1.00D-04
 Number of steps in this run=      2 maximum allowed number of steps=      2.
 GradGradGradGradGradGradGradGradGradGradGradGradGradGradGradGradGradGrad

 Leave Link  103 at Mon Nov 13 19:32:20 2023, MaxMem=  1879048192 cpu:               0.2 elap:               0.0
 (Enter /home/sekinelabo/g16/l202.exe)
                          Input orientation:                          
 ---------------------------------------------------------------------
 Center     Atomic      Atomic             Coordinates (Angstroms)
 Number     Number       Type             X           Y           Z
 ---------------------------------------------------------------------
      1         11           0        2.798103    0.086783    0.826652
      2         11           0        1.589942    2.483605    0.000000
      3         11           0        0.000000    0.000000    1.025040
      4         11           0        1.913150    0.076532    3.494480
      5         11           0        0.728760    2.484236    2.672878
      6         11           0        3.526154    2.556800    2.462289
      7         11           0        5.585174    0.781735    1.384474
 ---------------------------------------------------------------------
                    Distance matrix (angstroms):
                    1          2          3          4          5
     1  Na   0.000000
     2  Na   2.808517   0.000000
     3  Na   2.806469   3.122005   0.000000
     4  Na   2.810792   4.255568   3.124761   0.000000
     5  Na   3.665858   2.808186   3.068858   2.806216   0.000000
     6  Na   3.050632   3.133232   4.586575   3.133517   2.806247
     7  Na   2.926071   4.557961   5.651059   4.293390   5.305021
                    6          7
     6  Na   0.000000
     7  Na   2.924398   0.000000
 Stoichiometry    Na7(2)
 Framework group  C1[X(Na7)]
 Deg. of freedom    15
 Full point group                 C1      NOp   1
 Largest Abelian subgroup         C1      NOp   1
 Largest concise Abelian subgroup C1      NOp   1
                         Standard orientation:                         
 ---------------------------------------------------------------------
 Center     Atomic      Atomic             Coordinates (Angstroms)
 Number     Number       Type             X           Y           Z
 ---------------------------------------------------------------------
      1         11           0        0.492205   -1.123173   -0.868464
      2         11           0       -0.715956    1.273649   -1.695116
      3         11           0       -2.305898   -1.209956   -0.670076
      4         11           0       -0.392748   -1.133424    1.799364
      5         11           0       -1.577137    1.274280    0.977761
      6         11           0        1.220256    1.346844    0.767173
      7         11           0        3.279276   -0.428221   -0.310642
 ---------------------------------------------------------------------
 Rotational constants (GHZ):           1.2072527           0.7349213           0.7276702
 Leave Link  202 at Mon Nov 13 19:32:20 2023, MaxMem=  1879048192 cpu:               0.1 elap:               0.0
 (Enter /home/sekinelabo/g16/l301.exe)
 Standard basis: 6-311+G(d) (5D, 7F)
 Ernie: Thresh=  0.10000D-02 Tol=  0.10000D-05 Strict=F.
 There are   217 symmetry adapted cartesian basis functions of A   symmetry.
 There are   210 symmetry adapted basis functions of A   symmetry.
   210 basis functions,   350 primitive gaussians,   217 cartesian basis functions
    39 alpha electrons       38 beta electrons
       nuclear repulsion energy       403.1681112124 Hartrees.
 IExCor=  402 DFT=T Ex+Corr=B3LYP ExCW=0 ScaHFX=  0.200000
 ScaDFX=  0.800000  0.720000  1.000000  0.810000 ScalE2=  1.000000  1.000000
 IRadAn=      5 IRanWt=     -1 IRanGd=            0 ICorTp=0 IEmpDi=  4
 NAtoms=    7 NActive=    7 NUniq=    7 SFac= 1.00D+00 NAtFMM=   60 NAOKFM=F Big=F
 Integral buffers will be    131072 words long.
 Raffenetti 2 integral format.
 Two-electron integral symmetry is turned on.
 Leave Link  301 at Mon Nov 13 19:32:20 2023, MaxMem=  1879048192 cpu:               0.5 elap:               0.0
 (Enter /home/sekinelabo/g16/l302.exe)
 NPDir=0 NMtPBC=     1 NCelOv=     1 NCel=       1 NClECP=     1 NCelD=      1
         NCelK=      1 NCelE2=     1 NClLst=     1 CellRange=     0.0.
 One-electron integrals computed using PRISM.
 One-electron integral symmetry used in STVInt
 NBasis=   210 RedAO= T EigKep=  1.72D-06  NBF=   210
 NBsUse=   209 1.00D-06 EigRej=  9.53D-07 NBFU=   209
 Precomputing XC quadrature grid using
 IXCGrd= 4 IRadAn=           5 IRanWt=          -1 IRanGd=           0 AccXCQ= 0.00D+00.
 Generated NRdTot=       0 NPtTot=           0 NUsed=           0 NTot=          32
 NSgBfM=   211   211   211   211   211 MxSgAt=     7 MxSgA2=     7.
 Leave Link  302 at Mon Nov 13 19:32:20 2023, MaxMem=  1879048192 cpu:               2.1 elap:               0.1
 (Enter /home/sekinelabo/g16/l303.exe)
 DipDrv:  MaxL=1.
 Leave Link  303 at Mon Nov 13 19:32:20 2023, MaxMem=  1879048192 cpu:               0.6 elap:               0.0
 (Enter /home/sekinelabo/g16/l401.exe)
 ExpMin= 7.60D-03 ExpMax= 3.62D+04 ExpMxC= 1.21D+03 IAcc=3 IRadAn=         5 AccDes= 0.00D+00
 Harris functional with IExCor=  402 and IRadAn=       5 diagonalized for initial guess.
 HarFok:  IExCor=  402 AccDes= 0.00D+00 IRadAn=         5 IDoV= 1 UseB2=F ITyADJ=14
 ICtDFT=  3500011 ScaDFX=  1.000000  1.000000  1.000000  1.000000
 FoFCou: FMM=F IPFlag=           0 FMFlag=      100000 FMFlg1=           0
         NFxFlg=           0 DoJE=T BraDBF=F KetDBF=T FulRan=T
         wScrn=  0.000000 ICntrl=       500 IOpCl=  0 I1Cent=   200000004 NGrid=           0
         NMat0=    1 NMatS0=      1 NMatT0=    0 NMatD0=    1 NMtDS0=    0 NMtDT0=    0
 Petite list used in FoFCou.
 Harris En= -1135.85757022342    
 JPrj=0 DoOrth=F DoCkMO=F.
 Initial guess <Sx>= 0.0000 <Sy>= 0.0000 <Sz>= 0.5000 <S**2>= 0.7500 S= 0.5000
 Leave Link  401 at Mon Nov 13 19:32:21 2023, MaxMem=  1879048192 cpu:               4.8 elap:               0.3
 (Enter /home/sekinelabo/g16/l502.exe)
 Keep R1 and R2 ints in memory in canonical form, NReq=507620388.
 FoFCou: FMM=F IPFlag=           0 FMFlag=           0 FMFlg1=           0
         NFxFlg=           0 DoJE=F BraDBF=F KetDBF=F FulRan=T
         wScrn=  0.000000 ICntrl=       600 IOpCl=  0 I1Cent=           0 NGrid=           0
         NMat0=    1 NMatS0=  22155 NMatT0=    0 NMatD0=    1 NMtDS0=    0 NMtDT0=    0
 Symmetry not used in FoFCou.
 Two-electron integral symmetry not used.
 UHF open shell SCF:
 Using DIIS extrapolation, IDIIS=  1040.
 NGot=  1879048192 LenX=  1388082348 LenY=  1388034818
 Requested convergence on RMS density matrix=1.00D-08 within 128 cycles.
 Requested convergence on MAX density matrix=1.00D-06.
 Requested convergence on             energy=1.00D-06.
 No special actions if energy rises.

 Cycle   1  Pass 1  IDiag  1:
 E= -1136.03515796162    
 DIIS: error= 1.57D-02 at cycle   1 NSaved=   1.
 NSaved= 1 IEnMin= 1 EnMin= -1136.03515796162     IErMin= 1 ErrMin= 1.57D-02
 ErrMax= 1.57D-02  0.00D+00 EMaxC= 1.00D-01 BMatC= 2.12D-01 BMatP= 2.12D-01
 IDIUse=3 WtCom= 8.43D-01 WtEn= 1.57D-01
 Coeff-Com:  0.100D+01
 Coeff-En:   0.100D+01
 Coeff:      0.100D+01
 Gap=     0.061 Goal=   None    Shift=    0.000
 Gap=     0.024 Goal=   None    Shift=    0.000
 GapD=    0.024 DampG=0.250 DampE=0.500 DampFc=0.2500 IDamp=-1.
 Damping current iteration by 2.50D-01
 RMSDP=9.51D-02 MaxDP=9.57D+00              OVMax= 2.70D-01

 Cycle   2  Pass 1  IDiag  1:
 E= -1136.05219707953     Delta-E=       -0.017039117909 Rises=F Damp=T
 DIIS: error= 8.33D-03 at cycle   2 NSaved=   2.
 NSaved= 2 IEnMin= 2 EnMin= -1136.05219707953     IErMin= 2 ErrMin= 8.33D-03
 ErrMax= 8.33D-03  0.00D+00 EMaxC= 1.00D-01 BMatC= 7.95D-02 BMatP= 2.12D-01
 IDIUse=3 WtCom= 9.17D-01 WtEn= 8.33D-02
 Coeff-Com: -0.124D+01 0.224D+01
 Coeff-En:   0.000D+00 0.100D+01
 Coeff:     -0.114D+01 0.214D+01
 Gap=     0.061 Goal=   None    Shift=    0.000
 Gap=     0.028 Goal=   None    Shift=    0.000
 RMSDP=4.15D-02 MaxDP=3.84D+00 DE=-1.70D-02 OVMax= 1.99D-01

 Cycle   3  Pass 1  IDiag  1:
 E= -1136.07994371627     Delta-E=       -0.027746636739 Rises=F Damp=F
 DIIS: error= 4.34D-03 at cycle   3 NSaved=   3.
 NSaved= 3 IEnMin= 3 EnMin= -1136.07994371627     IErMin= 3 ErrMin= 4.34D-03
 ErrMax= 4.34D-03  0.00D+00 EMaxC= 1.00D-01 BMatC= 5.36D-03 BMatP= 7.95D-02
 IDIUse=3 WtCom= 9.57D-01 WtEn= 4.34D-02
 Coeff-Com: -0.315D+00 0.568D+00 0.747D+00
 Coeff-En:   0.000D+00 0.000D+00 0.100D+01
 Coeff:     -0.301D+00 0.543D+00 0.758D+00
 Gap=     0.054 Goal=   None    Shift=    0.000
 Gap=     0.028 Goal=   None    Shift=    0.000
 RMSDP=1.70D-02 MaxDP=1.76D+00 DE=-2.77D-02 OVMax= 9.21D-02

 Cycle   4  Pass 1  IDiag  1:
 E= -1136.08070154564     Delta-E=       -0.000757829366 Rises=F Damp=F
 DIIS: error= 3.18D-03 at cycle   4 NSaved=   4.
 NSaved= 4 IEnMin= 4 EnMin= -1136.08070154564     IErMin= 4 ErrMin= 3.18D-03
 ErrMax= 3.18D-03  0.00D+00 EMaxC= 1.00D-01 BMatC= 3.62D-03 BMatP= 5.36D-03
 IDIUse=3 WtCom= 9.68D-01 WtEn= 3.18D-02
 Coeff-Com: -0.705D-02 0.129D-01 0.449D+00 0.545D+00
 Coeff-En:   0.000D+00 0.000D+00 0.444D+00 0.556D+00
 Coeff:     -0.682D-02 0.125D-01 0.449D+00 0.546D+00
 Gap=     0.057 Goal=   None    Shift=    0.000
 Gap=     0.029 Goal=   None    Shift=    0.000
 RMSDP=4.56D-03 MaxDP=4.81D-01 DE=-7.58D-04 OVMax= 5.53D-02

 Cycle   5  Pass 1  IDiag  1:
 E= -1136.08298088139     Delta-E=       -0.002279335755 Rises=F Damp=F
 DIIS: error= 1.11D-03 at cycle   5 NSaved=   5.
 NSaved= 5 IEnMin= 5 EnMin= -1136.08298088139     IErMin= 5 ErrMin= 1.11D-03
 ErrMax= 1.11D-03  0.00D+00 EMaxC= 1.00D-01 BMatC= 2.53D-04 BMatP= 3.62D-03
 IDIUse=3 WtCom= 9.89D-01 WtEn= 1.11D-02
 Coeff-Com: -0.688D-03 0.357D-03 0.277D+00 0.354D+00 0.369D+00
 Coeff-En:   0.000D+00 0.000D+00 0.000D+00 0.173D-01 0.983D+00
 Coeff:     -0.681D-03 0.353D-03 0.274D+00 0.350D+00 0.376D+00
 Gap=     0.057 Goal=   None    Shift=    0.000
 Gap=     0.029 Goal=   None    Shift=    0.000
 RMSDP=1.26D-03 MaxDP=8.54D-02 DE=-2.28D-03 OVMax= 1.64D-02

 Cycle   6  Pass 1  IDiag  1:
 E= -1136.08324417068     Delta-E=       -0.000263289282 Rises=F Damp=F
 DIIS: error= 1.30D-04 at cycle   6 NSaved=   6.
 NSaved= 6 IEnMin= 6 EnMin= -1136.08324417068     IErMin= 6 ErrMin= 1.30D-04
 ErrMax= 1.30D-04  0.00D+00 EMaxC= 1.00D-01 BMatC= 3.99D-06 BMatP= 2.53D-04
 IDIUse=3 WtCom= 9.99D-01 WtEn= 1.30D-03
 Coeff-Com: -0.119D-02 0.108D-02-0.471D-01-0.646D-01 0.471D-01 0.106D+01
 Coeff-En:   0.000D+00 0.000D+00 0.000D+00 0.000D+00 0.000D+00 0.100D+01
 Coeff:     -0.119D-02 0.108D-02-0.470D-01-0.646D-01 0.471D-01 0.106D+01
 Gap=     0.057 Goal=   None    Shift=    0.000
 Gap=     0.029 Goal=   None    Shift=    0.000
 RMSDP=5.58D-04 MaxDP=4.47D-02 DE=-2.63D-04 OVMax= 3.15D-03

 Cycle   7  Pass 1  IDiag  1:
 E= -1136.08325139312     Delta-E=       -0.000007222440 Rises=F Damp=F
 DIIS: error= 4.60D-05 at cycle   7 NSaved=   7.
 NSaved= 7 IEnMin= 7 EnMin= -1136.08325139312     IErMin= 7 ErrMin= 4.60D-05
 ErrMax= 4.60D-05  0.00D+00 EMaxC= 1.00D-01 BMatC= 4.74D-07 BMatP= 3.99D-06
 IDIUse=1 WtCom= 1.00D+00 WtEn= 0.00D+00
 Coeff-Com: -0.681D-04-0.653D-04-0.296D-01-0.382D-01-0.421D-02 0.323D+00
 Coeff-Com:  0.749D+00
 Coeff:     -0.681D-04-0.653D-04-0.296D-01-0.382D-01-0.421D-02 0.323D+00
 Coeff:      0.749D+00
 Gap=     0.057 Goal=   None    Shift=    0.000
 Gap=     0.029 Goal=   None    Shift=    0.000
 RMSDP=1.17D-04 MaxDP=8.87D-03 DE=-7.22D-06 OVMax= 1.76D-03

 Cycle   8  Pass 1  IDiag  1:
 E= -1136.08325209961     Delta-E=       -0.000000706499 Rises=F Damp=F
 DIIS: error= 4.26D-05 at cycle   8 NSaved=   8.
 NSaved= 8 IEnMin= 8 EnMin= -1136.08325209961     IErMin= 8 ErrMin= 4.26D-05
 ErrMax= 4.26D-05  0.00D+00 EMaxC= 1.00D-01 BMatC= 3.63D-07 BMatP= 4.74D-07
 IDIUse=1 WtCom= 1.00D+00 WtEn= 0.00D+00
 Coeff-Com:  0.561D-03-0.690D-03-0.406D-02-0.301D-02-0.209D-01-0.168D+00
 Coeff-Com:  0.535D+00 0.661D+00
 Coeff:      0.561D-03-0.690D-03-0.406D-02-0.301D-02-0.209D-01-0.168D+00
 Coeff:      0.535D+00 0.661D+00
 Gap=     0.057 Goal=   None    Shift=    0.000
 Gap=     0.029 Goal=   None    Shift=    0.000
 RMSDP=7.56D-05 MaxDP=4.92D-03 DE=-7.06D-07 OVMax= 1.43D-03

 Cycle   9  Pass 1  IDiag  1:
 E= -1136.08325275085     Delta-E=       -0.000000651235 Rises=F Damp=F
 DIIS: error= 1.03D-05 at cycle   9 NSaved=   9.
 NSaved= 9 IEnMin= 9 EnMin= -1136.08325275085     IErMin= 9 ErrMin= 1.03D-05
 ErrMax= 1.03D-05  0.00D+00 EMaxC= 1.00D-01 BMatC= 2.26D-08 BMatP= 3.63D-07
 IDIUse=1 WtCom= 1.00D+00 WtEn= 0.00D+00
 Coeff-Com:  0.204D-03-0.243D-03 0.188D-02 0.299D-02-0.467D-02-0.699D-01
 Coeff-Com:  0.269D-01 0.128D+00 0.915D+00
 Coeff:      0.204D-03-0.243D-03 0.188D-02 0.299D-02-0.467D-02-0.699D-01
 Coeff:      0.269D-01 0.128D+00 0.915D+00
 Gap=     0.057 Goal=   None    Shift=    0.000
 Gap=     0.029 Goal=   None    Shift=    0.000
 RMSDP=3.89D-05 MaxDP=3.40D-03 DE=-6.51D-07 OVMax= 1.23D-03

 Cycle  10  Pass 1  IDiag  1:
 E= -1136.08325290836     Delta-E=       -0.000000157507 Rises=F Damp=F
 DIIS: error= 9.02D-06 at cycle  10 NSaved=  10.
 NSaved=10 IEnMin=10 EnMin= -1136.08325290836     IErMin=10 ErrMin= 9.02D-06
 ErrMax= 9.02D-06  0.00D+00 EMaxC= 1.00D-01 BMatC= 1.48D-08 BMatP= 2.26D-08
 IDIUse=1 WtCom= 1.00D+00 WtEn= 0.00D+00
 Coeff-Com: -0.239D-05 0.135D-04 0.206D-02 0.219D-02 0.240D-02-0.508D-02
 Coeff-Com: -0.889D-01-0.780D-01 0.419D+00 0.746D+00
 Coeff:     -0.239D-05 0.135D-04 0.206D-02 0.219D-02 0.240D-02-0.508D-02
 Coeff:     -0.889D-01-0.780D-01 0.419D+00 0.746D+00
 Gap=     0.057 Goal=   None    Shift=    0.000
 Gap=     0.029 Goal=   None    Shift=    0.000
 RMSDP=2.73D-05 MaxDP=2.92D-03 DE=-1.58D-07 OVMax= 1.06D-03

 Cycle  11  Pass 1  IDiag  1:
 E= -1136.08325300854     Delta-E=       -0.000000100183 Rises=F Damp=F
 DIIS: error= 8.39D-06 at cycle  11 NSaved=  11.
 NSaved=11 IEnMin=11 EnMin= -1136.08325300854     IErMin=11 ErrMin= 8.39D-06
 ErrMax= 8.39D-06  0.00D+00 EMaxC= 1.00D-01 BMatC= 8.55D-09 BMatP= 1.48D-08
 IDIUse=1 WtCom= 1.00D+00 WtEn= 0.00D+00
 Coeff-Com: -0.634D-04 0.853D-04 0.565D-03 0.123D-03 0.298D-02 0.177D-01
 Coeff-Com: -0.499D-01-0.827D-01-0.928D-01 0.405D+00 0.800D+00
 Coeff:     -0.634D-04 0.853D-04 0.565D-03 0.123D-03 0.298D-02 0.177D-01
 Coeff:     -0.499D-01-0.827D-01-0.928D-01 0.405D+00 0.800D+00
 Gap=     0.057 Goal=   None    Shift=    0.000
 Gap=     0.029 Goal=   None    Shift=    0.000
 RMSDP=2.52D-05 MaxDP=2.68D-03 DE=-1.00D-07 OVMax= 1.17D-03

 Cycle  12  Pass 1  IDiag  1:
 E= -1136.08325309946     Delta-E=       -0.000000090916 Rises=F Damp=F
 DIIS: error= 7.64D-06 at cycle  12 NSaved=  12.
 NSaved=12 IEnMin=12 EnMin= -1136.08325309946     IErMin=12 ErrMin= 7.64D-06
 ErrMax= 7.64D-06  0.00D+00 EMaxC= 1.00D-01 BMatC= 5.79D-09 BMatP= 8.55D-09
 IDIUse=1 WtCom= 1.00D+00 WtEn= 0.00D+00
 Coeff-Com: -0.128D-04 0.129D-04-0.712D-03-0.103D-02 0.399D-03 0.119D-01
 Coeff-Com:  0.159D-01-0.375D-02-0.230D+00-0.213D+00 0.420D+00 0.100D+01
 Coeff:     -0.128D-04 0.129D-04-0.712D-03-0.103D-02 0.399D-03 0.119D-01
 Coeff:      0.159D-01-0.375D-02-0.230D+00-0.213D+00 0.420D+00 0.100D+01
 Gap=     0.057 Goal=   None    Shift=    0.000
 Gap=     0.029 Goal=   None    Shift=    0.000
 RMSDP=3.02D-05 MaxDP=3.07D-03 DE=-9.09D-08 OVMax= 1.54D-03

 Cycle  13  Pass 1  IDiag  1:
 E= -1136.08325320216     Delta-E=       -0.000000102707 Rises=F Damp=F
 DIIS: error= 6.84D-06 at cycle  13 NSaved=  13.
 NSaved=13 IEnMin=13 EnMin= -1136.08325320216     IErMin=13 ErrMin= 6.84D-06
 ErrMax= 6.84D-06  0.00D+00 EMaxC= 1.00D-01 BMatC= 3.99D-09 BMatP= 5.79D-09
 IDIUse=1 WtCom= 1.00D+00 WtEn= 0.00D+00
 Coeff-Com:  0.165D-03-0.211D-03-0.938D-04 0.600D-03-0.398D-02-0.343D-01
 Coeff-Com:  0.515D-01 0.118D+00 0.335D+00-0.329D+00-0.119D+01-0.103D+01
 Coeff-Com:  0.308D+01
 Coeff:      0.165D-03-0.211D-03-0.938D-04 0.600D-03-0.398D-02-0.343D-01
 Coeff:      0.515D-01 0.118D+00 0.335D+00-0.329D+00-0.119D+01-0.103D+01
 Coeff:      0.308D+01
 Gap=     0.057 Goal=   None    Shift=    0.000
 Gap=     0.029 Goal=   None    Shift=    0.000
 RMSDP=8.22D-05 MaxDP=9.32D-03 DE=-1.03D-07 OVMax= 4.27D-03

 Cycle  14  Pass 1  IDiag  1:
 E= -1136.08325342924     Delta-E=       -0.000000227083 Rises=F Damp=F
 DIIS: error= 4.84D-06 at cycle  14 NSaved=  14.
 NSaved=14 IEnMin=14 EnMin= -1136.08325342924     IErMin=14 ErrMin= 4.84D-06
 ErrMax= 4.84D-06  0.00D+00 EMaxC= 1.00D-01 BMatC= 2.27D-09 BMatP= 3.99D-09
 IDIUse=1 WtCom= 1.00D+00 WtEn= 0.00D+00
 Coeff-Com: -0.557D-04 0.809D-04 0.392D-03 0.149D-03 0.167D-02 0.637D-02
 Coeff-Com: -0.466D-01-0.545D-01 0.141D+00 0.412D+00 0.178D+00-0.795D+00
 Coeff-Com: -0.145D+01 0.260D+01
 Coeff:     -0.557D-04 0.809D-04 0.392D-03 0.149D-03 0.167D-02 0.637D-02
 Coeff:     -0.466D-01-0.545D-01 0.141D+00 0.412D+00 0.178D+00-0.795D+00
 Coeff:     -0.145D+01 0.260D+01
 Gap=     0.057 Goal=   None    Shift=    0.000
 Gap=     0.029 Goal=   None    Shift=    0.000
 RMSDP=1.19D-04 MaxDP=1.34D-02 DE=-2.27D-07 OVMax= 6.21D-03

 Cycle  15  Pass 1  IDiag  1:
 E= -1136.08325362680     Delta-E=       -0.000000197553 Rises=F Damp=F
 DIIS: error= 2.08D-06 at cycle  15 NSaved=  15.
 NSaved=15 IEnMin=15 EnMin= -1136.08325362680     IErMin=15 ErrMin= 2.08D-06
 ErrMax= 2.08D-06  0.00D+00 EMaxC= 1.00D-01 BMatC= 5.73D-10 BMatP= 2.27D-09
 IDIUse=1 WtCom= 1.00D+00 WtEn= 0.00D+00
 Coeff-Com: -0.399D-04 0.516D-04 0.143D-03-0.142D-03 0.138D-02 0.132D-01
 Coeff-Com: -0.230D-01-0.405D-01-0.653D-01 0.768D-01 0.313D+00 0.349D+00
 Coeff-Com: -0.812D+00-0.296D+00 0.148D+01
 Coeff:     -0.399D-04 0.516D-04 0.143D-03-0.142D-03 0.138D-02 0.132D-01
 Coeff:     -0.230D-01-0.405D-01-0.653D-01 0.768D-01 0.313D+00 0.349D+00
 Coeff:     -0.812D+00-0.296D+00 0.148D+01
 Gap=     0.057 Goal=   None    Shift=    0.000
 Gap=     0.029 Goal=   None    Shift=    0.000
 RMSDP=5.41D-05 MaxDP=6.03D-03 DE=-1.98D-07 OVMax= 2.86D-03

 Cycle  16  Pass 1  IDiag  1:
 E= -1136.08325366544     Delta-E=       -0.000000038640 Rises=F Damp=F
 DIIS: error= 7.84D-07 at cycle  16 NSaved=  16.
 NSaved=16 IEnMin=16 EnMin= -1136.08325366544     IErMin=16 ErrMin= 7.84D-07
 ErrMax= 7.84D-07  0.00D+00 EMaxC= 1.00D-01 BMatC= 1.85D-10 BMatP= 5.73D-10
 IDIUse=1 WtCom= 1.00D+00 WtEn= 0.00D+00
 Coeff-Com:  0.157D-04-0.235D-04-0.666D-04-0.407D-04-0.142D-03 0.381D-03
 Coeff-Com:  0.107D-01 0.125D-01-0.491D-01-0.148D+00-0.333D-01 0.382D+00
 Coeff-Com:  0.354D+00-0.106D+01 0.467D+00 0.106D+01
 Coeff:      0.157D-04-0.235D-04-0.666D-04-0.407D-04-0.142D-03 0.381D-03
 Coeff:      0.107D-01 0.125D-01-0.491D-01-0.148D+00-0.333D-01 0.382D+00
 Coeff:      0.354D+00-0.106D+01 0.467D+00 0.106D+01
 Gap=     0.057 Goal=   None    Shift=    0.000
 Gap=     0.029 Goal=   None    Shift=    0.000
 RMSDP=2.69D-05 MaxDP=3.08D-03 DE=-3.86D-08 OVMax= 1.38D-03

 Cycle  17  Pass 1  IDiag  1:
 E= -1136.08325367196     Delta-E=       -0.000000006520 Rises=F Damp=F
 DIIS: error= 2.48D-07 at cycle  17 NSaved=  17.
 NSaved=17 IEnMin=17 EnMin= -1136.08325367196     IErMin=17 ErrMin= 2.48D-07
 ErrMax= 2.48D-07  0.00D+00 EMaxC= 1.00D-01 BMatC= 2.18D-11 BMatP= 1.85D-10
 IDIUse=1 WtCom= 1.00D+00 WtEn= 0.00D+00
 Coeff-Com:  0.375D-05-0.513D-05-0.535D-04 0.129D-05-0.246D-03-0.151D-02
 Coeff-Com:  0.373D-02 0.546D-02 0.408D-02-0.143D-01-0.316D-01-0.364D-01
 Coeff-Com:  0.113D+00-0.230D-01-0.176D+00 0.668D-01 0.109D+01
 Coeff:      0.375D-05-0.513D-05-0.535D-04 0.129D-05-0.246D-03-0.151D-02
 Coeff:      0.373D-02 0.546D-02 0.408D-02-0.143D-01-0.316D-01-0.364D-01
 Coeff:      0.113D+00-0.230D-01-0.176D+00 0.668D-01 0.109D+01
 Gap=     0.057 Goal=   None    Shift=    0.000
 Gap=     0.029 Goal=   None    Shift=    0.000
 RMSDP=8.00D-06 MaxDP=1.01D-03 DE=-6.52D-09 OVMax= 3.97D-04

 Cycle  18  Pass 1  IDiag  1:
 E= -1136.08325367233     Delta-E=       -0.000000000373 Rises=F Damp=F
 DIIS: error= 8.48D-08 at cycle  18 NSaved=  18.
 NSaved=18 IEnMin=18 EnMin= -1136.08325367233     IErMin=18 ErrMin= 8.48D-08
 ErrMax= 8.48D-08  0.00D+00 EMaxC= 1.00D-01 BMatC= 3.57D-12 BMatP= 2.18D-11
 IDIUse=1 WtCom= 1.00D+00 WtEn= 0.00D+00
 Coeff-Com:  0.146D-06 0.370D-06-0.534D-06 0.456D-05-0.515D-04-0.616D-03
 Coeff-Com: -0.567D-03-0.378D-03 0.100D-01 0.214D-01-0.888D-02-0.811D-01
 Coeff-Com: -0.494D-02 0.166D+00-0.965D-01-0.179D+00 0.804D-01 0.109D+01
 Coeff:      0.146D-06 0.370D-06-0.534D-06 0.456D-05-0.515D-04-0.616D-03
 Coeff:     -0.567D-03-0.378D-03 0.100D-01 0.214D-01-0.888D-02-0.811D-01
 Coeff:     -0.494D-02 0.166D+00-0.965D-01-0.179D+00 0.804D-01 0.109D+01
 Gap=     0.057 Goal=   None    Shift=    0.000
 Gap=     0.029 Goal=   None    Shift=    0.000
 RMSDP=1.25D-06 MaxDP=1.14D-04 DE=-3.73D-10 OVMax= 5.52D-05

 Cycle  19  Pass 1  IDiag  1:
 E= -1136.08325367234     Delta-E=       -0.000000000008 Rises=F Damp=F
 DIIS: error= 4.02D-08 at cycle  19 NSaved=  19.
 NSaved=19 IEnMin=19 EnMin= -1136.08325367234     IErMin=19 ErrMin= 4.02D-08
 ErrMax= 4.02D-08  0.00D+00 EMaxC= 1.00D-01 BMatC= 7.66D-13 BMatP= 3.57D-12
 IDIUse=1 WtCom= 1.00D+00 WtEn= 0.00D+00
 Coeff-Com: -0.143D-05 0.168D-05 0.185D-04 0.359D-05 0.859D-04 0.590D-03
 Coeff-Com: -0.878D-03-0.132D-02-0.471D-02-0.380D-02 0.130D-01 0.414D-01
 Coeff-Com: -0.378D-01-0.486D-01 0.757D-01 0.414D-01-0.253D+00-0.376D+00
 Coeff-Com:  0.155D+01
 Coeff:     -0.143D-05 0.168D-05 0.185D-04 0.359D-05 0.859D-04 0.590D-03
 Coeff:     -0.878D-03-0.132D-02-0.471D-02-0.380D-02 0.130D-01 0.414D-01
 Coeff:     -0.378D-01-0.486D-01 0.757D-01 0.414D-01-0.253D+00-0.376D+00
 Coeff:      0.155D+01
 Gap=     0.057 Goal=   None    Shift=    0.000
 Gap=     0.029 Goal=   None    Shift=    0.000
 RMSDP=6.31D-07 MaxDP=4.74D-05 DE=-7.73D-12 OVMax= 2.19D-05

 Cycle  20  Pass 1  IDiag  1:
 E= -1136.08325367234     Delta-E=        0.000000000003 Rises=F Damp=F
 DIIS: error= 1.59D-08 at cycle  20 NSaved=  20.
 NSaved=20 IEnMin=19 EnMin= -1136.08325367234     IErMin=20 ErrMin= 1.59D-08
 ErrMax= 1.59D-08  0.00D+00 EMaxC= 1.00D-01 BMatC= 1.18D-13 BMatP= 7.66D-13
 IDIUse=1 WtCom= 1.00D+00 WtEn= 0.00D+00
 Coeff-Com:  0.399D-06-0.586D-06-0.335D-05-0.232D-05-0.813D-05 0.261D-04
 Coeff-Com:  0.279D-03 0.414D-03-0.682D-03-0.456D-02-0.219D-02 0.101D-01
 Coeff-Com:  0.103D-01-0.288D-01 0.786D-02 0.301D-01 0.151D-01-0.168D+00
 Coeff-Com: -0.978D-01 0.123D+01
 Coeff:      0.399D-06-0.586D-06-0.335D-05-0.232D-05-0.813D-05 0.261D-04
 Coeff:      0.279D-03 0.414D-03-0.682D-03-0.456D-02-0.219D-02 0.101D-01
 Coeff:      0.103D-01-0.288D-01 0.786D-02 0.301D-01 0.151D-01-0.168D+00
 Coeff:     -0.978D-01 0.123D+01
 Gap=     0.057 Goal=   None    Shift=    0.000
 Gap=     0.029 Goal=   None    Shift=    0.000
 RMSDP=3.18D-07 MaxDP=2.73D-05 DE= 3.18D-12 OVMax= 1.45D-05

 Cycle  21  Pass 1  IDiag  1:
 E= -1136.08325367235     Delta-E=       -0.000000000013 Rises=F Damp=F
 DIIS: error= 8.19D-09 at cycle  21 NSaved=  20.
 NSaved=20 IEnMin=20 EnMin= -1136.08325367235     IErMin=20 ErrMin= 8.19D-09
 ErrMax= 8.19D-09  0.00D+00 EMaxC= 1.00D-01 BMatC= 3.44D-14 BMatP= 1.18D-13
 IDIUse=1 WtCom= 1.00D+00 WtEn= 0.00D+00
 Coeff-Com:  0.782D-07-0.465D-05-0.313D-05-0.900D-05-0.374D-04 0.112D-03
 Coeff-Com:  0.140D-03 0.516D-03 0.369D-03-0.198D-02-0.507D-02 0.707D-02
 Coeff-Com:  0.348D-02-0.110D-01-0.917D-03 0.457D-01 0.281D-01-0.319D+00
 Coeff-Com:  0.385D+00 0.867D+00
 Coeff:      0.782D-07-0.465D-05-0.313D-05-0.900D-05-0.374D-04 0.112D-03
 Coeff:      0.140D-03 0.516D-03 0.369D-03-0.198D-02-0.507D-02 0.707D-02
 Coeff:      0.348D-02-0.110D-01-0.917D-03 0.457D-01 0.281D-01-0.319D+00
 Coeff:      0.385D+00 0.867D+00
 Gap=     0.057 Goal=   None    Shift=    0.000
 Gap=     0.029 Goal=   None    Shift=    0.000
 RMSDP=1.10D-07 MaxDP=1.06D-05 DE=-1.27D-11 OVMax= 5.18D-06

 Cycle  22  Pass 1  IDiag  1:
 E= -1136.08325367237     Delta-E=       -0.000000000017 Rises=F Damp=F
 DIIS: error= 4.06D-09 at cycle  22 NSaved=  20.
 NSaved=20 IEnMin=20 EnMin= -1136.08325367237     IErMin=20 ErrMin= 4.06D-09
 ErrMax= 4.06D-09  0.00D+00 EMaxC= 1.00D-01 BMatC= 4.79D-15 BMatP= 3.44D-14
 IDIUse=1 WtCom= 1.00D+00 WtEn= 0.00D+00
 Coeff-Com:  0.659D-06 0.144D-05-0.286D-05-0.406D-04 0.105D-04 0.321D-04
 Coeff-Com:  0.172D-03 0.676D-03-0.652D-04-0.228D-02-0.618D-03 0.542D-02
 Coeff-Com: -0.266D-02-0.554D-02 0.168D-02 0.367D-01-0.135D-01-0.223D+00
 Coeff-Com:  0.487D-01 0.115D+01
 Coeff:      0.659D-06 0.144D-05-0.286D-05-0.406D-04 0.105D-04 0.321D-04
 Coeff:      0.172D-03 0.676D-03-0.652D-04-0.228D-02-0.618D-03 0.542D-02
 Coeff:     -0.266D-02-0.554D-02 0.168D-02 0.367D-01-0.135D-01-0.223D+00
 Coeff:      0.487D-01 0.115D+01
 Gap=     0.057 Goal=   None    Shift=    0.000
 Gap=     0.029 Goal=   None    Shift=    0.000
 RMSDP=3.73D-08 MaxDP=3.46D-06 DE=-1.73D-11 OVMax= 1.51D-06

 Cycle  23  Pass 1  IDiag  1:
 E= -1136.08325367236     Delta-E=        0.000000000009 Rises=F Damp=F
 DIIS: error= 1.14D-09 at cycle  23 NSaved=  20.
 NSaved=20 IEnMin=19 EnMin= -1136.08325367237     IErMin=20 ErrMin= 1.14D-09
 ErrMax= 1.14D-09  0.00D+00 EMaxC= 1.00D-01 BMatC= 4.13D-16 BMatP= 4.79D-15
 IDIUse=1 WtCom= 1.00D+00 WtEn= 0.00D+00
 Large coefficients: NSaved= 20 BigCof=    0.00 CofMax=   10.00 Det=-1.12D-15
 Inversion failed.  Reducing to 19 matrices.
 Large coefficients: NSaved= 19 BigCof=    0.00 CofMax=   10.00 Det=-1.27D-15
 Inversion failed.  Reducing to 18 matrices.
 Large coefficients: NSaved= 18 BigCof=    0.00 CofMax=   10.00 Det=-1.34D-15
 Inversion failed.  Reducing to 17 matrices.
 Large coefficients: NSaved= 17 BigCof=    0.00 CofMax=   10.00 Det=-1.46D-15
 Inversion failed.  Reducing to 16 matrices.
 Large coefficients: NSaved= 16 BigCof=    0.00 CofMax=   10.00 Det=-1.46D-15
 Inversion failed.  Reducing to 15 matrices.
 Coeff-Com: -0.385D-04-0.270D-04 0.868D-04 0.170D-03-0.264D-03-0.179D-03
 Coeff-Com:  0.511D-03-0.208D-03-0.233D-02 0.201D-02 0.164D-01-0.408D-01
 Coeff-Com: -0.491D-01-0.511D-01 0.112D+01
 Coeff:     -0.385D-04-0.270D-04 0.868D-04 0.170D-03-0.264D-03-0.179D-03
 Coeff:      0.511D-03-0.208D-03-0.233D-02 0.201D-02 0.164D-01-0.408D-01
 Coeff:     -0.491D-01-0.511D-01 0.112D+01
 Gap=     0.057 Goal=   None    Shift=    0.000
 Gap=     0.029 Goal=   None    Shift=    0.000
 RMSDP=2.86D-08 MaxDP=3.31D-06 DE= 9.09D-12 OVMax= 1.19D-06

 Cycle  24  Pass 1  IDiag  1:
 E= -1136.08325367235     Delta-E=        0.000000000002 Rises=F Damp=F
 DIIS: error= 5.23D-10 at cycle  24 NSaved=  16.
 NSaved=16 IEnMin=14 EnMin= -1136.08325367237     IErMin=16 ErrMin= 5.23D-10
 ErrMax= 5.23D-10  0.00D+00 EMaxC= 1.00D-01 BMatC= 9.94D-17 BMatP= 4.13D-16
 IDIUse=1 WtCom= 1.00D+00 WtEn= 0.00D+00
 Large coefficients: NSaved= 16 BigCof=    0.00 CofMax=   10.00 Det=-2.11D-16
 Inversion failed.  Reducing to 15 matrices.
 Coeff-Com: -0.299D-04 0.905D-05 0.911D-04-0.117D-04-0.214D-03 0.191D-03
 Coeff-Com:  0.533D-04-0.474D-03-0.987D-03 0.585D-02-0.695D-03-0.291D-01
 Coeff-Com: -0.701D-01 0.324D+00 0.772D+00
 Coeff:     -0.299D-04 0.905D-05 0.911D-04-0.117D-04-0.214D-03 0.191D-03
 Coeff:      0.533D-04-0.474D-03-0.987D-03 0.585D-02-0.695D-03-0.291D-01
 Coeff:     -0.701D-01 0.324D+00 0.772D+00
 Gap=     0.057 Goal=   None    Shift=    0.000
 Gap=     0.029 Goal=   None    Shift=    0.000
 RMSDP=8.74D-09 MaxDP=1.08D-06 DE= 2.27D-12 OVMax= 1.72D-07

 Cycle  25  Pass 1  IDiag  1:
 E= -1136.08325367237     Delta-E=       -0.000000000013 Rises=F Damp=F
 DIIS: error= 4.44D-10 at cycle  25 NSaved=  16.
 NSaved=16 IEnMin=16 EnMin= -1136.08325367237     IErMin=16 ErrMin= 4.44D-10
 ErrMax= 4.44D-10  0.00D+00 EMaxC= 1.00D-01 BMatC= 5.84D-17 BMatP= 9.94D-17
 IDIUse=1 WtCom= 1.00D+00 WtEn= 0.00D+00
 Large coefficients: NSaved= 16 BigCof=    0.00 CofMax=   10.00 Det=-1.25D-16
 Inversion failed.  Reducing to 15 matrices.
 Coeff-Com:  0.130D-06 0.138D-04 0.554D-06-0.113D-04-0.118D-04 0.504D-04
 Coeff-Com:  0.515D-04-0.110D-02 0.134D-02 0.539D-02-0.773D-02-0.147D-01
 Coeff-Com: -0.871D-01 0.470D+00 0.634D+00
 Coeff:      0.130D-06 0.138D-04 0.554D-06-0.113D-04-0.118D-04 0.504D-04
 Coeff:      0.515D-04-0.110D-02 0.134D-02 0.539D-02-0.773D-02-0.147D-01
 Coeff:     -0.871D-01 0.470D+00 0.634D+00
 Gap=     0.057 Goal=   None    Shift=    0.000
 Gap=     0.029 Goal=   None    Shift=    0.000
 RMSDP=9.89D-09 MaxDP=1.26D-06 DE=-1.32D-11 OVMax= 1.65D-07

 Cycle  26  Pass 1  IDiag  1:
 E= -1136.08325367235     Delta-E=        0.000000000015 Rises=F Damp=F
 DIIS: error= 2.20D-10 at cycle  26 NSaved=  16.
 NSaved=16 IEnMin=15 EnMin= -1136.08325367237     IErMin=16 ErrMin= 2.20D-10
 ErrMax= 2.20D-10  0.00D+00 EMaxC= 1.00D-01 BMatC= 1.00D-17 BMatP= 5.84D-17
 IDIUse=1 WtCom= 1.00D+00 WtEn= 0.00D+00
 Large coefficients: NSaved= 16 BigCof=    0.00 CofMax=   10.00 Det=-5.33D-17
 Inversion failed.  Reducing to 15 matrices.
 Coeff-Com:  0.977D-05-0.473D-05-0.877D-05-0.164D-04 0.761D-04 0.152D-03
 Coeff-Com: -0.880D-03-0.318D-03 0.621D-02 0.103D-03-0.130D-01-0.897D-01
 Coeff-Com:  0.169D+00 0.317D+00 0.612D+00
 Coeff:      0.977D-05-0.473D-05-0.877D-05-0.164D-04 0.761D-04 0.152D-03
 Coeff:     -0.880D-03-0.318D-03 0.621D-02 0.103D-03-0.130D-01-0.897D-01
 Coeff:      0.169D+00 0.317D+00 0.612D+00
 Gap=     0.057 Goal=   None    Shift=    0.000
 Gap=     0.029 Goal=   None    Shift=    0.000
 RMSDP=4.25D-09 MaxDP=4.88D-07 DE= 1.50D-11 OVMax= 5.72D-09

 SCF Done:  E(UB3LYP) =  -1136.08325367     A.U. after   26 cycles
            NFock= 26  Conv=0.43D-08     -V/T= 2.0023
 <Sx>= 0.0000 <Sy>= 0.0000 <Sz>= 0.5000 <S**2>= 0.7623 S= 0.5061
 <L.S>= 0.000000000000E+00
 KE= 1.133441568056D+03 PE=-3.535849449946D+03 EE= 8.631565170053D+02
 Annihilation of the first spin contaminant:
 S**2 before annihilation     0.7623,   after     0.7501
 Leave Link  502 at Mon Nov 13 19:32:42 2023, MaxMem=  1879048192 cpu:             249.6 elap:              21.3
 (Enter /home/sekinelabo/g16/l601.exe)
 Copying SCF densities to generalized density rwf, IOpCl= 1 IROHF=0.

 **********************************************************************

            Population analysis using the SCF Density.

 **********************************************************************

 Orbital symmetries:
 Alpha Orbitals:
       Occupied  (A) (A) (A) (A) (A) (A) (A) (A) (A) (A) (A) (A)
                 (A) (A) (A) (A) (A) (A) (A) (A) (A) (A) (A) (A)
                 (A) (A) (A) (A) (A) (A) (A) (A) (A) (A) (A) (A)
                 (A) (A) (A)
       Virtual   (A) (A) (A) (A) (A) (A) (A) (A) (A) (A) (A) (A)
                 (A) (A) (A) (A) (A) (A) (A) (A) (A) (A) (A) (A)
                 (A) (A) (A) (A) (A) (A) (A) (A) (A) (A) (A) (A)
                 (A) (A) (A) (A) (A) (A) (A) (A) (A) (A) (A) (A)
                 (A) (A) (A) (A) (A) (A) (A) (A) (A) (A) (A) (A)
                 (A) (A) (A) (A) (A) (A) (A) (A) (A) (A) (A) (A)
                 (A) (A) (A) (A) (A) (A) (A) (A) (A) (A) (A) (A)
                 (A) (A) (A) (A) (A) (A) (A) (A) (A) (A) (A) (A)
                 (A) (A) (A) (A) (A) (A) (A) (A) (A) (A) (A) (A)
                 (A) (A) (A) (A) (A) (A) (A) (A) (A) (A) (A) (A)
                 (A) (A) (A) (A) (A) (A) (A) (A) (A) (A) (A) (A)
                 (A) (A) (A) (A) (A) (A) (A) (A) (A) (A) (A) (A)
                 (A) (A) (A) (A) (A) (A) (A) (A) (A) (A) (A) (A)
                 (A) (A) (A) (A) (A) (A) (A) (A) (A) (A) (A) (A)
                 (A) (A)
 Beta  Orbitals:
       Occupied  (A) (A) (A) (A) (A) (A) (A) (A) (A) (A) (A) (A)
                 (A) (A) (A) (A) (A) (A) (A) (A) (A) (A) (A) (A)
                 (A) (A) (A) (A) (A) (A) (A) (A) (A) (A) (A) (A)
                 (A) (A)
       Virtual   (A) (A) (A) (A) (A) (A) (A) (A) (A) (A) (A) (A)
                 (A) (A) (A) (A) (A) (A) (A) (A) (A) (A) (A) (A)
                 (A) (A) (A) (A) (A) (A) (A) (A) (A) (A) (A) (A)
                 (A) (A) (A) (A) (A) (A) (A) (A) (A) (A) (A) (A)
                 (A) (A) (A) (A) (A) (A) (A) (A) (A) (A) (A) (A)
                 (A) (A) (A) (A) (A) (A) (A) (A) (A) (A) (A) (A)
                 (A) (A) (A) (A) (A) (A) (A) (A) (A) (A) (A) (A)
                 (A) (A) (A) (A) (A) (A) (A) (A) (A) (A) (A) (A)
                 (A) (A) (A) (A) (A) (A) (A) (A) (A) (A) (A) (A)
                 (A) (A) (A) (A) (A) (A) (A) (A) (A) (A) (A) (A)
                 (A) (A) (A) (A) (A) (A) (A) (A) (A) (A) (A) (A)
                 (A) (A) (A) (A) (A) (A) (A) (A) (A) (A) (A) (A)
                 (A) (A) (A) (A) (A) (A) (A) (A) (A) (A) (A) (A)
                 (A) (A) (A) (A) (A) (A) (A) (A) (A) (A) (A) (A)
                 (A) (A) (A)
 The electronic state is 2-A.
 Alpha  occ. eigenvalues --  -38.44626 -38.43951 -38.43834 -38.43829 -38.43653
 Alpha  occ. eigenvalues --  -38.43511 -38.43306  -2.20535  -2.20156  -2.19978
 Alpha  occ. eigenvalues --   -2.19931  -2.19891  -2.19623  -2.19475  -1.14296
 Alpha  occ. eigenvalues --   -1.14235  -1.14127  -1.14101  -1.13958  -1.13902
 Alpha  occ. eigenvalues --   -1.13844  -1.13826  -1.13701  -1.13566  -1.13509
 Alpha  occ. eigenvalues --   -1.13485  -1.13444  -1.13427  -1.13371  -1.13232
 Alpha  occ. eigenvalues --   -1.13201  -1.13188  -1.13153  -1.13088  -1.13013
 Alpha  occ. eigenvalues --   -0.21297  -0.13973  -0.13113  -0.11591
 Alpha virt. eigenvalues --   -0.05905  -0.04222  -0.03852  -0.03471  -0.03004
 Alpha virt. eigenvalues --   -0.02759  -0.01560  -0.00547  -0.00242   0.00277
 Alpha virt. eigenvalues --    0.00623   0.00703   0.00929   0.01016   0.01074
 Alpha virt. eigenvalues --    0.01267   0.01332   0.01382   0.01467   0.01516
 Alpha virt. eigenvalues --    0.01642   0.01722   0.01762   0.01864   0.02077
 Alpha virt. eigenvalues --    0.02478   0.02614   0.02831   0.02880   0.02968
 Alpha virt. eigenvalues --    0.03014   0.03033   0.03106   0.03279   0.03343
 Alpha virt. eigenvalues --    0.03580   0.03770   0.03900   0.04025   0.04113
 Alpha virt. eigenvalues --    0.04483   0.04848   0.05158   0.05288   0.05370
 Alpha virt. eigenvalues --    0.05629   0.05874   0.06009   0.06126   0.06266
 Alpha virt. eigenvalues --    0.06680   0.06907   0.07199   0.07262   0.07601
 Alpha virt. eigenvalues --    0.08709   0.08754   0.09478   0.09846   0.09901
 Alpha virt. eigenvalues --    0.10089   0.10523   0.11503   0.12683   0.13354
 Alpha virt. eigenvalues --    0.13800   0.13924   0.14265   0.14322   0.14461
 Alpha virt. eigenvalues --    0.14859   0.15140   0.15358   0.15949   0.16375
 Alpha virt. eigenvalues --    0.16645   0.17990   0.18632   0.19778   0.22217
 Alpha virt. eigenvalues --    0.24292   0.24584   0.27955   0.28511   0.30934
 Alpha virt. eigenvalues --    0.32346   0.32853   0.33243   0.34943   0.35854
 Alpha virt. eigenvalues --    0.36345   0.36910   0.37956   0.38766   0.39383
 Alpha virt. eigenvalues --    0.40645   0.41438   0.41651   0.43449   0.44856
 Alpha virt. eigenvalues --    0.45126   0.45337   0.46301   0.46433   0.47474
 Alpha virt. eigenvalues --    0.47665   0.48118   0.48761   0.48947   0.49374
 Alpha virt. eigenvalues --    0.50232   0.50427   0.51076   0.52873   0.53080
 Alpha virt. eigenvalues --    0.53444   0.54433   0.54937   0.56764   0.57350
 Alpha virt. eigenvalues --    0.58377   0.60539   0.64842   0.65076   0.65668
 Alpha virt. eigenvalues --    0.68250   0.71375   0.74177   0.76379   0.76892
 Alpha virt. eigenvalues --    0.80131   0.80516   0.81466   0.84807   0.86261
 Alpha virt. eigenvalues --    2.13021   2.20052   2.27339   2.27711   2.29780
 Alpha virt. eigenvalues --    2.33695   2.39140   4.40865   4.41303   4.41933
 Alpha virt. eigenvalues --    4.42150   4.43218   4.44189   4.45485   4.47169
 Alpha virt. eigenvalues --    4.49261   4.53027   4.53264   4.59911   4.63641
 Alpha virt. eigenvalues --    4.69217   4.70426   4.73001   4.77061   4.78260
 Alpha virt. eigenvalues --    4.79763   4.84174   4.87391  96.34835  96.44090
 Alpha virt. eigenvalues --   96.55306  96.55378  96.59164  96.63464  96.71287
  Beta  occ. eigenvalues --  -38.44624 -38.43900 -38.43801 -38.43772 -38.43603
  Beta  occ. eigenvalues --  -38.43463 -38.43270  -2.20532  -2.20070  -2.19894
  Beta  occ. eigenvalues --   -2.19841  -2.19822  -2.19538  -2.19415  -1.14287
  Beta  occ. eigenvalues --   -1.14227  -1.14122  -1.14035  -1.13868  -1.13849
  Beta  occ. eigenvalues --   -1.13769  -1.13748  -1.13647  -1.13490  -1.13466
  Beta  occ. eigenvalues --   -1.13407  -1.13368  -1.13362  -1.13316  -1.13183
  Beta  occ. eigenvalues --   -1.13142  -1.13113  -1.13088  -1.13024  -1.12963
  Beta  occ. eigenvalues --   -0.20385  -0.13741  -0.11457
  Beta virt. eigenvalues --   -0.08507  -0.05790  -0.03794  -0.03303  -0.03141
  Beta virt. eigenvalues --   -0.02381  -0.01902  -0.01485  -0.00317  -0.00157
  Beta virt. eigenvalues --    0.00316   0.00673   0.00790   0.01022   0.01043
  Beta virt. eigenvalues --    0.01093   0.01327   0.01393   0.01463   0.01590
  Beta virt. eigenvalues --    0.01617   0.01723   0.01754   0.01832   0.01979
  Beta virt. eigenvalues --    0.02141   0.02506   0.02648   0.02905   0.02913
  Beta virt. eigenvalues --    0.02974   0.03019   0.03067   0.03146   0.03315
  Beta virt. eigenvalues --    0.03411   0.03734   0.03934   0.04037   0.04177
  Beta virt. eigenvalues --    0.04226   0.04570   0.04953   0.05195   0.05406
  Beta virt. eigenvalues --    0.05619   0.05771   0.05970   0.06114   0.06250
  Beta virt. eigenvalues --    0.06407   0.06758   0.06935   0.07274   0.07355
  Beta virt. eigenvalues --    0.07675   0.08793   0.08875   0.09706   0.09942
  Beta virt. eigenvalues --    0.10367   0.10427   0.10635   0.11739   0.12785
  Beta virt. eigenvalues --    0.13526   0.13944   0.14231   0.14394   0.14478
  Beta virt. eigenvalues --    0.14688   0.15180   0.15396   0.15622   0.16131
  Beta virt. eigenvalues --    0.16564   0.16762   0.18182   0.18890   0.20190
  Beta virt. eigenvalues --    0.22801   0.24385   0.25267   0.28419   0.28702
  Beta virt. eigenvalues --    0.31244   0.32780   0.33139   0.33589   0.35097
  Beta virt. eigenvalues --    0.36190   0.36821   0.37277   0.38298   0.38976
  Beta virt. eigenvalues --    0.39677   0.40909   0.41652   0.41973   0.43541
  Beta virt. eigenvalues --    0.44987   0.45209   0.45535   0.46413   0.46641
  Beta virt. eigenvalues --    0.47643   0.47949   0.48299   0.48906   0.49150
  Beta virt. eigenvalues --    0.49578   0.50403   0.50569   0.51176   0.53132
  Beta virt. eigenvalues --    0.53309   0.53688   0.54656   0.55217   0.56955
  Beta virt. eigenvalues --    0.57737   0.58550   0.60840   0.65098   0.65285
  Beta virt. eigenvalues --    0.65808   0.68419   0.71525   0.74423   0.76580
  Beta virt. eigenvalues --    0.76981   0.80251   0.80746   0.81632   0.85073
  Beta virt. eigenvalues --    0.86433   2.13072   2.20160   2.27457   2.27908
  Beta virt. eigenvalues --    2.29922   2.33850   2.39300   4.40931   4.41422
  Beta virt. eigenvalues --    4.42036   4.42205   4.43319   4.44232   4.45495
  Beta virt. eigenvalues --    4.47218   4.49344   4.53132   4.53337   4.59976
  Beta virt. eigenvalues --    4.63739   4.69251   4.70471   4.73061   4.77128
  Beta virt. eigenvalues --    4.78381   4.79847   4.84245   4.87440  96.34860
  Beta virt. eigenvalues --   96.44125  96.55351  96.55453  96.59222  96.63521
  Beta virt. eigenvalues --   96.71348
          Condensed to atoms (all electrons):
               1          2          3          4          5          6
     1  Na  14.358126  -0.165053  -3.828817   0.122370  -1.271748   1.457991
     2  Na  -0.165053  11.519712   0.533772  -0.521078   0.282598  -0.413717
     3  Na  -3.828817   0.533772  17.578774   0.089996   0.931046  -2.368936
     4  Na   0.122370  -0.521078   0.089996  11.790065   0.193162  -0.418416
     5  Na  -1.271748   0.282598   0.931046   0.193162  13.065000  -2.075679
     6  Na   1.457991  -0.413717  -2.368936  -0.418416  -2.075679  14.378909
     7  Na   0.995408  -0.442214  -2.237101  -0.438527  -0.373399   0.904024
               7
     1  Na   0.995408
     2  Na  -0.442214
     3  Na  -2.237101
     4  Na  -0.438527
     5  Na  -0.373399
     6  Na   0.904024
     7  Na  12.398051
          Atomic-Atomic Spin Densities.
               1          2          3          4          5          6
     1  Na   0.320054   0.082054  -0.149053   0.143266   0.297858  -0.444664
     2  Na   0.082054   0.119388   0.251825  -0.100079  -0.248869   0.237839
     3  Na  -0.149053   0.251825   0.528472  -0.195502  -0.539900   0.428858
     4  Na   0.143266  -0.100079  -0.195502   0.180224   0.061835   0.067312
     5  Na   0.297858  -0.248869  -0.539900   0.061835  -0.258928   0.561810
     6  Na  -0.444664   0.237839   0.428858   0.067312   0.561810  -0.531157
     7  Na   0.076413  -0.001232  -0.457863   0.156616   0.294484  -0.314136
               7
     1  Na   0.076413
     2  Na  -0.001232
     3  Na  -0.457863
     4  Na   0.156616
     5  Na   0.294484
     6  Na  -0.314136
     7  Na   0.224202
 Mulliken charges and spin densities:
               1          2
     1  Na  -0.668278   0.325928
     2  Na   0.205981   0.340927
     3  Na   0.301266  -0.133163
     4  Na   0.182429   0.313672
     5  Na   0.249020   0.168290
     6  Na  -0.464175   0.005863
     7  Na   0.193758  -0.021517
 Sum of Mulliken charges =  -0.00000   1.00000
 Mulliken charges and spin densities with hydrogens summed into heavy atoms:
               1          2
     1  Na  -0.668278   0.325928
     2  Na   0.205981   0.340927
     3  Na   0.301266  -0.133163
     4  Na   0.182429   0.313672
     5  Na   0.249020   0.168290
     6  Na  -0.464175   0.005863
     7  Na   0.193758  -0.021517
 Electronic spatial extent (au):  <R**2>=           1683.7388
 Charge=              0.0000 electrons
 Dipole moment (field-independent basis, Debye):
    X=              0.3767    Y=             -0.0650    Z=             -0.1083  Tot=              0.3973
 Quadrupole moment (field-independent basis, Debye-Ang):
   XX=            -54.6932   YY=            -76.8599   ZZ=            -63.8280
   XY=             -0.0090   XZ=              0.1913   YZ=              2.6152
 Traceless Quadrupole moment (field-independent basis, Debye-Ang):
   XX=             10.4338   YY=            -11.7328   ZZ=              1.2991
   XY=             -0.0090   XZ=              0.1913   YZ=              2.6152
 Octapole moment (field-independent basis, Debye-Ang**2):
  XXX=             28.1612  YYY=              1.1742  ZZZ=              1.2111  XYY=             -0.7522
  XXY=             -7.3710  XXZ=             -7.8463  XZZ=             -5.0437  YZZ=              1.1536
  YYZ=              0.8370  XYZ=             -1.7405
 Hexadecapole moment (field-independent basis, Debye-Ang**3):
 XXXX=          -1140.9472 YYYY=           -966.8959 ZZZZ=           -736.7477 XXXY=             -5.0387
 XXXZ=            -11.0804 YYYX=              7.1448 YYYZ=             21.0645 ZZZX=              3.5298
 ZZZY=            -17.1245 XXYY=           -374.8065 XXZZ=           -362.4878 YYZZ=           -255.7571
 XXYZ=             40.5062 YYXZ=              6.7649 ZZXY=             -5.2442
 N-N= 4.031681112124D+02 E-N=-3.535849449950D+03  KE= 1.133441568056D+03
                          Isotropic Fermi Contact Couplings
        Atom                 a.u.       MegaHertz       Gauss      10(-4) cm-1
     1  Na(23)             0.14382     170.14578      60.71224      56.75452
     2  Na(23)             0.16144     190.99395      68.15139      63.70872
     3  Na(23)             0.06824      80.73031      28.80658      26.92873
     4  Na(23)             0.21377     252.90009      90.24104      84.35839
     5  Na(23)             0.14234     168.39579      60.08780      56.17079
     6  Na(23)             0.08462     100.10378      35.71952      33.39103
     7  Na(23)            -0.00376      -4.44727      -1.58690      -1.48345
 --------------------------------------------------------
       Center         ----  Spin Dipole Couplings  ----
                      3XX-RR        3YY-RR        3ZZ-RR
 --------------------------------------------------------
     1   Atom       -0.012036     -0.024070      0.036106
     2   Atom       -0.013407      0.033194     -0.019787
     3   Atom       -0.007285     -0.021344      0.028629
     4   Atom       -0.020314      0.043874     -0.023560
     5   Atom        0.001314     -0.024410      0.023096
     6   Atom       -0.005658     -0.024667      0.030326
     7   Atom       -0.000915     -0.007226      0.008141
 --------------------------------------------------------
                        XY            XZ            YZ
 --------------------------------------------------------
     1   Atom       -0.002861      0.026637     -0.017563
     2   Atom        0.001262      0.001258      0.022680
     3   Atom        0.004622     -0.030869     -0.013290
     4   Atom       -0.001383     -0.004667      0.022100
     5   Atom       -0.010302      0.042827     -0.022341
     6   Atom        0.007774     -0.042433     -0.010813
     7   Atom        0.001665      0.007284      0.002316
 --------------------------------------------------------


 ---------------------------------------------------------------------------------
              Anisotropic Spin Dipole Couplings in Principal Axis System
 ---------------------------------------------------------------------------------

       Atom             a.u.   MegaHertz   Gauss  10(-4) cm-1        Axes

              Baa    -0.0308    -4.347    -1.551    -1.450 -0.4184  0.8236  0.3829
     1 Na(23) Bbb    -0.0211    -2.976    -1.062    -0.993  0.8233  0.5219 -0.2232
              Bcc     0.0519     7.322     2.613     2.442  0.3837 -0.2218  0.8964
 
              Baa    -0.0282    -3.983    -1.421    -1.329 -0.0502 -0.3451  0.9372
     2 Na(23) Bbb    -0.0134    -1.895    -0.676    -0.632  0.9983 -0.0450  0.0369
              Bcc     0.0416     5.878     2.097     1.961  0.0294  0.9375  0.3468
 
              Baa    -0.0272    -3.836    -1.369    -1.280  0.6095  0.6260  0.4863
     3 Na(23) Bbb    -0.0219    -3.097    -1.105    -1.033 -0.6284  0.7556 -0.1850
              Bcc     0.0491     6.934     2.474     2.313 -0.4833 -0.1928  0.8540
 
              Baa    -0.0316    -4.468    -1.594    -1.490  0.3410 -0.2583  0.9039
     4 Na(23) Bbb    -0.0189    -2.674    -0.954    -0.892  0.9393  0.1321 -0.3166
              Bcc     0.0506     7.141     2.548     2.382 -0.0376  0.9570  0.2877
 
              Baa    -0.0369    -5.211    -1.859    -1.738 -0.4813  0.6516  0.5863
     5 Na(23) Bbb    -0.0261    -3.684    -1.315    -1.229  0.6577  0.7106 -0.2499
              Bcc     0.0630     8.895     3.174     2.967  0.5794 -0.2653  0.7706
 
              Baa    -0.0338    -4.772    -1.703    -1.592  0.8373 -0.0709  0.5422
     6 Na(23) Bbb    -0.0267    -3.772    -1.346    -1.258 -0.0253  0.9855  0.1680
              Bcc     0.0605     8.544     3.049     2.850 -0.5462 -0.1544  0.8233
 
              Baa    -0.0077    -1.083    -0.387    -0.361 -0.1728  0.9828 -0.0643
     7 Na(23) Bbb    -0.0049    -0.695    -0.248    -0.232  0.8582  0.1182 -0.4994
              Bcc     0.0126     1.779     0.635     0.593  0.4833  0.1415  0.8640
 

 ---------------------------------------------------------------------------------

 No NMR shielding tensors so no spin-rotation constants.
 Leave Link  601 at Mon Nov 13 19:32:42 2023, MaxMem=  1879048192 cpu:               2.7 elap:               0.2
 (Enter /home/sekinelabo/g16/l701.exe)
 ... and contract with generalized density number  0.
 Compute integral first derivatives.
 Leave Link  701 at Mon Nov 13 19:32:42 2023, MaxMem=  1879048192 cpu:               1.7 elap:               0.1
 (Enter /home/sekinelabo/g16/l702.exe)
 L702 exits ... SP integral derivatives will be done elsewhere.
 Leave Link  702 at Mon Nov 13 19:32:43 2023, MaxMem=  1879048192 cpu:               0.5 elap:               0.0
 (Enter /home/sekinelabo/g16/l703.exe)
 Integral derivatives from FoFJK, PRISM(SPDF).
 Compute integral first derivatives, UseDBF=F ICtDFT=           0.
 Calling FoFJK, ICntrl=      2127 FMM=F ISym2X=0 I1Cent= 0 IOpClX= 1 NMat=1 NMatS=1 NMatT=0.
 FoFJK:  IHMeth= 1 ICntrl=    2127 DoSepK=F KAlg= 0 I1Cent=           0 FoldK=F
 IRaf=         0 NMat=       1 IRICut=       1 DoRegI=T DoRafI=F ISym2E= 0 IDoP0=0 IntGTp=1.
 FoFCou: FMM=F IPFlag=           0 FMFlag=      100000 FMFlg1=         800
         NFxFlg=           0 DoJE=F BraDBF=F KetDBF=F FulRan=T
         wScrn=  0.000000 ICntrl=      2127 IOpCl=  1 I1Cent=           0 NGrid=           0
         NMat0=    1 NMatS0=      1 NMatT0=    0 NMatD0=    1 NMtDS0=    0 NMtDT0=    0
 Symmetry not used in FoFCou.
 Leave Link  703 at Mon Nov 13 19:32:45 2023, MaxMem=  1879048192 cpu:              37.6 elap:               2.4
 (Enter /home/sekinelabo/g16/l716.exe)
 Dipole        = 1.48215410D-01-2.55596766D-02-4.26001980D-02
 ***** Axes restored to original set *****
 -------------------------------------------------------------------
 Center     Atomic                   Forces (Hartrees/Bohr)
 Number     Number              X              Y              Z
 -------------------------------------------------------------------
      1       11           0.009959278   -0.016590698   -0.009902651
      2       11          -0.000358344    0.016332594   -0.017220017
      3       11          -0.016484736   -0.010508143   -0.002449426
      4       11           0.002900673   -0.016498602    0.016307116
      5       11          -0.017547602    0.015592503    0.008971998
      6       11           0.011266151    0.015107158    0.004903334
      7       11           0.010264581   -0.003434812   -0.000610354
 -------------------------------------------------------------------
 Cartesian Forces:  Max     0.017547602 RMS     0.012147678
 Z-matrix is all fixed cartesians, so copy forces.
 Force constants in Cartesian coordinates: 
                1             2             3             4             5 
      1  0.234477D+00
      2 -0.166749D-01  0.315439D+00
      3 -0.539193D-02 -0.447752D-02  0.283400D+00
      4 -0.404804D-01  0.132696D-01 -0.162276D-01  0.104437D+00
      5  0.609700D-02 -0.672714D-01  0.324243D-01 -0.235099D-03  0.135885D+00
      6  0.673481D-02 -0.219200D-01 -0.303089D-01  0.517574D-02 -0.321741D-01
      7 -0.712048D-01 -0.185105D-01 -0.142963D-01 -0.202387D-01 -0.244237D-02
      8  0.314713D-01 -0.773619D-01  0.153173D-01 -0.267531D-01 -0.303574D-01
      9  0.218569D-01  0.231866D-01 -0.691163D-01  0.158093D-01  0.252049D-01
     10 -0.367043D-01 -0.801398D-02  0.174788D-01  0.150200D-01  0.411632D-02
     11  0.442235D-02 -0.282810D-01 -0.314262D-01  0.403041D-02  0.587365D-02
     12 -0.151118D-02  0.202820D-01 -0.682900D-01 -0.132404D-03  0.156620D-01
     13 -0.146353D-01  0.714046D-02  0.514279D-02 -0.309319D-01  0.559370D-02
     14  0.132781D-01 -0.174584D-01 -0.127427D-01 -0.767074D-02 -0.292852D-01
     15  0.103448D-01 -0.138333D-01 -0.130563D-01  0.276811D-01 -0.236847D-01
     16 -0.291126D-01  0.931298D-02  0.720023D-02 -0.241968D-01 -0.151773D-01
     17 -0.179742D-01 -0.485030D-01 -0.123184D-01  0.102599D-01 -0.199297D-01
     18 -0.120754D-01 -0.187054D-01 -0.365044D-01 -0.241726D-01 -0.206734D-01
     19 -0.423396D-01  0.134763D-01  0.609394D-02 -0.360914D-02  0.204773D-02
     20 -0.206197D-01 -0.765632D-01  0.132231D-01  0.709899D-02  0.508458D-02
     21 -0.199580D-01  0.154676D-01 -0.661241D-01 -0.813357D-02  0.324091D-02
                6             7             8             9            10 
      6  0.160104D+00
      7 -0.131833D-01  0.141985D+00
      8 -0.292421D-02  0.309813D-01  0.137451D+00
      9 -0.231468D-01  0.197793D-01 -0.167551D-02  0.119473D+00
     10 -0.249387D-03 -0.233224D-01  0.739937D-02 -0.314386D-01  0.105576D+00
     11  0.156223D-01 -0.146858D-01 -0.185293D-01 -0.101015D-01 -0.287560D-02
     12 -0.657114D-02 -0.890522D-03  0.192785D-01 -0.329457D-01  0.811385D-02
     13  0.407880D-03 -0.231074D-01 -0.262226D-01 -0.180825D-01 -0.350447D-01
     14  0.201993D-01  0.193113D-01 -0.433508D-01 -0.164443D-01  0.240218D-01
     15 -0.648524D-01  0.134394D-01 -0.112834D-01 -0.314930D-01 -0.195735D-01
     16  0.348366D-04 -0.409917D-02 -0.130295D-01 -0.668614D-02 -0.214940D-01
     17  0.175060D-01 -0.129429D-01  0.697457D-02 -0.758639D-02 -0.191589D-01
     18 -0.382657D-01 -0.668948D-02 -0.736802D-02  0.159102D-01  0.155165D-01
     19  0.107942D-02 -0.130664D-04 -0.384682D-02 -0.123834D-02 -0.403065D-02
     20  0.369077D-02 -0.171104D-02  0.251741D-01 -0.125838D-01 -0.548897D-02
     21  0.304102D-02  0.184090D-02 -0.113447D-01  0.213184D-01  0.101523D-01
               11            12            13            14            15 
     11  0.135492D+00
     12 -0.326326D-01  0.158974D+00
     13  0.861652D-02  0.633731D-02  0.176710D+00
     14 -0.592580D-01 -0.140067D-01 -0.263839D-01  0.183395D+00
     15  0.301597D-01 -0.310525D-01 -0.197672D-01  0.228781D-01  0.171546D+00
     16 -0.146817D-02 -0.131424D-01 -0.710616D-01 -0.272304D-01 -0.147802D-01
     17 -0.382094D-01 -0.111344D-01  0.265003D-01 -0.446173D-01 -0.507241D-02
     18  0.265410D-01 -0.211881D-01  0.211896D-01  0.958706D-03 -0.431208D-01
     19  0.196028D-02  0.122540D-02 -0.192935D-02  0.467379D-02  0.265558D-02
     20  0.291172D-02  0.255131D-02  0.475560D-02  0.105745D-01  0.835910D-03
     21  0.183733D-02  0.107349D-02  0.477214D-02 -0.842388D-03  0.120284D-01
               16            17            18            19            20 
     16  0.181926D+00
     17  0.230828D-01  0.187983D+00
     18  0.132403D-01  0.282300D-01  0.157259D+00
     19 -0.319618D-01 -0.976694D-02 -0.700883D-02  0.838836D-01
     20  0.245095D-01 -0.436979D-01 -0.898286D-02 -0.854435D-02  0.765161D-01
     21  0.141334D-01 -0.962431D-02 -0.340900D-01 -0.280717D-02  0.126556D-02
               21 
     21  0.627527D-01
 Leave Link  716 at Mon Nov 13 19:32:45 2023, MaxMem=  1879048192 cpu:               0.4 elap:               0.0
 (Enter /home/sekinelabo/g16/l103.exe)

 GradGradGradGradGradGradGradGradGradGradGradGradGradGradGradGradGradGrad
 Berny optimization.
 Search for a local minimum.
 Step number   1 out of a maximum of    2
 All quantities printed in internal units (Hartrees-Bohrs-Radians)
 Second derivative matrix not updated -- first step.
 ITU=  0
     Eigenvalues ---    0.08239   0.09297   0.10417   0.16101   0.17511
     Eigenvalues ---    0.17871   0.20972   0.21142   0.22688   0.24978
     Eigenvalues ---    0.25752   0.29250   0.29874   0.34844   0.40188
 Quadratic step=3.717D-01 exceeds max=3.000D-01 adjusted using Lamda=-2.956D-02.
 Angle between NR and scaled steps=   4.25 degrees.
 Angle between quadratic step and forces=  17.57 degrees.
 Linear search not attempted -- first point.
 B after Tr=     0.000000   -0.000000    0.000000
         Rot=    1.000000    0.000000   -0.000000    0.000000 Ang=   0.00 deg.
 Variable       Old X    -DE/DX   Delta X   Delta X   Delta X     New X
                                 (Linear)    (Quad)   (Total)
    X1        5.28765   0.00996   0.00000   0.03248   0.03248   5.32013
    Y1        0.16400  -0.01659   0.00000  -0.05926  -0.05926   0.10474
    Z1        1.56215  -0.00990   0.00000  -0.03735  -0.03735   1.52480
    X2        3.00455  -0.00036   0.00000  -0.02218  -0.02218   2.98237
    Y2        4.69333   0.01633   0.00000   0.08479   0.08479   4.77813
    Z2        0.00000  -0.01722   0.00000  -0.08722  -0.08722  -0.08722
    X3        0.00000  -0.01648   0.00000  -0.10730  -0.10730  -0.10730
    Y3        0.00000  -0.01051   0.00000  -0.06531  -0.06531  -0.06531
    Z3        1.93705  -0.00245   0.00000  -0.01868  -0.01868   1.91836
    X4        3.61533   0.00290   0.00000  -0.00300  -0.00300   3.61233
    Y4        0.14462  -0.01650   0.00000  -0.07799  -0.07799   0.06664
    Z4        6.60361   0.01631   0.00000   0.08490   0.08490   6.68851
    X5        1.37716  -0.01755   0.00000  -0.08435  -0.08435   1.29280
    Y5        4.69453   0.01559   0.00000   0.06949   0.06949   4.76402
    Z5        5.05101   0.00897   0.00000   0.04004   0.04004   5.09105
    X6        6.66347   0.01127   0.00000   0.05894   0.05894   6.72241
    Y6        4.83165   0.01511   0.00000   0.07447   0.07447   4.90612
    Z6        4.65305   0.00490   0.00000   0.02476   0.02476   4.67781
    X7       10.55445   0.01026   0.00000   0.12541   0.12541  10.67986
    Y7        1.47726  -0.00343   0.00000  -0.02621  -0.02621   1.45106
    Z7        2.61628  -0.00061   0.00000  -0.00646  -0.00646   2.60982
         Item               Value     Threshold  Converged?
 Maximum Force            0.017548     0.000450     NO 
 RMS     Force            0.012148     0.000300     NO 
 Maximum Displacement     0.125407     0.001800     NO 
 RMS     Displacement     0.065579     0.001200     NO 
 Predicted change in Energy=-9.309267D-03
 GradGradGradGradGradGradGradGradGradGradGradGradGradGradGradGradGradGrad

 Leave Link  103 at Mon Nov 13 19:32:45 2023, MaxMem=  1879048192 cpu:               0.3 elap:               0.0
 (Enter /home/sekinelabo/g16/l9999.exe)
 1\1\GINC-SEKINELABO-XA7R-R37\Force\UB3LYP\6-311+G(d)\Na7(2)\SEKINELABO
 \13-Nov-2023\0\\#P B3LYP/6-311+g(d) force\\Gaussian input prepared by 
 ASE\\0,2\Na,2.7981029897,0.0867825045,0.8266517137\Na,1.5899418646,2.4
 83605173,0.\Na,0.,0.,1.0250402575\Na,1.9131499735,0.0765315558,3.49447
 99605\Na,0.7287603727,2.4842361603,2.6728775005\Na,3.5261539015,2.5567
 996852,2.4622893518\Na,5.5851739951,0.7817347816,1.3844744822\\Version
 =ES64L-G16RevB.01\State=2-A\HF=-1136.0832537\S2=0.762285\S2-1=0.\S2A=0
 .750073\RMSD=4.252e-09\RMSF=1.215e-02\Dipole=0.1482154,-0.0255597,-0.0
 426002\Quadrupole=7.7572563,-8.7230792,0.9658229,-0.0066651,0.1422588,
 1.944326\PG=C01 [X(Na7)]\\@


 ALL OUR THINKING ABOUT NATURE MUST NECESSARILY MOVE IN CIRCLES OR SPIRALS;
 FOR WE CAN ONLY UNDERSTAND NATURE IF WE THINK ABOUT HER, AND WE CAN ONLY
 THINK BECAUSE OUR BRAIN IS BUILT IN ACCORDANCE WITH NATURE'S LAWS.

                                             -- TIMOTHY FERRIS, "GALAXIES"
 Job cpu time:       0 days  0 hours  5 minutes  4.8 seconds.
 Elapsed time:       0 days  0 hours  0 minutes 24.8 seconds.
 File lengths (MBytes):  RWF=     32 Int=      0 D2E=      0 Chk=      6 Scr=      1
 Normal termination of Gaussian 16 at Mon Nov 13 19:32:45 2023.
