 Entering Gaussian System, Link 0=g16
 Initial command:
 /home/sekinelabo/g16/l1.exe "/home/sekinelabo/g16temp/Gau-4078828.inp" -scrdir="/home/sekinelabo/g16temp/"
 Entering Link 1 = /home/sekinelabo/g16/l1.exe PID=   4078830.
  
 Copyright (c) 1988-2017, Gaussian, Inc.  All Rights Reserved.
  
 This is part of the Gaussian(R) 16 program.  It is based on
 the Gaussian(R) 09 system (copyright 2009, Gaussian, Inc.),
 the Gaussian(R) 03 system (copyright 2003, Gaussian, Inc.),
 the Gaussian(R) 98 system (copyright 1998, Gaussian, Inc.),
 the Gaussian(R) 94 system (copyright 1995, Gaussian, Inc.),
 the Gaussian 92(TM) system (copyright 1992, Gaussian, Inc.),
 the Gaussian 90(TM) system (copyright 1990, Gaussian, Inc.),
 the Gaussian 88(TM) system (copyright 1988, Gaussian, Inc.),
 the Gaussian 86(TM) system (copyright 1986, Carnegie Mellon
 University), and the Gaussian 82(TM) system (copyright 1983,
 Carnegie Mellon University). Gaussian is a federally registered
 trademark of Gaussian, Inc.
  
 This software contains proprietary and confidential information,
 including trade secrets, belonging to Gaussian, Inc.
  
 This software is provided under written license and may be
 used, copied, transmitted, or stored only in accord with that
 written license.
  
 The following legend is applicable only to US Government
 contracts under FAR:
  
                    RESTRICTED RIGHTS LEGEND
  
 Use, reproduction and disclosure by the US Government is
 subject to restrictions as set forth in subparagraphs (a)
 and (c) of the Commercial Computer Software - Restricted
 Rights clause in FAR 52.227-19.
  
 Gaussian, Inc.
 340 Quinnipiac St., Bldg. 40, Wallingford CT 06492
  
  
 ---------------------------------------------------------------
 Warning -- This program may not be used in any manner that
 competes with the business of Gaussian, Inc. or will provide
 assistance to any competitor of Gaussian, Inc.  The licensee
 of this program is prohibited from giving any competitor of
 Gaussian, Inc. access to this program.  By using this program,
 the user acknowledges that Gaussian, Inc. is engaged in the
 business of creating and licensing software in the field of
 computational chemistry and represents and warrants to the
 licensee that it is not a competitor of Gaussian, Inc. and that
 it will not use this program in any manner prohibited above.
 ---------------------------------------------------------------
  

 Cite this work as:
 Gaussian 16, Revision B.01,
 M. J. Frisch, G. W. Trucks, H. B. Schlegel, G. E. Scuseria, 
 M. A. Robb, J. R. Cheeseman, G. Scalmani, V. Barone, 
 G. A. Petersson, H. Nakatsuji, X. Li, M. Caricato, A. V. Marenich, 
 J. Bloino, B. G. Janesko, R. Gomperts, B. Mennucci, H. P. Hratchian, 
 J. V. Ortiz, A. F. Izmaylov, J. L. Sonnenberg, D. Williams-Young, 
 F. Ding, F. Lipparini, F. Egidi, J. Goings, B. Peng, A. Petrone, 
 T. Henderson, D. Ranasinghe, V. G. Zakrzewski, J. Gao, N. Rega, 
 G. Zheng, W. Liang, M. Hada, M. Ehara, K. Toyota, R. Fukuda, 
 J. Hasegawa, M. Ishida, T. Nakajima, Y. Honda, O. Kitao, H. Nakai, 
 T. Vreven, K. Throssell, J. A. Montgomery, Jr., J. E. Peralta, 
 F. Ogliaro, M. J. Bearpark, J. J. Heyd, E. N. Brothers, K. N. Kudin, 
 V. N. Staroverov, T. A. Keith, R. Kobayashi, J. Normand, 
 K. Raghavachari, A. P. Rendell, J. C. Burant, S. S. Iyengar, 
 J. Tomasi, M. Cossi, J. M. Millam, M. Klene, C. Adamo, R. Cammi, 
 J. W. Ochterski, R. L. Martin, K. Morokuma, O. Farkas, 
 J. B. Foresman, and D. J. Fox, Gaussian, Inc., Wallingford CT, 2016.
 
 ******************************************
 Gaussian 16:  ES64L-G16RevB.01 20-Dec-2017
                13-Nov-2023 
 ******************************************
 %mem=14GB
 %chk=checkpoint.chk
 %nprocshared=16
 Will use up to   16 processors via shared memory.
 -------------------------
 #P B3LYP/6-311+g(d) force
 -------------------------
 1/10=7,30=1,38=1/1,3;
 2/12=2,17=6,18=5,40=1/2;
 3/5=4,6=6,7=11,11=2,25=1,30=1,71=1,74=-5/1,2,3;
 4//1;
 5/5=2,38=5/2;
 6/7=2,8=2,9=2,10=2,28=1/1;
 7/29=1/1,2,3,16;
 1/10=7,30=1/3;
 99//99;
 Leave Link    1 at Mon Nov 13 17:24:14 2023, MaxMem=  1879048192 cpu:               0.3 elap:               0.0
 (Enter /home/sekinelabo/g16/l101.exe)
 ------------------------------
 Gaussian input prepared by ASE
 ------------------------------
 Symbolic Z-matrix:
 Charge =  0 Multiplicity = 2
 Na                    2.68628   2.20373   2.72664 
 Na                    4.84568   4.26764   2.39601 
 Na                    4.70321   0.        2.38816 
 Na                    4.44732   2.15004   0.30877 
 Na                    1.48107   2.49738   0. 
 Na                    0.        3.50283   2.40442 
 Na                    0.2932    0.55798   1.95547 
 
 ITRead=  0  0  0  0  0  0  0
 MicOpt= -1 -1 -1 -1 -1 -1 -1
 NAtoms=      7 NQM=        7 NQMF=       0 NMMI=      0 NMMIF=      0
                NMic=       0 NMicF=      0.
                    Isotopes and Nuclear Properties:
 (Nuclear quadrupole moments (NQMom) in fm**2, nuclear magnetic moments (NMagM)
  in nuclear magnetons)

  Atom         1           2           3           4           5           6           7
 IAtWgt=          23          23          23          23          23          23          23
 AtmWgt=  22.9897697  22.9897697  22.9897697  22.9897697  22.9897697  22.9897697  22.9897697
 NucSpn=           3           3           3           3           3           3           3
 AtZEff=  -0.0000000  -0.0000000  -0.0000000  -0.0000000  -0.0000000  -0.0000000  -0.0000000
 NQMom=   10.4000000  10.4000000  10.4000000  10.4000000  10.4000000  10.4000000  10.4000000
 NMagM=    2.2175200   2.2175200   2.2175200   2.2175200   2.2175200   2.2175200   2.2175200
 AtZNuc=  11.0000000  11.0000000  11.0000000  11.0000000  11.0000000  11.0000000  11.0000000
 Leave Link  101 at Mon Nov 13 17:24:14 2023, MaxMem=  1879048192 cpu:               2.7 elap:               0.2
 (Enter /home/sekinelabo/g16/l103.exe)

 GradGradGradGradGradGradGradGradGradGradGradGradGradGradGradGradGradGrad
 Berny optimization.
 Initialization pass.
 Trust Radius=3.00D-01 FncErr=1.00D-07 GrdErr=1.00D-07 EigMax=2.50D+02 EigMin=1.00D-04
 Number of steps in this run=      2 maximum allowed number of steps=      2.
 GradGradGradGradGradGradGradGradGradGradGradGradGradGradGradGradGradGrad

 Leave Link  103 at Mon Nov 13 17:24:14 2023, MaxMem=  1879048192 cpu:               0.3 elap:               0.0
 (Enter /home/sekinelabo/g16/l202.exe)
                          Input orientation:                          
 ---------------------------------------------------------------------
 Center     Atomic      Atomic             Coordinates (Angstroms)
 Number     Number       Type             X           Y           Z
 ---------------------------------------------------------------------
      1         11           0        2.686280    2.203733    2.726645
      2         11           0        4.845682    4.267641    2.396008
      3         11           0        4.703210    0.000000    2.388158
      4         11           0        4.447318    2.150043    0.308769
      5         11           0        1.481069    2.497381    0.000000
      6         11           0        0.000000    3.502834    2.404425
      7         11           0        0.293203    0.557984    1.955467
 ---------------------------------------------------------------------
                    Distance matrix (angstroms):
                    1          2          3          4          5
     1  Na   0.000000
     2  Na   3.005338   0.000000
     3  Na   3.006496   4.270026   0.000000
     4  Na   2.991699   2.999914   3.002003   0.000000
     5  Na   2.995556   4.493917   4.724659   3.002435   0.000000
     6  Na   3.001265   4.905673   5.864324   5.099064   2.997626
     7  Na   3.005000   5.889032   4.466177   4.743727   2.999357
                    6          7
     6  Na   0.000000
     7  Na   2.993272   0.000000
 Stoichiometry    Na7(2)
 Framework group  C1[X(Na7)]
 Deg. of freedom    15
 Full point group                 C1      NOp   1
 Largest Abelian subgroup         C1      NOp   1
 Largest concise Abelian subgroup C1      NOp   1
                         Standard orientation:                         
 ---------------------------------------------------------------------
 Center     Atomic      Atomic             Coordinates (Angstroms)
 Number     Number       Type             X           Y           Z
 ---------------------------------------------------------------------
      1         11           0        0.049600   -0.035216   -0.986720
      2         11           0        2.209002   -2.099124   -0.656083
      3         11           0        2.066530    2.168516   -0.648233
      4         11           0        1.810638    0.018474    1.431156
      5         11           0       -1.155611   -0.328865    1.739924
      6         11           0       -2.636680   -1.334318   -0.664500
      7         11           0       -2.343478    1.610533   -0.215543
 ---------------------------------------------------------------------
 Rotational constants (GHZ):           1.0477683           0.6542816           0.5522860
 Leave Link  202 at Mon Nov 13 17:24:14 2023, MaxMem=  1879048192 cpu:               0.0 elap:               0.0
 (Enter /home/sekinelabo/g16/l301.exe)
 Standard basis: 6-311+G(d) (5D, 7F)
 Ernie: Thresh=  0.10000D-02 Tol=  0.10000D-05 Strict=F.
 There are   217 symmetry adapted cartesian basis functions of A   symmetry.
 There are   210 symmetry adapted basis functions of A   symmetry.
   210 basis functions,   350 primitive gaussians,   217 cartesian basis functions
    39 alpha electrons       38 beta electrons
       nuclear repulsion energy       374.1543735144 Hartrees.
 IExCor=  402 DFT=T Ex+Corr=B3LYP ExCW=0 ScaHFX=  0.200000
 ScaDFX=  0.800000  0.720000  1.000000  0.810000 ScalE2=  1.000000  1.000000
 IRadAn=      5 IRanWt=     -1 IRanGd=            0 ICorTp=0 IEmpDi=  4
 NAtoms=    7 NActive=    7 NUniq=    7 SFac= 1.00D+00 NAtFMM=   60 NAOKFM=F Big=F
 Integral buffers will be    131072 words long.
 Raffenetti 2 integral format.
 Two-electron integral symmetry is turned on.
 Leave Link  301 at Mon Nov 13 17:24:14 2023, MaxMem=  1879048192 cpu:               0.5 elap:               0.0
 (Enter /home/sekinelabo/g16/l302.exe)
 NPDir=0 NMtPBC=     1 NCelOv=     1 NCel=       1 NClECP=     1 NCelD=      1
         NCelK=      1 NCelE2=     1 NClLst=     1 CellRange=     0.0.
 One-electron integrals computed using PRISM.
 One-electron integral symmetry used in STVInt
 NBasis=   210 RedAO= T EigKep=  1.12D-06  NBF=   210
 NBsUse=   210 1.00D-06 EigRej= -1.00D+00 NBFU=   210
 Precomputing XC quadrature grid using
 IXCGrd= 4 IRadAn=           5 IRanWt=          -1 IRanGd=           0 AccXCQ= 0.00D+00.
 Generated NRdTot=       0 NPtTot=           0 NUsed=           0 NTot=          32
 NSgBfM=   212   212   212   212   212 MxSgAt=     7 MxSgA2=     7.
 Leave Link  302 at Mon Nov 13 17:24:14 2023, MaxMem=  1879048192 cpu:               2.2 elap:               0.1
 (Enter /home/sekinelabo/g16/l303.exe)
 DipDrv:  MaxL=1.
 Leave Link  303 at Mon Nov 13 17:24:14 2023, MaxMem=  1879048192 cpu:               0.7 elap:               0.1
 (Enter /home/sekinelabo/g16/l401.exe)
 ExpMin= 7.60D-03 ExpMax= 3.62D+04 ExpMxC= 1.21D+03 IAcc=3 IRadAn=         5 AccDes= 0.00D+00
 Harris functional with IExCor=  402 and IRadAn=       5 diagonalized for initial guess.
 HarFok:  IExCor=  402 AccDes= 0.00D+00 IRadAn=         5 IDoV= 1 UseB2=F ITyADJ=14
 ICtDFT=  3500011 ScaDFX=  1.000000  1.000000  1.000000  1.000000
 FoFCou: FMM=F IPFlag=           0 FMFlag=      100000 FMFlg1=           0
         NFxFlg=           0 DoJE=T BraDBF=F KetDBF=T FulRan=T
         wScrn=  0.000000 ICntrl=       500 IOpCl=  0 I1Cent=   200000004 NGrid=           0
         NMat0=    1 NMatS0=      1 NMatT0=    0 NMatD0=    1 NMtDS0=    0 NMtDT0=    0
 Petite list used in FoFCou.
 Harris En= -1135.87210164572    
 JPrj=0 DoOrth=F DoCkMO=F.
 Initial guess <Sx>= 0.0000 <Sy>= 0.0000 <Sz>= 0.5000 <S**2>= 0.7500 S= 0.5000
 Leave Link  401 at Mon Nov 13 17:24:15 2023, MaxMem=  1879048192 cpu:               4.8 elap:               0.3
 (Enter /home/sekinelabo/g16/l502.exe)
 Keep R1 and R2 ints in memory in canonical form, NReq=507620388.
 FoFCou: FMM=F IPFlag=           0 FMFlag=           0 FMFlg1=           0
         NFxFlg=           0 DoJE=F BraDBF=F KetDBF=F FulRan=T
         wScrn=  0.000000 ICntrl=       600 IOpCl=  0 I1Cent=           0 NGrid=           0
         NMat0=    1 NMatS0=  22155 NMatT0=    0 NMatD0=    1 NMtDS0=    0 NMtDT0=    0
 Symmetry not used in FoFCou.
 Two-electron integral symmetry not used.
 UHF open shell SCF:
 Using DIIS extrapolation, IDIIS=  1040.
 NGot=  1879048192 LenX=  1388082348 LenY=  1388034818
 Requested convergence on RMS density matrix=1.00D-08 within 128 cycles.
 Requested convergence on MAX density matrix=1.00D-06.
 Requested convergence on             energy=1.00D-06.
 No special actions if energy rises.

 Cycle   1  Pass 1  IDiag  1:
 E= -1136.05312662913    
 DIIS: error= 1.22D-02 at cycle   1 NSaved=   1.
 NSaved= 1 IEnMin= 1 EnMin= -1136.05312662913     IErMin= 1 ErrMin= 1.22D-02
 ErrMax= 1.22D-02  0.00D+00 EMaxC= 1.00D-01 BMatC= 2.06D-01 BMatP= 2.06D-01
 IDIUse=3 WtCom= 8.78D-01 WtEn= 1.22D-01
 Coeff-Com:  0.100D+01
 Coeff-En:   0.100D+01
 Coeff:      0.100D+01
 Gap=     0.049 Goal=   None    Shift=    0.000
 Gap=     0.035 Goal=   None    Shift=    0.000
 GapD=    0.035 DampG=0.250 DampE=0.500 DampFc=0.2500 IDamp=-1.
 Damping current iteration by 2.50D-01
 RMSDP=8.98D-02 MaxDP=7.39D+00              OVMax= 2.70D-01

 Cycle   2  Pass 1  IDiag  1:
 E= -1136.06929855110     Delta-E=       -0.016171921964 Rises=F Damp=T
 DIIS: error= 8.02D-03 at cycle   2 NSaved=   2.
 NSaved= 2 IEnMin= 2 EnMin= -1136.06929855110     IErMin= 2 ErrMin= 8.02D-03
 ErrMax= 8.02D-03  0.00D+00 EMaxC= 1.00D-01 BMatC= 7.71D-02 BMatP= 2.06D-01
 IDIUse=3 WtCom= 9.20D-01 WtEn= 8.02D-02
 Coeff-Com: -0.123D+01 0.223D+01
 Coeff-En:   0.000D+00 0.100D+01
 Coeff:     -0.113D+01 0.213D+01
 Gap=     0.062 Goal=   None    Shift=    0.000
 Gap=     0.037 Goal=   None    Shift=    0.000
 RMSDP=3.84D-02 MaxDP=3.21D+00 DE=-1.62D-02 OVMax= 1.88D-01

 Cycle   3  Pass 1  IDiag  1:
 E= -1136.09526990086     Delta-E=       -0.025971349759 Rises=F Damp=F
 DIIS: error= 3.99D-03 at cycle   3 NSaved=   3.
 NSaved= 3 IEnMin= 3 EnMin= -1136.09526990086     IErMin= 3 ErrMin= 3.99D-03
 ErrMax= 3.99D-03  0.00D+00 EMaxC= 1.00D-01 BMatC= 5.16D-03 BMatP= 7.71D-02
 IDIUse=3 WtCom= 9.60D-01 WtEn= 3.99D-02
 Coeff-Com: -0.320D+00 0.570D+00 0.750D+00
 Coeff-En:   0.000D+00 0.000D+00 0.100D+01
 Coeff:     -0.307D+00 0.547D+00 0.760D+00
 Gap=     0.054 Goal=   None    Shift=    0.000
 Gap=     0.036 Goal=   None    Shift=    0.000
 RMSDP=1.72D-02 MaxDP=1.29D+00 DE=-2.60D-02 OVMax= 7.00D-02

 Cycle   4  Pass 1  IDiag  1:
 E= -1136.09647573190     Delta-E=       -0.001205831044 Rises=F Damp=F
 DIIS: error= 2.78D-03 at cycle   4 NSaved=   4.
 NSaved= 4 IEnMin= 4 EnMin= -1136.09647573190     IErMin= 4 ErrMin= 2.78D-03
 ErrMax= 2.78D-03  0.00D+00 EMaxC= 1.00D-01 BMatC= 3.14D-03 BMatP= 5.16D-03
 IDIUse=3 WtCom= 9.72D-01 WtEn= 2.78D-02
 Coeff-Com: -0.101D-01 0.147D-01 0.437D+00 0.559D+00
 Coeff-En:   0.000D+00 0.000D+00 0.402D+00 0.598D+00
 Coeff:     -0.983D-02 0.143D-01 0.436D+00 0.560D+00
 Gap=     0.056 Goal=   None    Shift=    0.000
 Gap=     0.037 Goal=   None    Shift=    0.000
 RMSDP=6.00D-03 MaxDP=4.38D-01 DE=-1.21D-03 OVMax= 4.51D-02

 Cycle   5  Pass 1  IDiag  1:
 E= -1136.09835825895     Delta-E=       -0.001882527051 Rises=F Damp=F
 DIIS: error= 8.52D-04 at cycle   5 NSaved=   5.
 NSaved= 5 IEnMin= 5 EnMin= -1136.09835825895     IErMin= 5 ErrMin= 8.52D-04
 ErrMax= 8.52D-04  0.00D+00 EMaxC= 1.00D-01 BMatC= 1.81D-04 BMatP= 3.14D-03
 IDIUse=3 WtCom= 9.91D-01 WtEn= 8.52D-03
 Coeff-Com: -0.524D-02 0.651D-02 0.291D+00 0.383D+00 0.324D+00
 Coeff-En:   0.000D+00 0.000D+00 0.000D+00 0.000D+00 0.100D+01
 Coeff:     -0.520D-02 0.646D-02 0.289D+00 0.380D+00 0.330D+00
 Gap=     0.056 Goal=   None    Shift=    0.000
 Gap=     0.037 Goal=   None    Shift=    0.000
 RMSDP=1.60D-03 MaxDP=9.56D-02 DE=-1.88D-03 OVMax= 1.73D-02

 Cycle   6  Pass 1  IDiag  1:
 E= -1136.09857940648     Delta-E=       -0.000221147531 Rises=F Damp=F
 DIIS: error= 1.05D-04 at cycle   6 NSaved=   6.
 NSaved= 6 IEnMin= 6 EnMin= -1136.09857940648     IErMin= 6 ErrMin= 1.05D-04
 ErrMax= 1.05D-04  0.00D+00 EMaxC= 1.00D-01 BMatC= 3.94D-06 BMatP= 1.81D-04
 IDIUse=3 WtCom= 9.99D-01 WtEn= 1.05D-03
 Coeff-Com: -0.174D-02 0.192D-02-0.346D-01-0.426D-01 0.911D-01 0.986D+00
 Coeff-En:   0.000D+00 0.000D+00 0.000D+00 0.000D+00 0.000D+00 0.100D+01
 Coeff:     -0.173D-02 0.192D-02-0.346D-01-0.426D-01 0.910D-01 0.986D+00
 Gap=     0.056 Goal=   None    Shift=    0.000
 Gap=     0.037 Goal=   None    Shift=    0.000
 RMSDP=4.83D-04 MaxDP=4.89D-02 DE=-2.21D-04 OVMax= 5.07D-03

 Cycle   7  Pass 1  IDiag  1:
 E= -1136.09858751434     Delta-E=       -0.000008107857 Rises=F Damp=F
 DIIS: error= 3.30D-05 at cycle   7 NSaved=   7.
 NSaved= 7 IEnMin= 7 EnMin= -1136.09858751434     IErMin= 7 ErrMin= 3.30D-05
 ErrMax= 3.30D-05  0.00D+00 EMaxC= 1.00D-01 BMatC= 3.04D-07 BMatP= 3.94D-06
 IDIUse=1 WtCom= 1.00D+00 WtEn= 0.00D+00
 Coeff-Com:  0.211D-03-0.352D-03-0.229D-01-0.284D-01-0.981D-02 0.887D-01
 Coeff-Com:  0.973D+00
 Coeff:      0.211D-03-0.352D-03-0.229D-01-0.284D-01-0.981D-02 0.887D-01
 Coeff:      0.973D+00
 Gap=     0.056 Goal=   None    Shift=    0.000
 Gap=     0.037 Goal=   None    Shift=    0.000
 RMSDP=2.26D-04 MaxDP=2.49D-02 DE=-8.11D-06 OVMax= 2.93D-03

 Cycle   8  Pass 1  IDiag  1:
 E= -1136.09858888890     Delta-E=       -0.000001374560 Rises=F Damp=F
 DIIS: error= 2.30D-05 at cycle   8 NSaved=   8.
 NSaved= 8 IEnMin= 8 EnMin= -1136.09858888890     IErMin= 8 ErrMin= 2.30D-05
 ErrMax= 2.30D-05  0.00D+00 EMaxC= 1.00D-01 BMatC= 1.63D-07 BMatP= 3.04D-07
 IDIUse=1 WtCom= 1.00D+00 WtEn= 0.00D+00
 Coeff-Com:  0.700D-03-0.895D-03-0.556D-02-0.699D-02-0.248D-01-0.130D+00
 Coeff-Com:  0.442D+00 0.725D+00
 Coeff:      0.700D-03-0.895D-03-0.556D-02-0.699D-02-0.248D-01-0.130D+00
 Coeff:      0.442D+00 0.725D+00
 Gap=     0.056 Goal=   None    Shift=    0.000
 Gap=     0.037 Goal=   None    Shift=    0.000
 RMSDP=9.42D-05 MaxDP=6.11D-03 DE=-1.37D-06 OVMax= 2.08D-03

 Cycle   9  Pass 1  IDiag  1:
 E= -1136.09858950101     Delta-E=       -0.000000612112 Rises=F Damp=F
 DIIS: error= 1.50D-05 at cycle   9 NSaved=   9.
 NSaved= 9 IEnMin= 9 EnMin= -1136.09858950101     IErMin= 9 ErrMin= 1.50D-05
 ErrMax= 1.50D-05  0.00D+00 EMaxC= 1.00D-01 BMatC= 6.72D-08 BMatP= 1.63D-07
 IDIUse=1 WtCom= 1.00D+00 WtEn= 0.00D+00
 Coeff-Com:  0.433D-03-0.534D-03 0.587D-02 0.706D-02-0.957D-02-0.881D-01
 Coeff-Com: -0.154D+00 0.394D+00 0.845D+00
 Coeff:      0.433D-03-0.534D-03 0.587D-02 0.706D-02-0.957D-02-0.881D-01
 Coeff:     -0.154D+00 0.394D+00 0.845D+00
 Gap=     0.056 Goal=   None    Shift=    0.000
 Gap=     0.037 Goal=   None    Shift=    0.000
 RMSDP=1.02D-04 MaxDP=1.02D-02 DE=-6.12D-07 OVMax= 1.95D-03

 Cycle  10  Pass 1  IDiag  1:
 E= -1136.09858988288     Delta-E=       -0.000000381863 Rises=F Damp=F
 DIIS: error= 1.07D-05 at cycle  10 NSaved=  10.
 NSaved=10 IEnMin=10 EnMin= -1136.09858988288     IErMin=10 ErrMin= 1.07D-05
 ErrMax= 1.07D-05  0.00D+00 EMaxC= 1.00D-01 BMatC= 1.34D-08 BMatP= 6.72D-08
 IDIUse=1 WtCom= 1.00D+00 WtEn= 0.00D+00
 Coeff-Com: -0.460D-03 0.604D-03 0.872D-03 0.102D-02 0.111D-01 0.552D-01
 Coeff-Com: -0.122D+00-0.309D+00-0.155D+00 0.152D+01
 Coeff:     -0.460D-03 0.604D-03 0.872D-03 0.102D-02 0.111D-01 0.552D-01
 Coeff:     -0.122D+00-0.309D+00-0.155D+00 0.152D+01
 Gap=     0.056 Goal=   None    Shift=    0.000
 Gap=     0.037 Goal=   None    Shift=    0.000
 RMSDP=8.54D-05 MaxDP=6.39D-03 DE=-3.82D-07 OVMax= 2.30D-03

 Cycle  11  Pass 1  IDiag  1:
 E= -1136.09859010034     Delta-E=       -0.000000217465 Rises=F Damp=F
 DIIS: error= 5.33D-06 at cycle  11 NSaved=  11.
 NSaved=11 IEnMin=11 EnMin= -1136.09859010034     IErMin=11 ErrMin= 5.33D-06
 ErrMax= 5.33D-06  0.00D+00 EMaxC= 1.00D-01 BMatC= 4.06D-09 BMatP= 1.34D-08
 IDIUse=1 WtCom= 1.00D+00 WtEn= 0.00D+00
 Coeff-Com: -0.235D-03 0.301D-03-0.932D-03-0.108D-02 0.455D-02 0.342D-01
 Coeff-Com:  0.103D-01-0.171D+00-0.281D+00 0.376D+00 0.103D+01
 Coeff:     -0.235D-03 0.301D-03-0.932D-03-0.108D-02 0.455D-02 0.342D-01
 Coeff:      0.103D-01-0.171D+00-0.281D+00 0.376D+00 0.103D+01
 Gap=     0.056 Goal=   None    Shift=    0.000
 Gap=     0.037 Goal=   None    Shift=    0.000
 RMSDP=3.85D-05 MaxDP=2.56D-03 DE=-2.17D-07 OVMax= 1.17D-03

 Cycle  12  Pass 1  IDiag  1:
 E= -1136.09859015205     Delta-E=       -0.000000051712 Rises=F Damp=F
 DIIS: error= 2.58D-06 at cycle  12 NSaved=  12.
 NSaved=12 IEnMin=12 EnMin= -1136.09859015205     IErMin=12 ErrMin= 2.58D-06
 ErrMax= 2.58D-06  0.00D+00 EMaxC= 1.00D-01 BMatC= 1.18D-09 BMatP= 4.06D-09
 IDIUse=1 WtCom= 1.00D+00 WtEn= 0.00D+00
 Coeff-Com:  0.121D-03-0.162D-03-0.549D-03-0.619D-03-0.237D-02-0.115D-01
 Coeff-Com:  0.514D-01 0.587D-01-0.163D-01-0.407D+00 0.178D+00 0.115D+01
 Coeff:      0.121D-03-0.162D-03-0.549D-03-0.619D-03-0.237D-02-0.115D-01
 Coeff:      0.514D-01 0.587D-01-0.163D-01-0.407D+00 0.178D+00 0.115D+01
 Gap=     0.056 Goal=   None    Shift=    0.000
 Gap=     0.037 Goal=   None    Shift=    0.000
 RMSDP=2.56D-05 MaxDP=1.90D-03 DE=-5.17D-08 OVMax= 6.67D-04

 Cycle  13  Pass 1  IDiag  1:
 E= -1136.09859016562     Delta-E=       -0.000000013567 Rises=F Damp=F
 DIIS: error= 1.28D-06 at cycle  13 NSaved=  13.
 NSaved=13 IEnMin=13 EnMin= -1136.09859016562     IErMin=13 ErrMin= 1.28D-06
 ErrMax= 1.28D-06  0.00D+00 EMaxC= 1.00D-01 BMatC= 6.44D-10 BMatP= 1.18D-09
 IDIUse=1 WtCom= 1.00D+00 WtEn= 0.00D+00
 Coeff-Com:  0.137D-03-0.181D-03-0.954D-04-0.102D-03-0.265D-02-0.148D-01
 Coeff-Com:  0.280D-01 0.794D-01 0.600D-01-0.352D+00-0.118D+00 0.705D+00
 Coeff-Com:  0.615D+00
 Coeff:      0.137D-03-0.181D-03-0.954D-04-0.102D-03-0.265D-02-0.148D-01
 Coeff:      0.280D-01 0.794D-01 0.600D-01-0.352D+00-0.118D+00 0.705D+00
 Coeff:      0.615D+00
 Gap=     0.056 Goal=   None    Shift=    0.000
 Gap=     0.037 Goal=   None    Shift=    0.000
 RMSDP=9.60D-06 MaxDP=6.30D-04 DE=-1.36D-08 OVMax= 2.23D-04

 Cycle  14  Pass 1  IDiag  1:
 E= -1136.09859016807     Delta-E=       -0.000000002448 Rises=F Damp=F
 DIIS: error= 5.14D-07 at cycle  14 NSaved=  14.
 NSaved=14 IEnMin=14 EnMin= -1136.09859016807     IErMin=14 ErrMin= 5.14D-07
 ErrMax= 5.14D-07  0.00D+00 EMaxC= 1.00D-01 BMatC= 1.04D-10 BMatP= 6.44D-10
 IDIUse=1 WtCom= 1.00D+00 WtEn= 0.00D+00
 Coeff-Com:  0.557D-05-0.546D-05 0.101D-04-0.240D-04-0.242D-03-0.241D-03
 Coeff-Com: -0.726D-02 0.798D-02 0.262D-01 0.220D-01-0.123D+00-0.167D+00
 Coeff-Com:  0.211D+00 0.103D+01
 Coeff:      0.557D-05-0.546D-05 0.101D-04-0.240D-04-0.242D-03-0.241D-03
 Coeff:     -0.726D-02 0.798D-02 0.262D-01 0.220D-01-0.123D+00-0.167D+00
 Coeff:      0.211D+00 0.103D+01
 Gap=     0.056 Goal=   None    Shift=    0.000
 Gap=     0.037 Goal=   None    Shift=    0.000
 RMSDP=1.01D-05 MaxDP=7.22D-04 DE=-2.45D-09 OVMax= 1.37D-04

 Cycle  15  Pass 1  IDiag  1:
 E= -1136.09859016882     Delta-E=       -0.000000000757 Rises=F Damp=F
 DIIS: error= 2.08D-07 at cycle  15 NSaved=  15.
 NSaved=15 IEnMin=15 EnMin= -1136.09859016882     IErMin=15 ErrMin= 2.08D-07
 ErrMax= 2.08D-07  0.00D+00 EMaxC= 1.00D-01 BMatC= 1.49D-11 BMatP= 1.04D-10
 IDIUse=1 WtCom= 1.00D+00 WtEn= 0.00D+00
 Coeff-Com: -0.137D-04 0.185D-04 0.408D-04 0.394D-04 0.385D-03 0.134D-02
 Coeff-Com: -0.421D-02-0.804D-02-0.595D-02 0.420D-01 0.114D-01-0.990D-01
 Coeff-Com: -0.649D-01-0.269D-02 0.113D+01
 Coeff:     -0.137D-04 0.185D-04 0.408D-04 0.394D-04 0.385D-03 0.134D-02
 Coeff:     -0.421D-02-0.804D-02-0.595D-02 0.420D-01 0.114D-01-0.990D-01
 Coeff:     -0.649D-01-0.269D-02 0.113D+01
 Gap=     0.056 Goal=   None    Shift=    0.000
 Gap=     0.037 Goal=   None    Shift=    0.000
 RMSDP=5.47D-06 MaxDP=3.57D-04 DE=-7.57D-10 OVMax= 4.71D-05

 Cycle  16  Pass 1  IDiag  1:
 E= -1136.09859016897     Delta-E=       -0.000000000146 Rises=F Damp=F
 DIIS: error= 1.44D-07 at cycle  16 NSaved=  16.
 NSaved=16 IEnMin=16 EnMin= -1136.09859016897     IErMin=16 ErrMin= 1.44D-07
 ErrMax= 1.44D-07  0.00D+00 EMaxC= 1.00D-01 BMatC= 4.22D-12 BMatP= 1.49D-11
 IDIUse=1 WtCom= 1.00D+00 WtEn= 0.00D+00
 Coeff-Com: -0.114D-05 0.943D-06-0.195D-04-0.115D-04-0.252D-04 0.233D-03
 Coeff-Com:  0.235D-02-0.997D-03-0.544D-02-0.125D-01 0.268D-01 0.681D-01
 Coeff-Com: -0.309D-01-0.264D+00-0.404D+00 0.162D+01
 Coeff:     -0.114D-05 0.943D-06-0.195D-04-0.115D-04-0.252D-04 0.233D-03
 Coeff:      0.235D-02-0.997D-03-0.544D-02-0.125D-01 0.268D-01 0.681D-01
 Coeff:     -0.309D-01-0.264D+00-0.404D+00 0.162D+01
 Gap=     0.056 Goal=   None    Shift=    0.000
 Gap=     0.037 Goal=   None    Shift=    0.000
 RMSDP=4.87D-06 MaxDP=3.12D-04 DE=-1.46D-10 OVMax= 3.03D-05

 Cycle  17  Pass 1  IDiag  1:
 E= -1136.09859016902     Delta-E=       -0.000000000053 Rises=F Damp=F
 DIIS: error= 7.20D-08 at cycle  17 NSaved=  17.
 NSaved=17 IEnMin=17 EnMin= -1136.09859016902     IErMin=17 ErrMin= 7.20D-08
 ErrMax= 7.20D-08  0.00D+00 EMaxC= 1.00D-01 BMatC= 8.52D-13 BMatP= 4.22D-12
 IDIUse=1 WtCom= 1.00D+00 WtEn= 0.00D+00
 Coeff-Com:  0.434D-05-0.564D-05-0.181D-05-0.164D-05-0.900D-04-0.464D-03
 Coeff-Com: -0.919D-04 0.290D-02 0.437D-02-0.596D-02-0.163D-01-0.250D-02
 Coeff-Com:  0.351D-01 0.121D+00-0.207D+00-0.522D+00 0.159D+01
 Coeff:      0.434D-05-0.564D-05-0.181D-05-0.164D-05-0.900D-04-0.464D-03
 Coeff:     -0.919D-04 0.290D-02 0.437D-02-0.596D-02-0.163D-01-0.250D-02
 Coeff:      0.351D-01 0.121D+00-0.207D+00-0.522D+00 0.159D+01
 Gap=     0.056 Goal=   None    Shift=    0.000
 Gap=     0.037 Goal=   None    Shift=    0.000
 RMSDP=2.49D-06 MaxDP=1.64D-04 DE=-5.34D-11 OVMax= 1.52D-05

 Cycle  18  Pass 1  IDiag  1:
 E= -1136.09859016904     Delta-E=       -0.000000000016 Rises=F Damp=F
 DIIS: error= 1.85D-08 at cycle  18 NSaved=  18.
 NSaved=18 IEnMin=18 EnMin= -1136.09859016904     IErMin=18 ErrMin= 1.85D-08
 ErrMax= 1.85D-08  0.00D+00 EMaxC= 1.00D-01 BMatC= 1.16D-13 BMatP= 8.52D-13
 IDIUse=1 WtCom= 1.00D+00 WtEn= 0.00D+00
 Coeff-Com:  0.297D-06-0.298D-06 0.286D-05 0.228D-05-0.447D-06-0.833D-04
 Coeff-Com: -0.395D-03 0.358D-03 0.104D-02 0.225D-02-0.636D-02-0.123D-01
 Coeff-Com:  0.804D-02 0.590D-01 0.450D-01-0.336D+00 0.227D+00 0.101D+01
 Coeff:      0.297D-06-0.298D-06 0.286D-05 0.228D-05-0.447D-06-0.833D-04
 Coeff:     -0.395D-03 0.358D-03 0.104D-02 0.225D-02-0.636D-02-0.123D-01
 Coeff:      0.804D-02 0.590D-01 0.450D-01-0.336D+00 0.227D+00 0.101D+01
 Gap=     0.056 Goal=   None    Shift=    0.000
 Gap=     0.037 Goal=   None    Shift=    0.000
 RMSDP=5.51D-07 MaxDP=3.80D-05 DE=-1.57D-11 OVMax= 3.52D-06

 Cycle  19  Pass 1  IDiag  1:
 E= -1136.09859016904     Delta-E=       -0.000000000005 Rises=F Damp=F
 DIIS: error= 8.41D-09 at cycle  19 NSaved=  19.
 NSaved=19 IEnMin=19 EnMin= -1136.09859016904     IErMin=19 ErrMin= 8.41D-09
 ErrMax= 8.41D-09  0.00D+00 EMaxC= 1.00D-01 BMatC= 2.82D-14 BMatP= 1.16D-13
 IDIUse=1 WtCom= 1.00D+00 WtEn= 0.00D+00
 Coeff-Com: -0.883D-06 0.118D-05 0.197D-05 0.181D-05 0.166D-04 0.659D-04
 Coeff-Com: -0.891D-04-0.500D-03-0.647D-03 0.205D-02 0.139D-02-0.350D-02
 Coeff-Com: -0.464D-02-0.589D-02 0.581D-01-0.293D-02-0.251D+00 0.326D+00
 Coeff-Com:  0.882D+00
 Coeff:     -0.883D-06 0.118D-05 0.197D-05 0.181D-05 0.166D-04 0.659D-04
 Coeff:     -0.891D-04-0.500D-03-0.647D-03 0.205D-02 0.139D-02-0.350D-02
 Coeff:     -0.464D-02-0.589D-02 0.581D-01-0.293D-02-0.251D+00 0.326D+00
 Coeff:      0.882D+00
 Gap=     0.056 Goal=   None    Shift=    0.000
 Gap=     0.037 Goal=   None    Shift=    0.000
 RMSDP=1.48D-07 MaxDP=1.16D-05 DE=-4.77D-12 OVMax= 9.69D-07

 Cycle  20  Pass 1  IDiag  1:
 E= -1136.09859016903     Delta-E=        0.000000000019 Rises=F Damp=F
 DIIS: error= 3.69D-09 at cycle  20 NSaved=  20.
 NSaved=20 IEnMin=19 EnMin= -1136.09859016904     IErMin=20 ErrMin= 3.69D-09
 ErrMax= 3.69D-09  0.00D+00 EMaxC= 1.00D-01 BMatC= 2.59D-15 BMatP= 2.82D-14
 IDIUse=1 WtCom= 1.00D+00 WtEn= 0.00D+00
 Coeff-Com: -0.773D-07 0.893D-07 0.106D-06 0.723D-07 0.156D-05 0.141D-04
 Coeff-Com:  0.501D-04-0.974D-04-0.139D-03-0.193D-03 0.107D-02 0.119D-02
 Coeff-Com: -0.130D-02-0.813D-02-0.196D-02 0.455D-01-0.421D-01-0.139D+00
 Coeff-Com: -0.114D-01 0.116D+01
 Coeff:     -0.773D-07 0.893D-07 0.106D-06 0.723D-07 0.156D-05 0.141D-04
 Coeff:      0.501D-04-0.974D-04-0.139D-03-0.193D-03 0.107D-02 0.119D-02
 Coeff:     -0.130D-02-0.813D-02-0.196D-02 0.455D-01-0.421D-01-0.139D+00
 Coeff:     -0.114D-01 0.116D+01
 Gap=     0.056 Goal=   None    Shift=    0.000
 Gap=     0.037 Goal=   None    Shift=    0.000
 RMSDP=3.96D-08 MaxDP=4.43D-06 DE= 1.86D-11 OVMax= 3.06D-07

 Cycle  21  Pass 1  IDiag  1:
 E= -1136.09859016904     Delta-E=       -0.000000000010 Rises=F Damp=F
 DIIS: error= 1.40D-09 at cycle  21 NSaved=  20.
 NSaved=20 IEnMin=18 EnMin= -1136.09859016904     IErMin=20 ErrMin= 1.40D-09
 ErrMax= 1.40D-09  0.00D+00 EMaxC= 1.00D-01 BMatC= 3.00D-16 BMatP= 2.59D-15
 IDIUse=1 WtCom= 1.00D+00 WtEn= 0.00D+00
 Large coefficients: NSaved= 20 BigCof=    0.00 CofMax=   10.00 Det=-6.93D-16
 Inversion failed.  Reducing to 19 matrices.
 Large coefficients: NSaved= 19 BigCof=    0.00 CofMax=   10.00 Det=-7.03D-16
 Inversion failed.  Reducing to 18 matrices.
 Large coefficients: NSaved= 18 BigCof=    0.00 CofMax=   10.00 Det=-7.04D-16
 Inversion failed.  Reducing to 17 matrices.
 Large coefficients: NSaved= 17 BigCof=    0.00 CofMax=   10.00 Det=-7.05D-16
 Inversion failed.  Reducing to 16 matrices.
 Large coefficients: NSaved= 16 BigCof=    0.00 CofMax=   10.00 Det=-7.09D-16
 Inversion failed.  Reducing to 15 matrices.
 Coeff-Com:  0.230D-05 0.306D-05 0.720D-05-0.463D-04 0.244D-04 0.175D-03
 Coeff-Com:  0.143D-04-0.509D-03-0.361D-02 0.499D-02 0.127D-01-0.402D-01
 Coeff-Com: -0.480D-01 0.456D-01 0.103D+01
 Coeff:      0.230D-05 0.306D-05 0.720D-05-0.463D-04 0.244D-04 0.175D-03
 Coeff:      0.143D-04-0.509D-03-0.361D-02 0.499D-02 0.127D-01-0.402D-01
 Coeff:     -0.480D-01 0.456D-01 0.103D+01
 Gap=     0.056 Goal=   None    Shift=    0.000
 Gap=     0.037 Goal=   None    Shift=    0.000
 RMSDP=1.65D-08 MaxDP=1.56D-06 DE=-1.00D-11 OVMax= 9.17D-08

 Cycle  22  Pass 1  IDiag  1:
 E= -1136.09859016903     Delta-E=        0.000000000002 Rises=F Damp=F
 DIIS: error= 5.10D-10 at cycle  22 NSaved=  16.
 NSaved=16 IEnMin=13 EnMin= -1136.09859016904     IErMin=16 ErrMin= 5.10D-10
 ErrMax= 5.10D-10  0.00D+00 EMaxC= 1.00D-01 BMatC= 6.16D-17 BMatP= 3.00D-16
 IDIUse=1 WtCom= 1.00D+00 WtEn= 0.00D+00
 Large coefficients: NSaved= 16 BigCof=    0.00 CofMax=   10.00 Det=-1.33D-16
 Inversion failed.  Reducing to 15 matrices.
 Coeff-Com:  0.774D-05 0.170D-05-0.398D-05-0.724D-04-0.143D-04 0.133D-03
 Coeff-Com:  0.451D-03-0.797D-04-0.258D-02 0.182D-02 0.132D-01-0.544D-02
 Coeff-Com: -0.114D+00-0.249D-01 0.113D+01
 Coeff:      0.774D-05 0.170D-05-0.398D-05-0.724D-04-0.143D-04 0.133D-03
 Coeff:      0.451D-03-0.797D-04-0.258D-02 0.182D-02 0.132D-01-0.544D-02
 Coeff:     -0.114D+00-0.249D-01 0.113D+01
 Gap=     0.056 Goal=   None    Shift=    0.000
 Gap=     0.037 Goal=   None    Shift=    0.000
 RMSDP=1.80D-08 MaxDP=1.67D-06 DE= 1.82D-12 OVMax= 3.47D-08

 Cycle  23  Pass 1  IDiag  1:
 E= -1136.09859016905     Delta-E=       -0.000000000012 Rises=F Damp=F
 DIIS: error= 2.39D-10 at cycle  23 NSaved=  16.
 NSaved=16 IEnMin=16 EnMin= -1136.09859016905     IErMin=16 ErrMin= 2.39D-10
 ErrMax= 2.39D-10  0.00D+00 EMaxC= 1.00D-01 BMatC= 2.37D-17 BMatP= 6.16D-17
 IDIUse=1 WtCom= 1.00D+00 WtEn= 0.00D+00
 Large coefficients: NSaved= 16 BigCof=    0.00 CofMax=   10.00 Det=-3.77D-17
 Inversion failed.  Reducing to 15 matrices.
 Coeff-Com: -0.455D-05 0.677D-05-0.104D-04-0.347D-05 0.934D-05 0.856D-04
 Coeff-Com:  0.360D-03-0.141D-02-0.789D-03 0.130D-01 0.638D-02-0.713D-01
 Coeff-Com: -0.171D+00 0.385D+00 0.840D+00
 Coeff:     -0.455D-05 0.677D-05-0.104D-04-0.347D-05 0.934D-05 0.856D-04
 Coeff:      0.360D-03-0.141D-02-0.789D-03 0.130D-01 0.638D-02-0.713D-01
 Coeff:     -0.171D+00 0.385D+00 0.840D+00
 Gap=     0.056 Goal=   None    Shift=    0.000
 Gap=     0.037 Goal=   None    Shift=    0.000
 RMSDP=1.85D-08 MaxDP=1.23D-06 DE=-1.16D-11 OVMax= 1.92D-08

 Cycle  24  Pass 1  IDiag  1:
 E= -1136.09859016903     Delta-E=        0.000000000020 Rises=F Damp=F
 DIIS: error= 1.23D-10 at cycle  24 NSaved=  16.
 NSaved=16 IEnMin=15 EnMin= -1136.09859016905     IErMin=16 ErrMin= 1.23D-10
 ErrMax= 1.23D-10  0.00D+00 EMaxC= 1.00D-01 BMatC= 5.22D-18 BMatP= 2.37D-17
 IDIUse=1 WtCom= 1.00D+00 WtEn= 0.00D+00
 Large coefficients: NSaved= 16 BigCof=    0.00 CofMax=   10.00 Det=-1.38D-17
 Inversion failed.  Reducing to 15 matrices.
 Coeff-Com: -0.117D-05 0.137D-04-0.837D-05-0.295D-04-0.873D-04 0.472D-03
 Coeff-Com:  0.355D-03-0.227D-02-0.379D-03 0.575D-02 0.232D-01-0.526D-01
 Coeff-Com: -0.159D+00 0.165D+00 0.102D+01
 Coeff:     -0.117D-05 0.137D-04-0.837D-05-0.295D-04-0.873D-04 0.472D-03
 Coeff:      0.355D-03-0.227D-02-0.379D-03 0.575D-02 0.232D-01-0.526D-01
 Coeff:     -0.159D+00 0.165D+00 0.102D+01
 Gap=     0.056 Goal=   None    Shift=    0.000
 Gap=     0.037 Goal=   None    Shift=    0.000
 RMSDP=8.81D-09 MaxDP=5.41D-07 DE= 2.00D-11 OVMax= 1.16D-08

 SCF Done:  E(UB3LYP) =  -1136.09859017     A.U. after   24 cycles
            NFock= 24  Conv=0.88D-08     -V/T= 2.0025
 <Sx>= 0.0000 <Sy>= 0.0000 <Sz>= 0.5000 <S**2>= 0.7603 S= 0.5052
 <L.S>= 0.000000000000E+00
 KE= 1.133239107333D+03 PE=-3.477768843980D+03 EE= 8.342767729635D+02
 Annihilation of the first spin contaminant:
 S**2 before annihilation     0.7603,   after     0.7501
 Leave Link  502 at Mon Nov 13 17:24:35 2023, MaxMem=  1879048192 cpu:             234.5 elap:              20.2
 (Enter /home/sekinelabo/g16/l601.exe)
 Copying SCF densities to generalized density rwf, IOpCl= 1 IROHF=0.

 **********************************************************************

            Population analysis using the SCF Density.

 **********************************************************************

 Orbital symmetries:
 Alpha Orbitals:
       Occupied  (A) (A) (A) (A) (A) (A) (A) (A) (A) (A) (A) (A)
                 (A) (A) (A) (A) (A) (A) (A) (A) (A) (A) (A) (A)
                 (A) (A) (A) (A) (A) (A) (A) (A) (A) (A) (A) (A)
                 (A) (A) (A)
       Virtual   (A) (A) (A) (A) (A) (A) (A) (A) (A) (A) (A) (A)
                 (A) (A) (A) (A) (A) (A) (A) (A) (A) (A) (A) (A)
                 (A) (A) (A) (A) (A) (A) (A) (A) (A) (A) (A) (A)
                 (A) (A) (A) (A) (A) (A) (A) (A) (A) (A) (A) (A)
                 (A) (A) (A) (A) (A) (A) (A) (A) (A) (A) (A) (A)
                 (A) (A) (A) (A) (A) (A) (A) (A) (A) (A) (A) (A)
                 (A) (A) (A) (A) (A) (A) (A) (A) (A) (A) (A) (A)
                 (A) (A) (A) (A) (A) (A) (A) (A) (A) (A) (A) (A)
                 (A) (A) (A) (A) (A) (A) (A) (A) (A) (A) (A) (A)
                 (A) (A) (A) (A) (A) (A) (A) (A) (A) (A) (A) (A)
                 (A) (A) (A) (A) (A) (A) (A) (A) (A) (A) (A) (A)
                 (A) (A) (A) (A) (A) (A) (A) (A) (A) (A) (A) (A)
                 (A) (A) (A) (A) (A) (A) (A) (A) (A) (A) (A) (A)
                 (A) (A) (A) (A) (A) (A) (A) (A) (A) (A) (A) (A)
                 (A) (A) (A)
 Beta  Orbitals:
       Occupied  (A) (A) (A) (A) (A) (A) (A) (A) (A) (A) (A) (A)
                 (A) (A) (A) (A) (A) (A) (A) (A) (A) (A) (A) (A)
                 (A) (A) (A) (A) (A) (A) (A) (A) (A) (A) (A) (A)
                 (A) (A)
       Virtual   (A) (A) (A) (A) (A) (A) (A) (A) (A) (A) (A) (A)
                 (A) (A) (A) (A) (A) (A) (A) (A) (A) (A) (A) (A)
                 (A) (A) (A) (A) (A) (A) (A) (A) (A) (A) (A) (A)
                 (A) (A) (A) (A) (A) (A) (A) (A) (A) (A) (A) (A)
                 (A) (A) (A) (A) (A) (A) (A) (A) (A) (A) (A) (A)
                 (A) (A) (A) (A) (A) (A) (A) (A) (A) (A) (A) (A)
                 (A) (A) (A) (A) (A) (A) (A) (A) (A) (A) (A) (A)
                 (A) (A) (A) (A) (A) (A) (A) (A) (A) (A) (A) (A)
                 (A) (A) (A) (A) (A) (A) (A) (A) (A) (A) (A) (A)
                 (A) (A) (A) (A) (A) (A) (A) (A) (A) (A) (A) (A)
                 (A) (A) (A) (A) (A) (A) (A) (A) (A) (A) (A) (A)
                 (A) (A) (A) (A) (A) (A) (A) (A) (A) (A) (A) (A)
                 (A) (A) (A) (A) (A) (A) (A) (A) (A) (A) (A) (A)
                 (A) (A) (A) (A) (A) (A) (A) (A) (A) (A) (A) (A)
                 (A) (A) (A) (A)
 The electronic state is 2-A.
 Alpha  occ. eigenvalues --  -38.44480 -38.44286 -38.44044 -38.43760 -38.43738
 Alpha  occ. eigenvalues --  -38.43421 -38.42973  -2.20461  -2.20262  -2.20133
 Alpha  occ. eigenvalues --   -2.19846  -2.19629  -2.19314  -2.19274  -1.14273
 Alpha  occ. eigenvalues --   -1.14138  -1.14104  -1.14006  -1.13939  -1.13892
 Alpha  occ. eigenvalues --   -1.13818  -1.13743  -1.13679  -1.13605  -1.13510
 Alpha  occ. eigenvalues --   -1.13490  -1.13346  -1.13240  -1.13222  -1.13087
 Alpha  occ. eigenvalues --   -1.12977  -1.12966  -1.12905  -1.12887  -1.12802
 Alpha  occ. eigenvalues --   -0.19965  -0.14537  -0.11515  -0.11315
 Alpha virt. eigenvalues --   -0.05709  -0.05461  -0.04426  -0.03221  -0.02370
 Alpha virt. eigenvalues --   -0.02277  -0.01695  -0.00987  -0.00312   0.00279
 Alpha virt. eigenvalues --    0.00420   0.00456   0.00670   0.00788   0.00886
 Alpha virt. eigenvalues --    0.00934   0.00971   0.01110   0.01385   0.01413
 Alpha virt. eigenvalues --    0.01447   0.01606   0.01853   0.01917   0.02057
 Alpha virt. eigenvalues --    0.02476   0.02538   0.02652   0.02714   0.02769
 Alpha virt. eigenvalues --    0.02784   0.02892   0.02995   0.03016   0.03081
 Alpha virt. eigenvalues --    0.03114   0.03332   0.03346   0.03877   0.03998
 Alpha virt. eigenvalues --    0.04287   0.04517   0.04680   0.04878   0.05018
 Alpha virt. eigenvalues --    0.05278   0.05474   0.05813   0.06135   0.06178
 Alpha virt. eigenvalues --    0.06543   0.06860   0.07030   0.07303   0.07531
 Alpha virt. eigenvalues --    0.07823   0.07957   0.08439   0.08572   0.08644
 Alpha virt. eigenvalues --    0.09643   0.10197   0.10942   0.11501   0.11592
 Alpha virt. eigenvalues --    0.12622   0.13130   0.13238   0.13670   0.14054
 Alpha virt. eigenvalues --    0.14168   0.14469   0.14618   0.15003   0.15199
 Alpha virt. eigenvalues --    0.15962   0.16337   0.17641   0.19192   0.20463
 Alpha virt. eigenvalues --    0.24115   0.24945   0.27072   0.27782   0.28917
 Alpha virt. eigenvalues --    0.30307   0.31155   0.32019   0.32904   0.34215
 Alpha virt. eigenvalues --    0.35018   0.35566   0.36895   0.37466   0.38680
 Alpha virt. eigenvalues --    0.39191   0.40345   0.40771   0.42061   0.42465
 Alpha virt. eigenvalues --    0.43987   0.44228   0.44314   0.44667   0.45198
 Alpha virt. eigenvalues --    0.45537   0.45909   0.47104   0.47818   0.48113
 Alpha virt. eigenvalues --    0.49168   0.49243   0.49767   0.49904   0.50282
 Alpha virt. eigenvalues --    0.51550   0.52033   0.52498   0.53472   0.55510
 Alpha virt. eigenvalues --    0.56109   0.56830   0.58537   0.59558   0.62649
 Alpha virt. eigenvalues --    0.65214   0.66724   0.67130   0.69702   0.70282
 Alpha virt. eigenvalues --    0.72145   0.75239   0.75751   0.77907   0.80838
 Alpha virt. eigenvalues --    0.83238   2.10798   2.16804   2.18801   2.23143
 Alpha virt. eigenvalues --    2.24108   2.32625   2.41520   4.40755   4.41992
 Alpha virt. eigenvalues --    4.42305   4.42402   4.43216   4.43612   4.44132
 Alpha virt. eigenvalues --    4.45005   4.46919   4.48354   4.53802   4.54060
 Alpha virt. eigenvalues --    4.56022   4.62317   4.64797   4.67480   4.71411
 Alpha virt. eigenvalues --    4.72489   4.74887   4.77255   4.82961  96.31849
 Alpha virt. eigenvalues --   96.39778  96.42600  96.49352  96.50466  96.61677
 Alpha virt. eigenvalues --   96.72978
  Beta  occ. eigenvalues --  -38.44462 -38.44276 -38.43959 -38.43728 -38.43716
  Beta  occ. eigenvalues --  -38.43414 -38.42928  -2.20430  -2.20247  -2.19981
  Beta  occ. eigenvalues --   -2.19769  -2.19611  -2.19303  -2.19199  -1.14252
  Beta  occ. eigenvalues --   -1.14090  -1.14083  -1.13982  -1.13901  -1.13810
  Beta  occ. eigenvalues --   -1.13790  -1.13640  -1.13582  -1.13558  -1.13464
  Beta  occ. eigenvalues --   -1.13409  -1.13319  -1.13215  -1.13207  -1.13060
  Beta  occ. eigenvalues --   -1.12957  -1.12900  -1.12878  -1.12838  -1.12757
  Beta  occ. eigenvalues --   -0.19195  -0.14319  -0.11099
  Beta virt. eigenvalues --   -0.07365  -0.05582  -0.05414  -0.03690  -0.02933
  Beta virt. eigenvalues --   -0.01743  -0.01703  -0.01361  -0.00891  -0.00016
  Beta virt. eigenvalues --    0.00327   0.00433   0.00466   0.00682   0.00888
  Beta virt. eigenvalues --    0.00960   0.01006   0.01120   0.01236   0.01500
  Beta virt. eigenvalues --    0.01544   0.01597   0.01656   0.01900   0.01943
  Beta virt. eigenvalues --    0.02243   0.02510   0.02566   0.02646   0.02748
  Beta virt. eigenvalues --    0.02798   0.02885   0.02924   0.03055   0.03087
  Beta virt. eigenvalues --    0.03150   0.03205   0.03381   0.03431   0.04009
  Beta virt. eigenvalues --    0.04066   0.04373   0.04683   0.04841   0.05060
  Beta virt. eigenvalues --    0.05180   0.05397   0.05551   0.05989   0.06232
  Beta virt. eigenvalues --    0.06275   0.06617   0.06920   0.07106   0.07389
  Beta virt. eigenvalues --    0.07685   0.07997   0.08120   0.08579   0.08668
  Beta virt. eigenvalues --    0.08804   0.09890   0.10308   0.11028   0.11916
  Beta virt. eigenvalues --    0.12076   0.12765   0.13325   0.13542   0.13858
  Beta virt. eigenvalues --    0.14363   0.14534   0.14615   0.14810   0.15245
  Beta virt. eigenvalues --    0.15533   0.16131   0.16618   0.17942   0.19517
  Beta virt. eigenvalues --    0.20606   0.24398   0.25258   0.27395   0.28140
  Beta virt. eigenvalues --    0.29452   0.30377   0.31395   0.32219   0.33195
  Beta virt. eigenvalues --    0.34569   0.35400   0.35783   0.37158   0.37788
  Beta virt. eigenvalues --    0.38866   0.39524   0.40608   0.41036   0.42313
  Beta virt. eigenvalues --    0.42726   0.44163   0.44320   0.44561   0.44860
  Beta virt. eigenvalues --    0.45279   0.45679   0.46200   0.47266   0.48008
  Beta virt. eigenvalues --    0.48322   0.49310   0.49426   0.49880   0.50066
  Beta virt. eigenvalues --    0.50469   0.51754   0.52251   0.52615   0.53719
  Beta virt. eigenvalues --    0.55786   0.56330   0.57127   0.58779   0.59859
  Beta virt. eigenvalues --    0.62964   0.65439   0.66782   0.67357   0.69959
  Beta virt. eigenvalues --    0.70541   0.72286   0.75358   0.75900   0.78100
  Beta virt. eigenvalues --    0.81039   0.83472   2.10879   2.16861   2.18846
  Beta virt. eigenvalues --    2.23372   2.24177   2.32843   2.41687   4.40836
  Beta virt. eigenvalues --    4.42059   4.42350   4.42475   4.43257   4.43668
  Beta virt. eigenvalues --    4.44230   4.45048   4.46936   4.48372   4.53868
  Beta virt. eigenvalues --    4.54094   4.56105   4.62362   4.64866   4.67532
  Beta virt. eigenvalues --    4.71454   4.72547   4.74913   4.77325   4.83034
  Beta virt. eigenvalues --   96.31879  96.39802  96.42614  96.49419  96.50488
  Beta virt. eigenvalues --   96.61753  96.73032
          Condensed to atoms (all electrons):
               1          2          3          4          5          6
     1  Na  15.122062  -0.997143   0.099698  -1.570523   0.995230  -1.611323
     2  Na  -0.997143  12.618481   0.407073  -0.190246   0.328388   0.150404
     3  Na   0.099698   0.407073  13.091167  -2.243250   2.402091  -2.576560
     4  Na  -1.570523  -0.190246  -2.243250  14.591778  -2.227454   2.044970
     5  Na   0.995230   0.328388   2.402091  -2.227454  14.347533  -2.625054
     6  Na  -1.611323   0.150404  -2.576560   2.044970  -2.625054  16.488942
     7  Na  -0.424934  -1.050348  -0.628216   0.496875  -2.176554  -1.160701
               7
     1  Na  -0.424934
     2  Na  -1.050348
     3  Na  -0.628216
     4  Na   0.496875
     5  Na  -2.176554
     6  Na  -1.160701
     7  Na  15.855190
          Atomic-Atomic Spin Densities.
               1          2          3          4          5          6
     1  Na   0.882701  -0.318173  -0.110610   0.115053   0.079227  -0.233604
     2  Na  -0.318173   0.035717  -0.021298  -0.069104  -0.001515   0.264114
     3  Na  -0.110610  -0.021298  -0.205358   0.334159  -0.347099   0.216469
     4  Na   0.115053  -0.069104   0.334159  -0.339667   0.576309  -0.455725
     5  Na   0.079227  -0.001515  -0.347099   0.576309  -0.156437   0.447951
     6  Na  -0.233604   0.264114   0.216469  -0.455725   0.447951   0.219779
     7  Na  -0.469631   0.203437   0.209481   0.030267  -0.337550  -0.245401
               7
     1  Na  -0.469631
     2  Na   0.203437
     3  Na   0.209481
     4  Na   0.030267
     5  Na  -0.337550
     6  Na  -0.245401
     7  Na   0.829744
 Mulliken charges and spin densities:
               1          2
     1  Na  -0.613068  -0.055036
     2  Na  -0.266610   0.093179
     3  Na   0.447997   0.075745
     4  Na   0.097851   0.191292
     5  Na  -0.044180   0.260887
     6  Na   0.289322   0.213584
     7  Na   0.088688   0.220348
 Sum of Mulliken charges =  -0.00000   1.00000
 Mulliken charges and spin densities with hydrogens summed into heavy atoms:
               1          2
     1  Na  -0.613068  -0.055036
     2  Na  -0.266610   0.093179
     3  Na   0.447997   0.075745
     4  Na   0.097851   0.191292
     5  Na  -0.044180   0.260887
     6  Na   0.289322   0.213584
     7  Na   0.088688   0.220348
 Electronic spatial extent (au):  <R**2>=           1997.2760
 Charge=             -0.0000 electrons
 Dipole moment (field-independent basis, Debye):
    X=             -0.6539    Y=             -0.0914    Z=             -0.1102  Tot=              0.6694
 Quadrupole moment (field-independent basis, Debye-Ang):
   XX=            -53.1981   YY=            -69.8433   ZZ=            -70.0106
   XY=             -0.0708   XZ=              0.5871   YZ=              1.1372
 Traceless Quadrupole moment (field-independent basis, Debye-Ang):
   XX=             11.1526   YY=             -5.4927   ZZ=             -5.6600
   XY=             -0.0708   XZ=              0.5871   YZ=              1.1372
 Octapole moment (field-independent basis, Debye-Ang**2):
  XXX=            -13.5045  YYY=              1.9599  ZZZ=              8.7734  XYY=             -2.4213
  XXY=             -2.4834  XXZ=             -5.9538  XZZ=              1.6408  YZZ=             -2.7794
  YYZ=            -11.6327  XYZ=             -1.2428
 Hexadecapole moment (field-independent basis, Debye-Ang**3):
 XXXX=          -1590.1043 YYYY=          -1129.8972 ZZZZ=           -741.9340 XXXY=              2.9167
 XXXZ=             28.4925 YYYX=            -12.4939 YYYZ=              8.8784 ZZZX=              2.0320
 ZZZY=              3.2692 XXYY=           -359.3430 XXZZ=           -384.7975 YYZZ=           -324.4596
 XXYZ=             16.2989 YYXZ=            -16.3486 ZZXY=              8.7063
 N-N= 3.741543735144D+02 E-N=-3.477768843944D+03  KE= 1.133239107333D+03
                          Isotropic Fermi Contact Couplings
        Atom                 a.u.       MegaHertz       Gauss      10(-4) cm-1
     1  Na(23)             0.11301     133.69914      47.70718      44.59723
     2  Na(23)             0.02538      30.03062      10.71567      10.01714
     3  Na(23)             0.00959      11.34147       4.04692       3.78311
     4  Na(23)             0.13261     156.87786      55.97792      52.32882
     5  Na(23)             0.32911     389.34510     138.92801     129.87155
     6  Na(23)             0.04661      55.14549      19.67728      18.39455
     7  Na(23)            -0.00152      -1.79883      -0.64187      -0.60003
 --------------------------------------------------------
       Center         ----  Spin Dipole Couplings  ----
                      3XX-RR        3YY-RR        3ZZ-RR
 --------------------------------------------------------
     1   Atom       -0.020047     -0.019971      0.040017
     2   Atom       -0.004620     -0.005448      0.010068
     3   Atom       -0.005962     -0.004580      0.010542
     4   Atom        0.019873     -0.028085      0.008212
     5   Atom        0.011448     -0.003842     -0.007606
     6   Atom       -0.008944     -0.009236      0.018180
     7   Atom       -0.015658     -0.018342      0.034001
 --------------------------------------------------------
                        XY            XZ            YZ
 --------------------------------------------------------
     1   Atom        0.000463      0.000381      0.008292
     2   Atom       -0.003334      0.005547     -0.010827
     3   Atom        0.003328      0.002957      0.010189
     4   Atom        0.001707     -0.036845     -0.002716
     5   Atom        0.008157      0.015607      0.006569
     6   Atom        0.002176     -0.010670     -0.013156
     7   Atom       -0.001186      0.002760      0.010443
 --------------------------------------------------------


 ---------------------------------------------------------------------------------
              Anisotropic Spin Dipole Couplings in Principal Axis System
 ---------------------------------------------------------------------------------

       Atom             a.u.   MegaHertz   Gauss  10(-4) cm-1        Axes

              Baa    -0.0212    -2.999    -1.070    -1.000 -0.3251  0.9374 -0.1249
     1 Na(23) Bbb    -0.0199    -2.812    -1.003    -0.938  0.9457  0.3212 -0.0505
              Bcc     0.0411     5.810     2.073     1.938  0.0072  0.1345  0.9909
 
              Baa    -0.0110    -1.560    -0.557    -0.520  0.0882  0.8956  0.4361
     2 Na(23) Bbb    -0.0065    -0.913    -0.326    -0.305  0.9559  0.0470 -0.2899
              Bcc     0.0175     2.473     0.883     0.825  0.2801 -0.4424  0.8519
 
              Baa    -0.0104    -1.471    -0.525    -0.491 -0.3963  0.8465 -0.3556
     3 Na(23) Bbb    -0.0060    -0.850    -0.303    -0.284  0.8998  0.2812 -0.3336
              Bcc     0.0164     2.321     0.828     0.774  0.1824  0.4522  0.8731
 
              Baa    -0.0284    -4.008    -1.430    -1.337  0.0905  0.9823  0.1640
     4 Na(23) Bbb    -0.0231    -3.260    -1.163    -1.087  0.6442 -0.1833  0.7426
              Bcc     0.0515     7.267     2.593     2.424  0.7595  0.0385 -0.6494
 
              Baa    -0.0167    -2.354    -0.840    -0.785 -0.4395 -0.1720  0.8816
     5 Na(23) Bbb    -0.0074    -1.041    -0.372    -0.347 -0.3881  0.9215 -0.0136
              Bcc     0.0240     3.395     1.211     1.132  0.8101  0.3481  0.4718
 
              Baa    -0.0156    -2.199    -0.785    -0.734  0.4659  0.7646  0.4453
     6 Na(23) Bbb    -0.0111    -1.571    -0.561    -0.524  0.8365 -0.5447  0.0600
              Bcc     0.0267     3.770     1.345     1.258 -0.2885 -0.3445  0.8934
 
              Baa    -0.0209    -2.952    -1.053    -0.985  0.3119  0.9304 -0.1926
     7 Na(23) Bbb    -0.0152    -2.150    -0.767    -0.717  0.9489 -0.3152  0.0137
              Bcc     0.0361     5.102     1.820     1.702  0.0480  0.1871  0.9812
 

 ---------------------------------------------------------------------------------

 No NMR shielding tensors so no spin-rotation constants.
 Leave Link  601 at Mon Nov 13 17:24:35 2023, MaxMem=  1879048192 cpu:               2.7 elap:               0.2
 (Enter /home/sekinelabo/g16/l701.exe)
 ... and contract with generalized density number  0.
 Compute integral first derivatives.
 Leave Link  701 at Mon Nov 13 17:24:35 2023, MaxMem=  1879048192 cpu:               1.7 elap:               0.1
 (Enter /home/sekinelabo/g16/l702.exe)
 L702 exits ... SP integral derivatives will be done elsewhere.
 Leave Link  702 at Mon Nov 13 17:24:35 2023, MaxMem=  1879048192 cpu:               0.4 elap:               0.0
 (Enter /home/sekinelabo/g16/l703.exe)
 Integral derivatives from FoFJK, PRISM(SPDF).
 Compute integral first derivatives, UseDBF=F ICtDFT=           0.
 Calling FoFJK, ICntrl=      2127 FMM=F ISym2X=0 I1Cent= 0 IOpClX= 1 NMat=1 NMatS=1 NMatT=0.
 FoFJK:  IHMeth= 1 ICntrl=    2127 DoSepK=F KAlg= 0 I1Cent=           0 FoldK=F
 IRaf=         0 NMat=       1 IRICut=       1 DoRegI=T DoRafI=F ISym2E= 0 IDoP0=0 IntGTp=1.
 FoFCou: FMM=F IPFlag=           0 FMFlag=      100000 FMFlg1=         800
         NFxFlg=           0 DoJE=F BraDBF=F KetDBF=F FulRan=T
         wScrn=  0.000000 ICntrl=      2127 IOpCl=  1 I1Cent=           0 NGrid=           0
         NMat0=    1 NMatS0=      1 NMatT0=    0 NMatD0=    1 NMtDS0=    0 NMtDT0=    0
 Symmetry not used in FoFCou.
 Leave Link  703 at Mon Nov 13 17:24:38 2023, MaxMem=  1879048192 cpu:              36.6 elap:               2.4
 (Enter /home/sekinelabo/g16/l716.exe)
 Dipole        =-2.57256067D-01-3.59733563D-02-4.33677059D-02
 ***** Axes restored to original set *****
 -------------------------------------------------------------------
 Center     Atomic                   Forces (Hartrees/Bohr)
 Number     Number              X              Y              Z
 -------------------------------------------------------------------
      1       11           0.001484309    0.000144025    0.013771662
      2       11           0.001758298    0.008925576    0.002795535
      3       11           0.000933380   -0.009519010    0.003329030
      4       11           0.007185385   -0.000935776   -0.012336538
      5       11          -0.001250693    0.004341362   -0.014957002
      6       11          -0.007113309    0.012820266    0.005500641
      7       11          -0.002997370   -0.015776443    0.001896673
 -------------------------------------------------------------------
 Cartesian Forces:  Max     0.015776443 RMS     0.007989674
 Z-matrix is all fixed cartesians, so copy forces.
 Force constants in Cartesian coordinates: 
                1             2             3             4             5 
      1  0.206717D+00
      2  0.344842D-02  0.202150D+00
      3  0.104203D-01  0.162069D-02  0.251350D+00
      4 -0.353394D-01 -0.757466D-02 -0.992901D-02  0.453703D-01
      5 -0.189782D-02 -0.376486D-01 -0.150818D-02  0.132183D-01  0.585812D-01
      6  0.121754D-01  0.213135D-01 -0.369500D-01  0.279313D-02  0.119566D-01
      7 -0.358416D-01  0.503683D-02 -0.999977D-02  0.413841D-02 -0.501309D-02
      8  0.629128D-03 -0.401965D-01  0.109279D-02  0.420435D-02 -0.786687D-02
      9  0.100619D-01 -0.230282D-01 -0.316194D-01  0.137914D-03 -0.321631D-02
     10 -0.314605D-01  0.118993D-02  0.476062D-02 -0.117407D-01 -0.774232D-02
     11  0.580631D-03 -0.205693D-01 -0.193149D-03  0.641202D-02 -0.239133D-01
     12  0.158754D-01 -0.910481D-03 -0.528040D-01  0.867296D-02 -0.652417D-02
     13 -0.265700D-01  0.213205D-02 -0.817606D-02 -0.134877D-02  0.506273D-03
     14 -0.876339D-03 -0.249402D-01 -0.579797D-03 -0.814812D-02  0.318353D-02
     15 -0.626908D-02  0.583876D-02 -0.542863D-01 -0.501837D-02  0.108893D-02
     16 -0.427080D-01  0.146412D-01  0.881494D-02 -0.253759D-02  0.252502D-02
     17 -0.135235D-02 -0.409413D-01 -0.739245D-02 -0.496453D-02  0.496444D-02
     18 -0.234613D-01  0.107716D-01 -0.345035D-01  0.117596D-02 -0.875865D-03
     19 -0.347979D-01 -0.188737D-01  0.410897D-02  0.145768D-02 -0.159633D-02
     20 -0.531678D-03 -0.378546D-01  0.696010D-02 -0.314731D-02  0.269963D-02
     21 -0.188027D-01 -0.156058D-01 -0.411873D-01  0.216743D-02 -0.921020D-03
                6             7             8             9            10 
      6  0.488091D-01
      7  0.334576D-03  0.452053D-01
      8  0.314506D-02 -0.114811D-01  0.612271D-01
      9  0.589325D-02  0.156815D-02 -0.113927D-01  0.457233D-01
     10 -0.885804D-02 -0.129702D-01  0.735916D-02 -0.638432D-02  0.102925D+00
     11 -0.265709D-01 -0.686792D-02 -0.235932D-01  0.274885D-01 -0.277793D-02
     12 -0.301949D-01  0.962826D-02  0.544890D-02 -0.304989D-01 -0.200152D-01
     13 -0.526153D-02  0.502394D-03  0.111758D-03 -0.451548D-02 -0.422013D-01
     14 -0.547237D-02  0.807270D-02  0.179109D-02  0.598049D-02  0.169163D-02
     15  0.165644D-02 -0.482585D-02 -0.137746D-03  0.302272D-02  0.199437D-01
     16 -0.743116D-03  0.240620D-02  0.208001D-02  0.734870D-03 -0.136853D-02
     17 -0.982365D-03  0.560469D-02  0.463230D-02  0.283445D-02 -0.563183D-03
     18  0.206590D-02  0.253819D-02  0.150244D-02  0.547363D-02  0.557567D-02
     19 -0.440377D-03 -0.344058D-02 -0.290327D-02 -0.160308D-02 -0.318343D-02
     20 -0.338958D-02  0.464794D-02  0.400606D-02  0.133383D-02  0.842715D-03
     21  0.872020D-02  0.756446D-03  0.341286D-03  0.200546D-02  0.497759D-02
               11            12            13            14            15 
     11  0.821745D-01
     12 -0.115005D-02  0.130105D+00
     13  0.590623D-02 -0.235602D-01  0.107626D+00
     14 -0.212317D-01  0.450295D-02 -0.346412D-02  0.811452D-01
     15  0.193358D-03 -0.301324D-01  0.191142D-02 -0.135868D-01  0.147397D+00
     16  0.444746D-02  0.572994D-02 -0.212962D-01  0.913127D-02 -0.213724D-02
     17  0.369192D-02 -0.142455D-03  0.353611D-02 -0.132304D-01  0.221078D-02
     18 -0.237960D-02  0.817191D-02  0.231508D-01 -0.255385D-01 -0.401557D-01
     19 -0.770048D-02  0.366881D-02 -0.167120D-01 -0.640701D-02 -0.360460D-02
     20  0.344108D-02 -0.122470D-02 -0.872830D-02 -0.267175D-01  0.439275D-02
     21  0.261178D-02  0.535305D-02  0.164510D-01  0.346941D-01 -0.275018D-01
               16            17            18            19            20 
     16  0.732831D-01
     17 -0.214461D-01  0.889233D-01
     18 -0.124639D-01  0.168092D-01  0.628970D-01
     19 -0.777898D-02  0.191853D-01  0.348455D-02  0.644552D-01
     20 -0.113789D-01 -0.480402D-01 -0.289232D-03  0.182955D-01  0.102466D+00
     21  0.644832D-04 -0.133371D-01 -0.394917D-02 -0.561428D-02 -0.778316D-02
               21 
     21  0.565596D-01
 Leave Link  716 at Mon Nov 13 17:24:38 2023, MaxMem=  1879048192 cpu:               0.5 elap:               0.0
 (Enter /home/sekinelabo/g16/l103.exe)

 GradGradGradGradGradGradGradGradGradGradGradGradGradGradGradGradGradGrad
 Berny optimization.
 Search for a local minimum.
 Step number   1 out of a maximum of    2
 All quantities printed in internal units (Hartrees-Bohrs-Radians)
 Second derivative matrix not updated -- first step.
 ITU=  0
     Eigenvalues ---    0.03264   0.04763   0.05184   0.06226   0.07450
     Eigenvalues ---    0.09572   0.11826   0.12337   0.13958   0.14740
     Eigenvalues ---    0.16677   0.19950   0.24539   0.25141   0.30123
 Quadratic step=3.163D-01 exceeds max=3.000D-01 adjusted using Lamda=-4.656D-03.
 Angle between NR and scaled steps=   1.19 degrees.
 Angle between quadratic step and forces=  25.33 degrees.
 Linear search not attempted -- first point.
 B after Tr=    -0.000000    0.000000    0.000000
         Rot=    1.000000    0.000000    0.000000    0.000000 Ang=   0.00 deg.
 Variable       Old X    -DE/DX   Delta X   Delta X   Delta X     New X
                                 (Linear)    (Quad)   (Total)
    X1        5.07633   0.00148   0.00000   0.00851   0.00851   5.08484
    Y1        4.16445   0.00014   0.00000   0.00278   0.00278   4.16723
    Z1        5.15261   0.01377   0.00000   0.04662   0.04662   5.19923
    X2        9.15701   0.00176   0.00000   0.05024   0.05024   9.20726
    Y2        8.06467   0.00893   0.00000   0.12076   0.12076   8.18544
    Z2        4.52780   0.00280   0.00000   0.01985   0.01985   4.54765
    X3        8.88778   0.00093   0.00000   0.03146   0.03146   8.91924
    Y3        0.00000  -0.00952   0.00000  -0.12847  -0.12847  -0.12847
    Z3        4.51296   0.00333   0.00000   0.03056   0.03056   4.54352
    X4        8.40421   0.00719   0.00000   0.08308   0.08308   8.48730
    Y4        4.06299  -0.00094   0.00000  -0.00354  -0.00354   4.05945
    Z4        0.58349  -0.01234   0.00000  -0.07033  -0.07033   0.51316
    X5        2.79881  -0.00125   0.00000  -0.03160  -0.03160   2.76721
    Y5        4.71937   0.00434   0.00000   0.03020   0.03020   4.74957
    Z5        0.00000  -0.01496   0.00000  -0.08813  -0.08813  -0.08813
    X6        0.00000  -0.00711   0.00000  -0.09055  -0.09055  -0.09055
    Y6        6.61940   0.01282   0.00000   0.08127   0.08127   6.70067
    Z6        4.54370   0.00550   0.00000   0.04503   0.04503   4.58874
    X7        0.55407  -0.00300   0.00000  -0.05114  -0.05114   0.50293
    Y7        1.05444  -0.01578   0.00000  -0.10299  -0.10299   0.95145
    Z7        3.69530   0.00190   0.00000   0.01640   0.01640   3.71170
         Item               Value     Threshold  Converged?
 Maximum Force            0.015776     0.000450     NO 
 RMS     Force            0.007990     0.000300     NO 
 Maximum Displacement     0.128474     0.001800     NO 
 RMS     Displacement     0.065483     0.001200     NO 
 Predicted change in Energy=-5.174902D-03
 GradGradGradGradGradGradGradGradGradGradGradGradGradGradGradGradGradGrad

 Leave Link  103 at Mon Nov 13 17:24:38 2023, MaxMem=  1879048192 cpu:               0.3 elap:               0.0
 (Enter /home/sekinelabo/g16/l9999.exe)
 1\1\GINC-SEKINELABO-XA7R-R37\Force\UB3LYP\6-311+G(d)\Na7(2)\SEKINELABO
 \13-Nov-2023\0\\#P B3LYP/6-311+g(d) force\\Gaussian input prepared by 
 ASE\\0,2\Na,2.6862798542,2.2037325251,2.7266446441\Na,4.8456816947,4.2
 676409208,2.3960078643\Na,4.7032102197,0.,2.3881576219\Na,4.4473177572
 ,2.1500426134,0.3087685815\Na,1.4810688665,2.4973811269,0.\Na,0.,3.502
 8343206,2.4044249256\Na,0.2932025006,0.5579838537,1.955467416\\Version
 =ES64L-G16RevB.01\State=2-A\HF=-1136.0985902\S2=0.760331\S2-1=0.\S2A=0
 .750068\RMSD=8.813e-09\RMSF=7.990e-03\Dipole=-0.2572561,0.0359734,0.04
 33677\Quadrupole=8.2916955,-4.0836552,-4.2080404,0.0526172,-0.4365122,
 0.845484\PG=C01 [X(Na7)]\\@


 KNOWLEDGE IS CHIMERA - FOR BEYOND IT LIES OTHER KNOWLEDGE,
 AND THE INCOMPLETENESS OF WHAT IS KNOWN RENDERS THE KNOWING FALSE.
     -- THE THOMAS COVENANT CHRONICLES
 Job cpu time:       0 days  0 hours  4 minutes 49.1 seconds.
 Elapsed time:       0 days  0 hours  0 minutes 23.7 seconds.
 File lengths (MBytes):  RWF=     32 Int=      0 D2E=      0 Chk=      5 Scr=      1
 Normal termination of Gaussian 16 at Mon Nov 13 17:24:38 2023.
