 Entering Gaussian System, Link 0=g16
 Initial command:
 /home/sekinelabo/g16/l1.exe "/home/sekinelabo/g16temp/Gau-4048573.inp" -scrdir="/home/sekinelabo/g16temp/"
 Entering Link 1 = /home/sekinelabo/g16/l1.exe PID=   4048575.
  
 Copyright (c) 1988-2017, Gaussian, Inc.  All Rights Reserved.
  
 This is part of the Gaussian(R) 16 program.  It is based on
 the Gaussian(R) 09 system (copyright 2009, Gaussian, Inc.),
 the Gaussian(R) 03 system (copyright 2003, Gaussian, Inc.),
 the Gaussian(R) 98 system (copyright 1998, Gaussian, Inc.),
 the Gaussian(R) 94 system (copyright 1995, Gaussian, Inc.),
 the Gaussian 92(TM) system (copyright 1992, Gaussian, Inc.),
 the Gaussian 90(TM) system (copyright 1990, Gaussian, Inc.),
 the Gaussian 88(TM) system (copyright 1988, Gaussian, Inc.),
 the Gaussian 86(TM) system (copyright 1986, Carnegie Mellon
 University), and the Gaussian 82(TM) system (copyright 1983,
 Carnegie Mellon University). Gaussian is a federally registered
 trademark of Gaussian, Inc.
  
 This software contains proprietary and confidential information,
 including trade secrets, belonging to Gaussian, Inc.
  
 This software is provided under written license and may be
 used, copied, transmitted, or stored only in accord with that
 written license.
  
 The following legend is applicable only to US Government
 contracts under FAR:
  
                    RESTRICTED RIGHTS LEGEND
  
 Use, reproduction and disclosure by the US Government is
 subject to restrictions as set forth in subparagraphs (a)
 and (c) of the Commercial Computer Software - Restricted
 Rights clause in FAR 52.227-19.
  
 Gaussian, Inc.
 340 Quinnipiac St., Bldg. 40, Wallingford CT 06492
  
  
 ---------------------------------------------------------------
 Warning -- This program may not be used in any manner that
 competes with the business of Gaussian, Inc. or will provide
 assistance to any competitor of Gaussian, Inc.  The licensee
 of this program is prohibited from giving any competitor of
 Gaussian, Inc. access to this program.  By using this program,
 the user acknowledges that Gaussian, Inc. is engaged in the
 business of creating and licensing software in the field of
 computational chemistry and represents and warrants to the
 licensee that it is not a competitor of Gaussian, Inc. and that
 it will not use this program in any manner prohibited above.
 ---------------------------------------------------------------
  

 Cite this work as:
 Gaussian 16, Revision B.01,
 M. J. Frisch, G. W. Trucks, H. B. Schlegel, G. E. Scuseria, 
 M. A. Robb, J. R. Cheeseman, G. Scalmani, V. Barone, 
 G. A. Petersson, H. Nakatsuji, X. Li, M. Caricato, A. V. Marenich, 
 J. Bloino, B. G. Janesko, R. Gomperts, B. Mennucci, H. P. Hratchian, 
 J. V. Ortiz, A. F. Izmaylov, J. L. Sonnenberg, D. Williams-Young, 
 F. Ding, F. Lipparini, F. Egidi, J. Goings, B. Peng, A. Petrone, 
 T. Henderson, D. Ranasinghe, V. G. Zakrzewski, J. Gao, N. Rega, 
 G. Zheng, W. Liang, M. Hada, M. Ehara, K. Toyota, R. Fukuda, 
 J. Hasegawa, M. Ishida, T. Nakajima, Y. Honda, O. Kitao, H. Nakai, 
 T. Vreven, K. Throssell, J. A. Montgomery, Jr., J. E. Peralta, 
 F. Ogliaro, M. J. Bearpark, J. J. Heyd, E. N. Brothers, K. N. Kudin, 
 V. N. Staroverov, T. A. Keith, R. Kobayashi, J. Normand, 
 K. Raghavachari, A. P. Rendell, J. C. Burant, S. S. Iyengar, 
 J. Tomasi, M. Cossi, J. M. Millam, M. Klene, C. Adamo, R. Cammi, 
 J. W. Ochterski, R. L. Martin, K. Morokuma, O. Farkas, 
 J. B. Foresman, and D. J. Fox, Gaussian, Inc., Wallingford CT, 2016.
 
 ******************************************
 Gaussian 16:  ES64L-G16RevB.01 20-Dec-2017
                13-Nov-2023 
 ******************************************
 %mem=14GB
 %chk=checkpoint.chk
 %nprocshared=16
 Will use up to   16 processors via shared memory.
 -------------------------
 #P B3LYP/6-311+g(d) force
 -------------------------
 1/10=7,30=1,38=1/1,3;
 2/12=2,17=6,18=5,40=1/2;
 3/5=4,6=6,7=11,11=2,25=1,30=1,71=1,74=-5/1,2,3;
 4//1;
 5/5=2,38=5/2;
 6/7=2,8=2,9=2,10=2,28=1/1;
 7/29=1/1,2,3,16;
 1/10=7,30=1/3;
 99//99;
 Leave Link    1 at Mon Nov 13 16:23:58 2023, MaxMem=  1879048192 cpu:               0.3 elap:               0.0
 (Enter /home/sekinelabo/g16/l101.exe)
 ------------------------------
 Gaussian input prepared by ASE
 ------------------------------
 Symbolic Z-matrix:
 Charge =  0 Multiplicity = 2
 Na                    4.39271   3.75933   0.61381 
 Na                    0.        2.0358    0. 
 Na                    1.49419   4.43247   1.01429 
 Na                    0.67206   2.25348   2.90905 
 Na                    1.79652   0.        1.27787 
 Na                    4.56472   0.77164   0.40209 
 Na                    6.71354   2.30206   1.82664 
 
 ITRead=  0  0  0  0  0  0  0
 MicOpt= -1 -1 -1 -1 -1 -1 -1
 NAtoms=      7 NQM=        7 NQMF=       0 NMMI=      0 NMMIF=      0
                NMic=       0 NMicF=      0.
                    Isotopes and Nuclear Properties:
 (Nuclear quadrupole moments (NQMom) in fm**2, nuclear magnetic moments (NMagM)
  in nuclear magnetons)

  Atom         1           2           3           4           5           6           7
 IAtWgt=          23          23          23          23          23          23          23
 AtmWgt=  22.9897697  22.9897697  22.9897697  22.9897697  22.9897697  22.9897697  22.9897697
 NucSpn=           3           3           3           3           3           3           3
 AtZEff=  -0.0000000  -0.0000000  -0.0000000  -0.0000000  -0.0000000  -0.0000000  -0.0000000
 NQMom=   10.4000000  10.4000000  10.4000000  10.4000000  10.4000000  10.4000000  10.4000000
 NMagM=    2.2175200   2.2175200   2.2175200   2.2175200   2.2175200   2.2175200   2.2175200
 AtZNuc=  11.0000000  11.0000000  11.0000000  11.0000000  11.0000000  11.0000000  11.0000000
 Leave Link  101 at Mon Nov 13 16:23:58 2023, MaxMem=  1879048192 cpu:               2.7 elap:               0.2
 (Enter /home/sekinelabo/g16/l103.exe)

 GradGradGradGradGradGradGradGradGradGradGradGradGradGradGradGradGradGrad
 Berny optimization.
 Initialization pass.
 Trust Radius=3.00D-01 FncErr=1.00D-07 GrdErr=1.00D-07 EigMax=2.50D+02 EigMin=1.00D-04
 Number of steps in this run=      2 maximum allowed number of steps=      2.
 GradGradGradGradGradGradGradGradGradGradGradGradGradGradGradGradGradGrad

 Leave Link  103 at Mon Nov 13 16:23:58 2023, MaxMem=  1879048192 cpu:               0.2 elap:               0.0
 (Enter /home/sekinelabo/g16/l202.exe)
                          Input orientation:                          
 ---------------------------------------------------------------------
 Center     Atomic      Atomic             Coordinates (Angstroms)
 Number     Number       Type             X           Y           Z
 ---------------------------------------------------------------------
      1         11           0        4.392713    3.759328    0.613810
      2         11           0        0.000000    2.035802    0.000000
      3         11           0        1.494190    4.432474    1.014291
      4         11           0        0.672064    2.253478    2.909046
      5         11           0        1.796518    0.000000    1.277869
      6         11           0        4.564716    0.771640    0.402090
      7         11           0        6.713537    2.302057    1.826640
 ---------------------------------------------------------------------
                    Distance matrix (angstroms):
                    1          2          3          4          5
     1  Na   0.000000
     2  Na   4.758491   0.000000
     3  Na   3.002490   3.000904   0.000000
     4  Na   4.623735   2.993594   3.002335   0.000000
     5  Na   4.616681   3.000819   4.450585   3.000550   0.000000
     6  Na   3.000114   4.753569   4.817118   4.861421   3.004219
     7  Na   2.996801   6.962693   5.695627   6.137863   5.456894
                    6          7
     6  Na   0.000000
     7  Na   2.998158   0.000000
 Stoichiometry    Na7(2)
 Framework group  C1[X(Na7)]
 Deg. of freedom    15
 Full point group                 C1      NOp   1
 Largest Abelian subgroup         C1      NOp   1
 Largest concise Abelian subgroup C1      NOp   1
                         Standard orientation:                         
 ---------------------------------------------------------------------
 Center     Atomic      Atomic             Coordinates (Angstroms)
 Number     Number       Type             X           Y           Z
 ---------------------------------------------------------------------
      1         11           0        1.587894    1.537216   -0.535297
      2         11           0       -2.804820   -0.186309   -1.149107
      3         11           0       -1.310630    2.210363   -0.134816
      4         11           0       -2.132756    0.031367    1.759940
      5         11           0       -1.008302   -2.222111    0.128762
      6         11           0        1.759896   -1.450471   -0.747016
      7         11           0        3.908717    0.079946    0.677534
 ---------------------------------------------------------------------
 Rotational constants (GHZ):           1.0942865           0.5258659           0.4363457
 Leave Link  202 at Mon Nov 13 16:23:58 2023, MaxMem=  1879048192 cpu:               0.0 elap:               0.0
 (Enter /home/sekinelabo/g16/l301.exe)
 Standard basis: 6-311+G(d) (5D, 7F)
 Ernie: Thresh=  0.10000D-02 Tol=  0.10000D-05 Strict=F.
 There are   217 symmetry adapted cartesian basis functions of A   symmetry.
 There are   210 symmetry adapted basis functions of A   symmetry.
   210 basis functions,   350 primitive gaussians,   217 cartesian basis functions
    39 alpha electrons       38 beta electrons
       nuclear repulsion energy       351.5332432788 Hartrees.
 IExCor=  402 DFT=T Ex+Corr=B3LYP ExCW=0 ScaHFX=  0.200000
 ScaDFX=  0.800000  0.720000  1.000000  0.810000 ScalE2=  1.000000  1.000000
 IRadAn=      5 IRanWt=     -1 IRanGd=            0 ICorTp=0 IEmpDi=  4
 NAtoms=    7 NActive=    7 NUniq=    7 SFac= 1.00D+00 NAtFMM=   60 NAOKFM=F Big=F
 Integral buffers will be    131072 words long.
 Raffenetti 2 integral format.
 Two-electron integral symmetry is turned on.
 Leave Link  301 at Mon Nov 13 16:23:58 2023, MaxMem=  1879048192 cpu:               0.5 elap:               0.0
 (Enter /home/sekinelabo/g16/l302.exe)
 NPDir=0 NMtPBC=     1 NCelOv=     1 NCel=       1 NClECP=     1 NCelD=      1
         NCelK=      1 NCelE2=     1 NClLst=     1 CellRange=     0.0.
 One-electron integrals computed using PRISM.
 One-electron integral symmetry used in STVInt
 NBasis=   210 RedAO= T EigKep=  2.38D-06  NBF=   210
 NBsUse=   210 1.00D-06 EigRej= -1.00D+00 NBFU=   210
 Precomputing XC quadrature grid using
 IXCGrd= 4 IRadAn=           5 IRanWt=          -1 IRanGd=           0 AccXCQ= 0.00D+00.
 Generated NRdTot=       0 NPtTot=           0 NUsed=           0 NTot=          32
 NSgBfM=   208   208   208   208   208 MxSgAt=     7 MxSgA2=     7.
 Leave Link  302 at Mon Nov 13 16:23:58 2023, MaxMem=  1879048192 cpu:               2.2 elap:               0.1
 (Enter /home/sekinelabo/g16/l303.exe)
 DipDrv:  MaxL=1.
 Leave Link  303 at Mon Nov 13 16:23:58 2023, MaxMem=  1879048192 cpu:               0.6 elap:               0.0
 (Enter /home/sekinelabo/g16/l401.exe)
 ExpMin= 7.60D-03 ExpMax= 3.62D+04 ExpMxC= 1.21D+03 IAcc=3 IRadAn=         5 AccDes= 0.00D+00
 Harris functional with IExCor=  402 and IRadAn=       5 diagonalized for initial guess.
 HarFok:  IExCor=  402 AccDes= 0.00D+00 IRadAn=         5 IDoV= 1 UseB2=F ITyADJ=14
 ICtDFT=  3500011 ScaDFX=  1.000000  1.000000  1.000000  1.000000
 FoFCou: FMM=F IPFlag=           0 FMFlag=      100000 FMFlg1=           0
         NFxFlg=           0 DoJE=T BraDBF=F KetDBF=T FulRan=T
         wScrn=  0.000000 ICntrl=       500 IOpCl=  0 I1Cent=   200000004 NGrid=           0
         NMat0=    1 NMatS0=      1 NMatT0=    0 NMatD0=    1 NMtDS0=    0 NMtDT0=    0
 Petite list used in FoFCou.
 Harris En= -1135.86899068036    
 JPrj=0 DoOrth=F DoCkMO=F.
 Initial guess <Sx>= 0.0000 <Sy>= 0.0000 <Sz>= 0.5000 <S**2>= 0.7500 S= 0.5000
 Leave Link  401 at Mon Nov 13 16:23:59 2023, MaxMem=  1879048192 cpu:               4.7 elap:               0.3
 (Enter /home/sekinelabo/g16/l502.exe)
 Keep R1 and R2 ints in memory in canonical form, NReq=507620346.
 FoFCou: FMM=F IPFlag=           0 FMFlag=           0 FMFlg1=           0
         NFxFlg=           0 DoJE=F BraDBF=F KetDBF=F FulRan=T
         wScrn=  0.000000 ICntrl=       600 IOpCl=  0 I1Cent=           0 NGrid=           0
         NMat0=    1 NMatS0=  22155 NMatT0=    0 NMatD0=    1 NMtDS0=    0 NMtDT0=    0
 Symmetry not used in FoFCou.
 Two-electron integral symmetry not used.
 UHF open shell SCF:
 Using DIIS extrapolation, IDIIS=  1040.
 NGot=  1879048192 LenX=  1388082390 LenY=  1388034860
 Requested convergence on RMS density matrix=1.00D-08 within 128 cycles.
 Requested convergence on MAX density matrix=1.00D-06.
 Requested convergence on             energy=1.00D-06.
 No special actions if energy rises.

 Cycle   1  Pass 1  IDiag  1:
 E= -1136.06618588126    
 DIIS: error= 1.04D-02 at cycle   1 NSaved=   1.
 NSaved= 1 IEnMin= 1 EnMin= -1136.06618588126     IErMin= 1 ErrMin= 1.04D-02
 ErrMax= 1.04D-02  0.00D+00 EMaxC= 1.00D-01 BMatC= 1.92D-01 BMatP= 1.92D-01
 IDIUse=3 WtCom= 8.96D-01 WtEn= 1.04D-01
 Coeff-Com:  0.100D+01
 Coeff-En:   0.100D+01
 Coeff:      0.100D+01
 Gap=     0.029 Goal=   None    Shift=    0.000
 Gap=     0.045 Goal=   None    Shift=    0.000
 GapD=    0.029 DampG=0.250 DampE=0.500 DampFc=0.2500 IDamp=-1.
 Damping current iteration by 2.50D-01
 RMSDP=3.13D-02 MaxDP=2.44D+00              OVMax= 2.07D-01

 Cycle   2  Pass 1  IDiag  1:
 E= -1136.07724119688     Delta-E=       -0.011055315618 Rises=F Damp=T
 DIIS: error= 7.32D-03 at cycle   2 NSaved=   2.
 NSaved= 2 IEnMin= 2 EnMin= -1136.07724119688     IErMin= 2 ErrMin= 7.32D-03
 ErrMax= 7.32D-03  0.00D+00 EMaxC= 1.00D-01 BMatC= 7.35D-02 BMatP= 1.92D-01
 IDIUse=3 WtCom= 9.27D-01 WtEn= 7.32D-02
 Coeff-Com: -0.129D+01 0.229D+01
 Coeff-En:   0.000D+00 0.100D+01
 Coeff:     -0.119D+01 0.219D+01
 Gap=     0.032 Goal=   None    Shift=    0.000
 Gap=     0.054 Goal=   None    Shift=    0.000
 RMSDP=1.95D-02 MaxDP=1.95D+00 DE=-1.11D-02 OVMax= 2.06D-01

 Cycle   3  Pass 1  IDiag  1:
 E= -1136.09561909625     Delta-E=       -0.018377899372 Rises=F Damp=F
 DIIS: error= 2.76D-03 at cycle   3 NSaved=   3.
 NSaved= 3 IEnMin= 3 EnMin= -1136.09561909625     IErMin= 3 ErrMin= 2.76D-03
 ErrMax= 2.76D-03  0.00D+00 EMaxC= 1.00D-01 BMatC= 2.73D-03 BMatP= 7.35D-02
 IDIUse=3 WtCom= 9.72D-01 WtEn= 2.76D-02
 Coeff-Com: -0.211D+00 0.372D+00 0.839D+00
 Coeff-En:   0.000D+00 0.000D+00 0.100D+01
 Coeff:     -0.206D+00 0.362D+00 0.844D+00
 Gap=     0.031 Goal=   None    Shift=    0.000
 Gap=     0.053 Goal=   None    Shift=    0.000
 RMSDP=5.34D-03 MaxDP=3.53D-01 DE=-1.84D-02 OVMax= 1.63D-01

 Cycle   4  Pass 1  IDiag  1:
 E= -1136.09048938446     Delta-E=        0.005129711794 Rises=F Damp=F
 DIIS: error= 5.98D-03 at cycle   4 NSaved=   4.
 NSaved= 4 IEnMin= 3 EnMin= -1136.09561909625     IErMin= 3 ErrMin= 2.76D-03
 ErrMax= 5.98D-03  0.00D+00 EMaxC= 1.00D-01 BMatC= 6.57D-03 BMatP= 2.73D-03
 IDIUse=3 WtCom= 1.15D-01 WtEn= 8.85D-01
 Coeff-Com: -0.156D-01 0.279D-01 0.607D+00 0.381D+00
 Coeff-En:   0.000D+00 0.000D+00 0.684D+00 0.316D+00
 Coeff:     -0.179D-02 0.319D-02 0.675D+00 0.324D+00
 Gap=     0.031 Goal=   None    Shift=    0.000
 Gap=     0.048 Goal=   None    Shift=    0.000
 RMSDP=2.75D-03 MaxDP=1.78D-01 DE= 5.13D-03 OVMax= 1.02D-01

 Cycle   5  Pass 1  IDiag  1:
 E= -1136.09838545358     Delta-E=       -0.007896069117 Rises=F Damp=F
 DIIS: error= 1.04D-03 at cycle   5 NSaved=   5.
 NSaved= 5 IEnMin= 5 EnMin= -1136.09838545358     IErMin= 5 ErrMin= 1.04D-03
 ErrMax= 1.04D-03  0.00D+00 EMaxC= 1.00D-01 BMatC= 3.18D-04 BMatP= 2.73D-03
 IDIUse=3 WtCom= 9.90D-01 WtEn= 1.04D-02
 Coeff-Com:  0.115D-02-0.216D-02 0.351D+00 0.143D+00 0.507D+00
 Coeff-En:   0.000D+00 0.000D+00 0.153D-01 0.000D+00 0.985D+00
 Coeff:      0.114D-02-0.213D-02 0.348D+00 0.142D+00 0.512D+00
 Gap=     0.031 Goal=   None    Shift=    0.000
 Gap=     0.049 Goal=   None    Shift=    0.000
 RMSDP=1.74D-03 MaxDP=2.00D-01 DE=-7.90D-03 OVMax= 1.55D-02

 Cycle   6  Pass 1  IDiag  1:
 E= -1136.09862849183     Delta-E=       -0.000243038251 Rises=F Damp=F
 DIIS: error= 1.32D-04 at cycle   6 NSaved=   6.
 NSaved= 6 IEnMin= 6 EnMin= -1136.09862849183     IErMin= 6 ErrMin= 1.32D-04
 ErrMax= 1.32D-04  0.00D+00 EMaxC= 1.00D-01 BMatC= 5.38D-06 BMatP= 3.18D-04
 IDIUse=3 WtCom= 9.99D-01 WtEn= 1.32D-03
 Coeff-Com: -0.873D-03 0.659D-03-0.258D-01-0.384D-01 0.820D-01 0.982D+00
 Coeff-En:   0.000D+00 0.000D+00 0.000D+00 0.000D+00 0.000D+00 0.100D+01
 Coeff:     -0.872D-03 0.659D-03-0.258D-01-0.384D-01 0.819D-01 0.982D+00
 Gap=     0.032 Goal=   None    Shift=    0.000
 Gap=     0.049 Goal=   None    Shift=    0.000
 RMSDP=3.93D-04 MaxDP=3.33D-02 DE=-2.43D-04 OVMax= 4.90D-03

 Cycle   7  Pass 1  IDiag  1:
 E= -1136.09863847239     Delta-E=       -0.000009980566 Rises=F Damp=F
 DIIS: error= 5.13D-05 at cycle   7 NSaved=   7.
 NSaved= 7 IEnMin= 7 EnMin= -1136.09863847239     IErMin= 7 ErrMin= 5.13D-05
 ErrMax= 5.13D-05  0.00D+00 EMaxC= 1.00D-01 BMatC= 6.42D-07 BMatP= 5.38D-06
 IDIUse=1 WtCom= 1.00D+00 WtEn= 0.00D+00
 Coeff-Com: -0.387D-03 0.338D-03-0.306D-01-0.215D-01-0.545D-02 0.308D+00
 Coeff-Com:  0.749D+00
 Coeff:     -0.387D-03 0.338D-03-0.306D-01-0.215D-01-0.545D-02 0.308D+00
 Coeff:      0.749D+00
 Gap=     0.032 Goal=   None    Shift=    0.000
 Gap=     0.049 Goal=   None    Shift=    0.000
 RMSDP=1.93D-04 MaxDP=2.11D-02 DE=-9.98D-06 OVMax= 2.47D-03

 Cycle   8  Pass 1  IDiag  1:
 E= -1136.09863979272     Delta-E=       -0.000001320331 Rises=F Damp=F
 DIIS: error= 3.40D-05 at cycle   8 NSaved=   8.
 NSaved= 8 IEnMin= 8 EnMin= -1136.09863979272     IErMin= 8 ErrMin= 3.40D-05
 ErrMax= 3.40D-05  0.00D+00 EMaxC= 1.00D-01 BMatC= 2.61D-07 BMatP= 6.42D-07
 IDIUse=1 WtCom= 1.00D+00 WtEn= 0.00D+00
 Coeff-Com:  0.340D-03-0.439D-03-0.682D-02 0.134D-02-0.263D-01-0.150D+00
 Coeff-Com:  0.381D+00 0.801D+00
 Coeff:      0.340D-03-0.439D-03-0.682D-02 0.134D-02-0.263D-01-0.150D+00
 Coeff:      0.381D+00 0.801D+00
 Gap=     0.032 Goal=   None    Shift=    0.000
 Gap=     0.049 Goal=   None    Shift=    0.000
 RMSDP=9.63D-05 MaxDP=7.06D-03 DE=-1.32D-06 OVMax= 2.03D-03

 Cycle   9  Pass 1  IDiag  1:
 E= -1136.09864056063     Delta-E=       -0.000000767902 Rises=F Damp=F
 DIIS: error= 1.39D-05 at cycle   9 NSaved=   9.
 NSaved= 9 IEnMin= 9 EnMin= -1136.09864056063     IErMin= 9 ErrMin= 1.39D-05
 ErrMax= 1.39D-05  0.00D+00 EMaxC= 1.00D-01 BMatC= 3.80D-08 BMatP= 2.61D-07
 IDIUse=1 WtCom= 1.00D+00 WtEn= 0.00D+00
 Coeff-Com:  0.354D-03-0.456D-03 0.110D-02 0.218D-02-0.697D-02-0.795D-01
 Coeff-Com:  0.215D-01 0.205D+00 0.856D+00
 Coeff:      0.354D-03-0.456D-03 0.110D-02 0.218D-02-0.697D-02-0.795D-01
 Coeff:      0.215D-01 0.205D+00 0.856D+00
 Gap=     0.032 Goal=   None    Shift=    0.000
 Gap=     0.049 Goal=   None    Shift=    0.000
 RMSDP=4.04D-05 MaxDP=1.94D-03 DE=-7.68D-07 OVMax= 1.42D-03

 Cycle  10  Pass 1  IDiag  1:
 E= -1136.09864082908     Delta-E=       -0.000000268449 Rises=F Damp=F
 DIIS: error= 1.02D-05 at cycle  10 NSaved=  10.
 NSaved=10 IEnMin=10 EnMin= -1136.09864082908     IErMin=10 ErrMin= 1.02D-05
 ErrMax= 1.02D-05  0.00D+00 EMaxC= 1.00D-01 BMatC= 2.10D-08 BMatP= 3.80D-08
 IDIUse=1 WtCom= 1.00D+00 WtEn= 0.00D+00
 Coeff-Com:  0.532D-04-0.697D-04 0.346D-02 0.550D-03 0.573D-02 0.591D-02
 Coeff-Com: -0.954D-01-0.169D+00 0.278D+00 0.971D+00
 Coeff:      0.532D-04-0.697D-04 0.346D-02 0.550D-03 0.573D-02 0.591D-02
 Coeff:     -0.954D-01-0.169D+00 0.278D+00 0.971D+00
 Gap=     0.032 Goal=   None    Shift=    0.000
 Gap=     0.049 Goal=   None    Shift=    0.000
 RMSDP=4.57D-05 MaxDP=3.50D-03 DE=-2.68D-07 OVMax= 1.51D-03

 Cycle  11  Pass 1  IDiag  1:
 E= -1136.09864103845     Delta-E=       -0.000000209373 Rises=F Damp=F
 DIIS: error= 7.59D-06 at cycle  11 NSaved=  11.
 NSaved=11 IEnMin=11 EnMin= -1136.09864103845     IErMin=11 ErrMin= 7.59D-06
 ErrMax= 7.59D-06  0.00D+00 EMaxC= 1.00D-01 BMatC= 1.49D-08 BMatP= 2.10D-08
 IDIUse=1 WtCom= 1.00D+00 WtEn= 0.00D+00
 Coeff-Com: -0.142D-03 0.180D-03 0.256D-02-0.611D-03 0.799D-02 0.384D-01
 Coeff-Com: -0.692D-01-0.228D+00-0.254D+00 0.678D+00 0.824D+00
 Coeff:     -0.142D-03 0.180D-03 0.256D-02-0.611D-03 0.799D-02 0.384D-01
 Coeff:     -0.692D-01-0.228D+00-0.254D+00 0.678D+00 0.824D+00
 Gap=     0.032 Goal=   None    Shift=    0.000
 Gap=     0.049 Goal=   None    Shift=    0.000
 RMSDP=5.56D-05 MaxDP=4.42D-03 DE=-2.09D-07 OVMax= 1.44D-03

 Cycle  12  Pass 1  IDiag  1:
 E= -1136.09864118871     Delta-E=       -0.000000150263 Rises=F Damp=F
 DIIS: error= 4.71D-06 at cycle  12 NSaved=  12.
 NSaved=12 IEnMin=12 EnMin= -1136.09864118871     IErMin=12 ErrMin= 4.71D-06
 ErrMax= 4.71D-06  0.00D+00 EMaxC= 1.00D-01 BMatC= 5.53D-09 BMatP= 1.49D-08
 IDIUse=1 WtCom= 1.00D+00 WtEn= 0.00D+00
 Coeff-Com: -0.856D-04 0.103D-03-0.122D-02-0.879D-03-0.230D-03 0.114D-01
 Coeff-Com:  0.513D-01 0.136D-01-0.343D+00-0.489D+00 0.384D+00 0.137D+01
 Coeff:     -0.856D-04 0.103D-03-0.122D-02-0.879D-03-0.230D-03 0.114D-01
 Coeff:      0.513D-01 0.136D-01-0.343D+00-0.489D+00 0.384D+00 0.137D+01
 Gap=     0.032 Goal=   None    Shift=    0.000
 Gap=     0.049 Goal=   None    Shift=    0.000
 RMSDP=7.17D-05 MaxDP=5.56D-03 DE=-1.50D-07 OVMax= 1.93D-03

 Cycle  13  Pass 1  IDiag  1:
 E= -1136.09864129551     Delta-E=       -0.000000106803 Rises=F Damp=F
 DIIS: error= 1.54D-06 at cycle  13 NSaved=  13.
 NSaved=13 IEnMin=13 EnMin= -1136.09864129551     IErMin=13 ErrMin= 1.54D-06
 ErrMax= 1.54D-06  0.00D+00 EMaxC= 1.00D-01 BMatC= 7.91D-10 BMatP= 5.53D-09
 IDIUse=1 WtCom= 1.00D+00 WtEn= 0.00D+00
 Coeff-Com:  0.697D-04-0.911D-04-0.712D-03 0.314D-03-0.287D-02-0.163D-01
 Coeff-Com:  0.286D-01 0.774D-01 0.411D-01-0.225D+00-0.184D+00 0.592D-01
 Coeff-Com:  0.122D+01
 Coeff:      0.697D-04-0.911D-04-0.712D-03 0.314D-03-0.287D-02-0.163D-01
 Coeff:      0.286D-01 0.774D-01 0.411D-01-0.225D+00-0.184D+00 0.592D-01
 Coeff:      0.122D+01
 Gap=     0.032 Goal=   None    Shift=    0.000
 Gap=     0.049 Goal=   None    Shift=    0.000
 RMSDP=2.48D-05 MaxDP=1.50D-03 DE=-1.07D-07 OVMax= 6.42D-04

 Cycle  14  Pass 1  IDiag  1:
 E= -1136.09864130896     Delta-E=       -0.000000013442 Rises=F Damp=F
 DIIS: error= 7.36D-07 at cycle  14 NSaved=  14.
 NSaved=14 IEnMin=14 EnMin= -1136.09864130896     IErMin=14 ErrMin= 7.36D-07
 ErrMax= 7.36D-07  0.00D+00 EMaxC= 1.00D-01 BMatC= 2.15D-10 BMatP= 7.91D-10
 IDIUse=1 WtCom= 1.00D+00 WtEn= 0.00D+00
 Coeff-Com:  0.206D-04-0.253D-04 0.776D-04 0.150D-03-0.107D-03-0.226D-02
 Coeff-Com: -0.957D-02-0.117D-02 0.718D-01 0.118D+00-0.914D-01-0.353D+00
 Coeff-Com:  0.214D+00 0.105D+01
 Coeff:      0.206D-04-0.253D-04 0.776D-04 0.150D-03-0.107D-03-0.226D-02
 Coeff:     -0.957D-02-0.117D-02 0.718D-01 0.118D+00-0.914D-01-0.353D+00
 Coeff:      0.214D+00 0.105D+01
 Gap=     0.032 Goal=   None    Shift=    0.000
 Gap=     0.049 Goal=   None    Shift=    0.000
 RMSDP=5.70D-06 MaxDP=3.30D-04 DE=-1.34D-08 OVMax= 1.34D-04

 Cycle  15  Pass 1  IDiag  1:
 E= -1136.09864131078     Delta-E=       -0.000000001822 Rises=F Damp=F
 DIIS: error= 4.11D-07 at cycle  15 NSaved=  15.
 NSaved=15 IEnMin=15 EnMin= -1136.09864131078     IErMin=15 ErrMin= 4.11D-07
 ErrMax= 4.11D-07  0.00D+00 EMaxC= 1.00D-01 BMatC= 5.42D-11 BMatP= 2.15D-10
 IDIUse=1 WtCom= 1.00D+00 WtEn= 0.00D+00
 Coeff-Com: -0.146D-04 0.196D-04 0.159D-03-0.179D-04 0.413D-03 0.240D-02
 Coeff-Com: -0.500D-02-0.105D-01 0.264D-05 0.220D-01 0.325D-01 0.858D-02
 Coeff-Com: -0.254D+00-0.468D-01 0.125D+01
 Coeff:     -0.146D-04 0.196D-04 0.159D-03-0.179D-04 0.413D-03 0.240D-02
 Coeff:     -0.500D-02-0.105D-01 0.264D-05 0.220D-01 0.325D-01 0.858D-02
 Coeff:     -0.254D+00-0.468D-01 0.125D+01
 Gap=     0.032 Goal=   None    Shift=    0.000
 Gap=     0.049 Goal=   None    Shift=    0.000
 RMSDP=2.63D-06 MaxDP=1.46D-04 DE=-1.82D-09 OVMax= 7.63D-05

 Cycle  16  Pass 1  IDiag  1:
 E= -1136.09864131153     Delta-E=       -0.000000000754 Rises=F Damp=F
 DIIS: error= 2.66D-07 at cycle  16 NSaved=  16.
 NSaved=16 IEnMin=16 EnMin= -1136.09864131153     IErMin=16 ErrMin= 2.66D-07
 ErrMax= 2.66D-07  0.00D+00 EMaxC= 1.00D-01 BMatC= 2.51D-11 BMatP= 5.42D-11
 IDIUse=1 WtCom= 1.00D+00 WtEn= 0.00D+00
 Coeff-Com: -0.950D-05 0.120D-04-0.108D-03-0.695D-04 0.295D-04 0.105D-02
 Coeff-Com:  0.355D-02 0.205D-02-0.252D-01-0.451D-01 0.277D-01 0.116D+00
 Coeff-Com: -0.217D-02-0.284D+00-0.518D+00 0.172D+01
 Coeff:     -0.950D-05 0.120D-04-0.108D-03-0.695D-04 0.295D-04 0.105D-02
 Coeff:      0.355D-02 0.205D-02-0.252D-01-0.451D-01 0.277D-01 0.116D+00
 Coeff:     -0.217D-02-0.284D+00-0.518D+00 0.172D+01
 Gap=     0.032 Goal=   None    Shift=    0.000
 Gap=     0.049 Goal=   None    Shift=    0.000
 RMSDP=2.78D-06 MaxDP=1.72D-04 DE=-7.54D-10 OVMax= 7.61D-05

 Cycle  17  Pass 1  IDiag  1:
 E= -1136.09864131203     Delta-E=       -0.000000000502 Rises=F Damp=F
 DIIS: error= 1.89D-07 at cycle  17 NSaved=  17.
 NSaved=17 IEnMin=17 EnMin= -1136.09864131203     IErMin=17 ErrMin= 1.89D-07
 ErrMax= 1.89D-07  0.00D+00 EMaxC= 1.00D-01 BMatC= 9.95D-12 BMatP= 2.51D-11
 IDIUse=1 WtCom= 1.00D+00 WtEn= 0.00D+00
 Coeff-Com:  0.110D-04-0.144D-04-0.108D-03 0.261D-04-0.320D-03-0.125D-02
 Coeff-Com:  0.179D-02 0.565D-02 0.622D-02-0.599D-02-0.238D-01-0.261D-01
 Coeff-Com:  0.133D+00 0.282D-01-0.472D+00-0.130D+00 0.148D+01
 Coeff:      0.110D-04-0.144D-04-0.108D-03 0.261D-04-0.320D-03-0.125D-02
 Coeff:      0.179D-02 0.565D-02 0.622D-02-0.599D-02-0.238D-01-0.261D-01
 Coeff:      0.133D+00 0.282D-01-0.472D+00-0.130D+00 0.148D+01
 Gap=     0.032 Goal=   None    Shift=    0.000
 Gap=     0.049 Goal=   None    Shift=    0.000
 RMSDP=2.17D-06 MaxDP=1.50D-04 DE=-5.02D-10 OVMax= 5.45D-05

 Cycle  18  Pass 1  IDiag  1:
 E= -1136.09864131223     Delta-E=       -0.000000000198 Rises=F Damp=F
 DIIS: error= 6.85D-08 at cycle  18 NSaved=  18.
 NSaved=18 IEnMin=18 EnMin= -1136.09864131223     IErMin=18 ErrMin= 6.85D-08
 ErrMax= 6.85D-08  0.00D+00 EMaxC= 1.00D-01 BMatC= 2.88D-12 BMatP= 9.95D-12
 IDIUse=1 WtCom= 1.00D+00 WtEn= 0.00D+00
 Coeff-Com:  0.386D-05-0.475D-05 0.191D-04 0.193D-04-0.403D-04-0.307D-03
 Coeff-Com: -0.142D-02 0.110D-03 0.965D-02 0.145D-01-0.124D-01-0.411D-01
 Coeff-Com:  0.750D-02 0.102D+00 0.232D+00-0.803D+00 0.192D+00 0.130D+01
 Coeff:      0.386D-05-0.475D-05 0.191D-04 0.193D-04-0.403D-04-0.307D-03
 Coeff:     -0.142D-02 0.110D-03 0.965D-02 0.145D-01-0.124D-01-0.411D-01
 Coeff:      0.750D-02 0.102D+00 0.232D+00-0.803D+00 0.192D+00 0.130D+01
 Gap=     0.032 Goal=   None    Shift=    0.000
 Gap=     0.049 Goal=   None    Shift=    0.000
 RMSDP=1.48D-06 MaxDP=1.10D-04 DE=-1.98D-10 OVMax= 3.43D-05

 Cycle  19  Pass 1  IDiag  1:
 E= -1136.09864131231     Delta-E=       -0.000000000076 Rises=F Damp=F
 DIIS: error= 4.38D-08 at cycle  19 NSaved=  19.
 NSaved=19 IEnMin=19 EnMin= -1136.09864131231     IErMin=19 ErrMin= 4.38D-08
 ErrMax= 4.38D-08  0.00D+00 EMaxC= 1.00D-01 BMatC= 6.28D-13 BMatP= 2.88D-12
 IDIUse=1 WtCom= 1.00D+00 WtEn= 0.00D+00
 Coeff-Com: -0.429D-05 0.563D-05 0.247D-04-0.800D-05 0.967D-04 0.463D-03
 Coeff-Com: -0.483D-03-0.163D-02-0.198D-02-0.970D-03 0.685D-02 0.150D-01
 Coeff-Com: -0.412D-01-0.137D-01 0.131D+00 0.221D-01-0.380D+00 0.122D-01
 Coeff-Com:  0.125D+01
 Coeff:     -0.429D-05 0.563D-05 0.247D-04-0.800D-05 0.967D-04 0.463D-03
 Coeff:     -0.483D-03-0.163D-02-0.198D-02-0.970D-03 0.685D-02 0.150D-01
 Coeff:     -0.412D-01-0.137D-01 0.131D+00 0.221D-01-0.380D+00 0.122D-01
 Coeff:      0.125D+01
 Gap=     0.032 Goal=   None    Shift=    0.000
 Gap=     0.049 Goal=   None    Shift=    0.000
 RMSDP=6.50D-07 MaxDP=4.12D-05 DE=-7.59D-11 OVMax= 1.55D-05

 Cycle  20  Pass 1  IDiag  1:
 E= -1136.09864131230     Delta-E=        0.000000000010 Rises=F Damp=F
 DIIS: error= 1.69D-08 at cycle  20 NSaved=  20.
 NSaved=20 IEnMin=19 EnMin= -1136.09864131231     IErMin=20 ErrMin= 1.69D-08
 ErrMax= 1.69D-08  0.00D+00 EMaxC= 1.00D-01 BMatC= 8.47D-14 BMatP= 6.28D-13
 IDIUse=1 WtCom= 1.00D+00 WtEn= 0.00D+00
 Coeff-Com: -0.399D-06 0.488D-06-0.222D-05-0.755D-06 0.137D-05-0.173D-05
 Coeff-Com:  0.269D-03 0.769D-05-0.148D-02-0.116D-02 0.104D-02 0.397D-02
 Coeff-Com:  0.303D-02-0.137D-01-0.645D-01 0.167D+00-0.939D-02-0.303D+00
 Coeff-Com:  0.521D-01 0.117D+01
 Coeff:     -0.399D-06 0.488D-06-0.222D-05-0.755D-06 0.137D-05-0.173D-05
 Coeff:      0.269D-03 0.769D-05-0.148D-02-0.116D-02 0.104D-02 0.397D-02
 Coeff:      0.303D-02-0.137D-01-0.645D-01 0.167D+00-0.939D-02-0.303D+00
 Coeff:      0.521D-01 0.117D+01
 Gap=     0.032 Goal=   None    Shift=    0.000
 Gap=     0.049 Goal=   None    Shift=    0.000
 RMSDP=1.79D-07 MaxDP=1.21D-05 DE= 9.55D-12 OVMax= 3.04D-06

 Cycle  21  Pass 1  IDiag  1:
 E= -1136.09864131230     Delta-E=       -0.000000000001 Rises=F Damp=F
 DIIS: error= 5.00D-09 at cycle  21 NSaved=  20.
 NSaved=20 IEnMin=18 EnMin= -1136.09864131231     IErMin=20 ErrMin= 5.00D-09
 ErrMax= 5.00D-09  0.00D+00 EMaxC= 1.00D-01 BMatC= 1.02D-14 BMatP= 8.47D-14
 IDIUse=1 WtCom= 1.00D+00 WtEn= 0.00D+00
 Coeff-Com:  0.312D-07-0.780D-06-0.319D-06-0.186D-05-0.481D-05 0.128D-04
 Coeff-Com:  0.486D-04-0.185D-03-0.156D-04-0.932D-04 0.145D-04 0.178D-02
 Coeff-Com: -0.248D-02-0.109D-01 0.206D-01 0.128D-01-0.232D-01-0.107D+00
 Coeff-Com:  0.920D-01 0.102D+01
 Coeff:      0.312D-07-0.780D-06-0.319D-06-0.186D-05-0.481D-05 0.128D-04
 Coeff:      0.486D-04-0.185D-03-0.156D-04-0.932D-04 0.145D-04 0.178D-02
 Coeff:     -0.248D-02-0.109D-01 0.206D-01 0.128D-01-0.232D-01-0.107D+00
 Coeff:      0.920D-01 0.102D+01
 Gap=     0.032 Goal=   None    Shift=    0.000
 Gap=     0.049 Goal=   None    Shift=    0.000
 RMSDP=4.16D-08 MaxDP=2.54D-06 DE=-9.09D-13 OVMax= 7.40D-07

 Cycle  22  Pass 1  IDiag  1:
 E= -1136.09864131232     Delta-E=       -0.000000000018 Rises=F Damp=F
 DIIS: error= 2.13D-09 at cycle  22 NSaved=  20.
 NSaved=20 IEnMin=20 EnMin= -1136.09864131232     IErMin=20 ErrMin= 2.13D-09
 ErrMax= 2.13D-09  0.00D+00 EMaxC= 1.00D-01 BMatC= 2.40D-15 BMatP= 1.02D-14
 IDIUse=1 WtCom= 1.00D+00 WtEn= 0.00D+00
 Large coefficients: NSaved= 20 BigCof=    0.00 CofMax=   10.00 Det=-6.30D-15
 Inversion failed.  Reducing to 19 matrices.
 Large coefficients: NSaved= 19 BigCof=    0.00 CofMax=   10.00 Det=-6.34D-15
 Inversion failed.  Reducing to 18 matrices.
 Large coefficients: NSaved= 18 BigCof=    0.00 CofMax=   10.00 Det=-6.45D-15
 Inversion failed.  Reducing to 17 matrices.
 Large coefficients: NSaved= 17 BigCof=    0.00 CofMax=   10.00 Det=-6.87D-15
 Inversion failed.  Reducing to 16 matrices.
 Large coefficients: NSaved= 16 BigCof=    0.00 CofMax=   10.00 Det=-6.95D-15
 Inversion failed.  Reducing to 15 matrices.
 Coeff-Com:  0.204D-04-0.559D-06-0.321D-04-0.639D-04 0.541D-04 0.332D-03
 Coeff-Com:  0.271D-03 0.703D-03-0.713D-02 0.158D-02 0.262D-01-0.334D-01
 Coeff-Com: -0.131D+00 0.206D+00 0.937D+00
 Coeff:      0.204D-04-0.559D-06-0.321D-04-0.639D-04 0.541D-04 0.332D-03
 Coeff:      0.271D-03 0.703D-03-0.713D-02 0.158D-02 0.262D-01-0.334D-01
 Coeff:     -0.131D+00 0.206D+00 0.937D+00
 Gap=     0.032 Goal=   None    Shift=    0.000
 Gap=     0.049 Goal=   None    Shift=    0.000
 RMSDP=2.65D-08 MaxDP=1.67D-06 DE=-1.77D-11 OVMax= 4.93D-07

 Cycle  23  Pass 1  IDiag  1:
 E= -1136.09864131231     Delta-E=        0.000000000012 Rises=F Damp=F
 DIIS: error= 1.93D-09 at cycle  23 NSaved=  16.
 NSaved=16 IEnMin=15 EnMin= -1136.09864131232     IErMin=16 ErrMin= 1.93D-09
 ErrMax= 1.93D-09  0.00D+00 EMaxC= 1.00D-01 BMatC= 8.90D-16 BMatP= 2.40D-15
 IDIUse=1 WtCom= 1.00D+00 WtEn= 0.00D+00
 Large coefficients: NSaved= 16 BigCof=    0.00 CofMax=   10.00 Det=-1.73D-15
 Inversion failed.  Reducing to 15 matrices.
 Coeff-Com:  0.411D-04-0.366D-05-0.758D-04-0.656D-04-0.141D-03 0.726D-03
 Coeff-Com:  0.285D-02-0.840D-02 0.727D-03 0.149D-01 0.145D-01-0.729D-01
 Coeff-Com: -0.144D+00 0.297D+00 0.895D+00
 Coeff:      0.411D-04-0.366D-05-0.758D-04-0.656D-04-0.141D-03 0.726D-03
 Coeff:      0.285D-02-0.840D-02 0.727D-03 0.149D-01 0.145D-01-0.729D-01
 Coeff:     -0.144D+00 0.297D+00 0.895D+00
 Gap=     0.032 Goal=   None    Shift=    0.000
 Gap=     0.049 Goal=   None    Shift=    0.000
 RMSDP=1.39D-08 MaxDP=8.80D-07 DE= 1.18D-11 OVMax= 3.15D-07

 Cycle  24  Pass 1  IDiag  1:
 E= -1136.09864131230     Delta-E=        0.000000000003 Rises=F Damp=F
 DIIS: error= 1.35D-09 at cycle  24 NSaved=  16.
 NSaved=16 IEnMin=14 EnMin= -1136.09864131232     IErMin=16 ErrMin= 1.35D-09
 ErrMax= 1.35D-09  0.00D+00 EMaxC= 1.00D-01 BMatC= 3.40D-16 BMatP= 8.90D-16
 IDIUse=1 WtCom= 1.00D+00 WtEn= 0.00D+00
 Large coefficients: NSaved= 16 BigCof=    0.00 CofMax=   10.00 Det=-6.63D-16
 Inversion failed.  Reducing to 15 matrices.
 Coeff-Com: -0.176D-04 0.295D-04 0.109D-03-0.410D-03 0.198D-04 0.204D-02
 Coeff-Com: -0.206D-02-0.258D-02 0.154D-02 0.163D-01-0.110D-01-0.111D+00
 Coeff-Com: -0.532D-01 0.445D+00 0.715D+00
 Coeff:     -0.176D-04 0.295D-04 0.109D-03-0.410D-03 0.198D-04 0.204D-02
 Coeff:     -0.206D-02-0.258D-02 0.154D-02 0.163D-01-0.110D-01-0.111D+00
 Coeff:     -0.532D-01 0.445D+00 0.715D+00
 Gap=     0.032 Goal=   None    Shift=    0.000
 Gap=     0.049 Goal=   None    Shift=    0.000
 RMSDP=4.36D-09 MaxDP=5.10D-07 DE= 3.18D-12 OVMax= 1.26D-07

 SCF Done:  E(UB3LYP) =  -1136.09864131     A.U. after   24 cycles
            NFock= 24  Conv=0.44D-08     -V/T= 2.0026
 <Sx>= 0.0000 <Sy>= 0.0000 <Sz>= 0.5000 <S**2>= 0.7622 S= 0.5061
 <L.S>= 0.000000000000E+00
 KE= 1.133188207030D+03 PE=-3.432292399011D+03 EE= 8.114723073894D+02
 Annihilation of the first spin contaminant:
 S**2 before annihilation     0.7622,   after     0.7501
 Leave Link  502 at Mon Nov 13 16:24:18 2023, MaxMem=  1879048192 cpu:             229.7 elap:              19.6
 (Enter /home/sekinelabo/g16/l601.exe)
 Copying SCF densities to generalized density rwf, IOpCl= 1 IROHF=0.

 **********************************************************************

            Population analysis using the SCF Density.

 **********************************************************************

 Orbital symmetries:
 Alpha Orbitals:
       Occupied  (A) (A) (A) (A) (A) (A) (A) (A) (A) (A) (A) (A)
                 (A) (A) (A) (A) (A) (A) (A) (A) (A) (A) (A) (A)
                 (A) (A) (A) (A) (A) (A) (A) (A) (A) (A) (A) (A)
                 (A) (A) (A)
       Virtual   (A) (A) (A) (A) (A) (A) (A) (A) (A) (A) (A) (A)
                 (A) (A) (A) (A) (A) (A) (A) (A) (A) (A) (A) (A)
                 (A) (A) (A) (A) (A) (A) (A) (A) (A) (A) (A) (A)
                 (A) (A) (A) (A) (A) (A) (A) (A) (A) (A) (A) (A)
                 (A) (A) (A) (A) (A) (A) (A) (A) (A) (A) (A) (A)
                 (A) (A) (A) (A) (A) (A) (A) (A) (A) (A) (A) (A)
                 (A) (A) (A) (A) (A) (A) (A) (A) (A) (A) (A) (A)
                 (A) (A) (A) (A) (A) (A) (A) (A) (A) (A) (A) (A)
                 (A) (A) (A) (A) (A) (A) (A) (A) (A) (A) (A) (A)
                 (A) (A) (A) (A) (A) (A) (A) (A) (A) (A) (A) (A)
                 (A) (A) (A) (A) (A) (A) (A) (A) (A) (A) (A) (A)
                 (A) (A) (A) (A) (A) (A) (A) (A) (A) (A) (A) (A)
                 (A) (A) (A) (A) (A) (A) (A) (A) (A) (A) (A) (A)
                 (A) (A) (A) (A) (A) (A) (A) (A) (A) (A) (A) (A)
                 (A) (A) (A)
 Beta  Orbitals:
       Occupied  (A) (A) (A) (A) (A) (A) (A) (A) (A) (A) (A) (A)
                 (A) (A) (A) (A) (A) (A) (A) (A) (A) (A) (A) (A)
                 (A) (A) (A) (A) (A) (A) (A) (A) (A) (A) (A) (A)
                 (A) (A)
       Virtual   (A) (A) (A) (A) (A) (A) (A) (A) (A) (A) (A) (A)
                 (A) (A) (A) (A) (A) (A) (A) (A) (A) (A) (A) (A)
                 (A) (A) (A) (A) (A) (A) (A) (A) (A) (A) (A) (A)
                 (A) (A) (A) (A) (A) (A) (A) (A) (A) (A) (A) (A)
                 (A) (A) (A) (A) (A) (A) (A) (A) (A) (A) (A) (A)
                 (A) (A) (A) (A) (A) (A) (A) (A) (A) (A) (A) (A)
                 (A) (A) (A) (A) (A) (A) (A) (A) (A) (A) (A) (A)
                 (A) (A) (A) (A) (A) (A) (A) (A) (A) (A) (A) (A)
                 (A) (A) (A) (A) (A) (A) (A) (A) (A) (A) (A) (A)
                 (A) (A) (A) (A) (A) (A) (A) (A) (A) (A) (A) (A)
                 (A) (A) (A) (A) (A) (A) (A) (A) (A) (A) (A) (A)
                 (A) (A) (A) (A) (A) (A) (A) (A) (A) (A) (A) (A)
                 (A) (A) (A) (A) (A) (A) (A) (A) (A) (A) (A) (A)
                 (A) (A) (A) (A) (A) (A) (A) (A) (A) (A) (A) (A)
                 (A) (A) (A) (A)
 The electronic state is 2-A.
 Alpha  occ. eigenvalues --  -38.45808 -38.44997 -38.44148 -38.43993 -38.43929
 Alpha  occ. eigenvalues --  -38.43058 -38.43050  -2.21771  -2.20899  -2.20159
 Alpha  occ. eigenvalues --   -2.19966  -2.19897  -2.19037  -2.19026  -1.15491
 Alpha  occ. eigenvalues --   -1.15435  -1.15403  -1.14601  -1.14560  -1.14514
 Alpha  occ. eigenvalues --   -1.13840  -1.13805  -1.13781  -1.13746  -1.13659
 Alpha  occ. eigenvalues --   -1.13598  -1.13587  -1.13532  -1.13481  -1.12707
 Alpha  occ. eigenvalues --   -1.12700  -1.12697  -1.12687  -1.12671  -1.12665
 Alpha  occ. eigenvalues --   -0.19149  -0.15224  -0.12100  -0.10370
 Alpha virt. eigenvalues --   -0.07174  -0.05392  -0.04316  -0.03781  -0.02512
 Alpha virt. eigenvalues --   -0.02355  -0.01906  -0.00941  -0.00432  -0.00115
 Alpha virt. eigenvalues --   -0.00037   0.00187   0.00399   0.00705   0.00797
 Alpha virt. eigenvalues --    0.00863   0.01038   0.01173   0.01267   0.01505
 Alpha virt. eigenvalues --    0.01593   0.01719   0.01807   0.02013   0.02114
 Alpha virt. eigenvalues --    0.02248   0.02293   0.02349   0.02643   0.02679
 Alpha virt. eigenvalues --    0.02730   0.02813   0.02895   0.02968   0.03041
 Alpha virt. eigenvalues --    0.03157   0.03233   0.03276   0.03487   0.03909
 Alpha virt. eigenvalues --    0.04058   0.04178   0.04277   0.04695   0.04987
 Alpha virt. eigenvalues --    0.05538   0.05591   0.05829   0.06033   0.06045
 Alpha virt. eigenvalues --    0.06417   0.06537   0.06636   0.06823   0.07107
 Alpha virt. eigenvalues --    0.07319   0.07645   0.07819   0.08105   0.08816
 Alpha virt. eigenvalues --    0.09043   0.09292   0.09579   0.10988   0.11049
 Alpha virt. eigenvalues --    0.11336   0.11841   0.12195   0.12957   0.13484
 Alpha virt. eigenvalues --    0.13949   0.13994   0.14270   0.14545   0.14688
 Alpha virt. eigenvalues --    0.15762   0.16131   0.16894   0.17632   0.18053
 Alpha virt. eigenvalues --    0.24961   0.25870   0.27182   0.28285   0.28879
 Alpha virt. eigenvalues --    0.29303   0.30018   0.30822   0.31755   0.32169
 Alpha virt. eigenvalues --    0.32781   0.35145   0.35346   0.37019   0.37514
 Alpha virt. eigenvalues --    0.38411   0.39155   0.40724   0.41157   0.41523
 Alpha virt. eigenvalues --    0.41680   0.42999   0.44153   0.44502   0.44905
 Alpha virt. eigenvalues --    0.45131   0.45439   0.45688   0.46731   0.47046
 Alpha virt. eigenvalues --    0.47903   0.48037   0.48308   0.48554   0.49126
 Alpha virt. eigenvalues --    0.50538   0.51202   0.51714   0.51971   0.52988
 Alpha virt. eigenvalues --    0.53363   0.53857   0.54952   0.56647   0.58932
 Alpha virt. eigenvalues --    0.60378   0.65290   0.65793   0.66486   0.71142
 Alpha virt. eigenvalues --    0.71490   0.73289   0.73433   0.74632   0.77492
 Alpha virt. eigenvalues --    0.81898   2.08196   2.13177   2.17504   2.19324
 Alpha virt. eigenvalues --    2.21116   2.28395   2.29445   4.40026   4.40803
 Alpha virt. eigenvalues --    4.41192   4.41731   4.42860   4.42983   4.44080
 Alpha virt. eigenvalues --    4.44595   4.44881   4.46022   4.48131   4.52737
 Alpha virt. eigenvalues --    4.54460   4.60958   4.62423   4.64239   4.68784
 Alpha virt. eigenvalues --    4.69990   4.71375   4.73432   4.78662  96.28686
 Alpha virt. eigenvalues --   96.35334  96.41294  96.43785  96.46680  96.55921
 Alpha virt. eigenvalues --   96.56783
  Beta  occ. eigenvalues --  -38.45798 -38.44960 -38.44071 -38.43973 -38.43913
  Beta  occ. eigenvalues --  -38.43044 -38.43034  -2.21757  -2.20828  -2.20016
  Beta  occ. eigenvalues --   -2.19935  -2.19874  -2.19016  -2.19004  -1.15483
  Beta  occ. eigenvalues --   -1.15431  -1.15350  -1.14559  -1.14511  -1.14464
  Beta  occ. eigenvalues --   -1.13750  -1.13730  -1.13704  -1.13682  -1.13636
  Beta  occ. eigenvalues --   -1.13564  -1.13545  -1.13488  -1.13468  -1.12701
  Beta  occ. eigenvalues --   -1.12691  -1.12689  -1.12678  -1.12608  -1.12597
  Beta  occ. eigenvalues --   -0.18512  -0.14856  -0.11784
  Beta virt. eigenvalues --   -0.06885  -0.06731  -0.05306  -0.03818  -0.03596
  Beta virt. eigenvalues --   -0.02332  -0.01755  -0.01167  -0.00824  -0.00090
  Beta virt. eigenvalues --   -0.00032   0.00020   0.00277   0.00606   0.00786
  Beta virt. eigenvalues --    0.00838   0.00926   0.01165   0.01224   0.01365
  Beta virt. eigenvalues --    0.01645   0.01732   0.01775   0.01929   0.02061
  Beta virt. eigenvalues --    0.02256   0.02302   0.02346   0.02467   0.02664
  Beta virt. eigenvalues --    0.02754   0.02771   0.02871   0.02974   0.03040
  Beta virt. eigenvalues --    0.03146   0.03210   0.03271   0.03377   0.03608
  Beta virt. eigenvalues --    0.03935   0.04231   0.04261   0.04367   0.04800
  Beta virt. eigenvalues --    0.05150   0.05620   0.05683   0.05930   0.06089
  Beta virt. eigenvalues --    0.06176   0.06447   0.06596   0.06791   0.06998
  Beta virt. eigenvalues --    0.07177   0.07382   0.07832   0.07930   0.08282
  Beta virt. eigenvalues --    0.08961   0.09255   0.09461   0.09642   0.11285
  Beta virt. eigenvalues --    0.11360   0.11641   0.12040   0.12385   0.13148
  Beta virt. eigenvalues --    0.13658   0.14144   0.14171   0.14525   0.14602
  Beta virt. eigenvalues --    0.14856   0.15991   0.16378   0.17135   0.17879
  Beta virt. eigenvalues --    0.18227   0.25020   0.26094   0.27305   0.28507
  Beta virt. eigenvalues --    0.29113   0.29604   0.30366   0.30933   0.32059
  Beta virt. eigenvalues --    0.32407   0.33026   0.35240   0.35711   0.37315
  Beta virt. eigenvalues --    0.37734   0.38652   0.39421   0.41108   0.41533
  Beta virt. eigenvalues --    0.41721   0.41984   0.43239   0.44290   0.44692
  Beta virt. eigenvalues --    0.44983   0.45238   0.45604   0.45863   0.46895
  Beta virt. eigenvalues --    0.47214   0.48046   0.48266   0.48456   0.48761
  Beta virt. eigenvalues --    0.49245   0.50690   0.51340   0.51896   0.52186
  Beta virt. eigenvalues --    0.53142   0.53544   0.53967   0.55115   0.56831
  Beta virt. eigenvalues --    0.59092   0.60427   0.65332   0.65828   0.66689
  Beta virt. eigenvalues --    0.71358   0.71693   0.73387   0.73505   0.74809
  Beta virt. eigenvalues --    0.77503   0.81918   2.08279   2.13310   2.17565
  Beta virt. eigenvalues --    2.19410   2.21343   2.28482   2.29488   4.40070
  Beta virt. eigenvalues --    4.40831   4.41260   4.41792   4.42901   4.43038
  Beta virt. eigenvalues --    4.44125   4.44643   4.44918   4.46087   4.48180
  Beta virt. eigenvalues --    4.52826   4.54515   4.60989   4.62481   4.64273
  Beta virt. eigenvalues --    4.68815   4.70005   4.71430   4.73469   4.78690
  Beta virt. eigenvalues --   96.28717  96.35379  96.41313  96.43815  96.46746
  Beta virt. eigenvalues --   96.55950  96.56804
          Condensed to atoms (all electrons):
               1          2          3          4          5          6
     1  Na  13.504693   0.313645  -1.191168   0.175494   0.929173  -1.142605
     2  Na   0.313645  13.842873  -0.199610  -3.526011   0.271822  -0.910319
     3  Na  -1.191168  -0.199610  12.248547  -0.182252  -0.610833   0.771608
     4  Na   0.175494  -3.526011  -0.182252  15.652445  -0.687781   1.532961
     5  Na   0.929173   0.271822  -0.610833  -0.687781  12.444646  -1.515880
     6  Na  -1.142605  -0.910319   0.771608   1.532961  -1.515880  13.296836
     7  Na  -0.894072   0.669948   0.074719  -1.383215  -0.041908  -0.390947
               7
     1  Na  -0.894072
     2  Na   0.669948
     3  Na   0.074719
     4  Na  -1.383215
     5  Na  -0.041908
     6  Na  -0.390947
     7  Na  11.884420
          Atomic-Atomic Spin Densities.
               1          2          3          4          5          6
     1  Na  -0.560534   0.443106   0.262681  -0.492938  -0.038338   0.166532
     2  Na   0.443106   2.172526  -0.164970  -2.259400  -0.400446   0.189641
     3  Na   0.262681  -0.164970   0.086017   0.155338  -0.135686   0.005418
     4  Na  -0.492938  -2.259400   0.155338   2.841169   0.444748  -0.146117
     5  Na  -0.038338  -0.400446  -0.135686   0.444748   0.147244   0.189363
     6  Na   0.166532   0.189641   0.005418  -0.146117   0.189363  -0.527068
     7  Na   0.234325   0.442016  -0.063010  -0.393773  -0.027851  -0.029437
               7
     1  Na   0.234325
     2  Na   0.442016
     3  Na  -0.063010
     4  Na  -0.393773
     5  Na  -0.027851
     6  Na  -0.029437
     7  Na   0.078243
 Mulliken charges and spin densities:
               1          2
     1  Na  -0.695160   0.014833
     2  Na   0.537652   0.422473
     3  Na   0.088989   0.145788
     4  Na  -0.581642   0.149026
     5  Na   0.210760   0.179034
     6  Na  -0.641655  -0.151667
     7  Na   1.081056   0.240513
 Sum of Mulliken charges =  -0.00000   1.00000
 Mulliken charges and spin densities with hydrogens summed into heavy atoms:
               1          2
     1  Na  -0.695160   0.014833
     2  Na   0.537652   0.422473
     3  Na   0.088989   0.145788
     4  Na  -0.581642   0.149026
     5  Na   0.210760   0.179034
     6  Na  -0.641655  -0.151667
     7  Na   1.081056   0.240513
 Electronic spatial extent (au):  <R**2>=           2352.5537
 Charge=             -0.0000 electrons
 Dipole moment (field-independent basis, Debye):
    X=              0.4626    Y=             -0.0627    Z=             -0.2685  Tot=              0.5385
 Quadrupole moment (field-independent basis, Debye-Ang):
   XX=            -53.1113   YY=            -75.5236   ZZ=            -69.6982
   XY=             -0.3154   XZ=              6.4345   YZ=              0.5776
 Traceless Quadrupole moment (field-independent basis, Debye-Ang):
   XX=             12.9998   YY=             -9.4126   ZZ=             -3.5872
   XY=             -0.3154   XZ=              6.4345   YZ=              0.5776
 Octapole moment (field-independent basis, Debye-Ang**2):
  XXX=             25.8169  YYY=              0.6288  ZZZ=              0.4799  XYY=              5.7964
  XXY=             -1.9956  XXZ=            -16.1748  XZZ=             -5.8745  YZZ=             -1.1284
  YYZ=             -1.2851  XYZ=             -0.8025
 Hexadecapole moment (field-independent basis, Debye-Ang**3):
 XXXX=          -1990.4294 YYYY=          -1230.0875 ZZZZ=           -632.4423 XXXY=              3.0222
 XXXZ=            183.5752 YYYX=             -7.6289 YYYZ=             -4.3349 ZZZX=             25.1430
 ZZZY=              7.3320 XXYY=           -606.3761 XXZZ=           -441.3052 YYZZ=           -329.5898
 XXYZ=             12.6280 YYXZ=             -2.5533 ZZXY=             -1.1862
 N-N= 3.515332432788D+02 E-N=-3.432292399000D+03  KE= 1.133188207030D+03
                          Isotropic Fermi Contact Couplings
        Atom                 a.u.       MegaHertz       Gauss      10(-4) cm-1
     1  Na(23)             0.01122      13.26811       4.73439       4.42576
     2  Na(23)            -0.02060     -24.37136      -8.69631      -8.12941
     3  Na(23)             0.00124       1.47070       0.52478       0.49057
     4  Na(23)             0.33555     396.96216     141.64597     132.41232
     5  Na(23)            -0.00417      -4.93436      -1.76070      -1.64593
     6  Na(23)             0.03237      38.29853      13.66587      12.77501
     7  Na(23)             0.16932     200.30605      71.47418      66.81491
 --------------------------------------------------------
       Center         ----  Spin Dipole Couplings  ----
                      3XX-RR        3YY-RR        3ZZ-RR
 --------------------------------------------------------
     1   Atom        0.019008     -0.022623      0.003615
     2   Atom        0.002243     -0.026062      0.023819
     3   Atom       -0.011052     -0.024377      0.035429
     4   Atom        0.003816      0.002095     -0.005910
     5   Atom       -0.012750     -0.027527      0.040277
     6   Atom        0.024618     -0.021446     -0.003172
     7   Atom       -0.002231      0.001116      0.001115
 --------------------------------------------------------
                        XY            XZ            YZ
 --------------------------------------------------------
     1   Atom        0.007014      0.034167      0.002707
     2   Atom        0.001622     -0.035623     -0.002604
     3   Atom       -0.004328     -0.032610      0.002474
     4   Atom       -0.000090     -0.003333     -0.002189
     5   Atom        0.001501     -0.037670      0.002013
     6   Atom       -0.002556      0.028678     -0.000827
     7   Atom       -0.000230     -0.003695     -0.000074
 --------------------------------------------------------


 ---------------------------------------------------------------------------------
              Anisotropic Spin Dipole Couplings in Principal Axis System
 ---------------------------------------------------------------------------------

       Atom             a.u.   MegaHertz   Gauss  10(-4) cm-1        Axes

              Baa    -0.0258    -3.643    -1.300    -1.215 -0.5109  0.6757  0.5313
     1 Na(23) Bbb    -0.0213    -3.004    -1.072    -1.002  0.3637  0.7300 -0.5786
              Bcc     0.0471     6.647     2.372     2.217  0.7789  0.1024  0.6187
 
              Baa    -0.0262    -3.702    -1.321    -1.235  0.0745  0.9917  0.1047
     2 Na(23) Bbb    -0.0242    -3.412    -1.217    -1.138  0.8000 -0.1221  0.5874
              Bcc     0.0504     7.114     2.538     2.373 -0.5953 -0.0400  0.8025
 
              Baa    -0.0294    -4.150    -1.481    -1.384  0.7850  0.4922  0.3762
     3 Na(23) Bbb    -0.0231    -3.258    -1.162    -1.087 -0.4160  0.8688 -0.2686
              Bcc     0.0525     7.408     2.643     2.471 -0.4590  0.0544  0.8868
 
              Baa    -0.0074    -1.047    -0.374    -0.349  0.2793  0.2179  0.9352
     4 Na(23) Bbb     0.0024     0.345     0.123     0.115 -0.2757  0.9511 -0.1393
              Bcc     0.0050     0.702     0.251     0.234  0.9198  0.2189 -0.3257
 
              Baa    -0.0332    -4.689    -1.673    -1.564  0.8224 -0.3706  0.4317
     5 Na(23) Bbb    -0.0266    -3.762    -1.342    -1.255  0.3343  0.9287  0.1603
              Bcc     0.0598     8.451     3.015     2.819 -0.4604  0.0125  0.8876
 
              Baa    -0.0220    -3.112    -1.110    -1.038  0.3425  0.8044 -0.4854
     6 Na(23) Bbb    -0.0207    -2.918    -1.041    -0.973 -0.4068  0.5927  0.6951
              Bcc     0.0427     6.029     2.151     2.011  0.8469 -0.0406  0.5302
 
              Baa    -0.0046    -0.653    -0.233    -0.218  0.8398  0.0407  0.5413
     7 Na(23) Bbb     0.0011     0.159     0.057     0.053 -0.0200  0.9988 -0.0440
              Bcc     0.0035     0.494     0.176     0.165 -0.5425  0.0261  0.8397
 

 ---------------------------------------------------------------------------------

 No NMR shielding tensors so no spin-rotation constants.
 Leave Link  601 at Mon Nov 13 16:24:19 2023, MaxMem=  1879048192 cpu:               2.5 elap:               0.2
 (Enter /home/sekinelabo/g16/l701.exe)
 ... and contract with generalized density number  0.
 Compute integral first derivatives.
 Leave Link  701 at Mon Nov 13 16:24:19 2023, MaxMem=  1879048192 cpu:               1.7 elap:               0.1
 (Enter /home/sekinelabo/g16/l702.exe)
 L702 exits ... SP integral derivatives will be done elsewhere.
 Leave Link  702 at Mon Nov 13 16:24:19 2023, MaxMem=  1879048192 cpu:               0.4 elap:               0.0
 (Enter /home/sekinelabo/g16/l703.exe)
 Integral derivatives from FoFJK, PRISM(SPDF).
 Compute integral first derivatives, UseDBF=F ICtDFT=           0.
 Calling FoFJK, ICntrl=      2127 FMM=F ISym2X=0 I1Cent= 0 IOpClX= 1 NMat=1 NMatS=1 NMatT=0.
 FoFJK:  IHMeth= 1 ICntrl=    2127 DoSepK=F KAlg= 0 I1Cent=           0 FoldK=F
 IRaf=         0 NMat=       1 IRICut=       1 DoRegI=T DoRafI=F ISym2E= 0 IDoP0=0 IntGTp=1.
 FoFCou: FMM=F IPFlag=           0 FMFlag=      100000 FMFlg1=         800
         NFxFlg=           0 DoJE=F BraDBF=F KetDBF=F FulRan=T
         wScrn=  0.000000 ICntrl=      2127 IOpCl=  1 I1Cent=           0 NGrid=           0
         NMat0=    1 NMatS0=      1 NMatT0=    0 NMatD0=    1 NMtDS0=    0 NMtDT0=    0
 Symmetry not used in FoFCou.
 Leave Link  703 at Mon Nov 13 16:24:21 2023, MaxMem=  1879048192 cpu:              35.3 elap:               2.3
 (Enter /home/sekinelabo/g16/l716.exe)
 Dipole        = 1.81989895D-01-2.46791713D-02-1.05635596D-01
 ***** Axes restored to original set *****
 -------------------------------------------------------------------
 Center     Atomic                   Forces (Hartrees/Bohr)
 Number     Number              X              Y              Z
 -------------------------------------------------------------------
      1       11          -0.001573549    0.008179635   -0.003351677
      2       11          -0.003157082   -0.001382765   -0.009391955
      3       11          -0.000407554    0.012981524   -0.001829198
      4       11          -0.002865513    0.000618998    0.014171075
      5       11           0.000861973   -0.012376287    0.000274092
      6       11          -0.001033334   -0.008262551   -0.005810637
      7       11           0.008175060    0.000241444    0.005938300
 -------------------------------------------------------------------
 Cartesian Forces:  Max     0.014171075 RMS     0.006623892
 Z-matrix is all fixed cartesians, so copy forces.
 Force constants in Cartesian coordinates: 
                1             2             3             4             5 
      1  0.880624D-01
      2 -0.747714D-02  0.850890D-01
      3  0.107661D-02 -0.148692D-01  0.402869D-01
      4 -0.176578D-02 -0.597712D-02 -0.272376D-02  0.551924D-01
      5  0.861399D-03  0.301914D-02  0.122167D-02  0.934236D-03  0.614842D-01
      6  0.510993D-03  0.167977D-02  0.960005D-03  0.314043D-01  0.277919D-02
      7 -0.349198D-01  0.151291D-01  0.244866D-02 -0.213804D-01 -0.173700D-01
      8 -0.756072D-02 -0.300393D-01  0.768299D-02 -0.561142D-03 -0.321723D-01
      9  0.748284D-02  0.285895D-02 -0.184990D-01 -0.120344D-01 -0.209524D-01
     10 -0.657182D-03 -0.556878D-02  0.464440D-02 -0.593415D-02 -0.102988D-02
     11  0.328140D-03  0.235257D-02 -0.162368D-02  0.233312D-03 -0.893213D-02
     12  0.648472D-04  0.293505D-03  0.652001D-04  0.656388D-03 -0.221070D-02
     13  0.172134D-02  0.798647D-04 -0.497773D-03 -0.237450D-01  0.178770D-01
     14 -0.718185D-02 -0.594126D-03  0.249627D-02  0.632693D-03 -0.260939D-01
     15 -0.851437D-03 -0.910183D-04  0.580799D-03 -0.139976D-01  0.208433D-01
     16 -0.228379D-01  0.212003D-02  0.237496D-02 -0.236291D-02 -0.126544D-02
     17 -0.295064D-03 -0.426401D-01 -0.103882D-01  0.473367D-02  0.260435D-02
     18  0.144900D-02  0.388591D-02 -0.472255D-02 -0.329960D-02 -0.168445D-02
     19 -0.296030D-01  0.169408D-02 -0.732310D-02 -0.422374D-05 -0.730904D-05
     20  0.213252D-01 -0.171872D-01  0.154801D-01  0.435034D-05  0.907016D-04
     21 -0.973286D-02  0.624204D-02 -0.186714D-01 -0.533458D-05  0.339200D-05
                6             7             8             9            10 
      6  0.766538D-01
      7 -0.545082D-02  0.632201D-01
      8  0.830796D-03  0.154245D-02  0.947822D-01
      9 -0.145237D-01 -0.155074D-02 -0.758237D-02  0.487633D-01
     10 -0.205852D-01 -0.130111D-01  0.867415D-03  0.937648D-02  0.347150D-01
     11 -0.364873D-02 -0.561556D-02 -0.275417D-01  0.277333D-01 -0.227995D-02
     12 -0.466655D-01  0.495415D-02  0.130107D-02 -0.268651D-01 -0.104872D-01
     13 -0.711233D-02  0.427470D-02 -0.442310D-02  0.482196D-03 -0.145705D-01
     14  0.883808D-03  0.599835D-02 -0.709362D-02 -0.471543D-03  0.231843D-02
     15 -0.181711D-01 -0.289071D-03  0.193768D-02  0.486201D-02  0.137300D-01
     16  0.129079D-02  0.178582D-02  0.762589D-02  0.239321D-03 -0.520954D-03
     17 -0.249805D-02  0.171612D-03  0.527287D-03 -0.446988D-04  0.568525D-02
     18  0.183239D-02 -0.226644D-03 -0.121596D-02  0.468406D-03  0.335040D-02
     19 -0.577288D-04  0.306676D-04  0.250921D-02 -0.399564D-02 -0.211464D-04
     20 -0.267813D-04  0.144107D-03  0.153745D-02 -0.154123D-02  0.750832D-05
     21 -0.860002D-04  0.114467D-03 -0.295421D-02  0.579404D-02 -0.288740D-04
               11            12            13            14            15 
     11  0.610890D-01
     12  0.122897D-02  0.974220D-01
     13  0.775317D-02  0.466462D-02  0.642831D-01
     14 -0.304815D-01  0.453285D-03 -0.607202D-02  0.919824D-01
     15 -0.255071D-01 -0.235438D-01 -0.579016D-02  0.678650D-03  0.518753D-01
     16 -0.415208D-03  0.201366D-03 -0.312718D-01  0.650418D-02  0.113232D-01
     17  0.360769D-02 -0.105812D-02 -0.152026D-01 -0.282637D-01  0.169768D-02
     18  0.183706D-02 -0.334704D-03  0.719664D-02 -0.677370D-02 -0.213519D-01
     19 -0.391493D-05 -0.542117D-04 -0.691830D-03 -0.219978D-02 -0.412497D-02
     20 -0.939660D-04 -0.801411D-05 -0.123236D-04  0.544506D-03  0.440806D-03
     21 -0.198178D-04 -0.781600D-04  0.105681D-02  0.273323D-02  0.574863D-02
               16            17            18            19            20 
     16  0.808447D-01
     17  0.679784D-02  0.804973D-01
     18 -0.199856D-02  0.199027D-01  0.447632D-01
     19 -0.256370D-01 -0.189071D-02 -0.647124D-02  0.559266D-01
     20 -0.213673D-01 -0.163327D-01 -0.159516D-01 -0.101576D-03  0.314412D-01
     21 -0.134311D-01 -0.761132D-02 -0.206548D-01  0.220269D-01  0.160668D-02
               21 
     21  0.279477D-01
 Leave Link  716 at Mon Nov 13 16:24:21 2023, MaxMem=  1879048192 cpu:               0.5 elap:               0.0
 (Enter /home/sekinelabo/g16/l103.exe)

 GradGradGradGradGradGradGradGradGradGradGradGradGradGradGradGradGradGrad
 Berny optimization.
 Search for a local minimum.
 Step number   1 out of a maximum of    2
 All quantities printed in internal units (Hartrees-Bohrs-Radians)
 Second derivative matrix not updated -- first step.
 ITU=  0
     Eigenvalues ---    0.01422   0.01562   0.02837   0.05160   0.05556
     Eigenvalues ---    0.06975   0.07945   0.09053   0.10979   0.11318
     Eigenvalues ---    0.11927   0.13184   0.14434   0.15514   0.15733
 Quadratic step=3.441D-01 exceeds max=3.000D-01 adjusted using Lamda=-9.894D-03.
 Angle between NR and scaled steps=   5.17 degrees.
 Angle between quadratic step and forces=  18.07 degrees.
 Linear search not attempted -- first point.
 B after Tr=     0.000000    0.000000    0.000000
         Rot=    1.000000   -0.000000   -0.000000    0.000000 Ang=   0.00 deg.
 Variable       Old X    -DE/DX   Delta X   Delta X   Delta X     New X
                                 (Linear)    (Quad)   (Total)
    X1        8.30103  -0.00157   0.00000   0.02075   0.02075   8.32178
    Y1        7.10410   0.00818   0.00000   0.08648   0.08648   7.19058
    Z1        1.15993  -0.00335   0.00000  -0.04068  -0.04068   1.11925
    X2        0.00000  -0.00316   0.00000  -0.02981  -0.02981  -0.02981
    Y2        3.84711  -0.00138   0.00000  -0.01195  -0.01195   3.83516
    Z2        0.00000  -0.00939   0.00000  -0.06095  -0.06095  -0.06095
    X3        2.82361  -0.00041   0.00000  -0.03664  -0.03664   2.78697
    Y3        8.37616   0.01298   0.00000   0.13714   0.13714   8.51330
    Z3        1.91673  -0.00183   0.00000  -0.00535  -0.00535   1.91138
    X4        1.27002  -0.00287   0.00000  -0.05853  -0.05853   1.21149
    Y4        4.25846   0.00062   0.00000   0.00397   0.00397   4.26242
    Z4        5.49730   0.01417   0.00000   0.10167   0.10167   5.59897
    X5        3.39493   0.00086   0.00000  -0.02053  -0.02053   3.37440
    Y5        0.00000  -0.01238   0.00000  -0.13501  -0.13501  -0.13501
    Z5        2.41482   0.00027   0.00000   0.01368   0.01368   2.42850
    X6        8.62606  -0.00103   0.00000   0.02297   0.02297   8.64903
    Y6        1.45819  -0.00826   0.00000  -0.07981  -0.07981   1.37838
    Z6        0.75984  -0.00581   0.00000  -0.05781  -0.05781   0.70203
    X7       12.68675   0.00818   0.00000   0.10178   0.10178  12.78853
    Y7        4.35026   0.00024   0.00000  -0.00083  -0.00083   4.34943
    Z7        3.45185   0.00594   0.00000   0.04944   0.04944   3.50129
         Item               Value     Threshold  Converged?
 Maximum Force            0.014171     0.000450     NO 
 RMS     Force            0.006624     0.000300     NO 
 Maximum Displacement     0.137142     0.001800     NO 
 RMS     Displacement     0.065519     0.001200     NO 
 Predicted change in Energy=-4.778002D-03
 GradGradGradGradGradGradGradGradGradGradGradGradGradGradGradGradGradGrad

 Leave Link  103 at Mon Nov 13 16:24:21 2023, MaxMem=  1879048192 cpu:               0.3 elap:               0.0
 (Enter /home/sekinelabo/g16/l9999.exe)
 1\1\GINC-SEKINELABO-XA7R-R37\Force\UB3LYP\6-311+G(d)\Na7(2)\SEKINELABO
 \13-Nov-2023\0\\#P B3LYP/6-311+g(d) force\\Gaussian input prepared by 
 ASE\\0,2\Na,4.3927133755,3.7593275472,0.6138097902\Na,0.,2.035802103,0
 .\Na,1.4941902919,4.4324742757,1.0142905402\Na,0.672063958,2.253477914
 9,2.9090462414\Na,1.7965183217,0.,1.2778689958\Na,4.5647159352,0.77164
 01256,0.4020904673\Na,6.71353722,2.3020570251,1.826640149\\Version=ES6
 4L-G16RevB.01\State=2-A\HF=-1136.0986413\S2=0.762209\S2-1=0.\S2A=0.750
 1\RMSD=4.358e-09\RMSF=6.624e-03\Dipole=0.1819899,-0.0246792,-0.1056356
 \Quadrupole=9.6649962,-6.998015,-2.6669812,-0.2345218,4.7838613,0.4294
 286\PG=C01 [X(Na7)]\\@


 A SOLDIER'S LIFE IS A LIFE OF HONOR, BUT A DOG WOULD NOT LEAD IT.
 -- PRINCE RUPERT, FOUNDER OF THE HUDSON'S BAY COMPANY
 Job cpu time:       0 days  0 hours  4 minutes 42.5 seconds.
 Elapsed time:       0 days  0 hours  0 minutes 23.0 seconds.
 File lengths (MBytes):  RWF=     32 Int=      0 D2E=      0 Chk=      5 Scr=      1
 Normal termination of Gaussian 16 at Mon Nov 13 16:24:21 2023.
