 Entering Gaussian System, Link 0=g16
 Initial command:
 /home/sekinelabo/g16/l1.exe "/home/sekinelabo/g16temp/Gau-4022588.inp" -scrdir="/home/sekinelabo/g16temp/"
 Entering Link 1 = /home/sekinelabo/g16/l1.exe PID=   4022590.
  
 Copyright (c) 1988-2017, Gaussian, Inc.  All Rights Reserved.
  
 This is part of the Gaussian(R) 16 program.  It is based on
 the Gaussian(R) 09 system (copyright 2009, Gaussian, Inc.),
 the Gaussian(R) 03 system (copyright 2003, Gaussian, Inc.),
 the Gaussian(R) 98 system (copyright 1998, Gaussian, Inc.),
 the Gaussian(R) 94 system (copyright 1995, Gaussian, Inc.),
 the Gaussian 92(TM) system (copyright 1992, Gaussian, Inc.),
 the Gaussian 90(TM) system (copyright 1990, Gaussian, Inc.),
 the Gaussian 88(TM) system (copyright 1988, Gaussian, Inc.),
 the Gaussian 86(TM) system (copyright 1986, Carnegie Mellon
 University), and the Gaussian 82(TM) system (copyright 1983,
 Carnegie Mellon University). Gaussian is a federally registered
 trademark of Gaussian, Inc.
  
 This software contains proprietary and confidential information,
 including trade secrets, belonging to Gaussian, Inc.
  
 This software is provided under written license and may be
 used, copied, transmitted, or stored only in accord with that
 written license.
  
 The following legend is applicable only to US Government
 contracts under FAR:
  
                    RESTRICTED RIGHTS LEGEND
  
 Use, reproduction and disclosure by the US Government is
 subject to restrictions as set forth in subparagraphs (a)
 and (c) of the Commercial Computer Software - Restricted
 Rights clause in FAR 52.227-19.
  
 Gaussian, Inc.
 340 Quinnipiac St., Bldg. 40, Wallingford CT 06492
  
  
 ---------------------------------------------------------------
 Warning -- This program may not be used in any manner that
 competes with the business of Gaussian, Inc. or will provide
 assistance to any competitor of Gaussian, Inc.  The licensee
 of this program is prohibited from giving any competitor of
 Gaussian, Inc. access to this program.  By using this program,
 the user acknowledges that Gaussian, Inc. is engaged in the
 business of creating and licensing software in the field of
 computational chemistry and represents and warrants to the
 licensee that it is not a competitor of Gaussian, Inc. and that
 it will not use this program in any manner prohibited above.
 ---------------------------------------------------------------
  

 Cite this work as:
 Gaussian 16, Revision B.01,
 M. J. Frisch, G. W. Trucks, H. B. Schlegel, G. E. Scuseria, 
 M. A. Robb, J. R. Cheeseman, G. Scalmani, V. Barone, 
 G. A. Petersson, H. Nakatsuji, X. Li, M. Caricato, A. V. Marenich, 
 J. Bloino, B. G. Janesko, R. Gomperts, B. Mennucci, H. P. Hratchian, 
 J. V. Ortiz, A. F. Izmaylov, J. L. Sonnenberg, D. Williams-Young, 
 F. Ding, F. Lipparini, F. Egidi, J. Goings, B. Peng, A. Petrone, 
 T. Henderson, D. Ranasinghe, V. G. Zakrzewski, J. Gao, N. Rega, 
 G. Zheng, W. Liang, M. Hada, M. Ehara, K. Toyota, R. Fukuda, 
 J. Hasegawa, M. Ishida, T. Nakajima, Y. Honda, O. Kitao, H. Nakai, 
 T. Vreven, K. Throssell, J. A. Montgomery, Jr., J. E. Peralta, 
 F. Ogliaro, M. J. Bearpark, J. J. Heyd, E. N. Brothers, K. N. Kudin, 
 V. N. Staroverov, T. A. Keith, R. Kobayashi, J. Normand, 
 K. Raghavachari, A. P. Rendell, J. C. Burant, S. S. Iyengar, 
 J. Tomasi, M. Cossi, J. M. Millam, M. Klene, C. Adamo, R. Cammi, 
 J. W. Ochterski, R. L. Martin, K. Morokuma, O. Farkas, 
 J. B. Foresman, and D. J. Fox, Gaussian, Inc., Wallingford CT, 2016.
 
 ******************************************
 Gaussian 16:  ES64L-G16RevB.01 20-Dec-2017
                13-Nov-2023 
 ******************************************
 %mem=14GB
 %chk=checkpoint.chk
 %nprocshared=16
 Will use up to   16 processors via shared memory.
 -------------------------
 #P B3LYP/6-311+g(d) force
 -------------------------
 1/10=7,30=1,38=1/1,3;
 2/12=2,17=6,18=5,40=1/2;
 3/5=4,6=6,7=11,11=2,25=1,30=1,71=1,74=-5/1,2,3;
 4//1;
 5/5=2,38=5/2;
 6/7=2,8=2,9=2,10=2,28=1/1;
 7/29=1/1,2,3,16;
 1/10=7,30=1/3;
 99//99;
 Leave Link    1 at Mon Nov 13 15:40:25 2023, MaxMem=  1879048192 cpu:               0.3 elap:               0.0
 (Enter /home/sekinelabo/g16/l101.exe)
 ------------------------------
 Gaussian input prepared by ASE
 ------------------------------
 Symbolic Z-matrix:
 Charge =  0 Multiplicity = 2
 Na                    5.23219   0.        1.47014 
 Na                    7.84477   0.18115   0. 
 Na                    7.80179   0.33081   2.98912 
 Na                    7.9643    2.85268   1.36633 
 Na                    4.96523   2.99344   1.36316 
 Na                    2.6787    1.3131    2.31936 
 Na                    0.        0.98163   1.01975 
 
 ITRead=  0  0  0  0  0  0  0
 MicOpt= -1 -1 -1 -1 -1 -1 -1
 NAtoms=      7 NQM=        7 NQMF=       0 NMMI=      0 NMMIF=      0
                NMic=       0 NMicF=      0.
                    Isotopes and Nuclear Properties:
 (Nuclear quadrupole moments (NQMom) in fm**2, nuclear magnetic moments (NMagM)
  in nuclear magnetons)

  Atom         1           2           3           4           5           6           7
 IAtWgt=          23          23          23          23          23          23          23
 AtmWgt=  22.9897697  22.9897697  22.9897697  22.9897697  22.9897697  22.9897697  22.9897697
 NucSpn=           3           3           3           3           3           3           3
 AtZEff=  -0.0000000  -0.0000000  -0.0000000  -0.0000000  -0.0000000  -0.0000000  -0.0000000
 NQMom=   10.4000000  10.4000000  10.4000000  10.4000000  10.4000000  10.4000000  10.4000000
 NMagM=    2.2175200   2.2175200   2.2175200   2.2175200   2.2175200   2.2175200   2.2175200
 AtZNuc=  11.0000000  11.0000000  11.0000000  11.0000000  11.0000000  11.0000000  11.0000000
 Leave Link  101 at Mon Nov 13 15:40:25 2023, MaxMem=  1879048192 cpu:               2.6 elap:               0.2
 (Enter /home/sekinelabo/g16/l103.exe)

 GradGradGradGradGradGradGradGradGradGradGradGradGradGradGradGradGradGrad
 Berny optimization.
 Initialization pass.
 Trust Radius=3.00D-01 FncErr=1.00D-07 GrdErr=1.00D-07 EigMax=2.50D+02 EigMin=1.00D-04
 Number of steps in this run=      2 maximum allowed number of steps=      2.
 GradGradGradGradGradGradGradGradGradGradGradGradGradGradGradGradGradGrad

 Leave Link  103 at Mon Nov 13 15:40:25 2023, MaxMem=  1879048192 cpu:               0.3 elap:               0.0
 (Enter /home/sekinelabo/g16/l202.exe)
                          Input orientation:                          
 ---------------------------------------------------------------------
 Center     Atomic      Atomic             Coordinates (Angstroms)
 Number     Number       Type             X           Y           Z
 ---------------------------------------------------------------------
      1         11           0        5.232188    0.000000    1.470135
      2         11           0        7.844769    0.181153    0.000000
      3         11           0        7.801794    0.330814    2.989120
      4         11           0        7.964300    2.852677    1.366330
      5         11           0        4.965225    2.993442    1.363161
      6         11           0        2.678698    1.313101    2.319359
      7         11           0        0.000000    0.981626    1.019749
 ---------------------------------------------------------------------
                    Distance matrix (angstroms):
                    1          2          3          4          5
     1  Na   0.000000
     2  Na   3.003281   0.000000
     3  Na   3.003270   2.993173   0.000000
     4  Na   3.951326   3.003030   3.003273   0.000000
     5  Na   3.007226   4.249583   4.216568   3.002378   0.000000
     6  Na   2.994282   5.774861   5.259237   5.587141   2.994339
     7  Na   5.342492   7.951166   8.072791   8.188469   5.368314
                    6          7
     6  Na   0.000000
     7  Na   2.995711   0.000000
 Stoichiometry    Na7(2)
 Framework group  C1[X(Na7)]
 Deg. of freedom    15
 Full point group                 C1      NOp   1
 Largest Abelian subgroup         C1      NOp   1
 Largest concise Abelian subgroup C1      NOp   1
                         Standard orientation:                         
 ---------------------------------------------------------------------
 Center     Atomic      Atomic             Coordinates (Angstroms)
 Number     Number       Type             X           Y           Z
 ---------------------------------------------------------------------
      1         11           0        0.019763   -1.236116   -0.033844
      2         11           0        2.632344   -1.054963   -1.503979
      3         11           0        2.589369   -0.905302    1.485141
      4         11           0        2.751875    1.616561   -0.137649
      5         11           0       -0.247200    1.757326   -0.140818
      6         11           0       -2.533727    0.076984    0.815380
      7         11           0       -5.212425   -0.254490   -0.484231
 ---------------------------------------------------------------------
 Rotational constants (GHZ):           1.5016071           0.3647724           0.3429976
 Leave Link  202 at Mon Nov 13 15:40:25 2023, MaxMem=  1879048192 cpu:               0.1 elap:               0.0
 (Enter /home/sekinelabo/g16/l301.exe)
 Standard basis: 6-311+G(d) (5D, 7F)
 Ernie: Thresh=  0.10000D-02 Tol=  0.10000D-05 Strict=F.
 There are   217 symmetry adapted cartesian basis functions of A   symmetry.
 There are   210 symmetry adapted basis functions of A   symmetry.
   210 basis functions,   350 primitive gaussians,   217 cartesian basis functions
    39 alpha electrons       38 beta electrons
       nuclear repulsion energy       342.3330809682 Hartrees.
 IExCor=  402 DFT=T Ex+Corr=B3LYP ExCW=0 ScaHFX=  0.200000
 ScaDFX=  0.800000  0.720000  1.000000  0.810000 ScalE2=  1.000000  1.000000
 IRadAn=      5 IRanWt=     -1 IRanGd=            0 ICorTp=0 IEmpDi=  4
 NAtoms=    7 NActive=    7 NUniq=    7 SFac= 1.00D+00 NAtFMM=   60 NAOKFM=F Big=F
 Integral buffers will be    131072 words long.
 Raffenetti 2 integral format.
 Two-electron integral symmetry is turned on.
 Leave Link  301 at Mon Nov 13 15:40:25 2023, MaxMem=  1879048192 cpu:               0.5 elap:               0.0
 (Enter /home/sekinelabo/g16/l302.exe)
 NPDir=0 NMtPBC=     1 NCelOv=     1 NCel=       1 NClECP=     1 NCelD=      1
         NCelK=      1 NCelE2=     1 NClLst=     1 CellRange=     0.0.
 One-electron integrals computed using PRISM.
 One-electron integral symmetry used in STVInt
 NBasis=   210 RedAO= T EigKep=  1.39D-06  NBF=   210
 NBsUse=   210 1.00D-06 EigRej= -1.00D+00 NBFU=   210
 Precomputing XC quadrature grid using
 IXCGrd= 4 IRadAn=           5 IRanWt=          -1 IRanGd=           0 AccXCQ= 0.00D+00.
 Generated NRdTot=       0 NPtTot=           0 NUsed=           0 NTot=          32
 NSgBfM=   209   209   209   209   209 MxSgAt=     7 MxSgA2=     7.
 Leave Link  302 at Mon Nov 13 15:40:25 2023, MaxMem=  1879048192 cpu:               2.2 elap:               0.1
 (Enter /home/sekinelabo/g16/l303.exe)
 DipDrv:  MaxL=1.
 Leave Link  303 at Mon Nov 13 15:40:25 2023, MaxMem=  1879048192 cpu:               0.6 elap:               0.0
 (Enter /home/sekinelabo/g16/l401.exe)
 ExpMin= 7.60D-03 ExpMax= 3.62D+04 ExpMxC= 1.21D+03 IAcc=3 IRadAn=         5 AccDes= 0.00D+00
 Harris functional with IExCor=  402 and IRadAn=       5 diagonalized for initial guess.
 HarFok:  IExCor=  402 AccDes= 0.00D+00 IRadAn=         5 IDoV= 1 UseB2=F ITyADJ=14
 ICtDFT=  3500011 ScaDFX=  1.000000  1.000000  1.000000  1.000000
 FoFCou: FMM=F IPFlag=           0 FMFlag=      100000 FMFlg1=           0
         NFxFlg=           0 DoJE=T BraDBF=F KetDBF=T FulRan=T
         wScrn=  0.000000 ICntrl=       500 IOpCl=  0 I1Cent=   200000004 NGrid=           0
         NMat0=    1 NMatS0=      1 NMatT0=    0 NMatD0=    1 NMtDS0=    0 NMtDT0=    0
 Petite list used in FoFCou.
 Harris En= -1135.85974876348    
 JPrj=0 DoOrth=F DoCkMO=F.
 Initial guess <Sx>= 0.0000 <Sy>= 0.0000 <Sz>= 0.5000 <S**2>= 0.7500 S= 0.5000
 Leave Link  401 at Mon Nov 13 15:40:26 2023, MaxMem=  1879048192 cpu:               4.6 elap:               0.3
 (Enter /home/sekinelabo/g16/l502.exe)
 Keep R1 and R2 ints in memory in canonical form, NReq=507620360.
 FoFCou: FMM=F IPFlag=           0 FMFlag=           0 FMFlg1=           0
         NFxFlg=           0 DoJE=F BraDBF=F KetDBF=F FulRan=T
         wScrn=  0.000000 ICntrl=       600 IOpCl=  0 I1Cent=           0 NGrid=           0
         NMat0=    1 NMatS0=  22155 NMatT0=    0 NMatD0=    1 NMtDS0=    0 NMtDT0=    0
 Symmetry not used in FoFCou.
 Two-electron integral symmetry not used.
 UHF open shell SCF:
 Using DIIS extrapolation, IDIIS=  1040.
 NGot=  1879048192 LenX=  1388082376 LenY=  1388034846
 Requested convergence on RMS density matrix=1.00D-08 within 128 cycles.
 Requested convergence on MAX density matrix=1.00D-06.
 Requested convergence on             energy=1.00D-06.
 No special actions if energy rises.

 Cycle   1  Pass 1  IDiag  1:
 E= -1136.05478645382    
 DIIS: error= 9.10D-03 at cycle   1 NSaved=   1.
 NSaved= 1 IEnMin= 1 EnMin= -1136.05478645382     IErMin= 1 ErrMin= 9.10D-03
 ErrMax= 9.10D-03  0.00D+00 EMaxC= 1.00D-01 BMatC= 1.90D-01 BMatP= 1.90D-01
 IDIUse=3 WtCom= 9.09D-01 WtEn= 9.10D-02
 Coeff-Com:  0.100D+01
 Coeff-En:   0.100D+01
 Coeff:      0.100D+01
 Gap=     0.042 Goal=   None    Shift=    0.000
 Gap=     0.019 Goal=   None    Shift=    0.000
 GapD=    0.019 DampG=0.250 DampE=1.000 DampFc=0.2500 IDamp=-1.
 Damping current iteration by 2.50D-01
 RMSDP=6.20D-02 MaxDP=8.27D+00              OVMax= 2.23D-01

 Cycle   2  Pass 1  IDiag  1:
 E= -1136.06563082880     Delta-E=       -0.010844374984 Rises=F Damp=T
 DIIS: error= 6.41D-03 at cycle   2 NSaved=   2.
 NSaved= 2 IEnMin= 2 EnMin= -1136.06563082880     IErMin= 2 ErrMin= 6.41D-03
 ErrMax= 6.41D-03  0.00D+00 EMaxC= 1.00D-01 BMatC= 7.34D-02 BMatP= 1.90D-01
 IDIUse=3 WtCom= 9.36D-01 WtEn= 6.41D-02
 Coeff-Com: -0.129D+01 0.229D+01
 Coeff-En:   0.000D+00 0.100D+01
 Coeff:     -0.121D+01 0.221D+01
 Gap=     0.035 Goal=   None    Shift=    0.000
 Gap=     0.033 Goal=   None    Shift=    0.000
 RMSDP=2.87D-02 MaxDP=3.17D+00 DE=-1.08D-02 OVMax= 2.16D-01

 Cycle   3  Pass 1  IDiag  1:
 E= -1136.08408276202     Delta-E=       -0.018451933216 Rises=F Damp=F
 DIIS: error= 3.35D-03 at cycle   3 NSaved=   3.
 NSaved= 3 IEnMin= 3 EnMin= -1136.08408276202     IErMin= 3 ErrMin= 3.35D-03
 ErrMax= 3.35D-03  0.00D+00 EMaxC= 1.00D-01 BMatC= 3.21D-03 BMatP= 7.34D-02
 IDIUse=3 WtCom= 9.67D-01 WtEn= 3.35D-02
 Coeff-Com: -0.269D+00 0.458D+00 0.810D+00
 Coeff-En:   0.000D+00 0.000D+00 0.100D+01
 Coeff:     -0.260D+00 0.443D+00 0.817D+00
 Gap=     0.043 Goal=   None    Shift=    0.000
 Gap=     0.032 Goal=   None    Shift=    0.000
 RMSDP=1.56D-02 MaxDP=2.33D+00 DE=-1.85D-02 OVMax= 1.22D-01

 Cycle   4  Pass 1  IDiag  1:
 E= -1136.08429334320     Delta-E=       -0.000210581183 Rises=F Damp=F
 DIIS: error= 3.30D-03 at cycle   4 NSaved=   4.
 NSaved= 4 IEnMin= 4 EnMin= -1136.08429334320     IErMin= 4 ErrMin= 3.30D-03
 ErrMax= 3.30D-03  0.00D+00 EMaxC= 1.00D-01 BMatC= 3.29D-03 BMatP= 3.21D-03
 IDIUse=3 WtCom= 9.67D-01 WtEn= 3.30D-02
 Coeff-Com: -0.259D-01 0.359D-01 0.501D+00 0.489D+00
 Coeff-En:   0.000D+00 0.000D+00 0.485D+00 0.515D+00
 Coeff:     -0.250D-01 0.347D-01 0.501D+00 0.490D+00
 Gap=     0.033 Goal=   None    Shift=    0.000
 Gap=     0.030 Goal=   None    Shift=    0.000
 RMSDP=7.70D-03 MaxDP=1.42D+00 DE=-2.11D-04 OVMax= 7.38D-02

 Cycle   5  Pass 1  IDiag  1:
 E= -1136.08715506800     Delta-E=       -0.002861724794 Rises=F Damp=F
 DIIS: error= 3.10D-04 at cycle   5 NSaved=   5.
 NSaved= 5 IEnMin= 5 EnMin= -1136.08715506800     IErMin= 5 ErrMin= 3.10D-04
 ErrMax= 3.10D-04  0.00D+00 EMaxC= 1.00D-01 BMatC= 3.92D-05 BMatP= 3.21D-03
 IDIUse=3 WtCom= 9.97D-01 WtEn= 3.10D-03
 Coeff-Com: -0.885D-02 0.111D-01 0.217D+00 0.217D+00 0.563D+00
 Coeff-En:   0.000D+00 0.000D+00 0.000D+00 0.000D+00 0.100D+01
 Coeff:     -0.882D-02 0.110D-01 0.217D+00 0.216D+00 0.565D+00
 Gap=     0.033 Goal=   None    Shift=    0.000
 Gap=     0.030 Goal=   None    Shift=    0.000
 RMSDP=1.00D-03 MaxDP=1.52D-01 DE=-2.86D-03 OVMax= 1.22D-02

 Cycle   6  Pass 1  IDiag  1:
 E= -1136.08720092599     Delta-E=       -0.000045857998 Rises=F Damp=F
 DIIS: error= 2.05D-04 at cycle   6 NSaved=   6.
 NSaved= 6 IEnMin= 6 EnMin= -1136.08720092599     IErMin= 6 ErrMin= 2.05D-04
 ErrMax= 2.05D-04  0.00D+00 EMaxC= 1.00D-01 BMatC= 1.55D-05 BMatP= 3.92D-05
 IDIUse=3 WtCom= 9.98D-01 WtEn= 2.05D-03
 Coeff-Com:  0.194D-02-0.310D-02-0.671D-01-0.612D-01 0.365D+00 0.764D+00
 Coeff-En:   0.000D+00 0.000D+00 0.000D+00 0.000D+00 0.132D+00 0.868D+00
 Coeff:      0.193D-02-0.310D-02-0.670D-01-0.611D-01 0.365D+00 0.764D+00
 Gap=     0.033 Goal=   None    Shift=    0.000
 Gap=     0.031 Goal=   None    Shift=    0.000
 RMSDP=1.01D-03 MaxDP=1.50D-01 DE=-4.59D-05 OVMax= 1.73D-02

 Cycle   7  Pass 1  IDiag  1:
 E= -1136.08724409876     Delta-E=       -0.000043172768 Rises=F Damp=F
 DIIS: error= 8.75D-05 at cycle   7 NSaved=   7.
 NSaved= 7 IEnMin= 7 EnMin= -1136.08724409876     IErMin= 7 ErrMin= 8.75D-05
 ErrMax= 8.75D-05  0.00D+00 EMaxC= 1.00D-01 BMatC= 3.12D-06 BMatP= 1.55D-05
 IDIUse=1 WtCom= 1.00D+00 WtEn= 0.00D+00
 Coeff-Com:  0.132D-02-0.181D-02-0.628D-01-0.551D-01 0.222D-01 0.335D+00
 Coeff-Com:  0.761D+00
 Coeff:      0.132D-02-0.181D-02-0.628D-01-0.551D-01 0.222D-01 0.335D+00
 Coeff:      0.761D+00
 Gap=     0.033 Goal=   None    Shift=    0.000
 Gap=     0.031 Goal=   None    Shift=    0.000
 RMSDP=5.66D-04 MaxDP=7.34D-02 DE=-4.32D-05 OVMax= 9.80D-03

 Cycle   8  Pass 1  IDiag  1:
 E= -1136.08726511394     Delta-E=       -0.000021015180 Rises=F Damp=F
 DIIS: error= 7.47D-05 at cycle   8 NSaved=   8.
 NSaved= 8 IEnMin= 8 EnMin= -1136.08726511394     IErMin= 8 ErrMin= 7.47D-05
 ErrMax= 7.47D-05  0.00D+00 EMaxC= 1.00D-01 BMatC= 1.64D-06 BMatP= 3.12D-06
 IDIUse=1 WtCom= 1.00D+00 WtEn= 0.00D+00
 Coeff-Com:  0.845D-03-0.107D-02-0.316D-01-0.257D-01-0.517D-01 0.101D+00
 Coeff-Com:  0.401D+00 0.607D+00
 Coeff:      0.845D-03-0.107D-02-0.316D-01-0.257D-01-0.517D-01 0.101D+00
 Coeff:      0.401D+00 0.607D+00
 Gap=     0.033 Goal=   None    Shift=    0.000
 Gap=     0.031 Goal=   None    Shift=    0.000
 RMSDP=3.37D-04 MaxDP=4.97D-02 DE=-2.10D-05 OVMax= 9.14D-03

 Cycle   9  Pass 1  IDiag  1:
 E= -1136.08728174151     Delta-E=       -0.000016627564 Rises=F Damp=F
 DIIS: error= 9.05D-05 at cycle   9 NSaved=   9.
 NSaved= 9 IEnMin= 9 EnMin= -1136.08728174151     IErMin= 8 ErrMin= 7.47D-05
 ErrMax= 9.05D-05  0.00D+00 EMaxC= 1.00D-01 BMatC= 1.34D-06 BMatP= 1.64D-06
 IDIUse=1 WtCom= 1.00D+00 WtEn= 0.00D+00
 Coeff-Com:  0.703D-03-0.891D-03-0.213D-01-0.169D-01-0.280D-01 0.778D-01
 Coeff-Com:  0.198D+00 0.370D+00 0.420D+00
 Coeff:      0.703D-03-0.891D-03-0.213D-01-0.169D-01-0.280D-01 0.778D-01
 Coeff:      0.198D+00 0.370D+00 0.420D+00
 Gap=     0.033 Goal=   None    Shift=    0.000
 Gap=     0.031 Goal=   None    Shift=    0.000
 RMSDP=1.54D-04 MaxDP=1.50D-02 DE=-1.66D-05 OVMax= 5.54D-03

 Cycle  10  Pass 1  IDiag  1:
 E= -1136.08729246029     Delta-E=       -0.000010718782 Rises=F Damp=F
 DIIS: error= 9.63D-05 at cycle  10 NSaved=  10.
 NSaved=10 IEnMin=10 EnMin= -1136.08729246029     IErMin= 8 ErrMin= 7.47D-05
 ErrMax= 9.63D-05  0.00D+00 EMaxC= 1.00D-01 BMatC= 1.46D-06 BMatP= 1.34D-06
 IDIUse=1 WtCom= 1.00D+00 WtEn= 0.00D+00
 Coeff-Com:  0.229D-02-0.285D-02 0.162D-01 0.187D-01-0.156D+00-0.255D+00
 Coeff-Com: -0.273D+00 0.149D+01 0.894D+01-0.878D+01
 Coeff:      0.229D-02-0.285D-02 0.162D-01 0.187D-01-0.156D+00-0.255D+00
 Coeff:     -0.273D+00 0.149D+01 0.894D+01-0.878D+01
 Gap=     0.032 Goal=   None    Shift=    0.000
 Gap=     0.031 Goal=   None    Shift=    0.000
 RMSDP=1.15D-03 MaxDP=1.13D-01 DE=-1.07D-05 OVMax= 4.60D-02

 Cycle  11  Pass 1  IDiag  1:
 E= -1136.08722720102     Delta-E=        0.000065259270 Rises=F Damp=F
 DIIS: error= 4.29D-05 at cycle  11 NSaved=  11.
 NSaved=11 IEnMin=10 EnMin= -1136.08729246029     IErMin=11 ErrMin= 4.29D-05
 ErrMax= 4.29D-05  0.00D+00 EMaxC= 1.00D-01 BMatC= 6.29D-07 BMatP= 1.34D-06
 IDIUse=1 WtCom= 1.00D+00 WtEn= 0.00D+00
 Coeff-Com: -0.282D-03 0.531D-03 0.944D-02 0.956D-02-0.150D-01-0.173D-01
 Coeff-Com: -0.343D+00 0.889D-01 0.319D+01-0.316D+01 0.124D+01
 Coeff:     -0.282D-03 0.531D-03 0.944D-02 0.956D-02-0.150D-01-0.173D-01
 Coeff:     -0.343D+00 0.889D-01 0.319D+01-0.316D+01 0.124D+01
 Gap=     0.033 Goal=   None    Shift=    0.000
 Gap=     0.031 Goal=   None    Shift=    0.000
 RMSDP=4.98D-04 MaxDP=4.44D-02 DE= 6.53D-05 OVMax= 1.89D-02

 Cycle  12  Pass 1  IDiag  1:
 E= -1136.08721647072     Delta-E=        0.000010730297 Rises=F Damp=F
 DIIS: error= 3.50D-05 at cycle  12 NSaved=  12.
 NSaved=12 IEnMin=10 EnMin= -1136.08729246029     IErMin=12 ErrMin= 3.50D-05
 ErrMax= 3.50D-05  0.00D+00 EMaxC= 1.00D-01 BMatC= 2.66D-07 BMatP= 6.29D-07
 IDIUse=1 WtCom= 1.00D+00 WtEn= 0.00D+00
 Coeff-Com: -0.128D-02 0.173D-02-0.777D-02-0.710D-02 0.908D-01 0.169D+00
 Coeff-Com: -0.153D+00-0.801D+00-0.275D+01 0.286D+01 0.247D+00 0.135D+01
 Coeff:     -0.128D-02 0.173D-02-0.777D-02-0.710D-02 0.908D-01 0.169D+00
 Coeff:     -0.153D+00-0.801D+00-0.275D+01 0.286D+01 0.247D+00 0.135D+01
 Gap=     0.032 Goal=   None    Shift=    0.000
 Gap=     0.031 Goal=   None    Shift=    0.000
 RMSDP=4.03D-04 MaxDP=4.82D-02 DE= 1.07D-05 OVMax= 1.28D-02

 Cycle  13  Pass 1  IDiag  1:
 E= -1136.08721529354     Delta-E=        0.000001177177 Rises=F Damp=F
 DIIS: error= 2.10D-05 at cycle  13 NSaved=  13.
 NSaved=13 IEnMin=10 EnMin= -1136.08729246029     IErMin=13 ErrMin= 2.10D-05
 ErrMax= 2.10D-05  0.00D+00 EMaxC= 1.00D-01 BMatC= 8.43D-08 BMatP= 2.66D-07
 IDIUse=1 WtCom= 1.00D+00 WtEn= 0.00D+00
 Coeff-Com: -0.321D-03 0.408D-03-0.244D-02-0.135D-02 0.385D-01 0.576D-01
 Coeff-Com: -0.719D-01-0.305D+00-0.131D+01 0.140D+01-0.138D+00 0.535D+00
 Coeff-Com:  0.803D+00
 Coeff:     -0.321D-03 0.408D-03-0.244D-02-0.135D-02 0.385D-01 0.576D-01
 Coeff:     -0.719D-01-0.305D+00-0.131D+01 0.140D+01-0.138D+00 0.535D+00
 Coeff:      0.803D+00
 Gap=     0.032 Goal=   None    Shift=    0.000
 Gap=     0.031 Goal=   None    Shift=    0.000
 RMSDP=1.61D-04 MaxDP=2.10D-02 DE= 1.18D-06 OVMax= 4.40D-03

 Cycle  14  Pass 1  IDiag  1:
 E= -1136.08721563400     Delta-E=       -0.000000340457 Rises=F Damp=F
 DIIS: error= 1.55D-05 at cycle  14 NSaved=  14.
 NSaved=14 IEnMin=10 EnMin= -1136.08729246029     IErMin=14 ErrMin= 1.55D-05
 ErrMax= 1.55D-05  0.00D+00 EMaxC= 1.00D-01 BMatC= 3.46D-08 BMatP= 8.43D-08
 IDIUse=1 WtCom= 1.00D+00 WtEn= 0.00D+00
 Coeff-Com:  0.207D-03-0.282D-03 0.198D-02 0.265D-02-0.928D-02-0.195D-01
 Coeff-Com: -0.438D-01 0.106D+00 0.689D+00-0.656D+00 0.125D-01-0.264D+00
 Coeff-Com:  0.160D+00 0.102D+01
 Coeff:      0.207D-03-0.282D-03 0.198D-02 0.265D-02-0.928D-02-0.195D-01
 Coeff:     -0.438D-01 0.106D+00 0.689D+00-0.656D+00 0.125D-01-0.264D+00
 Coeff:      0.160D+00 0.102D+01
 Gap=     0.032 Goal=   None    Shift=    0.000
 Gap=     0.031 Goal=   None    Shift=    0.000
 RMSDP=7.76D-05 MaxDP=1.01D-02 DE=-3.40D-07 OVMax= 2.19D-03

 Cycle  15  Pass 1  IDiag  1:
 E= -1136.08721589728     Delta-E=       -0.000000263280 Rises=F Damp=F
 DIIS: error= 1.13D-05 at cycle  15 NSaved=  15.
 NSaved=15 IEnMin=10 EnMin= -1136.08729246029     IErMin=15 ErrMin= 1.13D-05
 ErrMax= 1.13D-05  0.00D+00 EMaxC= 1.00D-01 BMatC= 2.29D-08 BMatP= 3.46D-08
 IDIUse=1 WtCom= 1.00D+00 WtEn= 0.00D+00
 Coeff-Com:  0.117D-03-0.146D-03-0.504D-03-0.176D-03-0.202D-01-0.122D-01
 Coeff-Com:  0.214D-01 0.153D+00 0.787D+00-0.780D+00 0.224D-01-0.359D+00
 Coeff-Com: -0.489D+00 0.534D+00 0.114D+01
 Coeff:      0.117D-03-0.146D-03-0.504D-03-0.176D-03-0.202D-01-0.122D-01
 Coeff:      0.214D-01 0.153D+00 0.787D+00-0.780D+00 0.224D-01-0.359D+00
 Coeff:     -0.489D+00 0.534D+00 0.114D+01
 Gap=     0.032 Goal=   None    Shift=    0.000
 Gap=     0.031 Goal=   None    Shift=    0.000
 RMSDP=1.19D-04 MaxDP=1.46D-02 DE=-2.63D-07 OVMax= 2.88D-03

 Cycle  16  Pass 1  IDiag  1:
 E= -1136.08721613816     Delta-E=       -0.000000240882 Rises=F Damp=F
 DIIS: error= 4.71D-06 at cycle  16 NSaved=  16.
 NSaved=16 IEnMin=10 EnMin= -1136.08729246029     IErMin=16 ErrMin= 4.71D-06
 ErrMax= 4.71D-06  0.00D+00 EMaxC= 1.00D-01 BMatC= 3.07D-09 BMatP= 2.29D-08
 IDIUse=1 WtCom= 1.00D+00 WtEn= 0.00D+00
 Coeff-Com:  0.119D-04-0.560D-05 0.244D-03 0.100D-03-0.354D-02-0.464D-02
 Coeff-Com: -0.126D-02 0.279D-01 0.155D+00-0.157D+00-0.847D-02 0.152D-01
 Coeff-Com: -0.300D-01-0.246D+00-0.111D+00 0.136D+01
 Coeff:      0.119D-04-0.560D-05 0.244D-03 0.100D-03-0.354D-02-0.464D-02
 Coeff:     -0.126D-02 0.279D-01 0.155D+00-0.157D+00-0.847D-02 0.152D-01
 Coeff:     -0.300D-01-0.246D+00-0.111D+00 0.136D+01
 Gap=     0.032 Goal=   None    Shift=    0.000
 Gap=     0.031 Goal=   None    Shift=    0.000
 RMSDP=5.57D-05 MaxDP=5.62D-03 DE=-2.41D-07 OVMax= 1.48D-03

 Cycle  17  Pass 1  IDiag  1:
 E= -1136.08721618856     Delta-E=       -0.000000050396 Rises=F Damp=F
 DIIS: error= 1.52D-06 at cycle  17 NSaved=  17.
 NSaved=17 IEnMin=10 EnMin= -1136.08729246029     IErMin=17 ErrMin= 1.52D-06
 ErrMax= 1.52D-06  0.00D+00 EMaxC= 1.00D-01 BMatC= 6.98D-10 BMatP= 3.07D-09
 IDIUse=1 WtCom= 1.00D+00 WtEn= 0.00D+00
 Coeff-Com:  0.107D-04-0.143D-04 0.218D-03 0.183D-03 0.444D-02 0.170D-02
 Coeff-Com: -0.114D-01-0.241D-01-0.133D+00 0.129D+00-0.882D-02 0.936D-01
 Coeff-Com:  0.147D+00-0.140D+00-0.404D+00 0.223D+00 0.112D+01
 Coeff:      0.107D-04-0.143D-04 0.218D-03 0.183D-03 0.444D-02 0.170D-02
 Coeff:     -0.114D-01-0.241D-01-0.133D+00 0.129D+00-0.882D-02 0.936D-01
 Coeff:      0.147D+00-0.140D+00-0.404D+00 0.223D+00 0.112D+01
 Gap=     0.032 Goal=   None    Shift=    0.000
 Gap=     0.031 Goal=   None    Shift=    0.000
 RMSDP=1.93D-05 MaxDP=1.49D-03 DE=-5.04D-08 OVMax= 4.30D-04

 Cycle  18  Pass 1  IDiag  1:
 E= -1136.08721619525     Delta-E=       -0.000000006689 Rises=F Damp=F
 DIIS: error= 4.35D-07 at cycle  18 NSaved=  18.
 NSaved=18 IEnMin=10 EnMin= -1136.08729246029     IErMin=18 ErrMin= 4.35D-07
 ErrMax= 4.35D-07  0.00D+00 EMaxC= 1.00D-01 BMatC= 1.16D-10 BMatP= 6.98D-10
 IDIUse=1 WtCom= 1.00D+00 WtEn= 0.00D+00
 Coeff-Com: -0.304D-06-0.382D-06 0.362D-04 0.417D-04 0.881D-03 0.623D-03
 Coeff-Com: -0.167D-02-0.626D-02-0.383D-01 0.388D-01-0.451D-02 0.125D-01
 Coeff-Com:  0.403D-01 0.249D-01-0.675D-01-0.196D+00 0.187D+00 0.101D+01
 Coeff:     -0.304D-06-0.382D-06 0.362D-04 0.417D-04 0.881D-03 0.623D-03
 Coeff:     -0.167D-02-0.626D-02-0.383D-01 0.388D-01-0.451D-02 0.125D-01
 Coeff:      0.403D-01 0.249D-01-0.675D-01-0.196D+00 0.187D+00 0.101D+01
 Gap=     0.032 Goal=   None    Shift=    0.000
 Gap=     0.031 Goal=   None    Shift=    0.000
 RMSDP=6.33D-06 MaxDP=6.05D-04 DE=-6.69D-09 OVMax= 1.05D-04

 Cycle  19  Pass 1  IDiag  1:
 E= -1136.08721619619     Delta-E=       -0.000000000945 Rises=F Damp=F
 DIIS: error= 2.59D-07 at cycle  19 NSaved=  19.
 NSaved=19 IEnMin=10 EnMin= -1136.08729246029     IErMin=19 ErrMin= 2.59D-07
 ErrMax= 2.59D-07  0.00D+00 EMaxC= 1.00D-01 BMatC= 2.83D-11 BMatP= 1.16D-10
 IDIUse=1 WtCom= 1.00D+00 WtEn= 0.00D+00
 Coeff-Com: -0.845D-05 0.107D-04-0.770D-04-0.603D-04-0.300D-03 0.497D-03
 Coeff-Com:  0.170D-02-0.751D-04 0.900D-03 0.315D-03 0.441D-03-0.933D-02
 Coeff-Com: -0.230D-01 0.235D-01 0.691D-01-0.639D-01-0.212D+00 0.755D-01
 Coeff-Com:  0.114D+01
 Coeff:     -0.845D-05 0.107D-04-0.770D-04-0.603D-04-0.300D-03 0.497D-03
 Coeff:      0.170D-02-0.751D-04 0.900D-03 0.315D-03 0.441D-03-0.933D-02
 Coeff:     -0.230D-01 0.235D-01 0.691D-01-0.639D-01-0.212D+00 0.755D-01
 Coeff:      0.114D+01
 Gap=     0.032 Goal=   None    Shift=    0.000
 Gap=     0.031 Goal=   None    Shift=    0.000
 RMSDP=3.34D-06 MaxDP=2.96D-04 DE=-9.45D-10 OVMax= 6.13D-05

 Cycle  20  Pass 1  IDiag  1:
 E= -1136.08721619649     Delta-E=       -0.000000000299 Rises=F Damp=F
 DIIS: error= 1.50D-07 at cycle  20 NSaved=  20.
 NSaved=20 IEnMin=10 EnMin= -1136.08729246029     IErMin=20 ErrMin= 1.50D-07
 ErrMax= 1.50D-07  0.00D+00 EMaxC= 1.00D-01 BMatC= 8.24D-12 BMatP= 2.83D-11
 IDIUse=1 WtCom= 1.00D+00 WtEn= 0.00D+00
 Coeff-Com: -0.156D-05 0.223D-05 0.941D-05 0.332D-05 0.241D-03 0.127D-03
 Coeff-Com: -0.116D-03-0.192D-02-0.104D-01 0.903D-02 0.261D-02 0.578D-02
 Coeff-Com:  0.204D-03-0.266D-01-0.124D-01 0.948D-01 0.188D-01-0.343D+00
 Coeff-Com: -0.201D+00 0.146D+01
 Coeff:     -0.156D-05 0.223D-05 0.941D-05 0.332D-05 0.241D-03 0.127D-03
 Coeff:     -0.116D-03-0.192D-02-0.104D-01 0.903D-02 0.261D-02 0.578D-02
 Coeff:      0.204D-03-0.266D-01-0.124D-01 0.948D-01 0.188D-01-0.343D+00
 Coeff:     -0.201D+00 0.146D+01
 Gap=     0.032 Goal=   None    Shift=    0.000
 Gap=     0.031 Goal=   None    Shift=    0.000
 RMSDP=1.90D-06 MaxDP=1.59D-04 DE=-2.99D-10 OVMax= 4.33D-05

 Cycle  21  Pass 1  IDiag  1:
 E= -1136.08721619659     Delta-E=       -0.000000000103 Rises=F Damp=F
 DIIS: error= 6.96D-08 at cycle  21 NSaved=  20.
 NSaved=20 IEnMin= 9 EnMin= -1136.08729246029     IErMin=20 ErrMin= 6.96D-08
 ErrMax= 6.96D-08  0.00D+00 EMaxC= 1.00D-01 BMatC= 1.86D-12 BMatP= 8.24D-12
 IDIUse=1 WtCom= 1.00D+00 WtEn= 0.00D+00
 Coeff-Com:  0.403D-06 0.580D-05-0.270D-05 0.214D-03 0.120D-03-0.187D-03
 Coeff-Com: -0.125D-02-0.872D-02 0.834D-02-0.135D-02 0.492D-02 0.855D-02
 Coeff-Com: -0.594D-02-0.223D-01 0.188D-01 0.459D-01-0.276D-01-0.243D+00
 Coeff-Com:  0.469D-01 0.118D+01
 Coeff:      0.403D-06 0.580D-05-0.270D-05 0.214D-03 0.120D-03-0.187D-03
 Coeff:     -0.125D-02-0.872D-02 0.834D-02-0.135D-02 0.492D-02 0.855D-02
 Coeff:     -0.594D-02-0.223D-01 0.188D-01 0.459D-01-0.276D-01-0.243D+00
 Coeff:      0.469D-01 0.118D+01
 Gap=     0.032 Goal=   None    Shift=    0.000
 Gap=     0.031 Goal=   None    Shift=    0.000
 RMSDP=8.07D-07 MaxDP=6.75D-05 DE=-1.03D-10 OVMax= 1.88D-05

 Cycle  22  Pass 1  IDiag  1:
 E= -1136.08721619662     Delta-E=       -0.000000000024 Rises=F Damp=F
 DIIS: error= 2.78D-08 at cycle  22 NSaved=  20.
 NSaved=20 IEnMin= 8 EnMin= -1136.08729246029     IErMin=20 ErrMin= 2.78D-08
 ErrMax= 2.78D-08  0.00D+00 EMaxC= 1.00D-01 BMatC= 3.12D-13 BMatP= 1.86D-12
 IDIUse=1 WtCom= 1.00D+00 WtEn= 0.00D+00
 Coeff-Com: -0.780D-06 0.414D-05-0.483D-04-0.588D-04-0.989D-04 0.502D-03
 Coeff-Com:  0.233D-02-0.220D-02-0.294D-03-0.806D-03 0.908D-03 0.267D-02
 Coeff-Com: -0.124D-03-0.144D-01 0.237D-02 0.526D-01 0.232D-01-0.225D+00
 Coeff-Com: -0.209D+00 0.137D+01
 Coeff:     -0.780D-06 0.414D-05-0.483D-04-0.588D-04-0.989D-04 0.502D-03
 Coeff:      0.233D-02-0.220D-02-0.294D-03-0.806D-03 0.908D-03 0.267D-02
 Coeff:     -0.124D-03-0.144D-01 0.237D-02 0.526D-01 0.232D-01-0.225D+00
 Coeff:     -0.209D+00 0.137D+01
 Gap=     0.032 Goal=   None    Shift=    0.000
 Gap=     0.031 Goal=   None    Shift=    0.000
 RMSDP=5.11D-07 MaxDP=5.71D-05 DE=-2.39D-11 OVMax= 1.15D-05

 Cycle  23  Pass 1  IDiag  1:
 E= -1136.08721619662     Delta-E=       -0.000000000000 Rises=F Damp=F
 DIIS: error= 9.99D-09 at cycle  23 NSaved=  20.
 NSaved=20 IEnMin= 7 EnMin= -1136.08729246029     IErMin=20 ErrMin= 9.99D-09
 ErrMax= 9.99D-09  0.00D+00 EMaxC= 1.00D-01 BMatC= 5.47D-14 BMatP= 3.12D-13
 IDIUse=1 WtCom= 1.00D+00 WtEn= 0.00D+00
 Coeff-Com:  0.696D-06-0.902D-06 0.415D-05-0.725D-06-0.419D-04 0.182D-03
 Coeff-Com: -0.689D-04-0.302D-04-0.148D-03-0.369D-03 0.444D-03 0.180D-02
 Coeff-Com: -0.326D-02-0.433D-02 0.102D-01 0.336D-01-0.366D-01-0.156D+00
 Coeff-Com:  0.827D-01 0.107D+01
 Coeff:      0.696D-06-0.902D-06 0.415D-05-0.725D-06-0.419D-04 0.182D-03
 Coeff:     -0.689D-04-0.302D-04-0.148D-03-0.369D-03 0.444D-03 0.180D-02
 Coeff:     -0.326D-02-0.433D-02 0.102D-01 0.336D-01-0.366D-01-0.156D+00
 Coeff:      0.827D-01 0.107D+01
 Gap=     0.032 Goal=   None    Shift=    0.000
 Gap=     0.031 Goal=   None    Shift=    0.000
 RMSDP=1.62D-07 MaxDP=2.25D-05 DE=-4.55D-13 OVMax= 2.50D-06

 Cycle  24  Pass 1  IDiag  1:
 E= -1136.08721619661     Delta-E=        0.000000000010 Rises=F Damp=F
 DIIS: error= 6.56D-09 at cycle  24 NSaved=  20.
 NSaved=20 IEnMin= 6 EnMin= -1136.08729246029     IErMin=20 ErrMin= 6.56D-09
 ErrMax= 6.56D-09  0.00D+00 EMaxC= 1.00D-01 BMatC= 1.64D-14 BMatP= 5.47D-14
 IDIUse=1 WtCom= 1.00D+00 WtEn= 0.00D+00
 Coeff-Com:  0.472D-06 0.867D-05 0.272D-04-0.385D-04-0.200D-03 0.183D-03
 Coeff-Com:  0.136D-03-0.133D-03-0.583D-03 0.830D-04 0.162D-02-0.177D-03
 Coeff-Com: -0.301D-02-0.316D-02 0.172D-01 0.203D-01-0.562D-01-0.183D+00
 Coeff-Com:  0.342D+00 0.865D+00
 Coeff:      0.472D-06 0.867D-05 0.272D-04-0.385D-04-0.200D-03 0.183D-03
 Coeff:      0.136D-03-0.133D-03-0.583D-03 0.830D-04 0.162D-02-0.177D-03
 Coeff:     -0.301D-02-0.316D-02 0.172D-01 0.203D-01-0.562D-01-0.183D+00
 Coeff:      0.342D+00 0.865D+00
 Gap=     0.032 Goal=   None    Shift=    0.000
 Gap=     0.031 Goal=   None    Shift=    0.000
 RMSDP=8.04D-08 MaxDP=9.95D-06 DE= 9.55D-12 OVMax= 8.16D-07

 Cycle  25  Pass 1  IDiag  1:
 E= -1136.08721619663     Delta-E=       -0.000000000021 Rises=F Damp=F
 DIIS: error= 2.37D-09 at cycle  25 NSaved=  20.
 NSaved=20 IEnMin= 5 EnMin= -1136.08729246029     IErMin=20 ErrMin= 2.37D-09
 ErrMax= 2.37D-09  0.00D+00 EMaxC= 1.00D-01 BMatC= 2.72D-15 BMatP= 1.64D-14
 IDIUse=1 WtCom= 1.00D+00 WtEn= 0.00D+00
 Large coefficients: NSaved= 20 BigCof=    0.00 CofMax=   10.00 Det=-9.62D-15
 Inversion failed.  Reducing to 19 matrices.
 Coeff-Com:  0.137D-04-0.211D-04-0.208D-03 0.174D-03 0.439D-04 0.482D-04
 Coeff-Com: -0.101D-03-0.246D-03-0.853D-04 0.132D-02 0.352D-03-0.468D-02
 Coeff-Com: -0.415D-02 0.181D-01 0.266D-01-0.761D-01-0.126D+00 0.179D+00
 Coeff-Com:  0.985D+00
 Coeff:      0.137D-04-0.211D-04-0.208D-03 0.174D-03 0.439D-04 0.482D-04
 Coeff:     -0.101D-03-0.246D-03-0.853D-04 0.132D-02 0.352D-03-0.468D-02
 Coeff:     -0.415D-02 0.181D-01 0.266D-01-0.761D-01-0.126D+00 0.179D+00
 Coeff:      0.985D+00
 Gap=     0.032 Goal=   None    Shift=    0.000
 Gap=     0.031 Goal=   None    Shift=    0.000
 RMSDP=2.54D-08 MaxDP=3.28D-06 DE=-2.07D-11 OVMax= 4.40D-07

 Cycle  26  Pass 1  IDiag  1:
 E= -1136.08721619661     Delta-E=        0.000000000015 Rises=F Damp=F
 DIIS: error= 8.99D-10 at cycle  26 NSaved=  20.
 NSaved=20 IEnMin= 4 EnMin= -1136.08729246029     IErMin=20 ErrMin= 8.99D-10
 ErrMax= 8.99D-10  0.00D+00 EMaxC= 1.00D-01 BMatC= 2.41D-16 BMatP= 2.72D-15
 IDIUse=1 WtCom= 1.00D+00 WtEn= 0.00D+00
 Large coefficients: NSaved= 20 BigCof=    0.00 CofMax=   10.00 Det=-6.48D-16
 Inversion failed.  Reducing to 19 matrices.
 Large coefficients: NSaved= 19 BigCof=    0.00 CofMax=   10.00 Det=-7.54D-16
 Inversion failed.  Reducing to 18 matrices.
 Large coefficients: NSaved= 18 BigCof=    0.00 CofMax=   10.00 Det=-9.13D-16
 Inversion failed.  Reducing to 17 matrices.
 Large coefficients: NSaved= 17 BigCof=    0.00 CofMax=   10.00 Det=-1.19D-15
 Inversion failed.  Reducing to 16 matrices.
 Large coefficients: NSaved= 16 BigCof=    0.00 CofMax=   10.00 Det=-1.22D-15
 Inversion failed.  Reducing to 15 matrices.
 Coeff-Com: -0.738D-06 0.190D-05 0.249D-04-0.213D-04-0.308D-05-0.567D-05
 Coeff-Com: -0.170D-03-0.642D-03 0.182D-02-0.317D-02 0.612D-02-0.236D-01
 Coeff-Com: -0.305D-01 0.489D-01 0.100D+01
 Coeff:     -0.738D-06 0.190D-05 0.249D-04-0.213D-04-0.308D-05-0.567D-05
 Coeff:     -0.170D-03-0.642D-03 0.182D-02-0.317D-02 0.612D-02-0.236D-01
 Coeff:     -0.305D-01 0.489D-01 0.100D+01
 Gap=     0.032 Goal=   None    Shift=    0.000
 Gap=     0.031 Goal=   None    Shift=    0.000
 RMSDP=1.32D-08 MaxDP=1.18D-06 DE= 1.50D-11 OVMax= 1.28D-07

 Cycle  27  Pass 1  IDiag  1:
 E= -1136.08721619663     Delta-E=       -0.000000000010 Rises=F Damp=F
 DIIS: error= 6.40D-10 at cycle  27 NSaved=  16.
 NSaved=16 IEnMin= 4 EnMin= -1136.08729246029     IErMin=16 ErrMin= 6.40D-10
 ErrMax= 6.40D-10  0.00D+00 EMaxC= 1.00D-01 BMatC= 7.51D-17 BMatP= 2.41D-16
 IDIUse=1 WtCom= 1.00D+00 WtEn= 0.00D+00
 Large coefficients: NSaved= 16 BigCof=    0.00 CofMax=   10.00 Det=-1.42D-16
 Inversion failed.  Reducing to 15 matrices.
 Coeff-Com:  0.783D-06 0.244D-05 0.118D-04-0.118D-04-0.372D-05 0.319D-06
 Coeff-Com: -0.254D-03-0.510D-03-0.340D-03 0.103D-01-0.106D-01-0.347D-01
 Coeff-Com: -0.461D-01 0.160D+00 0.922D+00
 Coeff:      0.783D-06 0.244D-05 0.118D-04-0.118D-04-0.372D-05 0.319D-06
 Coeff:     -0.254D-03-0.510D-03-0.340D-03 0.103D-01-0.106D-01-0.347D-01
 Coeff:     -0.461D-01 0.160D+00 0.922D+00
 Gap=     0.032 Goal=   None    Shift=    0.000
 Gap=     0.031 Goal=   None    Shift=    0.000
 RMSDP=1.07D-08 MaxDP=1.11D-06 DE=-1.05D-11 OVMax= 4.48D-08

 Cycle  28  Pass 1  IDiag  1:
 E= -1136.08721619664     Delta-E=       -0.000000000014 Rises=F Damp=F
 DIIS: error= 3.15D-10 at cycle  28 NSaved=  16.
 NSaved=16 IEnMin= 4 EnMin= -1136.08729246029     IErMin=16 ErrMin= 3.15D-10
 ErrMax= 3.15D-10  0.00D+00 EMaxC= 1.00D-01 BMatC= 2.28D-17 BMatP= 7.51D-17
 IDIUse=1 WtCom= 1.00D+00 WtEn= 0.00D+00
 Large coefficients: NSaved= 16 BigCof=    0.00 CofMax=   10.00 Det=-4.92D-17
 Inversion failed.  Reducing to 15 matrices.
 Coeff-Com: -0.335D-06-0.156D-05-0.905D-05 0.935D-05 0.510D-07 0.341D-05
 Coeff-Com: -0.478D-04-0.816D-03 0.150D-02 0.780D-02-0.133D-02-0.414D-01
 Coeff-Com: -0.192D+00 0.264D+00 0.962D+00
 Coeff:     -0.335D-06-0.156D-05-0.905D-05 0.935D-05 0.510D-07 0.341D-05
 Coeff:     -0.478D-04-0.816D-03 0.150D-02 0.780D-02-0.133D-02-0.414D-01
 Coeff:     -0.192D+00 0.264D+00 0.962D+00
 Gap=     0.032 Goal=   None    Shift=    0.000
 Gap=     0.031 Goal=   None    Shift=    0.000
 RMSDP=1.07D-08 MaxDP=1.29D-06 DE=-1.39D-11 OVMax= 2.26D-08

 Cycle  29  Pass 1  IDiag  1:
 E= -1136.08721619662     Delta-E=        0.000000000018 Rises=F Damp=F
 DIIS: error= 1.17D-10 at cycle  29 NSaved=  16.
 NSaved=16 IEnMin= 4 EnMin= -1136.08729246029     IErMin=16 ErrMin= 1.17D-10
 ErrMax= 1.17D-10  0.00D+00 EMaxC= 1.00D-01 BMatC= 4.74D-18 BMatP= 2.28D-17
 IDIUse=1 WtCom= 1.00D+00 WtEn= 0.00D+00
 Large coefficients: NSaved= 16 BigCof=    0.00 CofMax=   10.00 Det=-1.01D-17
 Inversion failed.  Reducing to 15 matrices.
 Coeff-Com:  0.284D-06-0.165D-06-0.332D-05 0.236D-05 0.915D-06 0.840D-06
 Coeff-Com:  0.525D-03-0.202D-02 0.347D-02 0.638D-02-0.164D-02-0.966D-01
 Coeff-Com: -0.686D-01 0.271D+00 0.887D+00
 Coeff:      0.284D-06-0.165D-06-0.332D-05 0.236D-05 0.915D-06 0.840D-06
 Coeff:      0.525D-03-0.202D-02 0.347D-02 0.638D-02-0.164D-02-0.966D-01
 Coeff:     -0.686D-01 0.271D+00 0.887D+00
 Gap=     0.032 Goal=   None    Shift=    0.000
 Gap=     0.031 Goal=   None    Shift=    0.000
 RMSDP=1.41D-08 MaxDP=1.25D-06 DE= 1.75D-11 OVMax= 1.26D-08

 Cycle  30  Pass 1  IDiag  1:
 E= -1136.08721619662     Delta-E=        0.000000000000 Rises=F Damp=F
 DIIS: error= 7.29D-11 at cycle  30 NSaved=  16.
 NSaved=16 IEnMin= 4 EnMin= -1136.08729246029     IErMin=16 ErrMin= 7.29D-11
 ErrMax= 7.29D-11  0.00D+00 EMaxC= 1.00D-01 BMatC= 1.42D-18 BMatP= 4.74D-18
 IDIUse=1 WtCom= 1.00D+00 WtEn= 0.00D+00
 Large coefficients: NSaved= 16 BigCof=    0.00 CofMax=   10.00 Det=-3.18D-18
 Inversion failed.  Reducing to 15 matrices.
 Coeff-Com: -0.109D-06 0.386D-06 0.304D-05-0.287D-05 0.220D-06-0.146D-05
 Coeff-Com: -0.279D-03-0.950D-04 0.711D-03 0.416D-02 0.143D-01-0.612D-01
 Coeff-Com: -0.121D+00 0.278D+00 0.886D+00
 Coeff:     -0.109D-06 0.386D-06 0.304D-05-0.287D-05 0.220D-06-0.146D-05
 Coeff:     -0.279D-03-0.950D-04 0.711D-03 0.416D-02 0.143D-01-0.612D-01
 Coeff:     -0.121D+00 0.278D+00 0.886D+00
 Gap=     0.032 Goal=   None    Shift=    0.000
 Gap=     0.031 Goal=   None    Shift=    0.000
 RMSDP=2.93D-08 MaxDP=4.95D-06 DE= 4.55D-13 OVMax= 8.76D-09

 Cycle  31  Pass 1  IDiag  1:
 E= -1136.08721619662     Delta-E=       -0.000000000004 Rises=F Damp=F
 DIIS: error= 8.61D-11 at cycle  31 NSaved=  16.
 NSaved=16 IEnMin= 4 EnMin= -1136.08729246029     IErMin=15 ErrMin= 7.29D-11
 ErrMax= 8.61D-11  0.00D+00 EMaxC= 1.00D-01 BMatC= 7.69D-19 BMatP= 1.42D-18
 IDIUse=1 WtCom= 1.00D+00 WtEn= 0.00D+00
 Large coefficients: NSaved= 16 BigCof=    0.00 CofMax=   10.00 Det=-1.55D-18
 Inversion failed.  Reducing to 15 matrices.
 Coeff-Com: -0.548D-07 0.294D-06 0.202D-05-0.183D-05-0.154D-06-0.880D-06
 Coeff-Com:  0.117D-03-0.101D-02 0.414D-02 0.292D-01-0.330D-01-0.155D+00
 Coeff-Com:  0.105D-01 0.580D+00 0.565D+00
 Coeff:     -0.548D-07 0.294D-06 0.202D-05-0.183D-05-0.154D-06-0.880D-06
 Coeff:      0.117D-03-0.101D-02 0.414D-02 0.292D-01-0.330D-01-0.155D+00
 Coeff:      0.105D-01 0.580D+00 0.565D+00
 Gap=     0.032 Goal=   None    Shift=    0.000
 Gap=     0.031 Goal=   None    Shift=    0.000
 RMSDP=1.89D-08 MaxDP=3.32D-06 DE=-3.64D-12 OVMax= 1.95D-09

 Cycle  32  Pass 1  IDiag  1:
 E= -1136.08721619662     Delta-E=        0.000000000004 Rises=F Damp=F
 DIIS: error= 3.89D-11 at cycle  32 NSaved=  16.
 NSaved=16 IEnMin= 4 EnMin= -1136.08729246029     IErMin=16 ErrMin= 3.89D-11
 ErrMax= 3.89D-11  0.00D+00 EMaxC= 1.00D-01 BMatC= 2.10D-19 BMatP= 7.69D-19
 IDIUse=1 WtCom= 1.00D+00 WtEn= 0.00D+00
 Large coefficients: NSaved= 16 BigCof=    0.00 CofMax=   10.00 Det=-3.35D-19
 Inversion failed.  Reducing to 15 matrices.
 Coeff-Com: -0.518D-07 0.541D-07 0.546D-06-0.473D-06 0.479D-07-0.297D-06
 Coeff-Com:  0.124D-03-0.283D-03 0.404D-03-0.970D-02-0.311D-01 0.106D-01
 Coeff-Com:  0.272D+00 0.101D+00 0.657D+00
 Coeff:     -0.518D-07 0.541D-07 0.546D-06-0.473D-06 0.479D-07-0.297D-06
 Coeff:      0.124D-03-0.283D-03 0.404D-03-0.970D-02-0.311D-01 0.106D-01
 Coeff:      0.272D+00 0.101D+00 0.657D+00
 Gap=     0.032 Goal=   None    Shift=    0.000
 Gap=     0.031 Goal=   None    Shift=    0.000
 RMSDP=7.84D-09 MaxDP=1.52D-06 DE= 3.64D-12 OVMax= 1.30D-09

 Cycle  33  Pass 1  IDiag  1:
 E= -1136.08721619662     Delta-E=       -0.000000000001 Rises=F Damp=F
 DIIS: error= 3.47D-11 at cycle  33 NSaved=  16.
 NSaved=16 IEnMin= 4 EnMin= -1136.08729246029     IErMin=16 ErrMin= 3.47D-11
 ErrMax= 3.47D-11  0.00D+00 EMaxC= 1.00D-01 BMatC= 8.61D-20 BMatP= 2.10D-19
 IDIUse=1 WtCom= 1.00D+00 WtEn= 0.00D+00
 Large coefficients: NSaved= 16 BigCof=    0.00 CofMax=   10.00 Det=-1.37D-19
 Inversion failed.  Reducing to 15 matrices.
 Coeff-Com: -0.993D-08 0.340D-08 0.670D-07-0.576D-07 0.400D-08-0.151D-07
 Coeff-Com: -0.845D-04 0.474D-03-0.259D-02-0.993D-02-0.182D-01 0.777D-01
 Coeff-Com:  0.454D-01 0.241D+00 0.666D+00
 Coeff:     -0.993D-08 0.340D-08 0.670D-07-0.576D-07 0.400D-08-0.151D-07
 Coeff:     -0.845D-04 0.474D-03-0.259D-02-0.993D-02-0.182D-01 0.777D-01
 Coeff:      0.454D-01 0.241D+00 0.666D+00
 Gap=     0.032 Goal=   None    Shift=    0.000
 Gap=     0.031 Goal=   None    Shift=    0.000
 RMSDP=2.45D-09 MaxDP=2.51D-07 DE=-1.36D-12 OVMax= 7.29D-10

 SCF Done:  E(UB3LYP) =  -1136.08721620     A.U. after   33 cycles
            NFock= 33  Conv=0.25D-08     -V/T= 2.0025
 <Sx>= 0.0000 <Sy>= 0.0000 <Sz>= 0.5000 <S**2>= 0.7841 S= 0.5169
 <L.S>= 0.000000000000E+00
 KE= 1.133213456024D+03 PE=-3.413883881950D+03 EE= 8.022501287619D+02
 Annihilation of the first spin contaminant:
 S**2 before annihilation     0.7841,   after     0.7504
 Leave Link  502 at Mon Nov 13 15:40:52 2023, MaxMem=  1879048192 cpu:             302.7 elap:              26.1
 (Enter /home/sekinelabo/g16/l601.exe)
 Copying SCF densities to generalized density rwf, IOpCl= 1 IROHF=0.

 **********************************************************************

            Population analysis using the SCF Density.

 **********************************************************************

 Orbital symmetries:
 Alpha Orbitals:
       Occupied  (A) (A) (A) (A) (A) (A) (A) (A) (A) (A) (A) (A)
                 (A) (A) (A) (A) (A) (A) (A) (A) (A) (A) (A) (A)
                 (A) (A) (A) (A) (A) (A) (A) (A) (A) (A) (A) (A)
                 (A) (A) (A)
       Virtual   (A) (A) (A) (A) (A) (A) (A) (A) (A) (A) (A) (A)
                 (A) (A) (A) (A) (A) (A) (A) (A) (A) (A) (A) (A)
                 (A) (A) (A) (A) (A) (A) (A) (A) (A) (A) (A) (A)
                 (A) (A) (A) (A) (A) (A) (A) (A) (A) (A) (A) (A)
                 (A) (A) (A) (A) (A) (A) (A) (A) (A) (A) (A) (A)
                 (A) (A) (A) (A) (A) (A) (A) (A) (A) (A) (A) (A)
                 (A) (A) (A) (A) (A) (A) (A) (A) (A) (A) (A) (A)
                 (A) (A) (A) (A) (A) (A) (A) (A) (A) (A) (A) (A)
                 (A) (A) (A) (A) (A) (A) (A) (A) (A) (A) (A) (A)
                 (A) (A) (A) (A) (A) (A) (A) (A) (A) (A) (A) (A)
                 (A) (A) (A) (A) (A) (A) (A) (A) (A) (A) (A) (A)
                 (A) (A) (A) (A) (A) (A) (A) (A) (A) (A) (A) (A)
                 (A) (A) (A) (A) (A) (A) (A) (A) (A) (A) (A) (A)
                 (A) (A) (A) (A) (A) (A) (A) (A) (A) (A) (A) (A)
                 (A) (A) (A)
 Beta  Orbitals:
       Occupied  (A) (A) (A) (A) (A) (A) (A) (A) (A) (A) (A) (A)
                 (A) (A) (A) (A) (A) (A) (A) (A) (A) (A) (A) (A)
                 (A) (A) (A) (A) (A) (A) (A) (A) (A) (A) (A) (A)
                 (A) (A)
       Virtual   (A) (A) (A) (A) (A) (A) (A) (A) (A) (A) (A) (A)
                 (A) (A) (A) (A) (A) (A) (A) (A) (A) (A) (A) (A)
                 (A) (A) (A) (A) (A) (A) (A) (A) (A) (A) (A) (A)
                 (A) (A) (A) (A) (A) (A) (A) (A) (A) (A) (A) (A)
                 (A) (A) (A) (A) (A) (A) (A) (A) (A) (A) (A) (A)
                 (A) (A) (A) (A) (A) (A) (A) (A) (A) (A) (A) (A)
                 (A) (A) (A) (A) (A) (A) (A) (A) (A) (A) (A) (A)
                 (A) (A) (A) (A) (A) (A) (A) (A) (A) (A) (A) (A)
                 (A) (A) (A) (A) (A) (A) (A) (A) (A) (A) (A) (A)
                 (A) (A) (A) (A) (A) (A) (A) (A) (A) (A) (A) (A)
                 (A) (A) (A) (A) (A) (A) (A) (A) (A) (A) (A) (A)
                 (A) (A) (A) (A) (A) (A) (A) (A) (A) (A) (A) (A)
                 (A) (A) (A) (A) (A) (A) (A) (A) (A) (A) (A) (A)
                 (A) (A) (A) (A) (A) (A) (A) (A) (A) (A) (A) (A)
                 (A) (A) (A) (A)
 The electronic state is 2-A.
 Alpha  occ. eigenvalues --  -38.45894 -38.45392 -38.44702 -38.43699 -38.43605
 Alpha  occ. eigenvalues --  -38.43175 -38.42610  -2.21863  -2.21374  -2.20544
 Alpha  occ. eigenvalues --   -2.19798  -2.19585  -2.19196  -2.18610  -1.15591
 Alpha  occ. eigenvalues --   -1.15548  -1.15481  -1.15074  -1.15036  -1.14964
 Alpha  occ. eigenvalues --   -1.14225  -1.14156  -1.14154  -1.13538  -1.13465
 Alpha  occ. eigenvalues --   -1.13452  -1.13264  -1.13228  -1.13199  -1.12875
 Alpha  occ. eigenvalues --   -1.12868  -1.12830  -1.12295  -1.12248  -1.12224
 Alpha  occ. eigenvalues --   -0.19570  -0.15078  -0.11498  -0.11030
 Alpha virt. eigenvalues --   -0.07803  -0.04995  -0.04186  -0.03420  -0.03047
 Alpha virt. eigenvalues --   -0.01859  -0.01748  -0.01376  -0.01252  -0.00632
 Alpha virt. eigenvalues --   -0.00087   0.00215   0.00237   0.00570   0.00847
 Alpha virt. eigenvalues --    0.00968   0.01207   0.01285   0.01353   0.01436
 Alpha virt. eigenvalues --    0.01587   0.01660   0.01755   0.01883   0.01928
 Alpha virt. eigenvalues --    0.02029   0.02103   0.02328   0.02433   0.02599
 Alpha virt. eigenvalues --    0.02706   0.02774   0.02823   0.02958   0.03017
 Alpha virt. eigenvalues --    0.03180   0.03332   0.03558   0.03710   0.03850
 Alpha virt. eigenvalues --    0.04031   0.04263   0.04403   0.04947   0.05026
 Alpha virt. eigenvalues --    0.05093   0.05269   0.05369   0.05601   0.06043
 Alpha virt. eigenvalues --    0.06261   0.06491   0.06888   0.06941   0.07091
 Alpha virt. eigenvalues --    0.07320   0.07742   0.08279   0.08721   0.08958
 Alpha virt. eigenvalues --    0.09147   0.09466   0.10053   0.10750   0.11091
 Alpha virt. eigenvalues --    0.11436   0.11678   0.12396   0.12586   0.13314
 Alpha virt. eigenvalues --    0.13664   0.14115   0.14309   0.14527   0.15083
 Alpha virt. eigenvalues --    0.15276   0.15935   0.17160   0.18150   0.19584
 Alpha virt. eigenvalues --    0.23284   0.25881   0.26221   0.27353   0.29347
 Alpha virt. eigenvalues --    0.29928   0.31036   0.31878   0.32782   0.33558
 Alpha virt. eigenvalues --    0.34230   0.34943   0.35786   0.36190   0.36849
 Alpha virt. eigenvalues --    0.38467   0.38970   0.39428   0.40452   0.41233
 Alpha virt. eigenvalues --    0.42472   0.42888   0.43229   0.43915   0.44061
 Alpha virt. eigenvalues --    0.44334   0.44716   0.45038   0.45608   0.46311
 Alpha virt. eigenvalues --    0.46439   0.47215   0.47942   0.48347   0.49267
 Alpha virt. eigenvalues --    0.49871   0.50134   0.50879   0.51353   0.52245
 Alpha virt. eigenvalues --    0.52361   0.53847   0.54058   0.54676   0.57144
 Alpha virt. eigenvalues --    0.57700   0.67163   0.68239   0.69509   0.70617
 Alpha virt. eigenvalues --    0.71439   0.72408   0.73994   0.75893   0.78590
 Alpha virt. eigenvalues --    0.78922   2.08434   2.10950   2.19081   2.21462
 Alpha virt. eigenvalues --    2.22616   2.27077   2.31190   4.39990   4.40659
 Alpha virt. eigenvalues --    4.41540   4.41602   4.42536   4.42626   4.43750
 Alpha virt. eigenvalues --    4.44871   4.45265   4.46101   4.48278   4.52503
 Alpha virt. eigenvalues --    4.54760   4.56615   4.59319   4.63687   4.67158
 Alpha virt. eigenvalues --    4.71904   4.72926   4.77949   4.78634  96.28991
 Alpha virt. eigenvalues --   96.32431  96.43002  96.47217  96.47891  96.53854
 Alpha virt. eigenvalues --   96.59900
  Beta  occ. eigenvalues --  -38.45886 -38.45372 -38.44594 -38.43638 -38.43593
  Beta  occ. eigenvalues --  -38.43140 -38.42601  -2.21855  -2.21343  -2.20343
  Beta  occ. eigenvalues --   -2.19688  -2.19576  -2.19131  -2.18595  -1.15592
  Beta  occ. eigenvalues --   -1.15501  -1.15475  -1.15052  -1.14991  -1.14941
  Beta  occ. eigenvalues --   -1.14092  -1.14019  -1.14017  -1.13461  -1.13394
  Beta  occ. eigenvalues --   -1.13374  -1.13250  -1.13210  -1.13138  -1.12837
  Beta  occ. eigenvalues --   -1.12829  -1.12775  -1.12276  -1.12228  -1.12222
  Beta  occ. eigenvalues --   -0.19028  -0.14195  -0.10880
  Beta virt. eigenvalues --   -0.07753  -0.07621  -0.04420  -0.03905  -0.03158
  Beta virt. eigenvalues --   -0.02846  -0.01661  -0.01484  -0.00947  -0.00791
  Beta virt. eigenvalues --   -0.00261   0.00076   0.00307   0.00327   0.00635
  Beta virt. eigenvalues --    0.00871   0.00992   0.01286   0.01363   0.01375
  Beta virt. eigenvalues --    0.01568   0.01611   0.01736   0.01847   0.01917
  Beta virt. eigenvalues --    0.01964   0.02056   0.02255   0.02449   0.02530
  Beta virt. eigenvalues --    0.02660   0.02750   0.02847   0.02886   0.02995
  Beta virt. eigenvalues --    0.03075   0.03253   0.03380   0.03589   0.03748
  Beta virt. eigenvalues --    0.03865   0.04136   0.04326   0.04411   0.05012
  Beta virt. eigenvalues --    0.05095   0.05178   0.05357   0.05449   0.05680
  Beta virt. eigenvalues --    0.06147   0.06440   0.06541   0.06971   0.07125
  Beta virt. eigenvalues --    0.07159   0.07380   0.07913   0.08626   0.08848
  Beta virt. eigenvalues --    0.09165   0.09292   0.09622   0.10152   0.10869
  Beta virt. eigenvalues --    0.11275   0.11728   0.11847   0.12585   0.12717
  Beta virt. eigenvalues --    0.13375   0.13812   0.14220   0.14444   0.14726
  Beta virt. eigenvalues --    0.15202   0.15445   0.16133   0.17319   0.18447
  Beta virt. eigenvalues --    0.19642   0.23606   0.26129   0.26528   0.27751
  Beta virt. eigenvalues --    0.29662   0.30362   0.31300   0.32242   0.32930
  Beta virt. eigenvalues --    0.33856   0.34756   0.35504   0.36198   0.36864
  Beta virt. eigenvalues --    0.37276   0.38752   0.39129   0.39554   0.40652
  Beta virt. eigenvalues --    0.41352   0.42719   0.43085   0.43545   0.43959
  Beta virt. eigenvalues --    0.44165   0.44500   0.44910   0.45234   0.45718
  Beta virt. eigenvalues --    0.46454   0.46587   0.47327   0.48103   0.48522
  Beta virt. eigenvalues --    0.49546   0.50008   0.50320   0.50985   0.51569
  Beta virt. eigenvalues --    0.52272   0.52453   0.53973   0.54210   0.54905
  Beta virt. eigenvalues --    0.57358   0.57819   0.67332   0.68338   0.69673
  Beta virt. eigenvalues --    0.70687   0.71479   0.72534   0.74129   0.76026
  Beta virt. eigenvalues --    0.78788   0.79076   2.08691   2.11210   2.19112
  Beta virt. eigenvalues --    2.21488   2.22716   2.27149   2.31358   4.40022
  Beta virt. eigenvalues --    4.40730   4.41606   4.41674   4.42581   4.42682
  Beta virt. eigenvalues --    4.43806   4.45026   4.45408   4.46138   4.48311
  Beta virt. eigenvalues --    4.52495   4.54792   4.56661   4.59402   4.63758
  Beta virt. eigenvalues --    4.67232   4.71927   4.73001   4.77971   4.78711
  Beta virt. eigenvalues --   96.29068  96.32528  96.43019  96.47235  96.47929
  Beta virt. eigenvalues --   96.53882  96.59958
          Condensed to atoms (all electrons):
               1          2          3          4          5          6
     1  Na  19.752865  -0.202150  -2.528358   1.525756   0.946248  -9.918278
     2  Na  -0.202150  11.935442  -0.766001  -0.380083   0.857754  -1.113649
     3  Na  -2.528358  -0.766001  13.074698  -1.243408   0.177239   2.200290
     4  Na   1.525756  -0.380083  -1.243408  12.853527  -0.349947  -1.591397
     5  Na   0.946248   0.857754   0.177239  -0.349947  14.192461  -5.134425
     6  Na  -9.918278  -1.113649   2.200290  -1.591397  -5.134425  29.792460
     7  Na   3.068086   0.299021  -0.854270   0.534061   1.226972  -5.268627
               7
     1  Na   3.068086
     2  Na   0.299021
     3  Na  -0.854270
     4  Na   0.534061
     5  Na   1.226972
     6  Na  -5.268627
     7  Na  12.428873
          Atomic-Atomic Spin Densities.
               1          2          3          4          5          6
     1  Na   2.709625   0.505265  -0.423313  -0.489180   0.941193  -4.050406
     2  Na   0.505265   0.294040  -0.143784   0.003218   0.349253  -1.220167
     3  Na  -0.423313  -0.143784   0.009223   0.121364   0.058943   0.589138
     4  Na  -0.489180   0.003218   0.121364   0.241773   0.154407   0.320679
     5  Na   0.941193   0.349253   0.058943   0.154407   0.374428  -2.594512
     6  Na  -4.050406  -1.220167   0.589138   0.320679  -2.594512   9.243672
     7  Na   0.955800   0.265771  -0.135041  -0.050836   0.597919  -2.132233
               7
     1  Na   0.955800
     2  Na   0.265771
     3  Na  -0.135041
     4  Na  -0.050836
     5  Na   0.597919
     6  Na  -2.132233
     7  Na   0.880280
 Mulliken charges and spin densities:
               1          2
     1  Na  -1.644171   0.148985
     2  Na   0.369665   0.053596
     3  Na   0.939811   0.076530
     4  Na  -0.348510   0.301425
     5  Na  -0.916303  -0.118368
     6  Na   2.033625   0.156171
     7  Na  -0.434117   0.381661
 Sum of Mulliken charges =  -0.00000   1.00000
 Mulliken charges and spin densities with hydrogens summed into heavy atoms:
               1          2
     1  Na  -1.644171   0.148985
     2  Na   0.369665   0.053596
     3  Na   0.939811   0.076530
     4  Na  -0.348510   0.301425
     5  Na  -0.916303  -0.118368
     6  Na   2.033625   0.156171
     7  Na  -0.434117   0.381661
 Electronic spatial extent (au):  <R**2>=           2880.5183
 Charge=             -0.0000 electrons
 Dipole moment (field-independent basis, Debye):
    X=              0.8994    Y=             -0.3907    Z=             -0.1030  Tot=              0.9860
 Quadrupole moment (field-independent basis, Debye-Ang):
   XX=            -62.1916   YY=            -82.4061   ZZ=            -57.9055
   XY=             -1.0870   XZ=              3.3708   YZ=              1.4768
 Traceless Quadrupole moment (field-independent basis, Debye-Ang):
   XX=              5.3094   YY=            -14.9050   ZZ=              9.5955
   XY=             -1.0870   XZ=              3.3708   YZ=              1.4768
 Octapole moment (field-independent basis, Debye-Ang**2):
  XXX=            -14.3576  YYY=              6.0284  ZZZ=              3.2472  XYY=            -10.1787
  XXY=             -1.4061  XXZ=            -10.0444  XZZ=             32.5169  YZZ=            -13.4020
  YYZ=             -2.5864  XYZ=              0.8703
 Hexadecapole moment (field-independent basis, Debye-Ang**3):
 XXXX=          -3377.3281 YYYY=          -1046.8010 ZZZZ=           -442.2558 XXXY=             22.4507
 XXXZ=            130.5828 YYYX=              1.6166 YYYZ=              9.1018 ZZZX=             10.8972
 ZZZY=             11.6071 XXYY=           -798.0497 XXZZ=           -589.1593 YYZZ=           -246.1870
 XXYZ=             15.7398 YYXZ=              3.0011 ZZXY=            -40.6490
 N-N= 3.423330809682D+02 E-N=-3.413883881951D+03  KE= 1.133213456024D+03
                          Isotropic Fermi Contact Couplings
        Atom                 a.u.       MegaHertz       Gauss      10(-4) cm-1
     1  Na(23)             0.25479     301.41793     107.55341     100.54220
     2  Na(23)             0.03564      42.16187      15.04440      14.06369
     3  Na(23)            -0.03388     -40.07591     -14.30008     -13.36789
     4  Na(23)             0.14497     171.50408      61.19692      57.20760
     5  Na(23)             0.02385      28.21440      10.06760       9.41131
     6  Na(23)            -0.08148     -96.39295     -34.39540     -32.15323
     7  Na(23)             0.47174     558.08093     199.13715     186.15576
 --------------------------------------------------------
       Center         ----  Spin Dipole Couplings  ----
                      3XX-RR        3YY-RR        3ZZ-RR
 --------------------------------------------------------
     1   Atom       -0.013702      0.012937      0.000765
     2   Atom        0.017167      0.003559     -0.020725
     3   Atom        0.027801     -0.008278     -0.019523
     4   Atom        0.000321      0.002689     -0.003010
     5   Atom       -0.024650      0.026889     -0.002238
     6   Atom        0.100975     -0.050655     -0.050319
     7   Atom       -0.006367      0.002818      0.003549
 --------------------------------------------------------
                        XY            XZ            YZ
 --------------------------------------------------------
     1   Atom       -0.019083     -0.005389      0.013122
     2   Atom        0.036341      0.002688      0.003662
     3   Atom        0.033573     -0.013935     -0.005026
     4   Atom       -0.011302     -0.006995      0.005192
     5   Atom        0.008553     -0.001840     -0.012005
     6   Atom       -0.003944      0.014055     -0.000863
     7   Atom        0.000906     -0.001927      0.001188
 --------------------------------------------------------


 ---------------------------------------------------------------------------------
              Anisotropic Spin Dipole Couplings in Principal Axis System
 ---------------------------------------------------------------------------------

       Atom             a.u.   MegaHertz   Gauss  10(-4) cm-1        Axes

              Baa    -0.0237    -3.352    -1.196    -1.118  0.8758  0.4785 -0.0636
     1 Na(23) Bbb    -0.0060    -0.853    -0.304    -0.284  0.2607 -0.3579  0.8966
              Bcc     0.0298     4.205     1.500     1.403 -0.4063  0.8019  0.4382
 
              Baa    -0.0268    -3.787    -1.351    -1.263 -0.6191  0.7631 -0.1855
     2 Na(23) Bbb    -0.0208    -2.937    -1.048    -0.980 -0.1675  0.1025  0.9805
              Bcc     0.0476     6.725     2.399     2.243  0.7672  0.6381  0.0644
 
              Baa    -0.0295    -4.161    -1.485    -1.388 -0.5353  0.7616 -0.3652
     3 Na(23) Bbb    -0.0214    -3.024    -1.079    -1.009 -0.0270  0.4168  0.9086
              Bcc     0.0509     7.185     2.564     2.397  0.8442  0.4963 -0.2025
 
              Baa    -0.0105    -1.487    -0.531    -0.496  0.7741  0.5200  0.3610
     4 Na(23) Bbb    -0.0061    -0.858    -0.306    -0.286 -0.0308 -0.5386  0.8420
              Bcc     0.0166     2.345     0.837     0.782 -0.6323  0.6630  0.4009
 
              Baa    -0.0260    -3.676    -1.312    -1.226  0.9870 -0.1606 -0.0047
     5 Na(23) Bbb    -0.0065    -0.915    -0.327    -0.305  0.0573  0.3249  0.9440
              Bcc     0.0325     4.592     1.638     1.532  0.1501  0.9320 -0.3299
 
              Baa    -0.0518    -7.321    -2.612    -2.442 -0.0725  0.4177  0.9057
     6 Na(23) Bbb    -0.0505    -7.136    -2.546    -2.380  0.0620  0.9082 -0.4139
              Bcc     0.1024    14.457     5.158     4.822  0.9954 -0.0262  0.0918
 
              Baa    -0.0069    -0.968    -0.346    -0.323  0.9743 -0.1150  0.1936
     7 Na(23) Bbb     0.0023     0.328     0.117     0.109  0.1991  0.8414 -0.5024
              Bcc     0.0045     0.640     0.228     0.214 -0.1051  0.5280  0.8427
 

 ---------------------------------------------------------------------------------

 No NMR shielding tensors so no spin-rotation constants.
 Leave Link  601 at Mon Nov 13 15:40:52 2023, MaxMem=  1879048192 cpu:               2.6 elap:               0.2
 (Enter /home/sekinelabo/g16/l701.exe)
 ... and contract with generalized density number  0.
 Compute integral first derivatives.
 Leave Link  701 at Mon Nov 13 15:40:52 2023, MaxMem=  1879048192 cpu:               1.7 elap:               0.1
 (Enter /home/sekinelabo/g16/l702.exe)
 L702 exits ... SP integral derivatives will be done elsewhere.
 Leave Link  702 at Mon Nov 13 15:40:52 2023, MaxMem=  1879048192 cpu:               0.5 elap:               0.0
 (Enter /home/sekinelabo/g16/l703.exe)
 Integral derivatives from FoFJK, PRISM(SPDF).
 Compute integral first derivatives, UseDBF=F ICtDFT=           0.
 Calling FoFJK, ICntrl=      2127 FMM=F ISym2X=0 I1Cent= 0 IOpClX= 1 NMat=1 NMatS=1 NMatT=0.
 FoFJK:  IHMeth= 1 ICntrl=    2127 DoSepK=F KAlg= 0 I1Cent=           0 FoldK=F
 IRaf=         0 NMat=       1 IRICut=       1 DoRegI=T DoRafI=F ISym2E= 0 IDoP0=0 IntGTp=1.
 FoFCou: FMM=F IPFlag=           0 FMFlag=      100000 FMFlg1=         800
         NFxFlg=           0 DoJE=F BraDBF=F KetDBF=F FulRan=T
         wScrn=  0.000000 ICntrl=      2127 IOpCl=  1 I1Cent=           0 NGrid=           0
         NMat0=    1 NMatS0=      1 NMatT0=    0 NMatD0=    1 NMtDS0=    0 NMtDT0=    0
 Symmetry not used in FoFCou.
 Leave Link  703 at Mon Nov 13 15:40:55 2023, MaxMem=  1879048192 cpu:              34.0 elap:               2.2
 (Enter /home/sekinelabo/g16/l716.exe)
 Dipole        = 3.53844020D-01-1.53697932D-01-4.05149245D-02
 ***** Axes restored to original set *****
 -------------------------------------------------------------------
 Center     Atomic                   Forces (Hartrees/Bohr)
 Number     Number              X              Y              Z
 -------------------------------------------------------------------
      1       11          -0.005225183   -0.012605389   -0.000798931
      2       11           0.006362239   -0.007861478   -0.008076130
      3       11           0.003815250   -0.007113721    0.008149173
      4       11           0.005603576    0.015313195   -0.001294159
      5       11          -0.000469018    0.013552770   -0.001849382
      6       11          -0.005974333   -0.000378561    0.006024519
      7       11          -0.004112530   -0.000906815   -0.002155090
 -------------------------------------------------------------------
 Cartesian Forces:  Max     0.015313195 RMS     0.007021425
 Z-matrix is all fixed cartesians, so copy forces.
 Force constants in Cartesian coordinates: 
                1             2             3             4             5 
      1  0.145939D+00
      2  0.137115D-01  0.162393D+00
      3 -0.176972D-02  0.103860D-01  0.110605D+00
      4 -0.379566D-01  0.977341D-02  0.254658D-01  0.601835D-01
      5 -0.147565D-01 -0.324598D-01  0.123508D-01 -0.222049D-03  0.686570D-01
      6  0.936228D-03 -0.456076D-02 -0.283028D-01 -0.200745D-01  0.199540D-01
      7 -0.353001D-01  0.717793D-02 -0.256198D-01 -0.591396D-02 -0.714848D-03
      8 -0.148254D-01 -0.233650D-01 -0.139242D-01 -0.139092D-02 -0.552454D-02
      9 -0.287217D-02  0.285714D-02 -0.295853D-01 -0.926644D-02  0.719635D-02
     10 -0.102108D-01 -0.121021D-01  0.181059D-02 -0.163386D-01  0.667067D-02
     11 -0.931588D-02 -0.170700D-01 -0.877379D-03 -0.137987D-01 -0.377992D-01
     12 -0.454058D-03 -0.207705D-02 -0.623211D-02 -0.392600D-02 -0.305431D-01
     13 -0.269004D-01 -0.738284D-02 -0.276980D-03 -0.782992D-04  0.669924D-02
     14  0.402542D-02 -0.474429D-01  0.518949D-02  0.697390D-02  0.600259D-04
     15 -0.182670D-03 -0.317731D-02 -0.161647D-01  0.541970D-02 -0.509231D-02
     16 -0.340689D-01 -0.979200D-02  0.276483D-02  0.124743D-03  0.233876D-02
     17  0.185555D-01 -0.444719D-01 -0.172226D-01 -0.125409D-02  0.712662D-02
     18  0.191015D-02 -0.566823D-02 -0.341691D-01  0.231785D-02 -0.391269D-02
     19 -0.150244D-02 -0.138589D-02 -0.237469D-02 -0.207808D-04 -0.153074D-04
     20  0.260536D-02  0.241621D-02  0.409788D-02 -0.815666D-04 -0.600832D-04
     21  0.243224D-02  0.224026D-02  0.384940D-02  0.636365D-04  0.468756D-04
                6             7             8             9            10 
      6  0.904059D-01
      7  0.106230D-01  0.595776D-01
      8 -0.115720D-01  0.180374D-02  0.603213D-01
      9 -0.496547D-01  0.180296D-01 -0.156877D-01  0.962849D-01
     10  0.792572D-02 -0.161980D-01  0.517874D-02 -0.807061D-02  0.865253D-01
     11 -0.247672D-02 -0.132196D-01 -0.343995D-01  0.358818D-02  0.220730D-01
     12 -0.187877D-01  0.575554D-02  0.319927D-01 -0.226704D-01 -0.230794D-02
     13  0.120736D-03 -0.366133D-03  0.666726D-02 -0.303143D-03 -0.415589D-01
     14  0.207605D-03  0.644311D-02  0.430634D-03  0.127522D-03 -0.182367D-01
     15  0.267546D-02 -0.567825D-02  0.548534D-02  0.126463D-02  0.894058D-03
     16  0.507650D-03 -0.180589D-02  0.254362D-02  0.249873D-02 -0.221339D-02
     17 -0.139979D-02 -0.151583D-02  0.244696D-02  0.198134D-02 -0.356962D-02
     18  0.354498D-02 -0.309021D-02  0.377628D-02  0.431189D-02 -0.267112D-03
     19 -0.388158D-04  0.649828D-05  0.229834D-04 -0.159983D-04 -0.569489D-05
     20 -0.152356D-03  0.255064D-04  0.902120D-04 -0.627951D-04 -0.139389D-04
     21  0.118865D-03 -0.198995D-04 -0.703815D-04  0.489914D-04  0.152933D-04
               11            12            13            14            15 
     11  0.113118D+00
     12 -0.457128D-02  0.570964D-01
     13  0.167436D-01 -0.328360D-02  0.101451D+00
     14 -0.323369D-01  0.583834D-02 -0.190734D-02  0.106076D+00
     15  0.639288D-02 -0.138725D-01 -0.268427D-02 -0.204830D-01  0.402189D-01
     16 -0.245542D-02  0.429128D-02 -0.313763D-01  0.209385D-02  0.396384D-02
     17  0.840697D-02 -0.693338D-03 -0.180763D-01 -0.281731D-01  0.209988D-01
     18 -0.209068D-02  0.432493D-02  0.331363D-02  0.107264D-01 -0.187445D-01
     19 -0.270150D-04 -0.752259D-04 -0.117111D-02  0.607761D-03 -0.173240D-02
     20  0.810856D-04  0.536834D-04 -0.274369D-02  0.138648D-02 -0.412442D-02
     21  0.350006D-04  0.141360D-03  0.311363D-02 -0.160632D-02  0.462271D-02
               16            17            18            19            20 
     16  0.984988D-01
     17  0.816040D-02  0.656463D-01
     18  0.218347D-02 -0.167202D-02  0.646922D-01
     19 -0.291590D-01 -0.230008D-02 -0.636778D-02  0.318525D-01
     20 -0.288921D-02 -0.109819D-01 -0.115903D-02  0.309754D-02  0.706795D-02
     21 -0.162098D-01 -0.199246D-02 -0.239604D-01  0.106049D-01  0.134703D-02
               21 
     21  0.151790D-01
 Leave Link  716 at Mon Nov 13 15:40:55 2023, MaxMem=  1879048192 cpu:               0.5 elap:               0.0
 (Enter /home/sekinelabo/g16/l103.exe)

 GradGradGradGradGradGradGradGradGradGradGradGradGradGradGradGradGradGrad
 Berny optimization.
 Search for a local minimum.
 Step number   1 out of a maximum of    2
 All quantities printed in internal units (Hartrees-Bohrs-Radians)
 Second derivative matrix not updated -- first step.
 ITU=  0
     Eigenvalues ---    0.01311   0.01570   0.02690   0.05040   0.06790
     Eigenvalues ---    0.07832   0.09972   0.11171   0.12874   0.14410
     Eigenvalues ---    0.15125   0.16111   0.17454   0.19098   0.21528
 Quadratic step=4.439D-01 exceeds max=3.000D-01 adjusted using Lamda=-1.958D-02.
 Angle between NR and scaled steps=  11.84 degrees.
 Angle between quadratic step and forces=  28.90 degrees.
 Linear search not attempted -- first point.
 B after Tr=    -0.000000    0.000000   -0.000000
         Rot=    1.000000   -0.000000    0.000000    0.000000 Ang=   0.00 deg.
 Variable       Old X    -DE/DX   Delta X   Delta X   Delta X     New X
                                 (Linear)    (Quad)   (Total)
    X1        9.88740  -0.00523   0.00000  -0.01624  -0.01624   9.87117
    Y1        0.00000  -0.01261   0.00000  -0.05805  -0.05805  -0.05805
    Z1        2.77815  -0.00080   0.00000   0.00138   0.00138   2.77953
    X2       14.82446   0.00636   0.00000   0.09609   0.09609  14.92056
    Y2        0.34233  -0.00786   0.00000  -0.07340  -0.07340   0.26893
    Z2        0.00000  -0.00808   0.00000  -0.04846  -0.04846  -0.04846
    X3       14.74325   0.00382   0.00000   0.07623   0.07623  14.81948
    Y3        0.62515  -0.00711   0.00000  -0.06770  -0.06770   0.55744
    Z3        5.64862   0.00815   0.00000   0.04081   0.04081   5.68943
    X4       15.05035   0.00560   0.00000   0.07747   0.07747  15.12781
    Y4        5.39078   0.01531   0.00000   0.09866   0.09866   5.48943
    Z4        2.58199  -0.00129   0.00000  -0.01755  -0.01755   2.56444
    X5        9.38292  -0.00047   0.00000  -0.01406  -0.01406   9.36886
    Y5        5.65679   0.01355   0.00000   0.11556   0.11556   5.77235
    Z5        2.57600  -0.00185   0.00000   0.00375   0.00375   2.57976
    X6        5.06201  -0.00597   0.00000  -0.09471  -0.09471   4.96730
    Y6        2.48140  -0.00038   0.00000   0.00855   0.00855   2.48996
    Z6        4.38295   0.00602   0.00000   0.04460   0.04460   4.42755
    X7        0.00000  -0.00411   0.00000  -0.12478  -0.12478  -0.12478
    Y7        1.85500  -0.00091   0.00000  -0.02362  -0.02362   1.83139
    Z7        1.92705  -0.00216   0.00000  -0.02453  -0.02453   1.90252
         Item               Value     Threshold  Converged?
 Maximum Force            0.015313     0.000450     NO 
 RMS     Force            0.007021     0.000300     NO 
 Maximum Displacement     0.124785     0.001800     NO 
 RMS     Displacement     0.065478     0.001200     NO 
 Predicted change in Energy=-5.107839D-03
 GradGradGradGradGradGradGradGradGradGradGradGradGradGradGradGradGradGrad

 Leave Link  103 at Mon Nov 13 15:40:55 2023, MaxMem=  1879048192 cpu:               0.3 elap:               0.0
 (Enter /home/sekinelabo/g16/l9999.exe)
 1\1\GINC-SEKINELABO-XA7R-R37\Force\UB3LYP\6-311+G(d)\Na7(2)\SEKINELABO
 \13-Nov-2023\0\\#P B3LYP/6-311+g(d) force\\Gaussian input prepared by 
 ASE\\0,2\Na,5.2321875717,0.,1.4701351752\Na,7.844768812,0.1811529347,0
 .\Na,7.8017935269,0.3308142581,2.9891200028\Na,7.9642997875,2.85267702
 76,1.3663304661\Na,4.9652250376,2.99344212,1.3631612951\Na,2.678698055
 7,1.3131005922,2.3193593649\Na,0.,0.9816260999,1.0197487457\\Version=E
 S64L-G16RevB.01\State=2-A\HF=-1136.0872162\S2=0.784108\S2-1=0.\S2A=0.7
 5045\RMSD=2.453e-09\RMSF=7.021e-03\Dipole=0.353844,-0.1536979,-0.04051
 49\Quadrupole=3.94744,-11.081495,7.134055,-0.8081936,2.5061306,1.09799
 13\PG=C01 [X(Na7)]\\@


 WHEN HAVING A MEETING OF THE MINDS,
 MAKE SURE YOU HAVE THE EQUIPMENT FOR IT.
 Job cpu time:       0 days  0 hours  5 minutes 54.2 seconds.
 Elapsed time:       0 days  0 hours  0 minutes 29.4 seconds.
 File lengths (MBytes):  RWF=     32 Int=      0 D2E=      0 Chk=      5 Scr=      1
 Normal termination of Gaussian 16 at Mon Nov 13 15:40:55 2023.
