 Entering Gaussian System, Link 0=g16
 Initial command:
 /home/sekinelabo/g16/l1.exe "/home/sekinelabo/g16temp/Gau-4033331.inp" -scrdir="/home/sekinelabo/g16temp/"
 Entering Link 1 = /home/sekinelabo/g16/l1.exe PID=   4033333.
  
 Copyright (c) 1988-2017, Gaussian, Inc.  All Rights Reserved.
  
 This is part of the Gaussian(R) 16 program.  It is based on
 the Gaussian(R) 09 system (copyright 2009, Gaussian, Inc.),
 the Gaussian(R) 03 system (copyright 2003, Gaussian, Inc.),
 the Gaussian(R) 98 system (copyright 1998, Gaussian, Inc.),
 the Gaussian(R) 94 system (copyright 1995, Gaussian, Inc.),
 the Gaussian 92(TM) system (copyright 1992, Gaussian, Inc.),
 the Gaussian 90(TM) system (copyright 1990, Gaussian, Inc.),
 the Gaussian 88(TM) system (copyright 1988, Gaussian, Inc.),
 the Gaussian 86(TM) system (copyright 1986, Carnegie Mellon
 University), and the Gaussian 82(TM) system (copyright 1983,
 Carnegie Mellon University). Gaussian is a federally registered
 trademark of Gaussian, Inc.
  
 This software contains proprietary and confidential information,
 including trade secrets, belonging to Gaussian, Inc.
  
 This software is provided under written license and may be
 used, copied, transmitted, or stored only in accord with that
 written license.
  
 The following legend is applicable only to US Government
 contracts under FAR:
  
                    RESTRICTED RIGHTS LEGEND
  
 Use, reproduction and disclosure by the US Government is
 subject to restrictions as set forth in subparagraphs (a)
 and (c) of the Commercial Computer Software - Restricted
 Rights clause in FAR 52.227-19.
  
 Gaussian, Inc.
 340 Quinnipiac St., Bldg. 40, Wallingford CT 06492
  
  
 ---------------------------------------------------------------
 Warning -- This program may not be used in any manner that
 competes with the business of Gaussian, Inc. or will provide
 assistance to any competitor of Gaussian, Inc.  The licensee
 of this program is prohibited from giving any competitor of
 Gaussian, Inc. access to this program.  By using this program,
 the user acknowledges that Gaussian, Inc. is engaged in the
 business of creating and licensing software in the field of
 computational chemistry and represents and warrants to the
 licensee that it is not a competitor of Gaussian, Inc. and that
 it will not use this program in any manner prohibited above.
 ---------------------------------------------------------------
  

 Cite this work as:
 Gaussian 16, Revision B.01,
 M. J. Frisch, G. W. Trucks, H. B. Schlegel, G. E. Scuseria, 
 M. A. Robb, J. R. Cheeseman, G. Scalmani, V. Barone, 
 G. A. Petersson, H. Nakatsuji, X. Li, M. Caricato, A. V. Marenich, 
 J. Bloino, B. G. Janesko, R. Gomperts, B. Mennucci, H. P. Hratchian, 
 J. V. Ortiz, A. F. Izmaylov, J. L. Sonnenberg, D. Williams-Young, 
 F. Ding, F. Lipparini, F. Egidi, J. Goings, B. Peng, A. Petrone, 
 T. Henderson, D. Ranasinghe, V. G. Zakrzewski, J. Gao, N. Rega, 
 G. Zheng, W. Liang, M. Hada, M. Ehara, K. Toyota, R. Fukuda, 
 J. Hasegawa, M. Ishida, T. Nakajima, Y. Honda, O. Kitao, H. Nakai, 
 T. Vreven, K. Throssell, J. A. Montgomery, Jr., J. E. Peralta, 
 F. Ogliaro, M. J. Bearpark, J. J. Heyd, E. N. Brothers, K. N. Kudin, 
 V. N. Staroverov, T. A. Keith, R. Kobayashi, J. Normand, 
 K. Raghavachari, A. P. Rendell, J. C. Burant, S. S. Iyengar, 
 J. Tomasi, M. Cossi, J. M. Millam, M. Klene, C. Adamo, R. Cammi, 
 J. W. Ochterski, R. L. Martin, K. Morokuma, O. Farkas, 
 J. B. Foresman, and D. J. Fox, Gaussian, Inc., Wallingford CT, 2016.
 
 ******************************************
 Gaussian 16:  ES64L-G16RevB.01 20-Dec-2017
                13-Nov-2023 
 ******************************************
 %mem=14GB
 %chk=checkpoint.chk
 %nprocshared=16
 Will use up to   16 processors via shared memory.
 -------------------------
 #P B3LYP/6-311+g(d) force
 -------------------------
 1/10=7,30=1,38=1/1,3;
 2/12=2,17=6,18=5,40=1/2;
 3/5=4,6=6,7=11,11=2,25=1,30=1,71=1,74=-5/1,2,3;
 4//1;
 5/5=2,38=5/2;
 6/7=2,8=2,9=2,10=2,28=1/1;
 7/29=1/1,2,3,16;
 1/10=7,30=1/3;
 99//99;
 Leave Link    1 at Mon Nov 13 16:00:03 2023, MaxMem=  1879048192 cpu:               0.3 elap:               0.0
 (Enter /home/sekinelabo/g16/l101.exe)
 ------------------------------
 Gaussian input prepared by ASE
 ------------------------------
 Symbolic Z-matrix:
 Charge =  0 Multiplicity = 2
 Na                    2.71665   0.        3.04351 
 Na                    3.43823   0.10251   0.13009 
 Na                    6.08715   1.19447   1.01242 
 Na                    4.49806   2.4091    3.24489 
 Na                    2.88652   4.36139   1.63686 
 Na                    1.41992   2.32286   0. 
 Na                    0.        1.03341   2.3066 
 
 ITRead=  0  0  0  0  0  0  0
 MicOpt= -1 -1 -1 -1 -1 -1 -1
 NAtoms=      7 NQM=        7 NQMF=       0 NMMI=      0 NMMIF=      0
                NMic=       0 NMicF=      0.
                    Isotopes and Nuclear Properties:
 (Nuclear quadrupole moments (NQMom) in fm**2, nuclear magnetic moments (NMagM)
  in nuclear magnetons)

  Atom         1           2           3           4           5           6           7
 IAtWgt=          23          23          23          23          23          23          23
 AtmWgt=  22.9897697  22.9897697  22.9897697  22.9897697  22.9897697  22.9897697  22.9897697
 NucSpn=           3           3           3           3           3           3           3
 AtZEff=  -0.0000000  -0.0000000  -0.0000000  -0.0000000  -0.0000000  -0.0000000  -0.0000000
 NQMom=   10.4000000  10.4000000  10.4000000  10.4000000  10.4000000  10.4000000  10.4000000
 NMagM=    2.2175200   2.2175200   2.2175200   2.2175200   2.2175200   2.2175200   2.2175200
 AtZNuc=  11.0000000  11.0000000  11.0000000  11.0000000  11.0000000  11.0000000  11.0000000
 Leave Link  101 at Mon Nov 13 16:00:03 2023, MaxMem=  1879048192 cpu:               2.6 elap:               0.2
 (Enter /home/sekinelabo/g16/l103.exe)

 GradGradGradGradGradGradGradGradGradGradGradGradGradGradGradGradGradGrad
 Berny optimization.
 Initialization pass.
 Trust Radius=3.00D-01 FncErr=1.00D-07 GrdErr=1.00D-07 EigMax=2.50D+02 EigMin=1.00D-04
 Number of steps in this run=      2 maximum allowed number of steps=      2.
 GradGradGradGradGradGradGradGradGradGradGradGradGradGradGradGradGradGrad

 Leave Link  103 at Mon Nov 13 16:00:03 2023, MaxMem=  1879048192 cpu:               0.2 elap:               0.0
 (Enter /home/sekinelabo/g16/l202.exe)
                          Input orientation:                          
 ---------------------------------------------------------------------
 Center     Atomic      Atomic             Coordinates (Angstroms)
 Number     Number       Type             X           Y           Z
 ---------------------------------------------------------------------
      1         11           0        2.716651    0.000000    3.043505
      2         11           0        3.438231    0.102511    0.130094
      3         11           0        6.087151    1.194468    1.012419
      4         11           0        4.498063    2.409100    3.244889
      5         11           0        2.886525    4.361393    1.636860
      6         11           0        1.419921    2.322864    0.000000
      7         11           0        0.000000    1.033412    2.306602
 ---------------------------------------------------------------------
                    Distance matrix (angstroms):
                    1          2          3          4          5
     1  Na   0.000000
     2  Na   3.003190   0.000000
     3  Na   4.112461   2.997940   0.000000
     4  Na   3.002957   4.018152   2.997408   0.000000
     5  Na   4.585767   4.551132   4.545696   2.999043   0.000000
     6  Na   4.042293   3.003409   4.907271   4.473444   2.997638
     7  Na   2.998526   4.174350   6.225292   4.796402   4.456011
                    6          7
     6  Na   0.000000
     7  Na   2.999880   0.000000
 Stoichiometry    Na7(2)
 Framework group  C1[X(Na7)]
 Deg. of freedom    15
 Full point group                 C1      NOp   1
 Largest Abelian subgroup         C1      NOp   1
 Largest concise Abelian subgroup C1      NOp   1
                         Standard orientation:                         
 ---------------------------------------------------------------------
 Center     Atomic      Atomic             Coordinates (Angstroms)
 Number     Number       Type             X           Y           Z
 ---------------------------------------------------------------------
      1         11           0        0.289998   -1.631964   -1.418595
      2         11           0       -0.431582   -1.529453    1.494816
      3         11           0       -3.080502   -0.437496    0.612491
      4         11           0       -1.491415    0.777136   -1.619979
      5         11           0        0.120124    2.729429   -0.011950
      6         11           0        1.586728    0.690900    1.624910
      7         11           0        3.006649   -0.598552   -0.681692
 ---------------------------------------------------------------------
 Rotational constants (GHZ):           0.8996500           0.6483106           0.5840346
 Leave Link  202 at Mon Nov 13 16:00:03 2023, MaxMem=  1879048192 cpu:               0.1 elap:               0.0
 (Enter /home/sekinelabo/g16/l301.exe)
 Standard basis: 6-311+G(d) (5D, 7F)
 Ernie: Thresh=  0.10000D-02 Tol=  0.10000D-05 Strict=F.
 There are   217 symmetry adapted cartesian basis functions of A   symmetry.
 There are   210 symmetry adapted basis functions of A   symmetry.
   210 basis functions,   350 primitive gaussians,   217 cartesian basis functions
    39 alpha electrons       38 beta electrons
       nuclear repulsion energy       362.2599533594 Hartrees.
 IExCor=  402 DFT=T Ex+Corr=B3LYP ExCW=0 ScaHFX=  0.200000
 ScaDFX=  0.800000  0.720000  1.000000  0.810000 ScalE2=  1.000000  1.000000
 IRadAn=      5 IRanWt=     -1 IRanGd=            0 ICorTp=0 IEmpDi=  4
 NAtoms=    7 NActive=    7 NUniq=    7 SFac= 1.00D+00 NAtFMM=   60 NAOKFM=F Big=F
 Integral buffers will be    131072 words long.
 Raffenetti 2 integral format.
 Two-electron integral symmetry is turned on.
 Leave Link  301 at Mon Nov 13 16:00:03 2023, MaxMem=  1879048192 cpu:               0.5 elap:               0.0
 (Enter /home/sekinelabo/g16/l302.exe)
 NPDir=0 NMtPBC=     1 NCelOv=     1 NCel=       1 NClECP=     1 NCelD=      1
         NCelK=      1 NCelE2=     1 NClLst=     1 CellRange=     0.0.
 One-electron integrals computed using PRISM.
 One-electron integral symmetry used in STVInt
 NBasis=   210 RedAO= T EigKep=  1.64D-06  NBF=   210
 NBsUse=   209 1.00D-06 EigRej=  7.52D-07 NBFU=   209
 Precomputing XC quadrature grid using
 IXCGrd= 4 IRadAn=           5 IRanWt=          -1 IRanGd=           0 AccXCQ= 0.00D+00.
 Generated NRdTot=       0 NPtTot=           0 NUsed=           0 NTot=          32
 NSgBfM=   209   209   209   209   209 MxSgAt=     7 MxSgA2=     7.
 Leave Link  302 at Mon Nov 13 16:00:03 2023, MaxMem=  1879048192 cpu:               2.6 elap:               0.2
 (Enter /home/sekinelabo/g16/l303.exe)
 DipDrv:  MaxL=1.
 Leave Link  303 at Mon Nov 13 16:00:04 2023, MaxMem=  1879048192 cpu:               0.5 elap:               0.0
 (Enter /home/sekinelabo/g16/l401.exe)
 ExpMin= 7.60D-03 ExpMax= 3.62D+04 ExpMxC= 1.21D+03 IAcc=3 IRadAn=         5 AccDes= 0.00D+00
 Harris functional with IExCor=  402 and IRadAn=       5 diagonalized for initial guess.
 HarFok:  IExCor=  402 AccDes= 0.00D+00 IRadAn=         5 IDoV= 1 UseB2=F ITyADJ=14
 ICtDFT=  3500011 ScaDFX=  1.000000  1.000000  1.000000  1.000000
 FoFCou: FMM=F IPFlag=           0 FMFlag=      100000 FMFlg1=           0
         NFxFlg=           0 DoJE=T BraDBF=F KetDBF=T FulRan=T
         wScrn=  0.000000 ICntrl=       500 IOpCl=  0 I1Cent=   200000004 NGrid=           0
         NMat0=    1 NMatS0=      1 NMatT0=    0 NMatD0=    1 NMtDS0=    0 NMtDT0=    0
 Petite list used in FoFCou.
 Harris En= -1135.87930389089    
 JPrj=0 DoOrth=F DoCkMO=F.
 Initial guess <Sx>= 0.0000 <Sy>= 0.0000 <Sz>= 0.5000 <S**2>= 0.7500 S= 0.5000
 Leave Link  401 at Mon Nov 13 16:00:04 2023, MaxMem=  1879048192 cpu:               4.7 elap:               0.3
 (Enter /home/sekinelabo/g16/l502.exe)
 Keep R1 and R2 ints in memory in canonical form, NReq=507620346.
 FoFCou: FMM=F IPFlag=           0 FMFlag=           0 FMFlg1=           0
         NFxFlg=           0 DoJE=F BraDBF=F KetDBF=F FulRan=T
         wScrn=  0.000000 ICntrl=       600 IOpCl=  0 I1Cent=           0 NGrid=           0
         NMat0=    1 NMatS0=  22155 NMatT0=    0 NMatD0=    1 NMtDS0=    0 NMtDT0=    0
 Symmetry not used in FoFCou.
 Two-electron integral symmetry not used.
 UHF open shell SCF:
 Using DIIS extrapolation, IDIIS=  1040.
 NGot=  1879048192 LenX=  1388082390 LenY=  1388034860
 Requested convergence on RMS density matrix=1.00D-08 within 128 cycles.
 Requested convergence on MAX density matrix=1.00D-06.
 Requested convergence on             energy=1.00D-06.
 No special actions if energy rises.

 Cycle   1  Pass 1  IDiag  1:
 E= -1136.07297400110    
 DIIS: error= 1.52D-02 at cycle   1 NSaved=   1.
 NSaved= 1 IEnMin= 1 EnMin= -1136.07297400110     IErMin= 1 ErrMin= 1.52D-02
 ErrMax= 1.52D-02  0.00D+00 EMaxC= 1.00D-01 BMatC= 1.97D-01 BMatP= 1.97D-01
 IDIUse=3 WtCom= 8.48D-01 WtEn= 1.52D-01
 Coeff-Com:  0.100D+01
 Coeff-En:   0.100D+01
 Coeff:      0.100D+01
 Gap=     0.052 Goal=   None    Shift=    0.000
 Gap=     0.030 Goal=   None    Shift=    0.000
 GapD=    0.030 DampG=0.250 DampE=0.500 DampFc=0.2500 IDamp=-1.
 Damping current iteration by 2.50D-01
 RMSDP=1.92D-02 MaxDP=1.60D+00              OVMax= 2.16D-01

 Cycle   2  Pass 1  IDiag  1:
 E= -1136.08541953312     Delta-E=       -0.012445532026 Rises=F Damp=T
 DIIS: error= 1.06D-02 at cycle   2 NSaved=   2.
 NSaved= 2 IEnMin= 2 EnMin= -1136.08541953312     IErMin= 2 ErrMin= 1.06D-02
 ErrMax= 1.06D-02  0.00D+00 EMaxC= 1.00D-01 BMatC= 7.49D-02 BMatP= 1.97D-01
 IDIUse=3 WtCom= 8.94D-01 WtEn= 1.06D-01
 Coeff-Com: -0.129D+01 0.229D+01
 Coeff-En:   0.000D+00 0.100D+01
 Coeff:     -0.115D+01 0.215D+01
 Gap=     0.060 Goal=   None    Shift=    0.000
 Gap=     0.034 Goal=   None    Shift=    0.000
 RMSDP=9.83D-03 MaxDP=9.43D-01 DE=-1.24D-02 OVMax= 1.32D-01

 Cycle   3  Pass 1  IDiag  1:
 E= -1136.10826451819     Delta-E=       -0.022844985066 Rises=F Damp=F
 DIIS: error= 2.12D-03 at cycle   3 NSaved=   3.
 NSaved= 3 IEnMin= 3 EnMin= -1136.10826451819     IErMin= 3 ErrMin= 2.12D-03
 ErrMax= 2.12D-03  0.00D+00 EMaxC= 1.00D-01 BMatC= 1.29D-03 BMatP= 7.49D-02
 IDIUse=3 WtCom= 9.79D-01 WtEn= 2.12D-02
 Coeff-Com: -0.332D-01 0.946D-01 0.939D+00
 Coeff-En:   0.000D+00 0.000D+00 0.100D+01
 Coeff:     -0.325D-01 0.926D-01 0.940D+00
 Gap=     0.056 Goal=   None    Shift=    0.000
 Gap=     0.035 Goal=   None    Shift=    0.000
 RMSDP=3.75D-03 MaxDP=2.22D-01 DE=-2.28D-02 OVMax= 4.17D-02

 Cycle   4  Pass 1  IDiag  1:
 E= -1136.10804293833     Delta-E=        0.000221579860 Rises=F Damp=F
 DIIS: error= 2.56D-03 at cycle   4 NSaved=   4.
 NSaved= 4 IEnMin= 3 EnMin= -1136.10826451819     IErMin= 3 ErrMin= 2.12D-03
 ErrMax= 2.56D-03  0.00D+00 EMaxC= 1.00D-01 BMatC= 1.37D-03 BMatP= 1.29D-03
 IDIUse=3 WtCom= 9.74D-01 WtEn= 2.56D-02
 Coeff-Com:  0.347D-01-0.464D-01 0.520D+00 0.491D+00
 Coeff-En:   0.000D+00 0.000D+00 0.564D+00 0.436D+00
 Coeff:      0.339D-01-0.452D-01 0.522D+00 0.490D+00
 Gap=     0.058 Goal=   None    Shift=    0.000
 Gap=     0.035 Goal=   None    Shift=    0.000
 RMSDP=1.41D-03 MaxDP=6.60D-02 DE= 2.22D-04 OVMax= 2.33D-02

 Cycle   5  Pass 1  IDiag  1:
 E= -1136.10898890779     Delta-E=       -0.000945969463 Rises=F Damp=F
 DIIS: error= 2.10D-04 at cycle   5 NSaved=   5.
 NSaved= 5 IEnMin= 5 EnMin= -1136.10898890779     IErMin= 5 ErrMin= 2.10D-04
 ErrMax= 2.10D-04  0.00D+00 EMaxC= 1.00D-01 BMatC= 1.03D-05 BMatP= 1.29D-03
 IDIUse=3 WtCom= 9.98D-01 WtEn= 2.10D-03
 Coeff-Com:  0.109D-01-0.152D-01 0.197D+00 0.191D+00 0.616D+00
 Coeff-En:   0.000D+00 0.000D+00 0.000D+00 0.000D+00 0.100D+01
 Coeff:      0.109D-01-0.151D-01 0.197D+00 0.190D+00 0.617D+00
 Gap=     0.059 Goal=   None    Shift=    0.000
 Gap=     0.035 Goal=   None    Shift=    0.000
 RMSDP=1.59D-04 MaxDP=5.75D-03 DE=-9.46D-04 OVMax= 5.93D-03

 Cycle   6  Pass 1  IDiag  1:
 E= -1136.10899745601     Delta-E=       -0.000008548221 Rises=F Damp=F
 DIIS: error= 1.47D-04 at cycle   6 NSaved=   6.
 NSaved= 6 IEnMin= 6 EnMin= -1136.10899745601     IErMin= 6 ErrMin= 1.47D-04
 ErrMax= 1.47D-04  0.00D+00 EMaxC= 1.00D-01 BMatC= 4.94D-06 BMatP= 1.03D-05
 IDIUse=3 WtCom= 9.99D-01 WtEn= 1.47D-03
 Coeff-Com: -0.734D-02 0.939D-02-0.704D-01-0.642D-01 0.415D+00 0.718D+00
 Coeff-En:   0.000D+00 0.000D+00 0.000D+00 0.000D+00 0.263D+00 0.737D+00
 Coeff:     -0.733D-02 0.938D-02-0.703D-01-0.641D-01 0.414D+00 0.718D+00
 Gap=     0.059 Goal=   None    Shift=    0.000
 Gap=     0.035 Goal=   None    Shift=    0.000
 RMSDP=8.99D-05 MaxDP=3.89D-03 DE=-8.55D-06 OVMax= 3.42D-03

 Cycle   7  Pass 1  IDiag  1:
 E= -1136.10900490469     Delta-E=       -0.000007448677 Rises=F Damp=F
 DIIS: error= 2.41D-05 at cycle   7 NSaved=   7.
 NSaved= 7 IEnMin= 7 EnMin= -1136.10900490469     IErMin= 7 ErrMin= 2.41D-05
 ErrMax= 2.41D-05  0.00D+00 EMaxC= 1.00D-01 BMatC= 1.60D-07 BMatP= 4.94D-06
 IDIUse=1 WtCom= 1.00D+00 WtEn= 0.00D+00
 Coeff-Com: -0.104D-02 0.141D-02-0.256D-01-0.211D-01-0.664D-01 0.185D-01
 Coeff-Com:  0.109D+01
 Coeff:     -0.104D-02 0.141D-02-0.256D-01-0.211D-01-0.664D-01 0.185D-01
 Coeff:      0.109D+01
 Gap=     0.059 Goal=   None    Shift=    0.000
 Gap=     0.035 Goal=   None    Shift=    0.000
 RMSDP=5.29D-05 MaxDP=2.67D-03 DE=-7.45D-06 OVMax= 1.55D-03

 Cycle   8  Pass 1  IDiag  1:
 E= -1136.10900548781     Delta-E=       -0.000000583118 Rises=F Damp=F
 DIIS: error= 2.33D-05 at cycle   8 NSaved=   8.
 NSaved= 8 IEnMin= 8 EnMin= -1136.10900548781     IErMin= 8 ErrMin= 2.33D-05
 ErrMax= 2.33D-05  0.00D+00 EMaxC= 1.00D-01 BMatC= 1.12D-07 BMatP= 1.60D-07
 IDIUse=1 WtCom= 1.00D+00 WtEn= 0.00D+00
 Coeff-Com:  0.181D-03-0.193D-03-0.937D-02-0.734D-02-0.790D-01-0.541D-01
 Coeff-Com:  0.665D+00 0.485D+00
 Coeff:      0.181D-03-0.193D-03-0.937D-02-0.734D-02-0.790D-01-0.541D-01
 Coeff:      0.665D+00 0.485D+00
 Gap=     0.059 Goal=   None    Shift=    0.000
 Gap=     0.035 Goal=   None    Shift=    0.000
 RMSDP=1.45D-05 MaxDP=5.49D-04 DE=-5.83D-07 OVMax= 6.32D-04

 Cycle   9  Pass 1  IDiag  1:
 E= -1136.10900566861     Delta-E=       -0.000000180800 Rises=F Damp=F
 DIIS: error= 1.01D-05 at cycle   9 NSaved=   9.
 NSaved= 9 IEnMin= 9 EnMin= -1136.10900566861     IErMin= 9 ErrMin= 1.01D-05
 ErrMax= 1.01D-05  0.00D+00 EMaxC= 1.00D-01 BMatC= 2.77D-08 BMatP= 1.12D-07
 IDIUse=1 WtCom= 1.00D+00 WtEn= 0.00D+00
 Coeff-Com:  0.715D-03-0.929D-03 0.629D-02 0.501D-02-0.170D-01-0.423D-01
 Coeff-Com: -0.118D+00 0.317D+00 0.849D+00
 Coeff:      0.715D-03-0.929D-03 0.629D-02 0.501D-02-0.170D-01-0.423D-01
 Coeff:     -0.118D+00 0.317D+00 0.849D+00
 Gap=     0.059 Goal=   None    Shift=    0.000
 Gap=     0.035 Goal=   None    Shift=    0.000
 RMSDP=1.68D-05 MaxDP=8.60D-04 DE=-1.81D-07 OVMax= 5.76D-04

 Cycle  10  Pass 1  IDiag  1:
 E= -1136.10900577069     Delta-E=       -0.000000102085 Rises=F Damp=F
 DIIS: error= 3.29D-06 at cycle  10 NSaved=  10.
 NSaved=10 IEnMin=10 EnMin= -1136.10900577069     IErMin=10 ErrMin= 3.29D-06
 ErrMax= 3.29D-06  0.00D+00 EMaxC= 1.00D-01 BMatC= 3.85D-09 BMatP= 2.77D-08
 IDIUse=1 WtCom= 1.00D+00 WtEn= 0.00D+00
 Coeff-Com: -0.950D-05 0.104D-04 0.338D-02 0.261D-02 0.157D-01 0.355D-02
 Coeff-Com: -0.180D+00-0.553D-01 0.124D+00 0.109D+01
 Coeff:     -0.950D-05 0.104D-04 0.338D-02 0.261D-02 0.157D-01 0.355D-02
 Coeff:     -0.180D+00-0.553D-01 0.124D+00 0.109D+01
 Gap=     0.059 Goal=   None    Shift=    0.000
 Gap=     0.035 Goal=   None    Shift=    0.000
 RMSDP=1.01D-05 MaxDP=4.59D-04 DE=-1.02D-07 OVMax= 4.12D-04

 Cycle  11  Pass 1  IDiag  1:
 E= -1136.10900579983     Delta-E=       -0.000000029138 Rises=F Damp=F
 DIIS: error= 1.76D-06 at cycle  11 NSaved=  11.
 NSaved=11 IEnMin=11 EnMin= -1136.10900579983     IErMin=11 ErrMin= 1.76D-06
 ErrMax= 1.76D-06  0.00D+00 EMaxC= 1.00D-01 BMatC= 1.46D-09 BMatP= 3.85D-09
 IDIUse=1 WtCom= 1.00D+00 WtEn= 0.00D+00
 Coeff-Com: -0.231D-03 0.296D-03 0.519D-04 0.755D-04 0.142D-01 0.149D-01
 Coeff-Com: -0.748D-01-0.113D+00-0.167D+00 0.512D+00 0.813D+00
 Coeff:     -0.231D-03 0.296D-03 0.519D-04 0.755D-04 0.142D-01 0.149D-01
 Coeff:     -0.748D-01-0.113D+00-0.167D+00 0.512D+00 0.813D+00
 Gap=     0.059 Goal=   None    Shift=    0.000
 Gap=     0.035 Goal=   None    Shift=    0.000
 RMSDP=4.50D-06 MaxDP=2.22D-04 DE=-2.91D-08 OVMax= 2.07D-04

 Cycle  12  Pass 1  IDiag  1:
 E= -1136.10900580683     Delta-E=       -0.000000007005 Rises=F Damp=F
 DIIS: error= 1.08D-06 at cycle  12 NSaved=  12.
 NSaved=12 IEnMin=12 EnMin= -1136.10900580683     IErMin=12 ErrMin= 1.08D-06
 ErrMax= 1.08D-06  0.00D+00 EMaxC= 1.00D-01 BMatC= 4.17D-10 BMatP= 1.46D-09
 IDIUse=1 WtCom= 1.00D+00 WtEn= 0.00D+00
 Coeff-Com: -0.117D-03 0.150D-03-0.428D-03-0.293D-03 0.541D-02 0.742D-02
 Coeff-Com: -0.166D-01-0.488D-01-0.103D+00 0.113D+00 0.410D+00 0.632D+00
 Coeff:     -0.117D-03 0.150D-03-0.428D-03-0.293D-03 0.541D-02 0.742D-02
 Coeff:     -0.166D-01-0.488D-01-0.103D+00 0.113D+00 0.410D+00 0.632D+00
 Gap=     0.059 Goal=   None    Shift=    0.000
 Gap=     0.035 Goal=   None    Shift=    0.000
 RMSDP=1.42D-06 MaxDP=5.50D-05 DE=-7.01D-09 OVMax= 7.38D-05

 Cycle  13  Pass 1  IDiag  1:
 E= -1136.10900580802     Delta-E=       -0.000000001184 Rises=F Damp=F
 DIIS: error= 6.07D-07 at cycle  13 NSaved=  13.
 NSaved=13 IEnMin=13 EnMin= -1136.10900580802     IErMin=13 ErrMin= 6.07D-07
 ErrMax= 6.07D-07  0.00D+00 EMaxC= 1.00D-01 BMatC= 1.43D-10 BMatP= 4.17D-10
 IDIUse=1 WtCom= 1.00D+00 WtEn= 0.00D+00
 Coeff-Com:  0.541D-04-0.704D-04-0.226D-03-0.144D-03-0.389D-02-0.355D-02
 Coeff-Com:  0.271D-01 0.306D-01 0.227D-01-0.185D+00-0.189D+00 0.373D+00
 Coeff-Com:  0.928D+00
 Coeff:      0.541D-04-0.704D-04-0.226D-03-0.144D-03-0.389D-02-0.355D-02
 Coeff:      0.271D-01 0.306D-01 0.227D-01-0.185D+00-0.189D+00 0.373D+00
 Coeff:      0.928D+00
 Gap=     0.059 Goal=   None    Shift=    0.000
 Gap=     0.035 Goal=   None    Shift=    0.000
 RMSDP=1.27D-06 MaxDP=5.67D-05 DE=-1.18D-09 OVMax= 7.02D-05

 Cycle  14  Pass 1  IDiag  1:
 E= -1136.10900580863     Delta-E=       -0.000000000613 Rises=F Damp=F
 DIIS: error= 2.65D-07 at cycle  14 NSaved=  14.
 NSaved=14 IEnMin=14 EnMin= -1136.10900580863     IErMin=14 ErrMin= 2.65D-07
 ErrMax= 2.65D-07  0.00D+00 EMaxC= 1.00D-01 BMatC= 1.54D-11 BMatP= 1.43D-10
 IDIUse=1 WtCom= 1.00D+00 WtEn= 0.00D+00
 Coeff-Com:  0.147D-04-0.186D-04 0.620D-04 0.607D-04-0.296D-03-0.117D-02
 Coeff-Com: -0.425D-03 0.113D-01 0.189D-01-0.254D-01-0.570D-01-0.979D-01
 Coeff-Com: -0.652D-01 0.122D+01
 Coeff:      0.147D-04-0.186D-04 0.620D-04 0.607D-04-0.296D-03-0.117D-02
 Coeff:     -0.425D-03 0.113D-01 0.189D-01-0.254D-01-0.570D-01-0.979D-01
 Coeff:     -0.652D-01 0.122D+01
 Gap=     0.059 Goal=   None    Shift=    0.000
 Gap=     0.035 Goal=   None    Shift=    0.000
 RMSDP=5.89D-07 MaxDP=2.82D-05 DE=-6.13D-10 OVMax= 4.84D-05

 Cycle  15  Pass 1  IDiag  1:
 E= -1136.10900580878     Delta-E=       -0.000000000149 Rises=F Damp=F
 DIIS: error= 1.79D-07 at cycle  15 NSaved=  15.
 NSaved=15 IEnMin=15 EnMin= -1136.10900580878     IErMin=15 ErrMin= 1.79D-07
 ErrMax= 1.79D-07  0.00D+00 EMaxC= 1.00D-01 BMatC= 4.48D-12 BMatP= 1.54D-11
 IDIUse=1 WtCom= 1.00D+00 WtEn= 0.00D+00
 Coeff-Com: -0.146D-04 0.192D-04 0.265D-04-0.391D-06 0.775D-03 0.102D-02
 Coeff-Com: -0.565D-02-0.641D-02-0.884D-02 0.435D-01 0.408D-01-0.372D-01
 Coeff-Com: -0.171D+00-0.247D+00 0.139D+01
 Coeff:     -0.146D-04 0.192D-04 0.265D-04-0.391D-06 0.775D-03 0.102D-02
 Coeff:     -0.565D-02-0.641D-02-0.884D-02 0.435D-01 0.408D-01-0.372D-01
 Coeff:     -0.171D+00-0.247D+00 0.139D+01
 Gap=     0.059 Goal=   None    Shift=    0.000
 Gap=     0.035 Goal=   None    Shift=    0.000
 RMSDP=3.02D-07 MaxDP=1.33D-05 DE=-1.49D-10 OVMax= 3.66D-05

 Cycle  16  Pass 1  IDiag  1:
 E= -1136.10900580884     Delta-E=       -0.000000000062 Rises=F Damp=F
 DIIS: error= 1.15D-07 at cycle  16 NSaved=  16.
 NSaved=16 IEnMin=16 EnMin= -1136.10900580884     IErMin=16 ErrMin= 1.15D-07
 ErrMax= 1.15D-07  0.00D+00 EMaxC= 1.00D-01 BMatC= 1.79D-12 BMatP= 4.48D-12
 IDIUse=1 WtCom= 1.00D+00 WtEn= 0.00D+00
 Coeff-Com:  0.573D-05-0.785D-05-0.267D-04-0.111D-04-0.390D-03-0.329D-03
 Coeff-Com:  0.401D-02 0.110D-02-0.439D-02-0.183D-01-0.381D-02 0.679D-01
 Coeff-Com:  0.118D+00-0.300D+00-0.100D+01 0.214D+01
 Coeff:      0.573D-05-0.785D-05-0.267D-04-0.111D-04-0.390D-03-0.329D-03
 Coeff:      0.401D-02 0.110D-02-0.439D-02-0.183D-01-0.381D-02 0.679D-01
 Coeff:      0.118D+00-0.300D+00-0.100D+01 0.214D+01
 Gap=     0.059 Goal=   None    Shift=    0.000
 Gap=     0.035 Goal=   None    Shift=    0.000
 RMSDP=3.39D-07 MaxDP=1.50D-05 DE=-6.23D-11 OVMax= 4.47D-05

 Cycle  17  Pass 1  IDiag  1:
 E= -1136.10900580889     Delta-E=       -0.000000000048 Rises=F Damp=F
 DIIS: error= 3.77D-08 at cycle  17 NSaved=  17.
 NSaved=17 IEnMin=17 EnMin= -1136.10900580889     IErMin=17 ErrMin= 3.77D-08
 ErrMax= 3.77D-08  0.00D+00 EMaxC= 1.00D-01 BMatC= 3.23D-13 BMatP= 1.79D-12
 IDIUse=1 WtCom= 1.00D+00 WtEn= 0.00D+00
 Coeff-Com:  0.296D-05-0.384D-05-0.938D-05 0.158D-06-0.158D-03-0.188D-03
 Coeff-Com:  0.953D-03 0.182D-02 0.260D-02-0.821D-02-0.126D-01 0.107D-03
 Coeff-Com:  0.264D-01 0.159D+00-0.277D+00-0.309D+00 0.142D+01
 Coeff:      0.296D-05-0.384D-05-0.938D-05 0.158D-06-0.158D-03-0.188D-03
 Coeff:      0.953D-03 0.182D-02 0.260D-02-0.821D-02-0.126D-01 0.107D-03
 Coeff:      0.264D-01 0.159D+00-0.277D+00-0.309D+00 0.142D+01
 Gap=     0.059 Goal=   None    Shift=    0.000
 Gap=     0.035 Goal=   None    Shift=    0.000
 RMSDP=1.33D-07 MaxDP=9.08D-06 DE=-4.82D-11 OVMax= 1.69D-05

 Cycle  18  Pass 1  IDiag  1:
 E= -1136.10900580891     Delta-E=       -0.000000000015 Rises=F Damp=F
 DIIS: error= 9.39D-09 at cycle  18 NSaved=  18.
 NSaved=18 IEnMin=18 EnMin= -1136.10900580891     IErMin=18 ErrMin= 9.39D-09
 ErrMax= 9.39D-09  0.00D+00 EMaxC= 1.00D-01 BMatC= 6.79D-14 BMatP= 3.23D-13
 IDIUse=1 WtCom= 1.00D+00 WtEn= 0.00D+00
 Coeff-Com:  0.102D-08 0.836D-07-0.143D-07 0.113D-05-0.817D-05-0.305D-04
 Coeff-Com: -0.143D-03 0.374D-03 0.118D-02 0.822D-03-0.418D-02-0.117D-01
 Coeff-Com: -0.111D-01 0.105D+00 0.623D-01-0.475D+00 0.536D+00 0.796D+00
 Coeff:      0.102D-08 0.836D-07-0.143D-07 0.113D-05-0.817D-05-0.305D-04
 Coeff:     -0.143D-03 0.374D-03 0.118D-02 0.822D-03-0.418D-02-0.117D-01
 Coeff:     -0.111D-01 0.105D+00 0.623D-01-0.475D+00 0.536D+00 0.796D+00
 Gap=     0.059 Goal=   None    Shift=    0.000
 Gap=     0.035 Goal=   None    Shift=    0.000
 RMSDP=3.57D-08 MaxDP=2.11D-06 DE=-1.50D-11 OVMax= 4.56D-06

 Cycle  19  Pass 1  IDiag  1:
 E= -1136.10900580889     Delta-E=        0.000000000014 Rises=F Damp=F
 DIIS: error= 3.68D-09 at cycle  19 NSaved=  19.
 NSaved=19 IEnMin=18 EnMin= -1136.10900580891     IErMin=19 ErrMin= 3.68D-09
 ErrMax= 3.68D-09  0.00D+00 EMaxC= 1.00D-01 BMatC= 6.46D-15 BMatP= 6.79D-14
 IDIUse=1 WtCom= 1.00D+00 WtEn= 0.00D+00
 Coeff-Com: -0.456D-06 0.603D-06 0.255D-05 0.736D-06 0.291D-04 0.309D-04
 Coeff-Com: -0.242D-03-0.215D-03-0.129D-03 0.164D-02 0.111D-02-0.263D-02
 Coeff-Com: -0.676D-02-0.338D-02 0.475D-01-0.223D-01-0.128D+00 0.737D-01
 Coeff-Com:  0.104D+01
 Coeff:     -0.456D-06 0.603D-06 0.255D-05 0.736D-06 0.291D-04 0.309D-04
 Coeff:     -0.242D-03-0.215D-03-0.129D-03 0.164D-02 0.111D-02-0.263D-02
 Coeff:     -0.676D-02-0.338D-02 0.475D-01-0.223D-01-0.128D+00 0.737D-01
 Coeff:      0.104D+01
 Gap=     0.059 Goal=   None    Shift=    0.000
 Gap=     0.035 Goal=   None    Shift=    0.000
 RMSDP=1.09D-08 MaxDP=4.43D-07 DE= 1.36D-11 OVMax= 8.31D-07

 Cycle  20  Pass 1  IDiag  1:
 E= -1136.10900580891     Delta-E=       -0.000000000012 Rises=F Damp=F
 DIIS: error= 1.60D-09 at cycle  20 NSaved=  20.
 NSaved=20 IEnMin=18 EnMin= -1136.10900580891     IErMin=20 ErrMin= 1.60D-09
 ErrMax= 1.60D-09  0.00D+00 EMaxC= 1.00D-01 BMatC= 1.33D-15 BMatP= 6.46D-15
 IDIUse=1 WtCom= 1.00D+00 WtEn= 0.00D+00
 Large coefficients: NSaved= 20 BigCof=    0.00 CofMax=   10.00 Det=-2.72D-15
 Inversion failed.  Reducing to 19 matrices.
 Large coefficients: NSaved= 19 BigCof=    0.00 CofMax=   10.00 Det=-2.84D-15
 Inversion failed.  Reducing to 18 matrices.
 Large coefficients: NSaved= 18 BigCof=    0.00 CofMax=   10.00 Det=-2.85D-15
 Inversion failed.  Reducing to 17 matrices.
 Large coefficients: NSaved= 17 BigCof=    0.00 CofMax=   10.00 Det=-2.92D-15
 Inversion failed.  Reducing to 16 matrices.
 Large coefficients: NSaved= 16 BigCof=    0.00 CofMax=   10.00 Det=-3.59D-15
 Inversion failed.  Reducing to 15 matrices.
 Coeff-Com:  0.346D-05 0.453D-04-0.508D-04-0.221D-03-0.309D-03 0.919D-03
 Coeff-Com:  0.220D-02 0.183D-02-0.150D-01-0.190D-01 0.900D-01-0.102D+00
 Coeff-Com: -0.118D+00-0.707D-02 0.117D+01
 Coeff:      0.346D-05 0.453D-04-0.508D-04-0.221D-03-0.309D-03 0.919D-03
 Coeff:      0.220D-02 0.183D-02-0.150D-01-0.190D-01 0.900D-01-0.102D+00
 Coeff:     -0.118D+00-0.707D-02 0.117D+01
 Gap=     0.059 Goal=   None    Shift=    0.000
 Gap=     0.035 Goal=   None    Shift=    0.000
 RMSDP=5.41D-09 MaxDP=3.02D-07 DE=-1.23D-11 OVMax= 2.57D-07

 SCF Done:  E(UB3LYP) =  -1136.10900581     A.U. after   20 cycles
            NFock= 20  Conv=0.54D-08     -V/T= 2.0026
 <Sx>= 0.0000 <Sy>= 0.0000 <Sz>= 0.5000 <S**2>= 0.7651 S= 0.5075
 <L.S>= 0.000000000000E+00
 KE= 1.133130075977D+03 PE=-3.453815386152D+03 EE= 8.223163510059D+02
 Annihilation of the first spin contaminant:
 S**2 before annihilation     0.7651,   after     0.7501
 Leave Link  502 at Mon Nov 13 16:00:21 2023, MaxMem=  1879048192 cpu:             196.8 elap:              16.7
 (Enter /home/sekinelabo/g16/l601.exe)
 Copying SCF densities to generalized density rwf, IOpCl= 1 IROHF=0.

 **********************************************************************

            Population analysis using the SCF Density.

 **********************************************************************

 Orbital symmetries:
 Alpha Orbitals:
       Occupied  (A) (A) (A) (A) (A) (A) (A) (A) (A) (A) (A) (A)
                 (A) (A) (A) (A) (A) (A) (A) (A) (A) (A) (A) (A)
                 (A) (A) (A) (A) (A) (A) (A) (A) (A) (A) (A) (A)
                 (A) (A) (A)
       Virtual   (A) (A) (A) (A) (A) (A) (A) (A) (A) (A) (A) (A)
                 (A) (A) (A) (A) (A) (A) (A) (A) (A) (A) (A) (A)
                 (A) (A) (A) (A) (A) (A) (A) (A) (A) (A) (A) (A)
                 (A) (A) (A) (A) (A) (A) (A) (A) (A) (A) (A) (A)
                 (A) (A) (A) (A) (A) (A) (A) (A) (A) (A) (A) (A)
                 (A) (A) (A) (A) (A) (A) (A) (A) (A) (A) (A) (A)
                 (A) (A) (A) (A) (A) (A) (A) (A) (A) (A) (A) (A)
                 (A) (A) (A) (A) (A) (A) (A) (A) (A) (A) (A) (A)
                 (A) (A) (A) (A) (A) (A) (A) (A) (A) (A) (A) (A)
                 (A) (A) (A) (A) (A) (A) (A) (A) (A) (A) (A) (A)
                 (A) (A) (A) (A) (A) (A) (A) (A) (A) (A) (A) (A)
                 (A) (A) (A) (A) (A) (A) (A) (A) (A) (A) (A) (A)
                 (A) (A) (A) (A) (A) (A) (A) (A) (A) (A) (A) (A)
                 (A) (A) (A) (A) (A) (A) (A) (A) (A) (A) (A) (A)
                 (A) (A)
 Beta  Orbitals:
       Occupied  (A) (A) (A) (A) (A) (A) (A) (A) (A) (A) (A) (A)
                 (A) (A) (A) (A) (A) (A) (A) (A) (A) (A) (A) (A)
                 (A) (A) (A) (A) (A) (A) (A) (A) (A) (A) (A) (A)
                 (A) (A)
       Virtual   (A) (A) (A) (A) (A) (A) (A) (A) (A) (A) (A) (A)
                 (A) (A) (A) (A) (A) (A) (A) (A) (A) (A) (A) (A)
                 (A) (A) (A) (A) (A) (A) (A) (A) (A) (A) (A) (A)
                 (A) (A) (A) (A) (A) (A) (A) (A) (A) (A) (A) (A)
                 (A) (A) (A) (A) (A) (A) (A) (A) (A) (A) (A) (A)
                 (A) (A) (A) (A) (A) (A) (A) (A) (A) (A) (A) (A)
                 (A) (A) (A) (A) (A) (A) (A) (A) (A) (A) (A) (A)
                 (A) (A) (A) (A) (A) (A) (A) (A) (A) (A) (A) (A)
                 (A) (A) (A) (A) (A) (A) (A) (A) (A) (A) (A) (A)
                 (A) (A) (A) (A) (A) (A) (A) (A) (A) (A) (A) (A)
                 (A) (A) (A) (A) (A) (A) (A) (A) (A) (A) (A) (A)
                 (A) (A) (A) (A) (A) (A) (A) (A) (A) (A) (A) (A)
                 (A) (A) (A) (A) (A) (A) (A) (A) (A) (A) (A) (A)
                 (A) (A) (A) (A) (A) (A) (A) (A) (A) (A) (A) (A)
                 (A) (A) (A)
 The electronic state is 2-A.
 Alpha  occ. eigenvalues --  -38.44814 -38.44792 -38.44005 -38.43950 -38.43937
 Alpha  occ. eigenvalues --  -38.43882 -38.42798  -2.20701  -2.20679  -2.20006
 Alpha  occ. eigenvalues --   -2.19950  -2.19930  -2.19876  -2.18689  -1.14421
 Alpha  occ. eigenvalues --   -1.14399  -1.14395  -1.14373  -1.14302  -1.14280
 Alpha  occ. eigenvalues --   -1.13788  -1.13765  -1.13727  -1.13618  -1.13579
 Alpha  occ. eigenvalues --   -1.13567  -1.13558  -1.13527  -1.13516  -1.13502
 Alpha  occ. eigenvalues --   -1.13494  -1.13447  -1.12374  -1.12366  -1.12295
 Alpha  occ. eigenvalues --   -0.19517  -0.13618  -0.12325  -0.11952
 Alpha virt. eigenvalues --   -0.06096  -0.04592  -0.03999  -0.03847  -0.03289
 Alpha virt. eigenvalues --   -0.03199  -0.01765  -0.00331  -0.00258   0.00285
 Alpha virt. eigenvalues --    0.00407   0.00425   0.00698   0.00869   0.00947
 Alpha virt. eigenvalues --    0.01102   0.01206   0.01258   0.01321   0.01380
 Alpha virt. eigenvalues --    0.01466   0.01578   0.01657   0.01958   0.01970
 Alpha virt. eigenvalues --    0.02526   0.02647   0.02727   0.02784   0.02827
 Alpha virt. eigenvalues --    0.02846   0.02870   0.02954   0.02986   0.03018
 Alpha virt. eigenvalues --    0.03091   0.03100   0.03470   0.03631   0.04052
 Alpha virt. eigenvalues --    0.04372   0.04436   0.04507   0.04778   0.05146
 Alpha virt. eigenvalues --    0.05196   0.05606   0.06279   0.06434   0.06479
 Alpha virt. eigenvalues --    0.06553   0.06801   0.06826   0.07040   0.07091
 Alpha virt. eigenvalues --    0.08117   0.08229   0.08727   0.08814   0.08953
 Alpha virt. eigenvalues --    0.09502   0.09946   0.10257   0.11801   0.11895
 Alpha virt. eigenvalues --    0.12606   0.12793   0.13554   0.13821   0.14080
 Alpha virt. eigenvalues --    0.14180   0.14656   0.15004   0.15233   0.15331
 Alpha virt. eigenvalues --    0.15514   0.15778   0.19815   0.21351   0.23369
 Alpha virt. eigenvalues --    0.25317   0.27481   0.27898   0.28554   0.29272
 Alpha virt. eigenvalues --    0.29896   0.30510   0.31118   0.32182   0.32335
 Alpha virt. eigenvalues --    0.33899   0.37167   0.37645   0.38455   0.39718
 Alpha virt. eigenvalues --    0.40016   0.40615   0.41794   0.42718   0.43142
 Alpha virt. eigenvalues --    0.44123   0.44166   0.44590   0.44959   0.45803
 Alpha virt. eigenvalues --    0.46264   0.46714   0.47709   0.47952   0.48876
 Alpha virt. eigenvalues --    0.49170   0.49441   0.49969   0.50539   0.50803
 Alpha virt. eigenvalues --    0.51428   0.51640   0.52083   0.53403   0.54517
 Alpha virt. eigenvalues --    0.55022   0.56482   0.56717   0.58386   0.59032
 Alpha virt. eigenvalues --    0.60962   0.65258   0.66415   0.69386   0.69939
 Alpha virt. eigenvalues --    0.73425   0.75910   0.77592   0.80061   0.80261
 Alpha virt. eigenvalues --    2.06661   2.13449   2.16236   2.19683   2.20486
 Alpha virt. eigenvalues --    2.30777   2.31913   4.41330   4.41541   4.41773
 Alpha virt. eigenvalues --    4.42081   4.42338   4.42925   4.44372   4.45345
 Alpha virt. eigenvalues --    4.45489   4.45903   4.48075   4.52316   4.60728
 Alpha virt. eigenvalues --    4.61853   4.63409   4.65292   4.65960   4.67896
 Alpha virt. eigenvalues --    4.70273   4.74490   4.76023  96.27042  96.35642
 Alpha virt. eigenvalues --   96.39059  96.44184  96.44992  96.58592  96.60908
  Beta  occ. eigenvalues --  -38.44801 -38.44777 -38.43946 -38.43894 -38.43891
  Beta  occ. eigenvalues --  -38.43837 -38.42797  -2.20680  -2.20655  -2.19901
  Beta  occ. eigenvalues --   -2.19852  -2.19846  -2.19794  -2.18689  -1.14389
  Beta  occ. eigenvalues --   -1.14377  -1.14363  -1.14354  -1.14290  -1.14266
  Beta  occ. eigenvalues --   -1.13719  -1.13682  -1.13645  -1.13549  -1.13522
  Beta  occ. eigenvalues --   -1.13500  -1.13497  -1.13472  -1.13449  -1.13436
  Beta  occ. eigenvalues --   -1.13419  -1.13385  -1.12367  -1.12354  -1.12297
  Beta  occ. eigenvalues --   -0.18756  -0.13410  -0.11747
  Beta virt. eigenvalues --   -0.08215  -0.05940  -0.04005  -0.03808  -0.03547
  Beta virt. eigenvalues --   -0.02626  -0.02207  -0.01689  -0.00246  -0.00083
  Beta virt. eigenvalues --    0.00347   0.00470   0.00605   0.00714   0.00877
  Beta virt. eigenvalues --    0.01074   0.01176   0.01320   0.01325   0.01436
  Beta virt. eigenvalues --    0.01492   0.01506   0.01704   0.01722   0.01996
  Beta virt. eigenvalues --    0.02154   0.02608   0.02660   0.02777   0.02820
  Beta virt. eigenvalues --    0.02868   0.02873   0.02950   0.02965   0.03001
  Beta virt. eigenvalues --    0.03050   0.03169   0.03178   0.03692   0.03796
  Beta virt. eigenvalues --    0.04108   0.04441   0.04518   0.04555   0.05044
  Beta virt. eigenvalues --    0.05251   0.05421   0.05680   0.06283   0.06478
  Beta virt. eigenvalues --    0.06534   0.06701   0.06879   0.06898   0.07063
  Beta virt. eigenvalues --    0.07119   0.08244   0.08356   0.08888   0.09076
  Beta virt. eigenvalues --    0.09192   0.09777   0.10102   0.10376   0.11942
  Beta virt. eigenvalues --    0.12161   0.12976   0.13190   0.13752   0.13923
  Beta virt. eigenvalues --    0.14252   0.14565   0.14901   0.15187   0.15420
  Beta virt. eigenvalues --    0.15476   0.15628   0.15964   0.19988   0.21525
  Beta virt. eigenvalues --    0.23721   0.25920   0.27760   0.28304   0.29027
  Beta virt. eigenvalues --    0.29773   0.30193   0.30619   0.31529   0.32307
  Beta virt. eigenvalues --    0.32788   0.34126   0.37404   0.37796   0.38667
  Beta virt. eigenvalues --    0.40030   0.40243   0.40847   0.42017   0.42849
  Beta virt. eigenvalues --    0.43240   0.44230   0.44302   0.44867   0.45030
  Beta virt. eigenvalues --    0.45982   0.46390   0.46903   0.47906   0.48248
  Beta virt. eigenvalues --    0.49175   0.49314   0.49545   0.50272   0.50833
  Beta virt. eigenvalues --    0.50951   0.51627   0.51968   0.52210   0.53630
  Beta virt. eigenvalues --    0.54812   0.55230   0.56733   0.56935   0.58598
  Beta virt. eigenvalues --    0.59161   0.61162   0.65381   0.66506   0.69570
  Beta virt. eigenvalues --    0.70151   0.73660   0.76059   0.77851   0.80193
  Beta virt. eigenvalues --    0.80421   2.06804   2.13512   2.16279   2.19796
  Beta virt. eigenvalues --    2.20706   2.30914   2.32095   4.41404   4.41614
  Beta virt. eigenvalues --    4.41872   4.42127   4.42407   4.43040   4.44412
  Beta virt. eigenvalues --    4.45357   4.45509   4.45940   4.48085   4.52372
  Beta virt. eigenvalues --    4.60810   4.61922   4.63481   4.65373   4.66003
  Beta virt. eigenvalues --    4.67932   4.70315   4.74534   4.76086  96.27089
  Beta virt. eigenvalues --   96.35669  96.39077  96.44227  96.45056  96.58645
  Beta virt. eigenvalues --   96.60970
          Condensed to atoms (all electrons):
               1          2          3          4          5          6
     1  Na  11.831876   0.573600  -0.373321  -0.677682   1.021424  -1.168145
     2  Na   0.573600  11.705105  -0.240046  -1.032532   0.976742  -0.646469
     3  Na  -0.373321  -0.240046  10.801633   0.447181  -0.430926   0.374861
     4  Na  -0.677682  -1.032532   0.447181  12.123247  -1.028691   0.926186
     5  Na   1.021424   0.976742  -0.430926  -1.028691  12.139044  -1.150759
     6  Na  -1.168145  -0.646469   0.374861   0.926186  -1.150759  12.367661
     7  Na  -0.161848  -0.343926   0.236320   0.310118  -0.381144   0.390668
               7
     1  Na  -0.161848
     2  Na  -0.343926
     3  Na   0.236320
     4  Na   0.310118
     5  Na  -0.381144
     6  Na   0.390668
     7  Na  10.788214
          Atomic-Atomic Spin Densities.
               1          2          3          4          5          6
     1  Na   0.313321  -0.202887  -0.023076   0.221357   0.066725  -0.062668
     2  Na  -0.202887   0.289867   0.103957  -0.017929   0.057253   0.252208
     3  Na  -0.023076   0.103957  -0.032274  -0.056216  -0.039279   0.009836
     4  Na   0.221357  -0.017929  -0.056216   0.072327  -0.041926  -0.108110
     5  Na   0.066725   0.057253  -0.039279  -0.041926   0.176406  -0.075943
     6  Na  -0.062668   0.252208   0.009836  -0.108110  -0.075943   0.165445
     7  Na   0.130944  -0.044311  -0.062241   0.035030  -0.035893  -0.090888
               7
     1  Na   0.130944
     2  Na  -0.044311
     3  Na  -0.062241
     4  Na   0.035030
     5  Na  -0.035893
     6  Na  -0.090888
     7  Na  -0.016975
 Mulliken charges and spin densities:
               1          2
     1  Na  -0.045905   0.443715
     2  Na   0.007526   0.438159
     3  Na   0.184299  -0.099293
     4  Na  -0.067826   0.104532
     5  Na  -0.145689   0.107342
     6  Na  -0.094002   0.089880
     7  Na   0.161598  -0.084335
 Sum of Mulliken charges =  -0.00000   1.00000
 Mulliken charges and spin densities with hydrogens summed into heavy atoms:
               1          2
     1  Na  -0.045905   0.443715
     2  Na   0.007526   0.438159
     3  Na   0.184299  -0.099293
     4  Na  -0.067826   0.104532
     5  Na  -0.145689   0.107342
     6  Na  -0.094002   0.089880
     7  Na   0.161598  -0.084335
 Electronic spatial extent (au):  <R**2>=           2032.0688
 Charge=             -0.0000 electrons
 Dipole moment (field-independent basis, Debye):
    X=             -0.0393    Y=             -0.3421    Z=              0.0070  Tot=              0.3444
 Quadrupole moment (field-independent basis, Debye-Ang):
   XX=            -55.9134   YY=            -75.3021   ZZ=            -66.3672
   XY=             -0.1145   XZ=             -2.2844   YZ=              0.2171
 Traceless Quadrupole moment (field-independent basis, Debye-Ang):
   XX=              9.9475   YY=             -9.4412   ZZ=             -0.5063
   XY=             -0.1145   XZ=             -2.2844   YZ=              0.2171
 Octapole moment (field-independent basis, Debye-Ang**2):
  XXX=             -2.3137  YYY=              4.4078  ZZZ=              0.6057  XYY=              0.2983
  XXY=             -6.2738  XXZ=              0.1324  XZZ=              0.3747  YZZ=             -5.0738
  YYZ=             -0.5466  XYZ=              4.3021
 Hexadecapole moment (field-independent basis, Debye-Ang**3):
 XXXX=          -1278.2996 YYYY=          -1176.0960 ZZZZ=           -872.9985 XXXY=            -10.1735
 XXXZ=            -90.0983 YYYX=              5.1523 YYYZ=              3.3569 ZZZX=             21.9328
 ZZZY=             -0.7746 XXYY=           -508.3488 XXZZ=           -393.0117 YYZZ=           -344.3231
 XXYZ=              3.1211 YYXZ=             -6.7154 ZZXY=              0.4229
 N-N= 3.622599533594D+02 E-N=-3.453815386444D+03  KE= 1.133130075977D+03
                          Isotropic Fermi Contact Couplings
        Atom                 a.u.       MegaHertz       Gauss      10(-4) cm-1
     1  Na(23)             0.20047     237.16330      84.62576      79.10916
     2  Na(23)             0.21643     256.04122      91.36187      85.40616
     3  Na(23)             0.02500      29.57613      10.55350       9.86553
     4  Na(23)             0.17365     205.42979      73.30246      68.52400
     5  Na(23)            -0.02115     -25.01586      -8.92628      -8.34439
     6  Na(23)             0.17603     208.24939      74.30856      69.46452
     7  Na(23)             0.03217      38.05626      13.57942      12.69420
 --------------------------------------------------------
       Center         ----  Spin Dipole Couplings  ----
                      3XX-RR        3YY-RR        3ZZ-RR
 --------------------------------------------------------
     1   Atom       -0.007018      0.003798      0.003220
     2   Atom       -0.005785      0.004735      0.001050
     3   Atom       -0.005641     -0.011827      0.017468
     4   Atom        0.004636     -0.003354     -0.001282
     5   Atom       -0.012991     -0.008297      0.021289
     6   Atom        0.006538     -0.005222     -0.001316
     7   Atom       -0.003806     -0.011710      0.015515
 --------------------------------------------------------
                        XY            XZ            YZ
 --------------------------------------------------------
     1   Atom        0.001083     -0.003777     -0.021990
     2   Atom        0.001386     -0.000198      0.020002
     3   Atom       -0.003143      0.015730     -0.008759
     4   Atom       -0.010151     -0.010441      0.010428
     5   Atom        0.000314      0.006665     -0.000163
     6   Atom        0.009324     -0.011675     -0.009635
     7   Atom        0.003557      0.017483      0.008221
 --------------------------------------------------------


 ---------------------------------------------------------------------------------
              Anisotropic Spin Dipole Couplings in Principal Axis System
 ---------------------------------------------------------------------------------

       Atom             a.u.   MegaHertz   Gauss  10(-4) cm-1        Axes

              Baa    -0.0188    -2.656    -0.948    -0.886  0.1650  0.6837  0.7109
     1 Na(23) Bbb    -0.0071    -0.996    -0.355    -0.332  0.9808 -0.1896 -0.0453
              Bcc     0.0259     3.652     1.303     1.218  0.1038  0.7047 -0.7019
 
              Baa    -0.0173    -2.442    -0.872    -0.815  0.0936 -0.6725  0.7342
     2 Na(23) Bbb    -0.0057    -0.806    -0.288    -0.269  0.9951  0.0403 -0.0900
              Bcc     0.0230     3.249     1.159     1.084  0.0309  0.7390  0.6730
 
              Baa    -0.0149    -2.109    -0.753    -0.704 -0.4981  0.7453  0.4432
     3 Na(23) Bbb    -0.0127    -1.788    -0.638    -0.596  0.7507  0.6265 -0.2098
              Bcc     0.0276     3.897     1.391     1.300  0.4340 -0.2282  0.8715
 
              Baa    -0.0128    -1.812    -0.647    -0.604  0.0696  0.7710 -0.6331
     4 Na(23) Bbb    -0.0082    -1.162    -0.415    -0.388  0.7451  0.3818  0.5469
              Bcc     0.0211     2.974     1.061     0.992  0.6633 -0.5098 -0.5479
 
              Baa    -0.0143    -2.014    -0.719    -0.672  0.9812 -0.0567 -0.1842
     5 Na(23) Bbb    -0.0083    -1.169    -0.417    -0.390  0.0564  0.9984 -0.0072
              Bcc     0.0225     3.183     1.136     1.062  0.1844 -0.0033  0.9829
 
              Baa    -0.0131    -1.850    -0.660    -0.617  0.0207  0.7639  0.6450
     6 Na(23) Bbb    -0.0084    -1.184    -0.423    -0.395  0.7071 -0.4673  0.5307
              Bcc     0.0215     3.035     1.083     1.012  0.7068  0.4450 -0.5498
 
              Baa    -0.0150    -2.121    -0.757    -0.708  0.5946  0.6230 -0.5082
     7 Na(23) Bbb    -0.0128    -1.809    -0.645    -0.603 -0.6369  0.7508  0.1752
              Bcc     0.0278     3.930     1.402     1.311  0.4907  0.2195  0.8432
 

 ---------------------------------------------------------------------------------

 No NMR shielding tensors so no spin-rotation constants.
 Leave Link  601 at Mon Nov 13 16:00:21 2023, MaxMem=  1879048192 cpu:               2.6 elap:               0.2
 (Enter /home/sekinelabo/g16/l701.exe)
 ... and contract with generalized density number  0.
 Compute integral first derivatives.
 Leave Link  701 at Mon Nov 13 16:00:21 2023, MaxMem=  1879048192 cpu:               1.7 elap:               0.1
 (Enter /home/sekinelabo/g16/l702.exe)
 L702 exits ... SP integral derivatives will be done elsewhere.
 Leave Link  702 at Mon Nov 13 16:00:21 2023, MaxMem=  1879048192 cpu:               0.6 elap:               0.0
 (Enter /home/sekinelabo/g16/l703.exe)
 Integral derivatives from FoFJK, PRISM(SPDF).
 Compute integral first derivatives, UseDBF=F ICtDFT=           0.
 Calling FoFJK, ICntrl=      2127 FMM=F ISym2X=0 I1Cent= 0 IOpClX= 1 NMat=1 NMatS=1 NMatT=0.
 FoFJK:  IHMeth= 1 ICntrl=    2127 DoSepK=F KAlg= 0 I1Cent=           0 FoldK=F
 IRaf=         0 NMat=       1 IRICut=       1 DoRegI=T DoRafI=F ISym2E= 0 IDoP0=0 IntGTp=1.
 FoFCou: FMM=F IPFlag=           0 FMFlag=      100000 FMFlg1=         800
         NFxFlg=           0 DoJE=F BraDBF=F KetDBF=F FulRan=T
         wScrn=  0.000000 ICntrl=      2127 IOpCl=  1 I1Cent=           0 NGrid=           0
         NMat0=    1 NMatS0=      1 NMatT0=    0 NMatD0=    1 NMtDS0=    0 NMtDT0=    0
 Symmetry not used in FoFCou.
 Leave Link  703 at Mon Nov 13 16:00:24 2023, MaxMem=  1879048192 cpu:              36.3 elap:               2.3
 (Enter /home/sekinelabo/g16/l716.exe)
 Dipole        =-1.54672348D-02-1.34603317D-01 2.73545395D-03
 ***** Axes restored to original set *****
 -------------------------------------------------------------------
 Center     Atomic                   Forces (Hartrees/Bohr)
 Number     Number              X              Y              Z
 -------------------------------------------------------------------
      1       11           0.001167913   -0.008266084    0.004618154
      2       11          -0.000649061   -0.007573775   -0.005103461
      3       11           0.005423058   -0.000388587   -0.001525520
      4       11           0.002694292    0.004875945    0.006408148
      5       11          -0.000158486    0.007623973    0.000113741
      6       11          -0.003394556    0.004223448   -0.006439578
      7       11          -0.005083160   -0.000494919    0.001928516
 -------------------------------------------------------------------
 Cartesian Forces:  Max     0.008266084 RMS     0.004565026
 Z-matrix is all fixed cartesians, so copy forces.
 Force constants in Cartesian coordinates: 
                1             2             3             4             5 
      1  0.100823D+00
      2  0.566873D-02  0.116479D+00
      3  0.415218D-05 -0.328097D-01  0.120555D+00
      4 -0.269812D-01  0.297516D-02  0.541633D-02  0.947193D-01
      5 -0.393030D-02 -0.194595D-01  0.190874D-01 -0.190311D-02  0.906034D-01
      6 -0.785132D-03 -0.154825D-01 -0.498449D-01  0.353150D-02  0.224094D-01
      7 -0.106926D-01  0.709309D-02 -0.215141D-02 -0.389964D-01 -0.595588D-03
      8 -0.100377D-01 -0.698938D-02  0.116706D-01 -0.176816D-01 -0.213476D-01
      9  0.134023D-01  0.730974D-02 -0.893521D-02 -0.209312D-01 -0.111260D-01
     10 -0.293880D-01 -0.499509D-02 -0.132246D-01 -0.694352D-03  0.908179D-03
     11 -0.923882D-02 -0.440325D-01 -0.139185D-01  0.148566D-02 -0.900174D-02
     12  0.890010D-02  0.186782D-01 -0.248758D-01 -0.654842D-02 -0.911089D-02
     13  0.444789D-02 -0.195282D-02  0.346384D-02  0.429441D-02  0.282693D-02
     14  0.175746D-02 -0.624643D-02  0.139672D-02 -0.897505D-03 -0.613377D-02
     15  0.229666D-02  0.264570D-02  0.256932D-02  0.239489D-02 -0.276619D-02
     16 -0.248040D-02 -0.465451D-02 -0.301089D-02 -0.279710D-01  0.373602D-02
     17 -0.119871D-02 -0.126591D-01  0.531616D-02  0.121462D-01 -0.383796D-01
     18 -0.779540D-02  0.632033D-02 -0.135028D-01  0.829495D-02 -0.163266D-01
     19 -0.357290D-01 -0.413455D-02  0.950259D-02 -0.437077D-02 -0.104213D-02
     20  0.169793D-01 -0.270917D-01  0.925736D-02  0.387522D-02  0.371877D-02
     21 -0.160227D-01  0.133382D-01 -0.259652D-01  0.784191D-02 -0.216713D-02
                6             7             8             9            10 
      6  0.103257D+00
      7  0.912599D-02  0.832680D-01
      8 -0.486263D-02  0.299134D-02  0.413962D-01
      9 -0.221695D-01 -0.101697D-01  0.111212D-01  0.559260D-01
     10 -0.591441D-02 -0.258750D-01  0.131826D-01  0.240681D-01  0.826380D-01
     11 -0.587194D-02 -0.637716D-02 -0.204262D-01 -0.761307D-02  0.993292D-03
     12 -0.122835D-01 -0.230106D-02 -0.134430D-01 -0.337533D-01  0.162708D-01
     13  0.354956D-02 -0.164189D-02  0.240442D-02 -0.239656D-02 -0.194314D-01
     14 -0.119880D-02  0.113723D-02 -0.139041D-02  0.158333D-02 -0.263600D-02
     15  0.239843D-02  0.304384D-02 -0.406165D-02  0.428288D-02 -0.147661D-01
     16 -0.131502D-01 -0.463920D-02  0.744659D-02 -0.266949D-02 -0.494751D-02
     17  0.909995D-02 -0.233546D-02  0.574482D-02  0.684975D-04 -0.142482D-02
     18 -0.232568D-01 -0.738596D-04  0.162174D-02  0.158901D-02 -0.616242D-02
     19  0.364266D-02 -0.142292D-02  0.169434D-02 -0.130351D-02 -0.230175D-02
     20 -0.409350D-02 -0.191344D-02  0.301255D-02 -0.134369D-02 -0.602815D-02
     21  0.189927D-02  0.252624D-02 -0.204629D-02  0.306004D-02 -0.271299D-03
               11            12            13            14            15 
     11  0.867006D-01
     12  0.124942D-01  0.101790D+00
     13  0.109736D-01 -0.975845D-02  0.327306D-01
     14 -0.256693D-01 -0.577339D-02 -0.145005D-02  0.671962D-01
     15  0.139709D-01 -0.273680D-01  0.178580D-01  0.101181D-02  0.409903D-01
     16  0.468179D-03 -0.590922D-02 -0.189552D-01  0.332750D-02 -0.136771D-01
     17  0.782609D-02 -0.111678D-02 -0.104799D-01 -0.260013D-01 -0.150617D-01
     18  0.798191D-03 -0.378449D-02 -0.105677D-01  0.474686D-02 -0.269429D-01
     19  0.169528D-02 -0.653710D-03 -0.144440D-02 -0.123864D-02  0.284983D-02
     20  0.460293D-02 -0.172837D-02 -0.232216D-02 -0.175499D-02  0.426122D-02
     21  0.140310D-03  0.275461D-03 -0.214875D-02 -0.176653D-02  0.406995D-02
               16            17            18            19            20 
     16  0.803692D-01
     17 -0.653608D-03  0.803568D-01
     18  0.183602D-01 -0.861103D-02  0.973537D-01
     19 -0.213759D-01  0.394633D-02 -0.205582D-02  0.666448D-01
     20 -0.967017D-02 -0.168877D-01  0.114505D-01 -0.920632D-03  0.344001D-01
     21  0.200567D-01  0.103049D-01 -0.314557D-01 -0.119820D-01 -0.178035D-01
               21 
     21  0.481162D-01
 Leave Link  716 at Mon Nov 13 16:00:24 2023, MaxMem=  1879048192 cpu:               0.5 elap:               0.0
 (Enter /home/sekinelabo/g16/l103.exe)

 GradGradGradGradGradGradGradGradGradGradGradGradGradGradGradGradGradGrad
 Berny optimization.
 Search for a local minimum.
 Step number   1 out of a maximum of    2
 All quantities printed in internal units (Hartrees-Bohrs-Radians)
 Second derivative matrix not updated -- first step.
 ITU=  0
     Eigenvalues ---    0.02729   0.03263   0.04444   0.05679   0.07552
     Eigenvalues ---    0.09854   0.10417   0.11852   0.11919   0.13045
     Eigenvalues ---    0.13395   0.14242   0.16350   0.17468   0.19423
 Angle between quadratic step and forces=  21.28 degrees.
 Linear search not attempted -- first point.
 B after Tr=     0.000000    0.000000    0.000000
         Rot=    1.000000    0.000000    0.000000    0.000000 Ang=   0.00 deg.
 Variable       Old X    -DE/DX   Delta X   Delta X   Delta X     New X
                                 (Linear)    (Quad)   (Total)
    X1        5.13373   0.00117   0.00000   0.00484   0.00484   5.13857
    Y1        0.00000  -0.00827   0.00000  -0.07893  -0.07893  -0.07893
    Z1        5.75139   0.00462   0.00000   0.03859   0.03859   5.78998
    X2        6.49731  -0.00065   0.00000   0.00858   0.00858   6.50590
    Y2        0.19372  -0.00757   0.00000  -0.07531  -0.07531   0.11840
    Z2        0.24584  -0.00510   0.00000  -0.04771  -0.04771   0.19814
    X3       11.50305   0.00542   0.00000   0.09550   0.09550  11.59855
    Y3        2.25722  -0.00039   0.00000  -0.03344  -0.03344   2.22378
    Z3        1.91319  -0.00153   0.00000  -0.00992  -0.00992   1.90327
    X4        8.50011   0.00269   0.00000   0.05054   0.05054   8.55064
    Y4        4.55254   0.00488   0.00000   0.04390   0.04390   4.59644
    Z4        6.13195   0.00641   0.00000   0.05644   0.05644   6.18839
    X5        5.45474  -0.00016   0.00000  -0.00395  -0.00395   5.45079
    Y5        8.24184   0.00762   0.00000   0.13968   0.13968   8.38152
    Z5        3.09322   0.00011   0.00000  -0.00111  -0.00111   3.09211
    X6        2.68326  -0.00339   0.00000  -0.05980  -0.05980   2.62346
    Y6        4.38958   0.00422   0.00000   0.04078   0.04078   4.43036
    Z6        0.00000  -0.00644   0.00000  -0.05761  -0.05761  -0.05761
    X7        0.00000  -0.00508   0.00000  -0.09572  -0.09572  -0.09572
    Y7        1.95287  -0.00049   0.00000  -0.03668  -0.03668   1.91619
    Z7        4.35885   0.00193   0.00000   0.02132   0.02132   4.38016
         Item               Value     Threshold  Converged?
 Maximum Force            0.008266     0.000450     NO 
 RMS     Force            0.004565     0.000300     NO 
 Maximum Displacement     0.139684     0.001800     NO 
 RMS     Displacement     0.058885     0.001200     NO 
 Predicted change in Energy=-2.630002D-03
 GradGradGradGradGradGradGradGradGradGradGradGradGradGradGradGradGradGrad

 Leave Link  103 at Mon Nov 13 16:00:24 2023, MaxMem=  1879048192 cpu:               0.3 elap:               0.0
 (Enter /home/sekinelabo/g16/l9999.exe)
 1\1\GINC-SEKINELABO-XA7R-R37\Force\UB3LYP\6-311+G(d)\Na7(2)\SEKINELABO
 \13-Nov-2023\0\\#P B3LYP/6-311+g(d) force\\Gaussian input prepared by 
 ASE\\0,2\Na,2.7166507405,0.,3.0435051452\Na,3.4382306743,0.1025108969,
 0.1300942738\Na,6.0871508829,1.1944675628,1.0124187997\Na,4.4980632575
 ,2.4091002178,3.2448893963\Na,2.8865246009,4.3613928612,1.6368602564\N
 a,1.4199209688,2.3228643014,0.\Na,0.,1.0334120401,2.3066023437\\Versio
 n=ES64L-G16RevB.01\State=2-A\HF=-1136.1090058\S2=0.765136\S2-1=0.\S2A=
 0.750148\RMSD=5.414e-09\RMSF=4.565e-03\Dipole=0.0154672,-0.1346033,-0.
 0027355\Quadrupole=7.3957226,-7.0192858,-0.3764369,0.0851561,-1.698383
 1,-0.1613839\PG=C01 [X(Na7)]\\@


 SUPPORT THE RIGHT TO ARM BEARS!
 (ADD A CLAWS TO THE BILL OF RIGHTS)
 Job cpu time:       0 days  0 hours  4 minutes 11.2 seconds.
 Elapsed time:       0 days  0 hours  0 minutes 20.2 seconds.
 File lengths (MBytes):  RWF=     32 Int=      0 D2E=      0 Chk=      5 Scr=      1
 Normal termination of Gaussian 16 at Mon Nov 13 16:00:24 2023.
