 Entering Gaussian System, Link 0=g16
 Initial command:
 /home/sekinelabo/g16/l1.exe "/home/sekinelabo/g16temp/Gau-4032104.inp" -scrdir="/home/sekinelabo/g16temp/"
 Entering Link 1 = /home/sekinelabo/g16/l1.exe PID=   4032106.
  
 Copyright (c) 1988-2017, Gaussian, Inc.  All Rights Reserved.
  
 This is part of the Gaussian(R) 16 program.  It is based on
 the Gaussian(R) 09 system (copyright 2009, Gaussian, Inc.),
 the Gaussian(R) 03 system (copyright 2003, Gaussian, Inc.),
 the Gaussian(R) 98 system (copyright 1998, Gaussian, Inc.),
 the Gaussian(R) 94 system (copyright 1995, Gaussian, Inc.),
 the Gaussian 92(TM) system (copyright 1992, Gaussian, Inc.),
 the Gaussian 90(TM) system (copyright 1990, Gaussian, Inc.),
 the Gaussian 88(TM) system (copyright 1988, Gaussian, Inc.),
 the Gaussian 86(TM) system (copyright 1986, Carnegie Mellon
 University), and the Gaussian 82(TM) system (copyright 1983,
 Carnegie Mellon University). Gaussian is a federally registered
 trademark of Gaussian, Inc.
  
 This software contains proprietary and confidential information,
 including trade secrets, belonging to Gaussian, Inc.
  
 This software is provided under written license and may be
 used, copied, transmitted, or stored only in accord with that
 written license.
  
 The following legend is applicable only to US Government
 contracts under FAR:
  
                    RESTRICTED RIGHTS LEGEND
  
 Use, reproduction and disclosure by the US Government is
 subject to restrictions as set forth in subparagraphs (a)
 and (c) of the Commercial Computer Software - Restricted
 Rights clause in FAR 52.227-19.
  
 Gaussian, Inc.
 340 Quinnipiac St., Bldg. 40, Wallingford CT 06492
  
  
 ---------------------------------------------------------------
 Warning -- This program may not be used in any manner that
 competes with the business of Gaussian, Inc. or will provide
 assistance to any competitor of Gaussian, Inc.  The licensee
 of this program is prohibited from giving any competitor of
 Gaussian, Inc. access to this program.  By using this program,
 the user acknowledges that Gaussian, Inc. is engaged in the
 business of creating and licensing software in the field of
 computational chemistry and represents and warrants to the
 licensee that it is not a competitor of Gaussian, Inc. and that
 it will not use this program in any manner prohibited above.
 ---------------------------------------------------------------
  

 Cite this work as:
 Gaussian 16, Revision B.01,
 M. J. Frisch, G. W. Trucks, H. B. Schlegel, G. E. Scuseria, 
 M. A. Robb, J. R. Cheeseman, G. Scalmani, V. Barone, 
 G. A. Petersson, H. Nakatsuji, X. Li, M. Caricato, A. V. Marenich, 
 J. Bloino, B. G. Janesko, R. Gomperts, B. Mennucci, H. P. Hratchian, 
 J. V. Ortiz, A. F. Izmaylov, J. L. Sonnenberg, D. Williams-Young, 
 F. Ding, F. Lipparini, F. Egidi, J. Goings, B. Peng, A. Petrone, 
 T. Henderson, D. Ranasinghe, V. G. Zakrzewski, J. Gao, N. Rega, 
 G. Zheng, W. Liang, M. Hada, M. Ehara, K. Toyota, R. Fukuda, 
 J. Hasegawa, M. Ishida, T. Nakajima, Y. Honda, O. Kitao, H. Nakai, 
 T. Vreven, K. Throssell, J. A. Montgomery, Jr., J. E. Peralta, 
 F. Ogliaro, M. J. Bearpark, J. J. Heyd, E. N. Brothers, K. N. Kudin, 
 V. N. Staroverov, T. A. Keith, R. Kobayashi, J. Normand, 
 K. Raghavachari, A. P. Rendell, J. C. Burant, S. S. Iyengar, 
 J. Tomasi, M. Cossi, J. M. Millam, M. Klene, C. Adamo, R. Cammi, 
 J. W. Ochterski, R. L. Martin, K. Morokuma, O. Farkas, 
 J. B. Foresman, and D. J. Fox, Gaussian, Inc., Wallingford CT, 2016.
 
 ******************************************
 Gaussian 16:  ES64L-G16RevB.01 20-Dec-2017
                13-Nov-2023 
 ******************************************
 %mem=14GB
 %chk=checkpoint.chk
 %nprocshared=16
 Will use up to   16 processors via shared memory.
 -------------------------
 #P B3LYP/6-311+g(d) force
 -------------------------
 1/10=7,30=1,38=1/1,3;
 2/12=2,17=6,18=5,40=1/2;
 3/5=4,6=6,7=11,11=2,25=1,30=1,71=1,74=-5/1,2,3;
 4//1;
 5/5=2,38=5/2;
 6/7=2,8=2,9=2,10=2,28=1/1;
 7/29=1/1,2,3,16;
 1/10=7,30=1/3;
 99//99;
 Leave Link    1 at Mon Nov 13 15:58:02 2023, MaxMem=  1879048192 cpu:               0.3 elap:               0.0
 (Enter /home/sekinelabo/g16/l101.exe)
 ------------------------------
 Gaussian input prepared by ASE
 ------------------------------
 Symbolic Z-matrix:
 Charge =  0 Multiplicity = 2
 Na                    2.69199   2.00771   2.72645 
 Na                    4.89854   0.        2.35225 
 Na                    6.90215   2.1832    1.86655 
 Na                    4.44231   3.58293   0.86327 
 Na                    3.29055   0.94382   0. 
 Na                    0.67947   0.28905   1.32508 
 Na                    0.        3.12359   2.01524 
 
 ITRead=  0  0  0  0  0  0  0
 MicOpt= -1 -1 -1 -1 -1 -1 -1
 NAtoms=      7 NQM=        7 NQMF=       0 NMMI=      0 NMMIF=      0
                NMic=       0 NMicF=      0.
                    Isotopes and Nuclear Properties:
 (Nuclear quadrupole moments (NQMom) in fm**2, nuclear magnetic moments (NMagM)
  in nuclear magnetons)

  Atom         1           2           3           4           5           6           7
 IAtWgt=          23          23          23          23          23          23          23
 AtmWgt=  22.9897697  22.9897697  22.9897697  22.9897697  22.9897697  22.9897697  22.9897697
 NucSpn=           3           3           3           3           3           3           3
 AtZEff=  -0.0000000  -0.0000000  -0.0000000  -0.0000000  -0.0000000  -0.0000000  -0.0000000
 NQMom=   10.4000000  10.4000000  10.4000000  10.4000000  10.4000000  10.4000000  10.4000000
 NMagM=    2.2175200   2.2175200   2.2175200   2.2175200   2.2175200   2.2175200   2.2175200
 AtZNuc=  11.0000000  11.0000000  11.0000000  11.0000000  11.0000000  11.0000000  11.0000000
 Leave Link  101 at Mon Nov 13 15:58:02 2023, MaxMem=  1879048192 cpu:               2.6 elap:               0.2
 (Enter /home/sekinelabo/g16/l103.exe)

 GradGradGradGradGradGradGradGradGradGradGradGradGradGradGradGradGradGrad
 Berny optimization.
 Initialization pass.
 Trust Radius=3.00D-01 FncErr=1.00D-07 GrdErr=1.00D-07 EigMax=2.50D+02 EigMin=1.00D-04
 Number of steps in this run=      2 maximum allowed number of steps=      2.
 GradGradGradGradGradGradGradGradGradGradGradGradGradGradGradGradGradGrad

 Leave Link  103 at Mon Nov 13 15:58:02 2023, MaxMem=  1879048192 cpu:               0.2 elap:               0.0
 (Enter /home/sekinelabo/g16/l202.exe)
                          Input orientation:                          
 ---------------------------------------------------------------------
 Center     Atomic      Atomic             Coordinates (Angstroms)
 Number     Number       Type             X           Y           Z
 ---------------------------------------------------------------------
      1         11           0        2.691986    2.007714    2.726445
      2         11           0        4.898537    0.000000    2.352245
      3         11           0        6.902150    2.183196    1.866550
      4         11           0        4.442313    3.582931    0.863268
      5         11           0        3.290549    0.943818    0.000000
      6         11           0        0.679465    0.289046    1.325079
      7         11           0        0.000000    3.123591    2.015245
 ---------------------------------------------------------------------
                    Distance matrix (angstroms):
                    1          2          3          4          5
     1  Na   0.000000
     2  Na   3.006628   0.000000
     3  Na   4.300663   3.002783   0.000000
     4  Na   3.002729   3.906736   3.002771   0.000000
     5  Na   2.987249   3.001579   4.250144   3.006112   0.000000
     6  Na   2.994643   4.351918   6.527082   5.022148   3.000386
     7  Na   2.999629   5.819455   6.967505   4.612178   4.431741
                    6          7
     6  Na   0.000000
     7  Na   2.995438   0.000000
 Stoichiometry    Na7(2)
 Framework group  C1[X(Na7)]
 Deg. of freedom    15
 Full point group                 C1      NOp   1
 Largest Abelian subgroup         C1      NOp   1
 Largest concise Abelian subgroup C1      NOp   1
                         Standard orientation:                         
 ---------------------------------------------------------------------
 Center     Atomic      Atomic             Coordinates (Angstroms)
 Number     Number       Type             X           Y           Z
 ---------------------------------------------------------------------
      1         11           0        0.580157    0.274815   -1.133755
      2         11           0       -1.626394   -1.732899   -0.759555
      3         11           0       -3.630007    0.450296   -0.273859
      4         11           0       -1.170170    1.850032    0.729422
      5         11           0       -0.018406   -0.789081    1.592690
      6         11           0        2.592678   -1.443854    0.267612
      7         11           0        3.272143    1.390691   -0.422555
 ---------------------------------------------------------------------
 Rotational constants (GHZ):           1.3241487           0.5466526           0.4747648
 Leave Link  202 at Mon Nov 13 15:58:02 2023, MaxMem=  1879048192 cpu:               0.1 elap:               0.0
 (Enter /home/sekinelabo/g16/l301.exe)
 Standard basis: 6-311+G(d) (5D, 7F)
 Ernie: Thresh=  0.10000D-02 Tol=  0.10000D-05 Strict=F.
 There are   217 symmetry adapted cartesian basis functions of A   symmetry.
 There are   210 symmetry adapted basis functions of A   symmetry.
   210 basis functions,   350 primitive gaussians,   217 cartesian basis functions
    39 alpha electrons       38 beta electrons
       nuclear repulsion energy       366.9196359707 Hartrees.
 IExCor=  402 DFT=T Ex+Corr=B3LYP ExCW=0 ScaHFX=  0.200000
 ScaDFX=  0.800000  0.720000  1.000000  0.810000 ScalE2=  1.000000  1.000000
 IRadAn=      5 IRanWt=     -1 IRanGd=            0 ICorTp=0 IEmpDi=  4
 NAtoms=    7 NActive=    7 NUniq=    7 SFac= 1.00D+00 NAtFMM=   60 NAOKFM=F Big=F
 Integral buffers will be    131072 words long.
 Raffenetti 2 integral format.
 Two-electron integral symmetry is turned on.
 Leave Link  301 at Mon Nov 13 15:58:02 2023, MaxMem=  1879048192 cpu:               0.5 elap:               0.0
 (Enter /home/sekinelabo/g16/l302.exe)
 NPDir=0 NMtPBC=     1 NCelOv=     1 NCel=       1 NClECP=     1 NCelD=      1
         NCelK=      1 NCelE2=     1 NClLst=     1 CellRange=     0.0.
 One-electron integrals computed using PRISM.
 One-electron integral symmetry used in STVInt
 NBasis=   210 RedAO= T EigKep=  4.36D-06  NBF=   210
 NBsUse=   209 1.00D-06 EigRej=  7.31D-07 NBFU=   209
 Precomputing XC quadrature grid using
 IXCGrd= 4 IRadAn=           5 IRanWt=          -1 IRanGd=           0 AccXCQ= 0.00D+00.
 Generated NRdTot=       0 NPtTot=           0 NUsed=           0 NTot=          32
 NSgBfM=   210   210   210   210   210 MxSgAt=     7 MxSgA2=     7.
 Leave Link  302 at Mon Nov 13 15:58:02 2023, MaxMem=  1879048192 cpu:               2.2 elap:               0.1
 (Enter /home/sekinelabo/g16/l303.exe)
 DipDrv:  MaxL=1.
 Leave Link  303 at Mon Nov 13 15:58:02 2023, MaxMem=  1879048192 cpu:               0.5 elap:               0.0
 (Enter /home/sekinelabo/g16/l401.exe)
 ExpMin= 7.60D-03 ExpMax= 3.62D+04 ExpMxC= 1.21D+03 IAcc=3 IRadAn=         5 AccDes= 0.00D+00
 Harris functional with IExCor=  402 and IRadAn=       5 diagonalized for initial guess.
 HarFok:  IExCor=  402 AccDes= 0.00D+00 IRadAn=         5 IDoV= 1 UseB2=F ITyADJ=14
 ICtDFT=  3500011 ScaDFX=  1.000000  1.000000  1.000000  1.000000
 FoFCou: FMM=F IPFlag=           0 FMFlag=      100000 FMFlg1=           0
         NFxFlg=           0 DoJE=T BraDBF=F KetDBF=T FulRan=T
         wScrn=  0.000000 ICntrl=       500 IOpCl=  0 I1Cent=   200000004 NGrid=           0
         NMat0=    1 NMatS0=      1 NMatT0=    0 NMatD0=    1 NMtDS0=    0 NMtDT0=    0
 Petite list used in FoFCou.
 Harris En= -1135.86858031040    
 JPrj=0 DoOrth=F DoCkMO=F.
 Initial guess <Sx>= 0.0000 <Sy>= 0.0000 <Sz>= 0.5000 <S**2>= 0.7500 S= 0.5000
 Leave Link  401 at Mon Nov 13 15:58:03 2023, MaxMem=  1879048192 cpu:               4.7 elap:               0.3
 (Enter /home/sekinelabo/g16/l502.exe)
 Keep R1 and R2 ints in memory in canonical form, NReq=507620374.
 FoFCou: FMM=F IPFlag=           0 FMFlag=           0 FMFlg1=           0
         NFxFlg=           0 DoJE=F BraDBF=F KetDBF=F FulRan=T
         wScrn=  0.000000 ICntrl=       600 IOpCl=  0 I1Cent=           0 NGrid=           0
         NMat0=    1 NMatS0=  22155 NMatT0=    0 NMatD0=    1 NMtDS0=    0 NMtDT0=    0
 Symmetry not used in FoFCou.
 Two-electron integral symmetry not used.
 UHF open shell SCF:
 Using DIIS extrapolation, IDIIS=  1040.
 NGot=  1879048192 LenX=  1388082362 LenY=  1388034832
 Requested convergence on RMS density matrix=1.00D-08 within 128 cycles.
 Requested convergence on MAX density matrix=1.00D-06.
 Requested convergence on             energy=1.00D-06.
 No special actions if energy rises.

 Cycle   1  Pass 1  IDiag  1:
 E= -1136.05080307633    
 DIIS: error= 1.18D-02 at cycle   1 NSaved=   1.
 NSaved= 1 IEnMin= 1 EnMin= -1136.05080307633     IErMin= 1 ErrMin= 1.18D-02
 ErrMax= 1.18D-02  0.00D+00 EMaxC= 1.00D-01 BMatC= 2.04D-01 BMatP= 2.04D-01
 IDIUse=3 WtCom= 8.82D-01 WtEn= 1.18D-01
 Coeff-Com:  0.100D+01
 Coeff-En:   0.100D+01
 Coeff:      0.100D+01
 Gap=     0.025 Goal=   None    Shift=    0.000
 Gap=     0.036 Goal=   None    Shift=    0.000
 GapD=    0.025 DampG=0.250 DampE=0.500 DampFc=0.2500 IDamp=-1.
 Damping current iteration by 2.50D-01
 RMSDP=5.18D-02 MaxDP=3.69D+00              OVMax= 3.03D-01

 Cycle   2  Pass 1  IDiag  1:
 E= -1136.06651110324     Delta-E=       -0.015708026907 Rises=F Damp=T
 DIIS: error= 6.90D-03 at cycle   2 NSaved=   2.
 NSaved= 2 IEnMin= 2 EnMin= -1136.06651110324     IErMin= 2 ErrMin= 6.90D-03
 ErrMax= 6.90D-03  0.00D+00 EMaxC= 1.00D-01 BMatC= 7.56D-02 BMatP= 2.04D-01
 IDIUse=3 WtCom= 9.31D-01 WtEn= 6.90D-02
 Coeff-Com: -0.117D+01 0.217D+01
 Coeff-En:   0.000D+00 0.100D+01
 Coeff:     -0.109D+01 0.209D+01
 Gap=     0.038 Goal=   None    Shift=    0.000
 Gap=     0.041 Goal=   None    Shift=    0.000
 RMSDP=1.81D-02 MaxDP=1.50D+00 DE=-1.57D-02 OVMax= 2.84D-01

 Cycle   3  Pass 1  IDiag  1:
 E= -1136.08467873089     Delta-E=       -0.018167627648 Rises=F Damp=F
 DIIS: error= 6.14D-03 at cycle   3 NSaved=   3.
 NSaved= 3 IEnMin= 3 EnMin= -1136.08467873089     IErMin= 3 ErrMin= 6.14D-03
 ErrMax= 6.14D-03  0.00D+00 EMaxC= 1.00D-01 BMatC= 1.23D-02 BMatP= 7.56D-02
 IDIUse=3 WtCom= 9.39D-01 WtEn= 6.14D-02
 Coeff-Com: -0.509D+00 0.894D+00 0.614D+00
 Coeff-En:   0.000D+00 0.000D+00 0.100D+01
 Coeff:     -0.477D+00 0.839D+00 0.638D+00
 Gap=     0.034 Goal=   None    Shift=    0.000
 Gap=     0.038 Goal=   None    Shift=    0.000
 RMSDP=1.38D-02 MaxDP=9.13D-01 DE=-1.82D-02 OVMax= 1.61D-01

 Cycle   4  Pass 1  IDiag  1:
 E= -1136.08718510675     Delta-E=       -0.002506375862 Rises=F Damp=F
 DIIS: error= 5.07D-03 at cycle   4 NSaved=   4.
 NSaved= 4 IEnMin= 4 EnMin= -1136.08718510675     IErMin= 4 ErrMin= 5.07D-03
 ErrMax= 5.07D-03  0.00D+00 EMaxC= 1.00D-01 BMatC= 8.02D-03 BMatP= 1.23D-02
 IDIUse=3 WtCom= 9.49D-01 WtEn= 5.07D-02
 Coeff-Com: -0.659D-01 0.107D+00 0.439D+00 0.521D+00
 Coeff-En:   0.000D+00 0.000D+00 0.449D+00 0.551D+00
 Coeff:     -0.626D-01 0.101D+00 0.439D+00 0.522D+00
 Gap=     0.038 Goal=   None    Shift=    0.000
 Gap=     0.037 Goal=   None    Shift=    0.000
 RMSDP=4.66D-03 MaxDP=2.36D-01 DE=-2.51D-03 OVMax= 1.30D-01

 Cycle   5  Pass 1  IDiag  1:
 E= -1136.09365490907     Delta-E=       -0.006469802320 Rises=F Damp=F
 DIIS: error= 1.94D-03 at cycle   5 NSaved=   5.
 NSaved= 5 IEnMin= 5 EnMin= -1136.09365490907     IErMin= 5 ErrMin= 1.94D-03
 ErrMax= 1.94D-03  0.00D+00 EMaxC= 1.00D-01 BMatC= 1.56D-03 BMatP= 8.02D-03
 IDIUse=3 WtCom= 9.81D-01 WtEn= 1.94D-02
 Coeff-Com: -0.152D-01 0.194D-01 0.270D+00 0.376D+00 0.350D+00
 Coeff-En:   0.000D+00 0.000D+00 0.000D+00 0.211D+00 0.789D+00
 Coeff:     -0.149D-01 0.190D-01 0.265D+00 0.372D+00 0.359D+00
 Gap=     0.038 Goal=   None    Shift=    0.000
 Gap=     0.038 Goal=   None    Shift=    0.000
 RMSDP=2.23D-03 MaxDP=1.44D-01 DE=-6.47D-03 OVMax= 4.72D-02

 Cycle   6  Pass 1  IDiag  1:
 E= -1136.09553809809     Delta-E=       -0.001883189017 Rises=F Damp=F
 DIIS: error= 1.60D-04 at cycle   6 NSaved=   6.
 NSaved= 6 IEnMin= 6 EnMin= -1136.09553809809     IErMin= 6 ErrMin= 1.60D-04
 ErrMax= 1.60D-04  0.00D+00 EMaxC= 1.00D-01 BMatC= 9.19D-06 BMatP= 1.56D-03
 IDIUse=3 WtCom= 9.98D-01 WtEn= 1.60D-03
 Coeff-Com:  0.326D-03-0.995D-03-0.237D-01-0.333D-01 0.268D-01 0.103D+01
 Coeff-En:   0.000D+00 0.000D+00 0.000D+00 0.000D+00 0.000D+00 0.100D+01
 Coeff:      0.326D-03-0.993D-03-0.237D-01-0.332D-01 0.267D-01 0.103D+01
 Gap=     0.037 Goal=   None    Shift=    0.000
 Gap=     0.038 Goal=   None    Shift=    0.000
 RMSDP=7.41D-04 MaxDP=5.88D-02 DE=-1.88D-03 OVMax= 1.10D-02

 Cycle   7  Pass 1  IDiag  1:
 E= -1136.09556849895     Delta-E=       -0.000030400858 Rises=F Damp=F
 DIIS: error= 8.68D-05 at cycle   7 NSaved=   7.
 NSaved= 7 IEnMin= 7 EnMin= -1136.09556849895     IErMin= 7 ErrMin= 8.68D-05
 ErrMax= 8.68D-05  0.00D+00 EMaxC= 1.00D-01 BMatC= 2.20D-06 BMatP= 9.19D-06
 IDIUse=1 WtCom= 1.00D+00 WtEn= 0.00D+00
 Coeff-Com:  0.136D-02-0.199D-02-0.188D-01-0.282D-01-0.111D-01 0.276D+00
 Coeff-Com:  0.783D+00
 Coeff:      0.136D-02-0.199D-02-0.188D-01-0.282D-01-0.111D-01 0.276D+00
 Coeff:      0.783D+00
 Gap=     0.037 Goal=   None    Shift=    0.000
 Gap=     0.038 Goal=   None    Shift=    0.000
 RMSDP=2.40D-04 MaxDP=2.07D-02 DE=-3.04D-05 OVMax= 5.70D-03

 Cycle   8  Pass 1  IDiag  1:
 E= -1136.09557718412     Delta-E=       -0.000008685172 Rises=F Damp=F
 DIIS: error= 5.74D-05 at cycle   8 NSaved=   8.
 NSaved= 8 IEnMin= 8 EnMin= -1136.09557718412     IErMin= 8 ErrMin= 5.74D-05
 ErrMax= 5.74D-05  0.00D+00 EMaxC= 1.00D-01 BMatC= 1.16D-06 BMatP= 2.20D-06
 IDIUse=1 WtCom= 1.00D+00 WtEn= 0.00D+00
 Coeff-Com:  0.128D-02-0.165D-02-0.212D-02-0.360D-02-0.228D-01-0.255D+00
 Coeff-Com:  0.394D+00 0.890D+00
 Coeff:      0.128D-02-0.165D-02-0.212D-02-0.360D-02-0.228D-01-0.255D+00
 Coeff:      0.394D+00 0.890D+00
 Gap=     0.037 Goal=   None    Shift=    0.000
 Gap=     0.039 Goal=   None    Shift=    0.000
 RMSDP=2.50D-04 MaxDP=1.73D-02 DE=-8.69D-06 OVMax= 6.46D-03

 Cycle   9  Pass 1  IDiag  1:
 E= -1136.09558422427     Delta-E=       -0.000007040152 Rises=F Damp=F
 DIIS: error= 3.02D-05 at cycle   9 NSaved=   9.
 NSaved= 9 IEnMin= 9 EnMin= -1136.09558422427     IErMin= 9 ErrMin= 3.02D-05
 ErrMax= 3.02D-05  0.00D+00 EMaxC= 1.00D-01 BMatC= 3.79D-07 BMatP= 1.16D-06
 IDIUse=1 WtCom= 1.00D+00 WtEn= 0.00D+00
 Coeff-Com:  0.424D-03-0.491D-03 0.372D-02 0.574D-02-0.827D-02-0.123D+00
 Coeff-Com: -0.186D+00 0.245D+00 0.106D+01
 Coeff:      0.424D-03-0.491D-03 0.372D-02 0.574D-02-0.827D-02-0.123D+00
 Coeff:     -0.186D+00 0.245D+00 0.106D+01
 Gap=     0.037 Goal=   None    Shift=    0.000
 Gap=     0.039 Goal=   None    Shift=    0.000
 RMSDP=1.90D-04 MaxDP=1.31D-02 DE=-7.04D-06 OVMax= 5.08D-03

 Cycle  10  Pass 1  IDiag  1:
 E= -1136.09558754729     Delta-E=       -0.000003323018 Rises=F Damp=F
 DIIS: error= 2.33D-05 at cycle  10 NSaved=  10.
 NSaved=10 IEnMin=10 EnMin= -1136.09558754729     IErMin=10 ErrMin= 2.33D-05
 ErrMax= 2.33D-05  0.00D+00 EMaxC= 1.00D-01 BMatC= 1.08D-07 BMatP= 3.79D-07
 IDIUse=1 WtCom= 1.00D+00 WtEn= 0.00D+00
 Coeff-Com: -0.149D-03 0.224D-03 0.281D-02 0.305D-02 0.436D-02 0.195D-01
 Coeff-Com: -0.160D+00-0.139D+00 0.239D+00 0.103D+01
 Coeff:     -0.149D-03 0.224D-03 0.281D-02 0.305D-02 0.436D-02 0.195D-01
 Coeff:     -0.160D+00-0.139D+00 0.239D+00 0.103D+01
 Gap=     0.037 Goal=   None    Shift=    0.000
 Gap=     0.039 Goal=   None    Shift=    0.000
 RMSDP=1.13D-04 MaxDP=7.80D-03 DE=-3.32D-06 OVMax= 3.63D-03

 Cycle  11  Pass 1  IDiag  1:
 E= -1136.09558887055     Delta-E=       -0.000001323260 Rises=F Damp=F
 DIIS: error= 1.61D-05 at cycle  11 NSaved=  11.
 NSaved=11 IEnMin=11 EnMin= -1136.09558887055     IErMin=11 ErrMin= 1.61D-05
 ErrMax= 1.61D-05  0.00D+00 EMaxC= 1.00D-01 BMatC= 4.34D-08 BMatP= 1.08D-07
 IDIUse=1 WtCom= 1.00D+00 WtEn= 0.00D+00
 Coeff-Com: -0.166D-03 0.210D-03-0.198D-03-0.768D-03 0.365D-02 0.445D-01
 Coeff-Com: -0.671D-03-0.104D+00-0.225D+00 0.191D+00 0.109D+01
 Coeff:     -0.166D-03 0.210D-03-0.198D-03-0.768D-03 0.365D-02 0.445D-01
 Coeff:     -0.671D-03-0.104D+00-0.225D+00 0.191D+00 0.109D+01
 Gap=     0.037 Goal=   None    Shift=    0.000
 Gap=     0.039 Goal=   None    Shift=    0.000
 RMSDP=7.65D-05 MaxDP=4.87D-03 DE=-1.32D-06 OVMax= 2.84D-03

 Cycle  12  Pass 1  IDiag  1:
 E= -1136.09558959486     Delta-E=       -0.000000724316 Rises=F Damp=F
 DIIS: error= 1.35D-05 at cycle  12 NSaved=  12.
 NSaved=12 IEnMin=12 EnMin= -1136.09558959486     IErMin=12 ErrMin= 1.35D-05
 ErrMax= 1.35D-05  0.00D+00 EMaxC= 1.00D-01 BMatC= 2.70D-08 BMatP= 4.34D-08
 IDIUse=1 WtCom= 1.00D+00 WtEn= 0.00D+00
 Coeff-Com: -0.479D-05-0.227D-05-0.842D-03-0.105D-02-0.284D-03 0.119D-01
 Coeff-Com:  0.376D-01 0.396D-03-0.122D+00-0.219D+00 0.282D+00 0.101D+01
 Coeff:     -0.479D-05-0.227D-05-0.842D-03-0.105D-02-0.284D-03 0.119D-01
 Coeff:      0.376D-01 0.396D-03-0.122D+00-0.219D+00 0.282D+00 0.101D+01
 Gap=     0.037 Goal=   None    Shift=    0.000
 Gap=     0.039 Goal=   None    Shift=    0.000
 RMSDP=5.34D-05 MaxDP=3.23D-03 DE=-7.24D-07 OVMax= 1.96D-03

 Cycle  13  Pass 1  IDiag  1:
 E= -1136.09559007422     Delta-E=       -0.000000479352 Rises=F Damp=F
 DIIS: error= 1.14D-05 at cycle  13 NSaved=  13.
 NSaved=13 IEnMin=13 EnMin= -1136.09559007422     IErMin=13 ErrMin= 1.14D-05
 ErrMax= 1.14D-05  0.00D+00 EMaxC= 1.00D-01 BMatC= 2.26D-08 BMatP= 2.70D-08
 IDIUse=1 WtCom= 1.00D+00 WtEn= 0.00D+00
 Coeff-Com:  0.901D-04-0.119D-03-0.592D-03-0.403D-03-0.234D-02-0.166D-01
 Coeff-Com:  0.245D-01 0.576D-01 0.416D-01-0.258D+00-0.376D+00 0.675D+00
 Coeff-Com:  0.855D+00
 Coeff:      0.901D-04-0.119D-03-0.592D-03-0.403D-03-0.234D-02-0.166D-01
 Coeff:      0.245D-01 0.576D-01 0.416D-01-0.258D+00-0.376D+00 0.675D+00
 Coeff:      0.855D+00
 Gap=     0.037 Goal=   None    Shift=    0.000
 Gap=     0.039 Goal=   None    Shift=    0.000
 RMSDP=5.30D-05 MaxDP=3.12D-03 DE=-4.79D-07 OVMax= 1.96D-03

 Cycle  14  Pass 1  IDiag  1:
 E= -1136.09559051260     Delta-E=       -0.000000438389 Rises=F Damp=F
 DIIS: error= 9.68D-06 at cycle  14 NSaved=  14.
 NSaved=14 IEnMin=14 EnMin= -1136.09559051260     IErMin=14 ErrMin= 9.68D-06
 ErrMax= 9.68D-06  0.00D+00 EMaxC= 1.00D-01 BMatC= 1.55D-08 BMatP= 2.26D-08
 IDIUse=1 WtCom= 1.00D+00 WtEn= 0.00D+00
 Coeff-Com: -0.406D-05 0.170D-04 0.400D-03 0.455D-03 0.824D-03-0.929D-02
 Coeff-Com: -0.542D-01-0.156D-01 0.159D+00 0.390D+00-0.286D+00-0.172D+01
 Coeff-Com: -0.365D+00 0.290D+01
 Coeff:     -0.406D-05 0.170D-04 0.400D-03 0.455D-03 0.824D-03-0.929D-02
 Coeff:     -0.542D-01-0.156D-01 0.159D+00 0.390D+00-0.286D+00-0.172D+01
 Coeff:     -0.365D+00 0.290D+01
 Gap=     0.037 Goal=   None    Shift=    0.000
 Gap=     0.039 Goal=   None    Shift=    0.000
 RMSDP=1.57D-04 MaxDP=9.17D-03 DE=-4.38D-07 OVMax= 6.00D-03

 Cycle  15  Pass 1  IDiag  1:
 E= -1136.09559151291     Delta-E=       -0.000001000305 Rises=F Damp=F
 DIIS: error= 5.90D-06 at cycle  15 NSaved=  15.
 NSaved=15 IEnMin=15 EnMin= -1136.09559151291     IErMin=15 ErrMin= 5.90D-06
 ErrMax= 5.90D-06  0.00D+00 EMaxC= 1.00D-01 BMatC= 6.91D-09 BMatP= 1.55D-08
 IDIUse=1 WtCom= 1.00D+00 WtEn= 0.00D+00
 Coeff-Com: -0.497D-04 0.621D-04 0.445D-03 0.156D-03 0.156D-02 0.183D-01
 Coeff-Com:  0.118D-01-0.540D-01-0.129D+00-0.166D-01 0.527D+00 0.335D+00
 Coeff-Com: -0.548D+00-0.143D+01 0.228D+01
 Coeff:     -0.497D-04 0.621D-04 0.445D-03 0.156D-03 0.156D-02 0.183D-01
 Coeff:      0.118D-01-0.540D-01-0.129D+00-0.166D-01 0.527D+00 0.335D+00
 Coeff:     -0.548D+00-0.143D+01 0.228D+01
 Gap=     0.037 Goal=   None    Shift=    0.000
 Gap=     0.039 Goal=   None    Shift=    0.000
 RMSDP=1.67D-04 MaxDP=9.79D-03 DE=-1.00D-06 OVMax= 6.20D-03

 Cycle  16  Pass 1  IDiag  1:
 E= -1136.09559206852     Delta-E=       -0.000000555606 Rises=F Damp=F
 DIIS: error= 2.03D-06 at cycle  16 NSaved=  16.
 NSaved=16 IEnMin=16 EnMin= -1136.09559206852     IErMin=16 ErrMin= 2.03D-06
 ErrMax= 2.03D-06  0.00D+00 EMaxC= 1.00D-01 BMatC= 1.95D-09 BMatP= 6.91D-09
 IDIUse=1 WtCom= 1.00D+00 WtEn= 0.00D+00
 Coeff-Com: -0.241D-04 0.265D-04-0.189D-03-0.305D-03-0.380D-04 0.778D-02
 Coeff-Com:  0.271D-01 0.850D-03-0.811D-01-0.209D+00 0.205D+00 0.866D+00
 Coeff-Com:  0.154D+00-0.160D+01 0.358D+00 0.127D+01
 Coeff:     -0.241D-04 0.265D-04-0.189D-03-0.305D-03-0.380D-04 0.778D-02
 Coeff:      0.271D-01 0.850D-03-0.811D-01-0.209D+00 0.205D+00 0.866D+00
 Coeff:      0.154D+00-0.160D+01 0.358D+00 0.127D+01
 Gap=     0.037 Goal=   None    Shift=    0.000
 Gap=     0.039 Goal=   None    Shift=    0.000
 RMSDP=7.27D-05 MaxDP=3.97D-03 DE=-5.56D-07 OVMax= 2.64D-03

 Cycle  17  Pass 1  IDiag  1:
 E= -1136.09559215823     Delta-E=       -0.000000089714 Rises=F Damp=F
 DIIS: error= 1.09D-06 at cycle  17 NSaved=  17.
 NSaved=17 IEnMin=17 EnMin= -1136.09559215823     IErMin=17 ErrMin= 1.09D-06
 ErrMax= 1.09D-06  0.00D+00 EMaxC= 1.00D-01 BMatC= 4.33D-10 BMatP= 1.95D-09
 IDIUse=1 WtCom= 1.00D+00 WtEn= 0.00D+00
 Coeff-Com:  0.168D-04-0.234D-04-0.226D-03-0.138D-03-0.573D-03-0.287D-02
 Coeff-Com:  0.372D-03 0.141D-01 0.267D-01-0.468D-01-0.111D+00 0.139D+00
 Coeff-Com:  0.172D+00-0.693D-02-0.508D+00 0.288D+00 0.104D+01
 Coeff:      0.168D-04-0.234D-04-0.226D-03-0.138D-03-0.573D-03-0.287D-02
 Coeff:      0.372D-03 0.141D-01 0.267D-01-0.468D-01-0.111D+00 0.139D+00
 Coeff:      0.172D+00-0.693D-02-0.508D+00 0.288D+00 0.104D+01
 Gap=     0.037 Goal=   None    Shift=    0.000
 Gap=     0.039 Goal=   None    Shift=    0.000
 RMSDP=2.21D-05 MaxDP=1.17D-03 DE=-8.97D-08 OVMax= 7.84D-04

 Cycle  18  Pass 1  IDiag  1:
 E= -1136.09559216732     Delta-E=       -0.000000009089 Rises=F Damp=F
 DIIS: error= 5.93D-07 at cycle  18 NSaved=  18.
 NSaved=18 IEnMin=18 EnMin= -1136.09559216732     IErMin=18 ErrMin= 5.93D-07
 ErrMax= 5.93D-07  0.00D+00 EMaxC= 1.00D-01 BMatC= 7.35D-11 BMatP= 4.33D-10
 IDIUse=1 WtCom= 1.00D+00 WtEn= 0.00D+00
 Coeff-Com:  0.160D-04-0.202D-04 0.390D-04 0.639D-04-0.106D-03-0.260D-02
 Coeff-Com: -0.418D-02 0.214D-02 0.142D-01 0.281D-01-0.424D-01-0.130D+00
 Coeff-Com: -0.960D-02 0.244D+00-0.460D-01-0.252D+00-0.151D-01 0.121D+01
 Coeff:      0.160D-04-0.202D-04 0.390D-04 0.639D-04-0.106D-03-0.260D-02
 Coeff:     -0.418D-02 0.214D-02 0.142D-01 0.281D-01-0.424D-01-0.130D+00
 Coeff:     -0.960D-02 0.244D+00-0.460D-01-0.252D+00-0.151D-01 0.121D+01
 Gap=     0.037 Goal=   None    Shift=    0.000
 Gap=     0.039 Goal=   None    Shift=    0.000
 RMSDP=6.89D-06 MaxDP=3.61D-04 DE=-9.09D-09 OVMax= 2.25D-04

 Cycle  19  Pass 1  IDiag  1:
 E= -1136.09559216846     Delta-E=       -0.000000001141 Rises=F Damp=F
 DIIS: error= 3.19D-07 at cycle  19 NSaved=  19.
 NSaved=19 IEnMin=19 EnMin= -1136.09559216846     IErMin=19 ErrMin= 3.19D-07
 ErrMax= 3.19D-07  0.00D+00 EMaxC= 1.00D-01 BMatC= 1.99D-11 BMatP= 7.35D-11
 IDIUse=1 WtCom= 1.00D+00 WtEn= 0.00D+00
 Coeff-Com: -0.145D-04 0.193D-04 0.313D-04 0.522D-05 0.218D-03 0.187D-02
 Coeff-Com:  0.101D-02-0.501D-02-0.116D-01 0.910D-02 0.448D-01-0.177D-01
 Coeff-Com: -0.477D-01-0.397D-01 0.136D+00-0.353D-01-0.216D+00-0.198D+00
 Coeff-Com:  0.138D+01
 Coeff:     -0.145D-04 0.193D-04 0.313D-04 0.522D-05 0.218D-03 0.187D-02
 Coeff:      0.101D-02-0.501D-02-0.116D-01 0.910D-02 0.448D-01-0.177D-01
 Coeff:     -0.477D-01-0.397D-01 0.136D+00-0.353D-01-0.216D+00-0.198D+00
 Coeff:      0.138D+01
 Gap=     0.037 Goal=   None    Shift=    0.000
 Gap=     0.039 Goal=   None    Shift=    0.000
 RMSDP=2.47D-06 MaxDP=1.57D-04 DE=-1.14D-09 OVMax= 6.04D-05

 Cycle  20  Pass 1  IDiag  1:
 E= -1136.09559216871     Delta-E=       -0.000000000255 Rises=F Damp=F
 DIIS: error= 1.80D-07 at cycle  20 NSaved=  20.
 NSaved=20 IEnMin=20 EnMin= -1136.09559216871     IErMin=20 ErrMin= 1.80D-07
 ErrMax= 1.80D-07  0.00D+00 EMaxC= 1.00D-01 BMatC= 4.84D-12 BMatP= 1.99D-11
 IDIUse=1 WtCom= 1.00D+00 WtEn= 0.00D+00
 Coeff-Com: -0.584D-06 0.586D-06-0.347D-05-0.425D-05-0.465D-05 0.998D-04
 Coeff-Com:  0.276D-03 0.510D-03 0.121D-02-0.728D-02-0.302D-02 0.257D-01
 Coeff-Com:  0.176D-01-0.355D-01-0.342D-01 0.794D-01 0.588D-01-0.355D+00
 Coeff-Com: -0.104D+00 0.136D+01
 Coeff:     -0.584D-06 0.586D-06-0.347D-05-0.425D-05-0.465D-05 0.998D-04
 Coeff:      0.276D-03 0.510D-03 0.121D-02-0.728D-02-0.302D-02 0.257D-01
 Coeff:      0.176D-01-0.355D-01-0.342D-01 0.794D-01 0.588D-01-0.355D+00
 Coeff:     -0.104D+00 0.136D+01
 Gap=     0.037 Goal=   None    Shift=    0.000
 Gap=     0.039 Goal=   None    Shift=    0.000
 RMSDP=1.32D-06 MaxDP=8.85D-05 DE=-2.55D-10 OVMax= 2.77D-05

 Cycle  21  Pass 1  IDiag  1:
 E= -1136.09559216875     Delta-E=       -0.000000000037 Rises=F Damp=F
 DIIS: error= 5.38D-08 at cycle  21 NSaved=  20.
 NSaved=20 IEnMin=20 EnMin= -1136.09559216875     IErMin=20 ErrMin= 5.38D-08
 ErrMax= 5.38D-08  0.00D+00 EMaxC= 1.00D-01 BMatC= 6.20D-13 BMatP= 4.84D-12
 IDIUse=1 WtCom= 1.00D+00 WtEn= 0.00D+00
 Coeff-Com:  0.296D-06-0.898D-06 0.205D-06-0.111D-04-0.139D-03-0.165D-03
 Coeff-Com:  0.373D-03 0.103D-02-0.979D-03-0.431D-02 0.467D-02 0.526D-02
 Coeff-Com:  0.115D-03-0.179D-01 0.154D-01 0.303D-01-0.909D-02-0.180D+00
 Coeff-Com:  0.443D-01 0.111D+01
 Coeff:      0.296D-06-0.898D-06 0.205D-06-0.111D-04-0.139D-03-0.165D-03
 Coeff:      0.373D-03 0.103D-02-0.979D-03-0.431D-02 0.467D-02 0.526D-02
 Coeff:      0.115D-03-0.179D-01 0.154D-01 0.303D-01-0.909D-02-0.180D+00
 Coeff:      0.443D-01 0.111D+01
 Gap=     0.037 Goal=   None    Shift=    0.000
 Gap=     0.039 Goal=   None    Shift=    0.000
 RMSDP=4.14D-07 MaxDP=3.25D-05 DE=-3.68D-11 OVMax= 7.52D-06

 Cycle  22  Pass 1  IDiag  1:
 E= -1136.09559216878     Delta-E=       -0.000000000030 Rises=F Damp=F
 DIIS: error= 2.17D-08 at cycle  22 NSaved=  20.
 NSaved=20 IEnMin=20 EnMin= -1136.09559216878     IErMin=20 ErrMin= 2.17D-08
 ErrMax= 2.17D-08  0.00D+00 EMaxC= 1.00D-01 BMatC= 1.22D-13 BMatP= 6.20D-13
 IDIUse=1 WtCom= 1.00D+00 WtEn= 0.00D+00
 Coeff-Com: -0.184D-05-0.292D-06-0.823D-05-0.757D-04-0.721D-04 0.162D-03
 Coeff-Com:  0.232D-03 0.623D-03-0.124D-02-0.275D-02-0.170D-03 0.607D-02
 Coeff-Com: -0.236D-02-0.574D-02 0.138D-02 0.433D-01-0.227D-01-0.189D+00
 Coeff-Com:  0.188D+00 0.985D+00
 Coeff:     -0.184D-05-0.292D-06-0.823D-05-0.757D-04-0.721D-04 0.162D-03
 Coeff:      0.232D-03 0.623D-03-0.124D-02-0.275D-02-0.170D-03 0.607D-02
 Coeff:     -0.236D-02-0.574D-02 0.138D-02 0.433D-01-0.227D-01-0.189D+00
 Coeff:      0.188D+00 0.985D+00
 Gap=     0.037 Goal=   None    Shift=    0.000
 Gap=     0.039 Goal=   None    Shift=    0.000
 RMSDP=1.57D-07 MaxDP=1.09D-05 DE=-3.05D-11 OVMax= 3.15D-06

 Cycle  23  Pass 1  IDiag  1:
 E= -1136.09559216876     Delta-E=        0.000000000026 Rises=F Damp=F
 DIIS: error= 7.28D-09 at cycle  23 NSaved=  20.
 NSaved=20 IEnMin=19 EnMin= -1136.09559216878     IErMin=20 ErrMin= 7.28D-09
 ErrMax= 7.28D-09  0.00D+00 EMaxC= 1.00D-01 BMatC= 2.03D-14 BMatP= 1.22D-13
 IDIUse=1 WtCom= 1.00D+00 WtEn= 0.00D+00
 Coeff-Com:  0.121D-06 0.251D-05 0.219D-04-0.123D-06-0.761D-04-0.624D-04
 Coeff-Com:  0.231D-03 0.489D-03-0.121D-02-0.605D-03 0.864D-03 0.190D-02
 Coeff-Com: -0.239D-02-0.358D-02-0.524D-03 0.270D-01 0.203D-02-0.206D+00
 Coeff-Com:  0.849D-01 0.110D+01
 Coeff:      0.121D-06 0.251D-05 0.219D-04-0.123D-06-0.761D-04-0.624D-04
 Coeff:      0.231D-03 0.489D-03-0.121D-02-0.605D-03 0.864D-03 0.190D-02
 Coeff:     -0.239D-02-0.358D-02-0.524D-03 0.270D-01 0.203D-02-0.206D+00
 Coeff:      0.849D-01 0.110D+01
 Gap=     0.037 Goal=   None    Shift=    0.000
 Gap=     0.039 Goal=   None    Shift=    0.000
 RMSDP=5.20D-08 MaxDP=3.58D-06 DE= 2.64D-11 OVMax= 1.18D-06

 Cycle  24  Pass 1  IDiag  1:
 E= -1136.09559216877     Delta-E=       -0.000000000019 Rises=F Damp=F
 DIIS: error= 3.06D-09 at cycle  24 NSaved=  20.
 NSaved=20 IEnMin=18 EnMin= -1136.09559216878     IErMin=20 ErrMin= 3.06D-09
 ErrMax= 3.06D-09  0.00D+00 EMaxC= 1.00D-01 BMatC= 3.95D-15 BMatP= 2.03D-14
 IDIUse=1 WtCom= 1.00D+00 WtEn= 0.00D+00
 Large coefficients: NSaved= 20 BigCof=    0.00 CofMax=   10.00 Det=-6.44D-15
 Inversion failed.  Reducing to 19 matrices.
 Large coefficients: NSaved= 19 BigCof=    0.00 CofMax=   10.00 Det=-7.24D-15
 Inversion failed.  Reducing to 18 matrices.
 Large coefficients: NSaved= 18 BigCof=    0.00 CofMax=   10.00 Det=-7.25D-15
 Inversion failed.  Reducing to 17 matrices.
 Large coefficients: NSaved= 17 BigCof=    0.00 CofMax=   10.00 Det=-7.34D-15
 Inversion failed.  Reducing to 16 matrices.
 Large coefficients: NSaved= 16 BigCof=    0.00 CofMax=   10.00 Det=-8.02D-15
 Inversion failed.  Reducing to 15 matrices.
 Coeff-Com: -0.738D-04 0.504D-04 0.245D-03 0.125D-03-0.449D-03 0.171D-03
 Coeff-Com: -0.126D-03-0.161D-03-0.162D-02 0.469D-02 0.824D-02-0.443D-01
 Coeff-Com: -0.645D-01 0.979D-01 0.100D+01
 Coeff:     -0.738D-04 0.504D-04 0.245D-03 0.125D-03-0.449D-03 0.171D-03
 Coeff:     -0.126D-03-0.161D-03-0.162D-02 0.469D-02 0.824D-02-0.443D-01
 Coeff:     -0.645D-01 0.979D-01 0.100D+01
 Gap=     0.037 Goal=   None    Shift=    0.000
 Gap=     0.039 Goal=   None    Shift=    0.000
 RMSDP=1.20D-08 MaxDP=7.80D-07 DE=-1.86D-11 OVMax= 4.44D-07

 Cycle  25  Pass 1  IDiag  1:
 E= -1136.09559216876     Delta-E=        0.000000000010 Rises=F Damp=F
 DIIS: error= 2.52D-09 at cycle  25 NSaved=  16.
 NSaved=16 IEnMin=13 EnMin= -1136.09559216878     IErMin=16 ErrMin= 2.52D-09
 ErrMax= 2.52D-09  0.00D+00 EMaxC= 1.00D-01 BMatC= 1.74D-15 BMatP= 3.95D-15
 IDIUse=1 WtCom= 1.00D+00 WtEn= 0.00D+00
 Large coefficients: NSaved= 16 BigCof=    0.00 CofMax=   10.00 Det=-2.18D-15
 Inversion failed.  Reducing to 15 matrices.
 Coeff-Com:  0.434D-04-0.252D-04 0.507D-04-0.254D-03 0.281D-03 0.177D-03
 Coeff-Com: -0.143D-03-0.246D-02 0.596D-03 0.128D-01-0.679D-02-0.477D-01
 Coeff-Com: -0.104D+00 0.155D+00 0.992D+00
 Coeff:      0.434D-04-0.252D-04 0.507D-04-0.254D-03 0.281D-03 0.177D-03
 Coeff:     -0.143D-03-0.246D-02 0.596D-03 0.128D-01-0.679D-02-0.477D-01
 Coeff:     -0.104D+00 0.155D+00 0.992D+00
 Gap=     0.037 Goal=   None    Shift=    0.000
 Gap=     0.039 Goal=   None    Shift=    0.000
 RMSDP=7.86D-09 MaxDP=4.87D-07 DE= 1.05D-11 OVMax= 4.04D-07

 SCF Done:  E(UB3LYP) =  -1136.09559217     A.U. after   25 cycles
            NFock= 25  Conv=0.79D-08     -V/T= 2.0025
 <Sx>= 0.0000 <Sy>= 0.0000 <Sz>= 0.5000 <S**2>= 0.7719 S= 0.5109
 <L.S>= 0.000000000000E+00
 KE= 1.133211293119D+03 PE=-3.463124288381D+03 EE= 8.268977671227D+02
 Annihilation of the first spin contaminant:
 S**2 before annihilation     0.7719,   after     0.7503
 Leave Link  502 at Mon Nov 13 15:58:23 2023, MaxMem=  1879048192 cpu:             241.3 elap:              20.6
 (Enter /home/sekinelabo/g16/l601.exe)
 Copying SCF densities to generalized density rwf, IOpCl= 1 IROHF=0.

 **********************************************************************

            Population analysis using the SCF Density.

 **********************************************************************

 Orbital symmetries:
 Alpha Orbitals:
       Occupied  (A) (A) (A) (A) (A) (A) (A) (A) (A) (A) (A) (A)
                 (A) (A) (A) (A) (A) (A) (A) (A) (A) (A) (A) (A)
                 (A) (A) (A) (A) (A) (A) (A) (A) (A) (A) (A) (A)
                 (A) (A) (A)
       Virtual   (A) (A) (A) (A) (A) (A) (A) (A) (A) (A) (A) (A)
                 (A) (A) (A) (A) (A) (A) (A) (A) (A) (A) (A) (A)
                 (A) (A) (A) (A) (A) (A) (A) (A) (A) (A) (A) (A)
                 (A) (A) (A) (A) (A) (A) (A) (A) (A) (A) (A) (A)
                 (A) (A) (A) (A) (A) (A) (A) (A) (A) (A) (A) (A)
                 (A) (A) (A) (A) (A) (A) (A) (A) (A) (A) (A) (A)
                 (A) (A) (A) (A) (A) (A) (A) (A) (A) (A) (A) (A)
                 (A) (A) (A) (A) (A) (A) (A) (A) (A) (A) (A) (A)
                 (A) (A) (A) (A) (A) (A) (A) (A) (A) (A) (A) (A)
                 (A) (A) (A) (A) (A) (A) (A) (A) (A) (A) (A) (A)
                 (A) (A) (A) (A) (A) (A) (A) (A) (A) (A) (A) (A)
                 (A) (A) (A) (A) (A) (A) (A) (A) (A) (A) (A) (A)
                 (A) (A) (A) (A) (A) (A) (A) (A) (A) (A) (A) (A)
                 (A) (A) (A) (A) (A) (A) (A) (A) (A) (A) (A) (A)
                 (A) (A)
 Beta  Orbitals:
       Occupied  (A) (A) (A) (A) (A) (A) (A) (A) (A) (A) (A) (A)
                 (A) (A) (A) (A) (A) (A) (A) (A) (A) (A) (A) (A)
                 (A) (A) (A) (A) (A) (A) (A) (A) (A) (A) (A) (A)
                 (A) (A)
       Virtual   (A) (A) (A) (A) (A) (A) (A) (A) (A) (A) (A) (A)
                 (A) (A) (A) (A) (A) (A) (A) (A) (A) (A) (A) (A)
                 (A) (A) (A) (A) (A) (A) (A) (A) (A) (A) (A) (A)
                 (A) (A) (A) (A) (A) (A) (A) (A) (A) (A) (A) (A)
                 (A) (A) (A) (A) (A) (A) (A) (A) (A) (A) (A) (A)
                 (A) (A) (A) (A) (A) (A) (A) (A) (A) (A) (A) (A)
                 (A) (A) (A) (A) (A) (A) (A) (A) (A) (A) (A) (A)
                 (A) (A) (A) (A) (A) (A) (A) (A) (A) (A) (A) (A)
                 (A) (A) (A) (A) (A) (A) (A) (A) (A) (A) (A) (A)
                 (A) (A) (A) (A) (A) (A) (A) (A) (A) (A) (A) (A)
                 (A) (A) (A) (A) (A) (A) (A) (A) (A) (A) (A) (A)
                 (A) (A) (A) (A) (A) (A) (A) (A) (A) (A) (A) (A)
                 (A) (A) (A) (A) (A) (A) (A) (A) (A) (A) (A) (A)
                 (A) (A) (A) (A) (A) (A) (A) (A) (A) (A) (A) (A)
                 (A) (A) (A)
 The electronic state is 2-A.
 Alpha  occ. eigenvalues --  -38.45326 -38.44577 -38.44422 -38.44036 -38.43406
 Alpha  occ. eigenvalues --  -38.43344 -38.43159  -2.21217  -2.20588  -2.20555
 Alpha  occ. eigenvalues --   -2.19935  -2.19406  -2.19339  -2.19275  -1.14906
 Alpha  occ. eigenvalues --   -1.14887  -1.14847  -1.14412  -1.14346  -1.14259
 Alpha  occ. eigenvalues --   -1.14239  -1.14183  -1.14114  -1.13599  -1.13586
 Alpha  occ. eigenvalues --   -1.13540  -1.13164  -1.13111  -1.13092  -1.13011
 Alpha  occ. eigenvalues --   -1.12993  -1.12944  -1.12930  -1.12850  -1.12795
 Alpha  occ. eigenvalues --   -0.19933  -0.14969  -0.11363  -0.11037
 Alpha virt. eigenvalues --   -0.07288  -0.05161  -0.03972  -0.03107  -0.03006
 Alpha virt. eigenvalues --   -0.02238  -0.01832  -0.01208  -0.00294  -0.00101
 Alpha virt. eigenvalues --    0.00110   0.00311   0.00642   0.00743   0.00845
 Alpha virt. eigenvalues --    0.00946   0.01059   0.01273   0.01491   0.01518
 Alpha virt. eigenvalues --    0.01594   0.01668   0.01897   0.01931   0.02035
 Alpha virt. eigenvalues --    0.02236   0.02386   0.02563   0.02583   0.02722
 Alpha virt. eigenvalues --    0.02751   0.02956   0.02975   0.03098   0.03172
 Alpha virt. eigenvalues --    0.03240   0.03465   0.03546   0.03926   0.04051
 Alpha virt. eigenvalues --    0.04375   0.04479   0.04518   0.04639   0.05111
 Alpha virt. eigenvalues --    0.05256   0.05601   0.05761   0.06055   0.06125
 Alpha virt. eigenvalues --    0.06482   0.06750   0.07267   0.07440   0.07646
 Alpha virt. eigenvalues --    0.07764   0.08298   0.08431   0.08831   0.09209
 Alpha virt. eigenvalues --    0.09506   0.10325   0.11112   0.11663   0.11946
 Alpha virt. eigenvalues --    0.12309   0.12911   0.13242   0.13431   0.13873
 Alpha virt. eigenvalues --    0.14294   0.14727   0.14898   0.15035   0.15563
 Alpha virt. eigenvalues --    0.15945   0.17180   0.17600   0.19617   0.23384
 Alpha virt. eigenvalues --    0.24926   0.26402   0.27514   0.29810   0.30258
 Alpha virt. eigenvalues --    0.30613   0.31103   0.32151   0.33063   0.33632
 Alpha virt. eigenvalues --    0.35069   0.35747   0.37067   0.38256   0.39195
 Alpha virt. eigenvalues --    0.40282   0.41624   0.41912   0.42558   0.43649
 Alpha virt. eigenvalues --    0.43880   0.44100   0.44605   0.45232   0.45632
 Alpha virt. eigenvalues --    0.45949   0.46380   0.46880   0.47597   0.48056
 Alpha virt. eigenvalues --    0.48662   0.49041   0.49380   0.49969   0.50974
 Alpha virt. eigenvalues --    0.51982   0.52144   0.53389   0.54008   0.54961
 Alpha virt. eigenvalues --    0.55330   0.57105   0.57442   0.59793   0.64729
 Alpha virt. eigenvalues --    0.66000   0.66982   0.69818   0.71201   0.72329
 Alpha virt. eigenvalues --    0.73149   0.75237   0.76919   0.79017   0.81711
 Alpha virt. eigenvalues --    2.08132   2.14186   2.20039   2.21892   2.23395
 Alpha virt. eigenvalues --    2.29149   2.38120   4.40973   4.41448   4.41597
 Alpha virt. eigenvalues --    4.42401   4.43117   4.43582   4.44085   4.44267
 Alpha virt. eigenvalues --    4.46086   4.46643   4.47919   4.54166   4.59707
 Alpha virt. eigenvalues --    4.62136   4.64276   4.66760   4.68535   4.70117
 Alpha virt. eigenvalues --    4.73326   4.75355   4.82385  96.28588  96.36632
 Alpha virt. eigenvalues --   96.44487  96.47443  96.48821  96.57475  96.68755
  Beta  occ. eigenvalues --  -38.45307 -38.44565 -38.44401 -38.44023 -38.43377
  Beta  occ. eigenvalues --  -38.43298 -38.43079  -2.21186  -2.20556  -2.20534
  Beta  occ. eigenvalues --   -2.19914  -2.19354  -2.19259  -2.19131  -1.14877
  Beta  occ. eigenvalues --   -1.14861  -1.14818  -1.14397  -1.14295  -1.14230
  Beta  occ. eigenvalues --   -1.14194  -1.14171  -1.14099  -1.13584  -1.13571
  Beta  occ. eigenvalues --   -1.13516  -1.13115  -1.13054  -1.13031  -1.12964
  Beta  occ. eigenvalues --   -1.12925  -1.12893  -1.12841  -1.12766  -1.12683
  Beta  occ. eigenvalues --   -0.19258  -0.14563  -0.11113
  Beta virt. eigenvalues --   -0.07242  -0.06985  -0.05024  -0.03237  -0.02945
  Beta virt. eigenvalues --   -0.02849  -0.01665  -0.01265  -0.00899  -0.00063
  Beta virt. eigenvalues --   -0.00005   0.00201   0.00307   0.00753   0.00820
  Beta virt. eigenvalues --    0.00876   0.01014   0.01166   0.01350   0.01572
  Beta virt. eigenvalues --    0.01639   0.01716   0.01763   0.01938   0.02014
  Beta virt. eigenvalues --    0.02151   0.02317   0.02454   0.02587   0.02594
  Beta virt. eigenvalues --    0.02725   0.02850   0.02997   0.03010   0.03124
  Beta virt. eigenvalues --    0.03257   0.03293   0.03523   0.03635   0.04010
  Beta virt. eigenvalues --    0.04188   0.04504   0.04564   0.04679   0.04789
  Beta virt. eigenvalues --    0.05200   0.05396   0.05679   0.05911   0.06183
  Beta virt. eigenvalues --    0.06247   0.06559   0.06796   0.07393   0.07493
  Beta virt. eigenvalues --    0.07802   0.07971   0.08428   0.08546   0.08914
  Beta virt. eigenvalues --    0.09401   0.09639   0.10520   0.11414   0.11912
  Beta virt. eigenvalues --    0.12131   0.12536   0.13157   0.13351   0.13737
  Beta virt. eigenvalues --    0.14090   0.14412   0.14899   0.15145   0.15216
  Beta virt. eigenvalues --    0.15954   0.16309   0.17386   0.17912   0.19893
  Beta virt. eigenvalues --    0.23697   0.25079   0.26806   0.27898   0.30083
  Beta virt. eigenvalues --    0.30549   0.30761   0.31418   0.32518   0.33250
  Beta virt. eigenvalues --    0.33962   0.35404   0.35930   0.37420   0.38510
  Beta virt. eigenvalues --    0.39518   0.40496   0.41740   0.42190   0.42823
  Beta virt. eigenvalues --    0.43856   0.43966   0.44182   0.44774   0.45386
  Beta virt. eigenvalues --    0.45856   0.46170   0.46525   0.47015   0.47761
  Beta virt. eigenvalues --    0.48300   0.48838   0.49215   0.49552   0.50237
  Beta virt. eigenvalues --    0.51110   0.52198   0.52334   0.53714   0.54266
  Beta virt. eigenvalues --    0.55237   0.55601   0.57273   0.57624   0.60056
  Beta virt. eigenvalues --    0.65010   0.66143   0.67020   0.70076   0.71332
  Beta virt. eigenvalues --    0.72575   0.73265   0.75356   0.77168   0.79204
  Beta virt. eigenvalues --    0.81858   2.08230   2.14239   2.20126   2.21995
  Beta virt. eigenvalues --    2.23504   2.29426   2.38229   4.41005   4.41522
  Beta virt. eigenvalues --    4.41648   4.42459   4.43201   4.43634   4.44140
  Beta virt. eigenvalues --    4.44297   4.46144   4.46683   4.47983   4.54206
  Beta virt. eigenvalues --    4.59800   4.62186   4.64345   4.66822   4.68584
  Beta virt. eigenvalues --    4.70147   4.73360   4.75424   4.82436  96.28624
  Beta virt. eigenvalues --   96.36653  96.44522  96.47481  96.48857  96.57562
  Beta virt. eigenvalues --   96.68790
          Condensed to atoms (all electrons):
               1          2          3          4          5          6
     1  Na  14.163268   1.068789  -0.141026  -0.134110  -1.600528  -0.378482
     2  Na   1.068789  13.979374   0.887023  -0.325089  -0.498073  -1.997508
     3  Na  -0.141026   0.887023  10.998556   0.080777   0.128761  -0.605178
     4  Na  -0.134110  -0.325089   0.080777  11.050761   0.437644  -0.406054
     5  Na  -1.600528  -0.498073   0.128761   0.437644  13.524113  -0.509214
     6  Na  -0.378482  -1.997508  -0.605178  -0.406054  -0.509214  13.240783
     7  Na  -1.122817  -2.342533  -0.444387   0.326877  -0.458049   1.182680
               7
     1  Na  -1.122817
     2  Na  -2.342533
     3  Na  -0.444387
     4  Na   0.326877
     5  Na  -0.458049
     6  Na   1.182680
     7  Na  13.744141
          Atomic-Atomic Spin Densities.
               1          2          3          4          5          6
     1  Na   0.348571   0.217938   0.037501  -0.096551  -0.769051   0.228775
     2  Na   0.217938  -0.203892   0.136497   0.036480  -0.605111   0.456533
     3  Na   0.037501   0.136497   0.020164   0.001403  -0.045110   0.017068
     4  Na  -0.096551   0.036480   0.001403   0.106867   0.258841  -0.097532
     5  Na  -0.769051  -0.605111  -0.045110   0.258841   1.314783   0.016860
     6  Na   0.228775   0.456533   0.017068  -0.097532   0.016860  -0.318777
     7  Na   0.261548   0.289271  -0.152743  -0.092733   0.012531  -0.189539
               7
     1  Na   0.261548
     2  Na   0.289271
     3  Na  -0.152743
     4  Na  -0.092733
     5  Na   0.012531
     6  Na  -0.189539
     7  Na  -0.113467
 Mulliken charges and spin densities:
               1          2
     1  Na  -0.855094   0.228730
     2  Na   0.228017   0.327716
     3  Na   0.095475   0.014780
     4  Na  -0.030805   0.116776
     5  Na  -0.024653   0.183743
     6  Na   0.472973   0.113388
     7  Na   0.114088   0.014867
 Sum of Mulliken charges =  -0.00000   1.00000
 Mulliken charges and spin densities with hydrogens summed into heavy atoms:
               1          2
     1  Na  -0.855094   0.228730
     2  Na   0.228017   0.327716
     3  Na   0.095475   0.014780
     4  Na  -0.030805   0.116776
     5  Na  -0.024653   0.183743
     6  Na   0.472973   0.113388
     7  Na   0.114088   0.014867
 Electronic spatial extent (au):  <R**2>=           2170.2432
 Charge=              0.0000 electrons
 Dipole moment (field-independent basis, Debye):
    X=             -0.0707    Y=             -0.2805    Z=              0.4761  Tot=              0.5571
 Quadrupole moment (field-independent basis, Debye-Ang):
   XX=            -48.9529   YY=            -74.1881   ZZ=            -71.7954
   XY=             -1.3368   XZ=              1.5695   YZ=              0.3708
 Traceless Quadrupole moment (field-independent basis, Debye-Ang):
   XX=             16.0259   YY=             -9.2093   ZZ=             -6.8166
   XY=             -1.3368   XZ=              1.5695   YZ=              0.3708
 Octapole moment (field-independent basis, Debye-Ang**2):
  XXX=            -14.8086  YYY=             -2.3103  ZZZ=              5.4195  XYY=             12.7958
  XXY=             -2.4827  XXZ=             11.2622  XZZ=             -0.0685  YZZ=             -4.3155
  YYZ=              1.6901  XYZ=             -2.6704
 Hexadecapole moment (field-independent basis, Debye-Ang**3):
 XXXX=          -1806.0343 YYYY=          -1055.8534 ZZZZ=           -615.1493 XXXY=            -29.3986
 XXXZ=             32.5024 YYYX=             -2.6906 YYYZ=             23.5639 ZZZX=              4.1764
 ZZZY=             -6.3731 XXYY=           -487.7266 XXZZ=           -503.7531 YYZZ=           -281.4216
 XXYZ=            -13.9547 YYXZ=              4.2446 ZZXY=             -3.8308
 N-N= 3.669196359707D+02 E-N=-3.463124288073D+03  KE= 1.133211293119D+03
                          Isotropic Fermi Contact Couplings
        Atom                 a.u.       MegaHertz       Gauss      10(-4) cm-1
     1  Na(23)             0.03252      38.47513      13.72888      12.83392
     2  Na(23)             0.09169     108.47573      38.70684      36.18361
     3  Na(23)             0.04766      56.38459      20.11942      18.80788
     4  Na(23)             0.15355     181.65726      64.81983      60.59434
     5  Na(23)             0.31488     372.51741     132.92348     124.25843
     6  Na(23)             0.00983      11.62389       4.14769       3.87731
     7  Na(23)             0.03604      42.63905      15.21467      14.22286
 --------------------------------------------------------
       Center         ----  Spin Dipole Couplings  ----
                      3XX-RR        3YY-RR        3ZZ-RR
 --------------------------------------------------------
     1   Atom       -0.018939     -0.023265      0.042204
     2   Atom       -0.006997     -0.011648      0.018644
     3   Atom       -0.013938      0.000622      0.013316
     4   Atom       -0.009528     -0.006287      0.015815
     5   Atom       -0.011872      0.032201     -0.020329
     6   Atom       -0.007136     -0.020770      0.027906
     7   Atom       -0.005139     -0.002183      0.007321
 --------------------------------------------------------
                        XY            XZ            YZ
 --------------------------------------------------------
     1   Atom       -0.008155     -0.015168      0.020821
     2   Atom       -0.008525      0.016499     -0.012785
     3   Atom        0.000014      0.000699      0.020477
     4   Atom       -0.015737      0.017474     -0.022739
     5   Atom       -0.009459     -0.003484      0.006620
     6   Atom       -0.000412     -0.028254     -0.011821
     7   Atom       -0.002609     -0.000408      0.010683
 --------------------------------------------------------


 ---------------------------------------------------------------------------------
              Anisotropic Spin Dipole Couplings in Principal Axis System
 ---------------------------------------------------------------------------------

       Atom             a.u.   MegaHertz   Gauss  10(-4) cm-1        Axes

              Baa    -0.0309    -4.359    -1.556    -1.454  0.3938  0.9023 -0.1753
     1 Na(23) Bbb    -0.0214    -3.020    -1.078    -1.007  0.8898 -0.3263  0.3191
              Bcc     0.0523     7.380     2.633     2.462 -0.2307  0.2817  0.9314
 
              Baa    -0.0182    -2.564    -0.915    -0.855  0.5955  0.8032  0.0121
     2 Na(23) Bbb    -0.0139    -1.960    -0.699    -0.654  0.6800 -0.4960 -0.5400
              Bcc     0.0320     4.524     1.614     1.509  0.4277 -0.3298  0.8416
 
              Baa    -0.0147    -2.074    -0.740    -0.692  0.4774  0.7036 -0.5264
     3 Na(23) Bbb    -0.0137    -1.938    -0.692    -0.647  0.8786 -0.3914  0.2737
              Bcc     0.0284     4.013     1.432     1.338  0.0135  0.5931  0.8050
 
              Baa    -0.0241    -3.401    -1.214    -1.134  0.6342  0.7577  0.1541
     4 Na(23) Bbb    -0.0167    -2.356    -0.841    -0.786  0.6492 -0.4136 -0.6384
              Bcc     0.0408     5.757     2.054     1.920  0.4200 -0.5049  0.7541
 
              Baa    -0.0218    -3.078    -1.098    -1.027  0.2700 -0.0704  0.9603
     5 Na(23) Bbb    -0.0133    -1.876    -0.669    -0.626  0.9408  0.2317 -0.2475
              Bcc     0.0351     4.954     1.768     1.652 -0.2050  0.9702  0.1288
 
              Baa    -0.0286    -4.045    -1.443    -1.349  0.5850  0.6843  0.4353
     6 Na(23) Bbb    -0.0166    -2.338    -0.834    -0.780 -0.6620  0.7130 -0.2311
              Bcc     0.0452     6.383     2.278     2.129 -0.4685 -0.1530  0.8701
 
              Baa    -0.0099    -1.405    -0.501    -0.469  0.3870  0.7882 -0.4785
     7 Na(23) Bbb    -0.0045    -0.632    -0.225    -0.211  0.9176 -0.2782  0.2838
              Bcc     0.0144     2.037     0.727     0.679 -0.0905  0.5489  0.8310
 

 ---------------------------------------------------------------------------------

 No NMR shielding tensors so no spin-rotation constants.
 Leave Link  601 at Mon Nov 13 15:58:24 2023, MaxMem=  1879048192 cpu:               2.6 elap:               0.2
 (Enter /home/sekinelabo/g16/l701.exe)
 ... and contract with generalized density number  0.
 Compute integral first derivatives.
 Leave Link  701 at Mon Nov 13 15:58:24 2023, MaxMem=  1879048192 cpu:               1.7 elap:               0.1
 (Enter /home/sekinelabo/g16/l702.exe)
 L702 exits ... SP integral derivatives will be done elsewhere.
 Leave Link  702 at Mon Nov 13 15:58:24 2023, MaxMem=  1879048192 cpu:               0.5 elap:               0.0
 (Enter /home/sekinelabo/g16/l703.exe)
 Integral derivatives from FoFJK, PRISM(SPDF).
 Compute integral first derivatives, UseDBF=F ICtDFT=           0.
 Calling FoFJK, ICntrl=      2127 FMM=F ISym2X=0 I1Cent= 0 IOpClX= 1 NMat=1 NMatS=1 NMatT=0.
 FoFJK:  IHMeth= 1 ICntrl=    2127 DoSepK=F KAlg= 0 I1Cent=           0 FoldK=F
 IRaf=         0 NMat=       1 IRICut=       1 DoRegI=T DoRafI=F ISym2E= 0 IDoP0=0 IntGTp=1.
 FoFCou: FMM=F IPFlag=           0 FMFlag=      100000 FMFlg1=         800
         NFxFlg=           0 DoJE=F BraDBF=F KetDBF=F FulRan=T
         wScrn=  0.000000 ICntrl=      2127 IOpCl=  1 I1Cent=           0 NGrid=           0
         NMat0=    1 NMatS0=      1 NMatT0=    0 NMatD0=    1 NMtDS0=    0 NMtDT0=    0
 Symmetry not used in FoFCou.
 Leave Link  703 at Mon Nov 13 15:58:26 2023, MaxMem=  1879048192 cpu:              35.9 elap:               2.3
 (Enter /home/sekinelabo/g16/l716.exe)
 Dipole        =-2.78304502D-02-1.10347486D-01 1.87305719D-01
 ***** Axes restored to original set *****
 -------------------------------------------------------------------
 Center     Atomic                   Forces (Hartrees/Bohr)
 Number     Number              X              Y              Z
 -------------------------------------------------------------------
      1       11           0.000584745    0.004518643    0.013510005
      2       11           0.001329754   -0.013590804    0.004202122
      3       11           0.005297761    0.002487129    0.002016776
      4       11          -0.000404551    0.014284440   -0.004393739
      5       11           0.001426497   -0.006034873   -0.015426551
      6       11          -0.003942869   -0.012159896   -0.000299440
      7       11          -0.004291337    0.010495361    0.000390828
 -------------------------------------------------------------------
 Cartesian Forces:  Max     0.015426551 RMS     0.007677743
 Z-matrix is all fixed cartesians, so copy forces.
 Force constants in Cartesian coordinates: 
                1             2             3             4             5 
      1  0.153226D+00
      2 -0.119528D-02  0.140444D+00
      3  0.776922D-02  0.210320D-01  0.179769D+00
      4 -0.346059D-01  0.103001D-01 -0.116501D-01  0.856889D-01
      5  0.228492D-02 -0.453156D-01  0.497262D-02 -0.412303D-02  0.112034D+00
      6  0.158626D-01 -0.230128D-01 -0.273819D-01  0.106732D-01 -0.212270D-01
      7 -0.734450D-02 -0.218394D-02 -0.100321D-02 -0.266250D-01  0.391596D-02
      8  0.564613D-03  0.618227D-02 -0.179709D-02 -0.238790D-01 -0.333435D-01
      9  0.580287D-02 -0.819137D-03  0.274355D-02  0.589688D-02  0.110541D-01
     10 -0.287861D-01 -0.119254D-01  0.131477D-02  0.246164D-02  0.748144D-02
     11  0.790150D-02 -0.282024D-01 -0.127276D-02 -0.642593D-03 -0.214346D-01
     12  0.972304D-02  0.294221D-01 -0.405253D-01  0.129372D-02  0.908879D-02
     13 -0.197033D-01  0.275553D-02  0.336297D-02 -0.211779D-01 -0.651698D-02
     14  0.247705D-02 -0.182789D-01 -0.136616D-01  0.807523D-02 -0.203031D-01
     15  0.230979D-02 -0.118519D-01 -0.519099D-01 -0.363926D-02 -0.409164D-02
     16 -0.276045D-01 -0.128137D-01  0.140867D-02 -0.687624D-02 -0.434589D-02
     17 -0.953769D-02 -0.285394D-01 -0.262250D-02  0.605299D-02  0.438717D-02
     18 -0.188581D-01 -0.218418D-01 -0.307216D-01 -0.488874D-02 -0.129417D-02
     19 -0.351817D-01  0.150626D-01 -0.120233D-02  0.113456D-02  0.130358D-02
     20 -0.249512D-02 -0.262895D-01 -0.665069D-02  0.421635D-02  0.397597D-02
     21 -0.226095D-01  0.707160D-02 -0.319735D-01  0.231426D-02  0.149726D-02
                6             7             8             9            10 
      6  0.730784D-01
      7 -0.513282D-02  0.703076D-01
      8  0.576482D-02  0.573190D-02  0.490612D-01
      9 -0.107981D-01  0.875896D-02 -0.133716D-01  0.190399D-01
     10 -0.173102D-02 -0.313547D-01  0.221719D-01 -0.129185D-01  0.827781D-01
     11  0.701027D-02 -0.576977D-02 -0.270449D-01  0.635602D-02  0.100191D-02
     12 -0.571867D-02 -0.219505D-02  0.116576D-01 -0.124034D-01  0.379359D-02
     13 -0.185183D-01 -0.494725D-02 -0.455032D-02 -0.746330D-02 -0.214842D-01
     14  0.270201D-01 -0.166404D-02  0.502762D-02 -0.318725D-02 -0.678700D-02
     15 -0.396327D-01 -0.427194D-03 -0.230730D-02  0.115194D-02  0.407247D-02
     16 -0.104324D-02 -0.244523D-04 -0.422990D-04 -0.200804D-04 -0.795424D-03
     17  0.955965D-03 -0.183233D-04  0.843332D-04  0.188232D-04 -0.806611D-02
     18  0.447897D-02 -0.266356D-04  0.141773D-04  0.130964D-03  0.991455D-03
     19 -0.110480D-03 -0.117409D-04  0.326550D-05 -0.568186D-04 -0.281945D-02
     20  0.348865D-02 -0.117862D-04  0.329782D-04 -0.509768D-04 -0.387675D-02
     21  0.597401D-02  0.259483D-04  0.393826D-04  0.135083D-03  0.447725D-02
               11            12            13            14            15 
     11  0.116455D+00
     12 -0.204265D-01  0.696522D-01
     13 -0.269459D-02 -0.968804D-02  0.100105D+00
     14 -0.428813D-01 -0.296340D-01  0.655849D-02  0.979282D-01
     15  0.758907D-02 -0.215477D-01 -0.330989D-02  0.175084D-01  0.134735D+00
     16 -0.143488D-02 -0.163837D-02 -0.312008D-01 -0.158413D-01  0.106767D-03
     17  0.690030D-03  0.148381D-02  0.203969D-02 -0.238012D-01 -0.792111D-02
     18  0.304675D-02  0.833106D-02  0.282743D-01  0.814769D-02 -0.248604D-01
     19  0.163843D-02 -0.128890D-02 -0.159124D-02  0.718161D-02  0.887321D-03
     20  0.241842D-02 -0.159185D-02  0.240819D-02  0.230865D-02  0.107453D-02
     21 -0.230287D-02  0.221171D-02  0.734227D-02 -0.619336D-02  0.206339D-02
               16            17            18            19            20 
     16  0.782337D-01
     17  0.185080D-01  0.892379D-01
     18 -0.394670D-02  0.173562D-01  0.463152D-01
     19 -0.117323D-01 -0.897853D-02 -0.154559D-02  0.502018D-01
     20  0.159701D-01 -0.420589D-01 -0.542879D-02 -0.162110D-01  0.596123D-01
     21  0.513295D-02 -0.927113D-02 -0.367421D-02  0.331680D-02  0.915913D-02
               21 
     21  0.252635D-01
 Leave Link  716 at Mon Nov 13 15:58:26 2023, MaxMem=  1879048192 cpu:               0.4 elap:               0.0
 (Enter /home/sekinelabo/g16/l103.exe)

 GradGradGradGradGradGradGradGradGradGradGradGradGradGradGradGradGradGrad
 Berny optimization.
 Search for a local minimum.
 Step number   1 out of a maximum of    2
 All quantities printed in internal units (Hartrees-Bohrs-Radians)
 Second derivative matrix not updated -- first step.
 ITU=  0
     Eigenvalues ---    0.02110   0.03525   0.03880   0.04853   0.08109
     Eigenvalues ---    0.10926   0.11322   0.12113   0.14552   0.14989
     Eigenvalues ---    0.16090   0.16449   0.19342   0.20192   0.23721
 Quadratic step=3.274D-01 exceeds max=3.000D-01 adjusted using Lamda=-5.397D-03.
 Angle between NR and scaled steps=   3.27 degrees.
 Angle between quadratic step and forces=  29.49 degrees.
 Linear search not attempted -- first point.
 B after Tr=     0.000000    0.000000    0.000000
         Rot=    1.000000   -0.000000   -0.000000    0.000000 Ang=   0.00 deg.
 Variable       Old X    -DE/DX   Delta X   Delta X   Delta X     New X
                                 (Linear)    (Quad)   (Total)
    X1        5.08712   0.00058   0.00000  -0.00735  -0.00735   5.07976
    Y1        3.79403   0.00452   0.00000   0.00373   0.00373   3.79776
    Z1        5.15223   0.01351   0.00000   0.04419   0.04419   5.19642
    X2        9.25689   0.00133   0.00000   0.04767   0.04767   9.30456
    Y2        0.00000  -0.01359   0.00000  -0.10736  -0.10736  -0.10736
    Z2        4.44510   0.00420   0.00000  -0.00505  -0.00505   4.44005
    X3       13.04317   0.00530   0.00000   0.09113   0.09113  13.13430
    Y3        4.12564   0.00249   0.00000   0.05730   0.05730   4.18294
    Z3        3.52727   0.00202   0.00000   0.07103   0.07103   3.59829
    X4        8.39475  -0.00040   0.00000   0.02105   0.02105   8.41581
    Y4        6.77076   0.01428   0.00000   0.08866   0.08866   6.85942
    Z4        1.63134  -0.00439   0.00000  -0.05010  -0.05010   1.58124
    X5        6.21824   0.00143   0.00000  -0.00446  -0.00446   6.21377
    Y5        1.78356  -0.00603   0.00000  -0.06208  -0.06208   1.72148
    Z5        0.00000  -0.01543   0.00000  -0.10391  -0.10391  -0.10391
    X6        1.28400  -0.00394   0.00000  -0.07553  -0.07553   1.20848
    Y6        0.54622  -0.01216   0.00000  -0.09140  -0.09140   0.45481
    Z6        2.50404  -0.00030   0.00000   0.02087   0.02087   2.52490
    X7        0.00000  -0.00429   0.00000  -0.07251  -0.07251  -0.07251
    Y7        5.90273   0.01050   0.00000   0.11115   0.11115   6.01388
    Z7        3.80826   0.00039   0.00000   0.02298   0.02298   3.83124
         Item               Value     Threshold  Converged?
 Maximum Force            0.015427     0.000450     NO 
 RMS     Force            0.007678     0.000300     NO 
 Maximum Displacement     0.111152     0.001800     NO 
 RMS     Displacement     0.065682     0.001200     NO 
 Predicted change in Energy=-4.853653D-03
 GradGradGradGradGradGradGradGradGradGradGradGradGradGradGradGradGradGrad

 Leave Link  103 at Mon Nov 13 15:58:26 2023, MaxMem=  1879048192 cpu:               0.3 elap:               0.0
 (Enter /home/sekinelabo/g16/l9999.exe)
 1\1\GINC-SEKINELABO-XA7R-R37\Force\UB3LYP\6-311+G(d)\Na7(2)\SEKINELABO
 \13-Nov-2023\0\\#P B3LYP/6-311+g(d) force\\Gaussian input prepared by 
 ASE\\0,2\Na,2.6919855315,2.0077139313,2.726445011\Na,4.898537117,0.,2.
 3522453506\Na,6.9021500226,2.1831956976,1.8665495221\Na,4.4423126899,3
 .5829311553,0.8632680957\Na,3.2905487071,0.9438184886,0.\Na,0.67946508
 19,0.2890456789,1.3250786029\Na,0.,3.1235906941,2.0152449054\\Version=
 ES64L-G16RevB.01\State=2-A\HF=-1136.0955922\S2=0.771925\S2-1=0.\S2A=0.
 7503\RMSD=7.862e-09\RMSF=7.678e-03\Dipole=0.0278305,-0.1103475,-0.1873
 057\Quadrupole=11.9148714,-6.8468899,-5.0679815,0.9938736,1.1668483,-0
 .2756634\PG=C01 [X(Na7)]\\@


 NOTHING MAKES A PERSON MORE PRODUCTIVE THAN THE LAST MINUTE.
 Job cpu time:       0 days  0 hours  4 minutes 54.8 seconds.
 Elapsed time:       0 days  0 hours  0 minutes 24.0 seconds.
 File lengths (MBytes):  RWF=     32 Int=      0 D2E=      0 Chk=      5 Scr=      1
 Normal termination of Gaussian 16 at Mon Nov 13 15:58:26 2023.
