 Entering Gaussian System, Link 0=g16
 Initial command:
 /home/sekinelabo/g16/l1.exe "/home/sekinelabo/g16temp/Gau-4173567.inp" -scrdir="/home/sekinelabo/g16temp/"
 Entering Link 1 = /home/sekinelabo/g16/l1.exe PID=   4173569.
  
 Copyright (c) 1988-2017, Gaussian, Inc.  All Rights Reserved.
  
 This is part of the Gaussian(R) 16 program.  It is based on
 the Gaussian(R) 09 system (copyright 2009, Gaussian, Inc.),
 the Gaussian(R) 03 system (copyright 2003, Gaussian, Inc.),
 the Gaussian(R) 98 system (copyright 1998, Gaussian, Inc.),
 the Gaussian(R) 94 system (copyright 1995, Gaussian, Inc.),
 the Gaussian 92(TM) system (copyright 1992, Gaussian, Inc.),
 the Gaussian 90(TM) system (copyright 1990, Gaussian, Inc.),
 the Gaussian 88(TM) system (copyright 1988, Gaussian, Inc.),
 the Gaussian 86(TM) system (copyright 1986, Carnegie Mellon
 University), and the Gaussian 82(TM) system (copyright 1983,
 Carnegie Mellon University). Gaussian is a federally registered
 trademark of Gaussian, Inc.
  
 This software contains proprietary and confidential information,
 including trade secrets, belonging to Gaussian, Inc.
  
 This software is provided under written license and may be
 used, copied, transmitted, or stored only in accord with that
 written license.
  
 The following legend is applicable only to US Government
 contracts under FAR:
  
                    RESTRICTED RIGHTS LEGEND
  
 Use, reproduction and disclosure by the US Government is
 subject to restrictions as set forth in subparagraphs (a)
 and (c) of the Commercial Computer Software - Restricted
 Rights clause in FAR 52.227-19.
  
 Gaussian, Inc.
 340 Quinnipiac St., Bldg. 40, Wallingford CT 06492
  
  
 ---------------------------------------------------------------
 Warning -- This program may not be used in any manner that
 competes with the business of Gaussian, Inc. or will provide
 assistance to any competitor of Gaussian, Inc.  The licensee
 of this program is prohibited from giving any competitor of
 Gaussian, Inc. access to this program.  By using this program,
 the user acknowledges that Gaussian, Inc. is engaged in the
 business of creating and licensing software in the field of
 computational chemistry and represents and warrants to the
 licensee that it is not a competitor of Gaussian, Inc. and that
 it will not use this program in any manner prohibited above.
 ---------------------------------------------------------------
  

 Cite this work as:
 Gaussian 16, Revision B.01,
 M. J. Frisch, G. W. Trucks, H. B. Schlegel, G. E. Scuseria, 
 M. A. Robb, J. R. Cheeseman, G. Scalmani, V. Barone, 
 G. A. Petersson, H. Nakatsuji, X. Li, M. Caricato, A. V. Marenich, 
 J. Bloino, B. G. Janesko, R. Gomperts, B. Mennucci, H. P. Hratchian, 
 J. V. Ortiz, A. F. Izmaylov, J. L. Sonnenberg, D. Williams-Young, 
 F. Ding, F. Lipparini, F. Egidi, J. Goings, B. Peng, A. Petrone, 
 T. Henderson, D. Ranasinghe, V. G. Zakrzewski, J. Gao, N. Rega, 
 G. Zheng, W. Liang, M. Hada, M. Ehara, K. Toyota, R. Fukuda, 
 J. Hasegawa, M. Ishida, T. Nakajima, Y. Honda, O. Kitao, H. Nakai, 
 T. Vreven, K. Throssell, J. A. Montgomery, Jr., J. E. Peralta, 
 F. Ogliaro, M. J. Bearpark, J. J. Heyd, E. N. Brothers, K. N. Kudin, 
 V. N. Staroverov, T. A. Keith, R. Kobayashi, J. Normand, 
 K. Raghavachari, A. P. Rendell, J. C. Burant, S. S. Iyengar, 
 J. Tomasi, M. Cossi, J. M. Millam, M. Klene, C. Adamo, R. Cammi, 
 J. W. Ochterski, R. L. Martin, K. Morokuma, O. Farkas, 
 J. B. Foresman, and D. J. Fox, Gaussian, Inc., Wallingford CT, 2016.
 
 ******************************************
 Gaussian 16:  ES64L-G16RevB.01 20-Dec-2017
                13-Nov-2023 
 ******************************************
 %mem=14GB
 %chk=checkpoint.chk
 %nprocshared=16
 Will use up to   16 processors via shared memory.
 -------------------------
 #P B3LYP/6-311+g(d) force
 -------------------------
 1/10=7,30=1,38=1/1,3;
 2/12=2,17=6,18=5,40=1/2;
 3/5=4,6=6,7=11,11=2,25=1,30=1,71=1,74=-5/1,2,3;
 4//1;
 5/5=2,38=5/2;
 6/7=2,8=2,9=2,10=2,28=1/1;
 7/29=1/1,2,3,16;
 1/10=7,30=1/3;
 99//99;
 Leave Link    1 at Mon Nov 13 20:08:41 2023, MaxMem=  1879048192 cpu:               0.3 elap:               0.0
 (Enter /home/sekinelabo/g16/l101.exe)
 ------------------------------
 Gaussian input prepared by ASE
 ------------------------------
 Symbolic Z-matrix:
 Charge =  0 Multiplicity = 2
 Na                    4.31145   5.20075   3.81599 
 Na                    5.65428   2.86663   2.51528 
 Na                    2.45968   0.        2.25169 
 Na                    2.65522   2.97611   2.66306 
 Na                    0.58403   2.81476   4.83563 
 Na                    0.        4.33062   2.32457 
 Na                    1.87055   4.11986   0. 
 
 ITRead=  0  0  0  0  0  0  0
 MicOpt= -1 -1 -1 -1 -1 -1 -1
 NAtoms=      7 NQM=        7 NQMF=       0 NMMI=      0 NMMIF=      0
                NMic=       0 NMicF=      0.
                    Isotopes and Nuclear Properties:
 (Nuclear quadrupole moments (NQMom) in fm**2, nuclear magnetic moments (NMagM)
  in nuclear magnetons)

  Atom         1           2           3           4           5           6           7
 IAtWgt=          23          23          23          23          23          23          23
 AtmWgt=  22.9897697  22.9897697  22.9897697  22.9897697  22.9897697  22.9897697  22.9897697
 NucSpn=           3           3           3           3           3           3           3
 AtZEff=  -0.0000000  -0.0000000  -0.0000000  -0.0000000  -0.0000000  -0.0000000  -0.0000000
 NQMom=   10.4000000  10.4000000  10.4000000  10.4000000  10.4000000  10.4000000  10.4000000
 NMagM=    2.2175200   2.2175200   2.2175200   2.2175200   2.2175200   2.2175200   2.2175200
 AtZNuc=  11.0000000  11.0000000  11.0000000  11.0000000  11.0000000  11.0000000  11.0000000
 Leave Link  101 at Mon Nov 13 20:08:42 2023, MaxMem=  1879048192 cpu:               2.7 elap:               0.2
 (Enter /home/sekinelabo/g16/l103.exe)

 GradGradGradGradGradGradGradGradGradGradGradGradGradGradGradGradGradGrad
 Berny optimization.
 Initialization pass.
 Trust Radius=3.00D-01 FncErr=1.00D-07 GrdErr=1.00D-07 EigMax=2.50D+02 EigMin=1.00D-04
 Number of steps in this run=      2 maximum allowed number of steps=      2.
 GradGradGradGradGradGradGradGradGradGradGradGradGradGradGradGradGradGrad

 Leave Link  103 at Mon Nov 13 20:08:42 2023, MaxMem=  1879048192 cpu:               0.2 elap:               0.0
 (Enter /home/sekinelabo/g16/l202.exe)
                          Input orientation:                          
 ---------------------------------------------------------------------
 Center     Atomic      Atomic             Coordinates (Angstroms)
 Number     Number       Type             X           Y           Z
 ---------------------------------------------------------------------
      1         11           0        4.311452    5.200754    3.815991
      2         11           0        5.654283    2.866632    2.515278
      3         11           0        2.459681    0.000000    2.251690
      4         11           0        2.655225    2.976112    2.663060
      5         11           0        0.584027    2.814763    4.835631
      6         11           0        0.000000    4.330623    2.324569
      7         11           0        1.870553    4.119865    0.000000
 ---------------------------------------------------------------------
                    Distance matrix (angstroms):
                    1          2          3          4          5
     1  Na   0.000000
     2  Na   2.990514   0.000000
     3  Na   5.737938   4.300296   0.000000
     4  Na   3.003559   3.004693   3.010765   0.000000
     5  Na   4.541620   5.576219   4.256491   3.005987   0.000000
     6  Na   4.644361   5.843848   4.980927   2.999916   2.990711
     7  Na   4.657048   4.713155   4.731856   3.002627   5.171244
                    6          7
     6  Na   0.000000
     7  Na   2.991155   0.000000
 Stoichiometry    Na7(2)
 Framework group  C1[X(Na7)]
 Deg. of freedom    15
 Full point group                 C1      NOp   1
 Largest Abelian subgroup         C1      NOp   1
 Largest concise Abelian subgroup C1      NOp   1
                         Standard orientation:                         
 ---------------------------------------------------------------------
 Center     Atomic      Atomic             Coordinates (Angstroms)
 Number     Number       Type             X           Y           Z
 ---------------------------------------------------------------------
      1         11           0        1.806420   -2.013790   -1.186531
      2         11           0        3.149252    0.320332    0.114182
      3         11           0       -0.045351    3.186964    0.377770
      4         11           0        0.150193    0.210852   -0.033600
      5         11           0       -1.921004    0.372201   -2.206171
      6         11           0       -2.505032   -1.143659    0.304891
      7         11           0       -0.634479   -0.932901    2.629460
 ---------------------------------------------------------------------
 Rotational constants (GHZ):           0.7299637           0.5939285           0.5461626
 Leave Link  202 at Mon Nov 13 20:08:42 2023, MaxMem=  1879048192 cpu:               0.1 elap:               0.0
 (Enter /home/sekinelabo/g16/l301.exe)
 Standard basis: 6-311+G(d) (5D, 7F)
 Ernie: Thresh=  0.10000D-02 Tol=  0.10000D-05 Strict=F.
 There are   217 symmetry adapted cartesian basis functions of A   symmetry.
 There are   210 symmetry adapted basis functions of A   symmetry.
   210 basis functions,   350 primitive gaussians,   217 cartesian basis functions
    39 alpha electrons       38 beta electrons
       nuclear repulsion energy       349.6133608699 Hartrees.
 IExCor=  402 DFT=T Ex+Corr=B3LYP ExCW=0 ScaHFX=  0.200000
 ScaDFX=  0.800000  0.720000  1.000000  0.810000 ScalE2=  1.000000  1.000000
 IRadAn=      5 IRanWt=     -1 IRanGd=            0 ICorTp=0 IEmpDi=  4
 NAtoms=    7 NActive=    7 NUniq=    7 SFac= 1.00D+00 NAtFMM=   60 NAOKFM=F Big=F
 Integral buffers will be    131072 words long.
 Raffenetti 2 integral format.
 Two-electron integral symmetry is turned on.
 Leave Link  301 at Mon Nov 13 20:08:42 2023, MaxMem=  1879048192 cpu:               0.5 elap:               0.0
 (Enter /home/sekinelabo/g16/l302.exe)
 NPDir=0 NMtPBC=     1 NCelOv=     1 NCel=       1 NClECP=     1 NCelD=      1
         NCelK=      1 NCelE2=     1 NClLst=     1 CellRange=     0.0.
 One-electron integrals computed using PRISM.
 One-electron integral symmetry used in STVInt
 NBasis=   210 RedAO= T EigKep=  1.87D-06  NBF=   210
 NBsUse=   210 1.00D-06 EigRej= -1.00D+00 NBFU=   210
 Precomputing XC quadrature grid using
 IXCGrd= 4 IRadAn=           5 IRanWt=          -1 IRanGd=           0 AccXCQ= 0.00D+00.
 Generated NRdTot=       0 NPtTot=           0 NUsed=           0 NTot=          32
 NSgBfM=   212   211   211   212   212 MxSgAt=     7 MxSgA2=     7.
 Leave Link  302 at Mon Nov 13 20:08:42 2023, MaxMem=  1879048192 cpu:               2.2 elap:               0.1
 (Enter /home/sekinelabo/g16/l303.exe)
 DipDrv:  MaxL=1.
 Leave Link  303 at Mon Nov 13 20:08:42 2023, MaxMem=  1879048192 cpu:               0.6 elap:               0.0
 (Enter /home/sekinelabo/g16/l401.exe)
 ExpMin= 7.60D-03 ExpMax= 3.62D+04 ExpMxC= 1.21D+03 IAcc=3 IRadAn=         5 AccDes= 0.00D+00
 Harris functional with IExCor=  402 and IRadAn=       5 diagonalized for initial guess.
 HarFok:  IExCor=  402 AccDes= 0.00D+00 IRadAn=         5 IDoV= 1 UseB2=F ITyADJ=14
 ICtDFT=  3500011 ScaDFX=  1.000000  1.000000  1.000000  1.000000
 FoFCou: FMM=F IPFlag=           0 FMFlag=      100000 FMFlg1=           0
         NFxFlg=           0 DoJE=T BraDBF=F KetDBF=T FulRan=T
         wScrn=  0.000000 ICntrl=       500 IOpCl=  0 I1Cent=   200000004 NGrid=           0
         NMat0=    1 NMatS0=      1 NMatT0=    0 NMatD0=    1 NMtDS0=    0 NMtDT0=    0
 Petite list used in FoFCou.
 Harris En= -1135.87771006312    
 JPrj=0 DoOrth=F DoCkMO=F.
 Initial guess <Sx>= 0.0000 <Sy>= 0.0000 <Sz>= 0.5000 <S**2>= 0.7500 S= 0.5000
 Leave Link  401 at Mon Nov 13 20:08:42 2023, MaxMem=  1879048192 cpu:               5.4 elap:               0.4
 (Enter /home/sekinelabo/g16/l502.exe)
 Keep R1 and R2 ints in memory in canonical form, NReq=507620388.
 FoFCou: FMM=F IPFlag=           0 FMFlag=           0 FMFlg1=           0
         NFxFlg=           0 DoJE=F BraDBF=F KetDBF=F FulRan=T
         wScrn=  0.000000 ICntrl=       600 IOpCl=  0 I1Cent=           0 NGrid=           0
         NMat0=    1 NMatS0=  22155 NMatT0=    0 NMatD0=    1 NMtDS0=    0 NMtDT0=    0
 Symmetry not used in FoFCou.
 Two-electron integral symmetry not used.
 UHF open shell SCF:
 Using DIIS extrapolation, IDIIS=  1040.
 NGot=  1879048192 LenX=  1388082348 LenY=  1388034818
 Requested convergence on RMS density matrix=1.00D-08 within 128 cycles.
 Requested convergence on MAX density matrix=1.00D-06.
 Requested convergence on             energy=1.00D-06.
 No special actions if energy rises.

 Cycle   1  Pass 1  IDiag  1:
 E= -1136.06226710266    
 DIIS: error= 1.15D-02 at cycle   1 NSaved=   1.
 NSaved= 1 IEnMin= 1 EnMin= -1136.06226710266     IErMin= 1 ErrMin= 1.15D-02
 ErrMax= 1.15D-02  0.00D+00 EMaxC= 1.00D-01 BMatC= 1.99D-01 BMatP= 1.99D-01
 IDIUse=3 WtCom= 8.85D-01 WtEn= 1.15D-01
 Coeff-Com:  0.100D+01
 Coeff-En:   0.100D+01
 Coeff:      0.100D+01
 Gap=     0.057 Goal=   None    Shift=    0.000
 Gap=     0.026 Goal=   None    Shift=    0.000
 GapD=    0.026 DampG=0.250 DampE=0.500 DampFc=0.2500 IDamp=-1.
 Damping current iteration by 2.50D-01
 RMSDP=3.26D-02 MaxDP=2.17D+00              OVMax= 2.47D-01

 Cycle   2  Pass 1  IDiag  1:
 E= -1136.07699803189     Delta-E=       -0.014730929227 Rises=F Damp=T
 DIIS: error= 8.20D-03 at cycle   2 NSaved=   2.
 NSaved= 2 IEnMin= 2 EnMin= -1136.07699803189     IErMin= 2 ErrMin= 8.20D-03
 ErrMax= 8.20D-03  0.00D+00 EMaxC= 1.00D-01 BMatC= 7.52D-02 BMatP= 1.99D-01
 IDIUse=3 WtCom= 9.18D-01 WtEn= 8.20D-02
 Coeff-Com: -0.125D+01 0.225D+01
 Coeff-En:   0.000D+00 0.100D+01
 Coeff:     -0.115D+01 0.215D+01
 Gap=     0.065 Goal=   None    Shift=    0.000
 Gap=     0.028 Goal=   None    Shift=    0.000
 RMSDP=2.17D-02 MaxDP=1.70D+00 DE=-1.47D-02 OVMax= 1.80D-01

 Cycle   3  Pass 1  IDiag  1:
 E= -1136.10126576935     Delta-E=       -0.024267737460 Rises=F Damp=F
 DIIS: error= 3.51D-03 at cycle   3 NSaved=   3.
 NSaved= 3 IEnMin= 3 EnMin= -1136.10126576935     IErMin= 3 ErrMin= 3.51D-03
 ErrMax= 3.51D-03  0.00D+00 EMaxC= 1.00D-01 BMatC= 4.15D-03 BMatP= 7.52D-02
 IDIUse=3 WtCom= 9.65D-01 WtEn= 3.51D-02
 Coeff-Com: -0.282D+00 0.501D+00 0.781D+00
 Coeff-En:   0.000D+00 0.000D+00 0.100D+01
 Coeff:     -0.272D+00 0.484D+00 0.788D+00
 Gap=     0.060 Goal=   None    Shift=    0.000
 Gap=     0.028 Goal=   None    Shift=    0.000
 RMSDP=6.66D-03 MaxDP=5.44D-01 DE=-2.43D-02 OVMax= 7.29D-02

 Cycle   4  Pass 1  IDiag  1:
 E= -1136.10210250207     Delta-E=       -0.000836732726 Rises=F Damp=F
 DIIS: error= 2.99D-03 at cycle   4 NSaved=   4.
 NSaved= 4 IEnMin= 4 EnMin= -1136.10210250207     IErMin= 4 ErrMin= 2.99D-03
 ErrMax= 2.99D-03  0.00D+00 EMaxC= 1.00D-01 BMatC= 2.83D-03 BMatP= 4.15D-03
 IDIUse=3 WtCom= 9.70D-01 WtEn= 2.99D-02
 Coeff-Com: -0.772D-02 0.101D-01 0.452D+00 0.546D+00
 Coeff-En:   0.000D+00 0.000D+00 0.419D+00 0.581D+00
 Coeff:     -0.748D-02 0.979D-02 0.451D+00 0.547D+00
 Gap=     0.062 Goal=   None    Shift=    0.000
 Gap=     0.028 Goal=   None    Shift=    0.000
 RMSDP=2.93D-03 MaxDP=2.37D-01 DE=-8.37D-04 OVMax= 4.14D-02

 Cycle   5  Pass 1  IDiag  1:
 E= -1136.10393555773     Delta-E=       -0.001833055658 Rises=F Damp=F
 DIIS: error= 2.97D-04 at cycle   5 NSaved=   5.
 NSaved= 5 IEnMin= 5 EnMin= -1136.10393555773     IErMin= 5 ErrMin= 2.97D-04
 ErrMax= 2.97D-04  0.00D+00 EMaxC= 1.00D-01 BMatC= 3.41D-05 BMatP= 2.83D-03
 IDIUse=3 WtCom= 9.97D-01 WtEn= 2.97D-03
 Coeff-Com: -0.529D-02 0.625D-02 0.231D+00 0.290D+00 0.478D+00
 Coeff-En:   0.000D+00 0.000D+00 0.000D+00 0.000D+00 0.100D+01
 Coeff:     -0.527D-02 0.623D-02 0.231D+00 0.289D+00 0.480D+00
 Gap=     0.062 Goal=   None    Shift=    0.000
 Gap=     0.028 Goal=   None    Shift=    0.000
 RMSDP=7.50D-04 MaxDP=5.98D-02 DE=-1.83D-03 OVMax= 1.37D-02

 Cycle   6  Pass 1  IDiag  1:
 E= -1136.10397454995     Delta-E=       -0.000038992217 Rises=F Damp=F
 DIIS: error= 1.73D-04 at cycle   6 NSaved=   6.
 NSaved= 6 IEnMin= 6 EnMin= -1136.10397454995     IErMin= 6 ErrMin= 1.73D-04
 ErrMax= 1.73D-04  0.00D+00 EMaxC= 1.00D-01 BMatC= 8.39D-06 BMatP= 3.41D-05
 IDIUse=3 WtCom= 9.98D-01 WtEn= 1.73D-03
 Coeff-Com: -0.275D-02 0.326D-02-0.609D-01-0.649D-01 0.313D+00 0.812D+00
 Coeff-En:   0.000D+00 0.000D+00 0.000D+00 0.000D+00 0.147D+00 0.853D+00
 Coeff:     -0.275D-02 0.325D-02-0.608D-01-0.648D-01 0.313D+00 0.812D+00
 Gap=     0.062 Goal=   None    Shift=    0.000
 Gap=     0.029 Goal=   None    Shift=    0.000
 RMSDP=3.64D-04 MaxDP=1.83D-02 DE=-3.90D-05 OVMax= 5.28D-03

 Cycle   7  Pass 1  IDiag  1:
 E= -1136.10398962183     Delta-E=       -0.000015071886 Rises=F Damp=F
 DIIS: error= 3.24D-05 at cycle   7 NSaved=   7.
 NSaved= 7 IEnMin= 7 EnMin= -1136.10398962183     IErMin= 7 ErrMin= 3.24D-05
 ErrMax= 3.24D-05  0.00D+00 EMaxC= 1.00D-01 BMatC= 4.37D-07 BMatP= 8.39D-06
 IDIUse=1 WtCom= 1.00D+00 WtEn= 0.00D+00
 Coeff-Com:  0.810D-03-0.110D-02-0.325D-01-0.387D-01-0.169D-02 0.456D-01
 Coeff-Com:  0.103D+01
 Coeff:      0.810D-03-0.110D-02-0.325D-01-0.387D-01-0.169D-02 0.456D-01
 Coeff:      0.103D+01
 Gap=     0.062 Goal=   None    Shift=    0.000
 Gap=     0.029 Goal=   None    Shift=    0.000
 RMSDP=2.41D-04 MaxDP=1.43D-02 DE=-1.51D-05 OVMax= 3.71D-03

 Cycle   8  Pass 1  IDiag  1:
 E= -1136.10399181165     Delta-E=       -0.000002189816 Rises=F Damp=F
 DIIS: error= 3.02D-05 at cycle   8 NSaved=   8.
 NSaved= 8 IEnMin= 8 EnMin= -1136.10399181165     IErMin= 8 ErrMin= 3.02D-05
 ErrMax= 3.02D-05  0.00D+00 EMaxC= 1.00D-01 BMatC= 3.29D-07 BMatP= 4.37D-07
 IDIUse=1 WtCom= 1.00D+00 WtEn= 0.00D+00
 Coeff-Com:  0.150D-02-0.193D-02-0.499D-02-0.857D-02-0.666D-01-0.169D+00
 Coeff-Com:  0.613D+00 0.637D+00
 Coeff:      0.150D-02-0.193D-02-0.499D-02-0.857D-02-0.666D-01-0.169D+00
 Coeff:      0.613D+00 0.637D+00
 Gap=     0.062 Goal=   None    Shift=    0.000
 Gap=     0.029 Goal=   None    Shift=    0.000
 RMSDP=9.94D-05 MaxDP=5.06D-03 DE=-2.19D-06 OVMax= 3.18D-03

 Cycle   9  Pass 1  IDiag  1:
 E= -1136.10399283494     Delta-E=       -0.000001023292 Rises=F Damp=F
 DIIS: error= 1.55D-05 at cycle   9 NSaved=   9.
 NSaved= 9 IEnMin= 9 EnMin= -1136.10399283494     IErMin= 9 ErrMin= 1.55D-05
 ErrMax= 1.55D-05  0.00D+00 EMaxC= 1.00D-01 BMatC= 8.84D-08 BMatP= 3.29D-07
 IDIUse=1 WtCom= 1.00D+00 WtEn= 0.00D+00
 Coeff-Com:  0.605D-03-0.762D-03 0.733D-02 0.660D-02-0.162D-01-0.902D-01
 Coeff-Com: -0.773D-01 0.299D+00 0.871D+00
 Coeff:      0.605D-03-0.762D-03 0.733D-02 0.660D-02-0.162D-01-0.902D-01
 Coeff:     -0.773D-01 0.299D+00 0.871D+00
 Gap=     0.062 Goal=   None    Shift=    0.000
 Gap=     0.029 Goal=   None    Shift=    0.000
 RMSDP=8.94D-05 MaxDP=6.15D-03 DE=-1.02D-06 OVMax= 2.53D-03

 Cycle  10  Pass 1  IDiag  1:
 E= -1136.10399333229     Delta-E=       -0.000000497354 Rises=F Damp=F
 DIIS: error= 1.21D-05 at cycle  10 NSaved=  10.
 NSaved=10 IEnMin=10 EnMin= -1136.10399333229     IErMin=10 ErrMin= 1.21D-05
 ErrMax= 1.21D-05  0.00D+00 EMaxC= 1.00D-01 BMatC= 3.25D-08 BMatP= 8.84D-08
 IDIUse=1 WtCom= 1.00D+00 WtEn= 0.00D+00
 Coeff-Com: -0.535D-03 0.695D-03 0.145D-02 0.215D-02 0.352D-01 0.302D-01
 Coeff-Com: -0.186D+00-0.958D-01-0.203D+00 0.142D+01
 Coeff:     -0.535D-03 0.695D-03 0.145D-02 0.215D-02 0.352D-01 0.302D-01
 Coeff:     -0.186D+00-0.958D-01-0.203D+00 0.142D+01
 Gap=     0.061 Goal=   None    Shift=    0.000
 Gap=     0.029 Goal=   None    Shift=    0.000
 RMSDP=6.14D-05 MaxDP=3.64D-03 DE=-4.97D-07 OVMax= 2.85D-03

 Cycle  11  Pass 1  IDiag  1:
 E= -1136.10399369350     Delta-E=       -0.000000361209 Rises=F Damp=F
 DIIS: error= 8.81D-06 at cycle  11 NSaved=  11.
 NSaved=11 IEnMin=11 EnMin= -1136.10399369350     IErMin=11 ErrMin= 8.81D-06
 ErrMax= 8.81D-06  0.00D+00 EMaxC= 1.00D-01 BMatC= 1.37D-08 BMatP= 3.25D-08
 IDIUse=1 WtCom= 1.00D+00 WtEn= 0.00D+00
 Coeff-Com: -0.183D-03 0.235D-03-0.165D-02-0.163D-02 0.112D-01 0.920D-02
 Coeff-Com:  0.296D-01-0.247D-01-0.321D+00-0.421D-01 0.134D+01
 Coeff:     -0.183D-03 0.235D-03-0.165D-02-0.163D-02 0.112D-01 0.920D-02
 Coeff:      0.296D-01-0.247D-01-0.321D+00-0.421D-01 0.134D+01
 Gap=     0.061 Goal=   None    Shift=    0.000
 Gap=     0.029 Goal=   None    Shift=    0.000
 RMSDP=4.35D-05 MaxDP=2.08D-03 DE=-3.61D-07 OVMax= 2.37D-03

 Cycle  12  Pass 1  IDiag  1:
 E= -1136.10399389270     Delta-E=       -0.000000199199 Rises=F Damp=F
 DIIS: error= 5.88D-06 at cycle  12 NSaved=  12.
 NSaved=12 IEnMin=12 EnMin= -1136.10399389270     IErMin=12 ErrMin= 5.88D-06
 ErrMax= 5.88D-06  0.00D+00 EMaxC= 1.00D-01 BMatC= 8.62D-09 BMatP= 1.37D-08
 IDIUse=1 WtCom= 1.00D+00 WtEn= 0.00D+00
 Coeff-Com:  0.360D-03-0.475D-03-0.874D-03-0.124D-02-0.131D-01-0.302D-01
 Coeff-Com:  0.110D+00 0.118D+00 0.599D-01-0.102D+01 0.507D+00 0.127D+01
 Coeff:      0.360D-03-0.475D-03-0.874D-03-0.124D-02-0.131D-01-0.302D-01
 Coeff:      0.110D+00 0.118D+00 0.599D-01-0.102D+01 0.507D+00 0.127D+01
 Gap=     0.061 Goal=   None    Shift=    0.000
 Gap=     0.029 Goal=   None    Shift=    0.000
 RMSDP=4.96D-05 MaxDP=2.87D-03 DE=-1.99D-07 OVMax= 2.37D-03

 Cycle  13  Pass 1  IDiag  1:
 E= -1136.10399402550     Delta-E=       -0.000000132797 Rises=F Damp=F
 DIIS: error= 3.35D-06 at cycle  13 NSaved=  13.
 NSaved=13 IEnMin=13 EnMin= -1136.10399402550     IErMin=13 ErrMin= 3.35D-06
 ErrMax= 3.35D-06  0.00D+00 EMaxC= 1.00D-01 BMatC= 4.65D-09 BMatP= 8.62D-09
 IDIUse=1 WtCom= 1.00D+00 WtEn= 0.00D+00
 Coeff-Com:  0.415D-03-0.544D-03-0.103D-04-0.425D-03-0.152D-01-0.323D-01
 Coeff-Com:  0.728D-01 0.134D+00 0.217D+00-0.879D+00-0.247D+00 0.976D+00
 Coeff-Com:  0.775D+00
 Coeff:      0.415D-03-0.544D-03-0.103D-04-0.425D-03-0.152D-01-0.323D-01
 Coeff:      0.728D-01 0.134D+00 0.217D+00-0.879D+00-0.247D+00 0.976D+00
 Coeff:      0.775D+00
 Gap=     0.061 Goal=   None    Shift=    0.000
 Gap=     0.029 Goal=   None    Shift=    0.000
 RMSDP=3.72D-05 MaxDP=2.42D-03 DE=-1.33D-07 OVMax= 1.76D-03

 Cycle  14  Pass 1  IDiag  1:
 E= -1136.10399408022     Delta-E=       -0.000000054717 Rises=F Damp=F
 DIIS: error= 1.57D-06 at cycle  14 NSaved=  14.
 NSaved=14 IEnMin=14 EnMin= -1136.10399408022     IErMin=14 ErrMin= 1.57D-06
 ErrMax= 1.57D-06  0.00D+00 EMaxC= 1.00D-01 BMatC= 9.12D-10 BMatP= 4.65D-09
 IDIUse=1 WtCom= 1.00D+00 WtEn= 0.00D+00
 Coeff-Com:  0.418D-04-0.508D-04 0.351D-03 0.178D-03-0.261D-03-0.229D-02
 Coeff-Com: -0.195D-01 0.265D-01 0.756D-01-0.333D-02-0.300D+00-0.113D+00
 Coeff-Com:  0.262D+00 0.107D+01
 Coeff:      0.418D-04-0.508D-04 0.351D-03 0.178D-03-0.261D-03-0.229D-02
 Coeff:     -0.195D-01 0.265D-01 0.756D-01-0.333D-02-0.300D+00-0.113D+00
 Coeff:      0.262D+00 0.107D+01
 Gap=     0.061 Goal=   None    Shift=    0.000
 Gap=     0.029 Goal=   None    Shift=    0.000
 RMSDP=2.60D-05 MaxDP=1.84D-03 DE=-5.47D-08 OVMax= 1.13D-03

 Cycle  15  Pass 1  IDiag  1:
 E= -1136.10399409354     Delta-E=       -0.000000013320 Rises=F Damp=F
 DIIS: error= 4.47D-07 at cycle  15 NSaved=  15.
 NSaved=15 IEnMin=15 EnMin= -1136.10399409354     IErMin=15 ErrMin= 4.47D-07
 ErrMax= 4.47D-07  0.00D+00 EMaxC= 1.00D-01 BMatC= 7.00D-11 BMatP= 9.12D-10
 IDIUse=1 WtCom= 1.00D+00 WtEn= 0.00D+00
 Coeff-Com: -0.620D-04 0.817D-04 0.427D-04 0.951D-04 0.263D-02 0.430D-02
 Coeff-Com: -0.135D-01-0.163D-01-0.237D-01 0.129D+00 0.274D-01-0.136D+00
 Coeff-Com: -0.103D+00-0.545D-01 0.118D+01
 Coeff:     -0.620D-04 0.817D-04 0.427D-04 0.951D-04 0.263D-02 0.430D-02
 Coeff:     -0.135D-01-0.163D-01-0.237D-01 0.129D+00 0.274D-01-0.136D+00
 Coeff:     -0.103D+00-0.545D-01 0.118D+01
 Gap=     0.061 Goal=   None    Shift=    0.000
 Gap=     0.029 Goal=   None    Shift=    0.000
 RMSDP=5.18D-06 MaxDP=4.04D-04 DE=-1.33D-08 OVMax= 1.70D-04

 Cycle  16  Pass 1  IDiag  1:
 E= -1136.10399409439     Delta-E=       -0.000000000853 Rises=F Damp=F
 DIIS: error= 2.71D-07 at cycle  16 NSaved=  16.
 NSaved=16 IEnMin=16 EnMin= -1136.10399409439     IErMin=16 ErrMin= 2.71D-07
 ErrMax= 2.71D-07  0.00D+00 EMaxC= 1.00D-01 BMatC= 2.60D-11 BMatP= 7.00D-11
 IDIUse=1 WtCom= 1.00D+00 WtEn= 0.00D+00
 Coeff-Com:  0.952D-05-0.135D-04-0.524D-04-0.200D-04-0.660D-03-0.109D-02
 Coeff-Com:  0.618D-02 0.393D-02-0.880D-02-0.419D-01 0.519D-01 0.783D-01
 Coeff-Com: -0.469D-01-0.236D+00-0.127D+00 0.132D+01
 Coeff:      0.952D-05-0.135D-04-0.524D-04-0.200D-04-0.660D-03-0.109D-02
 Coeff:      0.618D-02 0.393D-02-0.880D-02-0.419D-01 0.519D-01 0.783D-01
 Coeff:     -0.469D-01-0.236D+00-0.127D+00 0.132D+01
 Gap=     0.061 Goal=   None    Shift=    0.000
 Gap=     0.029 Goal=   None    Shift=    0.000
 RMSDP=2.13D-06 MaxDP=1.47D-04 DE=-8.53D-10 OVMax= 7.44D-05

 Cycle  17  Pass 1  IDiag  1:
 E= -1136.10399409462     Delta-E=       -0.000000000236 Rises=F Damp=F
 DIIS: error= 9.62D-08 at cycle  17 NSaved=  17.
 NSaved=17 IEnMin=17 EnMin= -1136.10399409462     IErMin=17 ErrMin= 9.62D-08
 ErrMax= 9.62D-08  0.00D+00 EMaxC= 1.00D-01 BMatC= 4.10D-12 BMatP= 2.60D-11
 IDIUse=1 WtCom= 1.00D+00 WtEn= 0.00D+00
 Coeff-Com:  0.152D-04-0.200D-04-0.295D-04-0.464D-04-0.585D-03-0.765D-03
 Coeff-Com:  0.249D-02 0.468D-02 0.670D-02-0.356D-01-0.167D-02 0.329D-01
 Coeff-Com:  0.196D-01 0.970D-02-0.264D+00-0.412D-01 0.127D+01
 Coeff:      0.152D-04-0.200D-04-0.295D-04-0.464D-04-0.585D-03-0.765D-03
 Coeff:      0.249D-02 0.468D-02 0.670D-02-0.356D-01-0.167D-02 0.329D-01
 Coeff:      0.196D-01 0.970D-02-0.264D+00-0.412D-01 0.127D+01
 Gap=     0.061 Goal=   None    Shift=    0.000
 Gap=     0.029 Goal=   None    Shift=    0.000
 RMSDP=1.00D-06 MaxDP=6.35D-05 DE=-2.36D-10 OVMax= 3.10D-05

 Cycle  18  Pass 1  IDiag  1:
 E= -1136.10399409465     Delta-E=       -0.000000000030 Rises=F Damp=F
 DIIS: error= 3.96D-08 at cycle  18 NSaved=  18.
 NSaved=18 IEnMin=18 EnMin= -1136.10399409465     IErMin=18 ErrMin= 3.96D-08
 ErrMax= 3.96D-08  0.00D+00 EMaxC= 1.00D-01 BMatC= 8.36D-13 BMatP= 4.10D-12
 IDIUse=1 WtCom= 1.00D+00 WtEn= 0.00D+00
 Coeff-Com:  0.176D-05-0.213D-05 0.320D-05-0.723D-05 0.190D-04 0.702D-04
 Coeff-Com: -0.832D-03 0.260D-03 0.413D-02 0.611D-03-0.943D-02-0.934D-02
 Coeff-Com:  0.138D-01 0.478D-01-0.566D-02-0.337D+00 0.369D+00 0.927D+00
 Coeff:      0.176D-05-0.213D-05 0.320D-05-0.723D-05 0.190D-04 0.702D-04
 Coeff:     -0.832D-03 0.260D-03 0.413D-02 0.611D-03-0.943D-02-0.934D-02
 Coeff:      0.138D-01 0.478D-01-0.566D-02-0.337D+00 0.369D+00 0.927D+00
 Gap=     0.061 Goal=   None    Shift=    0.000
 Gap=     0.029 Goal=   None    Shift=    0.000
 RMSDP=3.65D-07 MaxDP=3.17D-05 DE=-3.00D-11 OVMax= 1.10D-05

 Cycle  19  Pass 1  IDiag  1:
 E= -1136.10399409466     Delta-E=       -0.000000000009 Rises=F Damp=F
 DIIS: error= 1.23D-08 at cycle  19 NSaved=  19.
 NSaved=19 IEnMin=19 EnMin= -1136.10399409466     IErMin=19 ErrMin= 1.23D-08
 ErrMax= 1.23D-08  0.00D+00 EMaxC= 1.00D-01 BMatC= 7.48D-14 BMatP= 8.36D-13
 IDIUse=1 WtCom= 1.00D+00 WtEn= 0.00D+00
 Coeff-Com: -0.150D-05 0.202D-05 0.513D-05 0.575D-05 0.632D-04 0.858D-04
 Coeff-Com: -0.396D-03-0.434D-03-0.247D-03 0.424D-02-0.214D-02-0.367D-02
 Coeff-Com: -0.764D-03 0.415D-02 0.281D-01-0.393D-01-0.107D+00 0.133D+00
 Coeff-Com:  0.984D+00
 Coeff:     -0.150D-05 0.202D-05 0.513D-05 0.575D-05 0.632D-04 0.858D-04
 Coeff:     -0.396D-03-0.434D-03-0.247D-03 0.424D-02-0.214D-02-0.367D-02
 Coeff:     -0.764D-03 0.415D-02 0.281D-01-0.393D-01-0.107D+00 0.133D+00
 Coeff:      0.984D+00
 Gap=     0.061 Goal=   None    Shift=    0.000
 Gap=     0.029 Goal=   None    Shift=    0.000
 RMSDP=9.47D-08 MaxDP=7.49D-06 DE=-8.64D-12 OVMax= 1.84D-06

 Cycle  20  Pass 1  IDiag  1:
 E= -1136.10399409467     Delta-E=       -0.000000000007 Rises=F Damp=F
 DIIS: error= 4.20D-09 at cycle  20 NSaved=  20.
 NSaved=20 IEnMin=20 EnMin= -1136.10399409467     IErMin=20 ErrMin= 4.20D-09
 ErrMax= 4.20D-09  0.00D+00 EMaxC= 1.00D-01 BMatC= 7.35D-15 BMatP= 7.48D-14
 IDIUse=1 WtCom= 1.00D+00 WtEn= 0.00D+00
 Coeff-Com: -0.398D-06 0.499D-06-0.950D-07 0.151D-05 0.177D-05-0.426D-05
 Coeff-Com:  0.905D-04-0.702D-04-0.558D-03 0.173D-03 0.115D-02 0.113D-02
 Coeff-Com: -0.189D-02-0.656D-02 0.360D-02 0.457D-01-0.588D-01-0.105D+00
 Coeff-Com:  0.306D-01 0.109D+01
 Coeff:     -0.398D-06 0.499D-06-0.950D-07 0.151D-05 0.177D-05-0.426D-05
 Coeff:      0.905D-04-0.702D-04-0.558D-03 0.173D-03 0.115D-02 0.113D-02
 Coeff:     -0.189D-02-0.656D-02 0.360D-02 0.457D-01-0.588D-01-0.105D+00
 Coeff:      0.306D-01 0.109D+01
 Gap=     0.061 Goal=   None    Shift=    0.000
 Gap=     0.029 Goal=   None    Shift=    0.000
 RMSDP=3.76D-08 MaxDP=2.17D-06 DE=-7.28D-12 OVMax= 4.62D-07

 Cycle  21  Pass 1  IDiag  1:
 E= -1136.10399409466     Delta-E=        0.000000000010 Rises=F Damp=F
 DIIS: error= 1.49D-09 at cycle  21 NSaved=  20.
 NSaved=20 IEnMin=19 EnMin= -1136.10399409467     IErMin=20 ErrMin= 1.49D-09
 ErrMax= 1.49D-09  0.00D+00 EMaxC= 1.00D-01 BMatC= 1.13D-15 BMatP= 7.35D-15
 IDIUse=1 WtCom= 1.00D+00 WtEn= 0.00D+00
 Large coefficients: NSaved= 20 BigCof=    0.00 CofMax=   10.00 Det=-2.39D-15
 Inversion failed.  Reducing to 19 matrices.
 Large coefficients: NSaved= 19 BigCof=    0.00 CofMax=   10.00 Det=-2.44D-15
 Inversion failed.  Reducing to 18 matrices.
 Large coefficients: NSaved= 18 BigCof=    0.00 CofMax=   10.00 Det=-2.44D-15
 Inversion failed.  Reducing to 17 matrices.
 Large coefficients: NSaved= 17 BigCof=    0.00 CofMax=   10.00 Det=-3.40D-15
 Inversion failed.  Reducing to 16 matrices.
 Large coefficients: NSaved= 16 BigCof=    0.00 CofMax=   10.00 Det=-3.86D-15
 Inversion failed.  Reducing to 15 matrices.
 Coeff-Com: -0.555D-05 0.835D-05-0.404D-05-0.977D-04 0.267D-03-0.104D-03
 Coeff-Com: -0.711D-04-0.491D-04-0.122D-02 0.131D-02 0.103D-01-0.206D-01
 Coeff-Com: -0.923D-01-0.428D-01 0.115D+01
 Coeff:     -0.555D-05 0.835D-05-0.404D-05-0.977D-04 0.267D-03-0.104D-03
 Coeff:     -0.711D-04-0.491D-04-0.122D-02 0.131D-02 0.103D-01-0.206D-01
 Coeff:     -0.923D-01-0.428D-01 0.115D+01
 Gap=     0.061 Goal=   None    Shift=    0.000
 Gap=     0.029 Goal=   None    Shift=    0.000
 RMSDP=1.93D-08 MaxDP=1.32D-06 DE= 9.55D-12 OVMax= 2.63D-07

 Cycle  22  Pass 1  IDiag  1:
 E= -1136.10399409465     Delta-E=        0.000000000009 Rises=F Damp=F
 DIIS: error= 1.24D-09 at cycle  22 NSaved=  16.
 NSaved=16 IEnMin=14 EnMin= -1136.10399409467     IErMin=16 ErrMin= 1.24D-09
 ErrMax= 1.24D-09  0.00D+00 EMaxC= 1.00D-01 BMatC= 3.69D-16 BMatP= 1.13D-15
 IDIUse=1 WtCom= 1.00D+00 WtEn= 0.00D+00
 Large coefficients: NSaved= 16 BigCof=    0.00 CofMax=   10.00 Det=-4.28D-16
 Inversion failed.  Reducing to 15 matrices.
 Coeff-Com:  0.565D-05 0.176D-04-0.110D-03-0.945D-05 0.172D-04 0.840D-04
 Coeff-Com:  0.173D-03-0.123D-02-0.139D-02 0.667D-02 0.465D-02-0.207D-01
 Coeff-Com: -0.115D+00 0.124D+00 0.100D+01
 Coeff:      0.565D-05 0.176D-04-0.110D-03-0.945D-05 0.172D-04 0.840D-04
 Coeff:      0.173D-03-0.123D-02-0.139D-02 0.667D-02 0.465D-02-0.207D-01
 Coeff:     -0.115D+00 0.124D+00 0.100D+01
 Gap=     0.061 Goal=   None    Shift=    0.000
 Gap=     0.029 Goal=   None    Shift=    0.000
 RMSDP=1.89D-08 MaxDP=9.84D-07 DE= 8.64D-12 OVMax= 6.01D-07

 Cycle  23  Pass 1  IDiag  1:
 E= -1136.10399409465     Delta-E=       -0.000000000001 Rises=F Damp=F
 DIIS: error= 7.85D-10 at cycle  23 NSaved=  16.
 NSaved=16 IEnMin=13 EnMin= -1136.10399409467     IErMin=16 ErrMin= 7.85D-10
 ErrMax= 7.85D-10  0.00D+00 EMaxC= 1.00D-01 BMatC= 2.38D-16 BMatP= 3.69D-16
 IDIUse=1 WtCom= 1.00D+00 WtEn= 0.00D+00
 Large coefficients: NSaved= 16 BigCof=    0.00 CofMax=   10.00 Det=-2.43D-16
 Inversion failed.  Reducing to 15 matrices.
 Coeff-Com:  0.148D-04 0.212D-04-0.850D-04-0.280D-05 0.751D-04 0.225D-03
 Coeff-Com:  0.165D-03-0.190D-02-0.174D-03 0.880D-02 0.154D-01-0.508D-01
 Coeff-Com: -0.212D+00 0.508D+00 0.733D+00
 Coeff:      0.148D-04 0.212D-04-0.850D-04-0.280D-05 0.751D-04 0.225D-03
 Coeff:      0.165D-03-0.190D-02-0.174D-03 0.880D-02 0.154D-01-0.508D-01
 Coeff:     -0.212D+00 0.508D+00 0.733D+00
 Gap=     0.061 Goal=   None    Shift=    0.000
 Gap=     0.029 Goal=   None    Shift=    0.000
 RMSDP=8.33D-09 MaxDP=5.75D-07 DE=-9.09D-13 OVMax= 3.10D-07

 SCF Done:  E(UB3LYP) =  -1136.10399409     A.U. after   23 cycles
            NFock= 23  Conv=0.83D-08     -V/T= 2.0026
 <Sx>= 0.0000 <Sy>= 0.0000 <Sz>= 0.5000 <S**2>= 0.7683 S= 0.5091
 <L.S>= 0.000000000000E+00
 KE= 1.133116459893D+03 PE=-3.428720691010D+03 EE= 8.098868761534D+02
 Annihilation of the first spin contaminant:
 S**2 before annihilation     0.7683,   after     0.7502
 Leave Link  502 at Mon Nov 13 20:09:01 2023, MaxMem=  1879048192 cpu:             225.9 elap:              19.2
 (Enter /home/sekinelabo/g16/l601.exe)
 Copying SCF densities to generalized density rwf, IOpCl= 1 IROHF=0.

 **********************************************************************

            Population analysis using the SCF Density.

 **********************************************************************

 Orbital symmetries:
 Alpha Orbitals:
       Occupied  (A) (A) (A) (A) (A) (A) (A) (A) (A) (A) (A) (A)
                 (A) (A) (A) (A) (A) (A) (A) (A) (A) (A) (A) (A)
                 (A) (A) (A) (A) (A) (A) (A) (A) (A) (A) (A) (A)
                 (A) (A) (A)
       Virtual   (A) (A) (A) (A) (A) (A) (A) (A) (A) (A) (A) (A)
                 (A) (A) (A) (A) (A) (A) (A) (A) (A) (A) (A) (A)
                 (A) (A) (A) (A) (A) (A) (A) (A) (A) (A) (A) (A)
                 (A) (A) (A) (A) (A) (A) (A) (A) (A) (A) (A) (A)
                 (A) (A) (A) (A) (A) (A) (A) (A) (A) (A) (A) (A)
                 (A) (A) (A) (A) (A) (A) (A) (A) (A) (A) (A) (A)
                 (A) (A) (A) (A) (A) (A) (A) (A) (A) (A) (A) (A)
                 (A) (A) (A) (A) (A) (A) (A) (A) (A) (A) (A) (A)
                 (A) (A) (A) (A) (A) (A) (A) (A) (A) (A) (A) (A)
                 (A) (A) (A) (A) (A) (A) (A) (A) (A) (A) (A) (A)
                 (A) (A) (A) (A) (A) (A) (A) (A) (A) (A) (A) (A)
                 (A) (A) (A) (A) (A) (A) (A) (A) (A) (A) (A) (A)
                 (A) (A) (A) (A) (A) (A) (A) (A) (A) (A) (A) (A)
                 (A) (A) (A) (A) (A) (A) (A) (A) (A) (A) (A) (A)
                 (A) (A) (A)
 Beta  Orbitals:
       Occupied  (A) (A) (A) (A) (A) (A) (A) (A) (A) (A) (A) (A)
                 (A) (A) (A) (A) (A) (A) (A) (A) (A) (A) (A) (A)
                 (A) (A) (A) (A) (A) (A) (A) (A) (A) (A) (A) (A)
                 (A) (A)
       Virtual   (A) (A) (A) (A) (A) (A) (A) (A) (A) (A) (A) (A)
                 (A) (A) (A) (A) (A) (A) (A) (A) (A) (A) (A) (A)
                 (A) (A) (A) (A) (A) (A) (A) (A) (A) (A) (A) (A)
                 (A) (A) (A) (A) (A) (A) (A) (A) (A) (A) (A) (A)
                 (A) (A) (A) (A) (A) (A) (A) (A) (A) (A) (A) (A)
                 (A) (A) (A) (A) (A) (A) (A) (A) (A) (A) (A) (A)
                 (A) (A) (A) (A) (A) (A) (A) (A) (A) (A) (A) (A)
                 (A) (A) (A) (A) (A) (A) (A) (A) (A) (A) (A) (A)
                 (A) (A) (A) (A) (A) (A) (A) (A) (A) (A) (A) (A)
                 (A) (A) (A) (A) (A) (A) (A) (A) (A) (A) (A) (A)
                 (A) (A) (A) (A) (A) (A) (A) (A) (A) (A) (A) (A)
                 (A) (A) (A) (A) (A) (A) (A) (A) (A) (A) (A) (A)
                 (A) (A) (A) (A) (A) (A) (A) (A) (A) (A) (A) (A)
                 (A) (A) (A) (A) (A) (A) (A) (A) (A) (A) (A) (A)
                 (A) (A) (A) (A)
 The electronic state is 2-A.
 Alpha  occ. eigenvalues --  -38.44336 -38.44312 -38.44209 -38.44035 -38.43582
 Alpha  occ. eigenvalues --  -38.43459 -38.42342  -2.20241  -2.20213  -2.20092
 Alpha  occ. eigenvalues --   -2.19945  -2.19437  -2.19400  -2.18648  -1.13993
 Alpha  occ. eigenvalues --   -1.13977  -1.13898  -1.13884  -1.13817  -1.13816
 Alpha  occ. eigenvalues --   -1.13782  -1.13719  -1.13682  -1.13663  -1.13590
 Alpha  occ. eigenvalues --   -1.13532  -1.13152  -1.13121  -1.13090  -1.13033
 Alpha  occ. eigenvalues --   -1.13032  -1.13009  -1.12399  -1.12299  -1.12243
 Alpha  occ. eigenvalues --   -0.18833  -0.13363  -0.12155  -0.11538
 Alpha virt. eigenvalues --   -0.05392  -0.04689  -0.04110  -0.03598  -0.03324
 Alpha virt. eigenvalues --   -0.02512  -0.01329  -0.00869  -0.00619   0.00233
 Alpha virt. eigenvalues --    0.00329   0.00478   0.00774   0.00876   0.00930
 Alpha virt. eigenvalues --    0.00994   0.01018   0.01155   0.01223   0.01345
 Alpha virt. eigenvalues --    0.01431   0.01486   0.01587   0.01719   0.01742
 Alpha virt. eigenvalues --    0.02437   0.02530   0.02682   0.02706   0.02746
 Alpha virt. eigenvalues --    0.02827   0.02899   0.03099   0.03164   0.03203
 Alpha virt. eigenvalues --    0.03211   0.03304   0.03336   0.03510   0.03746
 Alpha virt. eigenvalues --    0.03995   0.04193   0.04232   0.04402   0.04774
 Alpha virt. eigenvalues --    0.05112   0.05493   0.05652   0.05916   0.06278
 Alpha virt. eigenvalues --    0.06337   0.06773   0.06961   0.07130   0.07404
 Alpha virt. eigenvalues --    0.07595   0.08205   0.08482   0.08798   0.09442
 Alpha virt. eigenvalues --    0.09718   0.10019   0.10443   0.10763   0.11272
 Alpha virt. eigenvalues --    0.11507   0.11796   0.12283   0.13032   0.13519
 Alpha virt. eigenvalues --    0.13913   0.14375   0.14704   0.14721   0.15147
 Alpha virt. eigenvalues --    0.15802   0.16086   0.17599   0.19554   0.20610
 Alpha virt. eigenvalues --    0.25271   0.26718   0.27563   0.28508   0.29575
 Alpha virt. eigenvalues --    0.30382   0.31761   0.32857   0.33217   0.33542
 Alpha virt. eigenvalues --    0.35034   0.35935   0.36017   0.36897   0.37381
 Alpha virt. eigenvalues --    0.37975   0.39207   0.40237   0.41676   0.43199
 Alpha virt. eigenvalues --    0.43516   0.44374   0.44515   0.44795   0.45110
 Alpha virt. eigenvalues --    0.45769   0.45852   0.46018   0.46763   0.46919
 Alpha virt. eigenvalues --    0.47818   0.48355   0.48772   0.49528   0.49647
 Alpha virt. eigenvalues --    0.50079   0.50604   0.51109   0.51630   0.51949
 Alpha virt. eigenvalues --    0.52617   0.54720   0.55925   0.57016   0.58593
 Alpha virt. eigenvalues --    0.59676   0.61472   0.62574   0.67847   0.69047
 Alpha virt. eigenvalues --    0.72075   0.72881   0.74258   0.76823   0.80645
 Alpha virt. eigenvalues --    0.83396   2.12255   2.14349   2.15135   2.17287
 Alpha virt. eigenvalues --    2.19556   2.22334   2.38766   4.41469   4.41821
 Alpha virt. eigenvalues --    4.43270   4.44360   4.44773   4.45370   4.46481
 Alpha virt. eigenvalues --    4.46876   4.47021   4.47696   4.48142   4.49126
 Alpha virt. eigenvalues --    4.50993   4.53727   4.57946   4.64563   4.65034
 Alpha virt. eigenvalues --    4.69648   4.73605   4.77353   4.79867  96.33974
 Alpha virt. eigenvalues --   96.36454  96.37645  96.41029  96.44219  96.47836
 Alpha virt. eigenvalues --   96.68916
  Beta  occ. eigenvalues --  -38.44277 -38.44274 -38.44214 -38.43968 -38.43548
  Beta  occ. eigenvalues --  -38.43451 -38.42314  -2.20145  -2.20134  -2.20101
  Beta  occ. eigenvalues --   -2.19821  -2.19429  -2.19339  -2.18609  -1.13965
  Beta  occ. eigenvalues --   -1.13904  -1.13836  -1.13825  -1.13782  -1.13768
  Beta  occ. eigenvalues --   -1.13739  -1.13721  -1.13647  -1.13602  -1.13504
  Beta  occ. eigenvalues --   -1.13446  -1.13152  -1.13076  -1.13036  -1.13029
  Beta  occ. eigenvalues --   -1.12991  -1.12967  -1.12290  -1.12269  -1.12232
  Beta  occ. eigenvalues --   -0.18016  -0.13053  -0.11212
  Beta virt. eigenvalues --   -0.08323  -0.05140  -0.04296  -0.03624  -0.03174
  Beta virt. eigenvalues --   -0.02975  -0.01880  -0.01255  -0.00684  -0.00403
  Beta virt. eigenvalues --    0.00351   0.00458   0.00603   0.00819   0.00904
  Beta virt. eigenvalues --    0.01009   0.01017   0.01062   0.01182   0.01317
  Beta virt. eigenvalues --    0.01461   0.01522   0.01549   0.01591   0.01783
  Beta virt. eigenvalues --    0.01892   0.02519   0.02625   0.02706   0.02722
  Beta virt. eigenvalues --    0.02793   0.02875   0.02986   0.03124   0.03226
  Beta virt. eigenvalues --    0.03274   0.03314   0.03365   0.03410   0.03560
  Beta virt. eigenvalues --    0.03803   0.04071   0.04255   0.04331   0.04501
  Beta virt. eigenvalues --    0.04835   0.05192   0.05578   0.05721   0.05994
  Beta virt. eigenvalues --    0.06319   0.06497   0.06845   0.07061   0.07296
  Beta virt. eigenvalues --    0.07636   0.07666   0.08411   0.08612   0.09064
  Beta virt. eigenvalues --    0.09606   0.09902   0.10224   0.10568   0.10989
  Beta virt. eigenvalues --    0.11521   0.11756   0.11952   0.12509   0.13171
  Beta virt. eigenvalues --    0.13669   0.14041   0.14611   0.14743   0.14856
  Beta virt. eigenvalues --    0.15356   0.16030   0.16197   0.17776   0.19827
  Beta virt. eigenvalues --    0.20841   0.25538   0.27090   0.27956   0.28913
  Beta virt. eigenvalues --    0.29878   0.30531   0.32043   0.33204   0.33498
  Beta virt. eigenvalues --    0.33896   0.35317   0.36291   0.36482   0.37224
  Beta virt. eigenvalues --    0.37893   0.38406   0.39450   0.40534   0.41881
  Beta virt. eigenvalues --    0.43339   0.43760   0.44445   0.44663   0.44881
  Beta virt. eigenvalues --    0.45310   0.45864   0.45937   0.46135   0.46856
  Beta virt. eigenvalues --    0.47025   0.48027   0.48577   0.48961   0.49632
  Beta virt. eigenvalues --    0.49755   0.50189   0.50666   0.51240   0.51741
  Beta virt. eigenvalues --    0.52116   0.52802   0.54897   0.56119   0.57185
  Beta virt. eigenvalues --    0.58927   0.59941   0.61627   0.62726   0.67890
  Beta virt. eigenvalues --    0.69207   0.72169   0.72998   0.74393   0.76857
  Beta virt. eigenvalues --    0.80764   0.83435   2.12378   2.14524   2.15226
  Beta virt. eigenvalues --    2.17538   2.19639   2.22391   2.38822   4.41552
  Beta virt. eigenvalues --    4.41854   4.43307   4.44433   4.44842   4.45426
  Beta virt. eigenvalues --    4.46500   4.46931   4.47085   4.47770   4.48189
  Beta virt. eigenvalues --    4.49190   4.51067   4.53764   4.58014   4.64608
  Beta virt. eigenvalues --    4.65119   4.69662   4.73661   4.77364   4.79937
  Beta virt. eigenvalues --   96.34015  96.36515  96.37676  96.41114  96.44248
  Beta virt. eigenvalues --   96.47860  96.68945
          Condensed to atoms (all electrons):
               1          2          3          4          5          6
     1  Na  18.062398   0.160339  -4.894213  -2.112815  -0.370951   0.130645
     2  Na   0.160339  11.665228  -0.608112   0.457597  -0.229057  -1.083471
     3  Na  -4.894213  -0.608112  15.506685  -1.489910   0.443306   0.965863
     4  Na  -2.112815   0.457597  -1.489910  19.847962  -1.602715  -1.989486
     5  Na  -0.370951  -0.229057   0.443306  -1.602715  11.640179   0.612849
     6  Na   0.130645  -1.083471   0.965863  -1.989486   0.612849  12.478138
     7  Na  -0.449125   0.405606   0.385506  -0.520976   0.269936  -0.119039
               7
     1  Na  -0.449125
     2  Na   0.405606
     3  Na   0.385506
     4  Na  -0.520976
     5  Na   0.269936
     6  Na  -0.119039
     7  Na  11.075857
          Atomic-Atomic Spin Densities.
               1          2          3          4          5          6
     1  Na   1.569128  -0.390404  -0.755906   0.088163  -0.492472   0.327546
     2  Na  -0.390404   0.131531   0.093175   0.136648  -0.019865  -0.217270
     3  Na  -0.755906   0.093175   0.526515  -0.381467   0.447838  -0.099298
     4  Na   0.088163   0.136648  -0.381467   0.717448  -0.070936  -0.213753
     5  Na  -0.492472  -0.019865   0.447838  -0.070936   0.344772   0.128234
     6  Na   0.327546  -0.217270  -0.099298  -0.213753   0.128234   0.382782
     7  Na  -0.155839   0.027955   0.025420   0.376628  -0.068334  -0.163591
               7
     1  Na  -0.155839
     2  Na   0.027955
     3  Na   0.025420
     4  Na   0.376628
     5  Na  -0.068334
     6  Na  -0.163591
     7  Na   0.082881
 Mulliken charges and spin densities:
               1          2
     1  Na   0.473722   0.190216
     2  Na   0.231870  -0.238230
     3  Na   0.690875  -0.143723
     4  Na  -1.589658   0.652730
     5  Na   0.236453   0.269236
     6  Na   0.004501   0.144651
     7  Na  -0.047763   0.125120
 Sum of Mulliken charges =  -0.00000   1.00000
 Mulliken charges and spin densities with hydrogens summed into heavy atoms:
               1          2
     1  Na   0.473722   0.190216
     2  Na   0.231870  -0.238230
     3  Na   0.690875  -0.143723
     4  Na  -1.589658   0.652730
     5  Na   0.236453   0.269236
     6  Na   0.004501   0.144651
     7  Na  -0.047763   0.125120
 Electronic spatial extent (au):  <R**2>=           2252.4970
 Charge=             -0.0000 electrons
 Dipole moment (field-independent basis, Debye):
    X=              0.3984    Y=             -0.2972    Z=             -0.1421  Tot=              0.5170
 Quadrupole moment (field-independent basis, Debye-Ang):
   XX=            -61.5257   YY=            -68.4378   ZZ=            -63.0794
   XY=              0.5479   XZ=              3.2393   YZ=              5.0686
 Traceless Quadrupole moment (field-independent basis, Debye-Ang):
   XX=              2.8219   YY=             -4.0901   ZZ=              1.2682
   XY=              0.5479   XZ=              3.2393   YZ=              5.0686
 Octapole moment (field-independent basis, Debye-Ang**2):
  XXX=             16.7510  YYY=              6.8763  ZZZ=              1.8142  XYY=              4.7990
  XXY=              0.2001  XXZ=             -3.8671  XZZ=             -6.5564  YZZ=             -7.6798
  YYZ=             -3.3323  XYZ=              6.1786
 Hexadecapole moment (field-independent basis, Debye-Ang**3):
 XXXX=          -1460.7440 YYYY=          -1206.0106 ZZZZ=           -941.6958 XXXY=             74.9943
 XXXZ=             46.6890 YYYX=            -36.3173 YYYZ=             83.6735 ZZZX=             44.3679
 ZZZY=              3.3052 XXYY=           -496.6300 XXZZ=           -445.7289 YYZZ=           -397.6297
 XXYZ=             13.7543 YYXZ=            -16.8807 ZZXY=            -25.1030
 N-N= 3.496133608699D+02 E-N=-3.428720690940D+03  KE= 1.133116459893D+03
                          Isotropic Fermi Contact Couplings
        Atom                 a.u.       MegaHertz       Gauss      10(-4) cm-1
     1  Na(23)             0.16064     190.04574      67.81305      63.39244
     2  Na(23)            -0.04644     -54.94238     -19.60481     -18.32681
     3  Na(23)             0.13361     158.07021      56.40338      52.72655
     4  Na(23)            -0.00796      -9.42117      -3.36171      -3.14256
     5  Na(23)             0.24173     285.97900     102.04442      95.39233
     6  Na(23)            -0.04063     -48.06753     -17.15169     -16.03360
     7  Na(23)             0.28217     333.81176     119.11234     111.34762
 --------------------------------------------------------
       Center         ----  Spin Dipole Couplings  ----
                      3XX-RR        3YY-RR        3ZZ-RR
 --------------------------------------------------------
     1   Atom        0.002078     -0.001579     -0.000499
     2   Atom       -0.006308      0.001681      0.004627
     3   Atom       -0.003609      0.002547      0.001062
     4   Atom       -0.057042     -0.023540      0.080582
     5   Atom       -0.002249      0.012863     -0.010615
     6   Atom       -0.027197     -0.032291      0.059489
     7   Atom       -0.002899      0.011514     -0.008615
 --------------------------------------------------------
                        XY            XZ            YZ
 --------------------------------------------------------
     1   Atom       -0.005430      0.003890     -0.006741
     2   Atom       -0.005358     -0.005239      0.016480
     3   Atom       -0.005053      0.002106     -0.011657
     4   Atom        0.008709      0.008169      0.071586
     5   Atom       -0.007724     -0.001539     -0.005132
     6   Atom        0.001533      0.009023      0.003263
     7   Atom        0.000952     -0.003081     -0.007490
 --------------------------------------------------------


 ---------------------------------------------------------------------------------
              Anisotropic Spin Dipole Couplings in Principal Axis System
 ---------------------------------------------------------------------------------

       Atom             a.u.   MegaHertz   Gauss  10(-4) cm-1        Axes

              Baa    -0.0081    -1.138    -0.406    -0.380  0.1879  0.7792  0.5980
     1 Na(23) Bbb    -0.0027    -0.376    -0.134    -0.126  0.7722  0.2590 -0.5802
              Bcc     0.0107     1.515     0.541     0.505  0.6070 -0.5707  0.5530
 
              Baa    -0.0134    -1.896    -0.676    -0.632  0.0768  0.7473 -0.6600
     2 Na(23) Bbb    -0.0083    -1.169    -0.417    -0.390  0.9630  0.1158  0.2432
              Bcc     0.0217     3.064     1.093     1.022 -0.2581  0.6543  0.7108
 
              Baa    -0.0105    -1.484    -0.530    -0.495  0.3135  0.6970  0.6449
     3 Na(23) Bbb    -0.0044    -0.622    -0.222    -0.207  0.9108 -0.0286 -0.4119
              Bcc     0.0149     2.106     0.752     0.703 -0.2686  0.7165 -0.6438
 
              Baa    -0.0631    -8.907    -3.178    -2.971 -0.6048  0.7260 -0.3274
     4 Na(23) Bbb    -0.0547    -7.722    -2.755    -2.576  0.7938  0.5164 -0.3212
              Bcc     0.1178    16.629     5.934     5.547  0.0642  0.4542  0.8886
 
              Baa    -0.0128    -1.807    -0.645    -0.603  0.3370  0.2811  0.8986
     5 Na(23) Bbb    -0.0040    -0.558    -0.199    -0.186  0.8693  0.2737 -0.4116
              Bcc     0.0167     2.365     0.844     0.789 -0.3617  0.9198 -0.1522
 
              Baa    -0.0327    -4.621    -1.649    -1.541 -0.2528  0.9675 -0.0095
     6 Na(23) Bbb    -0.0278    -3.928    -1.402    -1.310  0.9620  0.2504 -0.1088
              Bcc     0.0605     8.549     3.051     2.852  0.1029  0.0366  0.9940
 
              Baa    -0.0119    -1.677    -0.598    -0.559  0.2846  0.2818  0.9163
     7 Na(23) Bbb    -0.0023    -0.329    -0.117    -0.110  0.9522 -0.1934 -0.2363
              Bcc     0.0142     2.006     0.716     0.669  0.1106  0.9398 -0.3234
 

 ---------------------------------------------------------------------------------

 No NMR shielding tensors so no spin-rotation constants.
 Leave Link  601 at Mon Nov 13 20:09:02 2023, MaxMem=  1879048192 cpu:               2.6 elap:               0.2
 (Enter /home/sekinelabo/g16/l701.exe)
 ... and contract with generalized density number  0.
 Compute integral first derivatives.
 Leave Link  701 at Mon Nov 13 20:09:02 2023, MaxMem=  1879048192 cpu:               1.8 elap:               0.1
 (Enter /home/sekinelabo/g16/l702.exe)
 L702 exits ... SP integral derivatives will be done elsewhere.
 Leave Link  702 at Mon Nov 13 20:09:02 2023, MaxMem=  1879048192 cpu:               0.5 elap:               0.0
 (Enter /home/sekinelabo/g16/l703.exe)
 Integral derivatives from FoFJK, PRISM(SPDF).
 Compute integral first derivatives, UseDBF=F ICtDFT=           0.
 Calling FoFJK, ICntrl=      2127 FMM=F ISym2X=0 I1Cent= 0 IOpClX= 1 NMat=1 NMatS=1 NMatT=0.
 FoFJK:  IHMeth= 1 ICntrl=    2127 DoSepK=F KAlg= 0 I1Cent=           0 FoldK=F
 IRaf=         0 NMat=       1 IRICut=       1 DoRegI=T DoRafI=F ISym2E= 0 IDoP0=0 IntGTp=1.
 FoFCou: FMM=F IPFlag=           0 FMFlag=      100000 FMFlg1=         800
         NFxFlg=           0 DoJE=F BraDBF=F KetDBF=F FulRan=T
         wScrn=  0.000000 ICntrl=      2127 IOpCl=  1 I1Cent=           0 NGrid=           0
         NMat0=    1 NMatS0=      1 NMatT0=    0 NMatD0=    1 NMtDS0=    0 NMtDT0=    0
 Symmetry not used in FoFCou.
 Leave Link  703 at Mon Nov 13 20:09:04 2023, MaxMem=  1879048192 cpu:              36.0 elap:               2.3
 (Enter /home/sekinelabo/g16/l716.exe)
 Dipole        = 1.56761223D-01-1.16910334D-01-5.59164828D-02
 ***** Axes restored to original set *****
 -------------------------------------------------------------------
 Center     Atomic                   Forces (Hartrees/Bohr)
 Number     Number              X              Y              Z
 -------------------------------------------------------------------
      1       11          -0.000373741    0.008676609    0.002372991
      2       11           0.005826984   -0.005523232   -0.002588949
      3       11          -0.000369093   -0.002769130    0.002069891
      4       11           0.002210549   -0.004302021    0.000933820
      5       11          -0.001063834   -0.006735438    0.007962782
      6       11          -0.009121098    0.007049802   -0.002265165
      7       11           0.002890232    0.003603410   -0.008485370
 -------------------------------------------------------------------
 Cartesian Forces:  Max     0.009121098 RMS     0.005022994
 Z-matrix is all fixed cartesians, so copy forces.
 Force constants in Cartesian coordinates: 
                1             2             3             4             5 
      1  0.428424D-01
      2 -0.632194D-02  0.619105D-01
      3 -0.132453D-02  0.217269D-01  0.299309D-01
      4 -0.135333D-01  0.416982D-02  0.270196D-02  0.561391D-01
      5  0.219326D-01 -0.271311D-01 -0.161720D-01 -0.139454D-01  0.514548D-01
      6  0.124266D-01 -0.157363D-01 -0.722852D-02 -0.863160D-02  0.126743D-01
      7  0.530760D-02 -0.480157D-02  0.164033D-02 -0.322630D-03 -0.777749D-02
      8 -0.621570D-03  0.780096D-03 -0.612330D-03  0.744368D-05  0.503570D-03
      9  0.197387D-02 -0.336129D-02  0.365025D-02  0.995092D-04  0.538664D-04
     10 -0.302191D-01  0.304718D-02 -0.179723D-02 -0.424445D-01 -0.760726D-02
     11 -0.507865D-02 -0.438992D-01 -0.308751D-02  0.941379D-02 -0.371224D-01
     12 -0.762093D-02 -0.481073D-02 -0.299799D-01  0.532807D-02  0.573554D-02
     13 -0.205892D-02 -0.100265D-03  0.315118D-02  0.293853D-03 -0.268430D-03
     14 -0.362621D-02  0.334606D-03  0.456355D-02  0.783691D-04  0.230457D-02
     15 -0.223216D-02 -0.707364D-04  0.334306D-02  0.285962D-03 -0.847524D-04
     16 -0.229833D-02  0.207075D-02 -0.693997D-03  0.903002D-04  0.436506D-02
     17 -0.519704D-02  0.437500D-02 -0.976051D-03  0.207230D-03  0.803881D-02
     18 -0.276780D-02  0.126346D-02  0.153814D-02  0.120912D-03 -0.207266D-02
     19 -0.403426D-04  0.193603D-02 -0.367772D-02 -0.222826D-03  0.330091D-02
     20 -0.108719D-02  0.363008D-02 -0.544263D-02  0.687498D-04  0.195179D-02
     21 -0.455050D-03  0.988624D-03 -0.125391D-02  0.951832D-04 -0.134345D-03
                6             7             8             9            10 
      6  0.300106D-01
      7 -0.785674D-03  0.264557D-01
      8 -0.221994D-03  0.339832D-03  0.361463D-01
      9  0.197952D-02  0.231932D-02  0.244803D-02  0.176939D-01
     10 -0.803013D-03 -0.362362D-01  0.685225D-03 -0.508606D-02  0.222403D+00
     11  0.520137D-02 -0.177885D-02 -0.362102D-01 -0.130160D-02  0.146111D-03
     12 -0.366480D-01 -0.570068D-02 -0.781432D-03 -0.281438D-01  0.761889D-02
     13  0.616227D-02  0.508885D-03 -0.107038D-04 -0.164459D-03 -0.366712D-01
     14 -0.116867D-03  0.519300D-02  0.457743D-03 -0.578008D-02  0.355583D-02
     15  0.586605D-02  0.870805D-03  0.237906D-04 -0.586051D-03 -0.274132D-02
     16 -0.140119D-02  0.340705D-02 -0.247090D-03  0.168070D-03 -0.462550D-01
     17 -0.174983D-02  0.695686D-02 -0.593196D-03  0.984631D-03  0.263561D-02
     18  0.398923D-02  0.111271D-02 -0.435495D-03  0.262172D-02 -0.245752D-02
     19 -0.696738D-02  0.879645D-03 -0.153137D-03  0.689752D-03 -0.305769D-01
     20 -0.507293D-04  0.186822D-02 -0.108430D-02  0.695645D-02 -0.246270D-02
     21  0.203116D-02  0.543192D-03 -0.420572D-03  0.278448D-02  0.526625D-02
               11            12            13            14            15 
     11  0.220284D+00
     12 -0.945706D-02  0.202055D+00
     13 -0.512705D-02  0.100698D-01  0.447104D-01
     14 -0.249014D-01 -0.373946D-02 -0.658429D-02  0.323101D-01
     15  0.436776D-02 -0.409995D-01 -0.673034D-02 -0.171644D-01  0.665716D-01
     16  0.194817D-02 -0.110875D-02 -0.159982D-01  0.469270D-02  0.734760D-02
     17 -0.482168D-01  0.197768D-02  0.156767D-01 -0.162228D-01  0.100763D-01
     18  0.245339D-02 -0.262799D-01 -0.144764D-01  0.216539D-01 -0.313065D-01
     19  0.476470D-03 -0.858641D-02  0.921520D-02 -0.330940D-02  0.319944D-02
     20 -0.299346D-01  0.110755D-01 -0.358592D-02  0.571721D-02  0.285206D-02
     21  0.182365D-02 -0.400039D-01  0.198788D-02  0.583427D-03 -0.288861D-02
               16            17            18            19            20 
     16  0.873940D-01
     17 -0.252608D-01  0.612210D-01
     18 -0.837818D-02 -0.173820D-01  0.783608D-01
     19 -0.263399D-01  0.498148D-02  0.268462D-01  0.470851D-01
     20  0.124312D-01 -0.860195D-02 -0.548057D-02 -0.723236D-02  0.283218D-01
     21  0.406645D-02  0.706925D-02 -0.289235D-01 -0.115039D-01 -0.991003D-02
               21 
     21  0.682543D-01
 Leave Link  716 at Mon Nov 13 20:09:04 2023, MaxMem=  1879048192 cpu:               0.4 elap:               0.0
 (Enter /home/sekinelabo/g16/l103.exe)

 GradGradGradGradGradGradGradGradGradGradGradGradGradGradGradGradGradGrad
 Berny optimization.
 Search for a local minimum.
 Step number   1 out of a maximum of    2
 All quantities printed in internal units (Hartrees-Bohrs-Radians)
 Second derivative matrix not updated -- first step.
 ITU=  0
     Eigenvalues ---    0.02153   0.02804   0.03255   0.03531   0.03722
     Eigenvalues ---    0.04030   0.04241   0.05614   0.07764   0.11437
     Eigenvalues ---    0.12305   0.13673   0.23402   0.26035   0.26769
 Quadratic step=3.383D-01 exceeds max=3.000D-01 adjusted using Lamda=-5.743D-03.
 Angle between NR and scaled steps=   3.12 degrees.
 Angle between quadratic step and forces=  28.74 degrees.
 Linear search not attempted -- first point.
 B after Tr=     0.000000    0.000000   -0.000000
         Rot=    1.000000   -0.000000    0.000000    0.000000 Ang=   0.00 deg.
 Variable       Old X    -DE/DX   Delta X   Delta X   Delta X     New X
                                 (Linear)    (Quad)   (Total)
    X1        8.14746  -0.00037   0.00000   0.05346   0.05346   8.20092
    Y1        9.82800   0.00868   0.00000   0.09893   0.09893   9.92693
    Z1        7.21118   0.00237   0.00000  -0.00916  -0.00916   7.20202
    X2       10.68505   0.00583   0.00000   0.09413   0.09413  10.77918
    Y2        5.41715  -0.00552   0.00000  -0.05676  -0.05676   5.36039
    Z2        4.75319  -0.00259   0.00000  -0.00299  -0.00299   4.75020
    X3        4.64812  -0.00037   0.00000  -0.00302  -0.00302   4.64510
    Y3        0.00000  -0.00277   0.00000  -0.07758  -0.07758  -0.07758
    Z3        4.25508   0.00207   0.00000   0.06579   0.06579   4.32086
    X4        5.01765   0.00221   0.00000   0.00877   0.00877   5.02642
    Y4        5.62404  -0.00430   0.00000  -0.01128  -0.01128   5.61276
    Z4        5.03245   0.00093   0.00000  -0.00048  -0.00048   5.03197
    X5        1.10365  -0.00106   0.00000  -0.06081  -0.06081   1.04284
    Y5        5.31913  -0.00674   0.00000  -0.11176  -0.11176   5.20737
    Z5        9.13802   0.00796   0.00000   0.06805   0.06805   9.20607
    X6        0.00000  -0.00912   0.00000  -0.09452  -0.09452  -0.09452
    Y6        8.18369   0.00705   0.00000   0.06109   0.06109   8.24478
    Z6        4.39280  -0.00227   0.00000  -0.01411  -0.01411   4.37869
    X7        3.53483   0.00289   0.00000   0.00198   0.00198   3.53681
    Y7        7.78542   0.00360   0.00000   0.09736   0.09736   7.88278
    Z7        0.00000  -0.00849   0.00000  -0.10710  -0.10710  -0.10710
         Item               Value     Threshold  Converged?
 Maximum Force            0.009121     0.000450     NO 
 RMS     Force            0.005023     0.000300     NO 
 Maximum Displacement     0.111764     0.001800     NO 
 RMS     Displacement     0.065472     0.001200     NO 
 Predicted change in Energy=-3.286152D-03
 GradGradGradGradGradGradGradGradGradGradGradGradGradGradGradGradGradGrad

 Leave Link  103 at Mon Nov 13 20:09:04 2023, MaxMem=  1879048192 cpu:               0.3 elap:               0.0
 (Enter /home/sekinelabo/g16/l9999.exe)
 1\1\GINC-SEKINELABO-XA7R-R37\Force\UB3LYP\6-311+G(d)\Na7(2)\SEKINELABO
 \13-Nov-2023\0\\#P B3LYP/6-311+g(d) force\\Gaussian input prepared by 
 ASE\\0,2\Na,4.3114518033,5.200753632,3.815990825\Na,5.6542833291,2.866
 6320747,2.5152777957\Na,2.4596807766,0.,2.251689567\Na,2.6552246231,2.
 976111891,2.6630596688\Na,0.584027409,2.8147629601,4.8356305991\Na,0.,
 4.3306226659,2.3245686989\Na,1.8705525673,4.1198647927,0.\\Version=ES6
 4L-G16RevB.01\State=2-A\HF=-1136.1039941\S2=0.768286\S2-1=0.\S2A=0.750
 239\RMSD=8.325e-09\RMSF=5.023e-03\Dipole=0.1567612,0.1169103,0.0559165
 \Quadrupole=2.0980066,-3.0409018,0.9428952,-0.4073433,-2.4083445,3.768
 3952\PG=C01 [X(Na7)]\\@


 THERE ONCE WAS A GIRL NAMED IRENE,
 WHO LIVED ON DISTILLED KEROSENE,
      BUT SHE STARTED ABSORBIN'
      A NEW HYDROCARBON,
 AND SINCE THEN HAS NEVER BENZENE.
 Job cpu time:       0 days  0 hours  4 minutes 40.5 seconds.
 Elapsed time:       0 days  0 hours  0 minutes 22.6 seconds.
 File lengths (MBytes):  RWF=     32 Int=      0 D2E=      0 Chk=      6 Scr=      1
 Normal termination of Gaussian 16 at Mon Nov 13 20:09:05 2023.
