 Entering Gaussian System, Link 0=g16
 Initial command:
 /home/sekinelabo/g16/l1.exe "/home/sekinelabo/g16temp/Gau-4194185.inp" -scrdir="/home/sekinelabo/g16temp/"
 Entering Link 1 = /home/sekinelabo/g16/l1.exe PID=   4194187.
  
 Copyright (c) 1988-2017, Gaussian, Inc.  All Rights Reserved.
  
 This is part of the Gaussian(R) 16 program.  It is based on
 the Gaussian(R) 09 system (copyright 2009, Gaussian, Inc.),
 the Gaussian(R) 03 system (copyright 2003, Gaussian, Inc.),
 the Gaussian(R) 98 system (copyright 1998, Gaussian, Inc.),
 the Gaussian(R) 94 system (copyright 1995, Gaussian, Inc.),
 the Gaussian 92(TM) system (copyright 1992, Gaussian, Inc.),
 the Gaussian 90(TM) system (copyright 1990, Gaussian, Inc.),
 the Gaussian 88(TM) system (copyright 1988, Gaussian, Inc.),
 the Gaussian 86(TM) system (copyright 1986, Carnegie Mellon
 University), and the Gaussian 82(TM) system (copyright 1983,
 Carnegie Mellon University). Gaussian is a federally registered
 trademark of Gaussian, Inc.
  
 This software contains proprietary and confidential information,
 including trade secrets, belonging to Gaussian, Inc.
  
 This software is provided under written license and may be
 used, copied, transmitted, or stored only in accord with that
 written license.
  
 The following legend is applicable only to US Government
 contracts under FAR:
  
                    RESTRICTED RIGHTS LEGEND
  
 Use, reproduction and disclosure by the US Government is
 subject to restrictions as set forth in subparagraphs (a)
 and (c) of the Commercial Computer Software - Restricted
 Rights clause in FAR 52.227-19.
  
 Gaussian, Inc.
 340 Quinnipiac St., Bldg. 40, Wallingford CT 06492
  
  
 ---------------------------------------------------------------
 Warning -- This program may not be used in any manner that
 competes with the business of Gaussian, Inc. or will provide
 assistance to any competitor of Gaussian, Inc.  The licensee
 of this program is prohibited from giving any competitor of
 Gaussian, Inc. access to this program.  By using this program,
 the user acknowledges that Gaussian, Inc. is engaged in the
 business of creating and licensing software in the field of
 computational chemistry and represents and warrants to the
 licensee that it is not a competitor of Gaussian, Inc. and that
 it will not use this program in any manner prohibited above.
 ---------------------------------------------------------------
  

 Cite this work as:
 Gaussian 16, Revision B.01,
 M. J. Frisch, G. W. Trucks, H. B. Schlegel, G. E. Scuseria, 
 M. A. Robb, J. R. Cheeseman, G. Scalmani, V. Barone, 
 G. A. Petersson, H. Nakatsuji, X. Li, M. Caricato, A. V. Marenich, 
 J. Bloino, B. G. Janesko, R. Gomperts, B. Mennucci, H. P. Hratchian, 
 J. V. Ortiz, A. F. Izmaylov, J. L. Sonnenberg, D. Williams-Young, 
 F. Ding, F. Lipparini, F. Egidi, J. Goings, B. Peng, A. Petrone, 
 T. Henderson, D. Ranasinghe, V. G. Zakrzewski, J. Gao, N. Rega, 
 G. Zheng, W. Liang, M. Hada, M. Ehara, K. Toyota, R. Fukuda, 
 J. Hasegawa, M. Ishida, T. Nakajima, Y. Honda, O. Kitao, H. Nakai, 
 T. Vreven, K. Throssell, J. A. Montgomery, Jr., J. E. Peralta, 
 F. Ogliaro, M. J. Bearpark, J. J. Heyd, E. N. Brothers, K. N. Kudin, 
 V. N. Staroverov, T. A. Keith, R. Kobayashi, J. Normand, 
 K. Raghavachari, A. P. Rendell, J. C. Burant, S. S. Iyengar, 
 J. Tomasi, M. Cossi, J. M. Millam, M. Klene, C. Adamo, R. Cammi, 
 J. W. Ochterski, R. L. Martin, K. Morokuma, O. Farkas, 
 J. B. Foresman, and D. J. Fox, Gaussian, Inc., Wallingford CT, 2016.
 
 ******************************************
 Gaussian 16:  ES64L-G16RevB.01 20-Dec-2017
                13-Nov-2023 
 ******************************************
 %mem=14GB
 %chk=checkpoint.chk
 %nprocshared=16
 Will use up to   16 processors via shared memory.
 -------------------------
 #P B3LYP/6-311+g(d) force
 -------------------------
 1/10=7,30=1,38=1/1,3;
 2/12=2,17=6,18=5,40=1/2;
 3/5=4,6=6,7=11,11=2,25=1,30=1,71=1,74=-5/1,2,3;
 4//1;
 5/5=2,38=5/2;
 6/7=2,8=2,9=2,10=2,28=1/1;
 7/29=1/1,2,3,16;
 1/10=7,30=1/3;
 99//99;
 Leave Link    1 at Mon Nov 13 20:41:56 2023, MaxMem=  1879048192 cpu:               0.3 elap:               0.0
 (Enter /home/sekinelabo/g16/l101.exe)
 ------------------------------
 Gaussian input prepared by ASE
 ------------------------------
 Symbolic Z-matrix:
 Charge =  0 Multiplicity = 2
 Na                    2.37797   0.        1.9401 
 Na                    2.37941   2.19633   3.38542 
 Na                    0.99589   3.60203   1.60569 
 Na                    3.76186   3.60233   1.60698 
 Na                    0.        1.14604   1.7812 
 Na                    4.75607   1.14449   1.77993 
 Na                    2.37852   1.66539   0. 
 
 ITRead=  0  0  0  0  0  0  0
 MicOpt= -1 -1 -1 -1 -1 -1 -1
 NAtoms=      7 NQM=        7 NQMF=       0 NMMI=      0 NMMIF=      0
                NMic=       0 NMicF=      0.
                    Isotopes and Nuclear Properties:
 (Nuclear quadrupole moments (NQMom) in fm**2, nuclear magnetic moments (NMagM)
  in nuclear magnetons)

  Atom         1           2           3           4           5           6           7
 IAtWgt=          23          23          23          23          23          23          23
 AtmWgt=  22.9897697  22.9897697  22.9897697  22.9897697  22.9897697  22.9897697  22.9897697
 NucSpn=           3           3           3           3           3           3           3
 AtZEff=  -0.0000000  -0.0000000  -0.0000000  -0.0000000  -0.0000000  -0.0000000  -0.0000000
 NQMom=   10.4000000  10.4000000  10.4000000  10.4000000  10.4000000  10.4000000  10.4000000
 NMagM=    2.2175200   2.2175200   2.2175200   2.2175200   2.2175200   2.2175200   2.2175200
 AtZNuc=  11.0000000  11.0000000  11.0000000  11.0000000  11.0000000  11.0000000  11.0000000
 Leave Link  101 at Mon Nov 13 20:41:56 2023, MaxMem=  1879048192 cpu:               2.6 elap:               0.2
 (Enter /home/sekinelabo/g16/l103.exe)

 GradGradGradGradGradGradGradGradGradGradGradGradGradGradGradGradGradGrad
 Berny optimization.
 Initialization pass.
 Trust Radius=3.00D-01 FncErr=1.00D-07 GrdErr=1.00D-07 EigMax=2.50D+02 EigMin=1.00D-04
 Number of steps in this run=      2 maximum allowed number of steps=      2.
 GradGradGradGradGradGradGradGradGradGradGradGradGradGradGradGradGradGrad

 Leave Link  103 at Mon Nov 13 20:41:56 2023, MaxMem=  1879048192 cpu:               0.2 elap:               0.0
 (Enter /home/sekinelabo/g16/l202.exe)
                          Input orientation:                          
 ---------------------------------------------------------------------
 Center     Atomic      Atomic             Coordinates (Angstroms)
 Number     Number       Type             X           Y           Z
 ---------------------------------------------------------------------
      1         11           0        2.377965    0.000000    1.940099
      2         11           0        2.379412    2.196330    3.385422
      3         11           0        0.995885    3.602032    1.605691
      4         11           0        3.761865    3.602333    1.606985
      5         11           0        0.000000    1.146035    1.781198
      6         11           0        4.756070    1.144490    1.779932
      7         11           0        2.378521    1.665394    0.000000
 ---------------------------------------------------------------------
                    Distance matrix (angstroms):
                    1          2          3          4          5
     1  Na   0.000000
     2  Na   2.629225   0.000000
     3  Na   3.872545   2.656612   0.000000
     4  Na   3.873364   2.655346   2.765980   0.000000
     5  Na   2.644497   3.055856   2.656032   4.496151   0.000000
     6  Na   2.644030   3.054909   4.495427   2.656944   4.756071
     7  Na   2.556858   3.426803   2.870625   2.871894   3.016581
                    6          7
     6  Na   0.000000
     7  Na   3.015334   0.000000
 Stoichiometry    Na7(2)
 Framework group  C1[X(Na7)]
 Deg. of freedom    15
 Full point group                 C1      NOp   1
 Largest Abelian subgroup         C1      NOp   1
 Largest concise Abelian subgroup C1      NOp   1
                         Standard orientation:                         
 ---------------------------------------------------------------------
 Center     Atomic      Atomic             Coordinates (Angstroms)
 Number     Number       Type             X           Y           Z
 ---------------------------------------------------------------------
      1         11           0        0.000566   -1.908088   -0.211624
      2         11           0       -0.000881    0.288242   -1.656947
      3         11           0        1.382646    1.693944    0.122785
      4         11           0       -1.383334    1.694246    0.121491
      5         11           0        2.378531   -0.762052   -0.052723
      6         11           0       -2.377539   -0.763598   -0.051457
      7         11           0        0.000010   -0.242694    1.728475
 ---------------------------------------------------------------------
 Rotational constants (GHZ):           1.3323178           1.0493687           0.8513221
 Leave Link  202 at Mon Nov 13 20:41:56 2023, MaxMem=  1879048192 cpu:               0.0 elap:               0.0
 (Enter /home/sekinelabo/g16/l301.exe)
 Standard basis: 6-311+G(d) (5D, 7F)
 Ernie: Thresh=  0.10000D-02 Tol=  0.10000D-05 Strict=F.
 There are   217 symmetry adapted cartesian basis functions of A   symmetry.
 There are   210 symmetry adapted basis functions of A   symmetry.
   210 basis functions,   350 primitive gaussians,   217 cartesian basis functions
    39 alpha electrons       38 beta electrons
       nuclear repulsion energy       440.0712444530 Hartrees.
 IExCor=  402 DFT=T Ex+Corr=B3LYP ExCW=0 ScaHFX=  0.200000
 ScaDFX=  0.800000  0.720000  1.000000  0.810000 ScalE2=  1.000000  1.000000
 IRadAn=      5 IRanWt=     -1 IRanGd=            0 ICorTp=0 IEmpDi=  4
 NAtoms=    7 NActive=    7 NUniq=    7 SFac= 1.00D+00 NAtFMM=   60 NAOKFM=F Big=F
 Integral buffers will be    131072 words long.
 Raffenetti 2 integral format.
 Two-electron integral symmetry is turned on.
 Leave Link  301 at Mon Nov 13 20:41:56 2023, MaxMem=  1879048192 cpu:               0.5 elap:               0.0
 (Enter /home/sekinelabo/g16/l302.exe)
 NPDir=0 NMtPBC=     1 NCelOv=     1 NCel=       1 NClECP=     1 NCelD=      1
         NCelK=      1 NCelE2=     1 NClLst=     1 CellRange=     0.0.
 One-electron integrals computed using PRISM.
 One-electron integral symmetry used in STVInt
 NBasis=   210 RedAO= T EigKep=  2.46D-06  NBF=   210
 NBsUse=   209 1.00D-06 EigRej=  4.07D-07 NBFU=   209
 Precomputing XC quadrature grid using
 IXCGrd= 4 IRadAn=           5 IRanWt=          -1 IRanGd=           0 AccXCQ= 0.00D+00.
 Generated NRdTot=       0 NPtTot=           0 NUsed=           0 NTot=          32
 NSgBfM=   211   211   211   211   211 MxSgAt=     7 MxSgA2=     7.
 Leave Link  302 at Mon Nov 13 20:41:56 2023, MaxMem=  1879048192 cpu:               2.2 elap:               0.1
 (Enter /home/sekinelabo/g16/l303.exe)
 DipDrv:  MaxL=1.
 Leave Link  303 at Mon Nov 13 20:41:56 2023, MaxMem=  1879048192 cpu:               0.8 elap:               0.1
 (Enter /home/sekinelabo/g16/l401.exe)
 ExpMin= 7.60D-03 ExpMax= 3.62D+04 ExpMxC= 1.21D+03 IAcc=3 IRadAn=         5 AccDes= 0.00D+00
 Harris functional with IExCor=  402 and IRadAn=       5 diagonalized for initial guess.
 HarFok:  IExCor=  402 AccDes= 0.00D+00 IRadAn=         5 IDoV= 1 UseB2=F ITyADJ=14
 ICtDFT=  3500011 ScaDFX=  1.000000  1.000000  1.000000  1.000000
 FoFCou: FMM=F IPFlag=           0 FMFlag=      100000 FMFlg1=           0
         NFxFlg=           0 DoJE=T BraDBF=F KetDBF=T FulRan=T
         wScrn=  0.000000 ICntrl=       500 IOpCl=  0 I1Cent=   200000004 NGrid=           0
         NMat0=    1 NMatS0=      1 NMatT0=    0 NMatD0=    1 NMtDS0=    0 NMtDT0=    0
 Petite list used in FoFCou.
 Harris En= -1135.80973738960    
 JPrj=0 DoOrth=F DoCkMO=F.
 Initial guess <Sx>= 0.0000 <Sy>= 0.0000 <Sz>= 0.5000 <S**2>= 0.7500 S= 0.5000
 Leave Link  401 at Mon Nov 13 20:41:57 2023, MaxMem=  1879048192 cpu:               4.9 elap:               0.3
 (Enter /home/sekinelabo/g16/l502.exe)
 Keep R1 and R2 ints in memory in canonical form, NReq=507620388.
 FoFCou: FMM=F IPFlag=           0 FMFlag=           0 FMFlg1=           0
         NFxFlg=           0 DoJE=F BraDBF=F KetDBF=F FulRan=T
         wScrn=  0.000000 ICntrl=       600 IOpCl=  0 I1Cent=           0 NGrid=           0
         NMat0=    1 NMatS0=  22155 NMatT0=    0 NMatD0=    1 NMtDS0=    0 NMtDT0=    0
 Symmetry not used in FoFCou.
 Two-electron integral symmetry not used.
 UHF open shell SCF:
 Using DIIS extrapolation, IDIIS=  1040.
 NGot=  1879048192 LenX=  1388082348 LenY=  1388034818
 Requested convergence on RMS density matrix=1.00D-08 within 128 cycles.
 Requested convergence on MAX density matrix=1.00D-06.
 Requested convergence on             energy=1.00D-06.
 No special actions if energy rises.

 Cycle   1  Pass 1  IDiag  1:
 E= -1135.98692091710    
 DIIS: error= 1.73D-02 at cycle   1 NSaved=   1.
 NSaved= 1 IEnMin= 1 EnMin= -1135.98692091710     IErMin= 1 ErrMin= 1.73D-02
 ErrMax= 1.73D-02  0.00D+00 EMaxC= 1.00D-01 BMatC= 2.22D-01 BMatP= 2.22D-01
 IDIUse=3 WtCom= 8.27D-01 WtEn= 1.73D-01
 Coeff-Com:  0.100D+01
 Coeff-En:   0.100D+01
 Coeff:      0.100D+01
 Gap=     0.069 Goal=   None    Shift=    0.000
 Gap=     0.042 Goal=   None    Shift=    0.000
 GapD=    0.042 DampG=0.250 DampE=0.500 DampFc=0.2500 IDamp=-1.
 Damping current iteration by 2.50D-01
 RMSDP=1.15D-01 MaxDP=7.33D+00              OVMax= 2.63D-01

 Cycle   2  Pass 1  IDiag  1:
 E= -1136.00407627310     Delta-E=       -0.017155355994 Rises=F Damp=T
 DIIS: error= 9.19D-03 at cycle   2 NSaved=   2.
 NSaved= 2 IEnMin= 2 EnMin= -1136.00407627310     IErMin= 2 ErrMin= 9.19D-03
 ErrMax= 9.19D-03  0.00D+00 EMaxC= 1.00D-01 BMatC= 8.34D-02 BMatP= 2.22D-01
 IDIUse=3 WtCom= 9.08D-01 WtEn= 9.19D-02
 Coeff-Com: -0.127D+01 0.227D+01
 Coeff-En:   0.000D+00 0.100D+01
 Coeff:     -0.116D+01 0.216D+01
 Gap=     0.078 Goal=   None    Shift=    0.000
 Gap=     0.042 Goal=   None    Shift=    0.000
 RMSDP=4.82D-02 MaxDP=3.03D+00 DE=-1.72D-02 OVMax= 1.74D-01

 Cycle   3  Pass 1  IDiag  1:
 E= -1136.03301451240     Delta-E=       -0.028938239303 Rises=F Damp=F
 DIIS: error= 3.97D-03 at cycle   3 NSaved=   3.
 NSaved= 3 IEnMin= 3 EnMin= -1136.03301451240     IErMin= 3 ErrMin= 3.97D-03
 ErrMax= 3.97D-03  0.00D+00 EMaxC= 1.00D-01 BMatC= 4.26D-03 BMatP= 8.34D-02
 IDIUse=3 WtCom= 9.60D-01 WtEn= 3.97D-02
 Coeff-Com: -0.241D+00 0.452D+00 0.789D+00
 Coeff-En:   0.000D+00 0.000D+00 0.100D+01
 Coeff:     -0.231D+00 0.434D+00 0.797D+00
 Gap=     0.072 Goal=   None    Shift=    0.000
 Gap=     0.042 Goal=   None    Shift=    0.000
 RMSDP=1.97D-02 MaxDP=1.25D+00 DE=-2.89D-02 OVMax= 5.09D-02

 Cycle   4  Pass 1  IDiag  1:
 E= -1136.03360523763     Delta-E=       -0.000590725235 Rises=F Damp=F
 DIIS: error= 3.50D-03 at cycle   4 NSaved=   4.
 NSaved= 4 IEnMin= 4 EnMin= -1136.03360523763     IErMin= 4 ErrMin= 3.50D-03
 ErrMax= 3.50D-03  0.00D+00 EMaxC= 1.00D-01 BMatC= 2.80D-03 BMatP= 4.26D-03
 IDIUse=3 WtCom= 9.65D-01 WtEn= 3.50D-02
 Coeff-Com:  0.145D-01-0.185D-01 0.449D+00 0.555D+00
 Coeff-En:   0.000D+00 0.000D+00 0.420D+00 0.580D+00
 Coeff:      0.140D-01-0.179D-01 0.448D+00 0.556D+00
 Gap=     0.073 Goal=   None    Shift=    0.000
 Gap=     0.043 Goal=   None    Shift=    0.000
 RMSDP=6.86D-03 MaxDP=4.85D-01 DE=-5.91D-04 OVMax= 2.48D-02

 Cycle   5  Pass 1  IDiag  1:
 E= -1136.03498455761     Delta-E=       -0.001379319979 Rises=F Damp=F
 DIIS: error= 7.37D-05 at cycle   5 NSaved=   5.
 NSaved= 5 IEnMin= 5 EnMin= -1136.03498455761     IErMin= 5 ErrMin= 7.37D-05
 ErrMax= 7.37D-05  0.00D+00 EMaxC= 1.00D-01 BMatC= 2.38D-06 BMatP= 2.80D-03
 IDIUse=1 WtCom= 1.00D+00 WtEn= 0.00D+00
 Coeff-Com: -0.101D-02 0.111D-02 0.384D-01 0.413D-01 0.920D+00
 Coeff:     -0.101D-02 0.111D-02 0.384D-01 0.413D-01 0.920D+00
 Gap=     0.073 Goal=   None    Shift=    0.000
 Gap=     0.043 Goal=   None    Shift=    0.000
 RMSDP=5.58D-04 MaxDP=4.75D-02 DE=-1.38D-03 OVMax= 3.67D-03

 Cycle   6  Pass 1  IDiag  1:
 E= -1136.03498439302     Delta-E=        0.000000164595 Rises=F Damp=F
 DIIS: error= 1.21D-04 at cycle   6 NSaved=   6.
 NSaved= 6 IEnMin= 5 EnMin= -1136.03498455761     IErMin= 5 ErrMin= 7.37D-05
 ErrMax= 1.21D-04  0.00D+00 EMaxC= 1.00D-01 BMatC= 4.01D-06 BMatP= 2.38D-06
 IDIUse=1 WtCom= 1.00D+00 WtEn= 0.00D+00
 Coeff-Com: -0.266D-02 0.326D-02-0.313D-01-0.436D-01 0.630D+00 0.445D+00
 Coeff:     -0.266D-02 0.326D-02-0.313D-01-0.436D-01 0.630D+00 0.445D+00
 Gap=     0.073 Goal=   None    Shift=    0.000
 Gap=     0.043 Goal=   None    Shift=    0.000
 RMSDP=1.48D-04 MaxDP=1.20D-02 DE= 1.65D-07 OVMax= 2.20D-03

 Cycle   7  Pass 1  IDiag  1:
 E= -1136.03498837180     Delta-E=       -0.000003978781 Rises=F Damp=F
 DIIS: error= 2.34D-05 at cycle   7 NSaved=   7.
 NSaved= 7 IEnMin= 7 EnMin= -1136.03498837180     IErMin= 7 ErrMin= 2.34D-05
 ErrMax= 2.34D-05  0.00D+00 EMaxC= 1.00D-01 BMatC= 1.05D-07 BMatP= 2.38D-06
 IDIUse=1 WtCom= 1.00D+00 WtEn= 0.00D+00
 Coeff-Com:  0.480D-03-0.638D-03-0.534D-02-0.441D-02-0.175D+00-0.888D-02
 Coeff-Com:  0.119D+01
 Coeff:      0.480D-03-0.638D-03-0.534D-02-0.441D-02-0.175D+00-0.888D-02
 Coeff:      0.119D+01
 Gap=     0.073 Goal=   None    Shift=    0.000
 Gap=     0.043 Goal=   None    Shift=    0.000
 RMSDP=1.12D-04 MaxDP=7.19D-03 DE=-3.98D-06 OVMax= 2.59D-03

 Cycle   8  Pass 1  IDiag  1:
 E= -1136.03498892405     Delta-E=       -0.000000552250 Rises=F Damp=F
 DIIS: error= 1.64D-05 at cycle   8 NSaved=   8.
 NSaved= 8 IEnMin= 8 EnMin= -1136.03498892405     IErMin= 8 ErrMin= 1.64D-05
 ErrMax= 1.64D-05  0.00D+00 EMaxC= 1.00D-01 BMatC= 6.17D-08 BMatP= 1.05D-07
 IDIUse=1 WtCom= 1.00D+00 WtEn= 0.00D+00
 Coeff-Com:  0.553D-03-0.708D-03-0.353D-03 0.154D-02-0.161D+00-0.512D-01
 Coeff-Com:  0.667D+00 0.544D+00
 Coeff:      0.553D-03-0.708D-03-0.353D-03 0.154D-02-0.161D+00-0.512D-01
 Coeff:      0.667D+00 0.544D+00
 Gap=     0.073 Goal=   None    Shift=    0.000
 Gap=     0.043 Goal=   None    Shift=    0.000
 RMSDP=2.52D-05 MaxDP=1.92D-03 DE=-5.52D-07 OVMax= 9.70D-04

 Cycle   9  Pass 1  IDiag  1:
 E= -1136.03498907621     Delta-E=       -0.000000152156 Rises=F Damp=F
 DIIS: error= 1.21D-05 at cycle   9 NSaved=   9.
 NSaved= 9 IEnMin= 9 EnMin= -1136.03498907621     IErMin= 9 ErrMin= 1.21D-05
 ErrMax= 1.21D-05  0.00D+00 EMaxC= 1.00D-01 BMatC= 2.02D-08 BMatP= 6.17D-08
 IDIUse=1 WtCom= 1.00D+00 WtEn= 0.00D+00
 Coeff-Com:  0.159D-03-0.190D-03 0.231D-02 0.319D-02-0.289D-01-0.292D-01
 Coeff-Com: -0.919D-01 0.216D+00 0.929D+00
 Coeff:      0.159D-03-0.190D-03 0.231D-02 0.319D-02-0.289D-01-0.292D-01
 Coeff:     -0.919D-01 0.216D+00 0.929D+00
 Gap=     0.073 Goal=   None    Shift=    0.000
 Gap=     0.043 Goal=   None    Shift=    0.000
 RMSDP=2.26D-05 MaxDP=1.55D-03 DE=-1.52D-07 OVMax= 1.33D-03

 Cycle  10  Pass 1  IDiag  1:
 E= -1136.03498921170     Delta-E=       -0.000000135499 Rises=F Damp=F
 DIIS: error= 7.74D-06 at cycle  10 NSaved=  10.
 NSaved=10 IEnMin=10 EnMin= -1136.03498921170     IErMin=10 ErrMin= 7.74D-06
 ErrMax= 7.74D-06  0.00D+00 EMaxC= 1.00D-01 BMatC= 1.11D-08 BMatP= 2.02D-08
 IDIUse=1 WtCom= 1.00D+00 WtEn= 0.00D+00
 Coeff-Com: -0.211D-03 0.285D-03 0.292D-02 0.244D-02 0.737D-01 0.743D-02
 Coeff-Com: -0.494D+00-0.260D+00 0.645D+00 0.102D+01
 Coeff:     -0.211D-03 0.285D-03 0.292D-02 0.244D-02 0.737D-01 0.743D-02
 Coeff:     -0.494D+00-0.260D+00 0.645D+00 0.102D+01
 Gap=     0.073 Goal=   None    Shift=    0.000
 Gap=     0.043 Goal=   None    Shift=    0.000
 RMSDP=2.73D-05 MaxDP=1.36D-03 DE=-1.35D-07 OVMax= 1.67D-03

 Cycle  11  Pass 1  IDiag  1:
 E= -1136.03498930542     Delta-E=       -0.000000093720 Rises=F Damp=F
 DIIS: error= 2.77D-06 at cycle  11 NSaved=  11.
 NSaved=11 IEnMin=11 EnMin= -1136.03498930542     IErMin=11 ErrMin= 2.77D-06
 ErrMax= 2.77D-06  0.00D+00 EMaxC= 1.00D-01 BMatC= 9.97D-10 BMatP= 1.11D-08
 IDIUse=1 WtCom= 1.00D+00 WtEn= 0.00D+00
 Coeff-Com: -0.799D-04 0.975D-04-0.181D-03-0.563D-03 0.159D-01 0.796D-02
 Coeff-Com: -0.241D-01-0.348D-01-0.215D+00-0.198D-02 0.125D+01
 Coeff:     -0.799D-04 0.975D-04-0.181D-03-0.563D-03 0.159D-01 0.796D-02
 Coeff:     -0.241D-01-0.348D-01-0.215D+00-0.198D-02 0.125D+01
 Gap=     0.073 Goal=   None    Shift=    0.000
 Gap=     0.043 Goal=   None    Shift=    0.000
 RMSDP=1.07D-05 MaxDP=5.47D-04 DE=-9.37D-08 OVMax= 7.80D-04

 Cycle  12  Pass 1  IDiag  1:
 E= -1136.03498931852     Delta-E=       -0.000000013093 Rises=F Damp=F
 DIIS: error= 6.63D-07 at cycle  12 NSaved=  12.
 NSaved=12 IEnMin=12 EnMin= -1136.03498931852     IErMin=12 ErrMin= 6.63D-07
 ErrMax= 6.63D-07  0.00D+00 EMaxC= 1.00D-01 BMatC= 1.54D-10 BMatP= 9.97D-10
 IDIUse=1 WtCom= 1.00D+00 WtEn= 0.00D+00
 Coeff-Com: -0.109D-04 0.108D-04-0.154D-03-0.267D-03 0.243D-02 0.247D-02
 Coeff-Com:  0.133D-01-0.909D-02-0.117D+00-0.392D-01 0.453D+00 0.694D+00
 Coeff:     -0.109D-04 0.108D-04-0.154D-03-0.267D-03 0.243D-02 0.247D-02
 Coeff:      0.133D-01-0.909D-02-0.117D+00-0.392D-01 0.453D+00 0.694D+00
 Gap=     0.073 Goal=   None    Shift=    0.000
 Gap=     0.043 Goal=   None    Shift=    0.000
 RMSDP=2.32D-06 MaxDP=1.55D-04 DE=-1.31D-08 OVMax= 1.04D-04

 Cycle  13  Pass 1  IDiag  1:
 E= -1136.03498931889     Delta-E=       -0.000000000373 Rises=F Damp=F
 DIIS: error= 6.15D-07 at cycle  13 NSaved=  13.
 NSaved=13 IEnMin=13 EnMin= -1136.03498931889     IErMin=13 ErrMin= 6.15D-07
 ErrMax= 6.15D-07  0.00D+00 EMaxC= 1.00D-01 BMatC= 1.17D-10 BMatP= 1.54D-10
 IDIUse=1 WtCom= 1.00D+00 WtEn= 0.00D+00
 Coeff-Com:  0.267D-04-0.350D-04-0.515D-04 0.178D-04-0.469D-02-0.123D-02
 Coeff-Com:  0.220D-01 0.404D-02-0.102D-01-0.269D-01-0.144D+00 0.553D+00
 Coeff-Com:  0.608D+00
 Coeff:      0.267D-04-0.350D-04-0.515D-04 0.178D-04-0.469D-02-0.123D-02
 Coeff:      0.220D-01 0.404D-02-0.102D-01-0.269D-01-0.144D+00 0.553D+00
 Coeff:      0.608D+00
 Gap=     0.073 Goal=   None    Shift=    0.000
 Gap=     0.043 Goal=   None    Shift=    0.000
 RMSDP=1.66D-06 MaxDP=1.34D-04 DE=-3.73D-10 OVMax= 5.48D-05

 Cycle  14  Pass 1  IDiag  1:
 E= -1136.03498931908     Delta-E=       -0.000000000192 Rises=F Damp=F
 DIIS: error= 1.50D-07 at cycle  14 NSaved=  14.
 NSaved=14 IEnMin=14 EnMin= -1136.03498931908     IErMin=14 ErrMin= 1.50D-07
 ErrMax= 1.50D-07  0.00D+00 EMaxC= 1.00D-01 BMatC= 5.18D-12 BMatP= 1.17D-10
 IDIUse=1 WtCom= 1.00D+00 WtEn= 0.00D+00
 Coeff-Com:  0.751D-06-0.177D-06 0.100D-04 0.366D-04-0.515D-03-0.424D-03
 Coeff-Com: -0.150D-02 0.227D-02 0.272D-01 0.124D-01-0.916D-01-0.135D+00
 Coeff-Com:  0.119D-01 0.118D+01
 Coeff:      0.751D-06-0.177D-06 0.100D-04 0.366D-04-0.515D-03-0.424D-03
 Coeff:     -0.150D-02 0.227D-02 0.272D-01 0.124D-01-0.916D-01-0.135D+00
 Coeff:      0.119D-01 0.118D+01
 Gap=     0.073 Goal=   None    Shift=    0.000
 Gap=     0.043 Goal=   None    Shift=    0.000
 RMSDP=9.18D-07 MaxDP=7.57D-05 DE=-1.92D-10 OVMax= 2.16D-05

 Cycle  15  Pass 1  IDiag  1:
 E= -1136.03498931909     Delta-E=       -0.000000000010 Rises=F Damp=F
 DIIS: error= 4.99D-08 at cycle  15 NSaved=  15.
 NSaved=15 IEnMin=15 EnMin= -1136.03498931909     IErMin=15 ErrMin= 4.99D-08
 ErrMax= 4.99D-08  0.00D+00 EMaxC= 1.00D-01 BMatC= 7.36D-13 BMatP= 5.18D-12
 IDIUse=1 WtCom= 1.00D+00 WtEn= 0.00D+00
 Coeff-Com: -0.364D-05 0.481D-05 0.664D-05-0.328D-05 0.513D-03 0.710D-04
 Coeff-Com: -0.253D-02 0.583D-03-0.501D-03-0.118D-02 0.205D-01-0.758D-01
 Coeff-Com: -0.816D-01 0.325D-01 0.111D+01
 Coeff:     -0.364D-05 0.481D-05 0.664D-05-0.328D-05 0.513D-03 0.710D-04
 Coeff:     -0.253D-02 0.583D-03-0.501D-03-0.118D-02 0.205D-01-0.758D-01
 Coeff:     -0.816D-01 0.325D-01 0.111D+01
 Gap=     0.073 Goal=   None    Shift=    0.000
 Gap=     0.043 Goal=   None    Shift=    0.000
 RMSDP=3.48D-07 MaxDP=2.18D-05 DE=-1.02D-11 OVMax= 9.78D-06

 Cycle  16  Pass 1  IDiag  1:
 E= -1136.03498931908     Delta-E=        0.000000000013 Rises=F Damp=F
 DIIS: error= 2.15D-08 at cycle  16 NSaved=  16.
 NSaved=16 IEnMin=15 EnMin= -1136.03498931909     IErMin=16 ErrMin= 2.15D-08
 ErrMax= 2.15D-08  0.00D+00 EMaxC= 1.00D-01 BMatC= 8.84D-14 BMatP= 7.36D-13
 IDIUse=1 WtCom= 1.00D+00 WtEn= 0.00D+00
 Coeff-Com:  0.263D-06-0.473D-06 0.160D-05-0.276D-05 0.827D-04 0.934D-04
 Coeff-Com:  0.913D-04-0.692D-03-0.334D-02-0.606D-03 0.115D-01 0.205D-01
 Coeff-Com:  0.112D-02-0.164D+00-0.538D-01 0.119D+01
 Coeff:      0.263D-06-0.473D-06 0.160D-05-0.276D-05 0.827D-04 0.934D-04
 Coeff:      0.913D-04-0.692D-03-0.334D-02-0.606D-03 0.115D-01 0.205D-01
 Coeff:      0.112D-02-0.164D+00-0.538D-01 0.119D+01
 Gap=     0.073 Goal=   None    Shift=    0.000
 Gap=     0.043 Goal=   None    Shift=    0.000
 RMSDP=1.40D-07 MaxDP=9.80D-06 DE= 1.34D-11 OVMax= 1.64D-06

 Cycle  17  Pass 1  IDiag  1:
 E= -1136.03498931910     Delta-E=       -0.000000000019 Rises=F Damp=F
 DIIS: error= 7.96D-09 at cycle  17 NSaved=  17.
 NSaved=17 IEnMin=17 EnMin= -1136.03498931910     IErMin=17 ErrMin= 7.96D-09
 ErrMax= 7.96D-09  0.00D+00 EMaxC= 1.00D-01 BMatC= 2.08D-14 BMatP= 8.84D-14
 IDIUse=1 WtCom= 1.00D+00 WtEn= 0.00D+00
 Coeff-Com:  0.660D-06-0.902D-06-0.136D-05-0.846D-06-0.609D-04 0.451D-05
 Coeff-Com:  0.497D-03-0.318D-03-0.784D-03 0.329D-03-0.219D-03 0.182D-01
 Coeff-Com:  0.141D-01-0.482D-01-0.214D+00 0.350D+00 0.881D+00
 Coeff:      0.660D-06-0.902D-06-0.136D-05-0.846D-06-0.609D-04 0.451D-05
 Coeff:      0.497D-03-0.318D-03-0.784D-03 0.329D-03-0.219D-03 0.182D-01
 Coeff:      0.141D-01-0.482D-01-0.214D+00 0.350D+00 0.881D+00
 Gap=     0.073 Goal=   None    Shift=    0.000
 Gap=     0.043 Goal=   None    Shift=    0.000
 RMSDP=4.41D-08 MaxDP=3.00D-06 DE=-1.91D-11 OVMax= 9.05D-07

 Cycle  18  Pass 1  IDiag  1:
 E= -1136.03498931909     Delta-E=        0.000000000010 Rises=F Damp=F
 DIIS: error= 3.05D-09 at cycle  18 NSaved=  18.
 NSaved=18 IEnMin=17 EnMin= -1136.03498931910     IErMin=18 ErrMin= 3.05D-09
 ErrMax= 3.05D-09  0.00D+00 EMaxC= 1.00D-01 BMatC= 2.43D-15 BMatP= 2.08D-14
 IDIUse=1 WtCom= 1.00D+00 WtEn= 0.00D+00
 Large coefficients: NSaved= 18 BigCof=    0.00 CofMax=   10.00 Det=-8.35D-15
 Inversion failed.  Reducing to 17 matrices.
 Coeff-Com:  0.142D-07-0.696D-06 0.606D-06-0.268D-04-0.178D-04 0.307D-04
 Coeff-Com:  0.153D-03 0.488D-03-0.862D-04-0.219D-02-0.229D-02 0.823D-03
 Coeff-Com:  0.253D-01 0.185D-02-0.204D+00 0.493D-01 0.113D+01
 Coeff:      0.142D-07-0.696D-06 0.606D-06-0.268D-04-0.178D-04 0.307D-04
 Coeff:      0.153D-03 0.488D-03-0.862D-04-0.219D-02-0.229D-02 0.823D-03
 Coeff:      0.253D-01 0.185D-02-0.204D+00 0.493D-01 0.113D+01
 Gap=     0.073 Goal=   None    Shift=    0.000
 Gap=     0.043 Goal=   None    Shift=    0.000
 RMSDP=2.89D-08 MaxDP=2.64D-06 DE= 9.55D-12 OVMax= 3.87D-07

 Cycle  19  Pass 1  IDiag  1:
 E= -1136.03498931909     Delta-E=        0.000000000002 Rises=F Damp=F
 DIIS: error= 8.01D-10 at cycle  19 NSaved=  18.
 NSaved=18 IEnMin=16 EnMin= -1136.03498931910     IErMin=18 ErrMin= 8.01D-10
 ErrMax= 8.01D-10  0.00D+00 EMaxC= 1.00D-01 BMatC= 1.26D-16 BMatP= 2.43D-15
 IDIUse=1 WtCom= 1.00D+00 WtEn= 0.00D+00
 Large coefficients: NSaved= 18 BigCof=    0.00 CofMax=   10.00 Det=-2.67D-16
 Inversion failed.  Reducing to 17 matrices.
 Large coefficients: NSaved= 17 BigCof=    0.00 CofMax=   10.00 Det=-2.73D-16
 Inversion failed.  Reducing to 16 matrices.
 Large coefficients: NSaved= 16 BigCof=    0.00 CofMax=   10.00 Det=-2.96D-16
 Inversion failed.  Reducing to 15 matrices.
 Coeff-Com: -0.194D-05-0.101D-05-0.531D-05 0.189D-04 0.683D-04-0.412D-05
 Coeff-Com: -0.179D-03-0.665D-03-0.378D-03 0.263D-02 0.911D-02-0.177D-01
 Coeff-Com: -0.433D-01-0.167D-01 0.107D+01
 Coeff:     -0.194D-05-0.101D-05-0.531D-05 0.189D-04 0.683D-04-0.412D-05
 Coeff:     -0.179D-03-0.665D-03-0.378D-03 0.263D-02 0.911D-02-0.177D-01
 Coeff:     -0.433D-01-0.167D-01 0.107D+01
 Gap=     0.073 Goal=   None    Shift=    0.000
 Gap=     0.043 Goal=   None    Shift=    0.000
 RMSDP=1.15D-08 MaxDP=8.86D-07 DE= 2.05D-12 OVMax= 8.55D-08

 Cycle  20  Pass 1  IDiag  1:
 E= -1136.03498931910     Delta-E=       -0.000000000014 Rises=F Damp=F
 DIIS: error= 3.88D-10 at cycle  20 NSaved=  16.
 NSaved=16 IEnMin=16 EnMin= -1136.03498931910     IErMin=16 ErrMin= 3.88D-10
 ErrMax= 3.88D-10  0.00D+00 EMaxC= 1.00D-01 BMatC= 2.84D-17 BMatP= 1.26D-16
 IDIUse=1 WtCom= 1.00D+00 WtEn= 0.00D+00
 Large coefficients: NSaved= 16 BigCof=    0.00 CofMax=   10.00 Det=-5.18D-17
 Inversion failed.  Reducing to 15 matrices.
 Coeff-Com: -0.149D-06 0.326D-05 0.957D-06-0.765D-05-0.434D-05 0.162D-05
 Coeff-Com:  0.192D-04-0.429D-05-0.231D-03 0.388D-03 0.539D-02-0.923D-02
 Coeff-Com: -0.409D-01-0.265D-01 0.107D+01
 Coeff:     -0.149D-06 0.326D-05 0.957D-06-0.765D-05-0.434D-05 0.162D-05
 Coeff:      0.192D-04-0.429D-05-0.231D-03 0.388D-03 0.539D-02-0.923D-02
 Coeff:     -0.409D-01-0.265D-01 0.107D+01
 Gap=     0.073 Goal=   None    Shift=    0.000
 Gap=     0.043 Goal=   None    Shift=    0.000
 RMSDP=1.07D-08 MaxDP=7.11D-07 DE=-1.41D-11 OVMax= 2.16D-08

 Cycle  21  Pass 1  IDiag  1:
 E= -1136.03498931909     Delta-E=        0.000000000015 Rises=F Damp=F
 DIIS: error= 2.73D-10 at cycle  21 NSaved=  16.
 NSaved=16 IEnMin=15 EnMin= -1136.03498931910     IErMin=16 ErrMin= 2.73D-10
 ErrMax= 2.73D-10  0.00D+00 EMaxC= 1.00D-01 BMatC= 1.21D-17 BMatP= 2.84D-17
 IDIUse=1 WtCom= 1.00D+00 WtEn= 0.00D+00
 Large coefficients: NSaved= 16 BigCof=    0.00 CofMax=   10.00 Det=-2.27D-17
 Inversion failed.  Reducing to 15 matrices.
 Coeff-Com: -0.853D-06-0.450D-05-0.116D-04 0.290D-05 0.477D-04 0.118D-03
 Coeff-Com:  0.317D-04-0.799D-03-0.145D-02 0.760D-02 0.747D-02-0.248D-01
 Coeff-Com: -0.301D+00 0.351D+00 0.962D+00
 Coeff:     -0.853D-06-0.450D-05-0.116D-04 0.290D-05 0.477D-04 0.118D-03
 Coeff:      0.317D-04-0.799D-03-0.145D-02 0.760D-02 0.747D-02-0.248D-01
 Coeff:     -0.301D+00 0.351D+00 0.962D+00
 Gap=     0.073 Goal=   None    Shift=    0.000
 Gap=     0.043 Goal=   None    Shift=    0.000
 RMSDP=8.58D-09 MaxDP=6.68D-07 DE= 1.48D-11 OVMax= 1.70D-08

 SCF Done:  E(UB3LYP) =  -1136.03498932     A.U. after   21 cycles
            NFock= 21  Conv=0.86D-08     -V/T= 2.0020
 <Sx>= 0.0000 <Sy>= 0.0000 <Sz>= 0.5000 <S**2>= 0.7572 S= 0.5036
 <L.S>= 0.000000000000E+00
 KE= 1.133791988618D+03 PE=-3.609326413123D+03 EE= 8.994281907331D+02
 Annihilation of the first spin contaminant:
 S**2 before annihilation     0.7572,   after     0.7500
 Leave Link  502 at Mon Nov 13 20:42:14 2023, MaxMem=  1879048192 cpu:             205.6 elap:              17.7
 (Enter /home/sekinelabo/g16/l601.exe)
 Copying SCF densities to generalized density rwf, IOpCl= 1 IROHF=0.

 **********************************************************************

            Population analysis using the SCF Density.

 **********************************************************************

 Orbital symmetries:
 Alpha Orbitals:
       Occupied  (A) (A) (A) (A) (A) (A) (A) (A) (A) (A) (A) (A)
                 (A) (A) (A) (A) (A) (A) (A) (A) (A) (A) (A) (A)
                 (A) (A) (A) (A) (A) (A) (A) (A) (A) (A) (A) (A)
                 (A) (A) (A)
       Virtual   (A) (A) (A) (A) (A) (A) (A) (A) (A) (A) (A) (A)
                 (A) (A) (A) (A) (A) (A) (A) (A) (A) (A) (A) (A)
                 (A) (A) (A) (A) (A) (A) (A) (A) (A) (A) (A) (A)
                 (A) (A) (A) (A) (A) (A) (A) (A) (A) (A) (A) (A)
                 (A) (A) (A) (A) (A) (A) (A) (A) (A) (A) (A) (A)
                 (A) (A) (A) (A) (A) (A) (A) (A) (A) (A) (A) (A)
                 (A) (A) (A) (A) (A) (A) (A) (A) (A) (A) (A) (A)
                 (A) (A) (A) (A) (A) (A) (A) (A) (A) (A) (A) (A)
                 (A) (A) (A) (A) (A) (A) (A) (A) (A) (A) (A) (A)
                 (A) (A) (A) (A) (A) (A) (A) (A) (A) (A) (A) (A)
                 (A) (A) (A) (A) (A) (A) (A) (A) (A) (A) (A) (A)
                 (A) (A) (A) (A) (A) (A) (A) (A) (A) (A) (A) (A)
                 (A) (A) (A) (A) (A) (A) (A) (A) (A) (A) (A) (A)
                 (A) (A) (A) (A) (A) (A) (A) (A) (A) (A) (A) (A)
                 (A) (A)
 Beta  Orbitals:
       Occupied  (A) (A) (A) (A) (A) (A) (A) (A) (A) (A) (A) (A)
                 (A) (A) (A) (A) (A) (A) (A) (A) (A) (A) (A) (A)
                 (A) (A) (A) (A) (A) (A) (A) (A) (A) (A) (A) (A)
                 (A) (A)
       Virtual   (A) (A) (A) (A) (A) (A) (A) (A) (A) (A) (A) (A)
                 (A) (A) (A) (A) (A) (A) (A) (A) (A) (A) (A) (A)
                 (A) (A) (A) (A) (A) (A) (A) (A) (A) (A) (A) (A)
                 (A) (A) (A) (A) (A) (A) (A) (A) (A) (A) (A) (A)
                 (A) (A) (A) (A) (A) (A) (A) (A) (A) (A) (A) (A)
                 (A) (A) (A) (A) (A) (A) (A) (A) (A) (A) (A) (A)
                 (A) (A) (A) (A) (A) (A) (A) (A) (A) (A) (A) (A)
                 (A) (A) (A) (A) (A) (A) (A) (A) (A) (A) (A) (A)
                 (A) (A) (A) (A) (A) (A) (A) (A) (A) (A) (A) (A)
                 (A) (A) (A) (A) (A) (A) (A) (A) (A) (A) (A) (A)
                 (A) (A) (A) (A) (A) (A) (A) (A) (A) (A) (A) (A)
                 (A) (A) (A) (A) (A) (A) (A) (A) (A) (A) (A) (A)
                 (A) (A) (A) (A) (A) (A) (A) (A) (A) (A) (A) (A)
                 (A) (A) (A) (A) (A) (A) (A) (A) (A) (A) (A) (A)
                 (A) (A) (A)
 The electronic state is 2-A.
 Alpha  occ. eigenvalues --  -38.44858 -38.44662 -38.44366 -38.44335 -38.44334
 Alpha  occ. eigenvalues --  -38.44018 -38.44018  -2.21282  -2.21034  -2.20730
 Alpha  occ. eigenvalues --   -2.20530  -2.20507  -2.20296  -2.20244  -1.15319
 Alpha  occ. eigenvalues --   -1.15178  -1.15084  -1.15014  -1.14809  -1.14741
 Alpha  occ. eigenvalues --   -1.14635  -1.14486  -1.14363  -1.14335  -1.14156
 Alpha  occ. eigenvalues --   -1.14080  -1.14068  -1.14062  -1.14020  -1.13847
 Alpha  occ. eigenvalues --   -1.13837  -1.13828  -1.13788  -1.13727  -1.13594
 Alpha  occ. eigenvalues --   -0.22598  -0.14319  -0.13065  -0.12674
 Alpha virt. eigenvalues --   -0.05338  -0.04182  -0.04008  -0.03902  -0.03204
 Alpha virt. eigenvalues --   -0.02730  -0.01069  -0.00366  -0.00086   0.00306
 Alpha virt. eigenvalues --    0.00861   0.00962   0.01083   0.01215   0.01305
 Alpha virt. eigenvalues --    0.01336   0.01450   0.01487   0.01553   0.01587
 Alpha virt. eigenvalues --    0.01745   0.01810   0.01858   0.01956   0.01987
 Alpha virt. eigenvalues --    0.02742   0.02751   0.03006   0.03046   0.03084
 Alpha virt. eigenvalues --    0.03128   0.03258   0.03352   0.03362   0.03444
 Alpha virt. eigenvalues --    0.03686   0.03819   0.03901   0.04016   0.04020
 Alpha virt. eigenvalues --    0.04805   0.05093   0.05251   0.05360   0.05372
 Alpha virt. eigenvalues --    0.05407   0.05700   0.05983   0.06062   0.06423
 Alpha virt. eigenvalues --    0.06488   0.07393   0.07421   0.07955   0.08255
 Alpha virt. eigenvalues --    0.08791   0.09314   0.09365   0.09754   0.09973
 Alpha virt. eigenvalues --    0.10320   0.11537   0.11869   0.12724   0.13064
 Alpha virt. eigenvalues --    0.13517   0.14010   0.14073   0.14322   0.14363
 Alpha virt. eigenvalues --    0.14478   0.15282   0.15646   0.16420   0.17534
 Alpha virt. eigenvalues --    0.18365   0.18574   0.19228   0.20074   0.23863
 Alpha virt. eigenvalues --    0.25054   0.25465   0.26632   0.27534   0.27821
 Alpha virt. eigenvalues --    0.29354   0.32561   0.34486   0.36560   0.36585
 Alpha virt. eigenvalues --    0.37962   0.38569   0.39077   0.39175   0.39905
 Alpha virt. eigenvalues --    0.41381   0.43694   0.44138   0.44961   0.45752
 Alpha virt. eigenvalues --    0.45759   0.46550   0.47183   0.47576   0.48290
 Alpha virt. eigenvalues --    0.48811   0.49096   0.49246   0.49437   0.49833
 Alpha virt. eigenvalues --    0.49840   0.51963   0.52087   0.54539   0.54607
 Alpha virt. eigenvalues --    0.55399   0.56332   0.57586   0.58308   0.60196
 Alpha virt. eigenvalues --    0.60689   0.64700   0.66473   0.69513   0.73548
 Alpha virt. eigenvalues --    0.75064   0.78346   0.78450   0.83178   0.83702
 Alpha virt. eigenvalues --    0.88921   0.89393   0.90017   0.92903   0.93142
 Alpha virt. eigenvalues --    2.18023   2.22807   2.27166   2.30387   2.31134
 Alpha virt. eigenvalues --    2.32495   2.35511   4.40842   4.42041   4.42948
 Alpha virt. eigenvalues --    4.44009   4.45336   4.47028   4.47257   4.48860
 Alpha virt. eigenvalues --    4.54676   4.56285   4.68416   4.70750   4.72062
 Alpha virt. eigenvalues --    4.74791   4.77441   4.83881   4.87746   4.90131
 Alpha virt. eigenvalues --    4.93345   4.94775   5.02373  96.43924  96.51346
 Alpha virt. eigenvalues --   96.55216  96.60236  96.61810  96.64407  96.67092
  Beta  occ. eigenvalues --  -38.44761 -38.44563 -38.44341 -38.44322 -38.44321
  Beta  occ. eigenvalues --  -38.44000 -38.44000  -2.21111  -2.20868  -2.20684
  Beta  occ. eigenvalues --   -2.20514  -2.20489  -2.20272  -2.20220  -1.15247
  Beta  occ. eigenvalues --   -1.15063  -1.14972  -1.14928  -1.14754  -1.14627
  Beta  occ. eigenvalues --   -1.14552  -1.14479  -1.14318  -1.14297  -1.14082
  Beta  occ. eigenvalues --   -1.14043  -1.14007  -1.13993  -1.13968  -1.13838
  Beta  occ. eigenvalues --   -1.13791  -1.13749  -1.13728  -1.13719  -1.13586
  Beta  occ. eigenvalues --   -0.21740  -0.13891  -0.12657
  Beta virt. eigenvalues --   -0.08368  -0.05382  -0.04158  -0.03933  -0.02868
  Beta virt. eigenvalues --   -0.02266  -0.01675  -0.00989  -0.00322   0.00057
  Beta virt. eigenvalues --    0.00338   0.00873   0.00962   0.01104   0.01235
  Beta virt. eigenvalues --    0.01318   0.01422   0.01537   0.01610   0.01623
  Beta virt. eigenvalues --    0.01705   0.01777   0.01906   0.01911   0.02027
  Beta virt. eigenvalues --    0.02102   0.02748   0.02750   0.02994   0.03066
  Beta virt. eigenvalues --    0.03124   0.03176   0.03258   0.03372   0.03521
  Beta virt. eigenvalues --    0.03614   0.03825   0.03960   0.04003   0.04027
  Beta virt. eigenvalues --    0.04258   0.04937   0.05178   0.05320   0.05461
  Beta virt. eigenvalues --    0.05567   0.05612   0.05998   0.06211   0.06294
  Beta virt. eigenvalues --    0.06422   0.06464   0.07509   0.07534   0.07948
  Beta virt. eigenvalues --    0.08257   0.08891   0.09378   0.09699   0.10021
  Beta virt. eigenvalues --    0.10272   0.10703   0.11917   0.12076   0.12800
  Beta virt. eigenvalues --    0.13136   0.13531   0.14306   0.14384   0.14556
  Beta virt. eigenvalues --    0.14638   0.14783   0.15724   0.15832   0.16579
  Beta virt. eigenvalues --    0.17732   0.18553   0.18937   0.19227   0.20267
  Beta virt. eigenvalues --    0.24588   0.25707   0.25964   0.27158   0.27554
  Beta virt. eigenvalues --    0.28463   0.29368   0.32545   0.34597   0.36759
  Beta virt. eigenvalues --    0.36786   0.38549   0.39000   0.39419   0.39661
  Beta virt. eigenvalues --    0.40373   0.41470   0.43961   0.44494   0.45065
  Beta virt. eigenvalues --    0.45968   0.45986   0.46560   0.47595   0.47810
  Beta virt. eigenvalues --    0.48429   0.48955   0.49233   0.49443   0.49759
  Beta virt. eigenvalues --    0.49929   0.49962   0.52040   0.52120   0.54885
  Beta virt. eigenvalues --    0.55010   0.55960   0.56825   0.57699   0.58811
  Beta virt. eigenvalues --    0.60365   0.61146   0.65198   0.66615   0.70054
  Beta virt. eigenvalues --    0.73575   0.75231   0.78437   0.78749   0.83268
  Beta virt. eigenvalues --    0.84046   0.89206   0.89451   0.90118   0.92893
  Beta virt. eigenvalues --    0.93366   2.18097   2.22825   2.27252   2.30398
  Beta virt. eigenvalues --    2.31229   2.32844   2.35809   4.40974   4.42192
  Beta virt. eigenvalues --    4.43045   4.44091   4.45388   4.47030   4.47319
  Beta virt. eigenvalues --    4.48915   4.54798   4.56418   4.68491   4.70833
  Beta virt. eigenvalues --    4.72221   4.74810   4.77508   4.83916   4.87874
  Beta virt. eigenvalues --    4.90238   4.93369   4.94831   5.02403  96.43957
  Beta virt. eigenvalues --   96.51358  96.55249  96.60249  96.61858  96.64513
  Beta virt. eigenvalues --   96.67195
          Condensed to atoms (all electrons):
               1          2          3          4          5          6
     1  Na  12.778127   0.455022  -0.901948  -0.910969  -0.371875  -0.385244
     2  Na   0.455022  12.314171  -0.010365  -0.014548  -0.334666  -0.337773
     3  Na  -0.901948  -0.010365  13.814379  -1.296044   1.444587  -2.515446
     4  Na  -0.910969  -0.014548  -1.296044  13.818412  -2.512971   1.448952
     5  Na  -0.371875  -0.334666   1.444587  -2.512971  16.536267  -3.209016
     6  Na  -0.385244  -0.337773  -2.515446   1.448952  -3.209016  16.547409
     7  Na   0.048535  -0.769136   0.259775   0.261984  -0.466365  -0.464900
               7
     1  Na   0.048535
     2  Na  -0.769136
     3  Na   0.259775
     4  Na   0.261984
     5  Na  -0.466365
     6  Na  -0.464900
     7  Na  12.356056
          Atomic-Atomic Spin Densities.
               1          2          3          4          5          6
     1  Na  -0.339694  -0.043624   0.203620   0.203875   0.017594   0.016743
     2  Na  -0.043624   0.953385   0.134926   0.136153  -0.014322  -0.013324
     3  Na   0.203620   0.134926  -0.372842   0.032709  -0.151825   0.311093
     4  Na   0.203875   0.136153   0.032709  -0.372323   0.309969  -0.151537
     5  Na   0.017594  -0.014322  -0.151825   0.309969  -0.479081   0.091020
     6  Na   0.016743  -0.013324   0.311093  -0.151537   0.091020  -0.478777
     7  Na   0.029375  -0.739179  -0.096019  -0.097273   0.172889   0.171407
               7
     1  Na   0.029375
     2  Na  -0.739179
     3  Na  -0.096019
     4  Na  -0.097273
     5  Na   0.172889
     6  Na   0.171407
     7  Na   1.040791
 Mulliken charges and spin densities:
               1          2
     1  Na   0.288352   0.087890
     2  Na  -0.302704   0.414016
     3  Na   0.205061   0.061662
     4  Na   0.205184   0.061572
     5  Na  -0.085961  -0.053755
     6  Na  -0.083982  -0.053376
     7  Na  -0.225950   0.481992
 Sum of Mulliken charges =  -0.00000   1.00000
 Mulliken charges and spin densities with hydrogens summed into heavy atoms:
               1          2
     1  Na   0.288352   0.087890
     2  Na  -0.302704   0.414016
     3  Na   0.205061   0.061662
     4  Na   0.205184   0.061572
     5  Na  -0.085961  -0.053755
     6  Na  -0.083982  -0.053376
     7  Na  -0.225950   0.481992
 Electronic spatial extent (au):  <R**2>=           1391.0124
 Charge=             -0.0000 electrons
 Dipole moment (field-independent basis, Debye):
    X=              0.0004    Y=              0.0542    Z=              0.1511  Tot=              0.1606
 Quadrupole moment (field-independent basis, Debye-Ang):
   XX=            -60.0205   YY=            -71.2769   ZZ=            -68.2147
   XY=             -0.0013   XZ=             -0.0026   YZ=              0.8382
 Traceless Quadrupole moment (field-independent basis, Debye-Ang):
   XX=              6.4835   YY=             -4.7729   ZZ=             -1.7106
   XY=             -0.0013   XZ=             -0.0026   YZ=              0.8382
 Octapole moment (field-independent basis, Debye-Ang**2):
  XXX=              0.0202  YYY=              3.5448  ZZZ=              2.7236  XYY=             -0.0072
  XXY=             -3.5578  XXZ=              0.1710  XZZ=             -0.0017  YZZ=              0.3730
  YYZ=              0.1747  XYZ=              0.0101
 Hexadecapole moment (field-independent basis, Debye-Ang**3):
 XXXX=           -958.3383 YYYY=           -921.6594 ZZZZ=           -555.4048 XXXY=             -0.0046
 XXXZ=             -0.0772 YYYX=             -0.0270 YYYZ=             17.1141 ZZZX=              0.0026
 ZZZY=             -6.8391 XXYY=           -311.3727 XXZZ=           -303.9408 YYZZ=           -273.2930
 XXYZ=              7.0344 YYXZ=              0.0062 ZZXY=             -0.0036
 N-N= 4.400712444530D+02 E-N=-3.609326413096D+03  KE= 1.133791988618D+03
                          Isotropic Fermi Contact Couplings
        Atom                 a.u.       MegaHertz       Gauss      10(-4) cm-1
     1  Na(23)            -0.00638      -7.54468      -2.69213      -2.51664
     2  Na(23)             0.39145     463.09684     165.24447     154.47248
     3  Na(23)            -0.01511     -17.87451      -6.37807      -5.96229
     4  Na(23)            -0.01516     -17.93826      -6.40082      -5.98356
     5  Na(23)            -0.02220     -26.26102      -9.37058      -8.75973
     6  Na(23)            -0.02219     -26.25491      -9.36841      -8.75770
     7  Na(23)             0.40498     479.10363     170.95609     159.81177
 --------------------------------------------------------
       Center         ----  Spin Dipole Couplings  ----
                      3XX-RR        3YY-RR        3ZZ-RR
 --------------------------------------------------------
     1   Atom       -0.046034     -0.043891      0.089925
     2   Atom        0.007136      0.010282     -0.017418
     3   Atom       -0.036767     -0.036295      0.073062
     4   Atom       -0.036753     -0.036293      0.073046
     5   Atom       -0.026240     -0.032783      0.059023
     6   Atom       -0.026280     -0.032799      0.059080
     7   Atom        0.007139      0.010859     -0.017999
 --------------------------------------------------------
                        XY            XZ            YZ
 --------------------------------------------------------
     1   Atom        0.000005     -0.000019     -0.018509
     2   Atom       -0.000016     -0.000003      0.004492
     3   Atom        0.002582     -0.009155     -0.007945
     4   Atom       -0.002574      0.009118     -0.007893
     5   Atom       -0.001858      0.004299      0.000327
     6   Atom        0.001855     -0.004216      0.000330
     7   Atom        0.000010     -0.000002      0.001635
 --------------------------------------------------------


 ---------------------------------------------------------------------------------
              Anisotropic Spin Dipole Couplings in Principal Axis System
 ---------------------------------------------------------------------------------

       Atom             a.u.   MegaHertz   Gauss  10(-4) cm-1        Axes

              Baa    -0.0464    -6.553    -2.338    -2.186 -0.0073  0.9909  0.1345
     1 Na(23) Bbb    -0.0460    -6.501    -2.320    -2.168  1.0000  0.0072  0.0011
              Bcc     0.0924    13.054     4.658     4.354 -0.0001 -0.1345  0.9909
 
              Baa    -0.0181    -2.560    -0.913    -0.854  0.0000 -0.1562  0.9877
     2 Na(23) Bbb     0.0071     1.008     0.360     0.336  1.0000  0.0041  0.0006
              Bcc     0.0110     1.552     0.554     0.518 -0.0041  0.9877  0.1562
 
              Baa    -0.0391    -5.528    -1.973    -1.844  0.7639 -0.6451  0.0166
     3 Na(23) Bbb    -0.0353    -4.981    -1.777    -1.661  0.6399  0.7605  0.1099
              Bcc     0.0744    10.509     3.750     3.505 -0.0835 -0.0733  0.9938
 
              Baa    -0.0391    -5.526    -1.972    -1.843  0.7630  0.6462 -0.0166
     4 Na(23) Bbb    -0.0353    -4.979    -1.777    -1.661 -0.6410  0.7597  0.1093
              Bcc     0.0744    10.505     3.748     3.504  0.0832 -0.0728  0.9939
 
              Baa    -0.0333    -4.702    -1.678    -1.568  0.2636  0.9645 -0.0157
     5 Na(23) Bbb    -0.0259    -3.664    -1.307    -1.222  0.9633 -0.2640 -0.0477
              Bcc     0.0592     8.365     2.985     2.790  0.0502  0.0025  0.9987
 
              Baa    -0.0333    -4.704    -1.679    -1.569 -0.2638  0.9645 -0.0155
     6 Na(23) Bbb    -0.0260    -3.668    -1.309    -1.224  0.9633  0.2642  0.0467
              Bcc     0.0593     8.372     2.987     2.793 -0.0492  0.0026  0.9988
 
              Baa    -0.0181    -2.555    -0.912    -0.852  0.0001 -0.0564  0.9984
     7 Na(23) Bbb     0.0071     1.008     0.360     0.336  1.0000 -0.0025 -0.0003
              Bcc     0.0110     1.546     0.552     0.516  0.0025  0.9984  0.0564
 

 ---------------------------------------------------------------------------------

 No NMR shielding tensors so no spin-rotation constants.
 Leave Link  601 at Mon Nov 13 20:42:15 2023, MaxMem=  1879048192 cpu:               2.7 elap:               0.2
 (Enter /home/sekinelabo/g16/l701.exe)
 ... and contract with generalized density number  0.
 Compute integral first derivatives.
 Leave Link  701 at Mon Nov 13 20:42:15 2023, MaxMem=  1879048192 cpu:               1.7 elap:               0.1
 (Enter /home/sekinelabo/g16/l702.exe)
 L702 exits ... SP integral derivatives will be done elsewhere.
 Leave Link  702 at Mon Nov 13 20:42:15 2023, MaxMem=  1879048192 cpu:               0.5 elap:               0.0
 (Enter /home/sekinelabo/g16/l703.exe)
 Integral derivatives from FoFJK, PRISM(SPDF).
 Compute integral first derivatives, UseDBF=F ICtDFT=           0.
 Calling FoFJK, ICntrl=      2127 FMM=F ISym2X=0 I1Cent= 0 IOpClX= 1 NMat=1 NMatS=1 NMatT=0.
 FoFJK:  IHMeth= 1 ICntrl=    2127 DoSepK=F KAlg= 0 I1Cent=           0 FoldK=F
 IRaf=         0 NMat=       1 IRICut=       1 DoRegI=T DoRafI=F ISym2E= 0 IDoP0=0 IntGTp=1.
 FoFCou: FMM=F IPFlag=           0 FMFlag=      100000 FMFlg1=         800
         NFxFlg=           0 DoJE=F BraDBF=F KetDBF=F FulRan=T
         wScrn=  0.000000 ICntrl=      2127 IOpCl=  1 I1Cent=           0 NGrid=           0
         NMat0=    1 NMatS0=      1 NMatT0=    0 NMatD0=    1 NMtDS0=    0 NMtDT0=    0
 Symmetry not used in FoFCou.
 Leave Link  703 at Mon Nov 13 20:42:17 2023, MaxMem=  1879048192 cpu:              39.0 elap:               2.5
 (Enter /home/sekinelabo/g16/l716.exe)
 Dipole        = 1.59993022D-04 2.13406744D-02 5.94549329D-02
 ***** Axes restored to original set *****
 -------------------------------------------------------------------
 Center     Atomic                   Forces (Hartrees/Bohr)
 Number     Number              X              Y              Z
 -------------------------------------------------------------------
      1       11          -0.000032434   -0.042594913    0.007310983
      2       11          -0.000021899    0.001644004    0.036458408
      3       11          -0.019044949    0.031678377   -0.006230846
      4       11           0.019077061    0.031664166   -0.006245594
      5       11          -0.031071698   -0.011942220    0.000833424
      6       11           0.031094805   -0.011937674    0.000807530
      7       11          -0.000000886    0.001488260   -0.032933905
 -------------------------------------------------------------------
 Cartesian Forces:  Max     0.042594913 RMS     0.021062240
 Z-matrix is all fixed cartesians, so copy forces.
 Force constants in Cartesian coordinates: 
                1             2             3             4             5 
      1  0.298042D+00
      2  0.380688D-04  0.375435D+00
      3  0.000000D+00 -0.150611D-01  0.317606D+00
      4 -0.844758D-01  0.216709D-04 -0.248490D-04  0.276157D+00
      5 -0.123838D-04 -0.873737D-01 -0.699544D-01  0.228407D-04  0.255111D+00
      6 -0.142731D-04  0.223696D-01 -0.753904D-01  0.369285D-05  0.106320D-01
      7  0.111527D-01  0.255801D-02 -0.186161D-02 -0.655546D-01  0.112592D-01
      8  0.295508D-01 -0.274936D-01  0.468851D-02 -0.151314D-02 -0.594015D-01
      9 -0.261824D-02  0.469040D-02  0.109683D-01 -0.414672D-01  0.530875D-01
     10  0.111772D-01 -0.259351D-02  0.188078D-02 -0.656796D-01 -0.112478D-01
     11 -0.295644D-01 -0.274591D-01  0.464345D-02  0.146590D-02 -0.595152D-01
     12  0.266449D-02  0.469383D-02  0.109842D-01  0.414829D-01  0.531366D-01
     13 -0.797617D-01 -0.238417D-01  0.294337D-02 -0.378067D-01 -0.157491D-02
     14  0.574359D-01 -0.764352D-01 -0.149134D-02 -0.134425D-01 -0.257435D-01
     15 -0.572177D-02 -0.182406D-02 -0.865586D-01 -0.544323D-01 -0.213017D-01
     16 -0.798388D-01  0.238261D-01 -0.295372D-02 -0.378075D-01  0.156964D-02
     17 -0.574574D-01 -0.764340D-01 -0.144310D-02  0.134601D-01 -0.257663D-01
     18  0.570748D-02 -0.181805D-02 -0.865595D-01  0.544354D-01 -0.213551D-01
     19 -0.762950D-01 -0.866154D-05  0.160616D-04  0.151670D-01 -0.165946D-04
     20  0.942537D-05 -0.802399D-01  0.786180D-01 -0.149287D-04  0.268954D-02
     21 -0.176513D-04 -0.130506D-01 -0.910499D-01  0.249175D-05 -0.424483D-02
                6             7             8             9            10 
      6  0.392495D+00
      7  0.132394D-01  0.247536D+00
      8 -0.136296D-01 -0.294546D-01  0.269787D+00
      9 -0.821309D-01  0.472111D-02 -0.232889D-02  0.207906D+00
     10 -0.132253D-01 -0.801069D-01 -0.406261D-01  0.364718D-02  0.247488D+00
     11 -0.135805D-01  0.406399D-01 -0.537355D-01 -0.640488D-02  0.294841D-01
     12 -0.822394D-01 -0.367013D-02 -0.645000D-02 -0.555856D-01 -0.471493D-02
     13  0.226033D-01 -0.512941D-01  0.219861D-01  0.219061D-02 -0.741067D-02
     14  0.210959D-02 -0.502573D-01 -0.856952D-01  0.454845D-03 -0.219172D-01
     15 -0.469202D-01  0.718652D-02  0.791316D-03 -0.568144D-01  0.176836D-02
     16 -0.225932D-01 -0.740539D-02  0.134631D-01  0.442588D-03 -0.512218D-01
     17  0.212879D-02  0.219228D-01  0.118712D-01  0.165579D-02  0.502188D-01
     18 -0.469740D-01 -0.178716D-02  0.387713D-02  0.306422D-01 -0.717330D-02
     19 -0.136011D-04 -0.543276D-01  0.659380D-02  0.330840D-01 -0.542462D-01
     20 -0.100298D-01  0.333194D-02 -0.553323D-01 -0.511548D-01 -0.331832D-02
     21 -0.588404D-01 -0.178282D-01  0.130516D-01 -0.549850D-01  0.178172D-01
               11            12            13            14            15 
     11  0.269659D+00
     12 -0.235785D-02  0.207865D+00
     13 -0.134512D-01 -0.419876D-03  0.228619D+00
     14  0.118927D-01  0.167368D-02  0.281578D-01  0.182258D+00
     15  0.386848D-02  0.306597D-01 -0.707550D-02  0.465403D-02  0.171862D+00
     16 -0.220192D-01 -0.224687D-02 -0.112137D-01 -0.995267D-03  0.721640D-03
     17 -0.856028D-01  0.403249D-03  0.101662D-02  0.176770D-01  0.349830D-02
     18  0.763441D-03 -0.567290D-01 -0.693207D-03  0.350494D-02  0.369614D-01
     19 -0.655496D-02 -0.330955D-01 -0.411316D-01  0.101843D-02  0.575531D-01
     20 -0.552396D-01 -0.510995D-01 -0.122928D-01 -0.239539D-01  0.103136D-01
     21  0.130678D-01 -0.549552D-01 -0.195487D-01 -0.109058D-01 -0.491894D-01
               16            17            18            19            20 
     16  0.228703D+00
     17 -0.281706D-01  0.182292D+00
     18  0.708236D-02  0.468569D-02  0.171891D+00
     19 -0.412162D-01 -0.990374D-03 -0.575716D-01  0.252050D+00
     20  0.123263D-01 -0.240372D-01  0.103420D-01 -0.416362D-04  0.236113D+00
     21  0.195472D-01 -0.109287D-01 -0.492323D-01  0.275577D-04  0.130105D-01
               21 
     21  0.358252D+00
 Leave Link  716 at Mon Nov 13 20:42:18 2023, MaxMem=  1879048192 cpu:               0.5 elap:               0.0
 (Enter /home/sekinelabo/g16/l103.exe)

 GradGradGradGradGradGradGradGradGradGradGradGradGradGradGradGradGradGrad
 Berny optimization.
 Search for a local minimum.
 Step number   1 out of a maximum of    2
 All quantities printed in internal units (Hartrees-Bohrs-Radians)
 Second derivative matrix not updated -- first step.
 ITU=  0
     Eigenvalues ---    0.19701   0.23061   0.27922   0.29859   0.30375
     Eigenvalues ---    0.32406   0.32504   0.34067   0.36320   0.37711
     Eigenvalues ---    0.39878   0.44982   0.45370   0.46750   0.49671
 Quadratic step=4.280D-01 exceeds max=3.000D-01 adjusted using Lamda=-9.138D-02.
 Angle between NR and scaled steps=   2.78 degrees.
 Angle between quadratic step and forces=  10.62 degrees.
 Linear search not attempted -- first point.
 B after Tr=     0.000000   -0.000000    0.000000
         Rot=    1.000000   -0.000000   -0.000000   -0.000000 Ang=   0.00 deg.
 Variable       Old X    -DE/DX   Delta X   Delta X   Delta X     New X
                                 (Linear)    (Quad)   (Total)
    X1        4.49370  -0.00003   0.00000  -0.00006  -0.00006   4.49364
    Y1        0.00000  -0.04259   0.00000  -0.11077  -0.11077  -0.11077
    Z1        3.66626   0.00731   0.00000   0.01436   0.01436   3.68062
    X2        4.49644  -0.00002   0.00000  -0.00001  -0.00001   4.49643
    Y2        4.15046   0.00164   0.00000   0.01015   0.01015   4.16061
    Z2        6.39752   0.03646   0.00000   0.08938   0.08938   6.48690
    X3        1.88195  -0.01904   0.00000  -0.06970  -0.06970   1.81225
    Y3        6.80685   0.03168   0.00000   0.09663   0.09663   6.90348
    Z3        3.03432  -0.00623   0.00000  -0.01172  -0.01172   3.02260
    X4        7.10889   0.01908   0.00000   0.06977   0.06977   7.17866
    Y4        6.80742   0.03166   0.00000   0.09662   0.09662   6.90405
    Z4        3.03676  -0.00625   0.00000  -0.01171  -0.01171   3.02506
    X5        0.00000  -0.03107   0.00000  -0.12108  -0.12108  -0.12108
    Y5        2.16569  -0.01194   0.00000  -0.04362  -0.04362   2.12207
    Z5        3.36598   0.00083   0.00000   0.00361   0.00361   3.36959
    X6        8.98767   0.03109   0.00000   0.12108   0.12108   9.10875
    Y6        2.16277  -0.01194   0.00000  -0.04367  -0.04367   2.11910
    Z6        3.36358   0.00081   0.00000   0.00354   0.00354   3.36712
    X7        4.49475  -0.00000   0.00000  -0.00000  -0.00000   4.49475
    Y7        3.14714   0.00149   0.00000  -0.00534  -0.00534   3.14180
    Z7        0.00000  -0.03293   0.00000  -0.08747  -0.08747  -0.08747
         Item               Value     Threshold  Converged?
 Maximum Force            0.042595     0.000450     NO 
 RMS     Force            0.021062     0.000300     NO 
 Maximum Displacement     0.121076     0.001800     NO 
 RMS     Displacement     0.065492     0.001200     NO 
 Predicted change in Energy=-1.835111D-02
 GradGradGradGradGradGradGradGradGradGradGradGradGradGradGradGradGradGrad

 Leave Link  103 at Mon Nov 13 20:42:18 2023, MaxMem=  1879048192 cpu:               0.3 elap:               0.0
 (Enter /home/sekinelabo/g16/l9999.exe)
 1\1\GINC-SEKINELABO-XA7R-R37\Force\UB3LYP\6-311+G(d)\Na7(2)\SEKINELABO
 \13-Nov-2023\0\\#P B3LYP/6-311+g(d) force\\Gaussian input prepared by 
 ASE\\0,2\Na,2.3779652699,0.,1.9400992814\Na,2.3794117396,2.1963297694,
 3.3854223503\Na,0.9958852515,3.6020315528,1.6056908553\Na,3.7618649334
 ,3.6023334985,1.6069845467\Na,0.,1.146035469,1.7811982911\Na,4.7560704
 208,1.1444898153,1.7799323194\Na,2.3785209038,1.66539371,0.\\Version=E
 S64L-G16RevB.01\State=2-A\HF=-1136.0349893\S2=0.757195\S2-1=0.\S2A=0.7
 50036\RMSD=8.577e-09\RMSF=2.106e-02\Dipole=-0.00016,0.0213407,-0.05945
 49\Quadrupole=4.8203374,-3.5485235,-1.2718139,0.000961,-0.0019609,-0.6
 231991\PG=C01 [X(Na7)]\\@


 NATURE WILL TELL YOU A DIRECT LIE IF SHE CAN.

                                -- CHARLES DARWIN
 Job cpu time:       0 days  0 hours  4 minutes 22.6 seconds.
 Elapsed time:       0 days  0 hours  0 minutes 21.4 seconds.
 File lengths (MBytes):  RWF=     32 Int=      0 D2E=      0 Chk=      6 Scr=      1
 Normal termination of Gaussian 16 at Mon Nov 13 20:42:18 2023.
