 Entering Gaussian System, Link 0=g16
 Initial command:
 /home/sekinelabo/g16/l1.exe "/home/sekinelabo/g16temp/Gau-4061396.inp" -scrdir="/home/sekinelabo/g16temp/"
 Entering Link 1 = /home/sekinelabo/g16/l1.exe PID=   4061398.
  
 Copyright (c) 1988-2017, Gaussian, Inc.  All Rights Reserved.
  
 This is part of the Gaussian(R) 16 program.  It is based on
 the Gaussian(R) 09 system (copyright 2009, Gaussian, Inc.),
 the Gaussian(R) 03 system (copyright 2003, Gaussian, Inc.),
 the Gaussian(R) 98 system (copyright 1998, Gaussian, Inc.),
 the Gaussian(R) 94 system (copyright 1995, Gaussian, Inc.),
 the Gaussian 92(TM) system (copyright 1992, Gaussian, Inc.),
 the Gaussian 90(TM) system (copyright 1990, Gaussian, Inc.),
 the Gaussian 88(TM) system (copyright 1988, Gaussian, Inc.),
 the Gaussian 86(TM) system (copyright 1986, Carnegie Mellon
 University), and the Gaussian 82(TM) system (copyright 1983,
 Carnegie Mellon University). Gaussian is a federally registered
 trademark of Gaussian, Inc.
  
 This software contains proprietary and confidential information,
 including trade secrets, belonging to Gaussian, Inc.
  
 This software is provided under written license and may be
 used, copied, transmitted, or stored only in accord with that
 written license.
  
 The following legend is applicable only to US Government
 contracts under FAR:
  
                    RESTRICTED RIGHTS LEGEND
  
 Use, reproduction and disclosure by the US Government is
 subject to restrictions as set forth in subparagraphs (a)
 and (c) of the Commercial Computer Software - Restricted
 Rights clause in FAR 52.227-19.
  
 Gaussian, Inc.
 340 Quinnipiac St., Bldg. 40, Wallingford CT 06492
  
  
 ---------------------------------------------------------------
 Warning -- This program may not be used in any manner that
 competes with the business of Gaussian, Inc. or will provide
 assistance to any competitor of Gaussian, Inc.  The licensee
 of this program is prohibited from giving any competitor of
 Gaussian, Inc. access to this program.  By using this program,
 the user acknowledges that Gaussian, Inc. is engaged in the
 business of creating and licensing software in the field of
 computational chemistry and represents and warrants to the
 licensee that it is not a competitor of Gaussian, Inc. and that
 it will not use this program in any manner prohibited above.
 ---------------------------------------------------------------
  

 Cite this work as:
 Gaussian 16, Revision B.01,
 M. J. Frisch, G. W. Trucks, H. B. Schlegel, G. E. Scuseria, 
 M. A. Robb, J. R. Cheeseman, G. Scalmani, V. Barone, 
 G. A. Petersson, H. Nakatsuji, X. Li, M. Caricato, A. V. Marenich, 
 J. Bloino, B. G. Janesko, R. Gomperts, B. Mennucci, H. P. Hratchian, 
 J. V. Ortiz, A. F. Izmaylov, J. L. Sonnenberg, D. Williams-Young, 
 F. Ding, F. Lipparini, F. Egidi, J. Goings, B. Peng, A. Petrone, 
 T. Henderson, D. Ranasinghe, V. G. Zakrzewski, J. Gao, N. Rega, 
 G. Zheng, W. Liang, M. Hada, M. Ehara, K. Toyota, R. Fukuda, 
 J. Hasegawa, M. Ishida, T. Nakajima, Y. Honda, O. Kitao, H. Nakai, 
 T. Vreven, K. Throssell, J. A. Montgomery, Jr., J. E. Peralta, 
 F. Ogliaro, M. J. Bearpark, J. J. Heyd, E. N. Brothers, K. N. Kudin, 
 V. N. Staroverov, T. A. Keith, R. Kobayashi, J. Normand, 
 K. Raghavachari, A. P. Rendell, J. C. Burant, S. S. Iyengar, 
 J. Tomasi, M. Cossi, J. M. Millam, M. Klene, C. Adamo, R. Cammi, 
 J. W. Ochterski, R. L. Martin, K. Morokuma, O. Farkas, 
 J. B. Foresman, and D. J. Fox, Gaussian, Inc., Wallingford CT, 2016.
 
 ******************************************
 Gaussian 16:  ES64L-G16RevB.01 20-Dec-2017
                13-Nov-2023 
 ******************************************
 %mem=14GB
 %chk=checkpoint.chk
 %nprocshared=16
 Will use up to   16 processors via shared memory.
 -------------------------
 #P B3LYP/6-311+g(d) force
 -------------------------
 1/10=7,30=1,38=1/1,3;
 2/12=2,17=6,18=5,40=1/2;
 3/5=4,6=6,7=11,11=2,25=1,30=1,71=1,74=-5/1,2,3;
 4//1;
 5/5=2,38=5/2;
 6/7=2,8=2,9=2,10=2,28=1/1;
 7/29=1/1,2,3,16;
 1/10=7,30=1/3;
 99//99;
 Leave Link    1 at Mon Nov 13 16:49:58 2023, MaxMem=  1879048192 cpu:               0.3 elap:               0.0
 (Enter /home/sekinelabo/g16/l101.exe)
 ------------------------------
 Gaussian input prepared by ASE
 ------------------------------
 Symbolic Z-matrix:
 Charge =  0 Multiplicity = 2
 Na                    2.90552   2.64639   0. 
 Na                    1.91856   4.15248   2.40227 
 Na                    0.        3.3723    0.24184 
 Na                    0.22829   1.69016   2.71708 
 Na                    2.23958   0.        1.25627 
 Na                    4.97654   1.1741    1.59303 
 Na                    4.83574   4.16625   1.71032 
 
 ITRead=  0  0  0  0  0  0  0
 MicOpt= -1 -1 -1 -1 -1 -1 -1
 NAtoms=      7 NQM=        7 NQMF=       0 NMMI=      0 NMMIF=      0
                NMic=       0 NMicF=      0.
                    Isotopes and Nuclear Properties:
 (Nuclear quadrupole moments (NQMom) in fm**2, nuclear magnetic moments (NMagM)
  in nuclear magnetons)

  Atom         1           2           3           4           5           6           7
 IAtWgt=          23          23          23          23          23          23          23
 AtmWgt=  22.9897697  22.9897697  22.9897697  22.9897697  22.9897697  22.9897697  22.9897697
 NucSpn=           3           3           3           3           3           3           3
 AtZEff=  -0.0000000  -0.0000000  -0.0000000  -0.0000000  -0.0000000  -0.0000000  -0.0000000
 NQMom=   10.4000000  10.4000000  10.4000000  10.4000000  10.4000000  10.4000000  10.4000000
 NMagM=    2.2175200   2.2175200   2.2175200   2.2175200   2.2175200   2.2175200   2.2175200
 AtZNuc=  11.0000000  11.0000000  11.0000000  11.0000000  11.0000000  11.0000000  11.0000000
 Leave Link  101 at Mon Nov 13 16:49:58 2023, MaxMem=  1879048192 cpu:               2.6 elap:               0.2
 (Enter /home/sekinelabo/g16/l103.exe)

 GradGradGradGradGradGradGradGradGradGradGradGradGradGradGradGradGradGrad
 Berny optimization.
 Initialization pass.
 Trust Radius=3.00D-01 FncErr=1.00D-07 GrdErr=1.00D-07 EigMax=2.50D+02 EigMin=1.00D-04
 Number of steps in this run=      2 maximum allowed number of steps=      2.
 GradGradGradGradGradGradGradGradGradGradGradGradGradGradGradGradGradGrad

 Leave Link  103 at Mon Nov 13 16:49:58 2023, MaxMem=  1879048192 cpu:               0.2 elap:               0.0
 (Enter /home/sekinelabo/g16/l202.exe)
                          Input orientation:                          
 ---------------------------------------------------------------------
 Center     Atomic      Atomic             Coordinates (Angstroms)
 Number     Number       Type             X           Y           Z
 ---------------------------------------------------------------------
      1         11           0        2.905520    2.646390    0.000000
      2         11           0        1.918558    4.152477    2.402265
      3         11           0        0.000000    3.372296    0.241843
      4         11           0        0.228287    1.690159    2.717079
      5         11           0        2.239580    0.000000    1.256270
      6         11           0        4.976539    1.174104    1.593027
      7         11           0        4.835739    4.166249    1.710318
 ---------------------------------------------------------------------
                    Distance matrix (angstroms):
                    1          2          3          4          5
     1  Na   0.000000
     2  Na   3.002211   0.000000
     3  Na   3.004576   2.992820   0.000000
     4  Na   3.932489   3.003187   3.001415   0.000000
     5  Na   3.004175   4.319655   4.173388   3.005977   0.000000
     6  Na   2.999080   4.344746   5.605684   4.906700   2.997144
     7  Na   2.993477   2.998153   5.115774   5.326650   4.929891
                    6          7
     6  Na   0.000000
     7  Na   2.997751   0.000000
 Stoichiometry    Na7(2)
 Framework group  C1[X(Na7)]
 Deg. of freedom    15
 Full point group                 C1      NOp   1
 Largest Abelian subgroup         C1      NOp   1
 Largest concise Abelian subgroup C1      NOp   1
                         Standard orientation:                         
 ---------------------------------------------------------------------
 Center     Atomic      Atomic             Coordinates (Angstroms)
 Number     Number       Type             X           Y           Z
 ---------------------------------------------------------------------
      1         11           0        0.462060   -0.189008    1.417258
      2         11           0       -0.524903   -1.695095   -0.985008
      3         11           0       -2.443461   -0.914914    1.175414
      4         11           0       -2.215173    0.767223   -1.299822
      5         11           0       -0.203880    2.457382    0.160988
      6         11           0        2.533079    1.283278   -0.175770
      7         11           0        2.392278   -1.708867   -0.293060
 ---------------------------------------------------------------------
 Rotational constants (GHZ):           1.0402005           0.7391590           0.5711580
 Leave Link  202 at Mon Nov 13 16:49:58 2023, MaxMem=  1879048192 cpu:               0.1 elap:               0.0
 (Enter /home/sekinelabo/g16/l301.exe)
 Standard basis: 6-311+G(d) (5D, 7F)
 Ernie: Thresh=  0.10000D-02 Tol=  0.10000D-05 Strict=F.
 There are   217 symmetry adapted cartesian basis functions of A   symmetry.
 There are   210 symmetry adapted basis functions of A   symmetry.
   210 basis functions,   350 primitive gaussians,   217 cartesian basis functions
    39 alpha electrons       38 beta electrons
       nuclear repulsion energy       379.3052169982 Hartrees.
 IExCor=  402 DFT=T Ex+Corr=B3LYP ExCW=0 ScaHFX=  0.200000
 ScaDFX=  0.800000  0.720000  1.000000  0.810000 ScalE2=  1.000000  1.000000
 IRadAn=      5 IRanWt=     -1 IRanGd=            0 ICorTp=0 IEmpDi=  4
 NAtoms=    7 NActive=    7 NUniq=    7 SFac= 1.00D+00 NAtFMM=   60 NAOKFM=F Big=F
 Integral buffers will be    131072 words long.
 Raffenetti 2 integral format.
 Two-electron integral symmetry is turned on.
 Leave Link  301 at Mon Nov 13 16:49:58 2023, MaxMem=  1879048192 cpu:               0.5 elap:               0.0
 (Enter /home/sekinelabo/g16/l302.exe)
 NPDir=0 NMtPBC=     1 NCelOv=     1 NCel=       1 NClECP=     1 NCelD=      1
         NCelK=      1 NCelE2=     1 NClLst=     1 CellRange=     0.0.
 One-electron integrals computed using PRISM.
 One-electron integral symmetry used in STVInt
 NBasis=   210 RedAO= T EigKep=  1.29D-06  NBF=   210
 NBsUse=   210 1.00D-06 EigRej= -1.00D+00 NBFU=   210
 Precomputing XC quadrature grid using
 IXCGrd= 4 IRadAn=           5 IRanWt=          -1 IRanGd=           0 AccXCQ= 0.00D+00.
 Generated NRdTot=       0 NPtTot=           0 NUsed=           0 NTot=          32
 NSgBfM=   211   211   211   211   211 MxSgAt=     7 MxSgA2=     7.
 Leave Link  302 at Mon Nov 13 16:49:58 2023, MaxMem=  1879048192 cpu:               2.2 elap:               0.1
 (Enter /home/sekinelabo/g16/l303.exe)
 DipDrv:  MaxL=1.
 Leave Link  303 at Mon Nov 13 16:49:58 2023, MaxMem=  1879048192 cpu:               1.8 elap:               0.1
 (Enter /home/sekinelabo/g16/l401.exe)
 ExpMin= 7.60D-03 ExpMax= 3.62D+04 ExpMxC= 1.21D+03 IAcc=3 IRadAn=         5 AccDes= 0.00D+00
 Harris functional with IExCor=  402 and IRadAn=       5 diagonalized for initial guess.
 HarFok:  IExCor=  402 AccDes= 0.00D+00 IRadAn=         5 IDoV= 1 UseB2=F ITyADJ=14
 ICtDFT=  3500011 ScaDFX=  1.000000  1.000000  1.000000  1.000000
 FoFCou: FMM=F IPFlag=           0 FMFlag=      100000 FMFlg1=           0
         NFxFlg=           0 DoJE=T BraDBF=F KetDBF=T FulRan=T
         wScrn=  0.000000 ICntrl=       500 IOpCl=  0 I1Cent=   200000004 NGrid=           0
         NMat0=    1 NMatS0=      1 NMatT0=    0 NMatD0=    1 NMtDS0=    0 NMtDT0=    0
 Petite list used in FoFCou.
 Harris En= -1135.87830829990    
 JPrj=0 DoOrth=F DoCkMO=F.
 Initial guess <Sx>= 0.0000 <Sy>= 0.0000 <Sz>= 0.5000 <S**2>= 0.7500 S= 0.5000
 Leave Link  401 at Mon Nov 13 16:49:59 2023, MaxMem=  1879048192 cpu:               4.9 elap:               0.3
 (Enter /home/sekinelabo/g16/l502.exe)
 Keep R1 and R2 ints in memory in canonical form, NReq=507620374.
 FoFCou: FMM=F IPFlag=           0 FMFlag=           0 FMFlg1=           0
         NFxFlg=           0 DoJE=F BraDBF=F KetDBF=F FulRan=T
         wScrn=  0.000000 ICntrl=       600 IOpCl=  0 I1Cent=           0 NGrid=           0
         NMat0=    1 NMatS0=  22155 NMatT0=    0 NMatD0=    1 NMtDS0=    0 NMtDT0=    0
 Symmetry not used in FoFCou.
 Two-electron integral symmetry not used.
 UHF open shell SCF:
 Using DIIS extrapolation, IDIIS=  1040.
 NGot=  1879048192 LenX=  1388082362 LenY=  1388034832
 Requested convergence on RMS density matrix=1.00D-08 within 128 cycles.
 Requested convergence on MAX density matrix=1.00D-06.
 Requested convergence on             energy=1.00D-06.
 No special actions if energy rises.

 Cycle   1  Pass 1  IDiag  1:
 E= -1136.06573304133    
 DIIS: error= 1.29D-02 at cycle   1 NSaved=   1.
 NSaved= 1 IEnMin= 1 EnMin= -1136.06573304133     IErMin= 1 ErrMin= 1.29D-02
 ErrMax= 1.29D-02  0.00D+00 EMaxC= 1.00D-01 BMatC= 2.01D-01 BMatP= 2.01D-01
 IDIUse=3 WtCom= 8.71D-01 WtEn= 1.29D-01
 Coeff-Com:  0.100D+01
 Coeff-En:   0.100D+01
 Coeff:      0.100D+01
 Gap=     0.045 Goal=   None    Shift=    0.000
 Gap=     0.049 Goal=   None    Shift=    0.000
 GapD=    0.045 DampG=0.250 DampE=0.500 DampFc=0.2500 IDamp=-1.
 Damping current iteration by 2.50D-01
 RMSDP=3.25D-02 MaxDP=2.96D+00              OVMax= 2.52D-01

 Cycle   2  Pass 1  IDiag  1:
 E= -1136.08027369703     Delta-E=       -0.014540655704 Rises=F Damp=T
 DIIS: error= 8.37D-03 at cycle   2 NSaved=   2.
 NSaved= 2 IEnMin= 2 EnMin= -1136.08027369703     IErMin= 2 ErrMin= 8.37D-03
 ErrMax= 8.37D-03  0.00D+00 EMaxC= 1.00D-01 BMatC= 7.60D-02 BMatP= 2.01D-01
 IDIUse=3 WtCom= 9.16D-01 WtEn= 8.37D-02
 Coeff-Com: -0.126D+01 0.226D+01
 Coeff-En:   0.000D+00 0.100D+01
 Coeff:     -0.116D+01 0.216D+01
 Gap=     0.055 Goal=   None    Shift=    0.000
 Gap=     0.052 Goal=   None    Shift=    0.000
 RMSDP=1.53D-02 MaxDP=1.48D+00 DE=-1.45D-02 OVMax= 1.68D-01

 Cycle   3  Pass 1  IDiag  1:
 E= -1136.10443146808     Delta-E=       -0.024157771046 Rises=F Damp=F
 DIIS: error= 3.22D-03 at cycle   3 NSaved=   3.
 NSaved= 3 IEnMin= 3 EnMin= -1136.10443146808     IErMin= 3 ErrMin= 3.22D-03
 ErrMax= 3.22D-03  0.00D+00 EMaxC= 1.00D-01 BMatC= 3.69D-03 BMatP= 7.60D-02
 IDIUse=3 WtCom= 9.68D-01 WtEn= 3.22D-02
 Coeff-Com: -0.248D+00 0.448D+00 0.800D+00
 Coeff-En:   0.000D+00 0.000D+00 0.100D+01
 Coeff:     -0.240D+00 0.434D+00 0.806D+00
 Gap=     0.052 Goal=   None    Shift=    0.000
 Gap=     0.051 Goal=   None    Shift=    0.000
 RMSDP=7.31D-03 MaxDP=4.72D-01 DE=-2.42D-02 OVMax= 7.24D-02

 Cycle   4  Pass 1  IDiag  1:
 E= -1136.10435069972     Delta-E=        0.000080768355 Rises=F Damp=F
 DIIS: error= 2.80D-03 at cycle   4 NSaved=   4.
 NSaved= 4 IEnMin= 3 EnMin= -1136.10443146808     IErMin= 4 ErrMin= 2.80D-03
 ErrMax= 2.80D-03  0.00D+00 EMaxC= 1.00D-01 BMatC= 3.36D-03 BMatP= 3.69D-03
 IDIUse=3 WtCom= 9.72D-01 WtEn= 2.80D-02
 Coeff-Com:  0.763D-03 0.948D-03 0.488D+00 0.511D+00
 Coeff-En:   0.000D+00 0.000D+00 0.507D+00 0.493D+00
 Coeff:      0.742D-03 0.922D-03 0.488D+00 0.510D+00
 Gap=     0.053 Goal=   None    Shift=    0.000
 Gap=     0.051 Goal=   None    Shift=    0.000
 RMSDP=3.20D-03 MaxDP=1.93D-01 DE= 8.08D-05 OVMax= 4.68D-02

 Cycle   5  Pass 1  IDiag  1:
 E= -1136.10682264407     Delta-E=       -0.002471944346 Rises=F Damp=F
 DIIS: error= 7.05D-04 at cycle   5 NSaved=   5.
 NSaved= 5 IEnMin= 5 EnMin= -1136.10682264407     IErMin= 5 ErrMin= 7.05D-04
 ErrMax= 7.05D-04  0.00D+00 EMaxC= 1.00D-01 BMatC= 1.32D-04 BMatP= 3.36D-03
 IDIUse=3 WtCom= 9.93D-01 WtEn= 7.05D-03
 Coeff-Com:  0.767D-03-0.139D-02 0.290D+00 0.318D+00 0.392D+00
 Coeff-En:   0.000D+00 0.000D+00 0.000D+00 0.000D+00 0.100D+01
 Coeff:      0.762D-03-0.138D-02 0.288D+00 0.316D+00 0.396D+00
 Gap=     0.054 Goal=   None    Shift=    0.000
 Gap=     0.051 Goal=   None    Shift=    0.000
 RMSDP=5.99D-04 MaxDP=4.21D-02 DE=-2.47D-03 OVMax= 1.22D-02

 Cycle   6  Pass 1  IDiag  1:
 E= -1136.10696316138     Delta-E=       -0.000140517313 Rises=F Damp=F
 DIIS: error= 1.50D-04 at cycle   6 NSaved=   6.
 NSaved= 6 IEnMin= 6 EnMin= -1136.10696316138     IErMin= 6 ErrMin= 1.50D-04
 ErrMax= 1.50D-04  0.00D+00 EMaxC= 1.00D-01 BMatC= 4.87D-06 BMatP= 1.32D-04
 IDIUse=3 WtCom= 9.99D-01 WtEn= 1.50D-03
 Coeff-Com: -0.194D-02 0.221D-02 0.349D-01 0.403D-01 0.147D+00 0.777D+00
 Coeff-En:   0.000D+00 0.000D+00 0.000D+00 0.000D+00 0.000D+00 0.100D+01
 Coeff:     -0.193D-02 0.221D-02 0.349D-01 0.403D-01 0.147D+00 0.777D+00
 Gap=     0.054 Goal=   None    Shift=    0.000
 Gap=     0.051 Goal=   None    Shift=    0.000
 RMSDP=3.16D-04 MaxDP=2.36D-02 DE=-1.41D-04 OVMax= 4.21D-03

 Cycle   7  Pass 1  IDiag  1:
 E= -1136.10696713533     Delta-E=       -0.000003973954 Rises=F Damp=F
 DIIS: error= 9.30D-05 at cycle   7 NSaved=   7.
 NSaved= 7 IEnMin= 7 EnMin= -1136.10696713533     IErMin= 7 ErrMin= 9.30D-05
 ErrMax= 9.30D-05  0.00D+00 EMaxC= 1.00D-01 BMatC= 3.10D-06 BMatP= 4.87D-06
 IDIUse=1 WtCom= 1.00D+00 WtEn= 0.00D+00
 Coeff-Com: -0.157D-02 0.190D-02-0.436D-01-0.463D-01 0.116D-01 0.536D+00
 Coeff-Com:  0.542D+00
 Coeff:     -0.157D-02 0.190D-02-0.436D-01-0.463D-01 0.116D-01 0.536D+00
 Coeff:      0.542D+00
 Gap=     0.054 Goal=   None    Shift=    0.000
 Gap=     0.051 Goal=   None    Shift=    0.000
 RMSDP=1.49D-04 MaxDP=9.45D-03 DE=-3.97D-06 OVMax= 2.52D-03

 Cycle   8  Pass 1  IDiag  1:
 E= -1136.10697090764     Delta-E=       -0.000003772308 Rises=F Damp=F
 DIIS: error= 2.37D-05 at cycle   8 NSaved=   8.
 NSaved= 8 IEnMin= 8 EnMin= -1136.10697090764     IErMin= 8 ErrMin= 2.37D-05
 ErrMax= 2.37D-05  0.00D+00 EMaxC= 1.00D-01 BMatC= 1.72D-07 BMatP= 3.10D-06
 IDIUse=1 WtCom= 1.00D+00 WtEn= 0.00D+00
 Coeff-Com:  0.676D-04-0.128D-03-0.194D-01-0.207D-01-0.133D-01 0.613D-01
 Coeff-Com:  0.179D+00 0.813D+00
 Coeff:      0.676D-04-0.128D-03-0.194D-01-0.207D-01-0.133D-01 0.613D-01
 Coeff:      0.179D+00 0.813D+00
 Gap=     0.054 Goal=   None    Shift=    0.000
 Gap=     0.051 Goal=   None    Shift=    0.000
 RMSDP=6.42D-05 MaxDP=4.99D-03 DE=-3.77D-06 OVMax= 1.05D-03

 Cycle   9  Pass 1  IDiag  1:
 E= -1136.10697118817     Delta-E=       -0.000000280530 Rises=F Damp=F
 DIIS: error= 2.07D-05 at cycle   9 NSaved=   9.
 NSaved= 9 IEnMin= 9 EnMin= -1136.10697118817     IErMin= 9 ErrMin= 2.07D-05
 ErrMax= 2.07D-05  0.00D+00 EMaxC= 1.00D-01 BMatC= 1.19D-07 BMatP= 1.72D-07
 IDIUse=1 WtCom= 1.00D+00 WtEn= 0.00D+00
 Coeff-Com:  0.631D-03-0.815D-03-0.191D-02-0.207D-02-0.135D-01-0.111D+00
 Coeff-Com: -0.275D-01 0.574D+00 0.582D+00
 Coeff:      0.631D-03-0.815D-03-0.191D-02-0.207D-02-0.135D-01-0.111D+00
 Coeff:     -0.275D-01 0.574D+00 0.582D+00
 Gap=     0.054 Goal=   None    Shift=    0.000
 Gap=     0.052 Goal=   None    Shift=    0.000
 RMSDP=4.38D-05 MaxDP=3.25D-03 DE=-2.81D-07 OVMax= 4.95D-04

 Cycle  10  Pass 1  IDiag  1:
 E= -1136.10697137658     Delta-E=       -0.000000188407 Rises=F Damp=F
 DIIS: error= 5.57D-06 at cycle  10 NSaved=  10.
 NSaved=10 IEnMin=10 EnMin= -1136.10697137658     IErMin=10 ErrMin= 5.57D-06
 ErrMax= 5.57D-06  0.00D+00 EMaxC= 1.00D-01 BMatC= 6.78D-09 BMatP= 1.19D-07
 IDIUse=1 WtCom= 1.00D+00 WtEn= 0.00D+00
 Coeff-Com:  0.163D-03-0.203D-03 0.264D-02 0.259D-02-0.945D-03-0.193D-01
 Coeff-Com: -0.310D-01-0.664D-01 0.743D-01 0.104D+01
 Coeff:      0.163D-03-0.203D-03 0.264D-02 0.259D-02-0.945D-03-0.193D-01
 Coeff:     -0.310D-01-0.664D-01 0.743D-01 0.104D+01
 Gap=     0.054 Goal=   None    Shift=    0.000
 Gap=     0.052 Goal=   None    Shift=    0.000
 RMSDP=2.27D-05 MaxDP=1.72D-03 DE=-1.88D-07 OVMax= 2.85D-04

 Cycle  11  Pass 1  IDiag  1:
 E= -1136.10697141165     Delta-E=       -0.000000035067 Rises=F Damp=F
 DIIS: error= 2.96D-06 at cycle  11 NSaved=  11.
 NSaved=11 IEnMin=11 EnMin= -1136.10697141165     IErMin=11 ErrMin= 2.96D-06
 ErrMax= 2.96D-06  0.00D+00 EMaxC= 1.00D-01 BMatC= 1.65D-09 BMatP= 6.78D-09
 IDIUse=1 WtCom= 1.00D+00 WtEn= 0.00D+00
 Coeff-Com: -0.158D-03 0.210D-03 0.728D-03 0.721D-03 0.278D-02 0.178D-01
 Coeff-Com:  0.317D-02-0.108D+00-0.121D+00 0.301D-01 0.117D+01
 Coeff:     -0.158D-03 0.210D-03 0.728D-03 0.721D-03 0.278D-02 0.178D-01
 Coeff:      0.317D-02-0.108D+00-0.121D+00 0.301D-01 0.117D+01
 Gap=     0.054 Goal=   None    Shift=    0.000
 Gap=     0.052 Goal=   None    Shift=    0.000
 RMSDP=1.71D-05 MaxDP=1.49D-03 DE=-3.51D-08 OVMax= 2.22D-04

 Cycle  12  Pass 1  IDiag  1:
 E= -1136.10697142378     Delta-E=       -0.000000012137 Rises=F Damp=F
 DIIS: error= 1.56D-06 at cycle  12 NSaved=  12.
 NSaved=12 IEnMin=12 EnMin= -1136.10697142378     IErMin=12 ErrMin= 1.56D-06
 ErrMax= 1.56D-06  0.00D+00 EMaxC= 1.00D-01 BMatC= 4.86D-10 BMatP= 1.65D-09
 IDIUse=1 WtCom= 1.00D+00 WtEn= 0.00D+00
 Coeff-Com: -0.104D-03 0.134D-03-0.255D-03-0.200D-03 0.150D-02 0.127D-01
 Coeff-Com:  0.726D-02-0.351D-01-0.664D-01-0.202D+00 0.361D+00 0.921D+00
 Coeff:     -0.104D-03 0.134D-03-0.255D-03-0.200D-03 0.150D-02 0.127D-01
 Coeff:      0.726D-02-0.351D-01-0.664D-01-0.202D+00 0.361D+00 0.921D+00
 Gap=     0.054 Goal=   None    Shift=    0.000
 Gap=     0.052 Goal=   None    Shift=    0.000
 RMSDP=7.70D-06 MaxDP=5.85D-04 DE=-1.21D-08 OVMax= 1.18D-04

 Cycle  13  Pass 1  IDiag  1:
 E= -1136.10697142670     Delta-E=       -0.000000002919 Rises=F Damp=F
 DIIS: error= 8.78D-07 at cycle  13 NSaved=  13.
 NSaved=13 IEnMin=13 EnMin= -1136.10697142670     IErMin=13 ErrMin= 8.78D-07
 ErrMax= 8.78D-07  0.00D+00 EMaxC= 1.00D-01 BMatC= 8.96D-11 BMatP= 4.86D-10
 IDIUse=1 WtCom= 1.00D+00 WtEn= 0.00D+00
 Coeff-Com:  0.276D-04-0.374D-04-0.208D-03-0.195D-03-0.652D-03-0.333D-02
 Coeff-Com:  0.136D-03 0.266D-01 0.219D-01-0.550D-01-0.215D+00 0.706D-01
 Coeff-Com:  0.116D+01
 Coeff:      0.276D-04-0.374D-04-0.208D-03-0.195D-03-0.652D-03-0.333D-02
 Coeff:      0.136D-03 0.266D-01 0.219D-01-0.550D-01-0.215D+00 0.706D-01
 Coeff:      0.116D+01
 Gap=     0.054 Goal=   None    Shift=    0.000
 Gap=     0.052 Goal=   None    Shift=    0.000
 RMSDP=3.33D-06 MaxDP=2.03D-04 DE=-2.92D-09 OVMax= 6.84D-05

 Cycle  14  Pass 1  IDiag  1:
 E= -1136.10697142743     Delta-E=       -0.000000000730 Rises=F Damp=F
 DIIS: error= 3.28D-07 at cycle  14 NSaved=  14.
 NSaved=14 IEnMin=14 EnMin= -1136.10697142743     IErMin=14 ErrMin= 3.28D-07
 ErrMax= 3.28D-07  0.00D+00 EMaxC= 1.00D-01 BMatC= 1.43D-11 BMatP= 8.96D-11
 IDIUse=1 WtCom= 1.00D+00 WtEn= 0.00D+00
 Coeff-Com:  0.210D-04-0.271D-04 0.107D-04 0.389D-05-0.264D-03-0.216D-02
 Coeff-Com: -0.143D-02 0.756D-02 0.134D-01 0.337D-01-0.560D-01-0.186D+00
 Coeff-Com: -0.356D-01 0.123D+01
 Coeff:      0.210D-04-0.271D-04 0.107D-04 0.389D-05-0.264D-03-0.216D-02
 Coeff:     -0.143D-02 0.756D-02 0.134D-01 0.337D-01-0.560D-01-0.186D+00
 Coeff:     -0.356D-01 0.123D+01
 Gap=     0.054 Goal=   None    Shift=    0.000
 Gap=     0.052 Goal=   None    Shift=    0.000
 RMSDP=1.43D-06 MaxDP=1.32D-04 DE=-7.30D-10 OVMax= 2.88D-05

 Cycle  15  Pass 1  IDiag  1:
 E= -1136.10697142755     Delta-E=       -0.000000000122 Rises=F Damp=F
 DIIS: error= 8.50D-08 at cycle  15 NSaved=  15.
 NSaved=15 IEnMin=15 EnMin= -1136.10697142755     IErMin=15 ErrMin= 8.50D-08
 ErrMax= 8.50D-08  0.00D+00 EMaxC= 1.00D-01 BMatC= 1.61D-12 BMatP= 1.43D-11
 IDIUse=1 WtCom= 1.00D+00 WtEn= 0.00D+00
 Coeff-Com: -0.472D-05 0.641D-05 0.184D-04 0.168D-04 0.854D-04 0.331D-03
 Coeff-Com:  0.102D-03-0.248D-02-0.291D-02 0.220D-03 0.320D-01 0.649D-02
 Coeff-Com: -0.148D+00-0.782D-01 0.119D+01
 Coeff:     -0.472D-05 0.641D-05 0.184D-04 0.168D-04 0.854D-04 0.331D-03
 Coeff:      0.102D-03-0.248D-02-0.291D-02 0.220D-03 0.320D-01 0.649D-02
 Coeff:     -0.148D+00-0.782D-01 0.119D+01
 Gap=     0.054 Goal=   None    Shift=    0.000
 Gap=     0.052 Goal=   None    Shift=    0.000
 RMSDP=5.26D-07 MaxDP=5.65D-05 DE=-1.22D-10 OVMax= 9.88D-06

 Cycle  16  Pass 1  IDiag  1:
 E= -1136.10697142757     Delta-E=       -0.000000000012 Rises=F Damp=F
 DIIS: error= 2.68D-08 at cycle  16 NSaved=  16.
 NSaved=16 IEnMin=16 EnMin= -1136.10697142757     IErMin=16 ErrMin= 2.68D-08
 ErrMax= 2.68D-08  0.00D+00 EMaxC= 1.00D-01 BMatC= 2.67D-13 BMatP= 1.61D-12
 IDIUse=1 WtCom= 1.00D+00 WtEn= 0.00D+00
 Coeff-Com: -0.259D-05 0.333D-05-0.883D-06-0.546D-06 0.207D-04 0.255D-03
 Coeff-Com:  0.195D-03-0.670D-03-0.160D-02-0.611D-02 0.465D-02 0.287D-01
 Coeff-Com:  0.279D-01-0.190D+00-0.132D+00 0.127D+01
 Coeff:     -0.259D-05 0.333D-05-0.883D-06-0.546D-06 0.207D-04 0.255D-03
 Coeff:      0.195D-03-0.670D-03-0.160D-02-0.611D-02 0.465D-02 0.287D-01
 Coeff:      0.279D-01-0.190D+00-0.132D+00 0.127D+01
 Gap=     0.054 Goal=   None    Shift=    0.000
 Gap=     0.052 Goal=   None    Shift=    0.000
 RMSDP=2.02D-07 MaxDP=1.68D-05 DE=-1.18D-11 OVMax= 3.69D-06

 Cycle  17  Pass 1  IDiag  1:
 E= -1136.10697142756     Delta-E=        0.000000000004 Rises=F Damp=F
 DIIS: error= 9.65D-09 at cycle  17 NSaved=  17.
 NSaved=17 IEnMin=16 EnMin= -1136.10697142757     IErMin=17 ErrMin= 9.65D-09
 ErrMax= 9.65D-09  0.00D+00 EMaxC= 1.00D-01 BMatC= 3.81D-14 BMatP= 2.67D-13
 IDIUse=1 WtCom= 1.00D+00 WtEn= 0.00D+00
 Coeff-Com:  0.557D-06-0.770D-06-0.211D-05-0.174D-05-0.646D-05 0.843D-06
 Coeff-Com: -0.109D-04 0.160D-03 0.267D-03 0.160D-03-0.346D-02-0.180D-02
 Coeff-Com:  0.182D-01 0.186D-01-0.208D+00 0.123D+00 0.105D+01
 Coeff:      0.557D-06-0.770D-06-0.211D-05-0.174D-05-0.646D-05 0.843D-06
 Coeff:     -0.109D-04 0.160D-03 0.267D-03 0.160D-03-0.346D-02-0.180D-02
 Coeff:      0.182D-01 0.186D-01-0.208D+00 0.123D+00 0.105D+01
 Gap=     0.054 Goal=   None    Shift=    0.000
 Gap=     0.052 Goal=   None    Shift=    0.000
 RMSDP=5.34D-08 MaxDP=3.67D-06 DE= 4.32D-12 OVMax= 1.11D-06

 Cycle  18  Pass 1  IDiag  1:
 E= -1136.10697142757     Delta-E=       -0.000000000006 Rises=F Damp=F
 DIIS: error= 4.71D-09 at cycle  18 NSaved=  18.
 NSaved=18 IEnMin=18 EnMin= -1136.10697142757     IErMin=18 ErrMin= 4.71D-09
 ErrMax= 4.71D-09  0.00D+00 EMaxC= 1.00D-01 BMatC= 7.24D-15 BMatP= 3.81D-14
 IDIUse=1 WtCom= 1.00D+00 WtEn= 0.00D+00
 Coeff-Com:  0.502D-06-0.659D-06-0.618D-06-0.496D-06-0.413D-05-0.458D-04
 Coeff-Com: -0.245D-04 0.171D-03 0.311D-03 0.636D-03-0.175D-02-0.341D-02
 Coeff-Com:  0.245D-02 0.235D-01-0.199D-01-0.157D+00 0.256D+00 0.898D+00
 Coeff:      0.502D-06-0.659D-06-0.618D-06-0.496D-06-0.413D-05-0.458D-04
 Coeff:     -0.245D-04 0.171D-03 0.311D-03 0.636D-03-0.175D-02-0.341D-02
 Coeff:      0.245D-02 0.235D-01-0.199D-01-0.157D+00 0.256D+00 0.898D+00
 Gap=     0.054 Goal=   None    Shift=    0.000
 Gap=     0.052 Goal=   None    Shift=    0.000
 RMSDP=1.23D-08 MaxDP=6.01D-07 DE=-6.14D-12 OVMax= 3.53D-07

 Cycle  19  Pass 1  IDiag  1:
 E= -1136.10697142756     Delta-E=        0.000000000007 Rises=F Damp=F
 DIIS: error= 1.68D-09 at cycle  19 NSaved=  19.
 NSaved=19 IEnMin=18 EnMin= -1136.10697142757     IErMin=19 ErrMin= 1.68D-09
 ErrMax= 1.68D-09  0.00D+00 EMaxC= 1.00D-01 BMatC= 9.50D-16 BMatP= 7.24D-15
 IDIUse=1 WtCom= 1.00D+00 WtEn= 0.00D+00
 Large coefficients: NSaved= 19 BigCof=    0.00 CofMax=   10.00 Det=-3.43D-15
 Inversion failed.  Reducing to 18 matrices.
 Large coefficients: NSaved= 18 BigCof=    0.00 CofMax=   10.00 Det=-4.18D-15
 Inversion failed.  Reducing to 17 matrices.
 Large coefficients: NSaved= 17 BigCof=    0.00 CofMax=   10.00 Det=-4.25D-15
 Inversion failed.  Reducing to 16 matrices.
 Large coefficients: NSaved= 16 BigCof=    0.00 CofMax=   10.00 Det=-4.26D-15
 Inversion failed.  Reducing to 15 matrices.
 Coeff-Com: -0.146D-06-0.484D-05-0.175D-05-0.711D-05 0.391D-05 0.134D-03
 Coeff-Com:  0.436D-03-0.690D-03-0.329D-02 0.355D-02 0.277D-01-0.535D-01
 Coeff-Com: -0.115D+00 0.135D+00 0.101D+01
 Coeff:     -0.146D-06-0.484D-05-0.175D-05-0.711D-05 0.391D-05 0.134D-03
 Coeff:      0.436D-03-0.690D-03-0.329D-02 0.355D-02 0.277D-01-0.535D-01
 Coeff:     -0.115D+00 0.135D+00 0.101D+01
 Gap=     0.054 Goal=   None    Shift=    0.000
 Gap=     0.052 Goal=   None    Shift=    0.000
 RMSDP=7.44D-09 MaxDP=3.91D-07 DE= 7.28D-12 OVMax= 1.45D-07

 SCF Done:  E(UB3LYP) =  -1136.10697143     A.U. after   19 cycles
            NFock= 19  Conv=0.74D-08     -V/T= 2.0025
 <Sx>= 0.0000 <Sy>= 0.0000 <Sz>= 0.5000 <S**2>= 0.7601 S= 0.5050
 <L.S>= 0.000000000000E+00
 KE= 1.133285460845D+03 PE=-3.488156801968D+03 EE= 8.394591526969D+02
 Annihilation of the first spin contaminant:
 S**2 before annihilation     0.7601,   after     0.7501
 Leave Link  502 at Mon Nov 13 16:50:15 2023, MaxMem=  1879048192 cpu:             191.0 elap:              16.4
 (Enter /home/sekinelabo/g16/l601.exe)
 Copying SCF densities to generalized density rwf, IOpCl= 1 IROHF=0.

 **********************************************************************

            Population analysis using the SCF Density.

 **********************************************************************

 Orbital symmetries:
 Alpha Orbitals:
       Occupied  (A) (A) (A) (A) (A) (A) (A) (A) (A) (A) (A) (A)
                 (A) (A) (A) (A) (A) (A) (A) (A) (A) (A) (A) (A)
                 (A) (A) (A) (A) (A) (A) (A) (A) (A) (A) (A) (A)
                 (A) (A) (A)
       Virtual   (A) (A) (A) (A) (A) (A) (A) (A) (A) (A) (A) (A)
                 (A) (A) (A) (A) (A) (A) (A) (A) (A) (A) (A) (A)
                 (A) (A) (A) (A) (A) (A) (A) (A) (A) (A) (A) (A)
                 (A) (A) (A) (A) (A) (A) (A) (A) (A) (A) (A) (A)
                 (A) (A) (A) (A) (A) (A) (A) (A) (A) (A) (A) (A)
                 (A) (A) (A) (A) (A) (A) (A) (A) (A) (A) (A) (A)
                 (A) (A) (A) (A) (A) (A) (A) (A) (A) (A) (A) (A)
                 (A) (A) (A) (A) (A) (A) (A) (A) (A) (A) (A) (A)
                 (A) (A) (A) (A) (A) (A) (A) (A) (A) (A) (A) (A)
                 (A) (A) (A) (A) (A) (A) (A) (A) (A) (A) (A) (A)
                 (A) (A) (A) (A) (A) (A) (A) (A) (A) (A) (A) (A)
                 (A) (A) (A) (A) (A) (A) (A) (A) (A) (A) (A) (A)
                 (A) (A) (A) (A) (A) (A) (A) (A) (A) (A) (A) (A)
                 (A) (A) (A) (A) (A) (A) (A) (A) (A) (A) (A) (A)
                 (A) (A) (A)
 Beta  Orbitals:
       Occupied  (A) (A) (A) (A) (A) (A) (A) (A) (A) (A) (A) (A)
                 (A) (A) (A) (A) (A) (A) (A) (A) (A) (A) (A) (A)
                 (A) (A) (A) (A) (A) (A) (A) (A) (A) (A) (A) (A)
                 (A) (A)
       Virtual   (A) (A) (A) (A) (A) (A) (A) (A) (A) (A) (A) (A)
                 (A) (A) (A) (A) (A) (A) (A) (A) (A) (A) (A) (A)
                 (A) (A) (A) (A) (A) (A) (A) (A) (A) (A) (A) (A)
                 (A) (A) (A) (A) (A) (A) (A) (A) (A) (A) (A) (A)
                 (A) (A) (A) (A) (A) (A) (A) (A) (A) (A) (A) (A)
                 (A) (A) (A) (A) (A) (A) (A) (A) (A) (A) (A) (A)
                 (A) (A) (A) (A) (A) (A) (A) (A) (A) (A) (A) (A)
                 (A) (A) (A) (A) (A) (A) (A) (A) (A) (A) (A) (A)
                 (A) (A) (A) (A) (A) (A) (A) (A) (A) (A) (A) (A)
                 (A) (A) (A) (A) (A) (A) (A) (A) (A) (A) (A) (A)
                 (A) (A) (A) (A) (A) (A) (A) (A) (A) (A) (A) (A)
                 (A) (A) (A) (A) (A) (A) (A) (A) (A) (A) (A) (A)
                 (A) (A) (A) (A) (A) (A) (A) (A) (A) (A) (A) (A)
                 (A) (A) (A) (A) (A) (A) (A) (A) (A) (A) (A) (A)
                 (A) (A) (A) (A)
 The electronic state is 2-A.
 Alpha  occ. eigenvalues --  -38.44300 -38.44184 -38.44033 -38.43827 -38.43398
 Alpha  occ. eigenvalues --  -38.43376 -38.43065  -2.20298  -2.20156  -2.20034
 Alpha  occ. eigenvalues --   -2.19803  -2.19585  -2.19469  -2.19042  -1.14057
 Alpha  occ. eigenvalues --   -1.13995  -1.13919  -1.13909  -1.13859  -1.13784
 Alpha  occ. eigenvalues --   -1.13728  -1.13693  -1.13627  -1.13576  -1.13466
 Alpha  occ. eigenvalues --   -1.13413  -1.13318  -1.13233  -1.13185  -1.13092
 Alpha  occ. eigenvalues --   -1.13081  -1.13058  -1.12714  -1.12688  -1.12662
 Alpha  occ. eigenvalues --   -0.20144  -0.14301  -0.12543  -0.11224
 Alpha virt. eigenvalues --   -0.05816  -0.05089  -0.04200  -0.03814  -0.02765
 Alpha virt. eigenvalues --   -0.02264  -0.01531  -0.00645  -0.00149   0.00260
 Alpha virt. eigenvalues --    0.00337   0.00380   0.00809   0.00927   0.00937
 Alpha virt. eigenvalues --    0.01059   0.01129   0.01188   0.01365   0.01429
 Alpha virt. eigenvalues --    0.01581   0.01659   0.01868   0.01925   0.02123
 Alpha virt. eigenvalues --    0.02430   0.02491   0.02814   0.02822   0.02858
 Alpha virt. eigenvalues --    0.02910   0.02948   0.03055   0.03085   0.03176
 Alpha virt. eigenvalues --    0.03193   0.03288   0.03423   0.03768   0.03920
 Alpha virt. eigenvalues --    0.04201   0.04400   0.04682   0.04889   0.05021
 Alpha virt. eigenvalues --    0.05462   0.05634   0.05745   0.05897   0.06167
 Alpha virt. eigenvalues --    0.06498   0.06985   0.07112   0.07323   0.07488
 Alpha virt. eigenvalues --    0.07601   0.07966   0.08168   0.08602   0.08797
 Alpha virt. eigenvalues --    0.09229   0.10054   0.10417   0.11359   0.11879
 Alpha virt. eigenvalues --    0.12574   0.12713   0.13089   0.13527   0.13862
 Alpha virt. eigenvalues --    0.13909   0.14433   0.14569   0.14891   0.15131
 Alpha virt. eigenvalues --    0.15539   0.16126   0.16869   0.17518   0.20160
 Alpha virt. eigenvalues --    0.23673   0.25051   0.26788   0.27802   0.28611
 Alpha virt. eigenvalues --    0.28937   0.30870   0.32005   0.32298   0.33664
 Alpha virt. eigenvalues --    0.34729   0.35489   0.36293   0.37150   0.37893
 Alpha virt. eigenvalues --    0.39534   0.40894   0.41337   0.43067   0.44145
 Alpha virt. eigenvalues --    0.44473   0.44813   0.44907   0.45530   0.45648
 Alpha virt. eigenvalues --    0.46214   0.46465   0.46846   0.47462   0.48082
 Alpha virt. eigenvalues --    0.48874   0.49360   0.49974   0.50699   0.51202
 Alpha virt. eigenvalues --    0.51572   0.51691   0.52822   0.53127   0.53998
 Alpha virt. eigenvalues --    0.54649   0.55904   0.57645   0.59439   0.65183
 Alpha virt. eigenvalues --    0.66189   0.67098   0.68517   0.69725   0.70961
 Alpha virt. eigenvalues --    0.73871   0.75160   0.75867   0.76152   0.79335
 Alpha virt. eigenvalues --    0.81373   2.09708   2.17431   2.20488   2.23769
 Alpha virt. eigenvalues --    2.25978   2.29396   2.36241   4.40465   4.41062
 Alpha virt. eigenvalues --    4.41284   4.41986   4.42992   4.43406   4.43826
 Alpha virt. eigenvalues --    4.45275   4.47774   4.49154   4.49965   4.57212
 Alpha virt. eigenvalues --    4.59979   4.62147   4.64019   4.66968   4.70490
 Alpha virt. eigenvalues --    4.72926   4.76743   4.78261   4.82357  96.30314
 Alpha virt. eigenvalues --   96.41111  96.44908  96.49955  96.52812  96.57097
 Alpha virt. eigenvalues --   96.66828
  Beta  occ. eigenvalues --  -38.44257 -38.44181 -38.43986 -38.43820 -38.43366
  Beta  occ. eigenvalues --  -38.43307 -38.43057  -2.20223  -2.20154  -2.19948
  Beta  occ. eigenvalues --   -2.19792  -2.19464  -2.19415  -2.19031  -1.14013
  Beta  occ. eigenvalues --   -1.13921  -1.13900  -1.13859  -1.13858  -1.13767
  Beta  occ. eigenvalues --   -1.13664  -1.13630  -1.13562  -1.13559  -1.13443
  Beta  occ. eigenvalues --   -1.13402  -1.13258  -1.13156  -1.13089  -1.13051
  Beta  occ. eigenvalues --   -1.13029  -1.12992  -1.12705  -1.12674  -1.12631
  Beta  occ. eigenvalues --   -0.19440  -0.14056  -0.12293
  Beta virt. eigenvalues --   -0.07142  -0.05718  -0.04992  -0.04066  -0.03169
  Beta virt. eigenvalues --   -0.02071  -0.01501  -0.01147  -0.00576   0.00084
  Beta virt. eigenvalues --    0.00251   0.00394   0.00406   0.00864   0.00952
  Beta virt. eigenvalues --    0.01000   0.01190   0.01248   0.01295   0.01484
  Beta virt. eigenvalues --    0.01617   0.01722   0.01746   0.01978   0.01990
  Beta virt. eigenvalues --    0.02319   0.02446   0.02498   0.02820   0.02837
  Beta virt. eigenvalues --    0.02889   0.02995   0.03002   0.03134   0.03169
  Beta virt. eigenvalues --    0.03238   0.03295   0.03368   0.03539   0.03859
  Beta virt. eigenvalues --    0.04116   0.04355   0.04484   0.04810   0.05050
  Beta virt. eigenvalues --    0.05169   0.05586   0.05726   0.05894   0.06002
  Beta virt. eigenvalues --    0.06460   0.06598   0.07012   0.07224   0.07483
  Beta virt. eigenvalues --    0.07582   0.07676   0.07986   0.08222   0.08758
  Beta virt. eigenvalues --    0.09017   0.09429   0.10301   0.10654   0.11656
  Beta virt. eigenvalues --    0.12190   0.12777   0.12963   0.13433   0.13741
  Beta virt. eigenvalues --    0.14007   0.14087   0.14713   0.14770   0.15006
  Beta virt. eigenvalues --    0.15390   0.15793   0.16370   0.17169   0.17851
  Beta virt. eigenvalues --    0.20328   0.23968   0.25392   0.26938   0.28122
  Beta virt. eigenvalues --    0.28821   0.29234   0.31180   0.32259   0.32544
  Beta virt. eigenvalues --    0.33954   0.35139   0.35741   0.36519   0.37469
  Beta virt. eigenvalues --    0.38321   0.39726   0.41210   0.41552   0.43331
  Beta virt. eigenvalues --    0.44299   0.44670   0.44993   0.45119   0.45739
  Beta virt. eigenvalues --    0.45780   0.46306   0.46711   0.46951   0.47670
  Beta virt. eigenvalues --    0.48290   0.49049   0.49570   0.50136   0.50958
  Beta virt. eigenvalues --    0.51371   0.51832   0.51898   0.52959   0.53421
  Beta virt. eigenvalues --    0.54238   0.54817   0.56161   0.57776   0.59659
  Beta virt. eigenvalues --    0.65238   0.66379   0.67370   0.68675   0.69996
  Beta virt. eigenvalues --    0.71120   0.74166   0.75263   0.75991   0.76357
  Beta virt. eigenvalues --    0.79451   0.81492   2.09804   2.17504   2.20536
  Beta virt. eigenvalues --    2.23920   2.26031   2.29552   2.36476   4.40539
  Beta virt. eigenvalues --    4.41101   4.41340   4.42053   4.43047   4.43471
  Beta virt. eigenvalues --    4.43887   4.45292   4.47822   4.49232   4.50001
  Beta virt. eigenvalues --    4.57301   4.60040   4.62185   4.64052   4.67028
  Beta virt. eigenvalues --    4.70534   4.72977   4.76787   4.78292   4.82413
  Beta virt. eigenvalues --   96.30349  96.41139  96.44927  96.50001  96.52830
  Beta virt. eigenvalues --   96.57149  96.66902
          Condensed to atoms (all electrons):
               1          2          3          4          5          6
     1  Na  12.964138  -1.640895   0.310653   0.679345  -1.076463   0.428673
     2  Na  -1.640895  16.167959  -1.463963  -2.733058   2.485556   0.476158
     3  Na   0.310653  -1.463963  13.502772  -0.161642  -0.411877  -0.549158
     4  Na   0.679345  -2.733058  -0.161642  13.626201  -1.608166  -0.494647
     5  Na  -1.076463   2.485556  -0.411877  -1.608166  12.771292  -0.493488
     6  Na   0.428673   0.476158  -0.549158  -0.494647  -0.493488  12.166994
     7  Na   0.259114  -2.089071  -0.605876   1.753345  -0.952614  -0.435112
               7
     1  Na   0.259114
     2  Na  -2.089071
     3  Na  -0.605876
     4  Na   1.753345
     5  Na  -0.952614
     6  Na  -0.435112
     7  Na  12.447016
          Atomic-Atomic Spin Densities.
               1          2          3          4          5          6
     1  Na   0.873342  -1.143442   0.293314   0.089572  -0.327571  -0.179382
     2  Na  -1.143442   2.195068  -0.805220  -0.107140   0.473505   0.464124
     3  Na   0.293314  -0.805220   0.692513  -0.098679  -0.056409  -0.160073
     4  Na   0.089572  -0.107140  -0.098679   0.006805   0.093264  -0.079451
     5  Na  -0.327571   0.473505  -0.056409   0.093264  -0.001154   0.213612
     6  Na  -0.179382   0.464124  -0.160073  -0.079451   0.213612  -0.048957
     7  Na   0.403224  -0.486175   0.202705   0.099199  -0.114989  -0.169266
               7
     1  Na   0.403224
     2  Na  -0.486175
     3  Na   0.202705
     4  Na   0.099199
     5  Na  -0.114989
     6  Na  -0.169266
     7  Na   0.072939
 Mulliken charges and spin densities:
               1          2
     1  Na  -0.924564   0.009058
     2  Na  -0.202686   0.590720
     3  Na   0.379091   0.068151
     4  Na  -0.061377   0.003570
     5  Na   0.285759   0.280258
     6  Na  -0.099419   0.040607
     7  Na   0.623197   0.007636
 Sum of Mulliken charges =  -0.00000   1.00000
 Mulliken charges and spin densities with hydrogens summed into heavy atoms:
               1          2
     1  Na  -0.924564   0.009058
     2  Na  -0.202686   0.590720
     3  Na   0.379091   0.068151
     4  Na  -0.061377   0.003570
     5  Na   0.285759   0.280258
     6  Na  -0.099419   0.040607
     7  Na   0.623197   0.007636
 Electronic spatial extent (au):  <R**2>=           1900.8208
 Charge=             -0.0000 electrons
 Dipole moment (field-independent basis, Debye):
    X=              0.0496    Y=             -0.0348    Z=             -0.1940  Tot=              0.2033
 Quadrupole moment (field-independent basis, Debye-Ang):
   XX=            -54.6248   YY=            -69.7294   ZZ=            -71.5949
   XY=             -0.0155   XZ=             -1.9715   YZ=             -0.8630
 Traceless Quadrupole moment (field-independent basis, Debye-Ang):
   XX=             10.6916   YY=             -4.4130   ZZ=             -6.2786
   XY=             -0.0155   XZ=             -1.9715   YZ=             -0.8630
 Octapole moment (field-independent basis, Debye-Ang**2):
  XXX=              5.8929  YYY=              2.8984  ZZZ=              1.8769  XYY=              5.7822
  XXY=             -3.2518  XXZ=              0.4238  XZZ=             -6.7897  YZZ=             -2.6621
  YYZ=             -3.5065  XYZ=              4.3352
 Hexadecapole moment (field-independent basis, Debye-Ang**3):
 XXXX=          -1383.2947 YYYY=          -1181.4666 ZZZZ=           -684.6522 XXXY=             18.2168
 XXXZ=            -49.3522 YYYX=            -17.5403 YYYZ=             15.0391 ZZZX=              1.3871
 ZZZY=             -8.6674 XXYY=           -416.2687 XXZZ=           -352.4262 YYZZ=           -318.9268
 XXYZ=            -33.6019 YYXZ=            -10.8030 ZZXY=              1.5765
 N-N= 3.793052169982D+02 E-N=-3.488156801850D+03  KE= 1.133285460845D+03
                          Isotropic Fermi Contact Couplings
        Atom                 a.u.       MegaHertz       Gauss      10(-4) cm-1
     1  Na(23)             0.24609     291.13093     103.88276      97.11083
     2  Na(23)             0.07462      88.27721      31.49950      29.44611
     3  Na(23)             0.13279     157.09831      56.05658      52.40236
     4  Na(23)             0.18306     216.57082      77.27786      72.24025
     5  Na(23)            -0.01351     -15.98756      -5.70476      -5.33288
     6  Na(23)            -0.01224     -14.48400      -5.16825      -4.83134
     7  Na(23)             0.00603       7.12888       2.54376       2.37794
 --------------------------------------------------------
       Center         ----  Spin Dipole Couplings  ----
                      3XX-RR        3YY-RR        3ZZ-RR
 --------------------------------------------------------
     1   Atom        0.005622     -0.012357      0.006735
     2   Atom       -0.022396     -0.014810      0.037205
     3   Atom        0.007224     -0.020015      0.012790
     4   Atom       -0.000943     -0.005793      0.006736
     5   Atom       -0.020669     -0.015724      0.036393
     6   Atom       -0.007390     -0.011863      0.019254
     7   Atom       -0.008896     -0.010239      0.019135
 --------------------------------------------------------
                        XY            XZ            YZ
 --------------------------------------------------------
     1   Atom        0.007141     -0.026015     -0.001579
     2   Atom        0.000568     -0.001622     -0.024106
     3   Atom        0.003581      0.033951      0.006243
     4   Atom       -0.003422     -0.013555      0.010505
     5   Atom       -0.002107      0.010597     -0.008639
     6   Atom        0.002732     -0.002745      0.005650
     7   Atom       -0.001691      0.004547     -0.002750
 --------------------------------------------------------


 ---------------------------------------------------------------------------------
              Anisotropic Spin Dipole Couplings in Principal Axis System
 ---------------------------------------------------------------------------------

       Atom             a.u.   MegaHertz   Gauss  10(-4) cm-1        Axes

              Baa    -0.0217    -3.063    -1.093    -1.022  0.6811 -0.4195  0.6000
     1 Na(23) Bbb    -0.0113    -1.601    -0.571    -0.534  0.2133  0.8977  0.3855
              Bcc     0.0330     4.664     1.664     1.556 -0.7004 -0.1346  0.7010
 
              Baa    -0.0243    -3.427    -1.223    -1.143  0.0348  0.9301  0.3657
     2 Na(23) Bbb    -0.0224    -3.168    -1.131    -1.057  0.9991 -0.0415  0.0104
              Bcc     0.0467     6.595     2.353     2.200 -0.0248 -0.3650  0.9307
 
              Baa    -0.0247    -3.488    -1.245    -1.163 -0.6560 -0.3729  0.6562
     3 Na(23) Bbb    -0.0201    -2.843    -1.014    -0.948 -0.3439  0.9216  0.1799
              Bcc     0.0448     6.331     2.259     2.112  0.6718  0.1077  0.7328
 
              Baa    -0.0140    -1.974    -0.704    -0.658  0.4962 -0.5990  0.6285
     4 Na(23) Bbb    -0.0071    -1.006    -0.359    -0.335  0.6892  0.7120  0.1344
              Bcc     0.0211     2.980     1.063     0.994 -0.5280  0.3664  0.7661
 
              Baa    -0.0226    -3.195    -1.140    -1.066  0.9820  0.0968 -0.1621
     5 Na(23) Bbb    -0.0171    -2.414    -0.861    -0.805 -0.0685  0.9827  0.1723
              Bcc     0.0397     5.609     2.001     1.871  0.1760 -0.1581  0.9716
 
              Baa    -0.0143    -2.024    -0.722    -0.675 -0.4221  0.8877 -0.1838
     6 Na(23) Bbb    -0.0061    -0.861    -0.307    -0.287  0.9030  0.4297  0.0020
              Bcc     0.0204     2.885     1.029     0.962 -0.0808  0.1652  0.9830
 
              Baa    -0.0114    -1.608    -0.574    -0.537  0.5763  0.8172 -0.0122
     7 Na(23) Bbb    -0.0088    -1.237    -0.441    -0.412  0.8015 -0.5680 -0.1867
              Bcc     0.0201     2.845     1.015     0.949  0.1595 -0.0978  0.9823
 

 ---------------------------------------------------------------------------------

 No NMR shielding tensors so no spin-rotation constants.
 Leave Link  601 at Mon Nov 13 16:50:16 2023, MaxMem=  1879048192 cpu:               5.1 elap:               0.3
 (Enter /home/sekinelabo/g16/l701.exe)
 ... and contract with generalized density number  0.
 Compute integral first derivatives.
 Leave Link  701 at Mon Nov 13 16:50:16 2023, MaxMem=  1879048192 cpu:               1.7 elap:               0.1
 (Enter /home/sekinelabo/g16/l702.exe)
 L702 exits ... SP integral derivatives will be done elsewhere.
 Leave Link  702 at Mon Nov 13 16:50:16 2023, MaxMem=  1879048192 cpu:               0.5 elap:               0.0
 (Enter /home/sekinelabo/g16/l703.exe)
 Integral derivatives from FoFJK, PRISM(SPDF).
 Compute integral first derivatives, UseDBF=F ICtDFT=           0.
 Calling FoFJK, ICntrl=      2127 FMM=F ISym2X=0 I1Cent= 0 IOpClX= 1 NMat=1 NMatS=1 NMatT=0.
 FoFJK:  IHMeth= 1 ICntrl=    2127 DoSepK=F KAlg= 0 I1Cent=           0 FoldK=F
 IRaf=         0 NMat=       1 IRICut=       1 DoRegI=T DoRafI=F ISym2E= 0 IDoP0=0 IntGTp=1.
 FoFCou: FMM=F IPFlag=           0 FMFlag=      100000 FMFlg1=         800
         NFxFlg=           0 DoJE=F BraDBF=F KetDBF=F FulRan=T
         wScrn=  0.000000 ICntrl=      2127 IOpCl=  1 I1Cent=           0 NGrid=           0
         NMat0=    1 NMatS0=      1 NMatT0=    0 NMatD0=    1 NMtDS0=    0 NMtDT0=    0
 Symmetry not used in FoFCou.
 Leave Link  703 at Mon Nov 13 16:50:18 2023, MaxMem=  1879048192 cpu:              37.5 elap:               2.4
 (Enter /home/sekinelabo/g16/l716.exe)
 Dipole        = 1.95047824D-02-1.36998432D-02-7.63443611D-02
 ***** Axes restored to original set *****
 -------------------------------------------------------------------
 Center     Atomic                   Forces (Hartrees/Bohr)
 Number     Number              X              Y              Z
 -------------------------------------------------------------------
      1       11           0.000490063    0.000481955   -0.014894068
      2       11           0.000298406    0.010120861    0.010445910
      3       11          -0.008972753    0.003181714   -0.009744327
      4       11          -0.005653859   -0.005654022    0.009295152
      5       11          -0.003267235   -0.011866325   -0.001640391
      6       11           0.008027155   -0.007439406    0.004001748
      7       11           0.009078223    0.011175223    0.002535977
 -------------------------------------------------------------------
 Cartesian Forces:  Max     0.014894068 RMS     0.007787546
 Z-matrix is all fixed cartesians, so copy forces.
 Force constants in Cartesian coordinates: 
                1             2             3             4             5 
      1  0.168144D+00
      2  0.223385D-02  0.155344D+00
      3 -0.601475D-02 -0.908164D-02  0.227973D+00
      4 -0.232664D-01  0.573583D-02  0.760758D-02  0.117604D+00
      5 -0.336522D-02 -0.309214D-01 -0.135921D-03  0.839690D-02  0.118217D+00
      6  0.554256D-02 -0.190985D-01 -0.492036D-01 -0.870151D-02  0.306384D-01
      7 -0.455672D-01  0.611950D-02 -0.167749D-01 -0.276374D-01  0.374208D-02
      8  0.241757D-02 -0.293752D-01  0.784671D-02 -0.167392D-01 -0.102913D-01
      9  0.280174D-01 -0.429169D-02 -0.351554D-01 -0.204924D-01  0.417639D-03
     10 -0.116172D-01 -0.673210D-02  0.196161D-02 -0.297981D-01 -0.250638D-02
     11 -0.249828D-02 -0.286185D-02 -0.434160D-03 -0.165421D-01 -0.426508D-01
     12  0.892186D-02  0.695336D-02 -0.241789D-01 -0.326386D-02 -0.184838D-01
     13 -0.263719D-01 -0.500767D-02 -0.479617D-04  0.487904D-02 -0.779613D-03
     14 -0.302288D-02 -0.376984D-01 -0.463908D-02  0.368395D-02 -0.679796D-02
     15  0.784262D-02  0.282944D-01 -0.327533D-01 -0.978619D-03 -0.590201D-02
     16 -0.320197D-01  0.316422D-02  0.820146D-02 -0.144574D-02  0.914896D-02
     17  0.887588D-02 -0.259171D-01  0.412204D-02  0.278054D-02 -0.123966D-02
     18 -0.200949D-01  0.199055D-01 -0.452544D-01  0.451095D-02 -0.549359D-02
     19 -0.293015D-01 -0.551363D-02  0.506695D-02 -0.403357D-01 -0.146367D-01
     20 -0.464093D-02 -0.285703D-01  0.232205D-02  0.126841D-01 -0.263161D-01
     21 -0.242148D-01 -0.226815D-01 -0.414275D-01  0.213179D-01 -0.104076D-02
                6             7             8             9            10 
      6  0.113955D+00
      7 -0.637938D-02  0.906583D-01
      8 -0.181491D-01 -0.674220D-02  0.547752D-01
      9 -0.380519D-01  0.185434D-01 -0.130736D-01  0.920612D-01
     10  0.164666D-01 -0.160732D-01  0.141374D-01 -0.156893D-01  0.917664D-01
     11  0.138191D-01 -0.612538D-02 -0.186520D-01  0.147674D-01  0.976631D-02
     12 -0.156171D-01  0.138929D-01  0.192176D-01 -0.373540D-01 -0.251627D-01
     13 -0.258307D-02  0.113402D-02  0.819984D-02 -0.219830D-02 -0.271282D-01
     14 -0.122519D-02  0.266503D-02 -0.434061D-02 -0.806503D-03 -0.105538D-01
     15  0.432356D-02 -0.398366D-02  0.433497D-02  0.428237D-02  0.129192D-01
     16 -0.134082D-02  0.359444D-03  0.322325D-02 -0.521216D-02 -0.524493D-02
     17  0.221456D-02  0.619802D-03  0.247343D-02 -0.269482D-03  0.332950D-02
     18  0.432131D-02  0.123004D-04 -0.185514D-02  0.645442D-02  0.648717D-02
     19 -0.300437D-02 -0.287399D-02 -0.449670D-02 -0.296857D-02 -0.190488D-02
     20 -0.819937D-02 -0.278839D-03  0.541037D-02  0.325623D-02 -0.744098D-02
     21 -0.197276D-01 -0.531067D-02  0.167861D-02  0.776342D-02  0.301746D-02
               11            12            13            14            15 
     11  0.856723D-01
     12 -0.137808D-01  0.922915D-01
     13  0.168140D-01  0.111406D-01  0.841661D-01
     14 -0.308738D-01  0.416545D-02  0.613906D-02  0.106227D+00
     15 -0.177032D-01 -0.235023D-01 -0.773105D-02  0.336966D-02  0.494979D-01
     16  0.445295D-03 -0.310114D-02 -0.401753D-01  0.877102D-02 -0.735070D-02
     17  0.497950D-02  0.127005D-02 -0.217106D-01 -0.248827D-01 -0.759066D-02
     18  0.868717D-03  0.408059D-02 -0.179715D-02 -0.171295D-02 -0.703248D-02
     19 -0.185984D-02 -0.242775D-02  0.349626D-02 -0.768238D-02 -0.717746D-03
     20  0.438657D-02  0.658115D-03 -0.365499D-02 -0.163324D-02 -0.480310D-02
     21  0.246286D-02  0.428023D-02  0.321691D-02  0.848603D-03  0.518418D-02
               16            17            18            19            20 
     16  0.101223D+00
     17 -0.103154D-01  0.878238D-01
     18  0.111847D-01 -0.530919D-02  0.415712D-01
     19 -0.226970D-01  0.164203D-01 -0.303070D-03  0.936168D-01
     20 -0.144374D-01 -0.432374D-01 -0.640339D-02  0.177690D-01  0.899601D-01
     21 -0.238137D-02  0.556267D-02 -0.414066D-02  0.435456D-02  0.131695D-01
               21 
     21  0.480680D-01
 Leave Link  716 at Mon Nov 13 16:50:18 2023, MaxMem=  1879048192 cpu:               0.5 elap:               0.0
 (Enter /home/sekinelabo/g16/l103.exe)

 GradGradGradGradGradGradGradGradGradGradGradGradGradGradGradGradGradGrad
 Berny optimization.
 Search for a local minimum.
 Step number   1 out of a maximum of    2
 All quantities printed in internal units (Hartrees-Bohrs-Radians)
 Second derivative matrix not updated -- first step.
 ITU=  0
     Eigenvalues ---    0.04283   0.05089   0.07363   0.09074   0.09610
     Eigenvalues ---    0.11567   0.12948   0.13635   0.14346   0.15009
     Eigenvalues ---    0.18158   0.18727   0.20851   0.21775   0.27354
 Quadratic step=3.416D-01 exceeds max=3.000D-01 adjusted using Lamda=-1.266D-02.
 Angle between NR and scaled steps=   1.72 degrees.
 Angle between quadratic step and forces=  18.66 degrees.
 Linear search not attempted -- first point.
 B after Tr=    -0.000000    0.000000    0.000000
         Rot=    1.000000    0.000000   -0.000000    0.000000 Ang=   0.00 deg.
 Variable       Old X    -DE/DX   Delta X   Delta X   Delta X     New X
                                 (Linear)    (Quad)   (Total)
    X1        5.49064   0.00049   0.00000   0.01269   0.01269   5.50333
    Y1        5.00095   0.00048   0.00000   0.00657   0.00657   5.00752
    Z1        0.00000  -0.01489   0.00000  -0.06495  -0.06495  -0.06495
    X2        3.62555   0.00030   0.00000  -0.01438  -0.01438   3.61117
    Y2        7.84704   0.01012   0.00000   0.08625   0.08625   7.93330
    Z2        4.53962   0.01045   0.00000   0.05074   0.05074   4.59036
    X3        0.00000  -0.00897   0.00000  -0.09869  -0.09869  -0.09869
    Y3        6.37272   0.00318   0.00000   0.03727   0.03727   6.40999
    Z3        0.45702  -0.00974   0.00000  -0.06120  -0.06120   0.39582
    X4        0.43140  -0.00565   0.00000  -0.07235  -0.07235   0.35905
    Y4        3.19394  -0.00565   0.00000  -0.04127  -0.04127   3.15267
    Z4        5.13454   0.00930   0.00000   0.06311   0.06311   5.19764
    X5        4.23219  -0.00327   0.00000  -0.02152  -0.02152   4.21067
    Y5        0.00000  -0.01187   0.00000  -0.12131  -0.12131  -0.12131
    Z5        2.37401  -0.00164   0.00000  -0.02077  -0.02077   2.35324
    X6        9.40430   0.00803   0.00000   0.09256   0.09256   9.49686
    Y6        2.21873  -0.00744   0.00000  -0.06725  -0.06725   2.15148
    Z6        3.01039   0.00400   0.00000   0.02063   0.02063   3.03101
    X7        9.13822   0.00908   0.00000   0.10169   0.10169   9.23991
    Y7        7.87307   0.01118   0.00000   0.09974   0.09974   7.97281
    Z7        3.23203   0.00254   0.00000   0.01244   0.01244   3.24447
         Item               Value     Threshold  Converged?
 Maximum Force            0.014894     0.000450     NO 
 RMS     Force            0.007788     0.000300     NO 
 Maximum Displacement     0.121314     0.001800     NO 
 RMS     Displacement     0.065469     0.001200     NO 
 Predicted change in Energy=-5.641820D-03
 GradGradGradGradGradGradGradGradGradGradGradGradGradGradGradGradGradGrad

 Leave Link  103 at Mon Nov 13 16:50:18 2023, MaxMem=  1879048192 cpu:               0.2 elap:               0.0
 (Enter /home/sekinelabo/g16/l9999.exe)
 1\1\GINC-SEKINELABO-XA7R-R37\Force\UB3LYP\6-311+G(d)\Na7(2)\SEKINELABO
 \13-Nov-2023\0\\#P B3LYP/6-311+g(d) force\\Gaussian input prepared by 
 ASE\\0,2\Na,2.9055201604,2.6463897522,0.\Na,1.9185580033,4.1524766971,
 2.4022652796\Na,0.,3.372296248,0.2418433555\Na,0.2282872096,1.69015881
 42,2.7170790223\Na,2.2395803606,0.,1.2562699791\Na,4.9765394785,1.1741
 039671,1.5930271474\Na,4.8357387201,4.1662485889,1.7103178491\\Version
 =ES64L-G16RevB.01\State=2-A\HF=-1136.1069714\S2=0.760102\S2-1=0.\S2A=0
 .750056\RMSD=7.445e-09\RMSF=7.788e-03\Dipole=0.0195048,0.0136998,0.076
 3444\Quadrupole=7.9489198,-3.2809623,-4.6679575,0.0115031,1.4657414,-0
 .6416265\PG=C01 [X(Na7)]\\@


 LOVE IS BLIND, THAT'S WHY ALL THE WORLD LOVES A LOUVER.
 Job cpu time:       0 days  0 hours  4 minutes 10.0 seconds.
 Elapsed time:       0 days  0 hours  0 minutes 20.2 seconds.
 File lengths (MBytes):  RWF=     32 Int=      0 D2E=      0 Chk=      5 Scr=      1
 Normal termination of Gaussian 16 at Mon Nov 13 16:50:18 2023.
