 Entering Gaussian System, Link 0=g16
 Initial command:
 /home/sekinelabo/g16/l1.exe "/home/sekinelabo/g16temp/Gau-934341.inp" -scrdir="/home/sekinelabo/g16temp/"
 Entering Link 1 = /home/sekinelabo/g16/l1.exe PID=    934360.
  
 Copyright (c) 1988-2017, Gaussian, Inc.  All Rights Reserved.
  
 This is part of the Gaussian(R) 16 program.  It is based on
 the Gaussian(R) 09 system (copyright 2009, Gaussian, Inc.),
 the Gaussian(R) 03 system (copyright 2003, Gaussian, Inc.),
 the Gaussian(R) 98 system (copyright 1998, Gaussian, Inc.),
 the Gaussian(R) 94 system (copyright 1995, Gaussian, Inc.),
 the Gaussian 92(TM) system (copyright 1992, Gaussian, Inc.),
 the Gaussian 90(TM) system (copyright 1990, Gaussian, Inc.),
 the Gaussian 88(TM) system (copyright 1988, Gaussian, Inc.),
 the Gaussian 86(TM) system (copyright 1986, Carnegie Mellon
 University), and the Gaussian 82(TM) system (copyright 1983,
 Carnegie Mellon University). Gaussian is a federally registered
 trademark of Gaussian, Inc.
  
 This software contains proprietary and confidential information,
 including trade secrets, belonging to Gaussian, Inc.
  
 This software is provided under written license and may be
 used, copied, transmitted, or stored only in accord with that
 written license.
  
 The following legend is applicable only to US Government
 contracts under FAR:
  
                    RESTRICTED RIGHTS LEGEND
  
 Use, reproduction and disclosure by the US Government is
 subject to restrictions as set forth in subparagraphs (a)
 and (c) of the Commercial Computer Software - Restricted
 Rights clause in FAR 52.227-19.
  
 Gaussian, Inc.
 340 Quinnipiac St., Bldg. 40, Wallingford CT 06492
  
  
 ---------------------------------------------------------------
 Warning -- This program may not be used in any manner that
 competes with the business of Gaussian, Inc. or will provide
 assistance to any competitor of Gaussian, Inc.  The licensee
 of this program is prohibited from giving any competitor of
 Gaussian, Inc. access to this program.  By using this program,
 the user acknowledges that Gaussian, Inc. is engaged in the
 business of creating and licensing software in the field of
 computational chemistry and represents and warrants to the
 licensee that it is not a competitor of Gaussian, Inc. and that
 it will not use this program in any manner prohibited above.
 ---------------------------------------------------------------
  

 Cite this work as:
 Gaussian 16, Revision B.01,
 M. J. Frisch, G. W. Trucks, H. B. Schlegel, G. E. Scuseria, 
 M. A. Robb, J. R. Cheeseman, G. Scalmani, V. Barone, 
 G. A. Petersson, H. Nakatsuji, X. Li, M. Caricato, A. V. Marenich, 
 J. Bloino, B. G. Janesko, R. Gomperts, B. Mennucci, H. P. Hratchian, 
 J. V. Ortiz, A. F. Izmaylov, J. L. Sonnenberg, D. Williams-Young, 
 F. Ding, F. Lipparini, F. Egidi, J. Goings, B. Peng, A. Petrone, 
 T. Henderson, D. Ranasinghe, V. G. Zakrzewski, J. Gao, N. Rega, 
 G. Zheng, W. Liang, M. Hada, M. Ehara, K. Toyota, R. Fukuda, 
 J. Hasegawa, M. Ishida, T. Nakajima, Y. Honda, O. Kitao, H. Nakai, 
 T. Vreven, K. Throssell, J. A. Montgomery, Jr., J. E. Peralta, 
 F. Ogliaro, M. J. Bearpark, J. J. Heyd, E. N. Brothers, K. N. Kudin, 
 V. N. Staroverov, T. A. Keith, R. Kobayashi, J. Normand, 
 K. Raghavachari, A. P. Rendell, J. C. Burant, S. S. Iyengar, 
 J. Tomasi, M. Cossi, J. M. Millam, M. Klene, C. Adamo, R. Cammi, 
 J. W. Ochterski, R. L. Martin, K. Morokuma, O. Farkas, 
 J. B. Foresman, and D. J. Fox, Gaussian, Inc., Wallingford CT, 2016.
 
 ******************************************
 Gaussian 16:  ES64L-G16RevB.01 20-Dec-2017
                21-Nov-2023 
 ******************************************
 %nprocshared=14
 Will use up to   14 processors via shared memory.
 -------------------------
 #P B3LYP/6-311+g(d) force
 -------------------------
 1/10=7,30=1,38=1/1,3;
 2/12=2,17=6,18=5,40=1/2;
 3/5=4,6=6,7=11,11=2,25=1,30=1,71=1,74=-5/1,2,3;
 4//1;
 5/5=2,38=5/2;
 6/7=2,8=2,9=2,10=2,28=1/1;
 7/29=1/1,2,3,16;
 1/10=7,30=1/3;
 99//99;
 Leave Link    1 at Tue Nov 21 11:40:17 2023, MaxMem=           0 cpu:               0.5 elap:               0.6
 (Enter /home/sekinelabo/g16/l101.exe)
 -----
 DPGEN
 -----
 Symbolic Z-matrix:
 Charge =  0 Multiplicity = 2
 Na                    9.62382   0.058     0.58024 
 Na                    11.1334   2.31977   28.7401 
 Na                    9.55956   5.03114   29.761 
 Na                    6.65678   5.08566   1.13427 
 Na                    5.72687   2.55206   2.36018 
 Na                    2.51149   1.78896   3.38332 
 Na                    29.097    1.31639   3.00855 
 
 ITRead=  0  0  0  0  0  0  0
 MicOpt= -1 -1 -1 -1 -1 -1 -1
 NAtoms=      7 NQM=        7 NQMF=       0 NMMI=      0 NMMIF=      0
                NMic=       0 NMicF=      0.
                    Isotopes and Nuclear Properties:
 (Nuclear quadrupole moments (NQMom) in fm**2, nuclear magnetic moments (NMagM)
  in nuclear magnetons)

  Atom         1           2           3           4           5           6           7
 IAtWgt=          23          23          23          23          23          23          23
 AtmWgt=  22.9897697  22.9897697  22.9897697  22.9897697  22.9897697  22.9897697  22.9897697
 NucSpn=           3           3           3           3           3           3           3
 AtZEff=  -0.0000000  -0.0000000  -0.0000000  -0.0000000  -0.0000000  -0.0000000  -0.0000000
 NQMom=   10.4000000  10.4000000  10.4000000  10.4000000  10.4000000  10.4000000  10.4000000
 NMagM=    2.2175200   2.2175200   2.2175200   2.2175200   2.2175200   2.2175200   2.2175200
 AtZNuc=  11.0000000  11.0000000  11.0000000  11.0000000  11.0000000  11.0000000  11.0000000
 Leave Link  101 at Tue Nov 21 11:40:20 2023, MaxMem=   104857600 cpu:               2.5 elap:               2.5
 (Enter /home/sekinelabo/g16/l103.exe)

 GradGradGradGradGradGradGradGradGradGradGradGradGradGradGradGradGradGrad
 Berny optimization.
 Initialization pass.
 Trust Radius=3.00D-01 FncErr=1.00D-07 GrdErr=1.00D-07 EigMax=2.50D+02 EigMin=1.00D-04
 Number of steps in this run=      2 maximum allowed number of steps=      2.
 GradGradGradGradGradGradGradGradGradGradGradGradGradGradGradGradGradGrad

 Leave Link  103 at Tue Nov 21 11:40:21 2023, MaxMem=   104857600 cpu:               0.5 elap:               0.6
 (Enter /home/sekinelabo/g16/l202.exe)
                          Input orientation:                          
 ---------------------------------------------------------------------
 Center     Atomic      Atomic             Coordinates (Angstroms)
 Number     Number       Type             X           Y           Z
 ---------------------------------------------------------------------
      1         11           0        9.623820    0.058000    0.580237
      2         11           0       11.133400    2.319770   28.740100
      3         11           0        9.559560    5.031140   29.761000
      4         11           0        6.656780    5.085660    1.134270
      5         11           0        5.726870    2.552060    2.360180
      6         11           0        2.511490    1.788960    3.383320
      7         11           0       29.097000    1.316390    3.008550
 ---------------------------------------------------------------------
                    Distance matrix (angstroms):
                    1          2          3          4          5
     1  Na   0.000000
     2  Na  28.290852   0.000000
     3  Na  29.601574   3.297080   0.000000
     4  Na   5.864098  28.102885  28.773578   0.000000
     5  Na   4.957293  26.929254  27.778414   2.964240   0.000000
     6  Na   7.838286  26.787784  27.494891   5.754119   3.459452
     7  Na  19.664307  31.397617  33.334734  22.831640  23.411754
                    6          7
     6  Na   0.000000
     7  Na  26.592351   0.000000
 Stoichiometry    Na7(2)
 Framework group  C1[X(Na7)]
 Deg. of freedom    15
 Full point group                 C1      NOp   1
 Largest Abelian subgroup         C1      NOp   1
 Largest concise Abelian subgroup C1      NOp   1
                         Standard orientation:                         
 ---------------------------------------------------------------------
 Center     Atomic      Atomic             Coordinates (Angstroms)
 Number     Number       Type             X           Y           Z
 ---------------------------------------------------------------------
      1         11           0       -9.391020   -0.966354   -2.064138
      2         11           0       18.834537    0.798733   -1.306031
      3         11           0       20.025337   -0.922115    1.241794
      4         11           0       -8.519165   -4.224704    2.732806
      5         11           0       -7.430307   -4.981969    0.081833
      6         11           0       -6.418501   -8.130473   -0.933536
      7         11           0       -7.100882   18.426883    0.247272
 ---------------------------------------------------------------------
 Rotational constants (GHZ):           0.0471065           0.0203683           0.0145188
 Leave Link  202 at Tue Nov 21 11:40:22 2023, MaxMem=   104857600 cpu:               0.8 elap:               0.9
 (Enter /home/sekinelabo/g16/l301.exe)
 Standard basis: 6-311+G(d) (5D, 7F)
 Ernie: Thresh=  0.10000D-02 Tol=  0.10000D-05 Strict=F.
 There are   217 symmetry adapted cartesian basis functions of A   symmetry.
 There are   210 symmetry adapted basis functions of A   symmetry.
   210 basis functions,   350 primitive gaussians,   217 cartesian basis functions
    39 alpha electrons       38 beta electrons
       nuclear repulsion energy       136.1579406048 Hartrees.
 IExCor=  402 DFT=T Ex+Corr=B3LYP ExCW=0 ScaHFX=  0.200000
 ScaDFX=  0.800000  0.720000  1.000000  0.810000 ScalE2=  1.000000  1.000000
 IRadAn=      5 IRanWt=     -1 IRanGd=            0 ICorTp=0 IEmpDi=  4
 NAtoms=    7 NActive=    7 NUniq=    7 SFac= 1.00D+00 NAtFMM=   60 NAOKFM=F Big=F
 Integral buffers will be    131072 words long.
 Raffenetti 2 integral format.
 Two-electron integral symmetry is turned on.
 Leave Link  301 at Tue Nov 21 11:40:22 2023, MaxMem=   104857600 cpu:               0.7 elap:               0.7
 (Enter /home/sekinelabo/g16/l302.exe)
 NPDir=0 NMtPBC=     1 NCelOv=     1 NCel=       1 NClECP=     1 NCelD=      1
         NCelK=      1 NCelE2=     1 NClLst=     1 CellRange=     0.0.
 One-electron integrals computed using PRISM.
 One-electron integral symmetry used in STVInt
 NBasis=   210 RedAO= T EigKep=  6.60D-05  NBF=   210
 NBsUse=   210 1.00D-06 EigRej= -1.00D+00 NBFU=   210
 Precomputing XC quadrature grid using
 IXCGrd= 4 IRadAn=           5 IRanWt=          -1 IRanGd=           0 AccXCQ= 0.00D+00.
 Generated NRdTot=       0 NPtTot=           0 NUsed=           0 NTot=          32
 NSgBfM=   155   155   155   155   155 MxSgAt=     7 MxSgA2=     7.
 Leave Link  302 at Tue Nov 21 11:40:55 2023, MaxMem=   104857600 cpu:              29.8 elap:              32.1
 (Enter /home/sekinelabo/g16/l303.exe)
 DipDrv:  MaxL=1.
 Leave Link  303 at Tue Nov 21 11:40:57 2023, MaxMem=   104857600 cpu:               2.4 elap:               2.6
 (Enter /home/sekinelabo/g16/l401.exe)
 ExpMin= 7.60D-03 ExpMax= 3.62D+04 ExpMxC= 1.21D+03 IAcc=3 IRadAn=         5 AccDes= 0.00D+00
 Harris functional with IExCor=  402 and IRadAn=       5 diagonalized for initial guess.
 HarFok:  IExCor=  402 AccDes= 0.00D+00 IRadAn=         5 IDoV= 1 UseB2=F ITyADJ=14
 ICtDFT=  3500011 ScaDFX=  1.000000  1.000000  1.000000  1.000000
 FoFCou: FMM=F IPFlag=           0 FMFlag=      100000 FMFlg1=           0
         NFxFlg=           0 DoJE=T BraDBF=F KetDBF=T FulRan=T
         wScrn=  0.000000 ICntrl=       500 IOpCl=  0 I1Cent=   200000004 NGrid=           0
         NMat0=    1 NMatS0=      1 NMatT0=    0 NMatD0=    1 NMtDS0=    0 NMtDT0=    0
 Petite list used in FoFCou.
 Harris En= -1135.83542045562    
 JPrj=0 DoOrth=F DoCkMO=F.
 Initial guess <Sx>= 0.0000 <Sy>= 0.0000 <Sz>= 0.5000 <S**2>= 0.7500 S= 0.5000
 Leave Link  401 at Tue Nov 21 11:41:15 2023, MaxMem=   104857600 cpu:              16.0 elap:              17.2
 (Enter /home/sekinelabo/g16/l502.exe)
 Integral symmetry usage will be decided dynamically.
 UHF open shell SCF:
 Using DIIS extrapolation, IDIIS=  1040.
 NGot=   104857600 LenX=   104758426 LenY=   104710896
 Requested convergence on RMS density matrix=1.00D-08 within 128 cycles.
 Requested convergence on MAX density matrix=1.00D-06.
 Requested convergence on             energy=1.00D-06.
 No special actions if energy rises.
 Fock matrices will be formed incrementally for  20 cycles.

 Cycle   1  Pass 1  IDiag  1:
 FoFJK:  IHMeth= 1 ICntrl=       0 DoSepK=F KAlg= 0 I1Cent=           0 FoldK=F
 IRaf= 520000000 NMat=       1 IRICut=       1 DoRegI=T DoRafI=F ISym2E= 0 IDoP0=0 IntGTp=1.
 FoFCou: FMM=F IPFlag=           0 FMFlag=      100000 FMFlg1=           0
         NFxFlg=           0 DoJE=F BraDBF=F KetDBF=F FulRan=T
         wScrn=  0.000000 ICntrl=         0 IOpCl=  1 I1Cent=           0 NGrid=           0
         NMat0=    1 NMatS0=      1 NMatT0=    0 NMatD0=    1 NMtDS0=    0 NMtDT0=    0
 Symmetry not used in FoFCou.
 E= -1136.01184431982    
 DIIS: error= 2.00D-02 at cycle   1 NSaved=   1.
 NSaved= 1 IEnMin= 1 EnMin= -1136.01184431982     IErMin= 1 ErrMin= 2.00D-02
 ErrMax= 2.00D-02  0.00D+00 EMaxC= 1.00D-01 BMatC= 1.93D-01 BMatP= 1.93D-01
 IDIUse=3 WtCom= 8.00D-01 WtEn= 2.00D-01
 Coeff-Com:  0.100D+01
 Coeff-En:   0.100D+01
 Coeff:      0.100D+01
 Gap=     0.020 Goal=   None    Shift=    0.000
 Gap=     0.014 Goal=   None    Shift=    0.000
 GapD=    0.014 DampG=0.250 DampE=0.500 DampFc=0.2500 IDamp=-1.
 Damping current iteration by 2.50D-01
 RMSDP=7.06D-03 MaxDP=7.19D-01              OVMax= 7.04D-01

 Cycle   2  Pass 1  IDiag  1:
 RMSU=  1.76D-03    CP:  9.91D-01
 E= -1136.03293662242     Delta-E=       -0.021092302594 Rises=F Damp=T
 DIIS: error= 1.39D-02 at cycle   2 NSaved=   2.
 NSaved= 2 IEnMin= 2 EnMin= -1136.03293662242     IErMin= 2 ErrMin= 1.39D-02
 ErrMax= 1.39D-02  0.00D+00 EMaxC= 1.00D-01 BMatC= 7.08D-02 BMatP= 1.93D-01
 IDIUse=3 WtCom= 8.61D-01 WtEn= 1.39D-01
 Coeff-Com: -0.100D+01 0.200D+01
 Coeff-En:   0.000D+00 0.100D+01
 Coeff:     -0.861D+00 0.186D+01
 Gap=     0.019 Goal=   None    Shift=    0.000
 Gap=     0.058 Goal=   None    Shift=    0.000
 RMSDP=3.28D-03 MaxDP=3.07D-01 DE=-2.11D-02 OVMax= 7.84D-01

 Cycle   3  Pass 1  IDiag  1:
 RMSU=  2.84D-03    CP:  9.95D-01  6.16D-02
 E= -1135.95072170154     Delta-E=        0.082214920878 Rises=F Damp=F
 DIIS: error= 1.10D-02 at cycle   3 NSaved=   3.
 NSaved= 3 IEnMin= 2 EnMin= -1136.03293662242     IErMin= 3 ErrMin= 1.10D-02
 ErrMax= 1.10D-02  0.00D+00 EMaxC= 1.00D-01 BMatC= 4.07D-02 BMatP= 7.08D-02
 IDIUse=3 WtCom= 8.90D-01 WtEn= 1.10D-01
 Coeff-Com: -0.625D+00 0.117D+01 0.452D+00
 Coeff-En:   0.000D+00 0.996D+00 0.368D-02
 Coeff:     -0.557D+00 0.115D+01 0.402D+00
 Gap=     0.004 Goal=   None    Shift=    0.000
 Gap=     0.004 Goal=   None    Shift=    0.000
 RMSDP=5.75D-03 MaxDP=5.68D-01 DE= 8.22D-02 OVMax= 8.82D-01

 Cycle   4  Pass 1  IDiag  1:
 RMSU=  1.81D-03    CP:  9.72D-01  2.53D+00 -1.55D-01
 E= -1135.97209131152     Delta-E=       -0.021369609978 Rises=F Damp=F
 DIIS: error= 1.03D-02 at cycle   4 NSaved=   4.
 NSaved= 4 IEnMin= 2 EnMin= -1136.03293662242     IErMin= 4 ErrMin= 1.03D-02
 ErrMax= 1.03D-02  0.00D+00 EMaxC= 1.00D-01 BMatC= 3.08D-02 BMatP= 4.07D-02
 IDIUse=3 WtCom= 8.97D-01 WtEn= 1.03D-01
 EnCoef did    23 forward-backward iterations
 Coeff-Com: -0.189D+00 0.431D+00 0.400D+00 0.358D+00
 Coeff-En:   0.779D-01 0.000D+00 0.409D+00 0.513D+00
 Coeff:     -0.161D+00 0.387D+00 0.401D+00 0.374D+00
 Gap=     0.003 Goal=   None    Shift=    0.000
 Gap=     0.003 Goal=   None    Shift=    0.000
 RMSDP=4.02D-03 MaxDP=4.33D-01 DE=-2.14D-02 OVMax= 6.95D-01

 Cycle   5  Pass 1  IDiag  1:
 RMSU=  1.30D-03    CP:  9.88D-01  5.10D-01  1.74D-01  4.83D-01
 E= -1136.04844169601     Delta-E=       -0.076350384488 Rises=F Damp=F
 DIIS: error= 4.04D-03 at cycle   5 NSaved=   5.
 NSaved= 5 IEnMin= 5 EnMin= -1136.04844169601     IErMin= 5 ErrMin= 4.04D-03
 ErrMax= 4.04D-03  0.00D+00 EMaxC= 1.00D-01 BMatC= 4.66D-03 BMatP= 3.08D-02
 IDIUse=3 WtCom= 9.60D-01 WtEn= 4.04D-02
 Coeff-Com: -0.176D+00 0.279D+00-0.659D-03 0.151D+00 0.746D+00
 Coeff-En:   0.000D+00 0.000D+00 0.000D+00 0.227D+00 0.773D+00
 Coeff:     -0.169D+00 0.268D+00-0.633D-03 0.154D+00 0.747D+00
 Gap=     0.015 Goal=   None    Shift=    0.000
 Gap=     0.015 Goal=   None    Shift=    0.000
 RMSDP=1.71D-03 MaxDP=1.70D-01 DE=-7.64D-02 OVMax= 3.29D-01

 Cycle   6  Pass 1  IDiag  1:
 RMSU=  5.34D-04    CP:  9.81D-01  1.20D+00 -9.70D-02  8.79D-01  8.66D-01
 E= -1136.05382787799     Delta-E=       -0.005386181988 Rises=F Damp=F
 DIIS: error= 3.12D-03 at cycle   6 NSaved=   6.
 NSaved= 6 IEnMin= 6 EnMin= -1136.05382787799     IErMin= 6 ErrMin= 3.12D-03
 ErrMax= 3.12D-03  0.00D+00 EMaxC= 1.00D-01 BMatC= 3.27D-03 BMatP= 4.66D-03
 IDIUse=3 WtCom= 9.69D-01 WtEn= 3.12D-02
 Coeff-Com: -0.939D-01 0.133D+00-0.309D-01-0.525D-01 0.508D+00 0.536D+00
 Coeff-En:   0.000D+00 0.000D+00 0.000D+00 0.000D+00 0.413D+00 0.587D+00
 Coeff:     -0.910D-01 0.129D+00-0.299D-01-0.509D-01 0.505D+00 0.538D+00
 Gap=     0.019 Goal=   None    Shift=    0.000
 Gap=     0.019 Goal=   None    Shift=    0.000
 RMSDP=6.48D-04 MaxDP=6.08D-02 DE=-5.39D-03 OVMax= 7.83D-02

 Cycle   7  Pass 1  IDiag  1:
 RMSU=  4.26D-04    CP:  9.82D-01  1.00D+00 -3.83D-02  8.11D-01  1.01D+00
                    CP:  6.33D-01
 E= -1136.05948691166     Delta-E=       -0.005659033666 Rises=F Damp=F
 DIIS: error= 1.79D-03 at cycle   7 NSaved=   7.
 NSaved= 7 IEnMin= 7 EnMin= -1136.05948691166     IErMin= 7 ErrMin= 1.79D-03
 ErrMax= 1.79D-03  0.00D+00 EMaxC= 1.00D-01 BMatC= 6.40D-04 BMatP= 3.27D-03
 IDIUse=3 WtCom= 9.82D-01 WtEn= 1.79D-02
 Coeff-Com: -0.388D-01 0.517D-01-0.147D-01-0.573D-01 0.319D+00 0.246D+00
 Coeff-Com:  0.494D+00
 Coeff-En:   0.000D+00 0.000D+00 0.000D+00 0.000D+00 0.182D+00 0.000D+00
 Coeff-En:   0.818D+00
 Coeff:     -0.381D-01 0.508D-01-0.145D-01-0.563D-01 0.317D+00 0.242D+00
 Coeff:      0.500D+00
 Gap=     0.021 Goal=   None    Shift=    0.000
 Gap=     0.021 Goal=   None    Shift=    0.000
 RMSDP=1.57D-04 MaxDP=1.34D-02 DE=-5.66D-03 OVMax= 2.31D-02

 Cycle   8  Pass 1  IDiag  1:
 RMSU=  7.86D-05    CP:  9.83D-01  9.81D-01 -3.78D-02  8.17D-01  9.79D-01
                    CP:  7.39D-01  7.43D-01
 E= -1136.05966122566     Delta-E=       -0.000174314003 Rises=F Damp=F
 DIIS: error= 1.41D-03 at cycle   8 NSaved=   8.
 NSaved= 8 IEnMin= 8 EnMin= -1136.05966122566     IErMin= 8 ErrMin= 1.41D-03
 ErrMax= 1.41D-03  0.00D+00 EMaxC= 1.00D-01 BMatC= 5.32D-04 BMatP= 6.40D-04
 IDIUse=3 WtCom= 9.86D-01 WtEn= 1.41D-02
 Coeff-Com: -0.551D-02 0.694D-02-0.186D-02-0.356D-01 0.189D+00-0.771D-01
 Coeff-Com:  0.105D+00 0.818D+00
 Coeff-En:   0.000D+00 0.000D+00 0.000D+00 0.000D+00 0.174D+00 0.000D+00
 Coeff-En:   0.000D+00 0.826D+00
 Coeff:     -0.544D-02 0.684D-02-0.184D-02-0.351D-01 0.189D+00-0.760D-01
 Coeff:      0.104D+00 0.819D+00
 Gap=     0.021 Goal=   None    Shift=    0.000
 Gap=     0.021 Goal=   None    Shift=    0.000
 RMSDP=3.66D-05 MaxDP=2.69D-03 DE=-1.74D-04 OVMax= 3.31D-03

 Cycle   9  Pass 1  IDiag  1:
 RMSU=  1.88D-05    CP:  9.83D-01  9.78D-01 -3.60D-02  8.18D-01  9.84D-01
                    CP:  7.24D-01  8.07D-01  1.10D+00
 E= -1136.05970370542     Delta-E=       -0.000042479754 Rises=F Damp=F
 DIIS: error= 1.44D-03 at cycle   9 NSaved=   9.
 NSaved= 9 IEnMin= 9 EnMin= -1136.05970370542     IErMin= 8 ErrMin= 1.41D-03
 ErrMax= 1.44D-03  0.00D+00 EMaxC= 1.00D-01 BMatC= 4.93D-04 BMatP= 5.32D-04
 IDIUse=3 WtCom= 9.86D-01 WtEn= 1.41D-02
 Coeff-Com: -0.261D-02 0.314D-02-0.120D-02-0.316D-01 0.179D+00-0.981D-01
 Coeff-Com: -0.126D-01 0.378D+00 0.586D+00
 Coeff-En:   0.000D+00 0.000D+00 0.000D+00 0.000D+00 0.170D+00 0.000D+00
 Coeff-En:   0.000D+00 0.000D+00 0.830D+00
 Coeff:     -0.258D-02 0.309D-02-0.118D-02-0.312D-01 0.179D+00-0.967D-01
 Coeff:     -0.125D-01 0.372D+00 0.590D+00
 Gap=     0.021 Goal=   None    Shift=    0.000
 Gap=     0.021 Goal=   None    Shift=    0.000
 RMSDP=3.24D-05 MaxDP=3.42D-03 DE=-4.25D-05 OVMax= 5.83D-03

 Cycle  10  Pass 1  IDiag  1:
 RMSU=  5.78D-06    CP:  9.83D-01  9.64D-01 -3.11D-02  8.11D-01  9.91D-01
                    CP:  7.24D-01  8.11D-01  1.12D+00  1.19D+00
 E= -1136.05991766415     Delta-E=       -0.000213958730 Rises=F Damp=F
 DIIS: error= 1.27D-03 at cycle  10 NSaved=  10.
 NSaved=10 IEnMin=10 EnMin= -1136.05991766415     IErMin=10 ErrMin= 1.27D-03
 ErrMax= 1.27D-03  0.00D+00 EMaxC= 1.00D-01 BMatC= 3.93D-04 BMatP= 4.93D-04
 IDIUse=3 WtCom= 9.87D-01 WtEn= 1.27D-02
 Coeff-Com: -0.416D-02 0.547D-02-0.193D-02-0.822D-02 0.934D-01 0.193D-01
 Coeff-Com:  0.169D-01-0.492D+00-0.444D+01 0.581D+01
 Coeff-En:   0.000D+00 0.000D+00 0.000D+00 0.000D+00 0.146D+00 0.000D+00
 Coeff-En:   0.000D+00 0.000D+00 0.000D+00 0.854D+00
 Coeff:     -0.411D-02 0.540D-02-0.190D-02-0.812D-02 0.941D-01 0.190D-01
 Coeff:      0.167D-01-0.486D+00-0.438D+01 0.575D+01
 Gap=     0.021 Goal=   None    Shift=    0.000
 Gap=     0.021 Goal=   None    Shift=    0.000
 RMSDP=2.02D-04 MaxDP=2.04D-02 DE=-2.14D-04 OVMax= 3.71D-02

 Cycle  11  Pass 1  IDiag  1:
 RMSU=  1.61D-05    CP:  9.84D-01  8.76D-01 -1.85D-03  7.65D-01  1.01D+00
                    CP:  6.80D-01  8.35D-01  1.44D+00  1.11D+00  3.00D+00
 E= -1136.06070064125     Delta-E=       -0.000782977100 Rises=F Damp=F
 DIIS: error= 3.01D-04 at cycle  11 NSaved=  11.
 NSaved=11 IEnMin=11 EnMin= -1136.06070064125     IErMin=11 ErrMin= 3.01D-04
 ErrMax= 3.01D-04  0.00D+00 EMaxC= 1.00D-01 BMatC= 2.46D-05 BMatP= 3.93D-04
 IDIUse=3 WtCom= 9.97D-01 WtEn= 3.01D-03
 Coeff-Com: -0.216D-03 0.301D-03-0.127D-03 0.125D-02 0.174D-01 0.698D-03
 Coeff-Com:  0.430D-01-0.692D-01-0.202D+01 0.211D+01 0.915D+00
 Coeff-En:   0.000D+00 0.000D+00 0.000D+00 0.000D+00 0.000D+00 0.000D+00
 Coeff-En:   0.000D+00 0.000D+00 0.000D+00 0.000D+00 0.100D+01
 Coeff:     -0.215D-03 0.301D-03-0.126D-03 0.124D-02 0.173D-01 0.696D-03
 Coeff:      0.429D-01-0.690D-01-0.202D+01 0.211D+01 0.915D+00
 Gap=     0.021 Goal=   None    Shift=    0.000
 Gap=     0.021 Goal=   None    Shift=    0.000
 RMSDP=7.32D-05 MaxDP=7.20D-03 DE=-7.83D-04 OVMax= 1.31D-02

 Cycle  12  Pass 1  IDiag  1:
 RMSU=  1.09D-05    CP:  9.84D-01  8.48D-01  1.04D-02  7.47D-01  1.03D+00
                    CP:  6.62D-01  8.67D-01  1.47D+00  1.08D+00  3.00D+00
                    CP:  1.33D+00
 E= -1136.06075423334     Delta-E=       -0.000053592095 Rises=F Damp=F
 DIIS: error= 1.46D-05 at cycle  12 NSaved=  12.
 NSaved=12 IEnMin=12 EnMin= -1136.06075423334     IErMin=12 ErrMin= 1.46D-05
 ErrMax= 1.46D-05  0.00D+00 EMaxC= 1.00D-01 BMatC= 1.46D-07 BMatP= 2.46D-05
 IDIUse=1 WtCom= 1.00D+00 WtEn= 0.00D+00
 Coeff-Com:  0.242D-04-0.533D-04-0.114D-03 0.674D-03 0.412D-02-0.178D-02
 Coeff-Com:  0.219D-01 0.375D-01-0.626D+00 0.554D+00 0.398D+00 0.611D+00
 Coeff:      0.242D-04-0.533D-04-0.114D-03 0.674D-03 0.412D-02-0.178D-02
 Coeff:      0.219D-01 0.375D-01-0.626D+00 0.554D+00 0.398D+00 0.611D+00
 Gap=     0.021 Goal=   None    Shift=    0.000
 Gap=     0.021 Goal=   None    Shift=    0.000
 RMSDP=4.49D-06 MaxDP=2.07D-04 DE=-5.36D-05 OVMax= 3.23D-04

 Cycle  13  Pass 1  IDiag  1:
 RMSU=  1.88D-06    CP:  9.84D-01  8.47D-01  1.00D-02  7.47D-01  1.03D+00
                    CP:  6.61D-01  8.66D-01  1.49D+00  1.00D+00  3.00D+00
                    CP:  1.38D+00  8.37D-01
 E= -1136.06075424009     Delta-E=       -0.000000006749 Rises=F Damp=F
 DIIS: error= 1.70D-05 at cycle  13 NSaved=  13.
 NSaved=13 IEnMin=13 EnMin= -1136.06075424009     IErMin=12 ErrMin= 1.46D-05
 ErrMax= 1.70D-05  0.00D+00 EMaxC= 1.00D-01 BMatC= 7.93D-08 BMatP= 1.46D-07
 IDIUse=1 WtCom= 1.00D+00 WtEn= 0.00D+00
 Coeff-Com: -0.146D-04 0.216D-04-0.124D-03 0.835D-05 0.371D-03-0.168D-02
 Coeff-Com:  0.471D-02 0.272D-01-0.409D-01 0.533D-02 0.836D-01 0.210D+00
 Coeff-Com:  0.712D+00
 Coeff:     -0.146D-04 0.216D-04-0.124D-03 0.835D-05 0.371D-03-0.168D-02
 Coeff:      0.471D-02 0.272D-01-0.409D-01 0.533D-02 0.836D-01 0.210D+00
 Coeff:      0.712D+00
 Gap=     0.021 Goal=   None    Shift=    0.000
 Gap=     0.021 Goal=   None    Shift=    0.000
 RMSDP=2.59D-06 MaxDP=2.57D-04 DE=-6.75D-09 OVMax= 4.55D-04

 Cycle  14  Pass 1  IDiag  1:
 RMSU=  7.83D-07    CP:  9.84D-01  8.48D-01  9.57D-03  7.48D-01  1.03D+00
                    CP:  6.61D-01  8.66D-01  1.49D+00  9.81D-01  3.00D+00
                    CP:  1.36D+00  8.37D-01  1.15D+00
 E= -1136.06075437616     Delta-E=       -0.000000136071 Rises=F Damp=F
 DIIS: error= 6.56D-06 at cycle  14 NSaved=  14.
 NSaved=14 IEnMin=14 EnMin= -1136.06075437616     IErMin=14 ErrMin= 6.56D-06
 ErrMax= 6.56D-06  0.00D+00 EMaxC= 1.00D-01 BMatC= 8.65D-09 BMatP= 7.93D-08
 IDIUse=1 WtCom= 1.00D+00 WtEn= 0.00D+00
 Coeff-Com:  0.163D-04-0.173D-04-0.412D-04 0.188D-04-0.445D-03-0.692D-03
 Coeff-Com:  0.100D-02 0.450D-02 0.156D-01-0.211D-01 0.135D-01 0.310D-01
 Coeff-Com:  0.149D+00 0.807D+00
 Coeff:      0.163D-04-0.173D-04-0.412D-04 0.188D-04-0.445D-03-0.692D-03
 Coeff:      0.100D-02 0.450D-02 0.156D-01-0.211D-01 0.135D-01 0.310D-01
 Coeff:      0.149D+00 0.807D+00
 Gap=     0.021 Goal=   None    Shift=    0.000
 Gap=     0.021 Goal=   None    Shift=    0.000
 RMSDP=7.05D-07 MaxDP=6.35D-05 DE=-1.36D-07 OVMax= 1.40D-04

 Cycle  15  Pass 1  IDiag  1:
 RMSU=  4.66D-07    CP:  9.84D-01  8.48D-01  9.51D-03  7.48D-01  1.03D+00
                    CP:  6.62D-01  8.66D-01  1.49D+00  9.87D-01  3.00D+00
                    CP:  1.35D+00  8.38D-01  1.30D+00  1.05D+00
 E= -1136.06075438544     Delta-E=       -0.000000009276 Rises=F Damp=F
 DIIS: error= 4.94D-06 at cycle  15 NSaved=  15.
 NSaved=15 IEnMin=15 EnMin= -1136.06075438544     IErMin=15 ErrMin= 4.94D-06
 ErrMax= 4.94D-06  0.00D+00 EMaxC= 1.00D-01 BMatC= 4.65D-09 BMatP= 8.65D-09
 IDIUse=1 WtCom= 1.00D+00 WtEn= 0.00D+00
 Coeff-Com:  0.379D-05-0.369D-05-0.143D-04 0.119D-05-0.250D-03-0.101D-03
 Coeff-Com:  0.194D-03-0.177D-02 0.832D-02-0.415D-02-0.268D-02-0.153D-01
 Coeff-Com: -0.401D-01 0.441D+00 0.615D+00
 Coeff:      0.379D-05-0.369D-05-0.143D-04 0.119D-05-0.250D-03-0.101D-03
 Coeff:      0.194D-03-0.177D-02 0.832D-02-0.415D-02-0.268D-02-0.153D-01
 Coeff:     -0.401D-01 0.441D+00 0.615D+00
 Gap=     0.021 Goal=   None    Shift=    0.000
 Gap=     0.021 Goal=   None    Shift=    0.000
 RMSDP=8.67D-07 MaxDP=1.15D-04 DE=-9.28D-09 OVMax= 2.32D-04

 Cycle  16  Pass 1  IDiag  1:
 RMSU=  2.81D-07    CP:  9.84D-01  8.48D-01  9.40D-03  7.48D-01  1.03D+00
                    CP:  6.62D-01  8.66D-01  1.49D+00  9.88D-01  3.00D+00
                    CP:  1.35D+00  8.37D-01  1.34D+00  1.42D+00  2.14D+00
 E= -1136.06075439658     Delta-E=       -0.000000011141 Rises=F Damp=F
 DIIS: error= 2.76D-06 at cycle  16 NSaved=  16.
 NSaved=16 IEnMin=16 EnMin= -1136.06075439658     IErMin=16 ErrMin= 2.76D-06
 ErrMax= 2.76D-06  0.00D+00 EMaxC= 1.00D-01 BMatC= 1.00D-09 BMatP= 4.65D-09
 IDIUse=1 WtCom= 1.00D+00 WtEn= 0.00D+00
 Coeff-Com:  0.652D-05-0.704D-05-0.150D-04 0.236D-05-0.399D-03-0.507D-04
 Coeff-Com:  0.408D-04-0.431D-02 0.148D-01-0.660D-02-0.883D-02-0.330D-01
 Coeff-Com: -0.930D-01 0.662D+00 0.110D+01-0.635D+00
 Coeff:      0.652D-05-0.704D-05-0.150D-04 0.236D-05-0.399D-03-0.507D-04
 Coeff:      0.408D-04-0.431D-02 0.148D-01-0.660D-02-0.883D-02-0.330D-01
 Coeff:     -0.930D-01 0.662D+00 0.110D+01-0.635D+00
 Gap=     0.021 Goal=   None    Shift=    0.000
 Gap=     0.021 Goal=   None    Shift=    0.000
 RMSDP=9.51D-07 MaxDP=1.06D-04 DE=-1.11D-08 OVMax= 2.23D-04

 Cycle  17  Pass 1  IDiag  1:
 RMSU=  6.17D-08    CP:  9.84D-01  8.48D-01  9.42D-03  7.48D-01  1.03D+00
                    CP:  6.62D-01  8.67D-01  1.49D+00  9.87D-01  3.00D+00
                    CP:  1.35D+00  8.37D-01  1.30D+00  1.12D+00  4.30D-01
                    CP: -5.32D-01
 E= -1136.06075439106     Delta-E=        0.000000005520 Rises=F Damp=F
 DIIS: error= 2.75D-06 at cycle  17 NSaved=  17.
 NSaved=17 IEnMin=16 EnMin= -1136.06075439658     IErMin=17 ErrMin= 2.75D-06
 ErrMax= 2.75D-06  0.00D+00 EMaxC= 1.00D-01 BMatC= 1.40D-09 BMatP= 1.00D-09
 IDIUse=1 WtCom= 1.00D+00 WtEn= 0.00D+00
 Coeff-Com: -0.567D-05 0.785D-05-0.746D-05-0.125D-04 0.153D-05 0.156D-04
 Coeff-Com:  0.139D-03-0.617D-03-0.165D-02 0.470D-02-0.396D-03-0.128D-01
 Coeff-Com: -0.490D-01 0.986D-01 0.299D+00-0.759D+00 0.142D+01
 Coeff:     -0.567D-05 0.785D-05-0.746D-05-0.125D-04 0.153D-05 0.156D-04
 Coeff:      0.139D-03-0.617D-03-0.165D-02 0.470D-02-0.396D-03-0.128D-01
 Coeff:     -0.490D-01 0.986D-01 0.299D+00-0.759D+00 0.142D+01
 Gap=     0.021 Goal=   None    Shift=    0.000
 Gap=     0.021 Goal=   None    Shift=    0.000
 RMSDP=7.93D-07 MaxDP=1.09D-04 DE= 5.52D-09 OVMax= 2.14D-04

 Cycle  18  Pass 1  IDiag  1:
 RMSU=  2.69D-08    CP:  9.84D-01  8.49D-01  9.34D-03  7.48D-01  1.03D+00
                    CP:  6.62D-01  8.66D-01  1.49D+00  9.88D-01  3.00D+00
                    CP:  1.35D+00  8.34D-01  1.30D+00  9.53D-01 -6.72D-01
                    CP: -1.57D+00  2.11D+00
 E= -1136.06075439304     Delta-E=       -0.000000001983 Rises=F Damp=F
 DIIS: error= 1.25D-07 at cycle  18 NSaved=  18.
 NSaved=18 IEnMin=16 EnMin= -1136.06075439658     IErMin=18 ErrMin= 1.25D-07
 ErrMax= 1.25D-07  0.00D+00 EMaxC= 1.00D-01 BMatC= 3.32D-12 BMatP= 1.00D-09
 IDIUse=1 WtCom= 1.00D+00 WtEn= 0.00D+00
 Coeff-Com: -0.323D-06 0.501D-06 0.123D-05 0.132D-05 0.125D-04 0.296D-05
 Coeff-Com:  0.315D-04 0.459D-03-0.192D-02 0.134D-02 0.916D-03 0.172D-02
 Coeff-Com:  0.891D-03-0.598D-01-0.676D-01-0.484D-01 0.225D+00 0.948D+00
 Coeff:     -0.323D-06 0.501D-06 0.123D-05 0.132D-05 0.125D-04 0.296D-05
 Coeff:      0.315D-04 0.459D-03-0.192D-02 0.134D-02 0.916D-03 0.172D-02
 Coeff:      0.891D-03-0.598D-01-0.676D-01-0.484D-01 0.225D+00 0.948D+00
 Gap=     0.021 Goal=   None    Shift=    0.000
 Gap=     0.021 Goal=   None    Shift=    0.000
 RMSDP=5.99D-08 MaxDP=5.73D-06 DE=-1.98D-09 OVMax= 9.99D-06

 Cycle  19  Pass 1  IDiag  1:
 RMSU=  1.03D-08    CP:  9.84D-01  8.49D-01  9.33D-03  7.48D-01  1.03D+00
                    CP:  6.62D-01  8.66D-01  1.49D+00  9.90D-01  3.00D+00
                    CP:  1.35D+00  8.34D-01  1.31D+00  9.60D-01 -7.10D-01
                    CP: -1.67D+00  2.27D+00  1.29D+00
 E= -1136.06075439306     Delta-E=       -0.000000000015 Rises=F Damp=F
 DIIS: error= 5.01D-08 at cycle  19 NSaved=  19.
 NSaved=19 IEnMin=16 EnMin= -1136.06075439658     IErMin=19 ErrMin= 5.01D-08
 ErrMax= 5.01D-08  0.00D+00 EMaxC= 1.00D-01 BMatC= 5.17D-13 BMatP= 3.32D-12
 IDIUse=1 WtCom= 1.00D+00 WtEn= 0.00D+00
 Coeff-Com: -0.220D-06 0.291D-06 0.523D-06 0.825D-06 0.514D-05 0.612D-05
 Coeff-Com:  0.556D-05 0.110D-03-0.624D-03 0.391D-03 0.238D-03 0.779D-03
 Coeff-Com:  0.112D-02-0.179D-01-0.238D-01 0.113D-01 0.935D-02 0.230D+00
 Coeff-Com:  0.789D+00
 Coeff:     -0.220D-06 0.291D-06 0.523D-06 0.825D-06 0.514D-05 0.612D-05
 Coeff:      0.556D-05 0.110D-03-0.624D-03 0.391D-03 0.238D-03 0.779D-03
 Coeff:      0.112D-02-0.179D-01-0.238D-01 0.113D-01 0.935D-02 0.230D+00
 Coeff:      0.789D+00
 Gap=     0.021 Goal=   None    Shift=    0.000
 Gap=     0.021 Goal=   None    Shift=    0.000
 RMSDP=1.12D-08 MaxDP=8.59D-07 DE=-1.55D-11 OVMax= 1.86D-06

 Cycle  20  Pass 1  IDiag  1:
 RMSU=  1.15D-09    CP:  9.84D-01  8.49D-01  9.33D-03  7.48D-01  1.03D+00
                    CP:  6.62D-01  8.66D-01  1.49D+00  9.90D-01  3.00D+00
                    CP:  1.35D+00  8.34D-01  1.31D+00  9.60D-01 -7.09D-01
                    CP: -1.67D+00  2.28D+00  1.36D+00  1.21D+00
 E= -1136.06075439305     Delta-E=        0.000000000001 Rises=F Damp=F
 DIIS: error= 8.29D-09 at cycle  20 NSaved=  20.
 NSaved=20 IEnMin=16 EnMin= -1136.06075439658     IErMin=20 ErrMin= 8.29D-09
 ErrMax= 8.29D-09  0.00D+00 EMaxC= 1.00D-01 BMatC= 1.83D-14 BMatP= 5.17D-13
 IDIUse=1 WtCom= 1.00D+00 WtEn= 0.00D+00
 Coeff-Com:  0.572D-07-0.768D-07 0.802D-07 0.104D-06-0.421D-06-0.596D-06
 Coeff-Com:  0.107D-05-0.726D-05 0.509D-04-0.696D-04-0.361D-04-0.235D-04
 Coeff-Com:  0.263D-03 0.142D-02-0.907D-04 0.747D-02-0.185D-01-0.329D-01
 Coeff-Com:  0.237D+00 0.806D+00
 Coeff:      0.572D-07-0.768D-07 0.802D-07 0.104D-06-0.421D-06-0.596D-06
 Coeff:      0.107D-05-0.726D-05 0.509D-04-0.696D-04-0.361D-04-0.235D-04
 Coeff:      0.263D-03 0.142D-02-0.907D-04 0.747D-02-0.185D-01-0.329D-01
 Coeff:      0.237D+00 0.806D+00
 Gap=     0.021 Goal=   None    Shift=    0.000
 Gap=     0.021 Goal=   None    Shift=    0.000
 RMSDP=2.30D-09 MaxDP=1.33D-07 DE= 1.36D-12 OVMax= 2.74D-07

 SCF Done:  E(UB3LYP) =  -1136.06075439     A.U. after   20 cycles
            NFock= 20  Conv=0.23D-08     -V/T= 2.0029
 <Sx>= 0.0000 <Sy>= 0.0000 <Sz>= 0.5000 <S**2>= 0.7500 S= 0.5000
 <L.S>= 0.000000000000E+00
 KE= 1.132781568411D+03 PE=-3.000770876601D+03 EE= 5.957706131930D+02
 Annihilation of the first spin contaminant:
 S**2 before annihilation     0.7500,   after     0.7500
 Leave Link  502 at Tue Nov 21 11:49:22 2023, MaxMem=   104857600 cpu:             537.6 elap:             486.8
 (Enter /home/sekinelabo/g16/l601.exe)
 Copying SCF densities to generalized density rwf, IOpCl= 1 IROHF=0.

 **********************************************************************

            Population analysis using the SCF Density.

 **********************************************************************

 Orbital symmetries:
 Alpha Orbitals:
       Occupied  (A) (A) (A) (A) (A) (A) (A) (A) (A) (A) (A) (A)
                 (A) (A) (A) (A) (A) (A) (A) (A) (A) (A) (A) (A)
                 (A) (A) (A) (A) (A) (A) (A) (A) (A) (A) (A) (A)
                 (A) (A) (A)
       Virtual   (A) (A) (A) (A) (A) (A) (A) (A) (A) (A) (A) (A)
                 (A) (A) (A) (A) (A) (A) (A) (A) (A) (A) (A) (A)
                 (A) (A) (A) (A) (A) (A) (A) (A) (A) (A) (A) (A)
                 (A) (A) (A) (A) (A) (A) (A) (A) (A) (A) (A) (A)
                 (A) (A) (A) (A) (A) (A) (A) (A) (A) (A) (A) (A)
                 (A) (A) (A) (A) (A) (A) (A) (A) (A) (A) (A) (A)
                 (A) (A) (A) (A) (A) (A) (A) (A) (A) (A) (A) (A)
                 (A) (A) (A) (A) (A) (A) (A) (A) (A) (A) (A) (A)
                 (A) (A) (A) (A) (A) (A) (A) (A) (A) (A) (A) (A)
                 (A) (A) (A) (A) (A) (A) (A) (A) (A) (A) (A) (A)
                 (A) (A) (A) (A) (A) (A) (A) (A) (A) (A) (A) (A)
                 (A) (A) (A) (A) (A) (A) (A) (A) (A) (A) (A) (A)
                 (A) (A) (A) (A) (A) (A) (A) (A) (A) (A) (A) (A)
                 (A) (A) (A) (A) (A) (A) (A) (A) (A) (A) (A) (A)
                 (A) (A) (A)
 Beta  Orbitals:
       Occupied  (A) (A) (A) (A) (A) (A) (A) (A) (A) (A) (A) (A)
                 (A) (A) (A) (A) (A) (A) (A) (A) (A) (A) (A) (A)
                 (A) (A) (A) (A) (A) (A) (A) (A) (A) (A) (A) (A)
                 (A) (A)
       Virtual   (A) (A) (A) (A) (A) (A) (A) (A) (A) (A) (A) (A)
                 (A) (A) (A) (A) (A) (A) (A) (A) (A) (A) (A) (A)
                 (A) (A) (A) (A) (A) (A) (A) (A) (A) (A) (A) (A)
                 (A) (A) (A) (A) (A) (A) (A) (A) (A) (A) (A) (A)
                 (A) (A) (A) (A) (A) (A) (A) (A) (A) (A) (A) (A)
                 (A) (A) (A) (A) (A) (A) (A) (A) (A) (A) (A) (A)
                 (A) (A) (A) (A) (A) (A) (A) (A) (A) (A) (A) (A)
                 (A) (A) (A) (A) (A) (A) (A) (A) (A) (A) (A) (A)
                 (A) (A) (A) (A) (A) (A) (A) (A) (A) (A) (A) (A)
                 (A) (A) (A) (A) (A) (A) (A) (A) (A) (A) (A) (A)
                 (A) (A) (A) (A) (A) (A) (A) (A) (A) (A) (A) (A)
                 (A) (A) (A) (A) (A) (A) (A) (A) (A) (A) (A) (A)
                 (A) (A) (A) (A) (A) (A) (A) (A) (A) (A) (A) (A)
                 (A) (A) (A) (A) (A) (A) (A) (A) (A) (A) (A) (A)
                 (A) (A) (A) (A)
 The electronic state is 2-A.
 Alpha  occ. eigenvalues --  -38.46667 -38.45770 -38.45770 -38.44398 -38.44397
 Alpha  occ. eigenvalues --  -38.44197 -38.43994  -2.22430  -2.21554  -2.21454
 Alpha  occ. eigenvalues --   -2.20153  -2.20147  -2.19943  -2.19830  -1.16140
 Alpha  occ. eigenvalues --   -1.16081  -1.16052  -1.15167  -1.15167  -1.15167
 Alpha  occ. eigenvalues --   -1.15133  -1.15129  -1.15099  -1.13841  -1.13825
 Alpha  occ. eigenvalues --   -1.13825  -1.13811  -1.13811  -1.13732  -1.13617
 Alpha  occ. eigenvalues --   -1.13611  -1.13593  -1.13553  -1.13503  -1.13415
 Alpha  occ. eigenvalues --   -0.14539  -0.12811  -0.12797  -0.10818
 Alpha virt. eigenvalues --   -0.08734  -0.05877  -0.04786  -0.03155  -0.02925
 Alpha virt. eigenvalues --   -0.02259  -0.02258  -0.02096  -0.02096  -0.02095
 Alpha virt. eigenvalues --   -0.01822  -0.01303  -0.01189  -0.01118  -0.00737
 Alpha virt. eigenvalues --   -0.00504   0.00099   0.00173   0.00244   0.00504
 Alpha virt. eigenvalues --    0.00505   0.00605   0.00741   0.00813   0.00961
 Alpha virt. eigenvalues --    0.01132   0.01258   0.01296   0.01310   0.01312
 Alpha virt. eigenvalues --    0.01332   0.01343   0.01600   0.01666   0.01760
 Alpha virt. eigenvalues --    0.01848   0.01943   0.02007   0.02209   0.02288
 Alpha virt. eigenvalues --    0.02464   0.02549   0.02560   0.02712   0.02715
 Alpha virt. eigenvalues --    0.02772   0.03147   0.03306   0.03585   0.04146
 Alpha virt. eigenvalues --    0.04692   0.05050   0.07056   0.07107   0.07320
 Alpha virt. eigenvalues --    0.07443   0.07475   0.07477   0.07546   0.07549
 Alpha virt. eigenvalues --    0.07646   0.07727   0.08004   0.08113   0.08323
 Alpha virt. eigenvalues --    0.08561   0.08639   0.08700   0.08833   0.09119
 Alpha virt. eigenvalues --    0.09512   0.09514   0.10247   0.10360   0.11305
 Alpha virt. eigenvalues --    0.11628   0.12097   0.14432   0.14717   0.15554
 Alpha virt. eigenvalues --    0.28221   0.29050   0.29598   0.30050   0.30051
 Alpha virt. eigenvalues --    0.31225   0.31483   0.32697   0.33229   0.33229
 Alpha virt. eigenvalues --    0.33229   0.33229   0.33229   0.33765   0.33765
 Alpha virt. eigenvalues --    0.34458   0.34607   0.34633   0.34728   0.34967
 Alpha virt. eigenvalues --    0.35197   0.35566   0.35864   0.36981   0.37253
 Alpha virt. eigenvalues --    0.37253   0.39656   0.41544   0.41915   0.41937
 Alpha virt. eigenvalues --    0.41945   0.41970   0.42053   0.42058   0.42381
 Alpha virt. eigenvalues --    0.43186   0.43531   0.43607   0.43607   0.43754
 Alpha virt. eigenvalues --    0.43754   0.44226   0.44484   0.44754   0.45461
 Alpha virt. eigenvalues --    0.45974   0.45974   0.46595   0.47410   0.48197
 Alpha virt. eigenvalues --    0.49238   0.49749   0.51679   0.60011   0.62902
 Alpha virt. eigenvalues --    0.72455   1.98686   2.00522   2.01292   2.02933
 Alpha virt. eigenvalues --    2.08699   2.11962   2.15735   4.40593   4.41596
 Alpha virt. eigenvalues --    4.41971   4.42289   4.42811   4.42814   4.42821
 Alpha virt. eigenvalues --    4.43207   4.43596   4.44019   4.44019   4.44309
 Alpha virt. eigenvalues --    4.44799   4.45016   4.45016   4.45115   4.45805
 Alpha virt. eigenvalues --    4.46515   4.50812   4.54700   4.66156  96.17706
 Alpha virt. eigenvalues --   96.19268  96.20376  96.22307  96.29709  96.33377
 Alpha virt. eigenvalues --   96.38404
  Beta  occ. eigenvalues --  -38.46667 -38.45770 -38.45584 -38.44398 -38.44397
  Beta  occ. eigenvalues --  -38.44197 -38.43994  -2.22430  -2.21454  -2.21208
  Beta  occ. eigenvalues --   -2.20153  -2.20147  -2.19943  -2.19830  -1.16140
  Beta  occ. eigenvalues --   -1.16081  -1.16052  -1.15133  -1.15129  -1.15099
  Beta  occ. eigenvalues --   -1.14933  -1.14933  -1.14933  -1.13841  -1.13825
  Beta  occ. eigenvalues --   -1.13825  -1.13811  -1.13811  -1.13732  -1.13617
  Beta  occ. eigenvalues --   -1.13611  -1.13593  -1.13553  -1.13503  -1.13415
  Beta  occ. eigenvalues --   -0.14539  -0.12811  -0.10818
  Beta virt. eigenvalues --   -0.08734  -0.06222  -0.05877  -0.04786  -0.03155
  Beta virt. eigenvalues --   -0.02925  -0.02259  -0.02258  -0.01822  -0.01303
  Beta virt. eigenvalues --   -0.01189  -0.01120  -0.00737  -0.00505  -0.00099
  Beta virt. eigenvalues --   -0.00098  -0.00074   0.00162   0.00244   0.00504
  Beta virt. eigenvalues --    0.00505   0.00605   0.00741   0.00777   0.00872
  Beta virt. eigenvalues --    0.00964   0.01154   0.01294   0.01310   0.01312
  Beta virt. eigenvalues --    0.01483   0.01658   0.01728   0.01760   0.01939
  Beta virt. eigenvalues --    0.01994   0.02189   0.02195   0.02266   0.02269
  Beta virt. eigenvalues --    0.02462   0.02475   0.02549   0.02576   0.02712
  Beta virt. eigenvalues --    0.02715   0.02774   0.03147   0.03305   0.03593
  Beta virt. eigenvalues --    0.04146   0.04691   0.05050   0.07076   0.07107
  Beta virt. eigenvalues --    0.07403   0.07468   0.07546   0.07549   0.07721
  Beta virt. eigenvalues --    0.08101   0.08308   0.08361   0.08635   0.08700
  Beta virt. eigenvalues --    0.08773   0.08840   0.08847   0.09028   0.09119
  Beta virt. eigenvalues --    0.09512   0.09514   0.09530   0.10251   0.10360
  Beta virt. eigenvalues --    0.11306   0.11628   0.12096   0.14432   0.14717
  Beta virt. eigenvalues --    0.15554   0.28221   0.29050   0.29598   0.30050
  Beta virt. eigenvalues --    0.30051   0.31225   0.31483   0.32697   0.33765
  Beta virt. eigenvalues --    0.33765   0.34458   0.34607   0.34633   0.34728
  Beta virt. eigenvalues --    0.34967   0.35197   0.35327   0.35327   0.35327
  Beta virt. eigenvalues --    0.35327   0.35327   0.35566   0.35864   0.36981
  Beta virt. eigenvalues --    0.37253   0.37253   0.39656   0.41546   0.41919
  Beta virt. eigenvalues --    0.42040   0.42058   0.42341   0.43181   0.43429
  Beta virt. eigenvalues --    0.43435   0.43459   0.43568   0.43607   0.43607
  Beta virt. eigenvalues --    0.43754   0.43754   0.44227   0.44491   0.44754
  Beta virt. eigenvalues --    0.45462   0.45974   0.45974   0.46595   0.47410
  Beta virt. eigenvalues --    0.48198   0.49238   0.49749   0.51679   0.60011
  Beta virt. eigenvalues --    0.62902   0.72455   1.99555   2.00522   2.01292
  Beta virt. eigenvalues --    2.02933   2.08699   2.11962   2.15735   4.40593
  Beta virt. eigenvalues --    4.41596   4.41971   4.42289   4.43080   4.43135
  Beta virt. eigenvalues --    4.43137   4.43257   4.43605   4.44019   4.44019
  Beta virt. eigenvalues --    4.44310   4.44799   4.45016   4.45016   4.45115
  Beta virt. eigenvalues --    4.45805   4.46515   4.50812   4.54700   4.66156
  Beta virt. eigenvalues --   96.17974  96.19268  96.20376  96.22307  96.29709
  Beta virt. eigenvalues --   96.33377  96.38404
          Condensed to atoms (all electrons):
               1          2          3          4          5          6
     1  Na  11.010441   0.000000  -0.000000   0.033016   0.023631  -0.067661
     2  Na   0.000000  10.671347   0.328468  -0.000000   0.000000  -0.000000
     3  Na  -0.000000   0.328468  10.671718   0.000000  -0.000000   0.000000
     4  Na   0.033016  -0.000000   0.000000  10.577493   0.301514  -0.059499
     5  Na   0.023631   0.000000  -0.000000   0.301514  10.839987   0.190031
     6  Na  -0.067661  -0.000000   0.000000  -0.059499   0.190031  10.730015
     7  Na  -0.000002  -0.000000  -0.000000  -0.000000  -0.000000   0.000000
               7
     1  Na  -0.000002
     2  Na  -0.000000
     3  Na  -0.000000
     4  Na  -0.000000
     5  Na  -0.000000
     6  Na   0.000000
     7  Na  11.000005
          Atomic-Atomic Spin Densities.
               1          2          3          4          5          6
     1  Na  -0.000035  -0.000000   0.000000  -0.000001  -0.000021   0.000053
     2  Na  -0.000000  -0.000000   0.000000   0.000000   0.000000  -0.000000
     3  Na   0.000000   0.000000   0.000000  -0.000000   0.000000  -0.000000
     4  Na  -0.000001   0.000000  -0.000000   0.000011  -0.000006  -0.000009
     5  Na  -0.000021   0.000000   0.000000  -0.000006   0.000056  -0.000025
     6  Na   0.000053  -0.000000  -0.000000  -0.000009  -0.000025  -0.000013
     7  Na  -0.000002  -0.000000   0.000000  -0.000000   0.000000   0.000000
               7
     1  Na  -0.000002
     2  Na  -0.000000
     3  Na   0.000000
     4  Na  -0.000000
     5  Na   0.000000
     6  Na   0.000000
     7  Na   1.000004
 Mulliken charges and spin densities:
               1          2
     1  Na   0.000576  -0.000007
     2  Na   0.000186  -0.000000
     3  Na  -0.000186   0.000000
     4  Na   0.147477  -0.000005
     5  Na  -0.355164   0.000004
     6  Na   0.207114   0.000006
     7  Na  -0.000002   1.000002
 Sum of Mulliken charges =  -0.00000   1.00000
 Mulliken charges and spin densities with hydrogens summed into heavy atoms:
               1          2
     1  Na   0.000576  -0.000007
     2  Na   0.000186  -0.000000
     3  Na  -0.000186   0.000000
     4  Na   0.147477  -0.000005
     5  Na  -0.355164   0.000004
     6  Na   0.207114   0.000006
     7  Na  -0.000002   1.000002
 Electronic spatial extent (au):  <R**2>=          60251.8618
 Charge=             -0.0000 electrons
 Dipole moment (field-independent basis, Debye):
    X=             -0.3957    Y=              0.0718    Z=              1.2859  Tot=              1.3473
 Quadrupole moment (field-independent basis, Debye-Ang):
   XX=            -70.7503   YY=            -74.0705   ZZ=            -57.4683
   XY=             -1.5106   XZ=             -9.3147   YZ=            -11.0010
 Traceless Quadrupole moment (field-independent basis, Debye-Ang):
   XX=             -3.3206   YY=             -6.6408   ZZ=              9.9614
   XY=             -1.5106   XZ=             -9.3147   YZ=            -11.0010
 Octapole moment (field-independent basis, Debye-Ang**2):
  XXX=             -5.8291  YYY=            -66.2686  ZZZ=             50.6180  XYY=             51.1166
  XXY=           -115.3200  XXZ=            254.2884  XZZ=             12.2609  YZZ=            -62.1895
  YYZ=             14.2182  XYZ=            -28.9233
 Hexadecapole moment (field-independent basis, Debye-Ang**3):
 XXXX=         -68082.9388 YYYY=         -30233.0149 ZZZZ=          -1047.9240 XXXY=          -2163.6718
 XXXZ=           2621.5608 YYYX=            351.0393 YYYZ=             27.6764 ZZZX=           -437.6599
 ZZZY=           -263.9295 XXYY=         -15890.1688 XXZZ=          -8468.0228 YYZZ=          -5115.6039
 XXYZ=          -2546.4510 YYXZ=           -206.0252 ZZXY=            523.6445
 N-N= 1.361579406048D+02 E-N=-3.000770877675D+03  KE= 1.132781568411D+03
                          Isotropic Fermi Contact Couplings
        Atom                 a.u.       MegaHertz       Gauss      10(-4) cm-1
     1  Na(23)             0.00000       0.00006       0.00002       0.00002
     2  Na(23)            -0.00000      -0.00000      -0.00000      -0.00000
     3  Na(23)             0.00000       0.00000       0.00000       0.00000
     4  Na(23)            -0.00000      -0.00050      -0.00018      -0.00017
     5  Na(23)            -0.00000      -0.00010      -0.00004      -0.00003
     6  Na(23)             0.00000       0.00013       0.00005       0.00004
     7  Na(23)             0.79297     938.10770     334.74016     312.91905
 --------------------------------------------------------
       Center         ----  Spin Dipole Couplings  ----
                      3XX-RR        3YY-RR        3ZZ-RR
 --------------------------------------------------------
     1   Atom       -0.000019      0.000037     -0.000019
     2   Atom        0.000005     -0.000000     -0.000005
     3   Atom        0.000004      0.000000     -0.000004
     4   Atom       -0.000012      0.000024     -0.000012
     5   Atom       -0.000012      0.000023     -0.000012
     6   Atom       -0.000008      0.000016     -0.000008
     7   Atom       -0.000000      0.000001     -0.000001
 --------------------------------------------------------
                        XY            XZ            YZ
 --------------------------------------------------------
     1   Atom        0.000007      0.000001      0.000007
     2   Atom       -0.000007     -0.000001      0.000000
     3   Atom       -0.000006      0.000000     -0.000000
     4   Atom        0.000002     -0.000000     -0.000004
     5   Atom        0.000000      0.000000      0.000000
     6   Atom       -0.000001     -0.000000      0.000001
     7   Atom        0.000000      0.000000      0.000000
 --------------------------------------------------------


 ---------------------------------------------------------------------------------
              Anisotropic Spin Dipole Couplings in Principal Axis System
 ---------------------------------------------------------------------------------

       Atom             a.u.   MegaHertz   Gauss  10(-4) cm-1        Axes

              Baa    -0.0000    -0.003    -0.001    -0.001  0.4258 -0.1563  0.8912
     1 Na(23) Bbb    -0.0000    -0.003    -0.001    -0.001  0.8973 -0.0537 -0.4381
              Bcc     0.0000     0.006     0.002     0.002  0.1163  0.9863  0.1174
 
              Baa    -0.0000    -0.001    -0.000    -0.000  0.3582  0.4551  0.8152
     2 Na(23) Bbb    -0.0000    -0.001    -0.000    -0.000  0.4352  0.6911 -0.5771
              Bcc     0.0000     0.001     0.000     0.000  0.8260 -0.5615 -0.0495
 
              Baa    -0.0000    -0.001    -0.000    -0.000 -0.1279 -0.1287  0.9834
     3 Na(23) Bbb    -0.0000    -0.001    -0.000    -0.000  0.5670  0.8041  0.1790
              Bcc     0.0000     0.001     0.000     0.000  0.8137 -0.5804  0.0298
 
              Baa    -0.0000    -0.002    -0.001    -0.001  0.8189 -0.1132 -0.5627
     4 Na(23) Bbb    -0.0000    -0.002    -0.001    -0.001  0.5706  0.0544  0.8194
              Bcc     0.0000     0.004     0.001     0.001  0.0622  0.9921 -0.1091
 
              Baa    -0.0000    -0.002    -0.001    -0.001 -0.4256 -0.0005  0.9049
     5 Na(23) Bbb    -0.0000    -0.002    -0.001    -0.001  0.9048 -0.0153  0.4255
              Bcc     0.0000     0.003     0.001     0.001  0.0136  0.9999  0.0069
 
              Baa    -0.0000    -0.001    -0.000    -0.000 -0.5165 -0.0514  0.8547
     6 Na(23) Bbb    -0.0000    -0.001    -0.000    -0.000  0.8559 -0.0009  0.5171
              Bcc     0.0000     0.002     0.001     0.001 -0.0258  0.9987  0.0444
 
              Baa    -0.0000    -0.000    -0.000    -0.000 -0.2211 -0.1579  0.9624
     7 Na(23) Bbb    -0.0000    -0.000    -0.000    -0.000  0.9726 -0.1076  0.2058
              Bcc     0.0000     0.000     0.000     0.000  0.0711  0.9816  0.1774
 

 ---------------------------------------------------------------------------------

 No NMR shielding tensors so no spin-rotation constants.
 Leave Link  601 at Tue Nov 21 11:49:30 2023, MaxMem=   104857600 cpu:              16.0 elap:               8.3
 (Enter /home/sekinelabo/g16/l701.exe)
 ... and contract with generalized density number  0.
 Compute integral first derivatives.
 Leave Link  701 at Tue Nov 21 11:49:34 2023, MaxMem=   104857600 cpu:               7.3 elap:               3.9
 (Enter /home/sekinelabo/g16/l702.exe)
 L702 exits ... SP integral derivatives will be done elsewhere.
 Leave Link  702 at Tue Nov 21 11:49:34 2023, MaxMem=   104857600 cpu:               0.6 elap:               0.4
 (Enter /home/sekinelabo/g16/l703.exe)
 Integral derivatives from FoFJK, PRISM(SPDF).
 Compute integral first derivatives, UseDBF=F ICtDFT=           0.
 Calling FoFJK, ICntrl=      2127 FMM=F ISym2X=0 I1Cent= 0 IOpClX= 1 NMat=1 NMatS=1 NMatT=0.
 FoFJK:  IHMeth= 1 ICntrl=    2127 DoSepK=F KAlg= 0 I1Cent=           0 FoldK=F
 IRaf=         0 NMat=       1 IRICut=       1 DoRegI=T DoRafI=F ISym2E= 0 IDoP0=0 IntGTp=1.
 FoFCou: FMM=F IPFlag=           0 FMFlag=      100000 FMFlg1=         800
         NFxFlg=           0 DoJE=F BraDBF=F KetDBF=F FulRan=T
         wScrn=  0.000000 ICntrl=      2127 IOpCl=  1 I1Cent=           0 NGrid=           0
         NMat0=    1 NMatS0=      1 NMatT0=    0 NMatD0=    1 NMtDS0=    0 NMtDT0=    0
 Symmetry not used in FoFCou.
 Leave Link  703 at Tue Nov 21 11:49:46 2023, MaxMem=   104857600 cpu:              23.6 elap:              11.6
 (Enter /home/sekinelabo/g16/l716.exe)
 Dipole        =-1.55672568D-01 2.82368325D-02 5.05899875D-01
 ***** Axes restored to original set *****
 -------------------------------------------------------------------
 Center     Atomic                   Forces (Hartrees/Bohr)
 Number     Number              X              Y              Z
 -------------------------------------------------------------------
      1       11          -0.001714584    0.003445794    0.000397932
      2       11          -0.001978122    0.003408420    0.001283369
      3       11           0.001978110   -0.003408374   -0.001283342
      4       11           0.002792689    0.001205435   -0.002224662
      5       11          -0.002898648   -0.006077241    0.002452266
      6       11           0.001820965    0.001426026   -0.000625482
      7       11          -0.000000410   -0.000000060   -0.000000081
 -------------------------------------------------------------------
 Cartesian Forces:  Max     0.006077241 RMS     0.002396590
 Z-matrix is all fixed cartesians, so copy forces.
 Force constants in Cartesian coordinates: 
                1             2             3             4             5 
      1  0.100000D+01
      2  0.000000D+00  0.100000D+01
      3  0.000000D+00  0.000000D+00  0.100000D+01
      4  0.000000D+00  0.000000D+00  0.000000D+00  0.547803D-02
      5  0.000000D+00  0.000000D+00  0.000000D+00 -0.943740D-02  0.162585D-01
      6  0.000000D+00  0.000000D+00  0.000000D+00 -0.355342D-02  0.612174D-02
      7  0.000000D+00  0.000000D+00  0.000000D+00 -0.547803D-02  0.943740D-02
      8  0.000000D+00  0.000000D+00  0.000000D+00  0.943740D-02 -0.162585D-01
      9  0.000000D+00  0.000000D+00  0.000000D+00  0.355342D-02 -0.612174D-02
     10  0.000000D+00  0.000000D+00  0.000000D+00  0.000000D+00  0.000000D+00
     11  0.000000D+00  0.000000D+00  0.000000D+00  0.000000D+00  0.000000D+00
     12  0.000000D+00  0.000000D+00  0.000000D+00  0.000000D+00  0.000000D+00
     13  0.000000D+00  0.000000D+00  0.000000D+00  0.000000D+00  0.000000D+00
     14  0.000000D+00  0.000000D+00  0.000000D+00  0.000000D+00  0.000000D+00
     15  0.000000D+00  0.000000D+00  0.000000D+00  0.000000D+00  0.000000D+00
     16  0.000000D+00  0.000000D+00  0.000000D+00  0.000000D+00  0.000000D+00
     17  0.000000D+00  0.000000D+00  0.000000D+00  0.000000D+00  0.000000D+00
     18  0.000000D+00  0.000000D+00  0.000000D+00  0.000000D+00  0.000000D+00
     19  0.000000D+00  0.000000D+00  0.000000D+00  0.000000D+00  0.000000D+00
     20  0.000000D+00  0.000000D+00  0.000000D+00  0.000000D+00  0.000000D+00
     21  0.000000D+00  0.000000D+00  0.000000D+00  0.000000D+00  0.000000D+00
                6             7             8             9            10 
      6  0.230499D-02
      7  0.355342D-02  0.547803D-02
      8 -0.612174D-02 -0.943740D-02  0.162585D-01
      9 -0.230499D-02 -0.355342D-02  0.612174D-02  0.230499D-02
     10  0.000000D+00  0.000000D+00  0.000000D+00  0.000000D+00  0.107245D-01
     11  0.000000D+00  0.000000D+00  0.000000D+00  0.000000D+00  0.781226D-02
     12  0.000000D+00  0.000000D+00  0.000000D+00  0.000000D+00 -0.553042D-02
     13  0.000000D+00  0.000000D+00  0.000000D+00  0.000000D+00 -0.126782D-01
     14  0.000000D+00  0.000000D+00  0.000000D+00  0.000000D+00 -0.208473D-02
     15  0.000000D+00  0.000000D+00  0.000000D+00  0.000000D+00  0.366262D-02
     16  0.000000D+00  0.000000D+00  0.000000D+00  0.000000D+00  0.195364D-02
     17  0.000000D+00  0.000000D+00  0.000000D+00  0.000000D+00 -0.572753D-02
     18  0.000000D+00  0.000000D+00  0.000000D+00  0.000000D+00  0.186780D-02
     19  0.000000D+00  0.000000D+00  0.000000D+00  0.000000D+00  0.000000D+00
     20  0.000000D+00  0.000000D+00  0.000000D+00  0.000000D+00  0.000000D+00
     21  0.000000D+00  0.000000D+00  0.000000D+00  0.000000D+00  0.000000D+00
               11            12            13            14            15 
     11  0.297942D-01
     12 -0.137205D-01  0.674899D-02
     13 -0.703571D-02  0.565339D-02  0.319667D-01
     14 -0.320708D-01  0.133600D-01  0.365825D-02  0.400767D-01
     15  0.144629D-01 -0.663142D-02 -0.859229D-02 -0.169296D-01  0.872148D-02
     16 -0.776548D-03 -0.122972D-03 -0.192885D-01 -0.157353D-02  0.492967D-02
     17  0.227662D-02  0.360519D-03  0.337746D-02 -0.800586D-02  0.246672D-02
     18 -0.742427D-03 -0.117568D-03  0.293890D-02  0.356967D-02 -0.209006D-02
     19  0.000000D+00  0.000000D+00  0.000000D+00  0.000000D+00  0.000000D+00
     20  0.000000D+00  0.000000D+00  0.000000D+00  0.000000D+00  0.000000D+00
     21  0.000000D+00  0.000000D+00  0.000000D+00  0.000000D+00  0.000000D+00
               16            17            18            19            20 
     16  0.173349D-01
     17  0.235007D-02  0.572924D-02
     18 -0.480670D-02 -0.282724D-02  0.220763D-02
     19  0.000000D+00  0.000000D+00  0.000000D+00  0.100000D+01
     20  0.000000D+00  0.000000D+00  0.000000D+00  0.000000D+00  0.100000D+01
     21  0.000000D+00  0.000000D+00  0.000000D+00  0.000000D+00  0.000000D+00
               21 
     21  0.100000D+01
 Leave Link  716 at Tue Nov 21 11:49:46 2023, MaxMem=   104857600 cpu:               0.7 elap:               0.4
 (Enter /home/sekinelabo/g16/l103.exe)

 GradGradGradGradGradGradGradGradGradGradGradGradGradGradGradGradGradGrad
 Berny optimization.
 Search for a local minimum.
 Step number   1 out of a maximum of    2
 All quantities printed in internal units (Hartrees-Bohrs-Radians)
 Second derivative matrix not updated -- first step.
 ITU=  0
     Eigenvalues ---   -0.00000  -0.00000  -0.00000   0.00000   0.00000
     Eigenvalues ---    0.02033   0.03576   0.04696   0.04808   0.08601
     Eigenvalues ---    0.46528   0.71429   0.80841   0.93138   1.00000
 Eigenvalue     1 is  -9.99D-16 should be greater than     0.000000 Eigenvector:
                          Z3        Z2        X3        X2        Z6
   1                    0.51273  -0.41988   0.39842  -0.39711  -0.28395
                          Z5        Y6        Y5        X5        Y3
   1                    0.27116  -0.21011   0.12966   0.08826   0.08447
 Eigenvalue     2 is  -6.66D-16 should be greater than     0.000000 Eigenvector:
                          Z2        Z4        Z6        Y5        Z5
   1                    0.65678  -0.54065  -0.30022   0.20868   0.19950
                          X4        Y2        Y3        Y6        X3
   1                   -0.18159  -0.16830   0.11437  -0.09575   0.09480
 Eigenvalue     3 is  -2.22D-16 should be greater than     0.000000 Eigenvector:
                          Z5        Z3        Z2        Z6        Z4
   1                    0.66052  -0.44714  -0.31822   0.31504  -0.21020
                          Y5        X5        Y4        X3        X6
   1                    0.19453   0.15431  -0.14752  -0.14109   0.08396
 Eigenvalue     4 is   2.22D-16 Eigenvector:
                          Z3        Z4        Y3        Y2        X2
   1                    0.52524  -0.51647  -0.27791   0.26317   0.25676
                          Y6        X3        Y4        Z6        Z2
   1                    0.25346  -0.24354  -0.22970   0.20673  -0.14052
 Eigenvalue     5 is   6.66D-16 Eigenvector:
                          Z6        Z5        X2        X6        Z4
   1                    0.60398  -0.36572  -0.34308   0.33749  -0.26128
                          X4        X3        Y2        Y3        Y4
   1                   -0.25524   0.23194  -0.19857   0.15517   0.11774
 Quadratic step=1.348D+01 exceeds max=3.000D-01 adjusted using Lamda=-5.197D-03.
 Angle between NR and scaled steps=  31.23 degrees.
 Angle between quadratic step and forces=  55.42 degrees.
 Linear search not attempted -- first point.
 B after Tr=     0.000000    0.000000    0.000000
         Rot=    1.000000    0.000000    0.000000    0.000000 Ang=   0.00 deg.
 Variable       Old X    -DE/DX   Delta X   Delta X   Delta X     New X
                                 (Linear)    (Quad)   (Total)
    X1       18.18638  -0.00171   0.00000  -0.00103  -0.00103  18.18536
    Y1        0.10960   0.00345   0.00000   0.00673   0.00673   0.11634
    Z1        1.09649   0.00040   0.00000  -0.00002  -0.00002   1.09647
    X2       21.03908  -0.00198   0.00000   0.06940   0.06940  21.10848
    Y2        4.38373   0.00341   0.00000   0.13606   0.13606   4.51979
    Z2       54.31092   0.00128   0.00000  -0.00817  -0.00817  54.30275
    X3       18.06495   0.00198   0.00000  -0.06714  -0.06714  17.99781
    Y3        9.50748  -0.00341   0.00000  -0.14202  -0.14202   9.36545
    Z3       56.24014  -0.00128   0.00000   0.01744   0.01744  56.25758
    X4       12.57949   0.00279   0.00000   0.07030   0.07030  12.64979
    Y4        9.61050   0.00121   0.00000  -0.05767  -0.05767   9.55284
    Z4        2.14346  -0.00222   0.00000  -0.05341  -0.05341   2.09005
    X5       10.82222  -0.00290   0.00000  -0.06635  -0.06635  10.75586
    Y5        4.82269  -0.00608   0.00000  -0.08620  -0.08620   4.73650
    Z5        4.46009   0.00245   0.00000   0.02879   0.02879   4.48888
    X6        4.74603   0.00182   0.00000  -0.00540  -0.00540   4.74063
    Y6        3.38064   0.00143   0.00000   0.13188   0.13188   3.51253
    Z6        6.39355  -0.00063   0.00000   0.01620   0.01620   6.40975
    X7       54.98536  -0.00000   0.00000   0.00022   0.00022  54.98558
    Y7        2.48762  -0.00000   0.00000   0.01122   0.01122   2.49883
    Z7        5.68534  -0.00000   0.00000  -0.00083  -0.00083   5.68450
         Item               Value     Threshold  Converged?
 Maximum Force            0.006077     0.000450     NO 
 RMS     Force            0.002397     0.000300     NO 
 Maximum Displacement     0.142024     0.001800     NO 
 RMS     Displacement     0.065471     0.001200     NO 
 Predicted change in Energy=-1.172288D-03
 GradGradGradGradGradGradGradGradGradGradGradGradGradGradGradGradGradGrad

 Leave Link  103 at Tue Nov 21 11:49:48 2023, MaxMem=   104857600 cpu:               3.0 elap:               1.4
 (Enter /home/sekinelabo/g16/l9999.exe)
 1\1\GINC-SEKINELABO-XA7R-R37\Force\UB3LYP\6-311+G(d)\Na7(2)\SEKINELABO
 \21-Nov-2023\0\\#P B3LYP/6-311+g(d) force\\DPGEN\\0,2\Na,9.62382,0.058
 ,0.580237\Na,11.1334,2.31977,28.7401\Na,9.55956,5.03114,29.761\Na,6.65
 678,5.08566,1.13427\Na,5.72687,2.55206,2.36018\Na,2.51149,1.78896,3.38
 332\Na,29.097,1.31639,3.00855\\Version=ES64L-G16RevB.01\State=2-A\HF=-
 1136.0607544\S2=0.750009\S2-1=0.\S2A=0.75\RMSD=2.298e-09\RMSF=2.397e-0
 3\Dipole=0.0608577,0.4935304,-0.1835485\Quadrupole=-5.8592308,7.535705
 2,-1.6764743,-7.3674291,-1.1623639,-7.4955109\PG=C01 [X(Na7)]\\@


 NEVER LOSE YOUR IGNORANCE, IT CAN'T BE REPLACED.
   -- ANDY CAPP
 Job cpu time:       0 days  0 hours 10 minutes 43.1 seconds.
 Elapsed time:       0 days  0 hours  9 minutes 30.3 seconds.
 File lengths (MBytes):  RWF=     46 Int=      0 D2E=      0 Chk=      4 Scr=      1
 Normal termination of Gaussian 16 at Tue Nov 21 11:49:48 2023.
