 Entering Gaussian System, Link 0=g16
 Initial command:
 /home/sekinelabo/g16/l1.exe "/home/sekinelabo/g16temp/Gau-1046561.inp" -scrdir="/home/sekinelabo/g16temp/"
 Entering Link 1 = /home/sekinelabo/g16/l1.exe PID=   1046568.
  
 Copyright (c) 1988-2017, Gaussian, Inc.  All Rights Reserved.
  
 This is part of the Gaussian(R) 16 program.  It is based on
 the Gaussian(R) 09 system (copyright 2009, Gaussian, Inc.),
 the Gaussian(R) 03 system (copyright 2003, Gaussian, Inc.),
 the Gaussian(R) 98 system (copyright 1998, Gaussian, Inc.),
 the Gaussian(R) 94 system (copyright 1995, Gaussian, Inc.),
 the Gaussian 92(TM) system (copyright 1992, Gaussian, Inc.),
 the Gaussian 90(TM) system (copyright 1990, Gaussian, Inc.),
 the Gaussian 88(TM) system (copyright 1988, Gaussian, Inc.),
 the Gaussian 86(TM) system (copyright 1986, Carnegie Mellon
 University), and the Gaussian 82(TM) system (copyright 1983,
 Carnegie Mellon University). Gaussian is a federally registered
 trademark of Gaussian, Inc.
  
 This software contains proprietary and confidential information,
 including trade secrets, belonging to Gaussian, Inc.
  
 This software is provided under written license and may be
 used, copied, transmitted, or stored only in accord with that
 written license.
  
 The following legend is applicable only to US Government
 contracts under FAR:
  
                    RESTRICTED RIGHTS LEGEND
  
 Use, reproduction and disclosure by the US Government is
 subject to restrictions as set forth in subparagraphs (a)
 and (c) of the Commercial Computer Software - Restricted
 Rights clause in FAR 52.227-19.
  
 Gaussian, Inc.
 340 Quinnipiac St., Bldg. 40, Wallingford CT 06492
  
  
 ---------------------------------------------------------------
 Warning -- This program may not be used in any manner that
 competes with the business of Gaussian, Inc. or will provide
 assistance to any competitor of Gaussian, Inc.  The licensee
 of this program is prohibited from giving any competitor of
 Gaussian, Inc. access to this program.  By using this program,
 the user acknowledges that Gaussian, Inc. is engaged in the
 business of creating and licensing software in the field of
 computational chemistry and represents and warrants to the
 licensee that it is not a competitor of Gaussian, Inc. and that
 it will not use this program in any manner prohibited above.
 ---------------------------------------------------------------
  

 Cite this work as:
 Gaussian 16, Revision B.01,
 M. J. Frisch, G. W. Trucks, H. B. Schlegel, G. E. Scuseria, 
 M. A. Robb, J. R. Cheeseman, G. Scalmani, V. Barone, 
 G. A. Petersson, H. Nakatsuji, X. Li, M. Caricato, A. V. Marenich, 
 J. Bloino, B. G. Janesko, R. Gomperts, B. Mennucci, H. P. Hratchian, 
 J. V. Ortiz, A. F. Izmaylov, J. L. Sonnenberg, D. Williams-Young, 
 F. Ding, F. Lipparini, F. Egidi, J. Goings, B. Peng, A. Petrone, 
 T. Henderson, D. Ranasinghe, V. G. Zakrzewski, J. Gao, N. Rega, 
 G. Zheng, W. Liang, M. Hada, M. Ehara, K. Toyota, R. Fukuda, 
 J. Hasegawa, M. Ishida, T. Nakajima, Y. Honda, O. Kitao, H. Nakai, 
 T. Vreven, K. Throssell, J. A. Montgomery, Jr., J. E. Peralta, 
 F. Ogliaro, M. J. Bearpark, J. J. Heyd, E. N. Brothers, K. N. Kudin, 
 V. N. Staroverov, T. A. Keith, R. Kobayashi, J. Normand, 
 K. Raghavachari, A. P. Rendell, J. C. Burant, S. S. Iyengar, 
 J. Tomasi, M. Cossi, J. M. Millam, M. Klene, C. Adamo, R. Cammi, 
 J. W. Ochterski, R. L. Martin, K. Morokuma, O. Farkas, 
 J. B. Foresman, and D. J. Fox, Gaussian, Inc., Wallingford CT, 2016.
 
 ******************************************
 Gaussian 16:  ES64L-G16RevB.01 20-Dec-2017
                23-Nov-2023 
 ******************************************
 %nprocshared=14
 Will use up to   14 processors via shared memory.
 -------------------------
 #P B3LYP/6-311+g(d) force
 -------------------------
 1/10=7,30=1,38=1/1,3;
 2/12=2,17=6,18=5,40=1/2;
 3/5=4,6=6,7=11,11=2,25=1,30=1,71=1,74=-5/1,2,3;
 4//1;
 5/5=2,38=5/2;
 6/7=2,8=2,9=2,10=2,28=1/1;
 7/29=1/1,2,3,16;
 1/10=7,30=1/3;
 99//99;
 Leave Link    1 at Thu Nov 23 12:30:21 2023, MaxMem=           0 cpu:               0.5 elap:               0.7
 (Enter /home/sekinelabo/g16/l101.exe)
 -----
 DPGEN
 -----
 Symbolic Z-matrix:
 Charge =  0 Multiplicity = 2
 Na                    12.8064   0.99341   1.32634 
 Na                    11.0716   2.9854    99.656 
 Na                    8.7697    2.06959   1.73898 
 Na                    6.04955   99.9641   3.6239 
 Na                    3.55898   1.81177   3.20323 
 Na                    0.33888   4.39626   0.90366 
 Na                    1.71394   5.93142   98.5156 
 
 ITRead=  0  0  0  0  0  0  0
 MicOpt= -1 -1 -1 -1 -1 -1 -1
 NAtoms=      7 NQM=        7 NQMF=       0 NMMI=      0 NMMIF=      0
                NMic=       0 NMicF=      0.
                    Isotopes and Nuclear Properties:
 (Nuclear quadrupole moments (NQMom) in fm**2, nuclear magnetic moments (NMagM)
  in nuclear magnetons)

  Atom         1           2           3           4           5           6           7
 IAtWgt=          23          23          23          23          23          23          23
 AtmWgt=  22.9897697  22.9897697  22.9897697  22.9897697  22.9897697  22.9897697  22.9897697
 NucSpn=           3           3           3           3           3           3           3
 AtZEff=  -0.0000000  -0.0000000  -0.0000000  -0.0000000  -0.0000000  -0.0000000  -0.0000000
 NQMom=   10.4000000  10.4000000  10.4000000  10.4000000  10.4000000  10.4000000  10.4000000
 NMagM=    2.2175200   2.2175200   2.2175200   2.2175200   2.2175200   2.2175200   2.2175200
 AtZNuc=  11.0000000  11.0000000  11.0000000  11.0000000  11.0000000  11.0000000  11.0000000
 Leave Link  101 at Thu Nov 23 12:30:23 2023, MaxMem=   104857600 cpu:               2.5 elap:               2.7
 (Enter /home/sekinelabo/g16/l103.exe)

 GradGradGradGradGradGradGradGradGradGradGradGradGradGradGradGradGradGrad
 Berny optimization.
 Initialization pass.
 Trust Radius=3.00D-01 FncErr=1.00D-07 GrdErr=1.00D-07 EigMax=2.50D+02 EigMin=1.00D-04
 Number of steps in this run=      2 maximum allowed number of steps=      2.
 GradGradGradGradGradGradGradGradGradGradGradGradGradGradGradGradGradGrad

 Leave Link  103 at Thu Nov 23 12:30:24 2023, MaxMem=   104857600 cpu:               0.5 elap:               0.7
 (Enter /home/sekinelabo/g16/l202.exe)
                          Input orientation:                          
 ---------------------------------------------------------------------
 Center     Atomic      Atomic             Coordinates (Angstroms)
 Number     Number       Type             X           Y           Z
 ---------------------------------------------------------------------
      1         11           0       12.806400    0.993406    1.326340
      2         11           0       11.071600    2.985400   99.656000
      3         11           0        8.769700    2.069590    1.738980
      4         11           0        6.049550   99.964100    3.623900
      5         11           0        3.558980    1.811770    3.203230
      6         11           0        0.338884    4.396260    0.903663
      7         11           0        1.713940    5.931420   98.515600
 ---------------------------------------------------------------------
                    Distance matrix (angstroms):
                    1          2          3          4          5
     1  Na   0.000000
     2  Na  98.365134   0.000000
     3  Na   4.198022  97.948355   0.000000
     4  Na  99.227678 136.573253  97.950433   0.000000
     5  Na   9.471389  96.752022   5.418681  98.184825   0.000000
     6  Na  12.930469  99.343876   8.785773  95.776946   4.726163
     7  Na  97.944775   9.876505  97.110307 133.661427  95.419199
                    6          7
     6  Na   0.000000
     7  Na  97.633692   0.000000
 Stoichiometry    Na7(2)
 Framework group  C1[X(Na7)]
 Deg. of freedom    15
 Full point group                 C1      NOp   1
 Largest Abelian subgroup         C1      NOp   1
 Largest concise Abelian subgroup C1      NOp   1
                         Standard orientation:                         
 ---------------------------------------------------------------------
 Center     Atomic      Atomic             Coordinates (Angstroms)
 Number     Number       Type             X           Y           Z
 ---------------------------------------------------------------------
      1         11           0       21.299723  -24.780153    6.348398
      2         11           0      -70.332319   10.946160    4.645738
      3         11           0       21.292814  -23.598120    2.320229
      4         11           0       53.222577   68.981206    0.359165
      5         11           0       19.842362  -23.297992   -2.892084
      6         11           0       22.899022  -21.639333   -6.092443
      7         11           0      -68.224179   13.388233   -4.689002
 ---------------------------------------------------------------------
 Rotational constants (GHZ):           0.0029810           0.0015272           0.0010225
 Leave Link  202 at Thu Nov 23 12:30:25 2023, MaxMem=   104857600 cpu:               0.9 elap:               1.1
 (Enter /home/sekinelabo/g16/l301.exe)
 Standard basis: 6-311+G(d) (5D, 7F)
 Ernie: Thresh=  0.10000D-02 Tol=  0.10000D-05 Strict=F.
 There are   217 symmetry adapted cartesian basis functions of A   symmetry.
 There are   210 symmetry adapted basis functions of A   symmetry.
   210 basis functions,   350 primitive gaussians,   217 cartesian basis functions
    39 alpha electrons       38 beta electrons
       nuclear repulsion energy        74.9191221196 Hartrees.
 IExCor=  402 DFT=T Ex+Corr=B3LYP ExCW=0 ScaHFX=  0.200000
 ScaDFX=  0.800000  0.720000  1.000000  0.810000 ScalE2=  1.000000  1.000000
 IRadAn=      5 IRanWt=     -1 IRanGd=            0 ICorTp=0 IEmpDi=  4
 NAtoms=    7 NActive=    7 NUniq=    7 SFac= 1.00D+00 NAtFMM=   60 NAOKFM=F Big=F
 Integral buffers will be    131072 words long.
 Raffenetti 2 integral format.
 Two-electron integral symmetry is turned on.
 Leave Link  301 at Thu Nov 23 12:30:26 2023, MaxMem=   104857600 cpu:               0.7 elap:               0.9
 (Enter /home/sekinelabo/g16/l302.exe)
 NPDir=0 NMtPBC=     1 NCelOv=     1 NCel=       1 NClECP=     1 NCelD=      1
         NCelK=      1 NCelE2=     1 NClLst=     1 CellRange=     0.0.
 One-electron integrals computed using PRISM.
 One-electron integral symmetry used in STVInt
 NBasis=   210 RedAO= T EigKep=  1.65D-04  NBF=   210
 NBsUse=   210 1.00D-06 EigRej= -1.00D+00 NBFU=   210
 Precomputing XC quadrature grid using
 IXCGrd= 4 IRadAn=           5 IRanWt=          -1 IRanGd=           0 AccXCQ= 0.00D+00.
 Generated NRdTot=       0 NPtTot=           0 NUsed=           0 NTot=          32
 NSgBfM=   109   109   109   109   109 MxSgAt=     7 MxSgA2=     4.
 Leave Link  302 at Thu Nov 23 12:31:04 2023, MaxMem=   104857600 cpu:              30.1 elap:              37.9
 (Enter /home/sekinelabo/g16/l303.exe)
 DipDrv:  MaxL=1.
 Leave Link  303 at Thu Nov 23 12:31:08 2023, MaxMem=   104857600 cpu:               2.3 elap:               2.9
 (Enter /home/sekinelabo/g16/l401.exe)
 ExpMin= 7.60D-03 ExpMax= 3.62D+04 ExpMxC= 1.21D+03 IAcc=3 IRadAn=         5 AccDes= 0.00D+00
 Harris functional with IExCor=  402 and IRadAn=       5 diagonalized for initial guess.
 HarFok:  IExCor=  402 AccDes= 0.00D+00 IRadAn=         5 IDoV= 1 UseB2=F ITyADJ=14
 ICtDFT=  3500011 ScaDFX=  1.000000  1.000000  1.000000  1.000000
 FoFCou: FMM=F IPFlag=           0 FMFlag=      100000 FMFlg1=           0
         NFxFlg=           0 DoJE=T BraDBF=F KetDBF=T FulRan=T
         wScrn=  0.000000 ICntrl=       500 IOpCl=  0 I1Cent=   200000004 NGrid=           0
         NMat0=    1 NMatS0=      1 NMatT0=    0 NMatD0=    1 NMtDS0=    0 NMtDT0=    0
 Petite list used in FoFCou.
 Harris En= -1135.78726125245    
 JPrj=0 DoOrth=F DoCkMO=F.
 Initial guess <Sx>= 0.0000 <Sy>= 0.0000 <Sz>= 0.5000 <S**2>= 0.7500 S= 0.5000
 Leave Link  401 at Thu Nov 23 12:31:28 2023, MaxMem=   104857600 cpu:              16.3 elap:              20.6
 (Enter /home/sekinelabo/g16/l502.exe)
 Integral symmetry usage will be decided dynamically.
 UHF open shell SCF:
 Using DIIS extrapolation, IDIIS=  1040.
 NGot=   104857600 LenX=   104758440 LenY=   104710910
 Requested convergence on RMS density matrix=1.00D-08 within 128 cycles.
 Requested convergence on MAX density matrix=1.00D-06.
 Requested convergence on             energy=1.00D-06.
 No special actions if energy rises.
 Fock matrices will be formed incrementally for  20 cycles.

 Cycle   1  Pass 1  IDiag  1:
 FoFJK:  IHMeth= 1 ICntrl=       0 DoSepK=F KAlg= 0 I1Cent=           0 FoldK=F
 IRaf= 360000000 NMat=       1 IRICut=       1 DoRegI=T DoRafI=F ISym2E= 0 IDoP0=0 IntGTp=1.
 FoFCou: FMM=F IPFlag=           0 FMFlag=      100000 FMFlg1=           0
         NFxFlg=           0 DoJE=F BraDBF=F KetDBF=F FulRan=T
         wScrn=  0.000000 ICntrl=         0 IOpCl=  1 I1Cent=           0 NGrid=           0
         NMat0=    1 NMatS0=      1 NMatT0=    0 NMatD0=    1 NMtDS0=    0 NMtDT0=    0
 Symmetry not used in FoFCou.
 E= -1135.98607708499    
 DIIS: error= 2.00D-02 at cycle   1 NSaved=   1.
 NSaved= 1 IEnMin= 1 EnMin= -1135.98607708499     IErMin= 1 ErrMin= 2.00D-02
 ErrMax= 2.00D-02  0.00D+00 EMaxC= 1.00D-01 BMatC= 1.87D-01 BMatP= 1.87D-01
 IDIUse=3 WtCom= 8.00D-01 WtEn= 2.00D-01
 Coeff-Com:  0.100D+01
 Coeff-En:   0.100D+01
 Coeff:      0.100D+01
 Gap=     0.033 Goal=   None    Shift=    0.000
 Gap=     0.040 Goal=   None    Shift=    0.000
 GapD=    0.033 DampG=0.250 DampE=0.500 DampFc=0.2500 IDamp=-1.
 Damping current iteration by 2.50D-01
 RMSDP=1.30D-03 MaxDP=8.56D-02              OVMax= 8.66D-02

 Cycle   2  Pass 1  IDiag  1:
 RMSU=  3.25D-04    CP:  1.00D+00
 E= -1135.99281988374     Delta-E=       -0.006742798757 Rises=F Damp=T
 DIIS: error= 1.39D-02 at cycle   2 NSaved=   2.
 NSaved= 2 IEnMin= 2 EnMin= -1135.99281988374     IErMin= 2 ErrMin= 1.39D-02
 ErrMax= 1.39D-02  0.00D+00 EMaxC= 1.00D-01 BMatC= 7.13D-02 BMatP= 1.87D-01
 IDIUse=3 WtCom= 8.61D-01 WtEn= 1.39D-01
 Coeff-Com: -0.127D+01 0.227D+01
 Coeff-En:   0.000D+00 0.100D+01
 Coeff:     -0.110D+01 0.210D+01
 Gap=     0.011 Goal=   None    Shift=    0.000
 Gap=     0.011 Goal=   None    Shift=    0.000
 RMSDP=9.25D-04 MaxDP=5.88D-02 DE=-6.74D-03 OVMax= 1.01D-01

 Cycle   3  Pass 1  IDiag  1:
 RMSU=  6.96D-04    CP:  1.00D+00  2.87D+00
 E= -1136.00529085002     Delta-E=       -0.012470966275 Rises=F Damp=F
 DIIS: error= 1.85D-03 at cycle   3 NSaved=   3.
 NSaved= 3 IEnMin= 3 EnMin= -1136.00529085002     IErMin= 3 ErrMin= 1.85D-03
 ErrMax= 1.85D-03  0.00D+00 EMaxC= 1.00D-01 BMatC= 1.09D-03 BMatP= 7.13D-02
 IDIUse=3 WtCom= 9.81D-01 WtEn= 1.85D-02
 Coeff-Com:  0.667D-01-0.545D-01 0.988D+00
 Coeff-En:   0.000D+00 0.000D+00 0.100D+01
 Coeff:      0.655D-01-0.535D-01 0.988D+00
 Gap=     0.011 Goal=   None    Shift=    0.000
 Gap=     0.011 Goal=   None    Shift=    0.000
 RMSDP=1.33D-03 MaxDP=1.58D-01 DE=-1.25D-02 OVMax= 2.36D-01

 Cycle   4  Pass 1  IDiag  1:
 RMSU=  9.94D-04    CP:  9.99D-01  3.00D+00 -2.48D-01
 E= -1135.99274988382     Delta-E=        0.012540966196 Rises=F Damp=F
 DIIS: error= 5.75D-03 at cycle   4 NSaved=   4.
 NSaved= 4 IEnMin= 3 EnMin= -1136.00529085002     IErMin= 3 ErrMin= 1.85D-03
 ErrMax= 5.75D-03  0.00D+00 EMaxC= 1.00D-01 BMatC= 7.11D-03 BMatP= 1.09D-03
 IDIUse=3 WtCom= 1.17D-01 WtEn= 8.83D-01
 Coeff-Com:  0.111D+00-0.147D+00 0.775D+00 0.261D+00
 Coeff-En:   0.000D+00 0.000D+00 0.836D+00 0.164D+00
 Coeff:      0.130D-01-0.171D-01 0.829D+00 0.175D+00
 Gap=     0.011 Goal=   None    Shift=    0.000
 Gap=     0.011 Goal=   None    Shift=    0.000
 RMSDP=7.66D-04 MaxDP=9.12D-02 DE= 1.25D-02 OVMax= 1.03D-01

 Cycle   5  Pass 1  IDiag  1:
 RMSU=  2.52D-04    CP:  9.99D-01  3.00D+00  4.92D-01  4.89D-01
 E= -1136.00458693349     Delta-E=       -0.011837049663 Rises=F Damp=F
 DIIS: error= 1.85D-03 at cycle   5 NSaved=   5.
 NSaved= 5 IEnMin= 3 EnMin= -1136.00529085002     IErMin= 5 ErrMin= 1.85D-03
 ErrMax= 1.85D-03  0.00D+00 EMaxC= 1.00D-01 BMatC= 1.31D-03 BMatP= 1.09D-03
 IDIUse=3 WtCom= 1.89D-01 WtEn= 8.11D-01
 Coeff-Com:  0.897D-01-0.118D+00 0.700D+00 0.198D+00 0.130D+00
 Coeff-En:   0.000D+00 0.000D+00 0.570D+00 0.000D+00 0.430D+00
 Coeff:      0.169D-01-0.224D-01 0.594D+00 0.374D-01 0.374D+00
 Gap=     0.011 Goal=   None    Shift=    0.000
 Gap=     0.011 Goal=   None    Shift=    0.000
 RMSDP=1.50D-03 MaxDP=1.62D-01 DE=-1.18D-02 OVMax= 3.33D-01

 Cycle   6  Pass 1  IDiag  1:
 RMSU=  8.31D-04    CP:  9.97D-01  3.00D+00  6.56D-01  4.73D-01 -3.00D+00
 E= -1135.96699502524     Delta-E=        0.037591908248 Rises=F Damp=F
 DIIS: error= 1.02D-02 at cycle   6 NSaved=   6.
 NSaved= 6 IEnMin= 3 EnMin= -1136.00529085002     IErMin= 5 ErrMin= 1.85D-03
 ErrMax= 1.02D-02  0.00D+00 EMaxC= 1.00D-01 BMatC= 1.68D-02 BMatP= 1.09D-03
 IDIUse=2 WtCom= 0.00D+00 WtEn= 1.00D+00
 EnCoef did     6 forward-backward iterations
 Coeff-En:   0.000D+00 0.000D+00 0.495D+00 0.000D+00 0.455D+00 0.495D-01
 Coeff:      0.000D+00 0.000D+00 0.495D+00 0.000D+00 0.455D+00 0.495D-01
 Gap=     0.011 Goal=   None    Shift=    0.000
 Gap=     0.011 Goal=   None    Shift=    0.000
 RMSDP=7.69D-04 MaxDP=8.10D-02 DE= 3.76D-02 OVMax= 1.70D-01

 Cycle   7  Pass 1  IDiag  1:
 RMSU=  1.52D-04    CP:  9.99D-01  3.00D+00  7.38D-01  3.56D-01 -1.68D+00
                    CP:  3.83D-01
 E= -1135.99889352572     Delta-E=       -0.031898500478 Rises=F Damp=F
 DIIS: error= 5.26D-03 at cycle   7 NSaved=   7.
 NSaved= 7 IEnMin= 3 EnMin= -1136.00529085002     IErMin= 5 ErrMin= 1.85D-03
 ErrMax= 5.26D-03  0.00D+00 EMaxC= 1.00D-01 BMatC= 4.32D-03 BMatP= 1.09D-03
 IDIUse=3 WtCom= 1.89D-01 WtEn= 8.11D-01
 EnCoef did     5 forward-backward iterations
 Coeff-Com: -0.132D-01 0.174D-01 0.279D+00-0.757D-01 0.521D+00-0.814D-01
 Coeff-Com:  0.353D+00
 Coeff-En:   0.000D+00 0.000D+00 0.420D+00 0.000D+00 0.431D+00 0.000D+00
 Coeff-En:   0.149D+00
 Coeff:     -0.249D-02 0.329D-02 0.393D+00-0.143D-01 0.448D+00-0.154D-01
 Coeff:      0.188D+00
 Gap=     0.011 Goal=   None    Shift=    0.000
 Gap=     0.011 Goal=   None    Shift=    0.000
 RMSDP=5.21D-04 MaxDP=5.61D-02 DE=-3.19D-02 OVMax= 1.16D-01

 Cycle   8  Pass 1  IDiag  1:
 RMSU=  2.39D-05    CP:  9.99D-01  3.00D+00  7.93D-01  2.82D-01  8.07D-02
                    CP:  9.41D-02  3.69D-01
 E= -1136.00674352646     Delta-E=       -0.007850000745 Rises=F Damp=F
 DIIS: error= 4.25D-04 at cycle   8 NSaved=   8.
 NSaved= 8 IEnMin= 8 EnMin= -1136.00674352646     IErMin= 8 ErrMin= 4.25D-04
 ErrMax= 4.25D-04  0.00D+00 EMaxC= 1.00D-01 BMatC= 3.15D-05 BMatP= 1.09D-03
 IDIUse=3 WtCom= 9.96D-01 WtEn= 4.25D-03
 Coeff-Com: -0.144D-01 0.189D-01 0.493D-01-0.107D-01 0.102D+00 0.407D-02
 Coeff-Com: -0.428D-01 0.893D+00
 Coeff-En:   0.000D+00 0.000D+00 0.000D+00 0.000D+00 0.383D-01 0.000D+00
 Coeff-En:   0.000D+00 0.962D+00
 Coeff:     -0.143D-01 0.188D-01 0.491D-01-0.107D-01 0.102D+00 0.406D-02
 Coeff:     -0.426D-01 0.893D+00
 Gap=     0.011 Goal=   None    Shift=    0.000
 Gap=     0.011 Goal=   None    Shift=    0.000
 RMSDP=5.02D-05 MaxDP=5.00D-03 DE=-7.85D-03 OVMax= 1.04D-02

 Cycle   9  Pass 1  IDiag  1:
 RMSU=  1.34D-05    CP:  9.99D-01  3.00D+00  7.88D-01  2.88D-01  2.49D-01
                    CP:  7.27D-02  2.93D-01  7.16D-01
 E= -1136.00679229375     Delta-E=       -0.000048767293 Rises=F Damp=F
 DIIS: error= 3.43D-05 at cycle   9 NSaved=   9.
 NSaved= 9 IEnMin= 9 EnMin= -1136.00679229375     IErMin= 9 ErrMin= 3.43D-05
 ErrMax= 3.43D-05  0.00D+00 EMaxC= 1.00D-01 BMatC= 5.98D-07 BMatP= 3.15D-05
 IDIUse=1 WtCom= 1.00D+00 WtEn= 0.00D+00
 Coeff-Com: -0.707D-02 0.930D-02-0.917D-03 0.442D-02-0.393D-02 0.106D-01
 Coeff-Com: -0.671D-01 0.580D+00 0.475D+00
 Coeff:     -0.707D-02 0.930D-02-0.917D-03 0.442D-02-0.393D-02 0.106D-01
 Coeff:     -0.671D-01 0.580D+00 0.475D+00
 Gap=     0.011 Goal=   None    Shift=    0.000
 Gap=     0.011 Goal=   None    Shift=    0.000
 RMSDP=2.03D-05 MaxDP=1.89D-03 DE=-4.88D-05 OVMax= 3.91D-03

 Cycle  10  Pass 1  IDiag  1:
 RMSU=  6.54D-06    CP:  9.99D-01  3.00D+00  7.89D-01  2.85D-01  3.03D-01
                    CP:  6.13D-02  2.57D-01  8.29D-01  4.62D-01
 E= -1136.00678287362     Delta-E=        0.000009420132 Rises=F Damp=F
 DIIS: error= 1.97D-04 at cycle  10 NSaved=  10.
 NSaved=10 IEnMin= 9 EnMin= -1136.00679229375     IErMin= 9 ErrMin= 3.43D-05
 ErrMax= 1.97D-04  0.00D+00 EMaxC= 1.00D-01 BMatC= 6.02D-06 BMatP= 5.98D-07
 IDIUse=1 WtCom= 1.00D+00 WtEn= 0.00D+00
 Coeff-Com: -0.191D-02 0.251D-02-0.486D-02 0.192D-02-0.125D-01-0.189D-02
 Coeff-Com:  0.124D-01 0.137D+00 0.249D+00 0.618D+00
 Coeff:     -0.191D-02 0.251D-02-0.486D-02 0.192D-02-0.125D-01-0.189D-02
 Coeff:      0.124D-01 0.137D+00 0.249D+00 0.618D+00
 Gap=     0.011 Goal=   None    Shift=    0.000
 Gap=     0.011 Goal=   None    Shift=    0.000
 RMSDP=2.32D-05 MaxDP=2.49D-03 DE= 9.42D-06 OVMax= 5.14D-03

 Cycle  11  Pass 1  IDiag  1:
 RMSU=  9.60D-07    CP:  9.99D-01  3.00D+00  7.90D-01  2.87D-01  2.24D-01
                    CP:  7.32D-02  2.98D-01  8.45D-01  6.06D-01  7.03D-01
 E= -1136.00679308315     Delta-E=       -0.000010209528 Rises=F Damp=F
 DIIS: error= 2.68D-05 at cycle  11 NSaved=  11.
 NSaved=11 IEnMin=11 EnMin= -1136.00679308315     IErMin=11 ErrMin= 2.68D-05
 ErrMax= 2.68D-05  0.00D+00 EMaxC= 1.00D-01 BMatC= 1.14D-07 BMatP= 5.98D-07
 IDIUse=1 WtCom= 1.00D+00 WtEn= 0.00D+00
 Coeff-Com:  0.552D-04-0.721D-04-0.517D-03-0.199D-03 0.405D-03-0.457D-03
 Coeff-Com:  0.166D-02-0.857D-02 0.146D-01 0.116D+00 0.877D+00
 Coeff:      0.552D-04-0.721D-04-0.517D-03-0.199D-03 0.405D-03-0.457D-03
 Coeff:      0.166D-02-0.857D-02 0.146D-01 0.116D+00 0.877D+00
 Gap=     0.011 Goal=   None    Shift=    0.000
 Gap=     0.011 Goal=   None    Shift=    0.000
 RMSDP=1.26D-06 MaxDP=1.31D-04 DE=-1.02D-05 OVMax= 2.67D-04

 Cycle  12  Pass 1  IDiag  1:
 RMSU=  1.44D-07    CP:  9.99D-01  3.00D+00  7.90D-01  2.87D-01  2.29D-01
                    CP:  7.26D-02  2.96D-01  8.45D-01  6.16D-01  7.30D-01
                    CP:  1.07D+00
 E= -1136.00679321513     Delta-E=       -0.000000131981 Rises=F Damp=F
 DIIS: error= 1.53D-05 at cycle  12 NSaved=  12.
 NSaved=12 IEnMin=12 EnMin= -1136.00679321513     IErMin=12 ErrMin= 1.53D-05
 ErrMax= 1.53D-05  0.00D+00 EMaxC= 1.00D-01 BMatC= 3.55D-08 BMatP= 1.14D-07
 IDIUse=1 WtCom= 1.00D+00 WtEn= 0.00D+00
 Coeff-Com:  0.126D-03-0.166D-03 0.870D-04-0.222D-03 0.119D-02 0.469D-03
 Coeff-Com: -0.267D-02-0.933D-02-0.105D-01 0.146D-01 0.242D+00 0.764D+00
 Coeff:      0.126D-03-0.166D-03 0.870D-04-0.222D-03 0.119D-02 0.469D-03
 Coeff:     -0.267D-02-0.933D-02-0.105D-01 0.146D-01 0.242D+00 0.764D+00
 Gap=     0.011 Goal=   None    Shift=    0.000
 Gap=     0.011 Goal=   None    Shift=    0.000
 RMSDP=2.60D-06 MaxDP=2.80D-04 DE=-1.32D-07 OVMax= 5.80D-04

 Cycle  13  Pass 1  IDiag  1:
 RMSU=  4.72D-08    CP:  9.99D-01  3.00D+00  7.90D-01  2.87D-01  2.38D-01
                    CP:  7.14D-02  2.92D-01  8.42D-01  6.13D-01  7.54D-01
                    CP:  1.01D+00  1.56D+00
 E= -1136.00679325075     Delta-E=       -0.000000035622 Rises=F Damp=F
 DIIS: error= 9.98D-06 at cycle  13 NSaved=  13.
 NSaved=13 IEnMin=13 EnMin= -1136.00679325075     IErMin=13 ErrMin= 9.98D-06
 ErrMax= 9.98D-06  0.00D+00 EMaxC= 1.00D-01 BMatC= 1.53D-08 BMatP= 3.55D-08
 IDIUse=1 WtCom= 1.00D+00 WtEn= 0.00D+00
 Coeff-Com:  0.513D-04-0.678D-04 0.453D-04-0.478D-04 0.164D-03-0.896D-04
 Coeff-Com:  0.536D-03-0.448D-02-0.560D-02-0.945D-02 0.650D-01 0.242D+00
 Coeff-Com:  0.712D+00
 Coeff:      0.513D-04-0.678D-04 0.453D-04-0.478D-04 0.164D-03-0.896D-04
 Coeff:      0.536D-03-0.448D-02-0.560D-02-0.945D-02 0.650D-01 0.242D+00
 Coeff:      0.712D+00
 Gap=     0.011 Goal=   None    Shift=    0.000
 Gap=     0.011 Goal=   None    Shift=    0.000
 RMSDP=1.22D-06 MaxDP=1.31D-04 DE=-3.56D-08 OVMax= 2.71D-04

 Cycle  14  Pass 1  IDiag  1:
 RMSU=  2.83D-08    CP:  9.99D-01  3.00D+00  7.90D-01  2.87D-01  2.33D-01
                    CP:  7.19D-02  2.94D-01  8.43D-01  6.15D-01  7.48D-01
                    CP:  1.06D+00  1.39D+00  3.34D-01
 E= -1136.00679327651     Delta-E=       -0.000000025756 Rises=F Damp=F
 DIIS: error= 1.81D-06 at cycle  14 NSaved=  14.
 NSaved=14 IEnMin=14 EnMin= -1136.00679327651     IErMin=14 ErrMin= 1.81D-06
 ErrMax= 1.81D-06  0.00D+00 EMaxC= 1.00D-01 BMatC= 5.08D-10 BMatP= 1.53D-08
 IDIUse=1 WtCom= 1.00D+00 WtEn= 0.00D+00
 Coeff-Com:  0.351D-05-0.466D-05 0.814D-05 0.280D-05-0.298D-04-0.347D-05
 Coeff-Com:  0.268D-04-0.164D-03-0.868D-03-0.382D-02-0.618D-02 0.391D-01
 Coeff-Com:  0.259D+00 0.713D+00
 Coeff:      0.351D-05-0.466D-05 0.814D-05 0.280D-05-0.298D-04-0.347D-05
 Coeff:      0.268D-04-0.164D-03-0.868D-03-0.382D-02-0.618D-02 0.391D-01
 Coeff:      0.259D+00 0.713D+00
 Gap=     0.011 Goal=   None    Shift=    0.000
 Gap=     0.011 Goal=   None    Shift=    0.000
 RMSDP=1.83D-07 MaxDP=1.96D-05 DE=-2.58D-08 OVMax= 4.06D-05

 Cycle  15  Pass 1  IDiag  1:
 RMSU=  5.31D-09    CP:  9.99D-01  3.00D+00  7.90D-01  2.87D-01  2.34D-01
                    CP:  7.19D-02  2.93D-01  8.43D-01  6.15D-01  7.49D-01
                    CP:  1.05D+00  1.46D+00  4.37D-01  9.01D-01
 E= -1136.00679327739     Delta-E=       -0.000000000884 Rises=F Damp=F
 DIIS: error= 4.69D-08 at cycle  15 NSaved=  15.
 NSaved=15 IEnMin=15 EnMin= -1136.00679327739     IErMin=15 ErrMin= 4.69D-08
 ErrMax= 4.69D-08  0.00D+00 EMaxC= 1.00D-01 BMatC= 3.70D-13 BMatP= 5.08D-10
 IDIUse=1 WtCom= 1.00D+00 WtEn= 0.00D+00
 Coeff-Com: -0.120D-05 0.158D-05 0.155D-05-0.510D-06 0.137D-05 0.140D-05
 Coeff-Com: -0.717D-05 0.508D-04 0.270D-04-0.627D-03-0.329D-02 0.105D-02
 Coeff-Com:  0.304D-01 0.120D+00 0.852D+00
 Coeff:     -0.120D-05 0.158D-05 0.155D-05-0.510D-06 0.137D-05 0.140D-05
 Coeff:     -0.717D-05 0.508D-04 0.270D-04-0.627D-03-0.329D-02 0.105D-02
 Coeff:      0.304D-01 0.120D+00 0.852D+00
 Gap=     0.011 Goal=   None    Shift=    0.000
 Gap=     0.011 Goal=   None    Shift=    0.000
 RMSDP=9.20D-09 MaxDP=9.02D-07 DE=-8.84D-10 OVMax= 1.86D-06

 SCF Done:  E(UB3LYP) =  -1136.00679328     A.U. after   15 cycles
            NFock= 15  Conv=0.92D-08     -V/T= 2.0030
 <Sx>= 0.0000 <Sy>= 0.0000 <Sz>= 0.5000 <S**2>= 0.7500 S= 0.5000
 <L.S>= 0.000000000000E+00
 KE= 1.132638029147D+03 PE=-2.877447538504D+03 EE= 5.338835939604D+02
 Annihilation of the first spin contaminant:
 S**2 before annihilation     0.7500,   after     0.7500
 Leave Link  502 at Thu Nov 23 12:39:28 2023, MaxMem=   104857600 cpu:             383.3 elap:             479.6
 (Enter /home/sekinelabo/g16/l601.exe)
 Copying SCF densities to generalized density rwf, IOpCl= 1 IROHF=0.

 **********************************************************************

            Population analysis using the SCF Density.

 **********************************************************************

 Orbital symmetries:
 Alpha Orbitals:
       Occupied  (A) (A) (A) (A) (A) (A) (A) (A) (A) (A) (A) (A)
                 (A) (A) (A) (A) (A) (A) (A) (A) (A) (A) (A) (A)
                 (A) (A) (A) (A) (A) (A) (A) (A) (A) (A) (A) (A)
                 (A) (A) (A)
       Virtual   (A) (A) (A) (A) (A) (A) (A) (A) (A) (A) (A) (A)
                 (A) (A) (A) (A) (A) (A) (A) (A) (A) (A) (A) (A)
                 (A) (A) (A) (A) (A) (A) (A) (A) (A) (A) (A) (A)
                 (A) (A) (A) (A) (A) (A) (A) (A) (A) (A) (A) (A)
                 (A) (A) (A) (A) (A) (A) (A) (A) (A) (A) (A) (A)
                 (A) (A) (A) (A) (A) (A) (A) (A) (A) (A) (A) (A)
                 (A) (A) (A) (A) (A) (A) (A) (A) (A) (A) (A) (A)
                 (A) (A) (A) (A) (A) (A) (A) (A) (A) (A) (A) (A)
                 (A) (A) (A) (A) (A) (A) (A) (A) (A) (A) (A) (A)
                 (A) (A) (A) (A) (A) (A) (A) (A) (A) (A) (A) (A)
                 (A) (A) (A) (A) (A) (A) (A) (A) (A) (A) (A) (A)
                 (A) (A) (A) (A) (A) (A) (A) (A) (A) (A) (A) (A)
                 (A) (A) (A) (A) (A) (A) (A) (A) (A) (A) (A) (A)
                 (A) (A) (A) (A) (A) (A) (A) (A) (A) (A) (A) (A)
                 (A) (A) (A)
 Beta  Orbitals:
       Occupied  (A) (A) (A) (A) (A) (A) (A) (A) (A) (A) (A) (A)
                 (A) (A) (A) (A) (A) (A) (A) (A) (A) (A) (A) (A)
                 (A) (A) (A) (A) (A) (A) (A) (A) (A) (A) (A) (A)
                 (A) (A)
       Virtual   (A) (A) (A) (A) (A) (A) (A) (A) (A) (A) (A) (A)
                 (A) (A) (A) (A) (A) (A) (A) (A) (A) (A) (A) (A)
                 (A) (A) (A) (A) (A) (A) (A) (A) (A) (A) (A) (A)
                 (A) (A) (A) (A) (A) (A) (A) (A) (A) (A) (A) (A)
                 (A) (A) (A) (A) (A) (A) (A) (A) (A) (A) (A) (A)
                 (A) (A) (A) (A) (A) (A) (A) (A) (A) (A) (A) (A)
                 (A) (A) (A) (A) (A) (A) (A) (A) (A) (A) (A) (A)
                 (A) (A) (A) (A) (A) (A) (A) (A) (A) (A) (A) (A)
                 (A) (A) (A) (A) (A) (A) (A) (A) (A) (A) (A) (A)
                 (A) (A) (A) (A) (A) (A) (A) (A) (A) (A) (A) (A)
                 (A) (A) (A) (A) (A) (A) (A) (A) (A) (A) (A) (A)
                 (A) (A) (A) (A) (A) (A) (A) (A) (A) (A) (A) (A)
                 (A) (A) (A) (A) (A) (A) (A) (A) (A) (A) (A) (A)
                 (A) (A) (A) (A) (A) (A) (A) (A) (A) (A) (A) (A)
                 (A) (A) (A) (A)
 The electronic state is 2-A.
 Alpha  occ. eigenvalues --  -38.46585 -38.46585 -38.46355 -38.46164 -38.45774
 Alpha  occ. eigenvalues --  -38.45525 -38.45489  -2.22265  -2.22264  -2.22027
 Alpha  occ. eigenvalues --   -2.21837  -2.21558  -2.21214  -2.21170  -1.15934
 Alpha  occ. eigenvalues --   -1.15934  -1.15934  -1.15934  -1.15933  -1.15933
 Alpha  occ. eigenvalues --   -1.15707  -1.15707  -1.15656  -1.15519  -1.15514
 Alpha  occ. eigenvalues --   -1.15466  -1.15171  -1.15171  -1.15171  -1.14894
 Alpha  occ. eigenvalues --   -1.14894  -1.14857  -1.14857  -1.14834  -1.14784
 Alpha  occ. eigenvalues --   -0.12801  -0.12581  -0.11837  -0.10876
 Alpha virt. eigenvalues --   -0.09749  -0.08267  -0.06647  -0.02519  -0.02498
 Alpha virt. eigenvalues --   -0.02484  -0.02153  -0.02100  -0.02100  -0.02100
 Alpha virt. eigenvalues --   -0.01931  -0.01931  -0.01908  -0.01786  -0.01711
 Alpha virt. eigenvalues --   -0.01711  -0.01415  -0.01182  -0.00551  -0.00215
 Alpha virt. eigenvalues --   -0.00043  -0.00030   0.00118   0.00550   0.00579
 Alpha virt. eigenvalues --    0.00606   0.00645   0.00763   0.01267   0.01297
 Alpha virt. eigenvalues --    0.01301   0.01301   0.01331   0.01331   0.01331
 Alpha virt. eigenvalues --    0.01566   0.01612   0.01616   0.01616   0.01723
 Alpha virt. eigenvalues --    0.01728   0.01895   0.02002   0.02122   0.02162
 Alpha virt. eigenvalues --    0.02271   0.02596   0.02699   0.03082   0.03348
 Alpha virt. eigenvalues --    0.03715   0.04205   0.06961   0.07142   0.07469
 Alpha virt. eigenvalues --    0.07469   0.07469   0.07505   0.07505   0.07611
 Alpha virt. eigenvalues --    0.07752   0.07764   0.07907   0.07934   0.07934
 Alpha virt. eigenvalues --    0.08015   0.08088   0.08186   0.08247   0.08371
 Alpha virt. eigenvalues --    0.08628   0.08804   0.08996   0.09201   0.09525
 Alpha virt. eigenvalues --    0.09572   0.09880   0.11424   0.12219   0.13240
 Alpha virt. eigenvalues --    0.31691   0.32164   0.32259   0.32501   0.33217
 Alpha virt. eigenvalues --    0.33225   0.33225   0.33225   0.33225   0.33225
 Alpha virt. eigenvalues --    0.33602   0.33826   0.33826   0.33826   0.33826
 Alpha virt. eigenvalues --    0.33831   0.33831   0.33835   0.33835   0.33837
 Alpha virt. eigenvalues --    0.33897   0.34270   0.34377   0.34566   0.34638
 Alpha virt. eigenvalues --    0.34674   0.34994   0.35336   0.35366   0.35716
 Alpha virt. eigenvalues --    0.35791   0.37571   0.38107   0.38245   0.40958
 Alpha virt. eigenvalues --    0.41759   0.41759   0.41938   0.41938   0.41938
 Alpha virt. eigenvalues --    0.41942   0.42099   0.42099   0.42174   0.42339
 Alpha virt. eigenvalues --    0.42677   0.43034   0.43275   0.43514   0.44104
 Alpha virt. eigenvalues --    0.44203   0.44620   0.46206   0.47144   0.48647
 Alpha virt. eigenvalues --    0.49755   1.98279   1.98665   1.98906   1.98978
 Alpha virt. eigenvalues --    2.01104   2.02898   2.05996   4.42041   4.42041
 Alpha virt. eigenvalues --    4.42097   4.42209   4.42289   4.42299   4.42299
 Alpha virt. eigenvalues --    4.42532   4.42559   4.42636   4.42809   4.42809
 Alpha virt. eigenvalues --    4.42809   4.43021   4.43407   4.43431   4.43946
 Alpha virt. eigenvalues --    4.44048   4.44212   4.45895   4.48241  96.16932
 Alpha virt. eigenvalues --   96.17589  96.17682  96.17745  96.20240  96.22284
 Alpha virt. eigenvalues --   96.25834
  Beta  occ. eigenvalues --  -38.46585 -38.46585 -38.46355 -38.46164 -38.45588
  Beta  occ. eigenvalues --  -38.45525 -38.45489  -2.22265  -2.22264  -2.22027
  Beta  occ. eigenvalues --   -2.21837  -2.21214  -2.21212  -2.21170  -1.15934
  Beta  occ. eigenvalues --   -1.15934  -1.15934  -1.15934  -1.15933  -1.15933
  Beta  occ. eigenvalues --   -1.15707  -1.15707  -1.15656  -1.15519  -1.15514
  Beta  occ. eigenvalues --   -1.15466  -1.14937  -1.14937  -1.14937  -1.14894
  Beta  occ. eigenvalues --   -1.14894  -1.14857  -1.14857  -1.14834  -1.14784
  Beta  occ. eigenvalues --   -0.12581  -0.11837  -0.10876
  Beta virt. eigenvalues --   -0.09749  -0.08267  -0.06647  -0.06221  -0.02519
  Beta virt. eigenvalues --   -0.02498  -0.02484  -0.02153  -0.01931  -0.01931
  Beta virt. eigenvalues --   -0.01908  -0.01786  -0.01711  -0.01711  -0.01415
  Beta virt. eigenvalues --   -0.01182  -0.00551  -0.00215  -0.00087  -0.00087
  Beta virt. eigenvalues --   -0.00087  -0.00043  -0.00030   0.00550   0.00579
  Beta virt. eigenvalues --    0.00606   0.00645   0.00763   0.00846   0.01267
  Beta virt. eigenvalues --    0.01297   0.01301   0.01301   0.01566   0.01612
  Beta virt. eigenvalues --    0.01616   0.01616   0.01723   0.01728   0.01895
  Beta virt. eigenvalues --    0.02002   0.02122   0.02162   0.02246   0.02246
  Beta virt. eigenvalues --    0.02246   0.02271   0.02596   0.02699   0.03082
  Beta virt. eigenvalues --    0.03348   0.03715   0.04205   0.06961   0.07142
  Beta virt. eigenvalues --    0.07505   0.07505   0.07611   0.07752   0.07764
  Beta virt. eigenvalues --    0.07907   0.07934   0.07934   0.08088   0.08186
  Beta virt. eigenvalues --    0.08247   0.08371   0.08628   0.08804   0.08824
  Beta virt. eigenvalues --    0.08824   0.08824   0.08996   0.09201   0.09455
  Beta virt. eigenvalues --    0.09525   0.09572   0.09880   0.11424   0.12219
  Beta virt. eigenvalues --    0.13240   0.31691   0.32164   0.32259   0.32501
  Beta virt. eigenvalues --    0.33217   0.33602   0.33826   0.33826   0.33826
  Beta virt. eigenvalues --    0.33826   0.33831   0.33831   0.33835   0.33835
  Beta virt. eigenvalues --    0.33837   0.33897   0.34270   0.34377   0.34566
  Beta virt. eigenvalues --    0.34638   0.34674   0.34994   0.35322   0.35322
  Beta virt. eigenvalues --    0.35322   0.35322   0.35322   0.35336   0.35366
  Beta virt. eigenvalues --    0.35716   0.35791   0.37571   0.38107   0.38245
  Beta virt. eigenvalues --    0.40958   0.41759   0.41759   0.41942   0.42099
  Beta virt. eigenvalues --    0.42099   0.42174   0.42339   0.42677   0.43034
  Beta virt. eigenvalues --    0.43275   0.43432   0.43432   0.43432   0.43514
  Beta virt. eigenvalues --    0.44104   0.44203   0.44620   0.46206   0.47144
  Beta virt. eigenvalues --    0.48647   0.49755   1.98279   1.98906   1.98978
  Beta virt. eigenvalues --    1.99534   2.01104   2.02898   2.05996   4.42041
  Beta virt. eigenvalues --    4.42041   4.42097   4.42209   4.42289   4.42299
  Beta virt. eigenvalues --    4.42299   4.42532   4.42559   4.42636   4.43021
  Beta virt. eigenvalues --    4.43131   4.43131   4.43131   4.43407   4.43431
  Beta virt. eigenvalues --    4.43946   4.44048   4.44212   4.45895   4.48241
  Beta virt. eigenvalues --   96.16932  96.17589  96.17745  96.17951  96.20240
  Beta virt. eigenvalues --   96.22284  96.25834
          Condensed to atoms (all electrons):
               1          2          3          4          5          6
     1  Na  10.713689   0.000000   0.217884   0.000000  -0.033215  -0.005611
     2  Na   0.000000  10.988938   0.000000   0.000000   0.000000   0.000000
     3  Na   0.217884   0.000000  10.899003   0.000000  -0.009887  -0.029929
     4  Na   0.000000   0.000000   0.000000  11.000000   0.000000   0.000000
     5  Na  -0.033215   0.000000  -0.009887   0.000000  10.865560   0.212542
     6  Na  -0.005611   0.000000  -0.029929   0.000000   0.212542  10.818183
     7  Na   0.000000   0.011062   0.000000   0.000000   0.000000   0.000000
               7
     1  Na   0.000000
     2  Na   0.011062
     3  Na   0.000000
     4  Na   0.000000
     5  Na   0.000000
     6  Na   0.000000
     7  Na  10.988938
          Atomic-Atomic Spin Densities.
               1          2          3          4          5          6
     1  Na   0.000000   0.000000  -0.000000   0.000000  -0.000000  -0.000000
     2  Na   0.000000  -0.000000   0.000000   0.000000   0.000000   0.000000
     3  Na  -0.000000   0.000000  -0.000000   0.000000  -0.000000  -0.000000
     4  Na   0.000000   0.000000   0.000000   1.000000   0.000000   0.000000
     5  Na  -0.000000   0.000000  -0.000000   0.000000   0.000000   0.000000
     6  Na  -0.000000   0.000000  -0.000000   0.000000   0.000000   0.000000
     7  Na   0.000000  -0.000000   0.000000   0.000000   0.000000   0.000000
               7
     1  Na   0.000000
     2  Na  -0.000000
     3  Na   0.000000
     4  Na   0.000000
     5  Na   0.000000
     6  Na   0.000000
     7  Na   0.000000
 Mulliken charges and spin densities:
               1          2
     1  Na   0.107253   0.000000
     2  Na  -0.000000  -0.000000
     3  Na  -0.077071  -0.000000
     4  Na  -0.000000   1.000000
     5  Na  -0.034999   0.000000
     6  Na   0.004817   0.000000
     7  Na   0.000000   0.000000
 Sum of Mulliken charges =  -0.00000   1.00000
 Mulliken charges and spin densities with hydrogens summed into heavy atoms:
               1          2
     1  Na   0.107253   0.000000
     2  Na  -0.000000  -0.000000
     3  Na  -0.077071  -0.000000
     4  Na  -0.000000   1.000000
     5  Na  -0.034999   0.000000
     6  Na   0.004817   0.000000
     7  Na   0.000000   0.000000
 Electronic spatial extent (au):  <R**2>=         849946.7227
 Charge=             -0.0000 electrons
 Dipole moment (field-independent basis, Debye):
    X=              0.2185    Y=              0.1195    Z=             -0.4077  Tot=              0.4778
 Quadrupole moment (field-independent basis, Debye-Ang):
   XX=            -66.9421   YY=            -85.1140   ZZ=            -55.4551
   XY=              0.9900   XZ=            -15.1624   YZ=              0.9855
 Traceless Quadrupole moment (field-independent basis, Debye-Ang):
   XX=              2.2283   YY=            -15.9436   ZZ=             13.7153
   XY=              0.9900   XZ=            -15.1624   YZ=              0.9855
 Octapole moment (field-independent basis, Debye-Ang**2):
  XXX=            923.2069  YYY=             24.9753  ZZZ=             60.0346  XYY=            -10.8819
  XXY=           -185.0537  XXZ=           -329.2805  XZZ=            369.9945  YZZ=           -493.3391
  YYZ=            100.4811  XYZ=            212.9118
 Hexadecapole moment (field-independent basis, Debye-Ang**3):
 XXXX=        -995892.3885 YYYY=        -498036.1027 ZZZZ=          -7210.3340 XXXY=          -1578.9444
 XXXZ=         -26198.2766 YYYX=           7368.1606 YYYZ=          -7385.3567 ZZZX=            848.4209
 ZZZY=          -2111.5314 XXYY=        -253579.6075 XXZZ=        -140856.4588 YYZZ=         -71542.7188
 XXYZ=           2795.5478 YYXZ=           2152.7491 ZZXY=         -14209.6342
 N-N= 7.491912211963D+01 E-N=-2.877447538295D+03  KE= 1.132638029147D+03
                          Isotropic Fermi Contact Couplings
        Atom                 a.u.       MegaHertz       Gauss      10(-4) cm-1
     1  Na(23)             0.00000       0.00000       0.00000       0.00000
     2  Na(23)            -0.00000      -0.00001      -0.00000      -0.00000
     3  Na(23)             0.00000       0.00000       0.00000       0.00000
     4  Na(23)             0.79296     938.09920     334.73712     312.91621
     5  Na(23)             0.00000       0.00000       0.00000       0.00000
     6  Na(23)             0.00000       0.00000       0.00000       0.00000
     7  Na(23)             0.00000       0.00001       0.00000       0.00000
 --------------------------------------------------------
       Center         ----  Spin Dipole Couplings  ----
                      3XX-RR        3YY-RR        3ZZ-RR
 --------------------------------------------------------
     1   Atom       -0.000000      0.000000     -0.000000
     2   Atom        0.000000     -0.000000     -0.000000
     3   Atom       -0.000000      0.000000     -0.000000
     4   Atom        0.000000     -0.000000     -0.000000
     5   Atom       -0.000000      0.000000     -0.000000
     6   Atom       -0.000000      0.000000     -0.000000
     7   Atom        0.000000     -0.000000     -0.000000
 --------------------------------------------------------
                        XY            XZ            YZ
 --------------------------------------------------------
     1   Atom        0.000000     -0.000000     -0.000000
     2   Atom        0.000000     -0.000000     -0.000000
     3   Atom        0.000000     -0.000000     -0.000000
     4   Atom        0.000000     -0.000000     -0.000000
     5   Atom        0.000000      0.000000      0.000000
     6   Atom        0.000000      0.000000      0.000000
     7   Atom        0.000000      0.000000      0.000000
 --------------------------------------------------------


 ---------------------------------------------------------------------------------
              Anisotropic Spin Dipole Couplings in Principal Axis System
 ---------------------------------------------------------------------------------

       Atom             a.u.   MegaHertz   Gauss  10(-4) cm-1        Axes

              Baa    -0.0000    -0.000    -0.000    -0.000  0.7157 -0.2844 -0.6379
     1 Na(23) Bbb    -0.0000    -0.000    -0.000    -0.000  0.6199 -0.1620  0.7678
              Bcc     0.0000     0.000     0.000     0.000  0.3217  0.9449 -0.0604
 
              Baa    -0.0000    -0.000    -0.000    -0.000 -0.4168  0.8979  0.1418
     2 Na(23) Bbb    -0.0000    -0.000    -0.000    -0.000  0.0885 -0.1152  0.9894
              Bcc     0.0000     0.000     0.000     0.000  0.9047  0.4249 -0.0314
 
              Baa    -0.0000    -0.000    -0.000    -0.000 -0.0838  0.0500  0.9952
     3 Na(23) Bbb    -0.0000    -0.000    -0.000    -0.000  0.9417 -0.3227  0.0955
              Bcc     0.0000     0.000     0.000     0.000  0.3260  0.9452 -0.0200
 
              Baa    -0.0000    -0.000    -0.000    -0.000  0.0027  0.7231  0.6907
     4 Na(23) Bbb     0.0000     0.000     0.000     0.000  0.8538 -0.3613  0.3749
              Bcc     0.0000     0.000     0.000     0.000 -0.5206 -0.5887  0.6184
 
              Baa    -0.0000    -0.000    -0.000    -0.000  0.7493 -0.2494 -0.6135
     5 Na(23) Bbb    -0.0000    -0.000    -0.000    -0.000  0.5683 -0.2334  0.7890
              Bcc     0.0000     0.000     0.000     0.000  0.3400  0.9399  0.0331
 
              Baa    -0.0000    -0.000    -0.000    -0.000 -0.0053 -0.0692  0.9976
     6 Na(23) Bbb    -0.0000    -0.000    -0.000    -0.000  0.9485 -0.3162 -0.0169
              Bcc     0.0000     0.000     0.000     0.000  0.3166  0.9462  0.0674
 
              Baa    -0.0000    -0.000    -0.000    -0.000  0.0343 -0.1644  0.9858
     7 Na(23) Bbb    -0.0000    -0.000    -0.000    -0.000 -0.4162  0.8944  0.1636
              Bcc     0.0000     0.000     0.000     0.000  0.9086  0.4159  0.0378
 

 ---------------------------------------------------------------------------------

 No NMR shielding tensors so no spin-rotation constants.
 Leave Link  601 at Thu Nov 23 12:39:50 2023, MaxMem=   104857600 cpu:              17.6 elap:              21.5
 (Enter /home/sekinelabo/g16/l701.exe)
 ... and contract with generalized density number  0.
 Compute integral first derivatives.
 Leave Link  701 at Thu Nov 23 12:39:58 2023, MaxMem=   104857600 cpu:               7.5 elap:               7.9
 (Enter /home/sekinelabo/g16/l702.exe)
 L702 exits ... SP integral derivatives will be done elsewhere.
 Leave Link  702 at Thu Nov 23 12:39:59 2023, MaxMem=   104857600 cpu:               0.6 elap:               0.9
 (Enter /home/sekinelabo/g16/l703.exe)
 Integral derivatives from FoFJK, PRISM(SPDF).
 Compute integral first derivatives, UseDBF=F ICtDFT=           0.
 Calling FoFJK, ICntrl=      2127 FMM=F ISym2X=0 I1Cent= 0 IOpClX= 1 NMat=1 NMatS=1 NMatT=0.
 FoFJK:  IHMeth= 1 ICntrl=    2127 DoSepK=F KAlg= 0 I1Cent=           0 FoldK=F
 IRaf=         0 NMat=       1 IRICut=       1 DoRegI=T DoRafI=F ISym2E= 0 IDoP0=0 IntGTp=1.
 FoFCou: FMM=F IPFlag=           0 FMFlag=      100000 FMFlg1=         800
         NFxFlg=           0 DoJE=F BraDBF=F KetDBF=F FulRan=T
         wScrn=  0.000000 ICntrl=      2127 IOpCl=  1 I1Cent=           0 NGrid=           0
         NMat0=    1 NMatS0=      1 NMatT0=    0 NMatD0=    1 NMtDS0=    0 NMtDT0=    0
 Symmetry not used in FoFCou.
 Leave Link  703 at Thu Nov 23 12:40:21 2023, MaxMem=   104857600 cpu:              20.0 elap:              21.7
 (Enter /home/sekinelabo/g16/l716.exe)
 Dipole        = 8.59822336D-02 4.70073672D-02-1.60405726D-01
 ***** Axes restored to original set *****
 -------------------------------------------------------------------
 Center     Atomic                   Forces (Hartrees/Bohr)
 Number     Number              X              Y              Z
 -------------------------------------------------------------------
      1       11          -0.007715261    0.002052713    0.000806448
      2       11          -0.000489737    0.000154173   -0.000059686
      3       11           0.006552071   -0.002084179   -0.000515654
      4       11          -0.000000000   -0.000000000   -0.000000000
      5       11          -0.003822243    0.003995798   -0.003814980
      6       11           0.004985433   -0.003964332    0.003524185
      7       11           0.000489737   -0.000154173    0.000059686
 -------------------------------------------------------------------
 Cartesian Forces:  Max     0.007715261 RMS     0.003166666
 Z-matrix is all fixed cartesians, so copy forces.
 Force constants in Cartesian coordinates: 
                1             2             3             4             5 
      1  0.100000D+01
      2  0.000000D+00  0.100000D+01
      3  0.000000D+00  0.000000D+00  0.100000D+01
      4  0.000000D+00  0.000000D+00  0.000000D+00  0.100000D+01
      5  0.000000D+00  0.000000D+00  0.000000D+00  0.000000D+00  0.100000D+01
      6  0.000000D+00  0.000000D+00  0.000000D+00  0.000000D+00  0.000000D+00
      7  0.000000D+00  0.000000D+00  0.000000D+00  0.000000D+00  0.000000D+00
      8  0.000000D+00  0.000000D+00  0.000000D+00  0.000000D+00  0.000000D+00
      9  0.000000D+00  0.000000D+00  0.000000D+00  0.000000D+00  0.000000D+00
     10  0.000000D+00  0.000000D+00  0.000000D+00  0.000000D+00  0.000000D+00
     11  0.000000D+00  0.000000D+00  0.000000D+00  0.000000D+00  0.000000D+00
     12  0.000000D+00  0.000000D+00  0.000000D+00  0.000000D+00  0.000000D+00
     13  0.000000D+00  0.000000D+00  0.000000D+00  0.000000D+00  0.000000D+00
     14  0.000000D+00  0.000000D+00  0.000000D+00  0.000000D+00  0.000000D+00
     15  0.000000D+00  0.000000D+00  0.000000D+00  0.000000D+00  0.000000D+00
     16  0.000000D+00  0.000000D+00  0.000000D+00  0.000000D+00  0.000000D+00
     17  0.000000D+00  0.000000D+00  0.000000D+00  0.000000D+00  0.000000D+00
     18  0.000000D+00  0.000000D+00  0.000000D+00  0.000000D+00  0.000000D+00
     19  0.000000D+00  0.000000D+00  0.000000D+00  0.000000D+00  0.000000D+00
     20  0.000000D+00  0.000000D+00  0.000000D+00  0.000000D+00  0.000000D+00
     21  0.000000D+00  0.000000D+00  0.000000D+00  0.000000D+00  0.000000D+00
                6             7             8             9            10 
      6  0.100000D+01
      7  0.000000D+00  0.100000D+01
      8  0.000000D+00  0.000000D+00  0.100000D+01
      9  0.000000D+00  0.000000D+00  0.000000D+00  0.100000D+01
     10  0.000000D+00  0.000000D+00  0.000000D+00  0.000000D+00  0.100000D+01
     11  0.000000D+00  0.000000D+00  0.000000D+00  0.000000D+00  0.000000D+00
     12  0.000000D+00  0.000000D+00  0.000000D+00  0.000000D+00  0.000000D+00
     13  0.000000D+00  0.000000D+00  0.000000D+00  0.000000D+00  0.000000D+00
     14  0.000000D+00  0.000000D+00  0.000000D+00  0.000000D+00  0.000000D+00
     15  0.000000D+00  0.000000D+00  0.000000D+00  0.000000D+00  0.000000D+00
     16  0.000000D+00  0.000000D+00  0.000000D+00  0.000000D+00  0.000000D+00
     17  0.000000D+00  0.000000D+00  0.000000D+00  0.000000D+00  0.000000D+00
     18  0.000000D+00  0.000000D+00  0.000000D+00  0.000000D+00  0.000000D+00
     19  0.000000D+00  0.000000D+00  0.000000D+00  0.000000D+00  0.000000D+00
     20  0.000000D+00  0.000000D+00  0.000000D+00  0.000000D+00  0.000000D+00
     21  0.000000D+00  0.000000D+00  0.000000D+00  0.000000D+00  0.000000D+00
               11            12            13            14            15 
     11  0.100000D+01
     12  0.000000D+00  0.100000D+01
     13  0.000000D+00  0.000000D+00  0.100000D+01
     14  0.000000D+00  0.000000D+00  0.000000D+00  0.100000D+01
     15  0.000000D+00  0.000000D+00  0.000000D+00  0.000000D+00  0.100000D+01
     16  0.000000D+00  0.000000D+00  0.000000D+00  0.000000D+00  0.000000D+00
     17  0.000000D+00  0.000000D+00  0.000000D+00  0.000000D+00  0.000000D+00
     18  0.000000D+00  0.000000D+00  0.000000D+00  0.000000D+00  0.000000D+00
     19  0.000000D+00  0.000000D+00  0.000000D+00  0.000000D+00  0.000000D+00
     20  0.000000D+00  0.000000D+00  0.000000D+00  0.000000D+00  0.000000D+00
     21  0.000000D+00  0.000000D+00  0.000000D+00  0.000000D+00  0.000000D+00
               16            17            18            19            20 
     16  0.100000D+01
     17  0.000000D+00  0.100000D+01
     18  0.000000D+00  0.000000D+00  0.100000D+01
     19  0.000000D+00  0.000000D+00  0.000000D+00  0.100000D+01
     20  0.000000D+00  0.000000D+00  0.000000D+00  0.000000D+00  0.100000D+01
     21  0.000000D+00  0.000000D+00  0.000000D+00  0.000000D+00  0.000000D+00
               21 
     21  0.100000D+01
 Leave Link  716 at Thu Nov 23 12:40:22 2023, MaxMem=   104857600 cpu:               0.8 elap:               0.9
 (Enter /home/sekinelabo/g16/l103.exe)

 GradGradGradGradGradGradGradGradGradGradGradGradGradGradGradGradGradGrad
 Berny optimization.
 Search for a local minimum.
 Step number   1 out of a maximum of    2
 All quantities printed in internal units (Hartrees-Bohrs-Radians)
 Second derivative matrix not updated -- first step.
 ITU=  0
     Eigenvalues ---    1.00000   1.00000   1.00000   1.00000   1.00000
     Eigenvalues ---    1.00000   1.00000   1.00000   1.00000   1.00000
     Eigenvalues ---    1.00000   1.00000   1.00000   1.00000   1.00000
     Eigenvalues ---    1.00000   1.00000   1.00000   1.00000   1.00000
     Eigenvalues ---    1.00000
 Angle between quadratic step and forces=   0.00 degrees.
 Linear search not attempted -- first point.
 B after Tr=     0.000000   -0.000000   -0.000000
         Rot=    1.000000    0.000000    0.000000   -0.000000 Ang=   0.00 deg.
 Variable       Old X    -DE/DX   Delta X   Delta X   Delta X     New X
                                 (Linear)    (Quad)   (Total)
    X1       24.20059  -0.00772   0.00000  -0.00772  -0.00772  24.19287
    Y1        1.87727   0.00205   0.00000   0.00205   0.00205   1.87932
    Z1        2.50642   0.00081   0.00000   0.00081   0.00081   2.50723
    X2       20.92229  -0.00049   0.00000  -0.00049  -0.00049  20.92180
    Y2        5.64159   0.00015   0.00000   0.00015   0.00015   5.64174
    Z2      188.32255  -0.00006   0.00000  -0.00006  -0.00006 188.32249
    X3       16.57233   0.00655   0.00000   0.00655   0.00655  16.57888
    Y3        3.91096  -0.00208   0.00000  -0.00208  -0.00208   3.90887
    Z3        3.28620  -0.00052   0.00000  -0.00052  -0.00052   3.28568
    X4       11.43199  -0.00000   0.00000  -0.00000  -0.00000  11.43199
    Y4      188.90477  -0.00000   0.00000  -0.00000  -0.00000 188.90477
    Z4        6.84818  -0.00000   0.00000  -0.00000  -0.00000   6.84818
    X5        6.72550  -0.00382   0.00000  -0.00382  -0.00382   6.72168
    Y5        3.42375   0.00400   0.00000   0.00400   0.00400   3.42774
    Z5        6.05323  -0.00381   0.00000  -0.00381  -0.00381   6.04941
    X6        0.64040   0.00499   0.00000   0.00499   0.00499   0.64538
    Y6        8.30773  -0.00396   0.00000  -0.00396  -0.00396   8.30376
    Z6        1.70768   0.00352   0.00000   0.00352   0.00352   1.71120
    X7        3.23888   0.00049   0.00000   0.00049   0.00049   3.23937
    Y7       11.20876  -0.00015   0.00000  -0.00015  -0.00015  11.20861
    Z7      186.16750   0.00006   0.00000   0.00006   0.00006 186.16756
         Item               Value     Threshold  Converged?
 Maximum Force            0.007715     0.000450     NO 
 RMS     Force            0.003167     0.000300     NO 
 Maximum Displacement     0.007715     0.001800     NO 
 RMS     Displacement     0.003167     0.001200     NO 
 Predicted change in Energy=-1.052916D-04
 GradGradGradGradGradGradGradGradGradGradGradGradGradGradGradGradGradGrad

 Leave Link  103 at Thu Nov 23 12:40:23 2023, MaxMem=   104857600 cpu:               0.6 elap:               0.7
 (Enter /home/sekinelabo/g16/l9999.exe)
 1\1\GINC-SEKINELABO-XA7R-R37\Force\UB3LYP\6-311+G(d)\Na7(2)\SEKINELABO
 \23-Nov-2023\0\\#P B3LYP/6-311+g(d) force\\DPGEN\\0,2\Na,12.8064,0.993
 406,1.32634\Na,11.0716,2.9854,99.656\Na,8.7697,2.06959,1.73898\Na,6.04
 955,99.9641,3.6239\Na,3.55898,1.81177,3.20323\Na,0.338884,4.39626,0.90
 3663\Na,1.71394,5.93142,98.5156\\Version=ES64L-G16RevB.01\State=2-A\HF
 =-1136.0067933\S2=0.750009\S2-1=0.\S2A=0.75\RMSD=9.199e-09\RMSF=3.167e
 -03\Dipole=-0.1609614,0.0724837,-0.064577\Quadrupole=10.241601,-9.8257
 726,-0.4158285,-3.0360046,10.8760081,-4.843953\PG=C01 [X(Na7)]\\@


 NOT WHAT WE DID SHALL BE THE TEST
 WHEN ACT AND WILL ARE DONE,
 BUT WHAT OUR LORD INFERS WE WOULD-
 HAD WE DIVINER BEEN.
           EMILY DICKINSON  POEMS NO. CLXXV
 Job cpu time:       0 days  0 hours  8 minutes  5.1 seconds.
 Elapsed time:       0 days  0 hours 10 minutes  1.9 seconds.
 File lengths (MBytes):  RWF=     46 Int=      0 D2E=      0 Chk=      4 Scr=      1
 Normal termination of Gaussian 16 at Thu Nov 23 12:40:24 2023.
