 Entering Gaussian System, Link 0=g16
 Initial command:
 /home/sekinelabo/g16/l1.exe "/home/sekinelabo/g16temp/Gau-1046447.inp" -scrdir="/home/sekinelabo/g16temp/"
 Entering Link 1 = /home/sekinelabo/g16/l1.exe PID=   1046496.
  
 Copyright (c) 1988-2017, Gaussian, Inc.  All Rights Reserved.
  
 This is part of the Gaussian(R) 16 program.  It is based on
 the Gaussian(R) 09 system (copyright 2009, Gaussian, Inc.),
 the Gaussian(R) 03 system (copyright 2003, Gaussian, Inc.),
 the Gaussian(R) 98 system (copyright 1998, Gaussian, Inc.),
 the Gaussian(R) 94 system (copyright 1995, Gaussian, Inc.),
 the Gaussian 92(TM) system (copyright 1992, Gaussian, Inc.),
 the Gaussian 90(TM) system (copyright 1990, Gaussian, Inc.),
 the Gaussian 88(TM) system (copyright 1988, Gaussian, Inc.),
 the Gaussian 86(TM) system (copyright 1986, Carnegie Mellon
 University), and the Gaussian 82(TM) system (copyright 1983,
 Carnegie Mellon University). Gaussian is a federally registered
 trademark of Gaussian, Inc.
  
 This software contains proprietary and confidential information,
 including trade secrets, belonging to Gaussian, Inc.
  
 This software is provided under written license and may be
 used, copied, transmitted, or stored only in accord with that
 written license.
  
 The following legend is applicable only to US Government
 contracts under FAR:
  
                    RESTRICTED RIGHTS LEGEND
  
 Use, reproduction and disclosure by the US Government is
 subject to restrictions as set forth in subparagraphs (a)
 and (c) of the Commercial Computer Software - Restricted
 Rights clause in FAR 52.227-19.
  
 Gaussian, Inc.
 340 Quinnipiac St., Bldg. 40, Wallingford CT 06492
  
  
 ---------------------------------------------------------------
 Warning -- This program may not be used in any manner that
 competes with the business of Gaussian, Inc. or will provide
 assistance to any competitor of Gaussian, Inc.  The licensee
 of this program is prohibited from giving any competitor of
 Gaussian, Inc. access to this program.  By using this program,
 the user acknowledges that Gaussian, Inc. is engaged in the
 business of creating and licensing software in the field of
 computational chemistry and represents and warrants to the
 licensee that it is not a competitor of Gaussian, Inc. and that
 it will not use this program in any manner prohibited above.
 ---------------------------------------------------------------
  

 Cite this work as:
 Gaussian 16, Revision B.01,
 M. J. Frisch, G. W. Trucks, H. B. Schlegel, G. E. Scuseria, 
 M. A. Robb, J. R. Cheeseman, G. Scalmani, V. Barone, 
 G. A. Petersson, H. Nakatsuji, X. Li, M. Caricato, A. V. Marenich, 
 J. Bloino, B. G. Janesko, R. Gomperts, B. Mennucci, H. P. Hratchian, 
 J. V. Ortiz, A. F. Izmaylov, J. L. Sonnenberg, D. Williams-Young, 
 F. Ding, F. Lipparini, F. Egidi, J. Goings, B. Peng, A. Petrone, 
 T. Henderson, D. Ranasinghe, V. G. Zakrzewski, J. Gao, N. Rega, 
 G. Zheng, W. Liang, M. Hada, M. Ehara, K. Toyota, R. Fukuda, 
 J. Hasegawa, M. Ishida, T. Nakajima, Y. Honda, O. Kitao, H. Nakai, 
 T. Vreven, K. Throssell, J. A. Montgomery, Jr., J. E. Peralta, 
 F. Ogliaro, M. J. Bearpark, J. J. Heyd, E. N. Brothers, K. N. Kudin, 
 V. N. Staroverov, T. A. Keith, R. Kobayashi, J. Normand, 
 K. Raghavachari, A. P. Rendell, J. C. Burant, S. S. Iyengar, 
 J. Tomasi, M. Cossi, J. M. Millam, M. Klene, C. Adamo, R. Cammi, 
 J. W. Ochterski, R. L. Martin, K. Morokuma, O. Farkas, 
 J. B. Foresman, and D. J. Fox, Gaussian, Inc., Wallingford CT, 2016.
 
 ******************************************
 Gaussian 16:  ES64L-G16RevB.01 20-Dec-2017
                23-Nov-2023 
 ******************************************
 %nprocshared=14
 Will use up to   14 processors via shared memory.
 -------------------------
 #P B3LYP/6-311+g(d) force
 -------------------------
 1/10=7,30=1,38=1/1,3;
 2/12=2,17=6,18=5,40=1/2;
 3/5=4,6=6,7=11,11=2,25=1,30=1,71=1,74=-5/1,2,3;
 4//1;
 5/5=2,38=5/2;
 6/7=2,8=2,9=2,10=2,28=1/1;
 7/29=1/1,2,3,16;
 1/10=7,30=1/3;
 99//99;
 Leave Link    1 at Thu Nov 23 12:30:20 2023, MaxMem=           0 cpu:               0.5 elap:               0.6
 (Enter /home/sekinelabo/g16/l101.exe)
 -----
 DPGEN
 -----
 Symbolic Z-matrix:
 Charge =  0 Multiplicity = 2
 Na                    8.97868   0.20942   2.06088 
 Na                    11.5812   2.06708   0.95497 
 Na                    9.48367   4.47927   0.13367 
 Na                    7.08763   4.8886    2.28294 
 Na                    5.18634   2.27903   1.79456 
 Na                    2.37556   1.66976   0.10868 
 Na                    99.6159   2.5588    1.63199 
 
 ITRead=  0  0  0  0  0  0  0
 MicOpt= -1 -1 -1 -1 -1 -1 -1
 NAtoms=      7 NQM=        7 NQMF=       0 NMMI=      0 NMMIF=      0
                NMic=       0 NMicF=      0.
                    Isotopes and Nuclear Properties:
 (Nuclear quadrupole moments (NQMom) in fm**2, nuclear magnetic moments (NMagM)
  in nuclear magnetons)

  Atom         1           2           3           4           5           6           7
 IAtWgt=          23          23          23          23          23          23          23
 AtmWgt=  22.9897697  22.9897697  22.9897697  22.9897697  22.9897697  22.9897697  22.9897697
 NucSpn=           3           3           3           3           3           3           3
 AtZEff=  -0.0000000  -0.0000000  -0.0000000  -0.0000000  -0.0000000  -0.0000000  -0.0000000
 NQMom=   10.4000000  10.4000000  10.4000000  10.4000000  10.4000000  10.4000000  10.4000000
 NMagM=    2.2175200   2.2175200   2.2175200   2.2175200   2.2175200   2.2175200   2.2175200
 AtZNuc=  11.0000000  11.0000000  11.0000000  11.0000000  11.0000000  11.0000000  11.0000000
 Leave Link  101 at Thu Nov 23 12:30:23 2023, MaxMem=   104857600 cpu:               2.5 elap:               2.9
 (Enter /home/sekinelabo/g16/l103.exe)

 GradGradGradGradGradGradGradGradGradGradGradGradGradGradGradGradGradGrad
 Berny optimization.
 Initialization pass.
 Trust Radius=3.00D-01 FncErr=1.00D-07 GrdErr=1.00D-07 EigMax=2.50D+02 EigMin=1.00D-04
 Number of steps in this run=      2 maximum allowed number of steps=      2.
 GradGradGradGradGradGradGradGradGradGradGradGradGradGradGradGradGradGrad

 Leave Link  103 at Thu Nov 23 12:30:24 2023, MaxMem=   104857600 cpu:               0.5 elap:               0.6
 (Enter /home/sekinelabo/g16/l202.exe)
                          Input orientation:                          
 ---------------------------------------------------------------------
 Center     Atomic      Atomic             Coordinates (Angstroms)
 Number     Number       Type             X           Y           Z
 ---------------------------------------------------------------------
      1         11           0        8.978680    0.209422    2.060880
      2         11           0       11.581200    2.067080    0.954970
      3         11           0        9.483670    4.479270    0.133669
      4         11           0        7.087630    4.888600    2.282940
      5         11           0        5.186340    2.279030    1.794560
      6         11           0        2.375560    1.669760    0.108676
      7         11           0       99.615900    2.558800    1.631990
 ---------------------------------------------------------------------
                    Distance matrix (angstroms):
                    1          2          3          4          5
     1  Na   0.000000
     2  Na   3.383348   0.000000
     3  Na   4.711768   3.300428   0.000000
     4  Na   5.051741   5.469612   3.244676   0.000000
     5  Na   4.328515   6.453222   5.105552   3.265467   0.000000
     6  Na   7.038812   9.252993   7.643245   6.106714   3.333751
     7  Na  90.668678  88.038676  90.165138  92.559886  94.430114
                    6          7
     6  Na   0.000000
     7  Na  97.256335   0.000000
 Stoichiometry    Na7(2)
 Framework group  C1[X(Na7)]
 Deg. of freedom    15
 Full point group                 C1      NOp   1
 Largest Abelian subgroup         C1      NOp   1
 Largest concise Abelian subgroup C1      NOp   1
                         Standard orientation:                         
 ---------------------------------------------------------------------
 Center     Atomic      Atomic             Coordinates (Angstroms)
 Number     Number       Type             X           Y           Z
 ---------------------------------------------------------------------
      1         11           0       11.632925   -2.428552   -0.696073
      2         11           0        9.035753   -0.509634    0.313624
      3         11           0       11.137292    1.944950    0.985471
      4         11           0       13.523290    2.229537   -1.194884
      5         11           0       15.426634   -0.348397   -0.566548
      6         11           0       18.245217   -0.860977    1.138372
      7         11           0      -79.001111   -0.026927    0.020039
 ---------------------------------------------------------------------
 Rotational constants (GHZ):           1.0789785           0.0029947           0.0029902
 Leave Link  202 at Thu Nov 23 12:30:25 2023, MaxMem=   104857600 cpu:               0.8 elap:               1.0
 (Enter /home/sekinelabo/g16/l301.exe)
 Standard basis: 6-311+G(d) (5D, 7F)
 Ernie: Thresh=  0.10000D-02 Tol=  0.10000D-05 Strict=F.
 There are   217 symmetry adapted cartesian basis functions of A   symmetry.
 There are   210 symmetry adapted basis functions of A   symmetry.
   210 basis functions,   350 primitive gaussians,   217 cartesian basis functions
    39 alpha electrons       38 beta electrons
       nuclear repulsion energy       211.1534031906 Hartrees.
 IExCor=  402 DFT=T Ex+Corr=B3LYP ExCW=0 ScaHFX=  0.200000
 ScaDFX=  0.800000  0.720000  1.000000  0.810000 ScalE2=  1.000000  1.000000
 IRadAn=      5 IRanWt=     -1 IRanGd=            0 ICorTp=0 IEmpDi=  4
 NAtoms=    7 NActive=    7 NUniq=    7 SFac= 1.00D+00 NAtFMM=   60 NAOKFM=F Big=F
 Integral buffers will be    131072 words long.
 Raffenetti 2 integral format.
 Two-electron integral symmetry is turned on.
 Leave Link  301 at Thu Nov 23 12:30:26 2023, MaxMem=   104857600 cpu:               0.6 elap:               0.8
 (Enter /home/sekinelabo/g16/l302.exe)
 NPDir=0 NMtPBC=     1 NCelOv=     1 NCel=       1 NClECP=     1 NCelD=      1
         NCelK=      1 NCelE2=     1 NClLst=     1 CellRange=     0.0.
 One-electron integrals computed using PRISM.
 One-electron integral symmetry used in STVInt
 NBasis=   210 RedAO= T EigKep=  1.10D-05  NBF=   210
 NBsUse=   210 1.00D-06 EigRej= -1.00D+00 NBFU=   210
 Precomputing XC quadrature grid using
 IXCGrd= 4 IRadAn=           5 IRanWt=          -1 IRanGd=           0 AccXCQ= 0.00D+00.
 Generated NRdTot=       0 NPtTot=           0 NUsed=           0 NTot=          32
 NSgBfM=   174   174   174   174   174 MxSgAt=     7 MxSgA2=     6.
 Leave Link  302 at Thu Nov 23 12:30:57 2023, MaxMem=   104857600 cpu:              24.5 elap:              30.9
 (Enter /home/sekinelabo/g16/l303.exe)
 DipDrv:  MaxL=1.
 Leave Link  303 at Thu Nov 23 12:31:00 2023, MaxMem=   104857600 cpu:               2.2 elap:               2.8
 (Enter /home/sekinelabo/g16/l401.exe)
 ExpMin= 7.60D-03 ExpMax= 3.62D+04 ExpMxC= 1.21D+03 IAcc=3 IRadAn=         5 AccDes= 0.00D+00
 Harris functional with IExCor=  402 and IRadAn=       5 diagonalized for initial guess.
 HarFok:  IExCor=  402 AccDes= 0.00D+00 IRadAn=         5 IDoV= 1 UseB2=F ITyADJ=14
 ICtDFT=  3500011 ScaDFX=  1.000000  1.000000  1.000000  1.000000
 FoFCou: FMM=F IPFlag=           0 FMFlag=      100000 FMFlg1=           0
         NFxFlg=           0 DoJE=T BraDBF=F KetDBF=T FulRan=T
         wScrn=  0.000000 ICntrl=       500 IOpCl=  0 I1Cent=   200000004 NGrid=           0
         NMat0=    1 NMatS0=      1 NMatT0=    0 NMatD0=    1 NMtDS0=    0 NMtDT0=    0
 Petite list used in FoFCou.
 Harris En= -1135.85963022388    
 JPrj=0 DoOrth=F DoCkMO=F.
 Initial guess <Sx>= 0.0000 <Sy>= 0.0000 <Sz>= 0.5000 <S**2>= 0.7500 S= 0.5000
 Leave Link  401 at Thu Nov 23 12:31:21 2023, MaxMem=   104857600 cpu:              17.0 elap:              21.0
 (Enter /home/sekinelabo/g16/l502.exe)
 Integral symmetry usage will be decided dynamically.
 UHF open shell SCF:
 Using DIIS extrapolation, IDIIS=  1040.
 NGot=   104857600 LenX=   104758426 LenY=   104710896
 Requested convergence on RMS density matrix=1.00D-08 within 128 cycles.
 Requested convergence on MAX density matrix=1.00D-06.
 Requested convergence on             energy=1.00D-06.
 No special actions if energy rises.
 Fock matrices will be formed incrementally for  20 cycles.

 Cycle   1  Pass 1  IDiag  1:
 FoFJK:  IHMeth= 1 ICntrl=       0 DoSepK=F KAlg= 0 I1Cent=           0 FoldK=F
 IRaf= 660000000 NMat=       1 IRICut=       1 DoRegI=T DoRafI=F ISym2E= 0 IDoP0=0 IntGTp=1.
 FoFCou: FMM=F IPFlag=           0 FMFlag=      100000 FMFlg1=           0
         NFxFlg=           0 DoJE=F BraDBF=F KetDBF=F FulRan=T
         wScrn=  0.000000 ICntrl=         0 IOpCl=  1 I1Cent=           0 NGrid=           0
         NMat0=    1 NMatS0=      1 NMatT0=    0 NMatD0=    1 NMtDS0=    0 NMtDT0=    0
 Symmetry not used in FoFCou.
 E= -1136.06471125968    
 DIIS: error= 2.00D-02 at cycle   1 NSaved=   1.
 NSaved= 1 IEnMin= 1 EnMin= -1136.06471125968     IErMin= 1 ErrMin= 2.00D-02
 ErrMax= 2.00D-02  0.00D+00 EMaxC= 1.00D-01 BMatC= 1.84D-01 BMatP= 1.84D-01
 IDIUse=3 WtCom= 8.00D-01 WtEn= 2.00D-01
 Coeff-Com:  0.100D+01
 Coeff-En:   0.100D+01
 Coeff:      0.100D+01
 Gap=     0.057 Goal=   None    Shift=    0.000
 Gap=     0.029 Goal=   None    Shift=    0.000
 GapD=    0.029 DampG=0.250 DampE=0.500 DampFc=0.2500 IDamp=-1.
 Damping current iteration by 2.50D-01
 RMSDP=5.11D-03 MaxDP=4.16D-01              OVMax= 1.94D-01

 Cycle   2  Pass 1  IDiag  1:
 RMSU=  1.17D-03    CP:  9.77D-01
 E= -1136.07307371757     Delta-E=       -0.008362457884 Rises=F Damp=T
 DIIS: error= 1.39D-02 at cycle   2 NSaved=   2.
 NSaved= 2 IEnMin= 2 EnMin= -1136.07307371757     IErMin= 2 ErrMin= 1.39D-02
 ErrMax= 1.39D-02  0.00D+00 EMaxC= 1.00D-01 BMatC= 7.08D-02 BMatP= 1.84D-01
 IDIUse=3 WtCom= 8.61D-01 WtEn= 1.39D-01
 Coeff-Com: -0.129D+01 0.229D+01
 Coeff-En:   0.000D+00 0.100D+01
 Coeff:     -0.111D+01 0.211D+01
 Gap=     0.032 Goal=   None    Shift=    0.000
 Gap=     0.032 Goal=   None    Shift=    0.000
 RMSDP=3.54D-03 MaxDP=3.25D-01 DE=-8.36D-03 OVMax= 1.65D-01

 Cycle   3  Pass 1  IDiag  1:
 RMSU=  1.93D-03    CP:  9.08D-01  3.00D+00
 E= -1136.08713482040     Delta-E=       -0.014061102831 Rises=F Damp=F
 DIIS: error= 1.90D-03 at cycle   3 NSaved=   3.
 NSaved= 3 IEnMin= 3 EnMin= -1136.08713482040     IErMin= 3 ErrMin= 1.90D-03
 ErrMax= 1.90D-03  0.00D+00 EMaxC= 1.00D-01 BMatC= 2.08D-03 BMatP= 7.08D-02
 IDIUse=3 WtCom= 9.81D-01 WtEn= 1.90D-02
 Coeff-Com: -0.808D-01 0.184D+00 0.897D+00
 Coeff-En:   0.000D+00 0.000D+00 0.100D+01
 Coeff:     -0.793D-01 0.181D+00 0.899D+00
 Gap=     0.026 Goal=   None    Shift=    0.000
 Gap=     0.026 Goal=   None    Shift=    0.000
 RMSDP=1.89D-03 MaxDP=1.67D-01 DE=-1.41D-02 OVMax= 1.83D-01

 Cycle   4  Pass 1  IDiag  1:
 RMSU=  1.24D-03    CP:  9.16D-01  3.00D+00  2.68D-01
 E= -1136.08019789227     Delta-E=        0.006936928131 Rises=F Damp=F
 DIIS: error= 2.89D-03 at cycle   4 NSaved=   4.
 NSaved= 4 IEnMin= 3 EnMin= -1136.08713482040     IErMin= 3 ErrMin= 1.90D-03
 ErrMax= 2.89D-03  0.00D+00 EMaxC= 1.00D-01 BMatC= 5.85D-03 BMatP= 2.08D-03
 IDIUse=3 WtCom= 1.57D-01 WtEn= 8.43D-01
 Coeff-Com:  0.623D-01-0.774D-01 0.645D+00 0.370D+00
 Coeff-En:   0.000D+00 0.000D+00 0.722D+00 0.278D+00
 Coeff:      0.977D-02-0.121D-01 0.710D+00 0.292D+00
 Gap=     0.028 Goal=   None    Shift=    0.000
 Gap=     0.028 Goal=   None    Shift=    0.000
 RMSDP=1.07D-03 MaxDP=9.71D-02 DE= 6.94D-03 OVMax= 1.22D-01

 Cycle   5  Pass 1  IDiag  1:
 RMSU=  2.85D-04    CP:  9.11D-01  3.00D+00  6.91D-01  5.10D-01
 E= -1136.08952659701     Delta-E=       -0.009328704745 Rises=F Damp=F
 DIIS: error= 7.04D-04 at cycle   5 NSaved=   5.
 NSaved= 5 IEnMin= 5 EnMin= -1136.08952659701     IErMin= 5 ErrMin= 7.04D-04
 ErrMax= 7.04D-04  0.00D+00 EMaxC= 1.00D-01 BMatC= 3.35D-04 BMatP= 2.08D-03
 IDIUse=3 WtCom= 9.93D-01 WtEn= 7.04D-03
 Coeff-Com:  0.871D-02-0.117D-01 0.344D+00 0.755D-01 0.584D+00
 Coeff-En:   0.000D+00 0.000D+00 0.148D+00 0.000D+00 0.852D+00
 Coeff:      0.865D-02-0.117D-01 0.342D+00 0.750D-01 0.586D+00
 Gap=     0.029 Goal=   None    Shift=    0.000
 Gap=     0.029 Goal=   None    Shift=    0.000
 RMSDP=2.89D-04 MaxDP=1.96D-02 DE=-9.33D-03 OVMax= 2.05D-02

 Cycle   6  Pass 1  IDiag  1:
 RMSU=  8.55D-05    CP:  9.09D-01  3.00D+00  8.02D-01  4.06D-01  6.12D-01
 E= -1136.08987324696     Delta-E=       -0.000346649950 Rises=F Damp=F
 DIIS: error= 1.76D-04 at cycle   6 NSaved=   6.
 NSaved= 6 IEnMin= 6 EnMin= -1136.08987324696     IErMin= 6 ErrMin= 1.76D-04
 ErrMax= 1.76D-04  0.00D+00 EMaxC= 1.00D-01 BMatC= 1.48D-05 BMatP= 3.35D-04
 IDIUse=3 WtCom= 9.98D-01 WtEn= 1.76D-03
 Coeff-Com: -0.555D-02 0.694D-02 0.110D+00-0.132D-01 0.327D+00 0.575D+00
 Coeff-En:   0.000D+00 0.000D+00 0.000D+00 0.000D+00 0.000D+00 0.100D+01
 Coeff:     -0.554D-02 0.693D-02 0.109D+00-0.132D-01 0.326D+00 0.576D+00
 Gap=     0.029 Goal=   None    Shift=    0.000
 Gap=     0.029 Goal=   None    Shift=    0.000
 RMSDP=6.74D-05 MaxDP=3.05D-03 DE=-3.47D-04 OVMax= 4.90D-03

 Cycle   7  Pass 1  IDiag  1:
 RMSU=  5.62D-05    CP:  9.08D-01  3.00D+00  8.06D-01  3.98D-01  6.92D-01
                    CP:  7.57D-01
 E= -1136.08989288969     Delta-E=       -0.000019642730 Rises=F Damp=F
 DIIS: error= 5.92D-05 at cycle   7 NSaved=   7.
 NSaved= 7 IEnMin= 7 EnMin= -1136.08989288969     IErMin= 7 ErrMin= 5.92D-05
 ErrMax= 5.92D-05  0.00D+00 EMaxC= 1.00D-01 BMatC= 1.37D-06 BMatP= 1.48D-05
 IDIUse=1 WtCom= 1.00D+00 WtEn= 0.00D+00
 Coeff-Com: -0.414D-02 0.535D-02 0.199D-01-0.158D-01 0.993D-01 0.291D+00
 Coeff-Com:  0.604D+00
 Coeff:     -0.414D-02 0.535D-02 0.199D-01-0.158D-01 0.993D-01 0.291D+00
 Coeff:      0.604D+00
 Gap=     0.029 Goal=   None    Shift=    0.000
 Gap=     0.029 Goal=   None    Shift=    0.000
 RMSDP=2.40D-05 MaxDP=1.81D-03 DE=-1.96D-05 OVMax= 2.47D-03

 Cycle   8  Pass 1  IDiag  1:
 RMSU=  1.66D-05    CP:  9.08D-01  3.00D+00  8.10D-01  3.94D-01  7.21D-01
                    CP:  8.98D-01  9.39D-01
 E= -1136.08989430073     Delta-E=       -0.000001411032 Rises=F Damp=F
 DIIS: error= 2.15D-05 at cycle   8 NSaved=   8.
 NSaved= 8 IEnMin= 8 EnMin= -1136.08989430073     IErMin= 8 ErrMin= 2.15D-05
 ErrMax= 2.15D-05  0.00D+00 EMaxC= 1.00D-01 BMatC= 2.43D-07 BMatP= 1.37D-06
 IDIUse=1 WtCom= 1.00D+00 WtEn= 0.00D+00
 Coeff-Com: -0.106D-02 0.138D-02-0.711D-03-0.498D-02 0.726D-02 0.737D-01
 Coeff-Com:  0.341D+00 0.583D+00
 Coeff:     -0.106D-02 0.138D-02-0.711D-03-0.498D-02 0.726D-02 0.737D-01
 Coeff:      0.341D+00 0.583D+00
 Gap=     0.029 Goal=   None    Shift=    0.000
 Gap=     0.029 Goal=   None    Shift=    0.000
 RMSDP=8.75D-06 MaxDP=5.85D-04 DE=-1.41D-06 OVMax= 8.09D-04

 Cycle   9  Pass 1  IDiag  1:
 RMSU=  6.19D-06    CP:  9.08D-01  3.00D+00  8.09D-01  3.96D-01  7.17D-01
                    CP:  8.75D-01  9.50D-01  7.17D-01
 E= -1136.08989459282     Delta-E=       -0.000000292095 Rises=F Damp=F
 DIIS: error= 2.35D-06 at cycle   9 NSaved=   9.
 NSaved= 9 IEnMin= 9 EnMin= -1136.08989459282     IErMin= 9 ErrMin= 2.35D-06
 ErrMax= 2.35D-06  0.00D+00 EMaxC= 1.00D-01 BMatC= 4.52D-09 BMatP= 2.43D-07
 IDIUse=1 WtCom= 1.00D+00 WtEn= 0.00D+00
 Coeff-Com:  0.222D-03-0.293D-03-0.208D-02-0.204D-03-0.743D-02-0.660D-02
 Coeff-Com:  0.296D-01 0.111D+00 0.876D+00
 Coeff:      0.222D-03-0.293D-03-0.208D-02-0.204D-03-0.743D-02-0.660D-02
 Coeff:      0.296D-01 0.111D+00 0.876D+00
 Gap=     0.029 Goal=   None    Shift=    0.000
 Gap=     0.029 Goal=   None    Shift=    0.000
 RMSDP=2.63D-06 MaxDP=1.39D-04 DE=-2.92D-07 OVMax= 2.46D-04

 Cycle  10  Pass 1  IDiag  1:
 RMSU=  1.09D-06    CP:  9.08D-01  3.00D+00  8.09D-01  3.95D-01  7.19D-01
                    CP:  8.89D-01  9.72D-01  7.47D-01  1.14D+00
 E= -1136.08989460022     Delta-E=       -0.000000007398 Rises=F Damp=F
 DIIS: error= 1.66D-06 at cycle  10 NSaved=  10.
 NSaved=10 IEnMin=10 EnMin= -1136.08989460022     IErMin=10 ErrMin= 1.66D-06
 ErrMax= 1.66D-06  0.00D+00 EMaxC= 1.00D-01 BMatC= 1.11D-09 BMatP= 4.52D-09
 IDIUse=1 WtCom= 1.00D+00 WtEn= 0.00D+00
 Coeff-Com:  0.178D-03-0.234D-03-0.117D-02 0.406D-03-0.436D-02-0.869D-02
 Coeff-Com: -0.115D-01-0.282D-02 0.373D+00 0.655D+00
 Coeff:      0.178D-03-0.234D-03-0.117D-02 0.406D-03-0.436D-02-0.869D-02
 Coeff:     -0.115D-01-0.282D-02 0.373D+00 0.655D+00
 Gap=     0.029 Goal=   None    Shift=    0.000
 Gap=     0.029 Goal=   None    Shift=    0.000
 RMSDP=1.01D-06 MaxDP=5.25D-05 DE=-7.40D-09 OVMax= 5.53D-05

 Cycle  11  Pass 1  IDiag  1:
 RMSU=  4.64D-07    CP:  9.08D-01  3.00D+00  8.09D-01  3.96D-01  7.19D-01
                    CP:  8.90D-01  9.78D-01  7.50D-01  1.24D+00  9.21D-01
 E= -1136.08989460237     Delta-E=       -0.000000002154 Rises=F Damp=F
 DIIS: error= 2.88D-07 at cycle  11 NSaved=  11.
 NSaved=11 IEnMin=11 EnMin= -1136.08989460237     IErMin=11 ErrMin= 2.88D-07
 ErrMax= 2.88D-07  0.00D+00 EMaxC= 1.00D-01 BMatC= 4.97D-11 BMatP= 1.11D-09
 IDIUse=1 WtCom= 1.00D+00 WtEn= 0.00D+00
 Coeff-Com:  0.296D-04-0.384D-04-0.275D-03 0.136D-03-0.868D-03-0.181D-02
 Coeff-Com: -0.359D-02-0.764D-02 0.320D-01 0.129D+00 0.853D+00
 Coeff:      0.296D-04-0.384D-04-0.275D-03 0.136D-03-0.868D-03-0.181D-02
 Coeff:     -0.359D-02-0.764D-02 0.320D-01 0.129D+00 0.853D+00
 Gap=     0.029 Goal=   None    Shift=    0.000
 Gap=     0.029 Goal=   None    Shift=    0.000
 RMSDP=2.75D-07 MaxDP=1.31D-05 DE=-2.15D-09 OVMax= 1.47D-05

 Cycle  12  Pass 1  IDiag  1:
 RMSU=  7.88D-08    CP:  9.08D-01  3.00D+00  8.09D-01  3.96D-01  7.19D-01
                    CP:  8.91D-01  9.79D-01  7.51D-01  1.26D+00  1.00D+00
                    CP:  1.22D+00
 E= -1136.08989460244     Delta-E=       -0.000000000062 Rises=F Damp=F
 DIIS: error= 1.20D-07 at cycle  12 NSaved=  12.
 NSaved=12 IEnMin=12 EnMin= -1136.08989460244     IErMin=12 ErrMin= 1.20D-07
 ErrMax= 1.20D-07  0.00D+00 EMaxC= 1.00D-01 BMatC= 1.06D-11 BMatP= 4.97D-11
 IDIUse=1 WtCom= 1.00D+00 WtEn= 0.00D+00
 Coeff-Com: -0.177D-04 0.235D-04 0.529D-04-0.226D-04 0.255D-03 0.113D-02
 Coeff-Com:  0.265D-02-0.920D-03-0.477D-01-0.644D-01 0.220D+00 0.889D+00
 Coeff:     -0.177D-04 0.235D-04 0.529D-04-0.226D-04 0.255D-03 0.113D-02
 Coeff:      0.265D-02-0.920D-03-0.477D-01-0.644D-01 0.220D+00 0.889D+00
 Gap=     0.029 Goal=   None    Shift=    0.000
 Gap=     0.029 Goal=   None    Shift=    0.000
 RMSDP=1.24D-07 MaxDP=7.07D-06 DE=-6.18D-11 OVMax= 6.75D-06

 Cycle  13  Pass 1  IDiag  1:
 RMSU=  2.29D-08    CP:  9.08D-01  3.00D+00  8.09D-01  3.96D-01  7.19D-01
                    CP:  8.91D-01  9.79D-01  7.49D-01  1.26D+00  1.04D+00
                    CP:  1.31D+00  1.58D+00
 E= -1136.08989460247     Delta-E=       -0.000000000030 Rises=F Damp=F
 DIIS: error= 2.78D-08 at cycle  13 NSaved=  13.
 NSaved=13 IEnMin=13 EnMin= -1136.08989460247     IErMin=13 ErrMin= 2.78D-08
 ErrMax= 2.78D-08  0.00D+00 EMaxC= 1.00D-01 BMatC= 5.62D-13 BMatP= 1.06D-11
 IDIUse=1 WtCom= 1.00D+00 WtEn= 0.00D+00
 Coeff-Com: -0.170D-05 0.222D-05 0.184D-04-0.921D-05 0.498D-04 0.230D-03
 Coeff-Com:  0.670D-03 0.238D-03-0.371D-02-0.128D-01-0.567D-01-0.131D-01
 Coeff-Com:  0.109D+01
 Coeff:     -0.170D-05 0.222D-05 0.184D-04-0.921D-05 0.498D-04 0.230D-03
 Coeff:      0.670D-03 0.238D-03-0.371D-02-0.128D-01-0.567D-01-0.131D-01
 Coeff:      0.109D+01
 Gap=     0.029 Goal=   None    Shift=    0.000
 Gap=     0.029 Goal=   None    Shift=    0.000
 RMSDP=4.66D-08 MaxDP=2.22D-06 DE=-3.02D-11 OVMax= 2.89D-06

 Cycle  14  Pass 1  IDiag  1:
 RMSU=  1.17D-08    CP:  9.08D-01  3.00D+00  8.09D-01  3.96D-01  7.19D-01
                    CP:  8.91D-01  9.79D-01  7.48D-01  1.26D+00  1.04D+00
                    CP:  1.35D+00  1.79D+00  1.74D+00
 E= -1136.08989460246     Delta-E=        0.000000000001 Rises=F Damp=F
 DIIS: error= 8.81D-09 at cycle  14 NSaved=  14.
 NSaved=14 IEnMin=13 EnMin= -1136.08989460247     IErMin=14 ErrMin= 8.81D-09
 ErrMax= 8.81D-09  0.00D+00 EMaxC= 1.00D-01 BMatC= 3.75D-14 BMatP= 5.62D-13
 IDIUse=1 WtCom= 1.00D+00 WtEn= 0.00D+00
 Coeff-Com: -0.278D-06 0.347D-06 0.107D-05-0.223D-05 0.489D-05 0.309D-04
 Coeff-Com:  0.114D-03 0.155D-03 0.740D-03-0.275D-03-0.155D-01-0.573D-01
 Coeff-Com:  0.123D+00 0.949D+00
 Coeff:     -0.278D-06 0.347D-06 0.107D-05-0.223D-05 0.489D-05 0.309D-04
 Coeff:      0.114D-03 0.155D-03 0.740D-03-0.275D-03-0.155D-01-0.573D-01
 Coeff:      0.123D+00 0.949D+00
 Gap=     0.029 Goal=   None    Shift=    0.000
 Gap=     0.029 Goal=   None    Shift=    0.000
 RMSDP=1.12D-08 MaxDP=5.45D-07 DE= 1.14D-12 OVMax= 5.67D-07

 Cycle  15  Pass 1  IDiag  1:
 RMSU=  3.13D-09    CP:  9.08D-01  3.00D+00  8.09D-01  3.96D-01  7.19D-01
                    CP:  8.91D-01  9.79D-01  7.48D-01  1.26D+00  1.05D+00
                    CP:  1.36D+00  1.85D+00  1.87D+00  1.32D+00
 E= -1136.08989460246     Delta-E=       -0.000000000000 Rises=F Damp=F
 DIIS: error= 1.76D-09 at cycle  15 NSaved=  15.
 NSaved=15 IEnMin=13 EnMin= -1136.08989460247     IErMin=15 ErrMin= 1.76D-09
 ErrMax= 1.76D-09  0.00D+00 EMaxC= 1.00D-01 BMatC= 2.88D-15 BMatP= 3.75D-14
 IDIUse=1 WtCom= 1.00D+00 WtEn= 0.00D+00
 Coeff-Com:  0.218D-06-0.292D-06-0.120D-05 0.350D-06-0.452D-05-0.129D-04
 Coeff-Com: -0.284D-04-0.228D-04 0.418D-03 0.719D-03-0.433D-03-0.125D-01
 Coeff-Com: -0.493D-01 0.208D+00 0.853D+00
 Coeff:      0.218D-06-0.292D-06-0.120D-05 0.350D-06-0.452D-05-0.129D-04
 Coeff:     -0.284D-04-0.228D-04 0.418D-03 0.719D-03-0.433D-03-0.125D-01
 Coeff:     -0.493D-01 0.208D+00 0.853D+00
 Gap=     0.029 Goal=   None    Shift=    0.000
 Gap=     0.029 Goal=   None    Shift=    0.000
 RMSDP=2.82D-09 MaxDP=1.66D-07 DE=-4.55D-13 OVMax= 1.66D-07

 SCF Done:  E(UB3LYP) =  -1136.08989460     A.U. after   15 cycles
            NFock= 15  Conv=0.28D-08     -V/T= 2.0029
 <Sx>= 0.0000 <Sy>= 0.0000 <Sz>= 0.5000 <S**2>= 0.7500 S= 0.5000
 <L.S>= 0.000000000000E+00
 KE= 1.132843759915D+03 PE=-3.151135345837D+03 EE= 6.710482881292D+02
 Annihilation of the first spin contaminant:
 S**2 before annihilation     0.7500,   after     0.7500
 Leave Link  502 at Thu Nov 23 12:40:27 2023, MaxMem=   104857600 cpu:             440.4 elap:             545.1
 (Enter /home/sekinelabo/g16/l601.exe)
 Copying SCF densities to generalized density rwf, IOpCl= 1 IROHF=0.

 **********************************************************************

            Population analysis using the SCF Density.

 **********************************************************************

 Orbital symmetries:
 Alpha Orbitals:
       Occupied  (A) (A) (A) (A) (A) (A) (A) (A) (A) (A) (A) (A)
                 (A) (A) (A) (A) (A) (A) (A) (A) (A) (A) (A) (A)
                 (A) (A) (A) (A) (A) (A) (A) (A) (A) (A) (A) (A)
                 (A) (A) (A)
       Virtual   (A) (A) (A) (A) (A) (A) (A) (A) (A) (A) (A) (A)
                 (A) (A) (A) (A) (A) (A) (A) (A) (A) (A) (A) (A)
                 (A) (A) (A) (A) (A) (A) (A) (A) (A) (A) (A) (A)
                 (A) (A) (A) (A) (A) (A) (A) (A) (A) (A) (A) (A)
                 (A) (A) (A) (A) (A) (A) (A) (A) (A) (A) (A) (A)
                 (A) (A) (A) (A) (A) (A) (A) (A) (A) (A) (A) (A)
                 (A) (A) (A) (A) (A) (A) (A) (A) (A) (A) (A) (A)
                 (A) (A) (A) (A) (A) (A) (A) (A) (A) (A) (A) (A)
                 (A) (A) (A) (A) (A) (A) (A) (A) (A) (A) (A) (A)
                 (A) (A) (A) (A) (A) (A) (A) (A) (A) (A) (A) (A)
                 (A) (A) (A) (A) (A) (A) (A) (A) (A) (A) (A) (A)
                 (A) (A) (A) (A) (A) (A) (A) (A) (A) (A) (A) (A)
                 (A) (A) (A) (A) (A) (A) (A) (A) (A) (A) (A) (A)
                 (A) (A) (A) (A) (A) (A) (A) (A) (A) (A) (A) (A)
                 (A) (A) (A)
 Beta  Orbitals:
       Occupied  (A) (A) (A) (A) (A) (A) (A) (A) (A) (A) (A) (A)
                 (A) (A) (A) (A) (A) (A) (A) (A) (A) (A) (A) (A)
                 (A) (A) (A) (A) (A) (A) (A) (A) (A) (A) (A) (A)
                 (A) (A)
       Virtual   (A) (A) (A) (A) (A) (A) (A) (A) (A) (A) (A) (A)
                 (A) (A) (A) (A) (A) (A) (A) (A) (A) (A) (A) (A)
                 (A) (A) (A) (A) (A) (A) (A) (A) (A) (A) (A) (A)
                 (A) (A) (A) (A) (A) (A) (A) (A) (A) (A) (A) (A)
                 (A) (A) (A) (A) (A) (A) (A) (A) (A) (A) (A) (A)
                 (A) (A) (A) (A) (A) (A) (A) (A) (A) (A) (A) (A)
                 (A) (A) (A) (A) (A) (A) (A) (A) (A) (A) (A) (A)
                 (A) (A) (A) (A) (A) (A) (A) (A) (A) (A) (A) (A)
                 (A) (A) (A) (A) (A) (A) (A) (A) (A) (A) (A) (A)
                 (A) (A) (A) (A) (A) (A) (A) (A) (A) (A) (A) (A)
                 (A) (A) (A) (A) (A) (A) (A) (A) (A) (A) (A) (A)
                 (A) (A) (A) (A) (A) (A) (A) (A) (A) (A) (A) (A)
                 (A) (A) (A) (A) (A) (A) (A) (A) (A) (A) (A) (A)
                 (A) (A) (A) (A) (A) (A) (A) (A) (A) (A) (A) (A)
                 (A) (A) (A) (A)
 The electronic state is 2-A.
 Alpha  occ. eigenvalues --  -38.45774 -38.45259 -38.45178 -38.44573 -38.44268
 Alpha  occ. eigenvalues --  -38.43838 -38.43046  -2.21558  -2.21000  -2.20924
 Alpha  occ. eigenvalues --   -2.20382  -2.20073  -2.19644  -2.18875  -1.15171
 Alpha  occ. eigenvalues --   -1.15171  -1.15171  -1.14680  -1.14667  -1.14631
 Alpha  occ. eigenvalues --   -1.14589  -1.14587  -1.14568  -1.14063  -1.14040
 Alpha  occ. eigenvalues --   -1.14036  -1.13742  -1.13733  -1.13705  -1.13322
 Alpha  occ. eigenvalues --   -1.13322  -1.13286  -1.12548  -1.12530  -1.12523
 Alpha  occ. eigenvalues --   -0.15826  -0.13137  -0.12802  -0.11127
 Alpha virt. eigenvalues --   -0.08258  -0.05011  -0.04631  -0.03449  -0.02961
 Alpha virt. eigenvalues --   -0.02100  -0.02100  -0.02100  -0.02063  -0.01865
 Alpha virt. eigenvalues --   -0.01410  -0.00820  -0.00291  -0.00043   0.00117
 Alpha virt. eigenvalues --    0.00125   0.00367   0.00567   0.00729   0.00934
 Alpha virt. eigenvalues --    0.01153   0.01266   0.01331   0.01331   0.01331
 Alpha virt. eigenvalues --    0.01355   0.01423   0.01513   0.01588   0.01859
 Alpha virt. eigenvalues --    0.02104   0.02160   0.02287   0.02387   0.02498
 Alpha virt. eigenvalues --    0.02586   0.02643   0.02773   0.02920   0.02976
 Alpha virt. eigenvalues --    0.03045   0.03084   0.03496   0.03647   0.03899
 Alpha virt. eigenvalues --    0.04005   0.04485   0.04846   0.05000   0.05219
 Alpha virt. eigenvalues --    0.05528   0.05882   0.06259   0.06915   0.07235
 Alpha virt. eigenvalues --    0.07469   0.07469   0.07469   0.07642   0.07946
 Alpha virt. eigenvalues --    0.08015   0.08218   0.08359   0.08488   0.08907
 Alpha virt. eigenvalues --    0.09046   0.09574   0.09740   0.10181   0.10722
 Alpha virt. eigenvalues --    0.11215   0.11398   0.12060   0.12582   0.13376
 Alpha virt. eigenvalues --    0.13818   0.14372   0.14869   0.15721   0.16151
 Alpha virt. eigenvalues --    0.27265   0.28290   0.28864   0.29515   0.30256
 Alpha virt. eigenvalues --    0.30279   0.31234   0.31955   0.32340   0.33225
 Alpha virt. eigenvalues --    0.33225   0.33225   0.33225   0.33225   0.33367
 Alpha virt. eigenvalues --    0.34697   0.34820   0.35610   0.35932   0.36837
 Alpha virt. eigenvalues --    0.37129   0.38080   0.40306   0.41428   0.41938
 Alpha virt. eigenvalues --    0.41938   0.41938   0.42379   0.42700   0.43164
 Alpha virt. eigenvalues --    0.43547   0.43713   0.43898   0.44104   0.44232
 Alpha virt. eigenvalues --    0.44379   0.45000   0.45010   0.45163   0.45952
 Alpha virt. eigenvalues --    0.46455   0.47032   0.48538   0.48992   0.49861
 Alpha virt. eigenvalues --    0.50384   0.50866   0.51600   0.51844   0.52938
 Alpha virt. eigenvalues --    0.53771   0.57357   0.61169   0.62399   0.64513
 Alpha virt. eigenvalues --    0.69104   1.98665   2.02601   2.06281   2.08803
 Alpha virt. eigenvalues --    2.12892   2.16446   2.19941   4.42315   4.42808
 Alpha virt. eigenvalues --    4.42808   4.42808   4.42905   4.43276   4.43470
 Alpha virt. eigenvalues --    4.44042   4.44081   4.44255   4.44932   4.45061
 Alpha virt. eigenvalues --    4.45259   4.46456   4.47159   4.48384   4.52046
 Alpha virt. eigenvalues --    4.53047   4.54054   4.57779   4.60348  96.17682
 Alpha virt. eigenvalues --   96.21953  96.26332  96.29287  96.34617  96.38863
 Alpha virt. eigenvalues --   96.43255
  Beta  occ. eigenvalues --  -38.45588 -38.45259 -38.45178 -38.44573 -38.44268
  Beta  occ. eigenvalues --  -38.43838 -38.43046  -2.21213  -2.21000  -2.20924
  Beta  occ. eigenvalues --   -2.20382  -2.20073  -2.19644  -2.18875  -1.14937
  Beta  occ. eigenvalues --   -1.14937  -1.14937  -1.14680  -1.14667  -1.14631
  Beta  occ. eigenvalues --   -1.14589  -1.14587  -1.14568  -1.14063  -1.14040
  Beta  occ. eigenvalues --   -1.14036  -1.13742  -1.13733  -1.13705  -1.13322
  Beta  occ. eigenvalues --   -1.13322  -1.13286  -1.12548  -1.12530  -1.12523
  Beta  occ. eigenvalues --   -0.15826  -0.13137  -0.11127
  Beta virt. eigenvalues --   -0.08258  -0.06222  -0.05011  -0.04631  -0.03449
  Beta virt. eigenvalues --   -0.02961  -0.02063  -0.01865  -0.01410  -0.00820
  Beta virt. eigenvalues --   -0.00291  -0.00087  -0.00087  -0.00087  -0.00043
  Beta virt. eigenvalues --    0.00125   0.00367   0.00567   0.00729   0.00845
  Beta virt. eigenvalues --    0.00934   0.01153   0.01266   0.01355   0.01423
  Beta virt. eigenvalues --    0.01513   0.01588   0.01859   0.02104   0.02160
  Beta virt. eigenvalues --    0.02246   0.02246   0.02246   0.02287   0.02387
  Beta virt. eigenvalues --    0.02498   0.02586   0.02643   0.02773   0.02920
  Beta virt. eigenvalues --    0.02976   0.03045   0.03084   0.03496   0.03647
  Beta virt. eigenvalues --    0.03899   0.04005   0.04485   0.04846   0.05000
  Beta virt. eigenvalues --    0.05219   0.05528   0.05882   0.06259   0.06915
  Beta virt. eigenvalues --    0.07235   0.07642   0.07946   0.08218   0.08359
  Beta virt. eigenvalues --    0.08488   0.08824   0.08824   0.08824   0.08907
  Beta virt. eigenvalues --    0.09046   0.09455   0.09574   0.09740   0.10181
  Beta virt. eigenvalues --    0.10722   0.11215   0.11398   0.12060   0.12582
  Beta virt. eigenvalues --    0.13376   0.13818   0.14372   0.14869   0.15721
  Beta virt. eigenvalues --    0.16151   0.27265   0.28290   0.28864   0.29515
  Beta virt. eigenvalues --    0.30256   0.30279   0.31234   0.31955   0.32340
  Beta virt. eigenvalues --    0.33367   0.34697   0.34820   0.35322   0.35322
  Beta virt. eigenvalues --    0.35322   0.35322   0.35322   0.35610   0.35932
  Beta virt. eigenvalues --    0.36837   0.37129   0.38080   0.40306   0.41428
  Beta virt. eigenvalues --    0.42379   0.42700   0.43164   0.43432   0.43432
  Beta virt. eigenvalues --    0.43432   0.43547   0.43713   0.43898   0.44104
  Beta virt. eigenvalues --    0.44232   0.44379   0.45000   0.45010   0.45163
  Beta virt. eigenvalues --    0.45952   0.46455   0.47032   0.48538   0.48992
  Beta virt. eigenvalues --    0.49861   0.50384   0.50866   0.51600   0.51844
  Beta virt. eigenvalues --    0.52938   0.53771   0.57357   0.61169   0.62399
  Beta virt. eigenvalues --    0.64513   0.69104   1.99534   2.02601   2.06281
  Beta virt. eigenvalues --    2.08803   2.12892   2.16446   2.19941   4.42315
  Beta virt. eigenvalues --    4.42905   4.43131   4.43131   4.43131   4.43276
  Beta virt. eigenvalues --    4.43470   4.44042   4.44081   4.44255   4.44932
  Beta virt. eigenvalues --    4.45061   4.45259   4.46456   4.47159   4.48384
  Beta virt. eigenvalues --    4.52046   4.53047   4.54054   4.57779   4.60348
  Beta virt. eigenvalues --   96.17951  96.21953  96.26332  96.29287  96.34617
  Beta virt. eigenvalues --   96.38863  96.43255
          Condensed to atoms (all electrons):
               1          2          3          4          5          6
     1  Na  11.110709   0.079817   0.146557  -0.120833  -0.340002  -0.021656
     2  Na   0.079817  10.589992   0.108326   0.028771   0.183368  -0.022891
     3  Na   0.146557   0.108326  10.823877   0.196715  -0.443570  -0.000318
     4  Na  -0.120833   0.028771   0.196715  10.615391   0.187725  -0.039318
     5  Na  -0.340002   0.183368  -0.443570   0.187725  12.167637   0.132218
     6  Na  -0.021656  -0.022891  -0.000318  -0.039318   0.132218  10.542573
     7  Na   0.000000   0.000000   0.000000   0.000000   0.000000   0.000000
               7
     1  Na   0.000000
     2  Na   0.000000
     3  Na   0.000000
     4  Na   0.000000
     5  Na   0.000000
     6  Na   0.000000
     7  Na  11.000000
          Atomic-Atomic Spin Densities.
               1          2          3          4          5          6
     1  Na   0.000000  -0.000000   0.000000   0.000000  -0.000000   0.000000
     2  Na  -0.000000  -0.000000  -0.000000   0.000000   0.000000  -0.000000
     3  Na   0.000000  -0.000000   0.000000  -0.000000  -0.000000   0.000000
     4  Na   0.000000   0.000000  -0.000000  -0.000000  -0.000000  -0.000000
     5  Na  -0.000000   0.000000  -0.000000  -0.000000   0.000000  -0.000000
     6  Na   0.000000  -0.000000   0.000000  -0.000000  -0.000000  -0.000000
     7  Na   0.000000   0.000000   0.000000   0.000000   0.000000   0.000000
               7
     1  Na   0.000000
     2  Na   0.000000
     3  Na   0.000000
     4  Na   0.000000
     5  Na   0.000000
     6  Na   0.000000
     7  Na   1.000000
 Mulliken charges and spin densities:
               1          2
     1  Na   0.145407   0.000000
     2  Na   0.032617  -0.000000
     3  Na   0.168413   0.000000
     4  Na   0.131549  -0.000000
     5  Na  -0.887378   0.000000
     6  Na   0.409392  -0.000000
     7  Na  -0.000000   1.000000
 Sum of Mulliken charges =  -0.00000   1.00000
 Mulliken charges and spin densities with hydrogens summed into heavy atoms:
               1          2
     1  Na   0.145407   0.000000
     2  Na   0.032617  -0.000000
     3  Na   0.168413   0.000000
     4  Na   0.131549  -0.000000
     5  Na  -0.887378   0.000000
     6  Na   0.409392  -0.000000
     7  Na  -0.000000   1.000000
 Electronic spatial extent (au):  <R**2>=         289119.3343
 Charge=             -0.0000 electrons
 Dipole moment (field-independent basis, Debye):
    X=             -0.0157    Y=             -0.1819    Z=              0.6172  Tot=              0.6436
 Quadrupole moment (field-independent basis, Debye-Ang):
   XX=            -57.9516   YY=            -76.6343   ZZ=            -68.5243
   XY=             -7.6210   XZ=              9.7641   YZ=              2.4259
 Traceless Quadrupole moment (field-independent basis, Debye-Ang):
   XX=              9.7518   YY=             -8.9309   ZZ=             -0.8209
   XY=             -7.6210   XZ=              9.7641   YZ=              2.4259
 Octapole moment (field-independent basis, Debye-Ang**2):
  XXX=            906.6342  YYY=             -4.8149  ZZZ=              3.7333  XYY=             45.3297
  XXY=           -155.6840  XXZ=            201.3110  XZZ=            154.9475  YZZ=              6.5641
  YYZ=             -3.0482  XYZ=             17.5874
 Hexadecapole moment (field-independent basis, Debye-Ang**3):
 XXXX=        -476780.5856 YYYY=          -1374.6309 ZZZZ=           -528.0127 XXXY=          -2765.0963
 XXXZ=           4476.1584 YYYX=            -89.5448 YYYZ=             20.7415 ZZZX=             62.6445
 ZZZY=             12.1151 XXYY=         -83387.8584 XXZZ=         -81675.3511 YYZZ=           -293.8914
 XXYZ=             21.2738 YYXZ=            -48.4844 ZZXY=             61.0721
 N-N= 2.111534031906D+02 E-N=-3.151135346019D+03  KE= 1.132843759915D+03
                          Isotropic Fermi Contact Couplings
        Atom                 a.u.       MegaHertz       Gauss      10(-4) cm-1
     1  Na(23)            -0.00000      -0.00000      -0.00000      -0.00000
     2  Na(23)            -0.00000      -0.00000      -0.00000      -0.00000
     3  Na(23)             0.00000       0.00000       0.00000       0.00000
     4  Na(23)             0.00000       0.00000       0.00000       0.00000
     5  Na(23)            -0.00000      -0.00000      -0.00000      -0.00000
     6  Na(23)            -0.00000      -0.00000      -0.00000      -0.00000
     7  Na(23)             0.79296     938.09920     334.73712     312.91621
 --------------------------------------------------------
       Center         ----  Spin Dipole Couplings  ----
                      3XX-RR        3YY-RR        3ZZ-RR
 --------------------------------------------------------
     1   Atom        0.000000     -0.000000     -0.000000
     2   Atom        0.000000     -0.000000     -0.000000
     3   Atom        0.000000     -0.000000     -0.000000
     4   Atom        0.000000     -0.000000     -0.000000
     5   Atom        0.000000     -0.000000     -0.000000
     6   Atom        0.000000     -0.000000     -0.000000
     7   Atom       -0.000000      0.000000      0.000000
 --------------------------------------------------------
                        XY            XZ            YZ
 --------------------------------------------------------
     1   Atom       -0.000000     -0.000000      0.000000
     2   Atom       -0.000000      0.000000     -0.000000
     3   Atom        0.000000      0.000000      0.000000
     4   Atom        0.000000     -0.000000     -0.000000
     5   Atom       -0.000000     -0.000000      0.000000
     6   Atom       -0.000000      0.000000     -0.000000
     7   Atom       -0.000000     -0.000000     -0.000000
 --------------------------------------------------------


 ---------------------------------------------------------------------------------
              Anisotropic Spin Dipole Couplings in Principal Axis System
 ---------------------------------------------------------------------------------

       Atom             a.u.   MegaHertz   Gauss  10(-4) cm-1        Axes

              Baa    -0.0000    -0.000    -0.000    -0.000  0.0169  0.8118 -0.5837
     1 Na(23) Bbb    -0.0000    -0.000    -0.000    -0.000  0.0219  0.5833  0.8119
              Bcc     0.0000     0.000     0.000     0.000  0.9996 -0.0265 -0.0079
 
              Baa    -0.0000    -0.000    -0.000    -0.000  0.0006  0.6030  0.7977
     2 Na(23) Bbb    -0.0000    -0.000    -0.000    -0.000  0.0064  0.7977 -0.6030
              Bcc     0.0000     0.000     0.000     0.000  1.0000 -0.0055  0.0033
 
              Baa    -0.0000    -0.000    -0.000    -0.000 -0.0056 -0.2233  0.9747
     3 Na(23) Bbb    -0.0000    -0.000    -0.000    -0.000 -0.0237  0.9745  0.2231
              Bcc     0.0000     0.000     0.000     0.000  0.9997  0.0219  0.0107
 
              Baa    -0.0000    -0.000    -0.000    -0.000 -0.0276  0.9121 -0.4090
     4 Na(23) Bbb    -0.0000    -0.000    -0.000    -0.000  0.0020  0.4092  0.9124
              Bcc     0.0000     0.000     0.000     0.000  0.9996  0.0244 -0.0131
 
              Baa    -0.0000    -0.000    -0.000    -0.000  0.0063  0.0353  0.9994
     5 Na(23) Bbb    -0.0000    -0.000    -0.000    -0.000  0.0032  0.9994 -0.0353
              Bcc     0.0000     0.000     0.000     0.000  1.0000 -0.0034 -0.0062
 
              Baa    -0.0000    -0.000    -0.000    -0.000  0.0066  0.9869  0.1610
     6 Na(23) Bbb    -0.0000    -0.000    -0.000    -0.000 -0.0127 -0.1609  0.9869
              Bcc     0.0000     0.000     0.000     0.000  0.9999 -0.0086  0.0115
 
              Baa    -0.0000    -0.000    -0.000    -0.000  0.9012  0.0513  0.4303
     7 Na(23) Bbb     0.0000     0.000     0.000     0.000 -0.0586  0.9983  0.0037
              Bcc     0.0000     0.000     0.000     0.000 -0.4293 -0.0286  0.9027
 

 ---------------------------------------------------------------------------------

 No NMR shielding tensors so no spin-rotation constants.
 Leave Link  601 at Thu Nov 23 12:40:44 2023, MaxMem=   104857600 cpu:              18.0 elap:              16.9
 (Enter /home/sekinelabo/g16/l701.exe)
 ... and contract with generalized density number  0.
 Compute integral first derivatives.
 Leave Link  701 at Thu Nov 23 12:40:51 2023, MaxMem=   104857600 cpu:               7.7 elap:               7.6
 (Enter /home/sekinelabo/g16/l702.exe)
 L702 exits ... SP integral derivatives will be done elsewhere.
 Leave Link  702 at Thu Nov 23 12:40:52 2023, MaxMem=   104857600 cpu:               0.6 elap:               0.6
 (Enter /home/sekinelabo/g16/l703.exe)
 Integral derivatives from FoFJK, PRISM(SPDF).
 Compute integral first derivatives, UseDBF=F ICtDFT=           0.
 Calling FoFJK, ICntrl=      2127 FMM=F ISym2X=0 I1Cent= 0 IOpClX= 1 NMat=1 NMatS=1 NMatT=0.
 FoFJK:  IHMeth= 1 ICntrl=    2127 DoSepK=F KAlg= 0 I1Cent=           0 FoldK=F
 IRaf=         0 NMat=       1 IRICut=       1 DoRegI=T DoRafI=F ISym2E= 0 IDoP0=0 IntGTp=1.
 FoFCou: FMM=F IPFlag=           0 FMFlag=      100000 FMFlg1=         800
         NFxFlg=           0 DoJE=F BraDBF=F KetDBF=F FulRan=T
         wScrn=  0.000000 ICntrl=      2127 IOpCl=  1 I1Cent=           0 NGrid=           0
         NMat0=    1 NMatS0=      1 NMatT0=    0 NMatD0=    1 NMtDS0=    0 NMtDT0=    0
 Symmetry not used in FoFCou.
 Leave Link  703 at Thu Nov 23 12:41:16 2023, MaxMem=   104857600 cpu:              30.5 elap:              24.0
 (Enter /home/sekinelabo/g16/l716.exe)
 Dipole        =-6.19602433D-03-7.15483322D-02 2.42825274D-01
 ***** Axes restored to original set *****
 -------------------------------------------------------------------
 Center     Atomic                   Forces (Hartrees/Bohr)
 Number     Number              X              Y              Z
 -------------------------------------------------------------------
      1       11           0.002763549    0.001624724   -0.002338840
      2       11          -0.000477476   -0.004522570    0.001880889
      3       11          -0.003748396    0.000555290    0.001381370
      4       11           0.001095392    0.003802375   -0.000353558
      5       11          -0.002018045   -0.001217226   -0.002186850
      6       11           0.002384977   -0.000242592    0.001616988
      7       11          -0.000000000    0.000000000   -0.000000000
 -------------------------------------------------------------------
 Cartesian Forces:  Max     0.004522570 RMS     0.002078398
 Z-matrix is all fixed cartesians, so copy forces.
 Force constants in Cartesian coordinates: 
                1             2             3             4             5 
      1  0.151104D-01
      2  0.621819D-02  0.976535D-02
      3 -0.441375D-02 -0.495128D-02  0.272072D-02
      4 -0.181380D-01 -0.270073D-02  0.319732D-02  0.364255D-01
      5 -0.840912D-02 -0.722316D-02  0.406565D-02 -0.286432D-02  0.196745D-01
      6  0.571124D-02  0.343448D-02 -0.221521D-02 -0.512577D-02 -0.899409D-02
      7  0.303132D-02 -0.350314D-02  0.124913D-02 -0.170208D-01  0.116682D-01
      8  0.219524D-02 -0.252538D-02  0.923996D-03  0.297537D-02 -0.133524D-01
      9 -0.129422D-02  0.152958D-02 -0.476359D-03  0.383371D-02  0.554012D-02
     10 -0.367086D-05 -0.143275D-04 -0.327052D-04 -0.124693D-02 -0.371628D-03
     11 -0.430614D-05 -0.168070D-04 -0.383651D-04  0.257052D-02  0.878608D-03
     12 -0.327222D-05 -0.127716D-04 -0.291536D-04 -0.187965D-02 -0.581628D-03
     13  0.000000D+00  0.000000D+00  0.000000D+00 -0.197069D-04 -0.231173D-04
     14  0.000000D+00  0.000000D+00  0.000000D+00  0.191523D-04  0.224668D-04
     15  0.000000D+00  0.000000D+00  0.000000D+00 -0.256171D-04 -0.300504D-04
     16  0.000000D+00  0.000000D+00  0.000000D+00  0.000000D+00  0.000000D+00
     17  0.000000D+00  0.000000D+00  0.000000D+00  0.000000D+00  0.000000D+00
     18  0.000000D+00  0.000000D+00  0.000000D+00  0.000000D+00  0.000000D+00
     19  0.000000D+00  0.000000D+00  0.000000D+00  0.000000D+00  0.000000D+00
     20  0.000000D+00  0.000000D+00  0.000000D+00  0.000000D+00  0.000000D+00
     21  0.000000D+00  0.000000D+00  0.000000D+00  0.000000D+00  0.000000D+00
                6             7             8             9            10 
      6  0.832339D-02
      7 -0.266096D-02  0.289803D-01
      8  0.952691D-02 -0.741688D-02  0.256968D-01
      9 -0.917754D-02 -0.108281D-01 -0.990342D-02  0.267957D-01
     10  0.209305D-02 -0.133055D-01  0.573174D-02  0.950363D-02  0.263862D-01
     11 -0.398437D-02 -0.159725D-02 -0.115941D-01  0.222524D-02  0.366497D-02
     12  0.309219D-02  0.102158D-01 -0.463158D-02 -0.186205D-01 -0.802325D-02
     13 -0.175668D-04 -0.166076D-02 -0.350935D-02 -0.118308D-02 -0.119888D-01
     14  0.170725D-04  0.838103D-03  0.178579D-02  0.594225D-03 -0.524383D-02
     15 -0.228352D-04  0.198716D-02  0.412005D-02  0.143065D-02 -0.463743D-02
     16  0.000000D+00 -0.245680D-04  0.238767D-04 -0.319362D-04  0.158728D-03
     17  0.000000D+00  0.109764D-04 -0.106676D-04  0.142684D-04 -0.376692D-02
     18  0.000000D+00  0.369941D-04 -0.359531D-04  0.480889D-04  0.109671D-02
     19  0.000000D+00  0.000000D+00  0.000000D+00  0.000000D+00  0.000000D+00
     20  0.000000D+00  0.000000D+00  0.000000D+00  0.000000D+00  0.000000D+00
     21  0.000000D+00  0.000000D+00  0.000000D+00  0.000000D+00  0.000000D+00
               11            12            13            14            15 
     11  0.312493D-01
     12  0.828355D-02  0.231216D-01
     13 -0.449979D-02 -0.408425D-03  0.301062D-01
     14 -0.239145D-01  0.431393D-03  0.762776D-02  0.319900D-01
     15 -0.548187D-02 -0.866029D-02  0.124969D-01 -0.174988D-02  0.148935D-01
     16 -0.134140D-03  0.988190D-04 -0.164369D-01 -0.324118D-02 -0.982106D-02
     17  0.339748D-02 -0.348897D-02  0.404497D-03 -0.988378D-02  0.314175D-02
     18 -0.100419D-02  0.109614D-02 -0.108879D-01  0.707192D-03 -0.764099D-02
     19  0.000000D+00  0.000000D+00  0.000000D+00  0.000000D+00  0.000000D+00
     20  0.000000D+00  0.000000D+00  0.000000D+00  0.000000D+00  0.000000D+00
     21  0.000000D+00  0.000000D+00  0.000000D+00  0.000000D+00  0.000000D+00
               16            17            18            19            20 
     16  0.163027D-01
     17  0.335145D-02  0.649698D-02
     18  0.975417D-02  0.332947D-03  0.649676D-02
     19  0.000000D+00  0.000000D+00  0.000000D+00  0.100000D+01
     20  0.000000D+00  0.000000D+00  0.000000D+00  0.000000D+00  0.100000D+01
     21  0.000000D+00  0.000000D+00  0.000000D+00  0.000000D+00  0.000000D+00
               21 
     21  0.100000D+01
 Leave Link  716 at Thu Nov 23 12:41:17 2023, MaxMem=   104857600 cpu:               0.7 elap:               0.6
 (Enter /home/sekinelabo/g16/l103.exe)

 GradGradGradGradGradGradGradGradGradGradGradGradGradGradGradGradGradGrad
 Berny optimization.
 Search for a local minimum.
 Step number   1 out of a maximum of    2
 All quantities printed in internal units (Hartrees-Bohrs-Radians)
 Second derivative matrix not updated -- first step.
 ITU=  0
     Eigenvalues ---    0.00005   0.00016   0.00042   0.00687   0.00759
     Eigenvalues ---    0.00818   0.00940   0.02336   0.02894   0.04631
     Eigenvalues ---    0.04760   0.05778   0.06734   0.07160   0.85714
 Eigenvalue     1 is   4.85D-05 Eigenvector:
                          X1        Z1        Y6        X6        Y4
   1                    0.49448   0.43830   0.35661  -0.34989  -0.29964
                          Z5        X5        X2        Z2        X3
   1                   -0.20574  -0.18985   0.17778  -0.17430  -0.12926
 Quadratic step=1.636D+01 exceeds max=3.000D-01 adjusted using Lamda=-8.211D-03.
 Angle between NR and scaled steps=  43.89 degrees.
 Angle between quadratic step and forces=  42.00 degrees.
 Linear search not attempted -- first point.
 B after Tr=    -0.000000    0.000000    0.000000
         Rot=    1.000000   -0.000000   -0.000000    0.000000 Ang=   0.00 deg.
 Variable       Old X    -DE/DX   Delta X   Delta X   Delta X     New X
                                 (Linear)    (Quad)   (Total)
    X1       16.96725   0.00276   0.00000   0.03432   0.03432  17.00156
    Y1        0.39575   0.00162   0.00000  -0.03767  -0.03767   0.35808
    Z1        3.89450  -0.00234   0.00000  -0.14536  -0.14536   3.74914
    X2       21.88530  -0.00048   0.00000  -0.02189  -0.02189  21.86341
    Y2        3.90622  -0.00452   0.00000  -0.10358  -0.10358   3.80264
    Z2        1.80463   0.00188   0.00000   0.08971   0.08971   1.89434
    X3       17.92154  -0.00375   0.00000  -0.05578  -0.05578  17.86576
    Y3        8.46459   0.00056   0.00000   0.00434   0.00434   8.46893
    Z3        0.25260   0.00138   0.00000   0.04630   0.04630   0.29889
    X4       13.39368   0.00110   0.00000  -0.03931  -0.03931  13.35437
    Y4        9.23812   0.00380   0.00000   0.14948   0.14948   9.38759
    Z4        4.31413  -0.00035   0.00000  -0.04030  -0.04030   4.27383
    X5        9.80076  -0.00202   0.00000   0.00124   0.00124   9.80200
    Y5        4.30674  -0.00122   0.00000   0.04471   0.04471   4.35145
    Z5        3.39123  -0.00219   0.00000  -0.01476  -0.01476   3.37647
    X6        4.48916   0.00238   0.00000   0.08142   0.08142   4.57058
    Y6        3.15539  -0.00024   0.00000  -0.05727  -0.05727   3.09812
    Z6        0.20537   0.00162   0.00000   0.06441   0.06441   0.26978
    X7      188.24677  -0.00000   0.00000   0.00000   0.00000 188.24677
    Y7        4.83543   0.00000   0.00000   0.00000   0.00000   4.83543
    Z7        3.08401  -0.00000   0.00000  -0.00000  -0.00000   3.08401
         Item               Value     Threshold  Converged?
 Maximum Force            0.004523     0.000450     NO 
 RMS     Force            0.002078     0.000300     NO 
 Maximum Displacement     0.149476     0.001800     NO 
 RMS     Displacement     0.065482     0.001200     NO 
 Predicted change in Energy=-1.432433D-03
 GradGradGradGradGradGradGradGradGradGradGradGradGradGradGradGradGradGrad

 Leave Link  103 at Thu Nov 23 12:41:19 2023, MaxMem=   104857600 cpu:               2.9 elap:               2.1
 (Enter /home/sekinelabo/g16/l9999.exe)
 1\1\GINC-SEKINELABO-XA7R-R37\Force\UB3LYP\6-311+G(d)\Na7(2)\SEKINELABO
 \23-Nov-2023\0\\#P B3LYP/6-311+g(d) force\\DPGEN\\0,2\Na,8.97868,0.209
 422,2.06088\Na,11.5812,2.06708,0.95497\Na,9.48367,4.47927,0.133669\Na,
 7.08763,4.8886,2.28294\Na,5.18634,2.27903,1.79456\Na,2.37556,1.66976,0
 .108676\Na,99.6159,2.5588,1.63199\\Version=ES64L-G16RevB.01\State=2-A\
 HF=-1136.0898946\S2=0.750009\S2-1=0.\S2A=0.75\RMSD=2.819e-09\RMSF=2.07
 8e-03\Dipole=0.0073034,-0.0853545,-0.2382917\Quadrupole=7.1862724,-6.8
 275261,-0.3587463,6.0785618,6.958002,-1.4187098\PG=C01 [X(Na7)]\\@


 TERENCE, THIS IS STUPID STUFF:
 YOU EAT YOUR VICTUALS FAST ENOUGH;
 THERE CAN'T BE MUCH AMISS, 'TIS CLEAR
 TO SEE THE RATE YOU DRINK YOUR BEER.
 BUT OH, GOOD LORD, THE VERSE YOU MAKE,
 IT GIVES A CHAP THE BELLY-ACHE.
 THE COW, THE OLD COW, SHE IS DEAD;
 IT SLEEPS WELL, THE HORNED HEAD:
 WE POOR LADS, 'TIS OUR TURN NOW
 TO HEAR SUCH TUNES AS KILLED THE COW.
 PRETTY FRIENDSHIP 'TIS TO RHYME
 YOUR FRIENDS TO DEATH BEFORE THEIR TIME.
 MOPING, MELANCHOLY MAD:
 COME PIPE A TUNE TO DANCE TO, LAD.

     -- A. E. HOUSMAN
 Job cpu time:       0 days  0 hours  9 minutes 10.6 seconds.
 Elapsed time:       0 days  0 hours 10 minutes 58.2 seconds.
 File lengths (MBytes):  RWF=     46 Int=      0 D2E=      0 Chk=      4 Scr=      1
 Normal termination of Gaussian 16 at Thu Nov 23 12:41:20 2023.
