 Entering Gaussian System, Link 0=g16
 Initial command:
 /home/sekinelabo/g16/l1.exe "/home/sekinelabo/g16temp/Gau-4163243.inp" -scrdir="/home/sekinelabo/g16temp/"
 Entering Link 1 = /home/sekinelabo/g16/l1.exe PID=   4163245.
  
 Copyright (c) 1988-2017, Gaussian, Inc.  All Rights Reserved.
  
 This is part of the Gaussian(R) 16 program.  It is based on
 the Gaussian(R) 09 system (copyright 2009, Gaussian, Inc.),
 the Gaussian(R) 03 system (copyright 2003, Gaussian, Inc.),
 the Gaussian(R) 98 system (copyright 1998, Gaussian, Inc.),
 the Gaussian(R) 94 system (copyright 1995, Gaussian, Inc.),
 the Gaussian 92(TM) system (copyright 1992, Gaussian, Inc.),
 the Gaussian 90(TM) system (copyright 1990, Gaussian, Inc.),
 the Gaussian 88(TM) system (copyright 1988, Gaussian, Inc.),
 the Gaussian 86(TM) system (copyright 1986, Carnegie Mellon
 University), and the Gaussian 82(TM) system (copyright 1983,
 Carnegie Mellon University). Gaussian is a federally registered
 trademark of Gaussian, Inc.
  
 This software contains proprietary and confidential information,
 including trade secrets, belonging to Gaussian, Inc.
  
 This software is provided under written license and may be
 used, copied, transmitted, or stored only in accord with that
 written license.
  
 The following legend is applicable only to US Government
 contracts under FAR:
  
                    RESTRICTED RIGHTS LEGEND
  
 Use, reproduction and disclosure by the US Government is
 subject to restrictions as set forth in subparagraphs (a)
 and (c) of the Commercial Computer Software - Restricted
 Rights clause in FAR 52.227-19.
  
 Gaussian, Inc.
 340 Quinnipiac St., Bldg. 40, Wallingford CT 06492
  
  
 ---------------------------------------------------------------
 Warning -- This program may not be used in any manner that
 competes with the business of Gaussian, Inc. or will provide
 assistance to any competitor of Gaussian, Inc.  The licensee
 of this program is prohibited from giving any competitor of
 Gaussian, Inc. access to this program.  By using this program,
 the user acknowledges that Gaussian, Inc. is engaged in the
 business of creating and licensing software in the field of
 computational chemistry and represents and warrants to the
 licensee that it is not a competitor of Gaussian, Inc. and that
 it will not use this program in any manner prohibited above.
 ---------------------------------------------------------------
  

 Cite this work as:
 Gaussian 16, Revision B.01,
 M. J. Frisch, G. W. Trucks, H. B. Schlegel, G. E. Scuseria, 
 M. A. Robb, J. R. Cheeseman, G. Scalmani, V. Barone, 
 G. A. Petersson, H. Nakatsuji, X. Li, M. Caricato, A. V. Marenich, 
 J. Bloino, B. G. Janesko, R. Gomperts, B. Mennucci, H. P. Hratchian, 
 J. V. Ortiz, A. F. Izmaylov, J. L. Sonnenberg, D. Williams-Young, 
 F. Ding, F. Lipparini, F. Egidi, J. Goings, B. Peng, A. Petrone, 
 T. Henderson, D. Ranasinghe, V. G. Zakrzewski, J. Gao, N. Rega, 
 G. Zheng, W. Liang, M. Hada, M. Ehara, K. Toyota, R. Fukuda, 
 J. Hasegawa, M. Ishida, T. Nakajima, Y. Honda, O. Kitao, H. Nakai, 
 T. Vreven, K. Throssell, J. A. Montgomery, Jr., J. E. Peralta, 
 F. Ogliaro, M. J. Bearpark, J. J. Heyd, E. N. Brothers, K. N. Kudin, 
 V. N. Staroverov, T. A. Keith, R. Kobayashi, J. Normand, 
 K. Raghavachari, A. P. Rendell, J. C. Burant, S. S. Iyengar, 
 J. Tomasi, M. Cossi, J. M. Millam, M. Klene, C. Adamo, R. Cammi, 
 J. W. Ochterski, R. L. Martin, K. Morokuma, O. Farkas, 
 J. B. Foresman, and D. J. Fox, Gaussian, Inc., Wallingford CT, 2016.
 
 ******************************************
 Gaussian 16:  ES64L-G16RevB.01 20-Dec-2017
                13-Nov-2023 
 ******************************************
 %mem=14GB
 %chk=checkpoint.chk
 %nprocshared=16
 Will use up to   16 processors via shared memory.
 -------------------------
 #P B3LYP/6-311+g(d) force
 -------------------------
 1/10=7,30=1,38=1/1,3;
 2/12=2,17=6,18=5,40=1/2;
 3/5=4,6=6,7=11,11=2,25=1,30=1,71=1,74=-5/1,2,3;
 4//1;
 5/5=2,38=5/2;
 6/7=2,8=2,9=2,10=2,28=1/1;
 7/29=1/1,2,3,16;
 1/10=7,30=1/3;
 99//99;
 Leave Link    1 at Mon Nov 13 19:51:40 2023, MaxMem=  1879048192 cpu:               0.3 elap:               0.0
 (Enter /home/sekinelabo/g16/l101.exe)
 ------------------------------
 Gaussian input prepared by ASE
 ------------------------------
 Symbolic Z-matrix:
 Charge =  0 Multiplicity = 2
 Na                    2.7935    2.15939   2.74958 
 Na                    4.08737   4.46871   1.77031 
 Na                    0.        2.32658   1.8217 
 Na                    2.30077   2.56165   0. 
 Na                    5.13898   2.53069   0.00969 
 Na                    3.69868   0.        1.1385 
 Na                    5.60702   1.88853   2.73399 
 
 ITRead=  0  0  0  0  0  0  0
 MicOpt= -1 -1 -1 -1 -1 -1 -1
 NAtoms=      7 NQM=        7 NQMF=       0 NMMI=      0 NMMIF=      0
                NMic=       0 NMicF=      0.
                    Isotopes and Nuclear Properties:
 (Nuclear quadrupole moments (NQMom) in fm**2, nuclear magnetic moments (NMagM)
  in nuclear magnetons)

  Atom         1           2           3           4           5           6           7
 IAtWgt=          23          23          23          23          23          23          23
 AtmWgt=  22.9897697  22.9897697  22.9897697  22.9897697  22.9897697  22.9897697  22.9897697
 NucSpn=           3           3           3           3           3           3           3
 AtZEff=  -0.0000000  -0.0000000  -0.0000000  -0.0000000  -0.0000000  -0.0000000  -0.0000000
 NQMom=   10.4000000  10.4000000  10.4000000  10.4000000  10.4000000  10.4000000  10.4000000
 NMagM=    2.2175200   2.2175200   2.2175200   2.2175200   2.2175200   2.2175200   2.2175200
 AtZNuc=  11.0000000  11.0000000  11.0000000  11.0000000  11.0000000  11.0000000  11.0000000
 Leave Link  101 at Mon Nov 13 19:51:40 2023, MaxMem=  1879048192 cpu:               2.6 elap:               0.2
 (Enter /home/sekinelabo/g16/l103.exe)

 GradGradGradGradGradGradGradGradGradGradGradGradGradGradGradGradGradGrad
 Berny optimization.
 Initialization pass.
 Trust Radius=3.00D-01 FncErr=1.00D-07 GrdErr=1.00D-07 EigMax=2.50D+02 EigMin=1.00D-04
 Number of steps in this run=      2 maximum allowed number of steps=      2.
 GradGradGradGradGradGradGradGradGradGradGradGradGradGradGradGradGradGrad

 Leave Link  103 at Mon Nov 13 19:51:40 2023, MaxMem=  1879048192 cpu:               0.2 elap:               0.0
 (Enter /home/sekinelabo/g16/l202.exe)
                          Input orientation:                          
 ---------------------------------------------------------------------
 Center     Atomic      Atomic             Coordinates (Angstroms)
 Number     Number       Type             X           Y           Z
 ---------------------------------------------------------------------
      1         11           0        2.793500    2.159385    2.749580
      2         11           0        4.087366    4.468714    1.770313
      3         11           0        0.000000    2.326583    1.821700
      4         11           0        2.300768    2.561653    0.000000
      5         11           0        5.138977    2.530694    0.009694
      6         11           0        3.698679    0.000000    1.138503
      7         11           0        5.607018    1.888534    2.733987
 ---------------------------------------------------------------------
                    Distance matrix (angstroms):
                    1          2          3          4          5
     1  Na   0.000000
     2  Na   2.822420   0.000000
     3  Na   2.948315   4.614968   0.000000
     4  Na   2.822197   3.156394   2.944042   0.000000
     5  Na   3.625757   2.821629   5.452900   2.838395   0.000000
     6  Na   2.842158   4.529864   4.422666   3.132477   3.122992
     7  Na   2.826568   3.145686   5.697614   4.342703   2.837817
                    6          7
     6  Na   0.000000
     7  Na   3.123122   0.000000
 Stoichiometry    Na7(2)
 Framework group  C1[X(Na7)]
 Deg. of freedom    15
 Full point group                 C1      NOp   1
 Largest Abelian subgroup         C1      NOp   1
 Largest concise Abelian subgroup C1      NOp   1
                         Standard orientation:                         
 ---------------------------------------------------------------------
 Center     Atomic      Atomic             Coordinates (Angstroms)
 Number     Number       Type             X           Y           Z
 ---------------------------------------------------------------------
      1         11           0       -0.581687    0.117124   -1.289041
      2         11           0        0.712179   -2.192205   -0.309773
      3         11           0       -3.375187   -0.050074   -0.361160
      4         11           0       -1.074419   -0.285144    1.460540
      5         11           0        1.763790   -0.254184    1.450845
      6         11           0        0.323492    2.276509    0.322037
      7         11           0        2.231831    0.387975   -1.273448
 ---------------------------------------------------------------------
 Rotational constants (GHZ):           1.2110088           0.7466970           0.6893439
 Leave Link  202 at Mon Nov 13 19:51:40 2023, MaxMem=  1879048192 cpu:               0.1 elap:               0.0
 (Enter /home/sekinelabo/g16/l301.exe)
 Standard basis: 6-311+G(d) (5D, 7F)
 Ernie: Thresh=  0.10000D-02 Tol=  0.10000D-05 Strict=F.
 There are   217 symmetry adapted cartesian basis functions of A   symmetry.
 There are   210 symmetry adapted basis functions of A   symmetry.
   210 basis functions,   350 primitive gaussians,   217 cartesian basis functions
    39 alpha electrons       38 beta electrons
       nuclear repulsion energy       401.7969590646 Hartrees.
 IExCor=  402 DFT=T Ex+Corr=B3LYP ExCW=0 ScaHFX=  0.200000
 ScaDFX=  0.800000  0.720000  1.000000  0.810000 ScalE2=  1.000000  1.000000
 IRadAn=      5 IRanWt=     -1 IRanGd=            0 ICorTp=0 IEmpDi=  4
 NAtoms=    7 NActive=    7 NUniq=    7 SFac= 1.00D+00 NAtFMM=   60 NAOKFM=F Big=F
 Integral buffers will be    131072 words long.
 Raffenetti 2 integral format.
 Two-electron integral symmetry is turned on.
 Leave Link  301 at Mon Nov 13 19:51:40 2023, MaxMem=  1879048192 cpu:               0.5 elap:               0.0
 (Enter /home/sekinelabo/g16/l302.exe)
 NPDir=0 NMtPBC=     1 NCelOv=     1 NCel=       1 NClECP=     1 NCelD=      1
         NCelK=      1 NCelE2=     1 NClLst=     1 CellRange=     0.0.
 One-electron integrals computed using PRISM.
 One-electron integral symmetry used in STVInt
 NBasis=   210 RedAO= T EigKep=  1.41D-06  NBF=   210
 NBsUse=   210 1.00D-06 EigRej= -1.00D+00 NBFU=   210
 Precomputing XC quadrature grid using
 IXCGrd= 4 IRadAn=           5 IRanWt=          -1 IRanGd=           0 AccXCQ= 0.00D+00.
 Generated NRdTot=       0 NPtTot=           0 NUsed=           0 NTot=          32
 NSgBfM=   211   211   211   211   211 MxSgAt=     7 MxSgA2=     7.
 Leave Link  302 at Mon Nov 13 19:51:40 2023, MaxMem=  1879048192 cpu:               2.1 elap:               0.1
 (Enter /home/sekinelabo/g16/l303.exe)
 DipDrv:  MaxL=1.
 Leave Link  303 at Mon Nov 13 19:51:40 2023, MaxMem=  1879048192 cpu:               0.6 elap:               0.0
 (Enter /home/sekinelabo/g16/l401.exe)
 ExpMin= 7.60D-03 ExpMax= 3.62D+04 ExpMxC= 1.21D+03 IAcc=3 IRadAn=         5 AccDes= 0.00D+00
 Harris functional with IExCor=  402 and IRadAn=       5 diagonalized for initial guess.
 HarFok:  IExCor=  402 AccDes= 0.00D+00 IRadAn=         5 IDoV= 1 UseB2=F ITyADJ=14
 ICtDFT=  3500011 ScaDFX=  1.000000  1.000000  1.000000  1.000000
 FoFCou: FMM=F IPFlag=           0 FMFlag=      100000 FMFlg1=           0
         NFxFlg=           0 DoJE=T BraDBF=F KetDBF=T FulRan=T
         wScrn=  0.000000 ICntrl=       500 IOpCl=  0 I1Cent=   200000004 NGrid=           0
         NMat0=    1 NMatS0=      1 NMatT0=    0 NMatD0=    1 NMtDS0=    0 NMtDT0=    0
 Petite list used in FoFCou.
 Harris En= -1135.86104291142    
 JPrj=0 DoOrth=F DoCkMO=F.
 Initial guess <Sx>= 0.0000 <Sy>= 0.0000 <Sz>= 0.5000 <S**2>= 0.7500 S= 0.5000
 Leave Link  401 at Mon Nov 13 19:51:41 2023, MaxMem=  1879048192 cpu:               4.8 elap:               0.3
 (Enter /home/sekinelabo/g16/l502.exe)
 Keep R1 and R2 ints in memory in canonical form, NReq=507620388.
 FoFCou: FMM=F IPFlag=           0 FMFlag=           0 FMFlg1=           0
         NFxFlg=           0 DoJE=F BraDBF=F KetDBF=F FulRan=T
         wScrn=  0.000000 ICntrl=       600 IOpCl=  0 I1Cent=           0 NGrid=           0
         NMat0=    1 NMatS0=  22155 NMatT0=    0 NMatD0=    1 NMtDS0=    0 NMtDT0=    0
 Symmetry not used in FoFCou.
 Two-electron integral symmetry not used.
 UHF open shell SCF:
 Using DIIS extrapolation, IDIIS=  1040.
 NGot=  1879048192 LenX=  1388082348 LenY=  1388034818
 Requested convergence on RMS density matrix=1.00D-08 within 128 cycles.
 Requested convergence on MAX density matrix=1.00D-06.
 Requested convergence on             energy=1.00D-06.
 No special actions if energy rises.

 Cycle   1  Pass 1  IDiag  1:
 E= -1136.03761884454    
 DIIS: error= 1.58D-02 at cycle   1 NSaved=   1.
 NSaved= 1 IEnMin= 1 EnMin= -1136.03761884454     IErMin= 1 ErrMin= 1.58D-02
 ErrMax= 1.58D-02  0.00D+00 EMaxC= 1.00D-01 BMatC= 2.13D-01 BMatP= 2.13D-01
 IDIUse=3 WtCom= 8.42D-01 WtEn= 1.58D-01
 Coeff-Com:  0.100D+01
 Coeff-En:   0.100D+01
 Coeff:      0.100D+01
 Gap=     0.053 Goal=   None    Shift=    0.000
 Gap=     0.031 Goal=   None    Shift=    0.000
 GapD=    0.031 DampG=0.250 DampE=0.500 DampFc=0.2500 IDamp=-1.
 Damping current iteration by 2.50D-01
 RMSDP=1.43D-01 MaxDP=1.34D+01              OVMax= 2.77D-01

 Cycle   2  Pass 1  IDiag  1:
 E= -1136.05499983314     Delta-E=       -0.017380988600 Rises=F Damp=T
 DIIS: error= 7.37D-03 at cycle   2 NSaved=   2.
 NSaved= 2 IEnMin= 2 EnMin= -1136.05499983314     IErMin= 2 ErrMin= 7.37D-03
 ErrMax= 7.37D-03  0.00D+00 EMaxC= 1.00D-01 BMatC= 7.95D-02 BMatP= 2.13D-01
 IDIUse=3 WtCom= 9.26D-01 WtEn= 7.37D-02
 Coeff-Com: -0.124D+01 0.224D+01
 Coeff-En:   0.000D+00 0.100D+01
 Coeff:     -0.115D+01 0.215D+01
 Gap=     0.063 Goal=   None    Shift=    0.000
 Gap=     0.036 Goal=   None    Shift=    0.000
 RMSDP=5.00D-02 MaxDP=4.65D+00 DE=-1.74D-02 OVMax= 1.98D-01

 Cycle   3  Pass 1  IDiag  1:
 E= -1136.08320380151     Delta-E=       -0.028203968370 Rises=F Damp=F
 DIIS: error= 4.60D-03 at cycle   3 NSaved=   3.
 NSaved= 3 IEnMin= 3 EnMin= -1136.08320380151     IErMin= 3 ErrMin= 4.60D-03
 ErrMax= 4.60D-03  0.00D+00 EMaxC= 1.00D-01 BMatC= 5.63D-03 BMatP= 7.95D-02
 IDIUse=3 WtCom= 9.54D-01 WtEn= 4.60D-02
 Coeff-Com: -0.334D+00 0.597D+00 0.737D+00
 Coeff-En:   0.000D+00 0.000D+00 0.100D+01
 Coeff:     -0.319D+00 0.570D+00 0.749D+00
 Gap=     0.056 Goal=   None    Shift=    0.000
 Gap=     0.034 Goal=   None    Shift=    0.000
 RMSDP=2.87D-02 MaxDP=2.84D+00 DE=-2.82D-02 OVMax= 7.51D-02

 Cycle   4  Pass 1  IDiag  1:
 E= -1136.08473098664     Delta-E=       -0.001527185128 Rises=F Damp=F
 DIIS: error= 3.32D-03 at cycle   4 NSaved=   4.
 NSaved= 4 IEnMin= 4 EnMin= -1136.08473098664     IErMin= 4 ErrMin= 3.32D-03
 ErrMax= 3.32D-03  0.00D+00 EMaxC= 1.00D-01 BMatC= 3.05D-03 BMatP= 5.63D-03
 IDIUse=3 WtCom= 9.67D-01 WtEn= 3.32D-02
 Coeff-Com: -0.124D-01 0.175D-01 0.422D+00 0.572D+00
 Coeff-En:   0.000D+00 0.000D+00 0.363D+00 0.637D+00
 Coeff:     -0.120D-01 0.169D-01 0.420D+00 0.575D+00
 Gap=     0.060 Goal=   None    Shift=    0.000
 Gap=     0.035 Goal=   None    Shift=    0.000
 RMSDP=8.58D-03 MaxDP=8.69D-01 DE=-1.53D-03 OVMax= 3.95D-02

 Cycle   5  Pass 1  IDiag  1:
 E= -1136.08639219326     Delta-E=       -0.001661206621 Rises=F Damp=F
 DIIS: error= 5.82D-04 at cycle   5 NSaved=   5.
 NSaved= 5 IEnMin= 5 EnMin= -1136.08639219326     IErMin= 5 ErrMin= 5.82D-04
 ErrMax= 5.82D-04  0.00D+00 EMaxC= 1.00D-01 BMatC= 7.81D-05 BMatP= 3.05D-03
 IDIUse=3 WtCom= 9.94D-01 WtEn= 5.82D-03
 Coeff-Com: -0.636D-02 0.800D-02 0.251D+00 0.347D+00 0.400D+00
 Coeff-En:   0.000D+00 0.000D+00 0.000D+00 0.000D+00 0.100D+01
 Coeff:     -0.632D-02 0.796D-02 0.250D+00 0.345D+00 0.404D+00
 Gap=     0.059 Goal=   None    Shift=    0.000
 Gap=     0.035 Goal=   None    Shift=    0.000
 RMSDP=9.71D-04 MaxDP=6.35D-02 DE=-1.66D-03 OVMax= 1.08D-02

 Cycle   6  Pass 1  IDiag  1:
 E= -1136.08647209175     Delta-E=       -0.000079898489 Rises=F Damp=F
 DIIS: error= 1.61D-04 at cycle   6 NSaved=   6.
 NSaved= 6 IEnMin= 6 EnMin= -1136.08647209175     IErMin= 6 ErrMin= 1.61D-04
 ErrMax= 1.61D-04  0.00D+00 EMaxC= 1.00D-01 BMatC= 5.92D-06 BMatP= 7.81D-05
 IDIUse=3 WtCom= 9.98D-01 WtEn= 1.61D-03
 Coeff-Com: -0.333D-03-0.761D-05-0.421D-01-0.607D-01 0.181D+00 0.922D+00
 Coeff-En:   0.000D+00 0.000D+00 0.000D+00 0.000D+00 0.500D-01 0.950D+00
 Coeff:     -0.333D-03-0.760D-05-0.420D-01-0.606D-01 0.181D+00 0.922D+00
 Gap=     0.059 Goal=   None    Shift=    0.000
 Gap=     0.036 Goal=   None    Shift=    0.000
 RMSDP=7.12D-04 MaxDP=7.26D-02 DE=-7.99D-05 OVMax= 3.23D-03

 Cycle   7  Pass 1  IDiag  1:
 E= -1136.08648060366     Delta-E=       -0.000008511913 Rises=F Damp=F
 DIIS: error= 2.11D-05 at cycle   7 NSaved=   7.
 NSaved= 7 IEnMin= 7 EnMin= -1136.08648060366     IErMin= 7 ErrMin= 2.11D-05
 ErrMax= 2.11D-05  0.00D+00 EMaxC= 1.00D-01 BMatC= 2.00D-07 BMatP= 5.92D-06
 IDIUse=1 WtCom= 1.00D+00 WtEn= 0.00D+00
 Coeff-Com:  0.560D-03-0.786D-03-0.170D-01-0.217D-01-0.195D-01 0.395D-01
 Coeff-Com:  0.102D+01
 Coeff:      0.560D-03-0.786D-03-0.170D-01-0.217D-01-0.195D-01 0.395D-01
 Coeff:      0.102D+01
 Gap=     0.059 Goal=   None    Shift=    0.000
 Gap=     0.036 Goal=   None    Shift=    0.000
 RMSDP=1.47D-04 MaxDP=1.31D-02 DE=-8.51D-06 OVMax= 1.52D-03

 Cycle   8  Pass 1  IDiag  1:
 E= -1136.08648117158     Delta-E=       -0.000000567924 Rises=F Damp=F
 DIIS: error= 2.23D-05 at cycle   8 NSaved=   8.
 NSaved= 8 IEnMin= 8 EnMin= -1136.08648117158     IErMin= 7 ErrMin= 2.11D-05
 ErrMax= 2.23D-05  0.00D+00 EMaxC= 1.00D-01 BMatC= 1.49D-07 BMatP= 2.00D-07
 IDIUse=1 WtCom= 1.00D+00 WtEn= 0.00D+00
 Coeff-Com:  0.520D-03-0.654D-03-0.357D-02-0.300D-02-0.426D-01-0.124D+00
 Coeff-Com:  0.587D+00 0.587D+00
 Coeff:      0.520D-03-0.654D-03-0.357D-02-0.300D-02-0.426D-01-0.124D+00
 Coeff:      0.587D+00 0.587D+00
 Gap=     0.059 Goal=   None    Shift=    0.000
 Gap=     0.036 Goal=   None    Shift=    0.000
 RMSDP=6.78D-05 MaxDP=4.40D-03 DE=-5.68D-07 OVMax= 9.63D-04

 Cycle   9  Pass 1  IDiag  1:
 E= -1136.08648142948     Delta-E=       -0.000000257900 Rises=F Damp=F
 DIIS: error= 9.80D-06 at cycle   9 NSaved=   9.
 NSaved= 9 IEnMin= 9 EnMin= -1136.08648142948     IErMin= 9 ErrMin= 9.80D-06
 ErrMax= 9.80D-06  0.00D+00 EMaxC= 1.00D-01 BMatC= 2.28D-08 BMatP= 1.49D-07
 IDIUse=1 WtCom= 1.00D+00 WtEn= 0.00D+00
 Coeff-Com:  0.172D-03-0.205D-03 0.208D-02 0.327D-02-0.142D-01-0.617D-01
 Coeff-Com:  0.215D-01 0.234D+00 0.815D+00
 Coeff:      0.172D-03-0.205D-03 0.208D-02 0.327D-02-0.142D-01-0.617D-01
 Coeff:      0.215D-01 0.234D+00 0.815D+00
 Gap=     0.059 Goal=   None    Shift=    0.000
 Gap=     0.036 Goal=   None    Shift=    0.000
 RMSDP=5.60D-05 MaxDP=3.46D-03 DE=-2.58D-07 OVMax= 9.52D-04

 Cycle  10  Pass 1  IDiag  1:
 E= -1136.08648154213     Delta-E=       -0.000000112650 Rises=F Damp=F
 DIIS: error= 7.30D-06 at cycle  10 NSaved=  10.
 NSaved=10 IEnMin=10 EnMin= -1136.08648154213     IErMin=10 ErrMin= 7.30D-06
 ErrMax= 7.30D-06  0.00D+00 EMaxC= 1.00D-01 BMatC= 8.83D-09 BMatP= 2.28D-08
 IDIUse=1 WtCom= 1.00D+00 WtEn= 0.00D+00
 Coeff-Com: -0.834D-04 0.117D-03 0.177D-02 0.192D-02 0.500D-02 0.187D-02
 Coeff-Com: -0.119D+00-0.778D-01 0.243D+00 0.944D+00
 Coeff:     -0.834D-04 0.117D-03 0.177D-02 0.192D-02 0.500D-02 0.187D-02
 Coeff:     -0.119D+00-0.778D-01 0.243D+00 0.944D+00
 Gap=     0.059 Goal=   None    Shift=    0.000
 Gap=     0.036 Goal=   None    Shift=    0.000
 RMSDP=5.39D-05 MaxDP=3.70D-03 DE=-1.13D-07 OVMax= 9.71D-04

 Cycle  11  Pass 1  IDiag  1:
 E= -1136.08648161552     Delta-E=       -0.000000073392 Rises=F Damp=F
 DIIS: error= 5.89D-06 at cycle  11 NSaved=  11.
 NSaved=11 IEnMin=11 EnMin= -1136.08648161552     IErMin=11 ErrMin= 5.89D-06
 ErrMax= 5.89D-06  0.00D+00 EMaxC= 1.00D-01 BMatC= 4.14D-09 BMatP= 8.83D-09
 IDIUse=1 WtCom= 1.00D+00 WtEn= 0.00D+00
 Coeff-Com: -0.106D-03 0.134D-03-0.411D-03-0.856D-03 0.605D-02 0.232D-01
 Coeff-Com: -0.270D-01-0.119D+00-0.315D+00 0.188D+00 0.125D+01
 Coeff:     -0.106D-03 0.134D-03-0.411D-03-0.856D-03 0.605D-02 0.232D-01
 Coeff:     -0.270D-01-0.119D+00-0.315D+00 0.188D+00 0.125D+01
 Gap=     0.059 Goal=   None    Shift=    0.000
 Gap=     0.036 Goal=   None    Shift=    0.000
 RMSDP=5.77D-05 MaxDP=3.19D-03 DE=-7.34D-08 OVMax= 1.21D-03

 Cycle  12  Pass 1  IDiag  1:
 E= -1136.08648167592     Delta-E=       -0.000000060398 Rises=F Damp=F
 DIIS: error= 4.06D-06 at cycle  12 NSaved=  12.
 NSaved=12 IEnMin=12 EnMin= -1136.08648167592     IErMin=12 ErrMin= 4.06D-06
 ErrMax= 4.06D-06  0.00D+00 EMaxC= 1.00D-01 BMatC= 2.92D-09 BMatP= 4.14D-09
 IDIUse=1 WtCom= 1.00D+00 WtEn= 0.00D+00
 Coeff-Com: -0.277D-04 0.289D-04-0.793D-03-0.107D-02 0.172D-02 0.139D-01
 Coeff-Com:  0.267D-01-0.504D-01-0.299D+00-0.237D+00 0.809D+00 0.737D+00
 Coeff:     -0.277D-04 0.289D-04-0.793D-03-0.107D-02 0.172D-02 0.139D-01
 Coeff:      0.267D-01-0.504D-01-0.299D+00-0.237D+00 0.809D+00 0.737D+00
 Gap=     0.059 Goal=   None    Shift=    0.000
 Gap=     0.036 Goal=   None    Shift=    0.000
 RMSDP=3.78D-05 MaxDP=2.49D-03 DE=-6.04D-08 OVMax= 7.94D-04

 Cycle  13  Pass 1  IDiag  1:
 E= -1136.08648170368     Delta-E=       -0.000000027753 Rises=F Damp=F
 DIIS: error= 2.87D-06 at cycle  13 NSaved=  13.
 NSaved=13 IEnMin=13 EnMin= -1136.08648170368     IErMin=13 ErrMin= 2.87D-06
 ErrMax= 2.87D-06  0.00D+00 EMaxC= 1.00D-01 BMatC= 1.23D-09 BMatP= 2.92D-09
 IDIUse=1 WtCom= 1.00D+00 WtEn= 0.00D+00
 Coeff-Com:  0.111D-03-0.144D-03-0.180D-03 0.840D-04-0.581D-02-0.160D-01
 Coeff-Com:  0.573D-01 0.845D-01 0.111D+00-0.292D+00-0.748D+00 0.383D+00
 Coeff-Com:  0.143D+01
 Coeff:      0.111D-03-0.144D-03-0.180D-03 0.840D-04-0.581D-02-0.160D-01
 Coeff:      0.573D-01 0.845D-01 0.111D+00-0.292D+00-0.748D+00 0.383D+00
 Coeff:      0.143D+01
 Gap=     0.059 Goal=   None    Shift=    0.000
 Gap=     0.036 Goal=   None    Shift=    0.000
 RMSDP=4.78D-05 MaxDP=3.63D-03 DE=-2.78D-08 OVMax= 1.18D-03

 Cycle  14  Pass 1  IDiag  1:
 E= -1136.08648172733     Delta-E=       -0.000000023651 Rises=F Damp=F
 DIIS: error= 1.11D-06 at cycle  14 NSaved=  14.
 NSaved=14 IEnMin=14 EnMin= -1136.08648172733     IErMin=14 ErrMin= 1.11D-06
 ErrMax= 1.11D-06  0.00D+00 EMaxC= 1.00D-01 BMatC= 2.12D-10 BMatP= 1.23D-09
 IDIUse=1 WtCom= 1.00D+00 WtEn= 0.00D+00
 Coeff-Com: -0.157D-04 0.234D-04 0.155D-03 0.187D-03 0.345D-03-0.140D-02
 Coeff-Com: -0.174D-01 0.452D-02 0.830D-01 0.113D+00-0.130D+00-0.294D+00
 Coeff-Com: -0.249D+00 0.149D+01
 Coeff:     -0.157D-04 0.234D-04 0.155D-03 0.187D-03 0.345D-03-0.140D-02
 Coeff:     -0.174D-01 0.452D-02 0.830D-01 0.113D+00-0.130D+00-0.294D+00
 Coeff:     -0.249D+00 0.149D+01
 Gap=     0.059 Goal=   None    Shift=    0.000
 Gap=     0.036 Goal=   None    Shift=    0.000
 RMSDP=1.84D-05 MaxDP=1.69D-03 DE=-2.37D-08 OVMax= 5.42D-04

 Cycle  15  Pass 1  IDiag  1:
 E= -1136.08648173175     Delta-E=       -0.000000004422 Rises=F Damp=F
 DIIS: error= 4.38D-07 at cycle  15 NSaved=  15.
 NSaved=15 IEnMin=15 EnMin= -1136.08648173175     IErMin=15 ErrMin= 4.38D-07
 ErrMax= 4.38D-07  0.00D+00 EMaxC= 1.00D-01 BMatC= 3.93D-11 BMatP= 2.12D-10
 IDIUse=1 WtCom= 1.00D+00 WtEn= 0.00D+00
 Coeff-Com: -0.212D-04 0.277D-04 0.412D-04-0.408D-04 0.119D-02 0.350D-02
 Coeff-Com: -0.988D-02-0.200D-01-0.334D-01 0.540D-01 0.170D+00-0.503D-01
 Coeff-Com: -0.267D+00-0.149D+00 0.130D+01
 Coeff:     -0.212D-04 0.277D-04 0.412D-04-0.408D-04 0.119D-02 0.350D-02
 Coeff:     -0.988D-02-0.200D-01-0.334D-01 0.540D-01 0.170D+00-0.503D-01
 Coeff:     -0.267D+00-0.149D+00 0.130D+01
 Gap=     0.059 Goal=   None    Shift=    0.000
 Gap=     0.036 Goal=   None    Shift=    0.000
 RMSDP=7.56D-06 MaxDP=5.34D-04 DE=-4.42D-09 OVMax= 1.44D-04

 Cycle  16  Pass 1  IDiag  1:
 E= -1136.08648173223     Delta-E=       -0.000000000485 Rises=F Damp=F
 DIIS: error= 1.98D-07 at cycle  16 NSaved=  16.
 NSaved=16 IEnMin=16 EnMin= -1136.08648173223     IErMin=16 ErrMin= 1.98D-07
 ErrMax= 1.98D-07  0.00D+00 EMaxC= 1.00D-01 BMatC= 9.39D-12 BMatP= 3.93D-11
 IDIUse=1 WtCom= 1.00D+00 WtEn= 0.00D+00
 Coeff-Com:  0.471D-06-0.139D-05-0.152D-04-0.350D-04 0.195D-03 0.859D-03
 Coeff-Com:  0.286D-02-0.500D-02-0.287D-01-0.233D-01 0.690D-01 0.693D-01
 Coeff-Com:  0.748D-02-0.407D+00 0.282D+00 0.103D+01
 Coeff:      0.471D-06-0.139D-05-0.152D-04-0.350D-04 0.195D-03 0.859D-03
 Coeff:      0.286D-02-0.500D-02-0.287D-01-0.233D-01 0.690D-01 0.693D-01
 Coeff:      0.748D-02-0.407D+00 0.282D+00 0.103D+01
 Gap=     0.059 Goal=   None    Shift=    0.000
 Gap=     0.036 Goal=   None    Shift=    0.000
 RMSDP=3.37D-06 MaxDP=2.33D-04 DE=-4.85D-10 OVMax= 5.37D-05

 Cycle  17  Pass 1  IDiag  1:
 E= -1136.08648173231     Delta-E=       -0.000000000079 Rises=F Damp=F
 DIIS: error= 6.33D-08 at cycle  17 NSaved=  17.
 NSaved=17 IEnMin=17 EnMin= -1136.08648173231     IErMin=17 ErrMin= 6.33D-08
 ErrMax= 6.33D-08  0.00D+00 EMaxC= 1.00D-01 BMatC= 1.21D-12 BMatP= 9.39D-12
 IDIUse=1 WtCom= 1.00D+00 WtEn= 0.00D+00
 Coeff-Com:  0.218D-05-0.296D-05-0.143D-04-0.725D-06-0.139D-03-0.261D-03
 Coeff-Com:  0.132D-02 0.232D-02 0.225D-02-0.103D-01-0.137D-01 0.728D-02
 Coeff-Com:  0.364D-01 0.301D-02-0.205D+00 0.135D+00 0.104D+01
 Coeff:      0.218D-05-0.296D-05-0.143D-04-0.725D-06-0.139D-03-0.261D-03
 Coeff:      0.132D-02 0.232D-02 0.225D-02-0.103D-01-0.137D-01 0.728D-02
 Coeff:      0.364D-01 0.301D-02-0.205D+00 0.135D+00 0.104D+01
 Gap=     0.059 Goal=   None    Shift=    0.000
 Gap=     0.036 Goal=   None    Shift=    0.000
 RMSDP=9.95D-07 MaxDP=9.71D-05 DE=-7.91D-11 OVMax= 1.06D-05

 Cycle  18  Pass 1  IDiag  1:
 E= -1136.08648173232     Delta-E=       -0.000000000009 Rises=F Damp=F
 DIIS: error= 1.26D-08 at cycle  18 NSaved=  18.
 NSaved=18 IEnMin=18 EnMin= -1136.08648173232     IErMin=18 ErrMin= 1.26D-08
 ErrMax= 1.26D-08  0.00D+00 EMaxC= 1.00D-01 BMatC= 9.06D-14 BMatP= 1.21D-12
 IDIUse=1 WtCom= 1.00D+00 WtEn= 0.00D+00
 Coeff-Com:  0.198D-06-0.160D-06 0.148D-05 0.428D-05-0.346D-04-0.159D-03
 Coeff-Com: -0.987D-04 0.494D-03 0.319D-02 0.326D-02-0.898D-02-0.862D-02
 Coeff-Com:  0.329D-02 0.419D-01-0.266D-01-0.120D+00 0.102D-01 0.110D+01
 Coeff:      0.198D-06-0.160D-06 0.148D-05 0.428D-05-0.346D-04-0.159D-03
 Coeff:     -0.987D-04 0.494D-03 0.319D-02 0.326D-02-0.898D-02-0.862D-02
 Coeff:      0.329D-02 0.419D-01-0.266D-01-0.120D+00 0.102D-01 0.110D+01
 Gap=     0.059 Goal=   None    Shift=    0.000
 Gap=     0.036 Goal=   None    Shift=    0.000
 RMSDP=2.90D-07 MaxDP=3.86D-05 DE=-9.09D-12 OVMax= 1.29D-06

 Cycle  19  Pass 1  IDiag  1:
 E= -1136.08648173232     Delta-E=       -0.000000000002 Rises=F Damp=F
 DIIS: error= 3.71D-09 at cycle  19 NSaved=  19.
 NSaved=19 IEnMin=19 EnMin= -1136.08648173232     IErMin=19 ErrMin= 3.71D-09
 ErrMax= 3.71D-09  0.00D+00 EMaxC= 1.00D-01 BMatC= 7.94D-15 BMatP= 9.06D-14
 IDIUse=1 WtCom= 1.00D+00 WtEn= 0.00D+00
 Coeff-Com: -0.335D-06 0.440D-06 0.136D-05-0.360D-06 0.182D-04 0.481D-04
 Coeff-Com: -0.141D-03-0.291D-03-0.561D-03 0.836D-03 0.228D-02-0.529D-03
 Coeff-Com: -0.422D-02-0.261D-02 0.228D-01-0.897D-02-0.110D+00-0.556D-01
 Coeff-Com:  0.116D+01
 Coeff:     -0.335D-06 0.440D-06 0.136D-05-0.360D-06 0.182D-04 0.481D-04
 Coeff:     -0.141D-03-0.291D-03-0.561D-03 0.836D-03 0.228D-02-0.529D-03
 Coeff:     -0.422D-02-0.261D-02 0.228D-01-0.897D-02-0.110D+00-0.556D-01
 Coeff:      0.116D+01
 Gap=     0.059 Goal=   None    Shift=    0.000
 Gap=     0.036 Goal=   None    Shift=    0.000
 RMSDP=5.28D-08 MaxDP=3.84D-06 DE=-2.27D-12 OVMax= 9.46D-07

 Cycle  20  Pass 1  IDiag  1:
 E= -1136.08648173232     Delta-E=        0.000000000008 Rises=F Damp=F
 DIIS: error= 2.11D-09 at cycle  20 NSaved=  20.
 NSaved=20 IEnMin=19 EnMin= -1136.08648173232     IErMin=20 ErrMin= 2.11D-09
 ErrMax= 2.11D-09  0.00D+00 EMaxC= 1.00D-01 BMatC= 1.28D-15 BMatP= 7.94D-15
 IDIUse=1 WtCom= 1.00D+00 WtEn= 0.00D+00
 Large coefficients: NSaved= 20 BigCof=    0.00 CofMax=   10.00 Det=-2.92D-15
 Inversion failed.  Reducing to 19 matrices.
 Large coefficients: NSaved= 19 BigCof=    0.00 CofMax=   10.00 Det=-3.40D-15
 Inversion failed.  Reducing to 18 matrices.
 Large coefficients: NSaved= 18 BigCof=    0.00 CofMax=   10.00 Det=-3.52D-15
 Inversion failed.  Reducing to 17 matrices.
 Large coefficients: NSaved= 17 BigCof=    0.00 CofMax=   10.00 Det=-3.53D-15
 Inversion failed.  Reducing to 16 matrices.
 Large coefficients: NSaved= 16 BigCof=    0.00 CofMax=   10.00 Det=-4.25D-15
 Inversion failed.  Reducing to 15 matrices.
 Coeff-Com:  0.679D-05 0.420D-04 0.158D-04-0.260D-03-0.628D-03 0.843D-03
 Coeff-Com:  0.100D-02 0.608D-04-0.352D-02-0.116D-02 0.141D-01 0.110D-01
 Coeff-Com: -0.126D+00 0.504D-01 0.105D+01
 Coeff:      0.679D-05 0.420D-04 0.158D-04-0.260D-03-0.628D-03 0.843D-03
 Coeff:      0.100D-02 0.608D-04-0.352D-02-0.116D-02 0.141D-01 0.110D-01
 Coeff:     -0.126D+00 0.504D-01 0.105D+01
 Gap=     0.059 Goal=   None    Shift=    0.000
 Gap=     0.036 Goal=   None    Shift=    0.000
 RMSDP=2.32D-08 MaxDP=1.57D-06 DE= 7.73D-12 OVMax= 3.08D-07

 Cycle  21  Pass 1  IDiag  1:
 E= -1136.08648173234     Delta-E=       -0.000000000027 Rises=F Damp=F
 DIIS: error= 1.30D-09 at cycle  21 NSaved=  16.
 NSaved=16 IEnMin=16 EnMin= -1136.08648173234     IErMin=16 ErrMin= 1.30D-09
 ErrMax= 1.30D-09  0.00D+00 EMaxC= 1.00D-01 BMatC= 3.92D-16 BMatP= 1.28D-15
 IDIUse=1 WtCom= 1.00D+00 WtEn= 0.00D+00
 Large coefficients: NSaved= 16 BigCof=    0.00 CofMax=   10.00 Det=-9.47D-16
 Inversion failed.  Reducing to 15 matrices.
 Coeff-Com:  0.138D-04 0.313D-06-0.787D-04-0.164D-03 0.268D-03 0.348D-03
 Coeff-Com:  0.356D-04-0.147D-02 0.228D-03 0.488D-02 0.465D-02-0.432D-01
 Coeff-Com: -0.807D-01 0.390D+00 0.726D+00
 Coeff:      0.138D-04 0.313D-06-0.787D-04-0.164D-03 0.268D-03 0.348D-03
 Coeff:      0.356D-04-0.147D-02 0.228D-03 0.488D-02 0.465D-02-0.432D-01
 Coeff:     -0.807D-01 0.390D+00 0.726D+00
 Gap=     0.059 Goal=   None    Shift=    0.000
 Gap=     0.036 Goal=   None    Shift=    0.000
 RMSDP=1.08D-08 MaxDP=1.29D-06 DE=-2.73D-11 OVMax= 8.99D-08

 Cycle  22  Pass 1  IDiag  1:
 E= -1136.08648173232     Delta-E=        0.000000000028 Rises=F Damp=F
 DIIS: error= 6.44D-10 at cycle  22 NSaved=  16.
 NSaved=16 IEnMin=15 EnMin= -1136.08648173234     IErMin=16 ErrMin= 6.44D-10
 ErrMax= 6.44D-10  0.00D+00 EMaxC= 1.00D-01 BMatC= 6.58D-17 BMatP= 3.92D-16
 IDIUse=1 WtCom= 1.00D+00 WtEn= 0.00D+00
 Large coefficients: NSaved= 16 BigCof=    0.00 CofMax=   10.00 Det=-1.91D-16
 Inversion failed.  Reducing to 15 matrices.
 Coeff-Com: -0.329D-05 0.658D-05 0.472D-04-0.641D-04-0.504D-04 0.315D-04
 Coeff-Com:  0.839D-04 0.849D-04-0.628D-03 0.858D-04 0.116D-01-0.363D-01
 Coeff-Com: -0.872D-01 0.116D+00 0.996D+00
 Coeff:     -0.329D-05 0.658D-05 0.472D-04-0.641D-04-0.504D-04 0.315D-04
 Coeff:      0.839D-04 0.849D-04-0.628D-03 0.858D-04 0.116D-01-0.363D-01
 Coeff:     -0.872D-01 0.116D+00 0.996D+00
 Gap=     0.059 Goal=   None    Shift=    0.000
 Gap=     0.036 Goal=   None    Shift=    0.000
 RMSDP=3.05D-08 MaxDP=1.84D-06 DE= 2.82D-11 OVMax= 5.42D-08

 Cycle  23  Pass 1  IDiag  1:
 E= -1136.08648173230     Delta-E=        0.000000000015 Rises=F Damp=F
 DIIS: error= 3.63D-10 at cycle  23 NSaved=  16.
 NSaved=16 IEnMin=14 EnMin= -1136.08648173234     IErMin=16 ErrMin= 3.63D-10
 ErrMax= 3.63D-10  0.00D+00 EMaxC= 1.00D-01 BMatC= 2.47D-17 BMatP= 6.58D-17
 IDIUse=1 WtCom= 1.00D+00 WtEn= 0.00D+00
 Large coefficients: NSaved= 16 BigCof=    0.00 CofMax=   10.00 Det=-4.47D-17
 Inversion failed.  Reducing to 15 matrices.
 Coeff-Com:  0.686D-05 0.259D-04-0.737D-04-0.542D-04 0.463D-04 0.257D-03
 Coeff-Com: -0.134D-03-0.111D-02-0.120D-02 0.140D-01 0.209D-01-0.156D+00
 Coeff-Com: -0.194D+00 0.330D+00 0.988D+00
 Coeff:      0.686D-05 0.259D-04-0.737D-04-0.542D-04 0.463D-04 0.257D-03
 Coeff:     -0.134D-03-0.111D-02-0.120D-02 0.140D-01 0.209D-01-0.156D+00
 Coeff:     -0.194D+00 0.330D+00 0.988D+00
 Gap=     0.059 Goal=   None    Shift=    0.000
 Gap=     0.036 Goal=   None    Shift=    0.000
 RMSDP=9.39D-09 MaxDP=1.53D-06 DE= 1.55D-11 OVMax= 3.31D-08

 Cycle  24  Pass 1  IDiag  1:
 E= -1136.08648173233     Delta-E=       -0.000000000025 Rises=F Damp=F
 DIIS: error= 1.30D-10 at cycle  24 NSaved=  16.
 NSaved=16 IEnMin=13 EnMin= -1136.08648173234     IErMin=16 ErrMin= 1.30D-10
 ErrMax= 1.30D-10  0.00D+00 EMaxC= 1.00D-01 BMatC= 4.46D-18 BMatP= 2.47D-17
 IDIUse=1 WtCom= 1.00D+00 WtEn= 0.00D+00
 Large coefficients: NSaved= 16 BigCof=    0.00 CofMax=   10.00 Det=-9.92D-18
 Inversion failed.  Reducing to 15 matrices.
 Coeff-Com:  0.231D-06 0.722D-05-0.227D-05-0.159D-04 0.324D-04 0.480D-04
 Coeff-Com: -0.881D-04-0.594D-03 0.369D-03 0.140D-01-0.111D-01-0.707D-01
 Coeff-Com: -0.175D+00 0.205D+00 0.104D+01
 Coeff:      0.231D-06 0.722D-05-0.227D-05-0.159D-04 0.324D-04 0.480D-04
 Coeff:     -0.881D-04-0.594D-03 0.369D-03 0.140D-01-0.111D-01-0.707D-01
 Coeff:     -0.175D+00 0.205D+00 0.104D+01
 Gap=     0.059 Goal=   None    Shift=    0.000
 Gap=     0.036 Goal=   None    Shift=    0.000
 RMSDP=1.92D-08 MaxDP=2.59D-06 DE=-2.50D-11 OVMax= 2.38D-08

 Cycle  25  Pass 1  IDiag  1:
 E= -1136.08648173231     Delta-E=        0.000000000013 Rises=F Damp=F
 DIIS: error= 4.42D-11 at cycle  25 NSaved=  16.
 NSaved=16 IEnMin=12 EnMin= -1136.08648173234     IErMin=16 ErrMin= 4.42D-11
 ErrMax= 4.42D-11  0.00D+00 EMaxC= 1.00D-01 BMatC= 1.08D-18 BMatP= 4.46D-18
 IDIUse=1 WtCom= 1.00D+00 WtEn= 0.00D+00
 Large coefficients: NSaved= 16 BigCof=    0.00 CofMax=   10.00 Det=-1.91D-18
 Inversion failed.  Reducing to 15 matrices.
 Coeff-Com:  0.480D-05 0.610D-06-0.107D-04-0.105D-04 0.671D-04 0.268D-04
 Coeff-Com: -0.300D-03-0.140D-02 0.469D-02 0.992D-02-0.108D-01-0.758D-01
 Coeff-Com: -0.490D-01 0.275D+00 0.848D+00
 Coeff:      0.480D-05 0.610D-06-0.107D-04-0.105D-04 0.671D-04 0.268D-04
 Coeff:     -0.300D-03-0.140D-02 0.469D-02 0.992D-02-0.108D-01-0.758D-01
 Coeff:     -0.490D-01 0.275D+00 0.848D+00
 Gap=     0.059 Goal=   None    Shift=    0.000
 Gap=     0.036 Goal=   None    Shift=    0.000
 RMSDP=1.15D-08 MaxDP=1.11D-06 DE= 1.27D-11 OVMax= 5.88D-09

 Cycle  26  Pass 1  IDiag  1:
 E= -1136.08648173231     Delta-E=        0.000000000001 Rises=F Damp=F
 DIIS: error= 2.85D-11 at cycle  26 NSaved=  16.
 NSaved=16 IEnMin=11 EnMin= -1136.08648173234     IErMin=16 ErrMin= 2.85D-11
 ErrMax= 2.85D-11  0.00D+00 EMaxC= 1.00D-01 BMatC= 3.37D-19 BMatP= 1.08D-18
 IDIUse=1 WtCom= 1.00D+00 WtEn= 0.00D+00
 Large coefficients: NSaved= 16 BigCof=    0.00 CofMax=   10.00 Det=-8.31D-19
 Inversion failed.  Reducing to 15 matrices.
 Coeff-Com:  0.820D-06 0.119D-05-0.949D-05-0.237D-06 0.400D-04 0.108D-03
 Coeff-Com: -0.547D-03-0.231D-02 0.809D-02 0.139D-01 0.637D-02-0.816D-01
 Coeff-Com: -0.106D+00 0.267D+00 0.895D+00
 Coeff:      0.820D-06 0.119D-05-0.949D-05-0.237D-06 0.400D-04 0.108D-03
 Coeff:     -0.547D-03-0.231D-02 0.809D-02 0.139D-01 0.637D-02-0.816D-01
 Coeff:     -0.106D+00 0.267D+00 0.895D+00
 Gap=     0.059 Goal=   None    Shift=    0.000
 Gap=     0.036 Goal=   None    Shift=    0.000
 RMSDP=7.54D-09 MaxDP=5.54D-07 DE= 9.09D-13 OVMax= 2.69D-09

 SCF Done:  E(UB3LYP) =  -1136.08648173     A.U. after   26 cycles
            NFock= 26  Conv=0.75D-08     -V/T= 2.0023
 <Sx>= 0.0000 <Sy>= 0.0000 <Sz>= 0.5000 <S**2>= 0.7606 S= 0.5053
 <L.S>= 0.000000000000E+00
 KE= 1.133432005994D+03 PE=-3.533188739445D+03 EE= 8.618732926544D+02
 Annihilation of the first spin contaminant:
 S**2 before annihilation     0.7606,   after     0.7501
 Leave Link  502 at Mon Nov 13 19:52:02 2023, MaxMem=  1879048192 cpu:             247.9 elap:              21.2
 (Enter /home/sekinelabo/g16/l601.exe)
 Copying SCF densities to generalized density rwf, IOpCl= 1 IROHF=0.

 **********************************************************************

            Population analysis using the SCF Density.

 **********************************************************************

 Orbital symmetries:
 Alpha Orbitals:
       Occupied  (A) (A) (A) (A) (A) (A) (A) (A) (A) (A) (A) (A)
                 (A) (A) (A) (A) (A) (A) (A) (A) (A) (A) (A) (A)
                 (A) (A) (A) (A) (A) (A) (A) (A) (A) (A) (A) (A)
                 (A) (A) (A)
       Virtual   (A) (A) (A) (A) (A) (A) (A) (A) (A) (A) (A) (A)
                 (A) (A) (A) (A) (A) (A) (A) (A) (A) (A) (A) (A)
                 (A) (A) (A) (A) (A) (A) (A) (A) (A) (A) (A) (A)
                 (A) (A) (A) (A) (A) (A) (A) (A) (A) (A) (A) (A)
                 (A) (A) (A) (A) (A) (A) (A) (A) (A) (A) (A) (A)
                 (A) (A) (A) (A) (A) (A) (A) (A) (A) (A) (A) (A)
                 (A) (A) (A) (A) (A) (A) (A) (A) (A) (A) (A) (A)
                 (A) (A) (A) (A) (A) (A) (A) (A) (A) (A) (A) (A)
                 (A) (A) (A) (A) (A) (A) (A) (A) (A) (A) (A) (A)
                 (A) (A) (A) (A) (A) (A) (A) (A) (A) (A) (A) (A)
                 (A) (A) (A) (A) (A) (A) (A) (A) (A) (A) (A) (A)
                 (A) (A) (A) (A) (A) (A) (A) (A) (A) (A) (A) (A)
                 (A) (A) (A) (A) (A) (A) (A) (A) (A) (A) (A) (A)
                 (A) (A) (A) (A) (A) (A) (A) (A) (A) (A) (A) (A)
                 (A) (A) (A)
 Beta  Orbitals:
       Occupied  (A) (A) (A) (A) (A) (A) (A) (A) (A) (A) (A) (A)
                 (A) (A) (A) (A) (A) (A) (A) (A) (A) (A) (A) (A)
                 (A) (A) (A) (A) (A) (A) (A) (A) (A) (A) (A) (A)
                 (A) (A)
       Virtual   (A) (A) (A) (A) (A) (A) (A) (A) (A) (A) (A) (A)
                 (A) (A) (A) (A) (A) (A) (A) (A) (A) (A) (A) (A)
                 (A) (A) (A) (A) (A) (A) (A) (A) (A) (A) (A) (A)
                 (A) (A) (A) (A) (A) (A) (A) (A) (A) (A) (A) (A)
                 (A) (A) (A) (A) (A) (A) (A) (A) (A) (A) (A) (A)
                 (A) (A) (A) (A) (A) (A) (A) (A) (A) (A) (A) (A)
                 (A) (A) (A) (A) (A) (A) (A) (A) (A) (A) (A) (A)
                 (A) (A) (A) (A) (A) (A) (A) (A) (A) (A) (A) (A)
                 (A) (A) (A) (A) (A) (A) (A) (A) (A) (A) (A) (A)
                 (A) (A) (A) (A) (A) (A) (A) (A) (A) (A) (A) (A)
                 (A) (A) (A) (A) (A) (A) (A) (A) (A) (A) (A) (A)
                 (A) (A) (A) (A) (A) (A) (A) (A) (A) (A) (A) (A)
                 (A) (A) (A) (A) (A) (A) (A) (A) (A) (A) (A) (A)
                 (A) (A) (A) (A) (A) (A) (A) (A) (A) (A) (A) (A)
                 (A) (A) (A) (A)
 The electronic state is 2-A.
 Alpha  occ. eigenvalues --  -38.44706 -38.44222 -38.44200 -38.43822 -38.43793
 Alpha  occ. eigenvalues --  -38.42691 -38.42471  -2.20605  -2.20393  -2.20323
 Alpha  occ. eigenvalues --   -2.20163  -2.19991  -2.18781  -2.18523  -1.14400
 Alpha  occ. eigenvalues --   -1.14318  -1.14280  -1.14234  -1.14191  -1.14154
 Alpha  occ. eigenvalues --   -1.14005  -1.13989  -1.13881  -1.13825  -1.13803
 Alpha  occ. eigenvalues --   -1.13693  -1.13610  -1.13541  -1.13533  -1.12497
 Alpha  occ. eigenvalues --   -1.12430  -1.12347  -1.12255  -1.12171  -1.12102
 Alpha  occ. eigenvalues --   -0.21113  -0.13900  -0.12514  -0.11944
 Alpha virt. eigenvalues --   -0.06010  -0.04020  -0.03554  -0.03429  -0.02946
 Alpha virt. eigenvalues --   -0.02729  -0.01706  -0.00471  -0.00312   0.00295
 Alpha virt. eigenvalues --    0.00579   0.00716   0.00918   0.00999   0.01057
 Alpha virt. eigenvalues --    0.01215   0.01331   0.01379   0.01500   0.01528
 Alpha virt. eigenvalues --    0.01662   0.01698   0.01797   0.01849   0.02059
 Alpha virt. eigenvalues --    0.02454   0.02608   0.02818   0.02871   0.02949
 Alpha virt. eigenvalues --    0.02983   0.03032   0.03103   0.03127   0.03282
 Alpha virt. eigenvalues --    0.03394   0.03679   0.03824   0.03922   0.04033
 Alpha virt. eigenvalues --    0.04126   0.04735   0.04839   0.05165   0.05448
 Alpha virt. eigenvalues --    0.05554   0.05808   0.06042   0.06216   0.06287
 Alpha virt. eigenvalues --    0.06563   0.06728   0.07157   0.07210   0.07286
 Alpha virt. eigenvalues --    0.07523   0.08671   0.08915   0.09575   0.09884
 Alpha virt. eigenvalues --    0.10110   0.10159   0.10401   0.11418   0.13115
 Alpha virt. eigenvalues --    0.13503   0.13852   0.14209   0.14262   0.14521
 Alpha virt. eigenvalues --    0.14591   0.14997   0.15292   0.15652   0.16298
 Alpha virt. eigenvalues --    0.16561   0.16889   0.18156   0.18377   0.19864
 Alpha virt. eigenvalues --    0.22077   0.23555   0.24636   0.27720   0.29959
 Alpha virt. eigenvalues --    0.31118   0.32014   0.32754   0.34323   0.35173
 Alpha virt. eigenvalues --    0.35782   0.36177   0.36393   0.37952   0.38639
 Alpha virt. eigenvalues --    0.39803   0.41013   0.41447   0.42871   0.43494
 Alpha virt. eigenvalues --    0.44871   0.45011   0.45318   0.46200   0.46278
 Alpha virt. eigenvalues --    0.47272   0.47783   0.48226   0.48544   0.48909
 Alpha virt. eigenvalues --    0.49794   0.50058   0.50944   0.51736   0.53048
 Alpha virt. eigenvalues --    0.53320   0.53728   0.54520   0.54986   0.56842
 Alpha virt. eigenvalues --    0.57671   0.57814   0.59317   0.63798   0.65013
 Alpha virt. eigenvalues --    0.65902   0.68212   0.73592   0.74349   0.76092
 Alpha virt. eigenvalues --    0.77689   0.78685   0.80625   0.81696   0.82803
 Alpha virt. eigenvalues --    0.86114   2.12968   2.19662   2.26444   2.28460
 Alpha virt. eigenvalues --    2.29651   2.33528   2.40854   4.40671   4.41743
 Alpha virt. eigenvalues --    4.41848   4.42161   4.43470   4.44432   4.45458
 Alpha virt. eigenvalues --    4.47527   4.49971   4.52475   4.53339   4.59593
 Alpha virt. eigenvalues --    4.63522   4.68242   4.69428   4.75395   4.76662
 Alpha virt. eigenvalues --    4.79325   4.80905   4.81764   4.85884  96.34774
 Alpha virt. eigenvalues --   96.43379  96.53935  96.56539  96.58785  96.63450
 Alpha virt. eigenvalues --   96.73272
  Beta  occ. eigenvalues --  -38.44700 -38.44176 -38.44138 -38.43760 -38.43731
  Beta  occ. eigenvalues --  -38.42676 -38.42458  -2.20596  -2.20290  -2.20239
  Beta  occ. eigenvalues --   -2.20056  -2.19884  -2.18761  -2.18504  -1.14375
  Beta  occ. eigenvalues --   -1.14293  -1.14231  -1.14186  -1.14136  -1.14074
  Beta  occ. eigenvalues --   -1.13934  -1.13912  -1.13818  -1.13757  -1.13732
  Beta  occ. eigenvalues --   -1.13621  -1.13522  -1.13460  -1.13442  -1.12488
  Beta  occ. eigenvalues --   -1.12384  -1.12319  -1.12247  -1.12112  -1.12095
  Beta  occ. eigenvalues --   -0.20263  -0.13734  -0.11630
  Beta virt. eigenvalues --   -0.08063  -0.05919  -0.03505  -0.03423  -0.03261
  Beta virt. eigenvalues --   -0.02033  -0.01807  -0.01560  -0.00296  -0.00150
  Beta virt. eigenvalues --    0.00324   0.00632   0.00848   0.00909   0.01011
  Beta virt. eigenvalues --    0.01106   0.01296   0.01354   0.01526   0.01560
  Beta virt. eigenvalues --    0.01620   0.01665   0.01747   0.01902   0.01984
  Beta virt. eigenvalues --    0.02104   0.02476   0.02696   0.02821   0.02917
  Beta virt. eigenvalues --    0.02944   0.02987   0.03060   0.03114   0.03212
  Beta virt. eigenvalues --    0.03313   0.03509   0.03796   0.03931   0.04120
  Beta virt. eigenvalues --    0.04135   0.04218   0.04944   0.04997   0.05189
  Beta virt. eigenvalues --    0.05508   0.05701   0.06009   0.06119   0.06354
  Beta virt. eigenvalues --    0.06470   0.06563   0.06788   0.07273   0.07324
  Beta virt. eigenvalues --    0.07443   0.07610   0.08685   0.09038   0.09705
  Beta virt. eigenvalues --    0.09991   0.10276   0.10595   0.10751   0.11791
  Beta virt. eigenvalues --    0.13266   0.13609   0.13934   0.14393   0.14513
  Beta virt. eigenvalues --    0.14663   0.14828   0.15271   0.15575   0.16065
  Beta virt. eigenvalues --    0.16631   0.16668   0.16999   0.18474   0.18595
  Beta virt. eigenvalues --    0.20240   0.22640   0.23735   0.25120   0.28052
  Beta virt. eigenvalues --    0.30350   0.31121   0.32428   0.33262   0.34573
  Beta virt. eigenvalues --    0.35491   0.36007   0.36490   0.37028   0.38301
  Beta virt. eigenvalues --    0.38902   0.40122   0.41303   0.41619   0.42977
  Beta virt. eigenvalues --    0.43834   0.45069   0.45142   0.45509   0.46429
  Beta virt. eigenvalues --    0.46547   0.47370   0.47821   0.48304   0.48758
  Beta virt. eigenvalues --    0.49153   0.49885   0.50242   0.51012   0.51877
  Beta virt. eigenvalues --    0.53423   0.53578   0.53949   0.54688   0.55286
  Beta virt. eigenvalues --    0.57199   0.57930   0.58154   0.59559   0.63953
  Beta virt. eigenvalues --    0.65185   0.66027   0.68378   0.73873   0.74501
  Beta virt. eigenvalues --    0.76327   0.77880   0.78953   0.80755   0.82021
  Beta virt. eigenvalues --    0.82950   0.86439   2.13024   2.19734   2.26536
  Beta virt. eigenvalues --    2.28599   2.29815   2.33738   2.41053   4.40792
  Beta virt. eigenvalues --    4.41802   4.41937   4.42247   4.43529   4.44478
  Beta virt. eigenvalues --    4.45464   4.47574   4.50033   4.52520   4.53430
  Beta virt. eigenvalues --    4.59701   4.63589   4.68282   4.69479   4.75440
  Beta virt. eigenvalues --    4.76758   4.79420   4.81000   4.81833   4.85925
  Beta virt. eigenvalues --   96.34800  96.43404  96.53957  96.56593  96.58858
  Beta virt. eigenvalues --   96.63515  96.73344
          Condensed to atoms (all electrons):
               1          2          3          4          5          6
     1  Na  15.658225  -1.386025  -1.668395   0.654267   0.637609  -1.203444
     2  Na  -1.386025  15.091953   2.962966  -0.793256  -2.318780   1.641795
     3  Na  -1.668395   2.962966  16.375848  -0.364935  -3.210765   2.535794
     4  Na   0.654267  -0.793256  -0.364935  13.939482  -1.484126  -0.177425
     5  Na   0.637609  -2.318780  -3.210765  -1.484126  15.185840  -2.145081
     6  Na  -1.203444   1.641795   2.535794  -0.177425  -2.145081  14.048757
     7  Na  -1.965793  -3.217189  -5.430351  -0.758704   3.357298  -2.623815
               7
     1  Na  -1.965793
     2  Na  -3.217189
     3  Na  -5.430351
     4  Na  -0.758704
     5  Na   3.357298
     6  Na  -2.623815
     7  Na  20.616607
          Atomic-Atomic Spin Densities.
               1          2          3          4          5          6
     1  Na   0.771888   0.062679  -0.087647  -0.251795   0.152769  -0.138098
     2  Na   0.062679   0.569246   0.528218  -0.156780  -0.252775   0.656756
     3  Na  -0.087647   0.528218   0.680635  -0.396844  -0.060138   0.578852
     4  Na  -0.251795  -0.156780  -0.396844   0.356049   0.252279  -0.454073
     5  Na   0.152769  -0.252775  -0.060138   0.252279   0.175429  -0.257472
     6  Na  -0.138098   0.656756   0.578852  -0.454073  -0.257472   0.694284
     7  Na  -0.321706  -1.032761  -1.061834   0.728918   0.121305  -0.846313
               7
     1  Na  -0.321706
     2  Na  -1.032761
     3  Na  -1.061834
     4  Na   0.728918
     5  Na   0.121305
     6  Na  -0.846313
     7  Na   2.225389
 Mulliken charges and spin densities:
               1          2
     1  Na   0.273557   0.188090
     2  Na  -0.981464   0.374582
     3  Na  -0.200162   0.181243
     4  Na  -0.015303   0.077753
     5  Na   0.978005   0.131397
     6  Na  -1.076581   0.233937
     7  Na   1.021947  -0.187002
 Sum of Mulliken charges =  -0.00000   1.00000
 Mulliken charges and spin densities with hydrogens summed into heavy atoms:
               1          2
     1  Na   0.273557   0.188090
     2  Na  -0.981464   0.374582
     3  Na  -0.200162   0.181243
     4  Na  -0.015303   0.077753
     5  Na   0.978005   0.131397
     6  Na  -1.076581   0.233937
     7  Na   1.021947  -0.187002
 Electronic spatial extent (au):  <R**2>=           1705.2537
 Charge=             -0.0000 electrons
 Dipole moment (field-independent basis, Debye):
    X=             -0.4740    Y=              0.0823    Z=             -0.0485  Tot=              0.4835
 Quadrupole moment (field-independent basis, Debye-Ang):
   XX=            -53.7198   YY=            -74.0251   ZZ=            -66.1567
   XY=              0.1237   XZ=              0.1802   YZ=              0.9320
 Traceless Quadrupole moment (field-independent basis, Debye-Ang):
   XX=             10.9141   YY=             -9.3912   ZZ=             -1.5228
   XY=              0.1237   XZ=              0.1802   YZ=              0.9320
 Octapole moment (field-independent basis, Debye-Ang**2):
  XXX=            -33.5275  YYY=              1.7251  ZZZ=              3.5883  XYY=             -0.4109
  XXY=              0.7093  XXZ=             -8.5698  XZZ=              5.7492  YZZ=             -0.2004
  YYZ=             -0.3866  XYZ=             -0.9204
 Hexadecapole moment (field-independent basis, Debye-Ang**3):
 XXXX=          -1138.0618 YYYY=           -887.0727 ZZZZ=           -704.4070 XXXY=             14.3881
 XXXZ=             16.7631 YYYX=            -11.8787 YYYZ=             31.1501 ZZZX=             -3.8880
 ZZZY=             -4.1691 XXYY=           -434.7631 XXZZ=           -319.6311 YYZZ=           -297.3340
 XXYZ=            -10.0889 YYXZ=             -2.5137 ZZXY=              4.3028
 N-N= 4.017969590646D+02 E-N=-3.533188739446D+03  KE= 1.133432005994D+03
                          Isotropic Fermi Contact Couplings
        Atom                 a.u.       MegaHertz       Gauss      10(-4) cm-1
     1  Na(23)             0.20642     244.20145      87.13715      81.45684
     2  Na(23)            -0.00886     -10.47827      -3.73891      -3.49517
     3  Na(23)             0.01140      13.48976       4.81348       4.49970
     4  Na(23)             0.20274     239.84889      85.58405      80.00498
     5  Na(23)             0.20467     242.13320      86.39915      80.76694
     6  Na(23)            -0.00509      -6.01941      -2.14787      -2.00786
     7  Na(23)             0.15635     184.96629      66.00057      61.69811
 --------------------------------------------------------
       Center         ----  Spin Dipole Couplings  ----
                      3XX-RR        3YY-RR        3ZZ-RR
 --------------------------------------------------------
     1   Atom        0.005263     -0.015598      0.010336
     2   Atom       -0.030043     -0.024568      0.054610
     3   Atom       -0.002539     -0.007108      0.009647
     4   Atom        0.020021     -0.014316     -0.005705
     5   Atom        0.020190     -0.014269     -0.005921
     6   Atom       -0.028308     -0.018279      0.046588
     7   Atom        0.010508     -0.010684      0.000176
 --------------------------------------------------------
                        XY            XZ            YZ
 --------------------------------------------------------
     1   Atom       -0.003556     -0.025328      0.007671
     2   Atom       -0.001195     -0.003910     -0.017779
     3   Atom       -0.000103     -0.007436      0.000613
     4   Atom        0.009786      0.034473      0.006850
     5   Atom       -0.006626     -0.034337      0.004843
     6   Atom        0.001449     -0.000731     -0.019898
     7   Atom        0.009548      0.028323      0.010771
 --------------------------------------------------------


 ---------------------------------------------------------------------------------
              Anisotropic Spin Dipole Couplings in Principal Axis System
 ---------------------------------------------------------------------------------

       Atom             a.u.   MegaHertz   Gauss  10(-4) cm-1        Axes

              Baa    -0.0198    -2.794    -0.997    -0.932 -0.4969  0.6439 -0.5818
     1 Na(23) Bbb    -0.0148    -2.086    -0.744    -0.696  0.5673  0.7484  0.3437
              Bcc     0.0346     4.880     1.741     1.628 -0.6567  0.1593  0.7371
 
              Baa    -0.0315    -4.443    -1.585    -1.482  0.8404  0.5220  0.1460
     2 Na(23) Bbb    -0.0271    -3.827    -1.365    -1.276 -0.5405  0.8271  0.1541
              Bcc     0.0586     8.270     2.951     2.759 -0.0403 -0.2084  0.9772
 
              Baa    -0.0072    -1.010    -0.360    -0.337 -0.1257  0.9878 -0.0917
     3 Na(23) Bbb    -0.0060    -0.852    -0.304    -0.284  0.8952  0.1528  0.4186
              Bcc     0.0132     1.862     0.664     0.621 -0.4275  0.0294  0.9035
 
              Baa    -0.0296    -4.185    -1.493    -1.396 -0.5698 -0.0035  0.8218
     4 Na(23) Bbb    -0.0167    -2.354    -0.840    -0.785 -0.1608  0.9811 -0.1074
              Bcc     0.0463     6.539     2.333     2.181  0.8059  0.1933  0.5596
 
              Baa    -0.0296    -4.180    -1.492    -1.394  0.5662 -0.0156  0.8241
     5 Na(23) Bbb    -0.0154    -2.175    -0.776    -0.725  0.1218  0.9904 -0.0649
              Bcc     0.0450     6.355     2.268     2.120  0.8152 -0.1371 -0.5627
 
              Baa    -0.0286    -4.042    -1.442    -1.348  0.9694 -0.2394 -0.0539
     6 Na(23) Bbb    -0.0236    -3.332    -1.189    -1.111  0.2450  0.9321  0.2668
              Bcc     0.0522     7.374     2.631     2.460 -0.0136 -0.2719  0.9622
 
              Baa    -0.0239    -3.378    -1.206    -1.127 -0.5840 -0.2155  0.7826
     7 Na(23) Bbb    -0.0144    -2.027    -0.723    -0.676 -0.3529  0.9356 -0.0057
              Bcc     0.0383     5.405     1.929     1.803  0.7310  0.2795  0.6225
 

 ---------------------------------------------------------------------------------

 No NMR shielding tensors so no spin-rotation constants.
 Leave Link  601 at Mon Nov 13 19:52:02 2023, MaxMem=  1879048192 cpu:               2.6 elap:               0.2
 (Enter /home/sekinelabo/g16/l701.exe)
 ... and contract with generalized density number  0.
 Compute integral first derivatives.
 Leave Link  701 at Mon Nov 13 19:52:03 2023, MaxMem=  1879048192 cpu:               1.7 elap:               0.1
 (Enter /home/sekinelabo/g16/l702.exe)
 L702 exits ... SP integral derivatives will be done elsewhere.
 Leave Link  702 at Mon Nov 13 19:52:03 2023, MaxMem=  1879048192 cpu:               0.4 elap:               0.0
 (Enter /home/sekinelabo/g16/l703.exe)
 Integral derivatives from FoFJK, PRISM(SPDF).
 Compute integral first derivatives, UseDBF=F ICtDFT=           0.
 Calling FoFJK, ICntrl=      2127 FMM=F ISym2X=0 I1Cent= 0 IOpClX= 1 NMat=1 NMatS=1 NMatT=0.
 FoFJK:  IHMeth= 1 ICntrl=    2127 DoSepK=F KAlg= 0 I1Cent=           0 FoldK=F
 IRaf=         0 NMat=       1 IRICut=       1 DoRegI=T DoRafI=F ISym2E= 0 IDoP0=0 IntGTp=1.
 FoFCou: FMM=F IPFlag=           0 FMFlag=      100000 FMFlg1=         800
         NFxFlg=           0 DoJE=F BraDBF=F KetDBF=F FulRan=T
         wScrn=  0.000000 ICntrl=      2127 IOpCl=  1 I1Cent=           0 NGrid=           0
         NMat0=    1 NMatS0=      1 NMatT0=    0 NMatD0=    1 NMtDS0=    0 NMtDT0=    0
 Symmetry not used in FoFCou.
 Leave Link  703 at Mon Nov 13 19:52:05 2023, MaxMem=  1879048192 cpu:              37.8 elap:               2.4
 (Enter /home/sekinelabo/g16/l716.exe)
 Dipole        =-1.86477361D-01 3.23859903D-02-1.90845589D-02
 ***** Axes restored to original set *****
 -------------------------------------------------------------------
 Center     Atomic                   Forces (Hartrees/Bohr)
 Number     Number              X              Y              Z
 -------------------------------------------------------------------
      1       11          -0.009213355   -0.002428497    0.019936477
      2       11          -0.000113719    0.024697586    0.003457609
      3       11          -0.009773249   -0.000303470    0.001920378
      4       11          -0.009861091    0.003979242   -0.016674308
      5       11           0.014048169   -0.001074834   -0.017136204
      6       11          -0.000573066   -0.019939169   -0.003901182
      7       11           0.015486312   -0.004930857    0.012397230
 -------------------------------------------------------------------
 Cartesian Forces:  Max     0.024697586 RMS     0.011799302
 Z-matrix is all fixed cartesians, so copy forces.
 Force constants in Cartesian coordinates: 
                1             2             3             4             5 
      1  0.242177D+00
      2  0.946832D-02  0.318503D+00
      3 -0.214289D-01 -0.105648D-01  0.300687D+00
      4 -0.437733D-01 -0.231135D-01 -0.183441D-03  0.107722D+00
      5  0.516360D-02 -0.559628D-01 -0.987229D-02  0.144175D-02  0.178668D+00
      6  0.120843D-01  0.434117D-01 -0.419946D-01 -0.270942D-02  0.134895D-01
      7 -0.406810D-01 -0.523344D-02  0.134330D-01 -0.364357D-02 -0.909286D-04
      8 -0.102409D-02 -0.875903D-01  0.423244D-02 -0.124504D-01  0.241303D-02
      9 -0.288214D-01  0.430105D-02 -0.557022D-01 -0.140692D-02 -0.287346D-03
     10 -0.342711D-01 -0.147133D-02  0.119731D-01 -0.238664D-01  0.117333D-01
     11  0.354769D-02 -0.319736D-01  0.439980D-02 -0.213915D-01 -0.281990D-01
     12 -0.194849D-01  0.735193D-02 -0.741176D-01 -0.762470D-02  0.775297D-02
     13 -0.164744D-01 -0.702438D-03  0.961007D-02 -0.329042D-01 -0.705540D-02
     14 -0.970888D-03 -0.338149D-02  0.929150D-03  0.288541D-01 -0.453110D-01
     15  0.174815D-01  0.306929D-02 -0.290902D-01  0.170463D-01  0.368747D-02
     16 -0.382686D-01  0.194957D-01  0.944949D-02  0.166472D-01 -0.286990D-02
     17 -0.876301D-02 -0.455398D-01  0.514864D-02 -0.272657D-02 -0.148677D-01
     18  0.504816D-02 -0.453867D-01 -0.479399D-01  0.181587D-02 -0.487078D-02
     19 -0.687087D-01  0.155672D-02 -0.228534D-01 -0.201822D-01 -0.832245D-02
     20 -0.742162D-02 -0.940555D-01  0.572710D-02  0.293862D-01 -0.367402D-01
     21  0.351212D-01 -0.218236D-02 -0.518423D-01 -0.693766D-02 -0.989947D-02
                6             7             8             9            10 
      6  0.106970D+00
      7  0.141521D-02  0.817147D-01
      8 -0.939403D-03  0.240806D-02  0.726058D-01
      9  0.686897D-02 -0.726195D-02 -0.362365D-02  0.667973D-01
     10 -0.980417D-02 -0.323748D-01 -0.479633D-02  0.296676D-01  0.187698D+00
     11 -0.306629D-01  0.116408D-02 -0.349879D-01  0.125306D-02 -0.476383D-02
     12 -0.289470D-01 -0.964441D-02  0.206693D-02 -0.463361D-01  0.250029D-01
     13  0.819872D-02 -0.199777D-02 -0.717921D-03  0.575772D-02 -0.679500D-01
     14 -0.391892D-01 -0.687471D-03  0.136563D-01  0.692969D-03  0.598542D-02
     15 -0.442379D-01  0.419309D-02 -0.137737D-04  0.124349D-01 -0.314542D-01
     16  0.179240D-02 -0.321369D-02  0.132728D-01  0.223338D-02 -0.252057D-01
     17 -0.491160D-02 -0.222453D-03  0.726273D-03 -0.294259D-03 -0.102384D-01
     18  0.152895D-01  0.160409D-02 -0.761705D-03  0.464406D-02 -0.966562D-02
     19 -0.109771D-01  0.196091D-03  0.330794D-02 -0.168407D-03 -0.402979D-02
     20  0.188020D-01  0.266216D-02  0.331768D-01 -0.204182D-02  0.355113D-02
     21 -0.139487D-01 -0.373906D-02 -0.960837D-03  0.112930D-01 -0.157196D-01
               11            12            13            14            15 
     11  0.160474D+00
     12 -0.130848D-01  0.212546D+00
     13 -0.406204D-02  0.293470D-01  0.172084D+00
     14 -0.492867D-01  0.155752D-02  0.280826D-02  0.152565D+00
     15  0.189920D-02 -0.428185D-01 -0.324705D-01 -0.397114D-02  0.193625D+00
     16  0.201801D-01 -0.419225D-02 -0.261071D-01 -0.284909D-01  0.374206D-02
     17 -0.362925D-01 -0.829616D-02  0.496133D-02 -0.371266D-01 -0.108858D-01
     18  0.309868D-01 -0.217891D-01  0.119154D-01  0.288348D-01 -0.244248D-01
     19  0.532552D-02 -0.134036D-01 -0.266507D-01 -0.749844D-02  0.214618D-01
     20  0.202654D-01  0.265165D-02  0.476821D-02 -0.311160D-01  0.621473D-02
     21  0.520879D-02  0.146252D-02 -0.323584D-01  0.111460D-01 -0.654880D-01
               16            17            18            19            20 
     16  0.100759D+00
     17  0.694842D-02  0.162514D+00
     18  0.265342D-02  0.111792D-01  0.953648D-01
     19 -0.246105D-01  0.100407D-01 -0.133713D-01  0.143986D+00
     20 -0.285361D-01 -0.294135D-01 -0.199816D-01 -0.440994D-02  0.137883D+00
     21 -0.156785D-01  0.805996D-02 -0.211445D-01  0.393120D-01 -0.113720D-01
               21 
     21  0.139668D+00
 Leave Link  716 at Mon Nov 13 19:52:05 2023, MaxMem=  1879048192 cpu:               0.5 elap:               0.0
 (Enter /home/sekinelabo/g16/l103.exe)

 GradGradGradGradGradGradGradGradGradGradGradGradGradGradGradGradGradGrad
 Berny optimization.
 Search for a local minimum.
 Step number   1 out of a maximum of    2
 All quantities printed in internal units (Hartrees-Bohrs-Radians)
 Second derivative matrix not updated -- first step.
 ITU=  0
     Eigenvalues ---    0.07984   0.09674   0.10170   0.16567   0.16751
     Eigenvalues ---    0.17824   0.19731   0.22797   0.23232   0.23655
     Eigenvalues ---    0.25823   0.28468   0.30686   0.36560   0.41367
 Quadratic step=3.644D-01 exceeds max=3.000D-01 adjusted using Lamda=-2.597D-02.
 Angle between NR and scaled steps=   3.94 degrees.
 Angle between quadratic step and forces=  18.86 degrees.
 Linear search not attempted -- first point.
 B after Tr=     0.000000    0.000000    0.000000
         Rot=    1.000000   -0.000000   -0.000000    0.000000 Ang=   0.00 deg.
 Variable       Old X    -DE/DX   Delta X   Delta X   Delta X     New X
                                 (Linear)    (Quad)   (Total)
    X1        5.27895  -0.00921   0.00000  -0.03400  -0.03400   5.24495
    Y1        4.08065  -0.00243   0.00000  -0.00757  -0.00757   4.07308
    Z1        5.19595   0.01994   0.00000   0.06590   0.06590   5.26185
    X2        7.72400  -0.00011   0.00000   0.02107   0.02107   7.74507
    Y2        8.44465   0.02470   0.00000   0.12896   0.12896   8.57360
    Z2        3.34541   0.00346   0.00000   0.01351   0.01351   3.35891
    X3        0.00000  -0.00977   0.00000  -0.12600  -0.12600  -0.12600
    Y3        4.39661  -0.00030   0.00000   0.00112   0.00112   4.39772
    Z3        3.44251   0.00192   0.00000   0.01781   0.01781   3.46032
    X4        4.34782  -0.00986   0.00000  -0.05512  -0.05512   4.29270
    Y4        4.84082   0.00398   0.00000   0.01835   0.01835   4.85918
    Z4        0.00000  -0.01667   0.00000  -0.07217  -0.07217  -0.07217
    X5        9.71126   0.01405   0.00000   0.08171   0.08171   9.79297
    Y5        4.78232  -0.00107   0.00000   0.00499   0.00499   4.78730
    Z5        0.01832  -0.01714   0.00000  -0.07336  -0.07336  -0.05505
    X6        6.98949  -0.00057   0.00000   0.01081   0.01081   7.00030
    Y6        0.00000  -0.01994   0.00000  -0.11994  -0.11994  -0.11994
    Z6        2.15146  -0.00390   0.00000  -0.01979  -0.01979   2.13166
    X7       10.59573   0.01549   0.00000   0.10153   0.10153  10.69726
    Y7        3.56881  -0.00493   0.00000  -0.02591  -0.02591   3.54291
    Z7        5.16649   0.01240   0.00000   0.06812   0.06812   5.23461
         Item               Value     Threshold  Converged?
 Maximum Force            0.024698     0.000450     NO 
 RMS     Force            0.011799     0.000300     NO 
 Maximum Displacement     0.128958     0.001800     NO 
 RMS     Displacement     0.065535     0.001200     NO 
 Predicted change in Energy=-8.854411D-03
 GradGradGradGradGradGradGradGradGradGradGradGradGradGradGradGradGradGrad

 Leave Link  103 at Mon Nov 13 19:52:05 2023, MaxMem=  1879048192 cpu:               0.3 elap:               0.0
 (Enter /home/sekinelabo/g16/l9999.exe)
 1\1\GINC-SEKINELABO-XA7R-R37\Force\UB3LYP\6-311+G(d)\Na7(2)\SEKINELABO
 \13-Nov-2023\0\\#P B3LYP/6-311+g(d) force\\Gaussian input prepared by 
 ASE\\0,2\Na,2.7935000018,2.1593850427,2.7495804702\Na,4.087366169,4.46
 87143602,1.7703126744\Na,0.,2.3265833911,1.8217000832\Na,2.3007679469,
 2.5616534119,0.\Na,5.1389773922,2.5306936679,0.0096942453\Na,3.6986788
 463,0.,1.138503038\Na,5.6070183421,1.8885344201,2.7339872047\\Version=
 ES64L-G16RevB.01\State=2-A\HF=-1136.0864817\S2=0.760646\S2-1=0.\S2A=0.
 750058\RMSD=7.543e-09\RMSF=1.180e-02\Dipole=-0.1864774,-0.032386,0.019
 0846\Quadrupole=8.1143538,-6.9821538,-1.1322,-0.0919559,-0.133953,0.69
 29013\PG=C01 [X(Na7)]\\@


 IF YOU GIVE A BOY AND A PIG EVERYTHING THEY WANT,
 YOU'LL GET A BAD BOY AND A GOOD PIG.
 Job cpu time:       0 days  0 hours  5 minutes  3.3 seconds.
 Elapsed time:       0 days  0 hours  0 minutes 24.7 seconds.
 File lengths (MBytes):  RWF=     32 Int=      0 D2E=      0 Chk=      6 Scr=      1
 Normal termination of Gaussian 16 at Mon Nov 13 19:52:05 2023.
