 Entering Gaussian System, Link 0=g16
 Initial command:
 /home/sekinelabo/g16/l1.exe "/home/sekinelabo/g16temp/Gau-4052202.inp" -scrdir="/home/sekinelabo/g16temp/"
 Entering Link 1 = /home/sekinelabo/g16/l1.exe PID=   4052204.
  
 Copyright (c) 1988-2017, Gaussian, Inc.  All Rights Reserved.
  
 This is part of the Gaussian(R) 16 program.  It is based on
 the Gaussian(R) 09 system (copyright 2009, Gaussian, Inc.),
 the Gaussian(R) 03 system (copyright 2003, Gaussian, Inc.),
 the Gaussian(R) 98 system (copyright 1998, Gaussian, Inc.),
 the Gaussian(R) 94 system (copyright 1995, Gaussian, Inc.),
 the Gaussian 92(TM) system (copyright 1992, Gaussian, Inc.),
 the Gaussian 90(TM) system (copyright 1990, Gaussian, Inc.),
 the Gaussian 88(TM) system (copyright 1988, Gaussian, Inc.),
 the Gaussian 86(TM) system (copyright 1986, Carnegie Mellon
 University), and the Gaussian 82(TM) system (copyright 1983,
 Carnegie Mellon University). Gaussian is a federally registered
 trademark of Gaussian, Inc.
  
 This software contains proprietary and confidential information,
 including trade secrets, belonging to Gaussian, Inc.
  
 This software is provided under written license and may be
 used, copied, transmitted, or stored only in accord with that
 written license.
  
 The following legend is applicable only to US Government
 contracts under FAR:
  
                    RESTRICTED RIGHTS LEGEND
  
 Use, reproduction and disclosure by the US Government is
 subject to restrictions as set forth in subparagraphs (a)
 and (c) of the Commercial Computer Software - Restricted
 Rights clause in FAR 52.227-19.
  
 Gaussian, Inc.
 340 Quinnipiac St., Bldg. 40, Wallingford CT 06492
  
  
 ---------------------------------------------------------------
 Warning -- This program may not be used in any manner that
 competes with the business of Gaussian, Inc. or will provide
 assistance to any competitor of Gaussian, Inc.  The licensee
 of this program is prohibited from giving any competitor of
 Gaussian, Inc. access to this program.  By using this program,
 the user acknowledges that Gaussian, Inc. is engaged in the
 business of creating and licensing software in the field of
 computational chemistry and represents and warrants to the
 licensee that it is not a competitor of Gaussian, Inc. and that
 it will not use this program in any manner prohibited above.
 ---------------------------------------------------------------
  

 Cite this work as:
 Gaussian 16, Revision B.01,
 M. J. Frisch, G. W. Trucks, H. B. Schlegel, G. E. Scuseria, 
 M. A. Robb, J. R. Cheeseman, G. Scalmani, V. Barone, 
 G. A. Petersson, H. Nakatsuji, X. Li, M. Caricato, A. V. Marenich, 
 J. Bloino, B. G. Janesko, R. Gomperts, B. Mennucci, H. P. Hratchian, 
 J. V. Ortiz, A. F. Izmaylov, J. L. Sonnenberg, D. Williams-Young, 
 F. Ding, F. Lipparini, F. Egidi, J. Goings, B. Peng, A. Petrone, 
 T. Henderson, D. Ranasinghe, V. G. Zakrzewski, J. Gao, N. Rega, 
 G. Zheng, W. Liang, M. Hada, M. Ehara, K. Toyota, R. Fukuda, 
 J. Hasegawa, M. Ishida, T. Nakajima, Y. Honda, O. Kitao, H. Nakai, 
 T. Vreven, K. Throssell, J. A. Montgomery, Jr., J. E. Peralta, 
 F. Ogliaro, M. J. Bearpark, J. J. Heyd, E. N. Brothers, K. N. Kudin, 
 V. N. Staroverov, T. A. Keith, R. Kobayashi, J. Normand, 
 K. Raghavachari, A. P. Rendell, J. C. Burant, S. S. Iyengar, 
 J. Tomasi, M. Cossi, J. M. Millam, M. Klene, C. Adamo, R. Cammi, 
 J. W. Ochterski, R. L. Martin, K. Morokuma, O. Farkas, 
 J. B. Foresman, and D. J. Fox, Gaussian, Inc., Wallingford CT, 2016.
 
 ******************************************
 Gaussian 16:  ES64L-G16RevB.01 20-Dec-2017
                13-Nov-2023 
 ******************************************
 %mem=14GB
 %chk=checkpoint.chk
 %nprocshared=16
 Will use up to   16 processors via shared memory.
 -------------------------
 #P B3LYP/6-311+g(d) force
 -------------------------
 1/10=7,30=1,38=1/1,3;
 2/12=2,17=6,18=5,40=1/2;
 3/5=4,6=6,7=11,11=2,25=1,30=1,71=1,74=-5/1,2,3;
 4//1;
 5/5=2,38=5/2;
 6/7=2,8=2,9=2,10=2,28=1/1;
 7/29=1/1,2,3,16;
 1/10=7,30=1/3;
 99//99;
 Leave Link    1 at Mon Nov 13 16:32:53 2023, MaxMem=  1879048192 cpu:               0.3 elap:               0.0
 (Enter /home/sekinelabo/g16/l101.exe)
 ------------------------------
 Gaussian input prepared by ASE
 ------------------------------
 Symbolic Z-matrix:
 Charge =  0 Multiplicity = 2
 Na                    2.986     3.85086   1.42634 
 Na                    5.05818   2.33785   2.98976 
 Na                    5.81796   4.82234   1.50033 
 Na                    5.13879   2.31885   0. 
 Na                    3.92917   0.        1.47845 
 Na                    1.26173   1.38722   1.48147 
 Na                    0.        4.10434   1.47933 
 
 ITRead=  0  0  0  0  0  0  0
 MicOpt= -1 -1 -1 -1 -1 -1 -1
 NAtoms=      7 NQM=        7 NQMF=       0 NMMI=      0 NMMIF=      0
                NMic=       0 NMicF=      0.
                    Isotopes and Nuclear Properties:
 (Nuclear quadrupole moments (NQMom) in fm**2, nuclear magnetic moments (NMagM)
  in nuclear magnetons)

  Atom         1           2           3           4           5           6           7
 IAtWgt=          23          23          23          23          23          23          23
 AtmWgt=  22.9897697  22.9897697  22.9897697  22.9897697  22.9897697  22.9897697  22.9897697
 NucSpn=           3           3           3           3           3           3           3
 AtZEff=  -0.0000000  -0.0000000  -0.0000000  -0.0000000  -0.0000000  -0.0000000  -0.0000000
 NQMom=   10.4000000  10.4000000  10.4000000  10.4000000  10.4000000  10.4000000  10.4000000
 NMagM=    2.2175200   2.2175200   2.2175200   2.2175200   2.2175200   2.2175200   2.2175200
 AtZNuc=  11.0000000  11.0000000  11.0000000  11.0000000  11.0000000  11.0000000  11.0000000
 Leave Link  101 at Mon Nov 13 16:32:53 2023, MaxMem=  1879048192 cpu:               2.6 elap:               0.2
 (Enter /home/sekinelabo/g16/l103.exe)

 GradGradGradGradGradGradGradGradGradGradGradGradGradGradGradGradGradGrad
 Berny optimization.
 Initialization pass.
 Trust Radius=3.00D-01 FncErr=1.00D-07 GrdErr=1.00D-07 EigMax=2.50D+02 EigMin=1.00D-04
 Number of steps in this run=      2 maximum allowed number of steps=      2.
 GradGradGradGradGradGradGradGradGradGradGradGradGradGradGradGradGradGrad

 Leave Link  103 at Mon Nov 13 16:32:53 2023, MaxMem=  1879048192 cpu:               0.3 elap:               0.0
 (Enter /home/sekinelabo/g16/l202.exe)
                          Input orientation:                          
 ---------------------------------------------------------------------
 Center     Atomic      Atomic             Coordinates (Angstroms)
 Number     Number       Type             X           Y           Z
 ---------------------------------------------------------------------
      1         11           0        2.985996    3.850862    1.426339
      2         11           0        5.058185    2.337850    2.989763
      3         11           0        5.817962    4.822344    1.500332
      4         11           0        5.138788    2.318852    0.000000
      5         11           0        3.929169    0.000000    1.478452
      6         11           0        1.261730    1.387220    1.481467
      7         11           0        0.000000    4.104341    1.479330
 ---------------------------------------------------------------------
                    Distance matrix (angstroms):
                    1          2          3          4          5
     1  Na   0.000000
     2  Na   3.004574   0.000000
     3  Na   2.994876   2.994725   0.000000
     4  Na   3.002667   2.990909   2.996623   0.000000
     5  Na   3.965026   3.004044   5.179095   3.004342   0.000000
     6  Na   3.007601   4.194248   5.706109   4.253734   3.006595
     7  Na   2.997204   5.566608   5.862137   5.637688   5.681899
                    6          7
     6  Na   0.000000
     7  Na   2.995783   0.000000
 Stoichiometry    Na7(2)
 Framework group  C1[X(Na7)]
 Deg. of freedom    15
 Full point group                 C1      NOp   1
 Largest Abelian subgroup         C1      NOp   1
 Largest concise Abelian subgroup C1      NOp   1
                         Standard orientation:                         
 ---------------------------------------------------------------------
 Center     Atomic      Atomic             Coordinates (Angstroms)
 Number     Number       Type             X           Y           Z
 ---------------------------------------------------------------------
      1         11           0        0.469979   -1.162081   -0.053045
      2         11           0       -1.602209    0.350931    1.510379
      3         11           0       -2.361986   -2.133563    0.020949
      4         11           0       -1.682812    0.369930   -1.479383
      5         11           0       -0.473193    2.688781   -0.000931
      6         11           0        2.194245    1.301561    0.002084
      7         11           0        3.455976   -1.415559   -0.000053
 ---------------------------------------------------------------------
 Rotational constants (GHZ):           1.0194667           0.6731978           0.4855806
 Leave Link  202 at Mon Nov 13 16:32:53 2023, MaxMem=  1879048192 cpu:               0.1 elap:               0.0
 (Enter /home/sekinelabo/g16/l301.exe)
 Standard basis: 6-311+G(d) (5D, 7F)
 Ernie: Thresh=  0.10000D-02 Tol=  0.10000D-05 Strict=F.
 There are   217 symmetry adapted cartesian basis functions of A   symmetry.
 There are   210 symmetry adapted basis functions of A   symmetry.
   210 basis functions,   350 primitive gaussians,   217 cartesian basis functions
    39 alpha electrons       38 beta electrons
       nuclear repulsion energy       371.2275016789 Hartrees.
 IExCor=  402 DFT=T Ex+Corr=B3LYP ExCW=0 ScaHFX=  0.200000
 ScaDFX=  0.800000  0.720000  1.000000  0.810000 ScalE2=  1.000000  1.000000
 IRadAn=      5 IRanWt=     -1 IRanGd=            0 ICorTp=0 IEmpDi=  4
 NAtoms=    7 NActive=    7 NUniq=    7 SFac= 1.00D+00 NAtFMM=   60 NAOKFM=F Big=F
 Integral buffers will be    131072 words long.
 Raffenetti 2 integral format.
 Two-electron integral symmetry is turned on.
 Leave Link  301 at Mon Nov 13 16:32:53 2023, MaxMem=  1879048192 cpu:               0.5 elap:               0.0
 (Enter /home/sekinelabo/g16/l302.exe)
 NPDir=0 NMtPBC=     1 NCelOv=     1 NCel=       1 NClECP=     1 NCelD=      1
         NCelK=      1 NCelE2=     1 NClLst=     1 CellRange=     0.0.
 One-electron integrals computed using PRISM.
 One-electron integral symmetry used in STVInt
 NBasis=   210 RedAO= T EigKep=  2.94D-06  NBF=   210
 NBsUse=   209 1.00D-06 EigRej=  7.24D-07 NBFU=   209
 Precomputing XC quadrature grid using
 IXCGrd= 4 IRadAn=           5 IRanWt=          -1 IRanGd=           0 AccXCQ= 0.00D+00.
 Generated NRdTot=       0 NPtTot=           0 NUsed=           0 NTot=          32
 NSgBfM=   211   211   211   211   211 MxSgAt=     7 MxSgA2=     7.
 Leave Link  302 at Mon Nov 13 16:32:53 2023, MaxMem=  1879048192 cpu:               2.2 elap:               0.1
 (Enter /home/sekinelabo/g16/l303.exe)
 DipDrv:  MaxL=1.
 Leave Link  303 at Mon Nov 13 16:32:54 2023, MaxMem=  1879048192 cpu:               0.5 elap:               0.0
 (Enter /home/sekinelabo/g16/l401.exe)
 ExpMin= 7.60D-03 ExpMax= 3.62D+04 ExpMxC= 1.21D+03 IAcc=3 IRadAn=         5 AccDes= 0.00D+00
 Harris functional with IExCor=  402 and IRadAn=       5 diagonalized for initial guess.
 HarFok:  IExCor=  402 AccDes= 0.00D+00 IRadAn=         5 IDoV= 1 UseB2=F ITyADJ=14
 ICtDFT=  3500011 ScaDFX=  1.000000  1.000000  1.000000  1.000000
 FoFCou: FMM=F IPFlag=           0 FMFlag=      100000 FMFlg1=           0
         NFxFlg=           0 DoJE=T BraDBF=F KetDBF=T FulRan=T
         wScrn=  0.000000 ICntrl=       500 IOpCl=  0 I1Cent=   200000004 NGrid=           0
         NMat0=    1 NMatS0=      1 NMatT0=    0 NMatD0=    1 NMtDS0=    0 NMtDT0=    0
 Petite list used in FoFCou.
 Harris En= -1135.87552728817    
 JPrj=0 DoOrth=F DoCkMO=F.
 Initial guess <Sx>= 0.0000 <Sy>= 0.0000 <Sz>= 0.5000 <S**2>= 0.7500 S= 0.5000
 Leave Link  401 at Mon Nov 13 16:32:54 2023, MaxMem=  1879048192 cpu:               4.7 elap:               0.3
 (Enter /home/sekinelabo/g16/l502.exe)
 Keep R1 and R2 ints in memory in canonical form, NReq=507620374.
 FoFCou: FMM=F IPFlag=           0 FMFlag=           0 FMFlg1=           0
         NFxFlg=           0 DoJE=F BraDBF=F KetDBF=F FulRan=T
         wScrn=  0.000000 ICntrl=       600 IOpCl=  0 I1Cent=           0 NGrid=           0
         NMat0=    1 NMatS0=  22155 NMatT0=    0 NMatD0=    1 NMtDS0=    0 NMtDT0=    0
 Symmetry not used in FoFCou.
 Two-electron integral symmetry not used.
 UHF open shell SCF:
 Using DIIS extrapolation, IDIIS=  1040.
 NGot=  1879048192 LenX=  1388082362 LenY=  1388034832
 Requested convergence on RMS density matrix=1.00D-08 within 128 cycles.
 Requested convergence on MAX density matrix=1.00D-06.
 Requested convergence on             energy=1.00D-06.
 No special actions if energy rises.

 Cycle   1  Pass 1  IDiag  1:
 E= -1136.06292219852    
 DIIS: error= 1.35D-02 at cycle   1 NSaved=   1.
 NSaved= 1 IEnMin= 1 EnMin= -1136.06292219852     IErMin= 1 ErrMin= 1.35D-02
 ErrMax= 1.35D-02  0.00D+00 EMaxC= 1.00D-01 BMatC= 2.00D-01 BMatP= 2.00D-01
 IDIUse=3 WtCom= 8.65D-01 WtEn= 1.35D-01
 Coeff-Com:  0.100D+01
 Coeff-En:   0.100D+01
 Coeff:      0.100D+01
 Gap=     0.034 Goal=   None    Shift=    0.000
 Gap=     0.063 Goal=   None    Shift=    0.000
 GapD=    0.034 DampG=0.250 DampE=0.500 DampFc=0.2500 IDamp=-1.
 Damping current iteration by 2.50D-01
 RMSDP=8.01D-02 MaxDP=7.65D+00              OVMax= 2.58D-01

 Cycle   2  Pass 1  IDiag  1:
 E= -1136.07758006867     Delta-E=       -0.014657870151 Rises=F Damp=T
 DIIS: error= 9.72D-03 at cycle   2 NSaved=   2.
 NSaved= 2 IEnMin= 2 EnMin= -1136.07758006867     IErMin= 2 ErrMin= 9.72D-03
 ErrMax= 9.72D-03  0.00D+00 EMaxC= 1.00D-01 BMatC= 7.54D-02 BMatP= 2.00D-01
 IDIUse=3 WtCom= 9.03D-01 WtEn= 9.72D-02
 Coeff-Com: -0.125D+01 0.225D+01
 Coeff-En:   0.000D+00 0.100D+01
 Coeff:     -0.113D+01 0.213D+01
 Gap=     0.050 Goal=   None    Shift=    0.000
 Gap=     0.071 Goal=   None    Shift=    0.000
 RMSDP=3.40D-02 MaxDP=2.87D+00 DE=-1.47D-02 OVMax= 1.81D-01

 Cycle   3  Pass 1  IDiag  1:
 E= -1136.10127136521     Delta-E=       -0.023691296538 Rises=F Damp=F
 DIIS: error= 3.62D-03 at cycle   3 NSaved=   3.
 NSaved= 3 IEnMin= 3 EnMin= -1136.10127136521     IErMin= 3 ErrMin= 3.62D-03
 ErrMax= 3.62D-03  0.00D+00 EMaxC= 1.00D-01 BMatC= 4.51D-03 BMatP= 7.54D-02
 IDIUse=3 WtCom= 9.64D-01 WtEn= 3.62D-02
 Coeff-Com: -0.280D+00 0.508D+00 0.772D+00
 Coeff-En:   0.000D+00 0.000D+00 0.100D+01
 Coeff:     -0.270D+00 0.490D+00 0.780D+00
 Gap=     0.041 Goal=   None    Shift=    0.000
 Gap=     0.062 Goal=   None    Shift=    0.000
 RMSDP=1.74D-02 MaxDP=1.72D+00 DE=-2.37D-02 OVMax= 8.28D-02

 Cycle   4  Pass 1  IDiag  1:
 E= -1136.10166544359     Delta-E=       -0.000394078374 Rises=F Damp=F
 DIIS: error= 2.82D-03 at cycle   4 NSaved=   4.
 NSaved= 4 IEnMin= 4 EnMin= -1136.10166544359     IErMin= 4 ErrMin= 2.82D-03
 ErrMax= 2.82D-03  0.00D+00 EMaxC= 1.00D-01 BMatC= 3.45D-03 BMatP= 4.51D-03
 IDIUse=3 WtCom= 9.72D-01 WtEn= 2.82D-02
 Coeff-Com:  0.339D-02-0.265D-02 0.466D+00 0.533D+00
 Coeff-En:   0.000D+00 0.000D+00 0.470D+00 0.530D+00
 Coeff:      0.330D-02-0.258D-02 0.466D+00 0.533D+00
 Gap=     0.045 Goal=   None    Shift=    0.000
 Gap=     0.060 Goal=   None    Shift=    0.000
 RMSDP=6.15D-03 MaxDP=6.00D-01 DE=-3.94D-04 OVMax= 5.18D-02

 Cycle   5  Pass 1  IDiag  1:
 E= -1136.10412119140     Delta-E=       -0.002455747815 Rises=F Damp=F
 DIIS: error= 7.18D-04 at cycle   5 NSaved=   5.
 NSaved= 5 IEnMin= 5 EnMin= -1136.10412119140     IErMin= 5 ErrMin= 7.18D-04
 ErrMax= 7.18D-04  0.00D+00 EMaxC= 1.00D-01 BMatC= 1.45D-04 BMatP= 3.45D-03
 IDIUse=3 WtCom= 9.93D-01 WtEn= 7.18D-03
 Coeff-Com:  0.376D-02-0.558D-02 0.284D+00 0.337D+00 0.381D+00
 Coeff-En:   0.000D+00 0.000D+00 0.000D+00 0.000D+00 0.100D+01
 Coeff:      0.374D-02-0.554D-02 0.282D+00 0.334D+00 0.385D+00
 Gap=     0.044 Goal=   None    Shift=    0.000
 Gap=     0.061 Goal=   None    Shift=    0.000
 RMSDP=1.05D-03 MaxDP=1.03D-01 DE=-2.46D-03 OVMax= 1.39D-02

 Cycle   6  Pass 1  IDiag  1:
 E= -1136.10428279899     Delta-E=       -0.000161607593 Rises=F Damp=F
 DIIS: error= 1.11D-04 at cycle   6 NSaved=   6.
 NSaved= 6 IEnMin= 6 EnMin= -1136.10428279899     IErMin= 6 ErrMin= 1.11D-04
 ErrMax= 1.11D-04  0.00D+00 EMaxC= 1.00D-01 BMatC= 2.14D-06 BMatP= 1.45D-04
 IDIUse=3 WtCom= 9.99D-01 WtEn= 1.11D-03
 Coeff-Com: -0.237D-02 0.292D-02-0.338D-01-0.424D-01 0.603D-01 0.102D+01
 Coeff-En:   0.000D+00 0.000D+00 0.000D+00 0.000D+00 0.000D+00 0.100D+01
 Coeff:     -0.236D-02 0.291D-02-0.338D-01-0.423D-01 0.602D-01 0.102D+01
 Gap=     0.044 Goal=   None    Shift=    0.000
 Gap=     0.061 Goal=   None    Shift=    0.000
 RMSDP=3.84D-04 MaxDP=2.93D-02 DE=-1.62D-04 OVMax= 2.81D-03

 Cycle   7  Pass 1  IDiag  1:
 E= -1136.10428668488     Delta-E=       -0.000003885888 Rises=F Damp=F
 DIIS: error= 2.07D-05 at cycle   7 NSaved=   7.
 NSaved= 7 IEnMin= 7 EnMin= -1136.10428668488     IErMin= 7 ErrMin= 2.07D-05
 ErrMax= 2.07D-05  0.00D+00 EMaxC= 1.00D-01 BMatC= 1.25D-07 BMatP= 2.14D-06
 IDIUse=1 WtCom= 1.00D+00 WtEn= 0.00D+00
 Coeff-Com: -0.211D-03 0.261D-03-0.131D-01-0.146D-01-0.957D-02 0.608D-01
 Coeff-Com:  0.976D+00
 Coeff:     -0.211D-03 0.261D-03-0.131D-01-0.146D-01-0.957D-02 0.608D-01
 Coeff:      0.976D+00
 Gap=     0.044 Goal=   None    Shift=    0.000
 Gap=     0.061 Goal=   None    Shift=    0.000
 RMSDP=1.03D-04 MaxDP=6.75D-03 DE=-3.89D-06 OVMax= 1.20D-03

 Cycle   8  Pass 1  IDiag  1:
 E= -1136.10428717471     Delta-E=       -0.000000489829 Rises=F Damp=F
 DIIS: error= 1.54D-05 at cycle   8 NSaved=   8.
 NSaved= 8 IEnMin= 8 EnMin= -1136.10428717471     IErMin= 8 ErrMin= 1.54D-05
 ErrMax= 1.54D-05  0.00D+00 EMaxC= 1.00D-01 BMatC= 5.56D-08 BMatP= 1.25D-07
 IDIUse=1 WtCom= 1.00D+00 WtEn= 0.00D+00
 Coeff-Com:  0.437D-03-0.558D-03-0.127D-02-0.661D-03-0.152D-01-0.132D+00
 Coeff-Com:  0.352D+00 0.797D+00
 Coeff:      0.437D-03-0.558D-03-0.127D-02-0.661D-03-0.152D-01-0.132D+00
 Coeff:      0.352D+00 0.797D+00
 Gap=     0.044 Goal=   None    Shift=    0.000
 Gap=     0.061 Goal=   None    Shift=    0.000
 RMSDP=6.05D-05 MaxDP=5.23D-03 DE=-4.90D-07 OVMax= 8.27D-04

 Cycle   9  Pass 1  IDiag  1:
 E= -1136.10428737020     Delta-E=       -0.000000195492 Rises=F Damp=F
 DIIS: error= 1.26D-05 at cycle   9 NSaved=   9.
 NSaved= 9 IEnMin= 9 EnMin= -1136.10428737020     IErMin= 9 ErrMin= 1.26D-05
 ErrMax= 1.26D-05  0.00D+00 EMaxC= 1.00D-01 BMatC= 2.55D-08 BMatP= 5.56D-08
 IDIUse=1 WtCom= 1.00D+00 WtEn= 0.00D+00
 Coeff-Com:  0.336D-03-0.425D-03 0.257D-02 0.305D-02-0.546D-02-0.813D-01
 Coeff-Com: -0.451D-01 0.403D+00 0.723D+00
 Coeff:      0.336D-03-0.425D-03 0.257D-02 0.305D-02-0.546D-02-0.813D-01
 Coeff:     -0.451D-01 0.403D+00 0.723D+00
 Gap=     0.044 Goal=   None    Shift=    0.000
 Gap=     0.061 Goal=   None    Shift=    0.000
 RMSDP=4.12D-05 MaxDP=3.44D-03 DE=-1.95D-07 OVMax= 5.93D-04

 Cycle  10  Pass 1  IDiag  1:
 E= -1136.10428746680     Delta-E=       -0.000000096593 Rises=F Damp=F
 DIIS: error= 8.59D-06 at cycle  10 NSaved=  10.
 NSaved=10 IEnMin=10 EnMin= -1136.10428746680     IErMin=10 ErrMin= 8.59D-06
 ErrMax= 8.59D-06  0.00D+00 EMaxC= 1.00D-01 BMatC= 9.69D-09 BMatP= 2.55D-08
 IDIUse=1 WtCom= 1.00D+00 WtEn= 0.00D+00
 Coeff-Com: -0.739D-04 0.102D-03 0.197D-02 0.170D-02 0.500D-02 0.245D-01
 Coeff-Com: -0.211D+00-0.217D+00 0.393D+00 0.100D+01
 Coeff:     -0.739D-04 0.102D-03 0.197D-02 0.170D-02 0.500D-02 0.245D-01
 Coeff:     -0.211D+00-0.217D+00 0.393D+00 0.100D+01
 Gap=     0.044 Goal=   None    Shift=    0.000
 Gap=     0.061 Goal=   None    Shift=    0.000
 RMSDP=3.74D-05 MaxDP=2.66D-03 DE=-9.66D-08 OVMax= 6.31D-04

 Cycle  11  Pass 1  IDiag  1:
 E= -1136.10428753034     Delta-E=       -0.000000063541 Rises=F Damp=F
 DIIS: error= 3.73D-06 at cycle  11 NSaved=  11.
 NSaved=11 IEnMin=11 EnMin= -1136.10428753034     IErMin=11 ErrMin= 3.73D-06
 ErrMax= 3.73D-06  0.00D+00 EMaxC= 1.00D-01 BMatC= 1.75D-09 BMatP= 9.69D-09
 IDIUse=1 WtCom= 1.00D+00 WtEn= 0.00D+00
 Coeff-Com: -0.172D-03 0.222D-03-0.133D-03-0.197D-03 0.344D-02 0.333D-01
 Coeff-Com: -0.441D-01-0.169D+00-0.147D+00 0.217D+00 0.111D+01
 Coeff:     -0.172D-03 0.222D-03-0.133D-03-0.197D-03 0.344D-02 0.333D-01
 Coeff:     -0.441D-01-0.169D+00-0.147D+00 0.217D+00 0.111D+01
 Gap=     0.044 Goal=   None    Shift=    0.000
 Gap=     0.061 Goal=   None    Shift=    0.000
 RMSDP=2.07D-05 MaxDP=1.41D-03 DE=-6.35D-08 OVMax= 3.94D-04

 Cycle  12  Pass 1  IDiag  1:
 E= -1136.10428754520     Delta-E=       -0.000000014862 Rises=F Damp=F
 DIIS: error= 1.25D-06 at cycle  12 NSaved=  12.
 NSaved=12 IEnMin=12 EnMin= -1136.10428754520     IErMin=12 ErrMin= 1.25D-06
 ErrMax= 1.25D-06  0.00D+00 EMaxC= 1.00D-01 BMatC= 2.94D-10 BMatP= 1.75D-09
 IDIUse=1 WtCom= 1.00D+00 WtEn= 0.00D+00
 Coeff-Com: -0.199D-04 0.236D-04-0.281D-03-0.202D-03-0.716D-04 0.121D-02
 Coeff-Com:  0.279D-01 0.541D-02-0.931D-01-0.149D+00 0.257D+00 0.951D+00
 Coeff:     -0.199D-04 0.236D-04-0.281D-03-0.202D-03-0.716D-04 0.121D-02
 Coeff:      0.279D-01 0.541D-02-0.931D-01-0.149D+00 0.257D+00 0.951D+00
 Gap=     0.044 Goal=   None    Shift=    0.000
 Gap=     0.061 Goal=   None    Shift=    0.000
 RMSDP=6.66D-06 MaxDP=5.29D-04 DE=-1.49D-08 OVMax= 1.11D-04

 Cycle  13  Pass 1  IDiag  1:
 E= -1136.10428754668     Delta-E=       -0.000000001483 Rises=F Damp=F
 DIIS: error= 5.32D-07 at cycle  13 NSaved=  13.
 NSaved=13 IEnMin=13 EnMin= -1136.10428754668     IErMin=13 ErrMin= 5.32D-07
 ErrMax= 5.32D-07  0.00D+00 EMaxC= 1.00D-01 BMatC= 1.15D-10 BMatP= 2.94D-10
 IDIUse=1 WtCom= 1.00D+00 WtEn= 0.00D+00
 Coeff-Com:  0.277D-04-0.370D-04-0.132D-03-0.778D-04-0.745D-03-0.643D-02
 Coeff-Com:  0.250D-01 0.369D-01-0.196D-01-0.119D+00-0.103D+00 0.496D+00
 Coeff-Com:  0.691D+00
 Coeff:      0.277D-04-0.370D-04-0.132D-03-0.778D-04-0.745D-03-0.643D-02
 Coeff:      0.250D-01 0.369D-01-0.196D-01-0.119D+00-0.103D+00 0.496D+00
 Coeff:      0.691D+00
 Gap=     0.044 Goal=   None    Shift=    0.000
 Gap=     0.061 Goal=   None    Shift=    0.000
 RMSDP=2.47D-06 MaxDP=1.81D-04 DE=-1.48D-09 OVMax= 3.58D-05

 Cycle  14  Pass 1  IDiag  1:
 E= -1136.10428754697     Delta-E=       -0.000000000284 Rises=F Damp=F
 DIIS: error= 1.82D-07 at cycle  14 NSaved=  14.
 NSaved=14 IEnMin=14 EnMin= -1136.10428754697     IErMin=14 ErrMin= 1.82D-07
 ErrMax= 1.82D-07  0.00D+00 EMaxC= 1.00D-01 BMatC= 1.37D-11 BMatP= 1.15D-10
 IDIUse=1 WtCom= 1.00D+00 WtEn= 0.00D+00
 Coeff-Com:  0.970D-05-0.122D-04 0.106D-04-0.757D-05-0.949D-04-0.961D-03
 Coeff-Com: -0.231D-02 0.315D-02 0.162D-01 0.266D-01-0.914D-01-0.141D+00
 Coeff-Com:  0.130D+00 0.106D+01
 Coeff:      0.970D-05-0.122D-04 0.106D-04-0.757D-05-0.949D-04-0.961D-03
 Coeff:     -0.231D-02 0.315D-02 0.162D-01 0.266D-01-0.914D-01-0.141D+00
 Coeff:      0.130D+00 0.106D+01
 Gap=     0.044 Goal=   None    Shift=    0.000
 Gap=     0.061 Goal=   None    Shift=    0.000
 RMSDP=1.62D-06 MaxDP=1.22D-04 DE=-2.84D-10 OVMax= 1.38D-05

 Cycle  15  Pass 1  IDiag  1:
 E= -1136.10428754702     Delta-E=       -0.000000000050 Rises=F Damp=F
 DIIS: error= 9.43D-08 at cycle  15 NSaved=  15.
 NSaved=15 IEnMin=15 EnMin= -1136.10428754702     IErMin=15 ErrMin= 9.43D-08
 ErrMax= 9.43D-08  0.00D+00 EMaxC= 1.00D-01 BMatC= 1.84D-12 BMatP= 1.37D-11
 IDIUse=1 WtCom= 1.00D+00 WtEn= 0.00D+00
 Coeff-Com: -0.335D-05 0.453D-05 0.340D-04 0.256D-04 0.110D-03 0.712D-03
 Coeff-Com: -0.403D-02-0.418D-02 0.332D-02 0.165D-01 0.167D-01-0.798D-01
 Coeff-Com: -0.111D+00 0.118D-01 0.115D+01
 Coeff:     -0.335D-05 0.453D-05 0.340D-04 0.256D-04 0.110D-03 0.712D-03
 Coeff:     -0.403D-02-0.418D-02 0.332D-02 0.165D-01 0.167D-01-0.798D-01
 Coeff:     -0.111D+00 0.118D-01 0.115D+01
 Gap=     0.044 Goal=   None    Shift=    0.000
 Gap=     0.061 Goal=   None    Shift=    0.000
 RMSDP=8.68D-07 MaxDP=9.66D-05 DE=-4.96D-11 OVMax= 7.16D-06

 Cycle  16  Pass 1  IDiag  1:
 E= -1136.10428754704     Delta-E=       -0.000000000026 Rises=F Damp=F
 DIIS: error= 3.93D-08 at cycle  16 NSaved=  16.
 NSaved=16 IEnMin=16 EnMin= -1136.10428754704     IErMin=16 ErrMin= 3.93D-08
 ErrMax= 3.93D-08  0.00D+00 EMaxC= 1.00D-01 BMatC= 3.96D-13 BMatP= 1.84D-12
 IDIUse=1 WtCom= 1.00D+00 WtEn= 0.00D+00
 Coeff-Com: -0.303D-05 0.388D-05-0.152D-05 0.216D-05 0.330D-04 0.266D-03
 Coeff-Com:  0.604D-03-0.951D-03-0.386D-02-0.641D-02 0.236D-01 0.277D-01
 Coeff-Com: -0.349D-01-0.227D+00 0.679D-01 0.115D+01
 Coeff:     -0.303D-05 0.388D-05-0.152D-05 0.216D-05 0.330D-04 0.266D-03
 Coeff:      0.604D-03-0.951D-03-0.386D-02-0.641D-02 0.236D-01 0.277D-01
 Coeff:     -0.349D-01-0.227D+00 0.679D-01 0.115D+01
 Gap=     0.044 Goal=   None    Shift=    0.000
 Gap=     0.061 Goal=   None    Shift=    0.000
 RMSDP=5.27D-07 MaxDP=6.18D-05 DE=-2.59D-11 OVMax= 3.52D-06

 Cycle  17  Pass 1  IDiag  1:
 E= -1136.10428754703     Delta-E=        0.000000000009 Rises=F Damp=F
 DIIS: error= 1.81D-08 at cycle  17 NSaved=  17.
 NSaved=17 IEnMin=16 EnMin= -1136.10428754704     IErMin=17 ErrMin= 1.81D-08
 ErrMax= 1.81D-08  0.00D+00 EMaxC= 1.00D-01 BMatC= 8.87D-14 BMatP= 3.96D-13
 IDIUse=1 WtCom= 1.00D+00 WtEn= 0.00D+00
 Coeff-Com: -0.143D-07-0.443D-07-0.752D-05-0.529D-05-0.130D-04-0.772D-05
 Coeff-Com:  0.686D-03 0.243D-03-0.113D-02-0.317D-02 0.804D-03 0.188D-01
 Coeff-Com:  0.140D-01-0.465D-01-0.217D+00 0.302D+00 0.932D+00
 Coeff:     -0.143D-07-0.443D-07-0.752D-05-0.529D-05-0.130D-04-0.772D-05
 Coeff:      0.686D-03 0.243D-03-0.113D-02-0.317D-02 0.804D-03 0.188D-01
 Coeff:      0.140D-01-0.465D-01-0.217D+00 0.302D+00 0.932D+00
 Gap=     0.044 Goal=   None    Shift=    0.000
 Gap=     0.061 Goal=   None    Shift=    0.000
 RMSDP=1.82D-07 MaxDP=2.29D-05 DE= 9.09D-12 OVMax= 1.29D-06

 Cycle  18  Pass 1  IDiag  1:
 E= -1136.10428754703     Delta-E=        0.000000000000 Rises=F Damp=F
 DIIS: error= 4.29D-09 at cycle  18 NSaved=  18.
 NSaved=18 IEnMin=16 EnMin= -1136.10428754704     IErMin=18 ErrMin= 4.29D-09
 ErrMax= 4.29D-09  0.00D+00 EMaxC= 1.00D-01 BMatC= 8.32D-15 BMatP= 8.87D-14
 IDIUse=1 WtCom= 1.00D+00 WtEn= 0.00D+00
 Coeff-Com:  0.799D-06-0.104D-05-0.485D-06-0.489D-06-0.131D-04-0.103D-03
 Coeff-Com:  0.115D-03 0.382D-03 0.477D-03 0.386D-04-0.430D-02 0.532D-04
 Coeff-Com:  0.101D-01 0.284D-01-0.550D-01-0.126D+00 0.123D+00 0.102D+01
 Coeff:      0.799D-06-0.104D-05-0.485D-06-0.489D-06-0.131D-04-0.103D-03
 Coeff:      0.115D-03 0.382D-03 0.477D-03 0.386D-04-0.430D-02 0.532D-04
 Coeff:      0.101D-01 0.284D-01-0.550D-01-0.126D+00 0.123D+00 0.102D+01
 Gap=     0.044 Goal=   None    Shift=    0.000
 Gap=     0.061 Goal=   None    Shift=    0.000
 RMSDP=5.84D-08 MaxDP=5.71D-06 DE= 2.27D-13 OVMax= 3.88D-07

 Cycle  19  Pass 1  IDiag  1:
 E= -1136.10428754703     Delta-E=       -0.000000000000 Rises=F Damp=F
 DIIS: error= 1.73D-09 at cycle  19 NSaved=  19.
 NSaved=19 IEnMin=16 EnMin= -1136.10428754704     IErMin=19 ErrMin= 1.73D-09
 ErrMax= 1.73D-09  0.00D+00 EMaxC= 1.00D-01 BMatC= 6.50D-16 BMatP= 8.32D-15
 IDIUse=1 WtCom= 1.00D+00 WtEn= 0.00D+00
 Large coefficients: NSaved= 19 BigCof=    0.00 CofMax=   10.00 Det=-2.71D-15
 Inversion failed.  Reducing to 18 matrices.
 Large coefficients: NSaved= 18 BigCof=    0.00 CofMax=   10.00 Det=-5.04D-15
 Inversion failed.  Reducing to 17 matrices.
 Large coefficients: NSaved= 17 BigCof=    0.00 CofMax=   10.00 Det=-5.39D-15
 Inversion failed.  Reducing to 16 matrices.
 Large coefficients: NSaved= 16 BigCof=    0.00 CofMax=   10.00 Det=-5.43D-15
 Inversion failed.  Reducing to 15 matrices.
 Coeff-Com: -0.164D-07-0.282D-05-0.167D-04 0.166D-04 0.381D-04 0.868D-04
 Coeff-Com: -0.883D-04-0.864D-03-0.491D-03 0.333D-02 0.124D-01-0.271D-01
 Coeff-Com: -0.648D-01 0.315D-01 0.105D+01
 Coeff:     -0.164D-07-0.282D-05-0.167D-04 0.166D-04 0.381D-04 0.868D-04
 Coeff:     -0.883D-04-0.864D-03-0.491D-03 0.333D-02 0.124D-01-0.271D-01
 Coeff:     -0.648D-01 0.315D-01 0.105D+01
 Gap=     0.044 Goal=   None    Shift=    0.000
 Gap=     0.061 Goal=   None    Shift=    0.000
 RMSDP=1.27D-08 MaxDP=1.38D-06 DE=-2.27D-13 OVMax= 1.06D-07

 Cycle  20  Pass 1  IDiag  1:
 E= -1136.10428754703     Delta-E=        0.000000000002 Rises=F Damp=F
 DIIS: error= 5.90D-10 at cycle  20 NSaved=  16.
 NSaved=16 IEnMin=12 EnMin= -1136.10428754704     IErMin=16 ErrMin= 5.90D-10
 ErrMax= 5.90D-10  0.00D+00 EMaxC= 1.00D-01 BMatC= 9.49D-17 BMatP= 6.50D-16
 IDIUse=1 WtCom= 1.00D+00 WtEn= 0.00D+00
 Large coefficients: NSaved= 16 BigCof=    0.00 CofMax=   10.00 Det=-2.46D-16
 Inversion failed.  Reducing to 15 matrices.
 Coeff-Com:  0.302D-06-0.134D-05 0.150D-05-0.407D-05-0.107D-04 0.115D-03
 Coeff-Com: -0.143D-03-0.423D-03-0.522D-03 0.273D-02 0.758D-02-0.119D-01
 Coeff-Com: -0.726D-01-0.669D-01 0.114D+01
 Coeff:      0.302D-06-0.134D-05 0.150D-05-0.407D-05-0.107D-04 0.115D-03
 Coeff:     -0.143D-03-0.423D-03-0.522D-03 0.273D-02 0.758D-02-0.119D-01
 Coeff:     -0.726D-01-0.669D-01 0.114D+01
 Gap=     0.044 Goal=   None    Shift=    0.000
 Gap=     0.061 Goal=   None    Shift=    0.000
 RMSDP=6.26D-09 MaxDP=6.96D-07 DE= 1.59D-12 OVMax= 3.73D-08

 SCF Done:  E(UB3LYP) =  -1136.10428755     A.U. after   20 cycles
            NFock= 20  Conv=0.63D-08     -V/T= 2.0025
 <Sx>= 0.0000 <Sy>= 0.0000 <Sz>= 0.5000 <S**2>= 0.7586 S= 0.5043
 <L.S>= 0.000000000000E+00
 KE= 1.133289190106D+03 PE=-3.472005364485D+03 EE= 8.313843851540D+02
 Annihilation of the first spin contaminant:
 S**2 before annihilation     0.7586,   after     0.7500
 Leave Link  502 at Mon Nov 13 16:33:11 2023, MaxMem=  1879048192 cpu:             197.1 elap:              17.1
 (Enter /home/sekinelabo/g16/l601.exe)
 Copying SCF densities to generalized density rwf, IOpCl= 1 IROHF=0.

 **********************************************************************

            Population analysis using the SCF Density.

 **********************************************************************

 Orbital symmetries:
 Alpha Orbitals:
       Occupied  (A) (A) (A) (A) (A) (A) (A) (A) (A) (A) (A) (A)
                 (A) (A) (A) (A) (A) (A) (A) (A) (A) (A) (A) (A)
                 (A) (A) (A) (A) (A) (A) (A) (A) (A) (A) (A) (A)
                 (A) (A) (A)
       Virtual   (A) (A) (A) (A) (A) (A) (A) (A) (A) (A) (A) (A)
                 (A) (A) (A) (A) (A) (A) (A) (A) (A) (A) (A) (A)
                 (A) (A) (A) (A) (A) (A) (A) (A) (A) (A) (A) (A)
                 (A) (A) (A) (A) (A) (A) (A) (A) (A) (A) (A) (A)
                 (A) (A) (A) (A) (A) (A) (A) (A) (A) (A) (A) (A)
                 (A) (A) (A) (A) (A) (A) (A) (A) (A) (A) (A) (A)
                 (A) (A) (A) (A) (A) (A) (A) (A) (A) (A) (A) (A)
                 (A) (A) (A) (A) (A) (A) (A) (A) (A) (A) (A) (A)
                 (A) (A) (A) (A) (A) (A) (A) (A) (A) (A) (A) (A)
                 (A) (A) (A) (A) (A) (A) (A) (A) (A) (A) (A) (A)
                 (A) (A) (A) (A) (A) (A) (A) (A) (A) (A) (A) (A)
                 (A) (A) (A) (A) (A) (A) (A) (A) (A) (A) (A) (A)
                 (A) (A) (A) (A) (A) (A) (A) (A) (A) (A) (A) (A)
                 (A) (A) (A) (A) (A) (A) (A) (A) (A) (A) (A) (A)
                 (A) (A)
 Beta  Orbitals:
       Occupied  (A) (A) (A) (A) (A) (A) (A) (A) (A) (A) (A) (A)
                 (A) (A) (A) (A) (A) (A) (A) (A) (A) (A) (A) (A)
                 (A) (A) (A) (A) (A) (A) (A) (A) (A) (A) (A) (A)
                 (A) (A)
       Virtual   (A) (A) (A) (A) (A) (A) (A) (A) (A) (A) (A) (A)
                 (A) (A) (A) (A) (A) (A) (A) (A) (A) (A) (A) (A)
                 (A) (A) (A) (A) (A) (A) (A) (A) (A) (A) (A) (A)
                 (A) (A) (A) (A) (A) (A) (A) (A) (A) (A) (A) (A)
                 (A) (A) (A) (A) (A) (A) (A) (A) (A) (A) (A) (A)
                 (A) (A) (A) (A) (A) (A) (A) (A) (A) (A) (A) (A)
                 (A) (A) (A) (A) (A) (A) (A) (A) (A) (A) (A) (A)
                 (A) (A) (A) (A) (A) (A) (A) (A) (A) (A) (A) (A)
                 (A) (A) (A) (A) (A) (A) (A) (A) (A) (A) (A) (A)
                 (A) (A) (A) (A) (A) (A) (A) (A) (A) (A) (A) (A)
                 (A) (A) (A) (A) (A) (A) (A) (A) (A) (A) (A) (A)
                 (A) (A) (A) (A) (A) (A) (A) (A) (A) (A) (A) (A)
                 (A) (A) (A) (A) (A) (A) (A) (A) (A) (A) (A) (A)
                 (A) (A) (A) (A) (A) (A) (A) (A) (A) (A) (A) (A)
                 (A) (A) (A)
 The electronic state is 2-A.
 Alpha  occ. eigenvalues --  -38.44363 -38.44182 -38.43932 -38.43595 -38.43569
 Alpha  occ. eigenvalues --  -38.43445 -38.43048  -2.20253  -2.20155  -2.19925
 Alpha  occ. eigenvalues --   -2.19706  -2.19671  -2.19607  -2.19044  -1.14048
 Alpha  occ. eigenvalues --   -1.13948  -1.13881  -1.13875  -1.13780  -1.13760
 Alpha  occ. eigenvalues --   -1.13741  -1.13600  -1.13592  -1.13529  -1.13416
 Alpha  occ. eigenvalues --   -1.13398  -1.13286  -1.13267  -1.13223  -1.13217
 Alpha  occ. eigenvalues --   -1.13201  -1.13172  -1.12710  -1.12687  -1.12664
 Alpha  occ. eigenvalues --   -0.20001  -0.14344  -0.12795  -0.10540
 Alpha virt. eigenvalues --   -0.06119  -0.05503  -0.04221  -0.03199  -0.02533
 Alpha virt. eigenvalues --   -0.02053  -0.01668  -0.01188  -0.00332  -0.00096
 Alpha virt. eigenvalues --    0.00242   0.00314   0.00801   0.00929   0.00933
 Alpha virt. eigenvalues --    0.00986   0.01227   0.01272   0.01376   0.01419
 Alpha virt. eigenvalues --    0.01448   0.01742   0.01900   0.01921   0.02234
 Alpha virt. eigenvalues --    0.02263   0.02408   0.02689   0.02802   0.02928
 Alpha virt. eigenvalues --    0.02965   0.03054   0.03075   0.03141   0.03238
 Alpha virt. eigenvalues --    0.03246   0.03322   0.03614   0.03812   0.04255
 Alpha virt. eigenvalues --    0.04472   0.04723   0.04992   0.05090   0.05200
 Alpha virt. eigenvalues --    0.05491   0.05613   0.05687   0.05920   0.06192
 Alpha virt. eigenvalues --    0.06747   0.06993   0.07568   0.07642   0.07694
 Alpha virt. eigenvalues --    0.08121   0.08332   0.08594   0.09234   0.09491
 Alpha virt. eigenvalues --    0.10320   0.10514   0.11380   0.11666   0.12040
 Alpha virt. eigenvalues --    0.12377   0.13146   0.13383   0.13638   0.14027
 Alpha virt. eigenvalues --    0.14131   0.14351   0.14969   0.15493   0.15872
 Alpha virt. eigenvalues --    0.16472   0.16658   0.19246   0.19993   0.24063
 Alpha virt. eigenvalues --    0.24781   0.26586   0.27753   0.27861   0.31554
 Alpha virt. eigenvalues --    0.31957   0.33047   0.33620   0.33962   0.34882
 Alpha virt. eigenvalues --    0.35189   0.36518   0.37671   0.38467   0.38893
 Alpha virt. eigenvalues --    0.39278   0.40623   0.40992   0.42592   0.43568
 Alpha virt. eigenvalues --    0.44149   0.44332   0.45006   0.45194   0.45511
 Alpha virt. eigenvalues --    0.45757   0.45827   0.46915   0.46981   0.47493
 Alpha virt. eigenvalues --    0.48079   0.49147   0.49721   0.50787   0.51125
 Alpha virt. eigenvalues --    0.52272   0.52422   0.53273   0.53911   0.54634
 Alpha virt. eigenvalues --    0.54849   0.56332   0.57121   0.65585   0.68885
 Alpha virt. eigenvalues --    0.69510   0.69927   0.70788   0.72153   0.72994
 Alpha virt. eigenvalues --    0.74071   0.74176   0.76085   0.77166   0.81602
 Alpha virt. eigenvalues --    2.10852   2.16798   2.21013   2.24453   2.27724
 Alpha virt. eigenvalues --    2.27850   2.36526   4.40338   4.41398   4.41597
 Alpha virt. eigenvalues --    4.41782   4.42888   4.43243   4.45007   4.46635
 Alpha virt. eigenvalues --    4.47128   4.49549   4.51034   4.54226   4.57447
 Alpha virt. eigenvalues --    4.58970   4.62735   4.64572   4.71892   4.75703
 Alpha virt. eigenvalues --    4.76445   4.78837   4.81992  96.31710  96.40136
 Alpha virt. eigenvalues --   96.45632  96.50536  96.55244  96.55457  96.66379
  Beta  occ. eigenvalues --  -38.44368 -38.44179 -38.43919 -38.43522 -38.43495
  Beta  occ. eigenvalues --  -38.43422 -38.43036  -2.20261  -2.20152  -2.19908
  Beta  occ. eigenvalues --   -2.19585  -2.19563  -2.19536  -2.19029  -1.14052
  Beta  occ. eigenvalues --   -1.13954  -1.13881  -1.13875  -1.13757  -1.13747
  Beta  occ. eigenvalues --   -1.13736  -1.13591  -1.13524  -1.13471  -1.13331
  Beta  occ. eigenvalues --   -1.13305  -1.13204  -1.13198  -1.13171  -1.13137
  Beta  occ. eigenvalues --   -1.13116  -1.13109  -1.12703  -1.12680  -1.12606
  Beta  occ. eigenvalues --   -0.19266  -0.14177  -0.12515
  Beta virt. eigenvalues --   -0.06424  -0.05898  -0.05492  -0.04245  -0.02570
  Beta virt. eigenvalues --   -0.01839  -0.01792  -0.01210  -0.00779  -0.00341
  Beta virt. eigenvalues --    0.00198   0.00266   0.00404   0.00819   0.00935
  Beta virt. eigenvalues --    0.00995   0.01143   0.01251   0.01443   0.01493
  Beta virt. eigenvalues --    0.01611   0.01676   0.01879   0.01977   0.02005
  Beta virt. eigenvalues --    0.02247   0.02435   0.02484   0.02677   0.02802
  Beta virt. eigenvalues --    0.02989   0.03089   0.03121   0.03168   0.03182
  Beta virt. eigenvalues --    0.03294   0.03332   0.03503   0.03648   0.04023
  Beta virt. eigenvalues --    0.04436   0.04569   0.04747   0.05188   0.05206
  Beta virt. eigenvalues --    0.05228   0.05592   0.05822   0.05960   0.06084
  Beta virt. eigenvalues --    0.06505   0.06756   0.07054   0.07679   0.07711
  Beta virt. eigenvalues --    0.07766   0.08303   0.08412   0.08855   0.09246
  Beta virt. eigenvalues --    0.09851   0.10547   0.10629   0.11692   0.11832
  Beta virt. eigenvalues --    0.12205   0.12963   0.13322   0.13681   0.13806
  Beta virt. eigenvalues --    0.14258   0.14402   0.14514   0.15135   0.15774
  Beta virt. eigenvalues --    0.15957   0.16951   0.17153   0.19387   0.20161
  Beta virt. eigenvalues --    0.24240   0.25248   0.26607   0.27876   0.28284
  Beta virt. eigenvalues --    0.31704   0.32546   0.33620   0.33829   0.34067
  Beta virt. eigenvalues --    0.35360   0.35473   0.36595   0.37950   0.38824
  Beta virt. eigenvalues --    0.39011   0.39419   0.40655   0.41271   0.42572
  Beta virt. eigenvalues --    0.43814   0.44207   0.44323   0.45145   0.45471
  Beta virt. eigenvalues --    0.45716   0.45986   0.46012   0.47203   0.47358
  Beta virt. eigenvalues --    0.47553   0.48375   0.49262   0.49807   0.51027
  Beta virt. eigenvalues --    0.51219   0.52477   0.52685   0.53342   0.54304
  Beta virt. eigenvalues --    0.55048   0.55140   0.56577   0.57350   0.65901
  Beta virt. eigenvalues --    0.69298   0.69573   0.70307   0.70841   0.72454
  Beta virt. eigenvalues --    0.72983   0.74181   0.74416   0.76123   0.77182
  Beta virt. eigenvalues --    0.81685   2.10884   2.16830   2.21031   2.24525
  Beta virt. eigenvalues --    2.27983   2.28089   2.36606   4.40349   4.41431
  Beta virt. eigenvalues --    4.41657   4.41884   4.42949   4.43328   4.45055
  Beta virt. eigenvalues --    4.46661   4.47170   4.49633   4.51057   4.54233
  Beta virt. eigenvalues --    4.57587   4.58986   4.62740   4.64703   4.71891
  Beta virt. eigenvalues --    4.75716   4.76523   4.78875   4.82049  96.31726
  Beta virt. eigenvalues --   96.40150  96.45641  96.50559  96.55287  96.55561
  Beta virt. eigenvalues --   96.66413
          Condensed to atoms (all electrons):
               1          2          3          4          5          6
     1  Na  16.004001  -1.538373  -3.089108  -1.260879   2.010684   0.343312
     2  Na  -1.538373  15.052195   0.081084  -1.348680  -0.641568   0.175441
     3  Na  -3.089108   0.081084  14.955497   0.115934  -3.736806   1.182356
     4  Na  -1.260879  -1.348680   0.115934  14.589175  -0.391110   0.025766
     5  Na   2.010684  -0.641568  -3.736806  -0.391110  14.951053  -1.874744
     6  Na   0.343312   0.175441   1.182356   0.025766  -1.874744  11.792545
     7  Na  -0.723731  -0.176793   0.731814  -0.183383  -0.178946  -0.185091
               7
     1  Na  -0.723731
     2  Na  -0.176793
     3  Na   0.731814
     4  Na  -0.183383
     5  Na  -0.178946
     6  Na  -0.185091
     7  Na  10.981175
          Atomic-Atomic Spin Densities.
               1          2          3          4          5          6
     1  Na   1.272167  -0.218104  -0.780719  -0.016773   0.629787  -0.165212
     2  Na  -0.218104   2.238598   0.146110  -1.870610  -0.256262   0.135140
     3  Na  -0.780719   0.146110   0.366397   0.257712  -0.199336   0.100591
     4  Na  -0.016773  -1.870610   0.257712   1.894161  -0.215362   0.091123
     5  Na   0.629787  -0.256262  -0.199336  -0.215362   0.252826  -0.127750
     6  Na  -0.165212   0.135140   0.100591   0.091123  -0.127750   0.080000
     7  Na  -0.101005   0.025984  -0.041296   0.030448   0.087198  -0.054476
               7
     1  Na  -0.101005
     2  Na   0.025984
     3  Na  -0.041296
     4  Na   0.030448
     5  Na   0.087198
     6  Na  -0.054476
     7  Na  -0.018522
 Mulliken charges and spin densities:
               1          2
     1  Na  -0.745907   0.620141
     2  Na  -0.603305   0.200855
     3  Na   0.759229  -0.150542
     4  Na  -0.546823   0.170700
     5  Na   0.861437   0.171100
     6  Na  -0.459586   0.059416
     7  Na   0.734955  -0.071669
 Sum of Mulliken charges =  -0.00000   1.00000
 Mulliken charges and spin densities with hydrogens summed into heavy atoms:
               1          2
     1  Na  -0.745907   0.620141
     2  Na  -0.603305   0.200855
     3  Na   0.759229  -0.150542
     4  Na  -0.546823   0.170700
     5  Na   0.861437   0.171100
     6  Na  -0.459586   0.059416
     7  Na   0.734955  -0.071669
 Electronic spatial extent (au):  <R**2>=           2097.4205
 Charge=             -0.0000 electrons
 Dipole moment (field-independent basis, Debye):
    X=              0.5487    Y=             -0.3157    Z=              0.0195  Tot=              0.6333
 Quadrupole moment (field-independent basis, Debye-Ang):
   XX=            -53.8942   YY=            -63.1014   ZZ=            -75.8595
   XY=              0.8910   XZ=              0.1007   YZ=             -0.0837
 Traceless Quadrupole moment (field-independent basis, Debye-Ang):
   XX=             10.3908   YY=              1.1837   ZZ=            -11.5745
   XY=              0.8910   XZ=              0.1007   YZ=             -0.0837
 Octapole moment (field-independent basis, Debye-Ang**2):
  XXX=             32.3816  YYY=             -2.2629  ZZZ=              0.4298  XYY=              0.8348
  XXY=            -24.9833  XXZ=              0.0233  XZZ=             -3.0147  YZZ=              2.4309
  YYZ=              0.0047  XYZ=              0.1192
 Hexadecapole moment (field-independent basis, Debye-Ang**3):
 XXXX=          -1612.2149 YYYY=          -1180.1925 ZZZZ=           -618.6473 XXXY=            -25.8346
 XXXZ=              2.8945 YYYX=             34.0465 YYYZ=             -1.0652 ZZZX=              0.1739
 ZZZY=             -0.1285 XXYY=           -413.8391 XXZZ=           -411.7422 YYZZ=           -337.9584
 XXYZ=             -1.5098 YYXZ=             -0.4067 ZZXY=             -8.5547
 N-N= 3.712275016789D+02 E-N=-3.472005364458D+03  KE= 1.133289190106D+03
                          Isotropic Fermi Contact Couplings
        Atom                 a.u.       MegaHertz       Gauss      10(-4) cm-1
     1  Na(23)             0.00508       6.00433       2.14250       2.00283
     2  Na(23)             0.29206     345.51695     123.28904     115.25205
     3  Na(23)            -0.01564     -18.50084      -6.60156      -6.17121
     4  Na(23)             0.28545     337.69307     120.49728     112.64228
     5  Na(23)            -0.01532     -18.11831      -6.46506      -6.04362
     6  Na(23)            -0.01328     -15.70533      -5.60405      -5.23873
     7  Na(23)            -0.02606     -30.82419     -10.99884     -10.28184
 --------------------------------------------------------
       Center         ----  Spin Dipole Couplings  ----
                      3XX-RR        3YY-RR        3ZZ-RR
 --------------------------------------------------------
     1   Atom       -0.038941     -0.037414      0.076355
     2   Atom       -0.003958      0.003804      0.000155
     3   Atom       -0.025559     -0.027648      0.053207
     4   Atom       -0.003985      0.002367      0.001618
     5   Atom       -0.026314     -0.022109      0.048423
     6   Atom       -0.010431     -0.012571      0.023002
     7   Atom       -0.000337     -0.004053      0.004389
 --------------------------------------------------------
                        XY            XZ            YZ
 --------------------------------------------------------
     1   Atom        0.003256      0.001582     -0.001531
     2   Atom       -0.000865      0.010389     -0.008953
     3   Atom        0.001223      0.000997      0.000499
     4   Atom       -0.001089     -0.011940      0.008953
     5   Atom        0.000523      0.001201      0.000079
     6   Atom        0.005495     -0.000410      0.000262
     7   Atom       -0.001955      0.000035      0.000020
 --------------------------------------------------------


 ---------------------------------------------------------------------------------
              Anisotropic Spin Dipole Couplings in Principal Axis System
 ---------------------------------------------------------------------------------

       Atom             a.u.   MegaHertz   Gauss  10(-4) cm-1        Axes

              Baa    -0.0416    -5.869    -2.094    -1.958  0.7832 -0.6215 -0.0186
     1 Na(23) Bbb    -0.0348    -4.919    -1.755    -1.641  0.6216  0.7833  0.0019
              Bcc     0.0764    10.788     3.849     3.599  0.0133 -0.0131  0.9998
 
              Baa    -0.0141    -1.993    -0.711    -0.665 -0.6676  0.3067  0.6784
     2 Na(23) Bbb    -0.0003    -0.045    -0.016    -0.015  0.6197  0.7339  0.2781
              Bcc     0.0144     2.039     0.727     0.680  0.4125 -0.6061  0.6800
 
              Baa    -0.0282    -3.984    -1.422    -1.329 -0.4186  0.9082 -0.0004
     3 Na(23) Bbb    -0.0250    -3.532    -1.260    -1.178  0.9081  0.4186 -0.0142
              Bcc     0.0532     7.516     2.682     2.507  0.0128  0.0064  0.9999
 
              Baa    -0.0149    -2.107    -0.752    -0.703  0.6902 -0.2980  0.6595
     4 Na(23) Bbb    -0.0008    -0.119    -0.042    -0.040  0.5559  0.8017 -0.2196
              Bcc     0.0158     2.226     0.794     0.743 -0.4633  0.5181  0.7190
 
              Baa    -0.0264    -3.728    -1.330    -1.243  0.9926 -0.1207 -0.0158
     5 Na(23) Bbb    -0.0220    -3.113    -1.111    -1.038  0.1207  0.9927 -0.0032
              Bcc     0.0484     6.841     2.441     2.282  0.0161  0.0012  0.9999
 
              Baa    -0.0171    -2.415    -0.862    -0.806 -0.6361  0.7716 -0.0115
     6 Na(23) Bbb    -0.0059    -0.834    -0.297    -0.278  0.7716  0.6361  0.0052
              Bcc     0.0230     3.249     1.159     1.084 -0.0113  0.0056  0.9999
 
              Baa    -0.0049    -0.691    -0.246    -0.230  0.3944  0.9189 -0.0035
     7 Na(23) Bbb     0.0005     0.071     0.025     0.024  0.9189 -0.3944 -0.0062
              Bcc     0.0044     0.620     0.221     0.207  0.0071  0.0007  1.0000
 

 ---------------------------------------------------------------------------------

 No NMR shielding tensors so no spin-rotation constants.
 Leave Link  601 at Mon Nov 13 16:33:11 2023, MaxMem=  1879048192 cpu:               2.5 elap:               0.2
 (Enter /home/sekinelabo/g16/l701.exe)
 ... and contract with generalized density number  0.
 Compute integral first derivatives.
 Leave Link  701 at Mon Nov 13 16:33:11 2023, MaxMem=  1879048192 cpu:               1.6 elap:               0.1
 (Enter /home/sekinelabo/g16/l702.exe)
 L702 exits ... SP integral derivatives will be done elsewhere.
 Leave Link  702 at Mon Nov 13 16:33:12 2023, MaxMem=  1879048192 cpu:               0.5 elap:               0.0
 (Enter /home/sekinelabo/g16/l703.exe)
 Integral derivatives from FoFJK, PRISM(SPDF).
 Compute integral first derivatives, UseDBF=F ICtDFT=           0.
 Calling FoFJK, ICntrl=      2127 FMM=F ISym2X=0 I1Cent= 0 IOpClX= 1 NMat=1 NMatS=1 NMatT=0.
 FoFJK:  IHMeth= 1 ICntrl=    2127 DoSepK=F KAlg= 0 I1Cent=           0 FoldK=F
 IRaf=         0 NMat=       1 IRICut=       1 DoRegI=T DoRafI=F ISym2E= 0 IDoP0=0 IntGTp=1.
 FoFCou: FMM=F IPFlag=           0 FMFlag=      100000 FMFlg1=         800
         NFxFlg=           0 DoJE=F BraDBF=F KetDBF=F FulRan=T
         wScrn=  0.000000 ICntrl=      2127 IOpCl=  1 I1Cent=           0 NGrid=           0
         NMat0=    1 NMatS0=      1 NMatT0=    0 NMatD0=    1 NMtDS0=    0 NMtDT0=    0
 Symmetry not used in FoFCou.
 Leave Link  703 at Mon Nov 13 16:33:14 2023, MaxMem=  1879048192 cpu:              36.2 elap:               2.3
 (Enter /home/sekinelabo/g16/l716.exe)
 Dipole        = 2.15856312D-01-1.24222772D-01 7.65956661D-03
 ***** Axes restored to original set *****
 -------------------------------------------------------------------
 Center     Atomic                   Forces (Hartrees/Bohr)
 Number     Number              X              Y              Z
 -------------------------------------------------------------------
      1       11          -0.004872219    0.008460714   -0.000679109
      2       11           0.003280731   -0.003814731    0.017651129
      3       11           0.008423821    0.013741613    0.000188014
      4       11           0.004188678   -0.003989977   -0.017327764
      5       11           0.000607279   -0.013884726   -0.000079170
      6       11          -0.003995235   -0.006724334    0.000152143
      7       11          -0.007633055    0.006211440    0.000094757
 -------------------------------------------------------------------
 Cartesian Forces:  Max     0.017651129 RMS     0.008098861
 Z-matrix is all fixed cartesians, so copy forces.
 Force constants in Cartesian coordinates: 
                1             2             3             4             5 
      1  0.222655D+00
      2 -0.140266D-01  0.244381D+00
      3  0.138895D-02 -0.482082D-03  0.188238D+00
      4 -0.376932D-01  0.254507D-02 -0.200512D-01  0.870843D-01
      5  0.827421D-02 -0.364275D-01  0.234929D-01  0.840170D-02  0.110834D+00
      6  0.337471D-02  0.804172D-03 -0.372083D-01  0.234325D-01 -0.152618D-01
      7 -0.522868D-01 -0.174272D-01 -0.377874D-03 -0.122020D-01 -0.745917D-03
      8  0.250948D-01 -0.478820D-01  0.429429D-03 -0.183320D-01 -0.350098D-01
      9 -0.147026D-02 -0.123755D-02 -0.303080D-01  0.105816D-01  0.316916D-01
     10 -0.395171D-01  0.226087D-02  0.201292D-01 -0.115666D-01  0.166933D-02
     11  0.891800D-02 -0.383106D-01 -0.231410D-01  0.144279D-02 -0.129380D-01
     12 -0.416557D-02  0.100254D-04 -0.356836D-01  0.120279D-01 -0.723802D-02
     13 -0.101854D-01  0.864977D-02 -0.176211D-03 -0.200334D-01 -0.145152D-01
     14 -0.830300D-03 -0.232327D-01 -0.304168D-03  0.521408D-02 -0.353826D-01
     15 -0.385341D-03  0.879979D-03 -0.116093D-01 -0.127829D-01 -0.293400D-01
     16 -0.389961D-01  0.818528D-02 -0.772023D-03 -0.583452D-02 -0.332065D-02
     17 -0.702855D-02 -0.516358D-01  0.715912D-03 -0.326616D-02  0.580579D-02
     18  0.642782D-04  0.145020D-02 -0.315107D-01 -0.795144D-02 -0.180454D-02
     19 -0.439764D-01  0.981277D-02 -0.140865D-03  0.245373D-03  0.236558D-03
     20 -0.204016D-01 -0.468919D-01 -0.710994D-03  0.399448D-02  0.311843D-02
     21  0.119322D-02 -0.142474D-02 -0.419178D-01 -0.525649D-02 -0.154008D-02
                6             7             8             9            10 
      6  0.146529D+00
      7 -0.910787D-02  0.696325D-01
      8  0.121915D-02  0.250780D-01  0.109980D+00
      9 -0.278800D-01  0.377984D-04  0.645738D-03  0.603136D-01
     10 -0.965251D-02 -0.121283D-01 -0.183648D-01 -0.951370D-02  0.898024D-01
     11  0.676981D-02  0.110054D-02 -0.352672D-01 -0.315491D-01  0.739392D-02
     12 -0.559955D-01  0.996745D-02 -0.220663D-02 -0.274154D-01 -0.271181D-01
     13 -0.745038D-02  0.495987D-02 -0.744627D-02 -0.159052D-03 -0.212842D-01
     14  0.843548D-02 -0.357150D-02 -0.454580D-02  0.296074D-04  0.595704D-02
     15 -0.330717D-01 -0.206525D-03 -0.134460D-03  0.139388D-01  0.136158D-01
     16 -0.499953D-03  0.226479D-02 -0.671761D-02  0.368319D-03 -0.574993D-02
     17  0.309869D-03 -0.167552D-02  0.472689D-02 -0.141506D-03 -0.310863D-02
     18  0.226569D-02  0.187835D-04 -0.458271D-03  0.528448D-02  0.761199D-02
     19 -0.965264D-04 -0.240043D-03  0.687919D-03  0.155305D-03  0.443746D-03
     20 -0.227668D-02 -0.275836D-02  0.799814D-02  0.561271D-03  0.419230D-02
     21  0.536051D-02 -0.331756D-03  0.505048D-03  0.606644D-02  0.492722D-02
               11            12            13            14            15 
     11  0.111961D+00
     12  0.160525D-01  0.143215D+00
     13 -0.158490D-01  0.837855D-02  0.818538D-01
     14 -0.354142D-01 -0.850206D-02  0.133211D-02  0.131888D+00
     15  0.284841D-01 -0.320883D-01 -0.564590D-03  0.207415D-03  0.691800D-01
     16 -0.335881D-02  0.618876D-03 -0.390670D-01 -0.144802D-01  0.263540D-03
     17  0.619123D-02 -0.385673D-03  0.203706D-01 -0.376721D-01 -0.219182D-05
     18  0.163284D-02  0.252793D-02  0.478921D-04  0.101245D-03 -0.116006D-01
     19  0.352557D-03  0.290838D-03  0.375628D-02  0.637877D-02  0.599755D-04
     20  0.377758D-02  0.226985D-02  0.745801D-02  0.435983D-02 -0.948903D-04
     21  0.175078D-02  0.543955D-02 -0.762064D-04  0.324837D-04  0.525108D-02
               16            17            18            19            20 
     16  0.109603D+00
     17 -0.236372D-03  0.113454D+00
     18  0.190312D-04 -0.770880D-03  0.351648D-01
     19 -0.222206D-01 -0.505536D-02  0.189470D-03  0.619917D-01
     20  0.199284D-01 -0.408695D-01 -0.150595D-03 -0.124132D-01  0.685074D-01
     21  0.220911D-05  0.274471D-03 -0.213160D-02 -0.458197D-03  0.402043D-03
               21 
     21  0.219319D-01
 Leave Link  716 at Mon Nov 13 16:33:14 2023, MaxMem=  1879048192 cpu:               0.5 elap:               0.0
 (Enter /home/sekinelabo/g16/l103.exe)

 GradGradGradGradGradGradGradGradGradGradGradGradGradGradGradGradGradGrad
 Berny optimization.
 Search for a local minimum.
 Step number   1 out of a maximum of    2
 All quantities printed in internal units (Hartrees-Bohrs-Radians)
 Second derivative matrix not updated -- first step.
 ITU=  0
     Eigenvalues ---    0.03523   0.05333   0.07058   0.08515   0.09003
     Eigenvalues ---    0.10136   0.14553   0.14672   0.16052   0.16140
     Eigenvalues ---    0.19055   0.21216   0.24231   0.26502   0.30005
 Quadratic step=3.548D-01 exceeds max=3.000D-01 adjusted using Lamda=-1.437D-02.
 Angle between NR and scaled steps=   3.57 degrees.
 Angle between quadratic step and forces=  24.00 degrees.
 Linear search not attempted -- first point.
 B after Tr=    -0.000000   -0.000000    0.000000
         Rot=    1.000000    0.000000    0.000000   -0.000000 Ang=   0.00 deg.
 Variable       Old X    -DE/DX   Delta X   Delta X   Delta X     New X
                                 (Linear)    (Quad)   (Total)
    X1        5.64272  -0.00487   0.00000  -0.02289  -0.02289   5.61982
    Y1        7.27707   0.00846   0.00000   0.04681   0.04681   7.32389
    Z1        2.69539  -0.00068   0.00000  -0.00267  -0.00267   2.69272
    X2        9.55858   0.00328   0.00000   0.05296   0.05296   9.61154
    Y2        4.41790  -0.00381   0.00000  -0.01897  -0.01897   4.39893
    Z2        5.64983   0.01765   0.00000   0.08701   0.08701   5.73685
    X3       10.99435   0.00842   0.00000   0.09552   0.09552  11.08987
    Y3        9.11291   0.01374   0.00000   0.10799   0.10799   9.22090
    Z3        2.83522   0.00019   0.00000   0.00132   0.00132   2.83653
    X4        9.71090   0.00419   0.00000   0.05737   0.05737   9.76827
    Y4        4.38199  -0.00399   0.00000  -0.01967  -0.01967   4.36233
    Z4        0.00000  -0.01733   0.00000  -0.08589  -0.08589  -0.08589
    X5        7.42505   0.00061   0.00000   0.01794   0.01794   7.44299
    Y5        0.00000  -0.01388   0.00000  -0.12440  -0.12440  -0.12440
    Z5        2.79387  -0.00008   0.00000  -0.00038  -0.00038   2.79349
    X6        2.38432  -0.00400   0.00000  -0.07552  -0.07552   2.30880
    Y6        2.62147  -0.00672   0.00000  -0.05726  -0.05726   2.56421
    Z6        2.79957   0.00015   0.00000   0.00097   0.00097   2.80054
    X7        0.00000  -0.00763   0.00000  -0.12537  -0.12537  -0.12537
    Y7        7.75608   0.00621   0.00000   0.06550   0.06550   7.82158
    Z7        2.79553   0.00009   0.00000  -0.00036  -0.00036   2.79517
         Item               Value     Threshold  Converged?
 Maximum Force            0.017651     0.000450     NO 
 RMS     Force            0.008099     0.000300     NO 
 Maximum Displacement     0.125368     0.001800     NO 
 RMS     Displacement     0.065498     0.001200     NO 
 Predicted change in Energy=-5.735452D-03
 GradGradGradGradGradGradGradGradGradGradGradGradGradGradGradGradGradGrad

 Leave Link  103 at Mon Nov 13 16:33:14 2023, MaxMem=  1879048192 cpu:               0.2 elap:               0.0
 (Enter /home/sekinelabo/g16/l9999.exe)
 1\1\GINC-SEKINELABO-XA7R-R37\Force\UB3LYP\6-311+G(d)\Na7(2)\SEKINELABO
 \13-Nov-2023\0\\#P B3LYP/6-311+g(d) force\\Gaussian input prepared by 
 ASE\\0,2\Na,2.9859961925,3.8508619178,1.4263388601\Na,5.0581846601,2.3
 378503748,2.9897626199\Na,5.8179620759,4.8223444553,1.5003323548\Na,5.
 1387876524,2.3188515171,0.\Na,3.9291688967,0.,1.4784520523\Na,1.261730
 3408,1.3872197447,1.4814672529\Na,0.,4.1043405816,1.4793304055\\Versio
 n=ES64L-G16RevB.01\State=2-A\HF=-1136.1042875\S2=0.758579\S2-1=0.\S2A=
 0.750047\RMSD=6.260e-09\RMSF=8.099e-03\Dipole=-0.2158563,0.1242228,0.0
 076596\Quadrupole=7.7253131,0.880026,-8.6053392,0.6624677,-0.0748566,0
 .0622066\PG=C01 [X(Na7)]\\@


 There are more things in heaven and earth, Horatio,
 than are dreamt of in your philosophy.
                   -- Hamlet, Act I, Scene 5
 Job cpu time:       0 days  0 hours  4 minutes 10.6 seconds.
 Elapsed time:       0 days  0 hours  0 minutes 20.5 seconds.
 File lengths (MBytes):  RWF=     32 Int=      0 D2E=      0 Chk=      5 Scr=      1
 Normal termination of Gaussian 16 at Mon Nov 13 16:33:14 2023.
