 Entering Gaussian System, Link 0=g16
 Initial command:
 /home/sekinelabo/g16/l1.exe "/home/sekinelabo/g16temp/Gau-4136264.inp" -scrdir="/home/sekinelabo/g16temp/"
 Entering Link 1 = /home/sekinelabo/g16/l1.exe PID=   4136266.
  
 Copyright (c) 1988-2017, Gaussian, Inc.  All Rights Reserved.
  
 This is part of the Gaussian(R) 16 program.  It is based on
 the Gaussian(R) 09 system (copyright 2009, Gaussian, Inc.),
 the Gaussian(R) 03 system (copyright 2003, Gaussian, Inc.),
 the Gaussian(R) 98 system (copyright 1998, Gaussian, Inc.),
 the Gaussian(R) 94 system (copyright 1995, Gaussian, Inc.),
 the Gaussian 92(TM) system (copyright 1992, Gaussian, Inc.),
 the Gaussian 90(TM) system (copyright 1990, Gaussian, Inc.),
 the Gaussian 88(TM) system (copyright 1988, Gaussian, Inc.),
 the Gaussian 86(TM) system (copyright 1986, Carnegie Mellon
 University), and the Gaussian 82(TM) system (copyright 1983,
 Carnegie Mellon University). Gaussian is a federally registered
 trademark of Gaussian, Inc.
  
 This software contains proprietary and confidential information,
 including trade secrets, belonging to Gaussian, Inc.
  
 This software is provided under written license and may be
 used, copied, transmitted, or stored only in accord with that
 written license.
  
 The following legend is applicable only to US Government
 contracts under FAR:
  
                    RESTRICTED RIGHTS LEGEND
  
 Use, reproduction and disclosure by the US Government is
 subject to restrictions as set forth in subparagraphs (a)
 and (c) of the Commercial Computer Software - Restricted
 Rights clause in FAR 52.227-19.
  
 Gaussian, Inc.
 340 Quinnipiac St., Bldg. 40, Wallingford CT 06492
  
  
 ---------------------------------------------------------------
 Warning -- This program may not be used in any manner that
 competes with the business of Gaussian, Inc. or will provide
 assistance to any competitor of Gaussian, Inc.  The licensee
 of this program is prohibited from giving any competitor of
 Gaussian, Inc. access to this program.  By using this program,
 the user acknowledges that Gaussian, Inc. is engaged in the
 business of creating and licensing software in the field of
 computational chemistry and represents and warrants to the
 licensee that it is not a competitor of Gaussian, Inc. and that
 it will not use this program in any manner prohibited above.
 ---------------------------------------------------------------
  

 Cite this work as:
 Gaussian 16, Revision B.01,
 M. J. Frisch, G. W. Trucks, H. B. Schlegel, G. E. Scuseria, 
 M. A. Robb, J. R. Cheeseman, G. Scalmani, V. Barone, 
 G. A. Petersson, H. Nakatsuji, X. Li, M. Caricato, A. V. Marenich, 
 J. Bloino, B. G. Janesko, R. Gomperts, B. Mennucci, H. P. Hratchian, 
 J. V. Ortiz, A. F. Izmaylov, J. L. Sonnenberg, D. Williams-Young, 
 F. Ding, F. Lipparini, F. Egidi, J. Goings, B. Peng, A. Petrone, 
 T. Henderson, D. Ranasinghe, V. G. Zakrzewski, J. Gao, N. Rega, 
 G. Zheng, W. Liang, M. Hada, M. Ehara, K. Toyota, R. Fukuda, 
 J. Hasegawa, M. Ishida, T. Nakajima, Y. Honda, O. Kitao, H. Nakai, 
 T. Vreven, K. Throssell, J. A. Montgomery, Jr., J. E. Peralta, 
 F. Ogliaro, M. J. Bearpark, J. J. Heyd, E. N. Brothers, K. N. Kudin, 
 V. N. Staroverov, T. A. Keith, R. Kobayashi, J. Normand, 
 K. Raghavachari, A. P. Rendell, J. C. Burant, S. S. Iyengar, 
 J. Tomasi, M. Cossi, J. M. Millam, M. Klene, C. Adamo, R. Cammi, 
 J. W. Ochterski, R. L. Martin, K. Morokuma, O. Farkas, 
 J. B. Foresman, and D. J. Fox, Gaussian, Inc., Wallingford CT, 2016.
 
 ******************************************
 Gaussian 16:  ES64L-G16RevB.01 20-Dec-2017
                13-Nov-2023 
 ******************************************
 %mem=14GB
 %chk=checkpoint.chk
 %nprocshared=16
 Will use up to   16 processors via shared memory.
 -------------------------
 #P B3LYP/6-311+g(d) force
 -------------------------
 1/10=7,30=1,38=1/1,3;
 2/12=2,17=6,18=5,40=1/2;
 3/5=4,6=6,7=11,11=2,25=1,30=1,71=1,74=-5/1,2,3;
 4//1;
 5/5=2,38=5/2;
 6/7=2,8=2,9=2,10=2,28=1/1;
 7/29=1/1,2,3,16;
 1/10=7,30=1/3;
 99//99;
 Leave Link    1 at Mon Nov 13 19:07:45 2023, MaxMem=  1879048192 cpu:               0.3 elap:               0.0
 (Enter /home/sekinelabo/g16/l101.exe)
 ------------------------------
 Gaussian input prepared by ASE
 ------------------------------
 Symbolic Z-matrix:
 Charge =  0 Multiplicity = 2
 Na                    3.50764   4.67817   2.77368 
 Na                    3.10136   3.60958   0. 
 Na                    7.4641    1.97076   1.39579 
 Na                    4.53749   1.95623   2.05224 
 Na                    0.92922   5.19414   1.3325 
 Na                    1.58321   2.42907   2.30073 
 Na                    0.        0.        1.52511 
 
 ITRead=  0  0  0  0  0  0  0
 MicOpt= -1 -1 -1 -1 -1 -1 -1
 NAtoms=      7 NQM=        7 NQMF=       0 NMMI=      0 NMMIF=      0
                NMic=       0 NMicF=      0.
                    Isotopes and Nuclear Properties:
 (Nuclear quadrupole moments (NQMom) in fm**2, nuclear magnetic moments (NMagM)
  in nuclear magnetons)

  Atom         1           2           3           4           5           6           7
 IAtWgt=          23          23          23          23          23          23          23
 AtmWgt=  22.9897697  22.9897697  22.9897697  22.9897697  22.9897697  22.9897697  22.9897697
 NucSpn=           3           3           3           3           3           3           3
 AtZEff=  -0.0000000  -0.0000000  -0.0000000  -0.0000000  -0.0000000  -0.0000000  -0.0000000
 NQMom=   10.4000000  10.4000000  10.4000000  10.4000000  10.4000000  10.4000000  10.4000000
 NMagM=    2.2175200   2.2175200   2.2175200   2.2175200   2.2175200   2.2175200   2.2175200
 AtZNuc=  11.0000000  11.0000000  11.0000000  11.0000000  11.0000000  11.0000000  11.0000000
 Leave Link  101 at Mon Nov 13 19:07:45 2023, MaxMem=  1879048192 cpu:               2.6 elap:               0.2
 (Enter /home/sekinelabo/g16/l103.exe)

 GradGradGradGradGradGradGradGradGradGradGradGradGradGradGradGradGradGrad
 Berny optimization.
 Initialization pass.
 Trust Radius=3.00D-01 FncErr=1.00D-07 GrdErr=1.00D-07 EigMax=2.50D+02 EigMin=1.00D-04
 Number of steps in this run=      2 maximum allowed number of steps=      2.
 GradGradGradGradGradGradGradGradGradGradGradGradGradGradGradGradGradGrad

 Leave Link  103 at Mon Nov 13 19:07:45 2023, MaxMem=  1879048192 cpu:               0.2 elap:               0.0
 (Enter /home/sekinelabo/g16/l202.exe)
                          Input orientation:                          
 ---------------------------------------------------------------------
 Center     Atomic      Atomic             Coordinates (Angstroms)
 Number     Number       Type             X           Y           Z
 ---------------------------------------------------------------------
      1         11           0        3.507639    4.678172    2.773679
      2         11           0        3.101360    3.609584    0.000000
      3         11           0        7.464098    1.970762    1.395794
      4         11           0        4.537494    1.956228    2.052243
      5         11           0        0.929217    5.194140    1.332502
      6         11           0        1.583215    2.429070    2.300734
      7         11           0        0.000000    0.000000    1.525110
 ---------------------------------------------------------------------
                    Distance matrix (angstroms):
                    1          2          3          4          5
     1  Na   0.000000
     2  Na   3.000039   0.000000
     3  Na   4.988206   4.864922   0.000000
     4  Na   2.998342   3.001295   2.999358   0.000000
     5  Na   2.998578   3.000764   7.286895   4.901201   0.000000
     6  Na   2.997590   2.998626   5.967726   3.002182   3.001799
     7  Na   5.978942   4.997349   7.720971   4.969260   5.280117
                    6          7
     6  Na   0.000000
     7  Na   3.001424   0.000000
 Stoichiometry    Na7(2)
 Framework group  C1[X(Na7)]
 Deg. of freedom    15
 Full point group                 C1      NOp   1
 Largest Abelian subgroup         C1      NOp   1
 Largest concise Abelian subgroup C1      NOp   1
                         Standard orientation:                         
 ---------------------------------------------------------------------
 Center     Atomic      Atomic             Coordinates (Angstroms)
 Number     Number       Type             X           Y           Z
 ---------------------------------------------------------------------
      1         11           0        0.490064   -1.844178   -1.147955
      2         11           0        0.083785   -0.775591    1.625723
      3         11           0        4.446524    0.863232    0.229929
      4         11           0        1.519919    0.877766   -0.426520
      5         11           0       -2.088358   -2.360146    0.293221
      6         11           0       -1.434360    0.404924   -0.675011
      7         11           0       -3.017575    2.833994    0.100613
 ---------------------------------------------------------------------
 Rotational constants (GHZ):           0.9147577           0.5160204           0.3847364
 Leave Link  202 at Mon Nov 13 19:07:45 2023, MaxMem=  1879048192 cpu:               0.1 elap:               0.0
 (Enter /home/sekinelabo/g16/l301.exe)
 Standard basis: 6-311+G(d) (5D, 7F)
 Ernie: Thresh=  0.10000D-02 Tol=  0.10000D-05 Strict=F.
 There are   217 symmetry adapted cartesian basis functions of A   symmetry.
 There are   210 symmetry adapted basis functions of A   symmetry.
   210 basis functions,   350 primitive gaussians,   217 cartesian basis functions
    39 alpha electrons       38 beta electrons
       nuclear repulsion energy       350.1844407006 Hartrees.
 IExCor=  402 DFT=T Ex+Corr=B3LYP ExCW=0 ScaHFX=  0.200000
 ScaDFX=  0.800000  0.720000  1.000000  0.810000 ScalE2=  1.000000  1.000000
 IRadAn=      5 IRanWt=     -1 IRanGd=            0 ICorTp=0 IEmpDi=  4
 NAtoms=    7 NActive=    7 NUniq=    7 SFac= 1.00D+00 NAtFMM=   60 NAOKFM=F Big=F
 Integral buffers will be    131072 words long.
 Raffenetti 2 integral format.
 Two-electron integral symmetry is turned on.
 Leave Link  301 at Mon Nov 13 19:07:45 2023, MaxMem=  1879048192 cpu:               0.5 elap:               0.0
 (Enter /home/sekinelabo/g16/l302.exe)
 NPDir=0 NMtPBC=     1 NCelOv=     1 NCel=       1 NClECP=     1 NCelD=      1
         NCelK=      1 NCelE2=     1 NClLst=     1 CellRange=     0.0.
 One-electron integrals computed using PRISM.
 One-electron integral symmetry used in STVInt
 NBasis=   210 RedAO= T EigKep=  1.52D-06  NBF=   210
 NBsUse=   210 1.00D-06 EigRej= -1.00D+00 NBFU=   210
 Precomputing XC quadrature grid using
 IXCGrd= 4 IRadAn=           5 IRanWt=          -1 IRanGd=           0 AccXCQ= 0.00D+00.
 Generated NRdTot=       0 NPtTot=           0 NUsed=           0 NTot=          32
 NSgBfM=   209   209   209   209   209 MxSgAt=     7 MxSgA2=     7.
 Leave Link  302 at Mon Nov 13 19:07:45 2023, MaxMem=  1879048192 cpu:               2.1 elap:               0.1
 (Enter /home/sekinelabo/g16/l303.exe)
 DipDrv:  MaxL=1.
 Leave Link  303 at Mon Nov 13 19:07:45 2023, MaxMem=  1879048192 cpu:               0.5 elap:               0.0
 (Enter /home/sekinelabo/g16/l401.exe)
 ExpMin= 7.60D-03 ExpMax= 3.62D+04 ExpMxC= 1.21D+03 IAcc=3 IRadAn=         5 AccDes= 0.00D+00
 Harris functional with IExCor=  402 and IRadAn=       5 diagonalized for initial guess.
 HarFok:  IExCor=  402 AccDes= 0.00D+00 IRadAn=         5 IDoV= 1 UseB2=F ITyADJ=14
 ICtDFT=  3500011 ScaDFX=  1.000000  1.000000  1.000000  1.000000
 FoFCou: FMM=F IPFlag=           0 FMFlag=      100000 FMFlg1=           0
         NFxFlg=           0 DoJE=T BraDBF=F KetDBF=T FulRan=T
         wScrn=  0.000000 ICntrl=       500 IOpCl=  0 I1Cent=   200000004 NGrid=           0
         NMat0=    1 NMatS0=      1 NMatT0=    0 NMatD0=    1 NMtDS0=    0 NMtDT0=    0
 Petite list used in FoFCou.
 Harris En= -1135.86271622147    
 JPrj=0 DoOrth=F DoCkMO=F.
 Initial guess <Sx>= 0.0000 <Sy>= 0.0000 <Sz>= 0.5000 <S**2>= 0.7500 S= 0.5000
 Leave Link  401 at Mon Nov 13 19:07:45 2023, MaxMem=  1879048192 cpu:               5.0 elap:               0.3
 (Enter /home/sekinelabo/g16/l502.exe)
 Keep R1 and R2 ints in memory in canonical form, NReq=507620374.
 FoFCou: FMM=F IPFlag=           0 FMFlag=           0 FMFlg1=           0
         NFxFlg=           0 DoJE=F BraDBF=F KetDBF=F FulRan=T
         wScrn=  0.000000 ICntrl=       600 IOpCl=  0 I1Cent=           0 NGrid=           0
         NMat0=    1 NMatS0=  22155 NMatT0=    0 NMatD0=    1 NMtDS0=    0 NMtDT0=    0
 Symmetry not used in FoFCou.
 Two-electron integral symmetry not used.
 UHF open shell SCF:
 Using DIIS extrapolation, IDIIS=  1040.
 NGot=  1879048192 LenX=  1388082362 LenY=  1388034832
 Requested convergence on RMS density matrix=1.00D-08 within 128 cycles.
 Requested convergence on MAX density matrix=1.00D-06.
 Requested convergence on             energy=1.00D-06.
 No special actions if energy rises.

 Cycle   1  Pass 1  IDiag  1:
 E= -1136.04361838821    
 DIIS: error= 1.25D-02 at cycle   1 NSaved=   1.
 NSaved= 1 IEnMin= 1 EnMin= -1136.04361838821     IErMin= 1 ErrMin= 1.25D-02
 ErrMax= 1.25D-02  0.00D+00 EMaxC= 1.00D-01 BMatC= 2.03D-01 BMatP= 2.03D-01
 IDIUse=3 WtCom= 8.75D-01 WtEn= 1.25D-01
 Coeff-Com:  0.100D+01
 Coeff-En:   0.100D+01
 Coeff:      0.100D+01
 Gap=     0.012 Goal=   None    Shift=    0.000
 Gap=     0.054 Goal=   None    Shift=    0.000
 GapD=    0.012 DampG=0.250 DampE=0.500 DampFc=0.2500 IDamp=-1.
 Damping current iteration by 2.50D-01
 RMSDP=1.34D-01 MaxDP=1.70D+01              OVMax= 3.65D-01

 Cycle   2  Pass 1  IDiag  1:
 E= -1136.05967789118     Delta-E=       -0.016059502970 Rises=F Damp=T
 DIIS: error= 7.12D-03 at cycle   2 NSaved=   2.
 NSaved= 2 IEnMin= 2 EnMin= -1136.05967789118     IErMin= 2 ErrMin= 7.12D-03
 ErrMax= 7.12D-03  0.00D+00 EMaxC= 1.00D-01 BMatC= 7.50D-02 BMatP= 2.03D-01
 IDIUse=3 WtCom= 9.29D-01 WtEn= 7.12D-02
 Coeff-Com: -0.113D+01 0.213D+01
 Coeff-En:   0.000D+00 0.100D+01
 Coeff:     -0.105D+01 0.205D+01
 Gap=     0.036 Goal=   None    Shift=    0.000
 Gap=     0.050 Goal=   None    Shift=    0.000
 RMSDP=3.86D-02 MaxDP=5.35D+00 DE=-1.61D-02 OVMax= 4.51D-01

 Cycle   3  Pass 1  IDiag  1:
 E= -1136.06462532437     Delta-E=       -0.004947433195 Rises=F Damp=F
 DIIS: error= 8.96D-03 at cycle   3 NSaved=   3.
 NSaved= 3 IEnMin= 3 EnMin= -1136.06462532437     IErMin= 2 ErrMin= 7.12D-03
 ErrMax= 8.96D-03  0.00D+00 EMaxC= 1.00D-01 BMatC= 2.36D-02 BMatP= 7.50D-02
 IDIUse=3 WtCom= 9.10D-01 WtEn= 8.96D-02
 Coeff-Com: -0.636D+00 0.112D+01 0.517D+00
 Coeff-En:   0.000D+00 0.318D+00 0.682D+00
 Coeff:     -0.579D+00 0.105D+01 0.532D+00
 Gap=     0.025 Goal=   None    Shift=    0.000
 Gap=     0.056 Goal=   None    Shift=    0.000
 RMSDP=4.12D-02 MaxDP=4.63D+00 DE=-4.95D-03 OVMax= 2.74D-01

 Cycle   4  Pass 1  IDiag  1:
 E= -1136.08099014424     Delta-E=       -0.016364819870 Rises=F Damp=F
 DIIS: error= 4.38D-03 at cycle   4 NSaved=   4.
 NSaved= 4 IEnMin= 4 EnMin= -1136.08099014424     IErMin= 4 ErrMin= 4.38D-03
 ErrMax= 4.38D-03  0.00D+00 EMaxC= 1.00D-01 BMatC= 7.59D-03 BMatP= 2.36D-02
 IDIUse=3 WtCom= 9.56D-01 WtEn= 4.38D-02
 Coeff-Com: -0.332D-01 0.566D-01 0.356D+00 0.620D+00
 Coeff-En:   0.000D+00 0.000D+00 0.305D+00 0.695D+00
 Coeff:     -0.317D-01 0.541D-01 0.354D+00 0.623D+00
 Gap=     0.032 Goal=   None    Shift=    0.000
 Gap=     0.046 Goal=   None    Shift=    0.000
 RMSDP=1.44D-02 MaxDP=1.19D+00 DE=-1.64D-02 OVMax= 1.20D-01

 Cycle   5  Pass 1  IDiag  1:
 E= -1136.08909102516     Delta-E=       -0.008100880924 Rises=F Damp=F
 DIIS: error= 9.44D-04 at cycle   5 NSaved=   5.
 NSaved= 5 IEnMin= 5 EnMin= -1136.08909102516     IErMin= 5 ErrMin= 9.44D-04
 ErrMax= 9.44D-04  0.00D+00 EMaxC= 1.00D-01 BMatC= 5.32D-04 BMatP= 7.59D-03
 IDIUse=3 WtCom= 9.91D-01 WtEn= 9.44D-03
 Coeff-Com: -0.210D-02 0.659D-03 0.178D+00 0.345D+00 0.478D+00
 Coeff-En:   0.000D+00 0.000D+00 0.000D+00 0.000D+00 0.100D+01
 Coeff:     -0.208D-02 0.653D-03 0.177D+00 0.342D+00 0.483D+00
 Gap=     0.032 Goal=   None    Shift=    0.000
 Gap=     0.045 Goal=   None    Shift=    0.000
 RMSDP=3.69D-03 MaxDP=4.52D-01 DE=-8.10D-03 OVMax= 3.07D-02

 Cycle   6  Pass 1  IDiag  1:
 E= -1136.08962417597     Delta-E=       -0.000533150801 Rises=F Damp=F
 DIIS: error= 3.68D-04 at cycle   6 NSaved=   6.
 NSaved= 6 IEnMin= 6 EnMin= -1136.08962417597     IErMin= 6 ErrMin= 3.68D-04
 ErrMax= 3.68D-04  0.00D+00 EMaxC= 1.00D-01 BMatC= 4.38D-05 BMatP= 5.32D-04
 IDIUse=3 WtCom= 9.96D-01 WtEn= 3.68D-03
 Coeff-Com:  0.584D-03-0.171D-02-0.126D-01-0.293D-01 0.192D+00 0.851D+00
 Coeff-En:   0.000D+00 0.000D+00 0.000D+00 0.000D+00 0.433D-01 0.957D+00
 Coeff:      0.582D-03-0.170D-02-0.126D-01-0.291D-01 0.191D+00 0.852D+00
 Gap=     0.033 Goal=   None    Shift=    0.000
 Gap=     0.046 Goal=   None    Shift=    0.000
 RMSDP=1.57D-03 MaxDP=1.26D-01 DE=-5.33D-04 OVMax= 1.13D-02

 Cycle   7  Pass 1  IDiag  1:
 E= -1136.08967913616     Delta-E=       -0.000054960189 Rises=F Damp=F
 DIIS: error= 1.21D-04 at cycle   7 NSaved=   7.
 NSaved= 7 IEnMin= 7 EnMin= -1136.08967913616     IErMin= 7 ErrMin= 1.21D-04
 ErrMax= 1.21D-04  0.00D+00 EMaxC= 1.00D-01 BMatC= 8.72D-06 BMatP= 4.38D-05
 IDIUse=3 WtCom= 9.99D-01 WtEn= 1.21D-03
 Coeff-Com:  0.249D-03-0.594D-03-0.163D-01-0.368D-01 0.739D-01 0.465D+00
 Coeff-Com:  0.515D+00
 Coeff-En:   0.000D+00 0.000D+00 0.000D+00 0.000D+00 0.000D+00 0.000D+00
 Coeff-En:   0.100D+01
 Coeff:      0.249D-03-0.593D-03-0.163D-01-0.367D-01 0.738D-01 0.464D+00
 Coeff:      0.515D+00
 Gap=     0.033 Goal=   None    Shift=    0.000
 Gap=     0.046 Goal=   None    Shift=    0.000
 RMSDP=5.55D-04 MaxDP=6.41D-02 DE=-5.50D-05 OVMax= 5.69D-03

 Cycle   8  Pass 1  IDiag  1:
 E= -1136.08969099624     Delta-E=       -0.000011860083 Rises=F Damp=F
 DIIS: error= 5.14D-05 at cycle   8 NSaved=   8.
 NSaved= 8 IEnMin= 8 EnMin= -1136.08969099624     IErMin= 8 ErrMin= 5.14D-05
 ErrMax= 5.14D-05  0.00D+00 EMaxC= 1.00D-01 BMatC= 1.14D-06 BMatP= 8.72D-06
 IDIUse=1 WtCom= 1.00D+00 WtEn= 0.00D+00
 Coeff-Com:  0.294D-03-0.383D-03-0.100D-02-0.220D-02-0.291D-01-0.993D-01
 Coeff-Com:  0.189D+00 0.943D+00
 Coeff:      0.294D-03-0.383D-03-0.100D-02-0.220D-02-0.291D-01-0.993D-01
 Coeff:      0.189D+00 0.943D+00
 Gap=     0.033 Goal=   None    Shift=    0.000
 Gap=     0.046 Goal=   None    Shift=    0.000
 RMSDP=5.77D-04 MaxDP=5.72D-02 DE=-1.19D-05 OVMax= 6.13D-03

 Cycle   9  Pass 1  IDiag  1:
 E= -1136.08969591097     Delta-E=       -0.000004914732 Rises=F Damp=F
 DIIS: error= 3.35D-05 at cycle   9 NSaved=   9.
 NSaved= 9 IEnMin= 9 EnMin= -1136.08969591097     IErMin= 9 ErrMin= 3.35D-05
 ErrMax= 3.35D-05  0.00D+00 EMaxC= 1.00D-01 BMatC= 2.19D-07 BMatP= 1.14D-06
 IDIUse=1 WtCom= 1.00D+00 WtEn= 0.00D+00
 Coeff-Com:  0.289D-03-0.377D-03 0.144D-02 0.402D-02-0.971D-02-0.767D-01
 Coeff-Com: -0.999D-01 0.511D-01 0.113D+01
 Coeff:      0.289D-03-0.377D-03 0.144D-02 0.402D-02-0.971D-02-0.767D-01
 Coeff:     -0.999D-01 0.511D-01 0.113D+01
 Gap=     0.033 Goal=   None    Shift=    0.000
 Gap=     0.046 Goal=   None    Shift=    0.000
 RMSDP=3.32D-04 MaxDP=3.14D-02 DE=-4.91D-06 OVMax= 5.74D-03

 Cycle  10  Pass 1  IDiag  1:
 E= -1136.08969818885     Delta-E=       -0.000002277881 Rises=F Damp=F
 DIIS: error= 2.30D-05 at cycle  10 NSaved=  10.
 NSaved=10 IEnMin=10 EnMin= -1136.08969818885     IErMin=10 ErrMin= 2.30D-05
 ErrMax= 2.30D-05  0.00D+00 EMaxC= 1.00D-01 BMatC= 1.13D-07 BMatP= 2.19D-07
 IDIUse=1 WtCom= 1.00D+00 WtEn= 0.00D+00
 Coeff-Com:  0.111D-03-0.140D-03 0.146D-02 0.224D-02 0.465D-02-0.736D-02
 Coeff-Com: -0.852D-01-0.261D+00 0.370D+00 0.975D+00
 Coeff:      0.111D-03-0.140D-03 0.146D-02 0.224D-02 0.465D-02-0.736D-02
 Coeff:     -0.852D-01-0.261D+00 0.370D+00 0.975D+00
 Gap=     0.033 Goal=   None    Shift=    0.000
 Gap=     0.046 Goal=   None    Shift=    0.000
 RMSDP=3.10D-04 MaxDP=3.17D-02 DE=-2.28D-06 OVMax= 4.36D-03

 Cycle  11  Pass 1  IDiag  1:
 E= -1136.08969937312     Delta-E=       -0.000001184271 Rises=F Damp=F
 DIIS: error= 1.30D-05 at cycle  11 NSaved=  11.
 NSaved=11 IEnMin=11 EnMin= -1136.08969937312     IErMin=11 ErrMin= 1.30D-05
 ErrMax= 1.30D-05  0.00D+00 EMaxC= 1.00D-01 BMatC= 4.06D-08 BMatP= 1.13D-07
 IDIUse=1 WtCom= 1.00D+00 WtEn= 0.00D+00
 Coeff-Com: -0.416D-04 0.448D-04 0.533D-03 0.293D-04 0.730D-02 0.271D-01
 Coeff-Com: -0.291D-02-0.153D+00-0.249D+00 0.362D+00 0.101D+01
 Coeff:     -0.416D-04 0.448D-04 0.533D-03 0.293D-04 0.730D-02 0.271D-01
 Coeff:     -0.291D-02-0.153D+00-0.249D+00 0.362D+00 0.101D+01
 Gap=     0.033 Goal=   None    Shift=    0.000
 Gap=     0.046 Goal=   None    Shift=    0.000
 RMSDP=1.95D-04 MaxDP=1.79D-02 DE=-1.18D-06 OVMax= 3.79D-03

 Cycle  12  Pass 1  IDiag  1:
 E= -1136.08969998183     Delta-E=       -0.000000608710 Rises=F Damp=F
 DIIS: error= 8.15D-06 at cycle  12 NSaved=  12.
 NSaved=12 IEnMin=12 EnMin= -1136.08969998183     IErMin=12 ErrMin= 8.15D-06
 ErrMax= 8.15D-06  0.00D+00 EMaxC= 1.00D-01 BMatC= 1.93D-08 BMatP= 4.06D-08
 IDIUse=1 WtCom= 1.00D+00 WtEn= 0.00D+00
 Coeff-Com: -0.431D-04 0.468D-04-0.312D-03-0.887D-03 0.283D-02 0.201D-01
 Coeff-Com:  0.319D-01 0.278D-01-0.294D+00-0.286D+00 0.495D+00 0.100D+01
 Coeff:     -0.431D-04 0.468D-04-0.312D-03-0.887D-03 0.283D-02 0.201D-01
 Coeff:      0.319D-01 0.278D-01-0.294D+00-0.286D+00 0.495D+00 0.100D+01
 Gap=     0.033 Goal=   None    Shift=    0.000
 Gap=     0.046 Goal=   None    Shift=    0.000
 RMSDP=1.77D-04 MaxDP=1.70D-02 DE=-6.09D-07 OVMax= 3.10D-03

 Cycle  13  Pass 1  IDiag  1:
 E= -1136.08970026886     Delta-E=       -0.000000287023 Rises=F Damp=F
 DIIS: error= 4.44D-06 at cycle  13 NSaved=  13.
 NSaved=13 IEnMin=13 EnMin= -1136.08970026886     IErMin=13 ErrMin= 4.44D-06
 ErrMax= 4.44D-06  0.00D+00 EMaxC= 1.00D-01 BMatC= 5.14D-09 BMatP= 1.93D-08
 IDIUse=1 WtCom= 1.00D+00 WtEn= 0.00D+00
 Coeff-Com:  0.610D-04-0.790D-04-0.122D-03-0.297D-04-0.241D-02-0.996D-02
 Coeff-Com: -0.454D-03 0.544D-01 0.826D-01-0.148D+00-0.251D+00-0.950D-02
 Coeff-Com:  0.128D+01
 Coeff:      0.610D-04-0.790D-04-0.122D-03-0.297D-04-0.241D-02-0.996D-02
 Coeff:     -0.454D-03 0.544D-01 0.826D-01-0.148D+00-0.251D+00-0.950D-02
 Coeff:      0.128D+01
 Gap=     0.033 Goal=   None    Shift=    0.000
 Gap=     0.046 Goal=   None    Shift=    0.000
 RMSDP=8.78D-05 MaxDP=7.76D-03 DE=-2.87D-07 OVMax= 1.38D-03

 Cycle  14  Pass 1  IDiag  1:
 E= -1136.08970035981     Delta-E=       -0.000000090951 Rises=F Damp=F
 DIIS: error= 2.96D-06 at cycle  14 NSaved=  14.
 NSaved=14 IEnMin=14 EnMin= -1136.08970035981     IErMin=14 ErrMin= 2.96D-06
 ErrMax= 2.96D-06  0.00D+00 EMaxC= 1.00D-01 BMatC= 2.11D-09 BMatP= 5.14D-09
 IDIUse=1 WtCom= 1.00D+00 WtEn= 0.00D+00
 Coeff-Com:  0.546D-05-0.307D-05 0.156D-03 0.351D-03-0.567D-03-0.599D-02
 Coeff-Com: -0.160D-01-0.336D-01 0.116D+00 0.182D+00-0.151D+00-0.462D+00
 Coeff-Com: -0.167D+00 0.154D+01
 Coeff:      0.546D-05-0.307D-05 0.156D-03 0.351D-03-0.567D-03-0.599D-02
 Coeff:     -0.160D-01-0.336D-01 0.116D+00 0.182D+00-0.151D+00-0.462D+00
 Coeff:     -0.167D+00 0.154D+01
 Gap=     0.033 Goal=   None    Shift=    0.000
 Gap=     0.046 Goal=   None    Shift=    0.000
 RMSDP=6.17D-05 MaxDP=4.94D-03 DE=-9.10D-08 OVMax= 6.92D-04

 Cycle  15  Pass 1  IDiag  1:
 E= -1136.08970040265     Delta-E=       -0.000000042845 Rises=F Damp=F
 DIIS: error= 1.94D-06 at cycle  15 NSaved=  15.
 NSaved=15 IEnMin=15 EnMin= -1136.08970040265     IErMin=15 ErrMin= 1.94D-06
 ErrMax= 1.94D-06  0.00D+00 EMaxC= 1.00D-01 BMatC= 7.38D-10 BMatP= 2.11D-09
 IDIUse=1 WtCom= 1.00D+00 WtEn= 0.00D+00
 Coeff-Com: -0.217D-04 0.277D-04 0.121D-03 0.818D-04 0.110D-02 0.434D-02
 Coeff-Com: -0.172D-03-0.210D-01-0.379D-01 0.507D-01 0.104D+00 0.116D-01
 Coeff-Com: -0.526D+00 0.279D-01 0.138D+01
 Coeff:     -0.217D-04 0.277D-04 0.121D-03 0.818D-04 0.110D-02 0.434D-02
 Coeff:     -0.172D-03-0.210D-01-0.379D-01 0.507D-01 0.104D+00 0.116D-01
 Coeff:     -0.526D+00 0.279D-01 0.138D+01
 Gap=     0.033 Goal=   None    Shift=    0.000
 Gap=     0.046 Goal=   None    Shift=    0.000
 RMSDP=4.57D-05 MaxDP=3.51D-03 DE=-4.28D-08 OVMax= 4.96D-04

 Cycle  16  Pass 1  IDiag  1:
 E= -1136.08970041883     Delta-E=       -0.000000016177 Rises=F Damp=F
 DIIS: error= 8.13D-07 at cycle  16 NSaved=  16.
 NSaved=16 IEnMin=16 EnMin= -1136.08970041883     IErMin=16 ErrMin= 8.13D-07
 ErrMax= 8.13D-07  0.00D+00 EMaxC= 1.00D-01 BMatC= 1.96D-10 BMatP= 7.38D-10
 IDIUse=1 WtCom= 1.00D+00 WtEn= 0.00D+00
 Coeff-Com:  0.339D-05-0.555D-05-0.271D-04-0.597D-04 0.928D-04 0.128D-02
 Coeff-Com:  0.405D-02 0.969D-02-0.278D-01-0.586D-01 0.479D-01 0.130D+00
 Coeff-Com:  0.324D-01-0.433D+00 0.240D-02 0.129D+01
 Coeff:      0.339D-05-0.555D-05-0.271D-04-0.597D-04 0.928D-04 0.128D-02
 Coeff:      0.405D-02 0.969D-02-0.278D-01-0.586D-01 0.479D-01 0.130D+00
 Coeff:      0.324D-01-0.433D+00 0.240D-02 0.129D+01
 Gap=     0.033 Goal=   None    Shift=    0.000
 Gap=     0.046 Goal=   None    Shift=    0.000
 RMSDP=2.43D-05 MaxDP=1.87D-03 DE=-1.62D-08 OVMax= 2.22D-04

 Cycle  17  Pass 1  IDiag  1:
 E= -1136.08970042277     Delta-E=       -0.000000003940 Rises=F Damp=F
 DIIS: error= 4.29D-07 at cycle  17 NSaved=  17.
 NSaved=17 IEnMin=17 EnMin= -1136.08970042277     IErMin=17 ErrMin= 4.29D-07
 ErrMax= 4.29D-07  0.00D+00 EMaxC= 1.00D-01 BMatC= 6.07D-11 BMatP= 1.96D-10
 IDIUse=1 WtCom= 1.00D+00 WtEn= 0.00D+00
 Coeff-Com:  0.387D-05-0.541D-05-0.205D-04 0.555D-05-0.279D-03-0.116D-02
 Coeff-Com: -0.664D-03 0.381D-02 0.103D-01-0.493D-02-0.224D-01-0.156D-01
 Coeff-Com:  0.134D+00 0.700D-02-0.351D+00-0.110D+00 0.135D+01
 Coeff:      0.387D-05-0.541D-05-0.205D-04 0.555D-05-0.279D-03-0.116D-02
 Coeff:     -0.664D-03 0.381D-02 0.103D-01-0.493D-02-0.224D-01-0.156D-01
 Coeff:      0.134D+00 0.700D-02-0.351D+00-0.110D+00 0.135D+01
 Gap=     0.033 Goal=   None    Shift=    0.000
 Gap=     0.046 Goal=   None    Shift=    0.000
 RMSDP=1.25D-05 MaxDP=1.10D-03 DE=-3.94D-09 OVMax= 1.03D-04

 Cycle  18  Pass 1  IDiag  1:
 E= -1136.08970042390     Delta-E=       -0.000000001136 Rises=F Damp=F
 DIIS: error= 3.10D-07 at cycle  18 NSaved=  18.
 NSaved=18 IEnMin=18 EnMin= -1136.08970042390     IErMin=18 ErrMin= 3.10D-07
 ErrMax= 3.10D-07  0.00D+00 EMaxC= 1.00D-01 BMatC= 2.43D-11 BMatP= 6.07D-11
 IDIUse=1 WtCom= 1.00D+00 WtEn= 0.00D+00
 Coeff-Com:  0.842D-06-0.870D-06 0.139D-04 0.829D-05-0.143D-04-0.408D-03
 Coeff-Com: -0.120D-02-0.343D-02 0.697D-02 0.212D-01-0.119D-01-0.489D-01
 Coeff-Com: -0.121D-01 0.152D+00-0.187D-01-0.417D+00 0.497D-01 0.128D+01
 Coeff:      0.842D-06-0.870D-06 0.139D-04 0.829D-05-0.143D-04-0.408D-03
 Coeff:     -0.120D-02-0.343D-02 0.697D-02 0.212D-01-0.119D-01-0.489D-01
 Coeff:     -0.121D-01 0.152D+00-0.187D-01-0.417D+00 0.497D-01 0.128D+01
 Gap=     0.033 Goal=   None    Shift=    0.000
 Gap=     0.046 Goal=   None    Shift=    0.000
 RMSDP=9.56D-06 MaxDP=8.75D-04 DE=-1.14D-09 OVMax= 6.80D-05

 Cycle  19  Pass 1  IDiag  1:
 E= -1136.08970042433     Delta-E=       -0.000000000425 Rises=F Damp=F
 DIIS: error= 1.66D-07 at cycle  19 NSaved=  19.
 NSaved=19 IEnMin=19 EnMin= -1136.08970042433     IErMin=19 ErrMin= 1.66D-07
 ErrMax= 1.66D-07  0.00D+00 EMaxC= 1.00D-01 BMatC= 7.96D-12 BMatP= 2.43D-11
 IDIUse=1 WtCom= 1.00D+00 WtEn= 0.00D+00
 Coeff-Com: -0.114D-05 0.159D-05 0.120D-04 0.665D-05 0.136D-03 0.418D-03
 Coeff-Com: -0.134D-03-0.251D-02-0.228D-02 0.508D-02 0.996D-02-0.438D-02
 Coeff-Com: -0.628D-01 0.324D-01 0.121D+00 0.240D-01-0.545D+00 0.440D-01
 Coeff-Com:  0.138D+01
 Coeff:     -0.114D-05 0.159D-05 0.120D-04 0.665D-05 0.136D-03 0.418D-03
 Coeff:     -0.134D-03-0.251D-02-0.228D-02 0.508D-02 0.996D-02-0.438D-02
 Coeff:     -0.628D-01 0.324D-01 0.121D+00 0.240D-01-0.545D+00 0.440D-01
 Coeff:      0.138D+01
 Gap=     0.033 Goal=   None    Shift=    0.000
 Gap=     0.046 Goal=   None    Shift=    0.000
 RMSDP=7.61D-06 MaxDP=7.20D-04 DE=-4.25D-10 OVMax= 5.07D-05

 Cycle  20  Pass 1  IDiag  1:
 E= -1136.08970042449     Delta-E=       -0.000000000162 Rises=F Damp=F
 DIIS: error= 8.27D-08 at cycle  20 NSaved=  20.
 NSaved=20 IEnMin=20 EnMin= -1136.08970042449     IErMin=20 ErrMin= 8.27D-08
 ErrMax= 8.27D-08  0.00D+00 EMaxC= 1.00D-01 BMatC= 1.93D-12 BMatP= 7.96D-12
 IDIUse=1 WtCom= 1.00D+00 WtEn= 0.00D+00
 Coeff-Com: -0.452D-06 0.548D-06 0.202D-05 0.102D-05 0.508D-04 0.226D-03
 Coeff-Com:  0.135D-03 0.901D-05-0.180D-02-0.378D-02 0.566D-02 0.114D-01
 Coeff-Com: -0.110D-01-0.295D-01 0.258D-01 0.976D-01-0.602D-01-0.369D+00
 Coeff-Com:  0.161D+00 0.117D+01
 Coeff:     -0.452D-06 0.548D-06 0.202D-05 0.102D-05 0.508D-04 0.226D-03
 Coeff:      0.135D-03 0.901D-05-0.180D-02-0.378D-02 0.566D-02 0.114D-01
 Coeff:     -0.110D-01-0.295D-01 0.258D-01 0.976D-01-0.602D-01-0.369D+00
 Coeff:      0.161D+00 0.117D+01
 Gap=     0.033 Goal=   None    Shift=    0.000
 Gap=     0.046 Goal=   None    Shift=    0.000
 RMSDP=3.40D-06 MaxDP=3.61D-04 DE=-1.62D-10 OVMax= 2.20D-05

 Cycle  21  Pass 1  IDiag  1:
 E= -1136.08970042451     Delta-E=       -0.000000000022 Rises=F Damp=F
 DIIS: error= 2.54D-08 at cycle  21 NSaved=  20.
 NSaved=20 IEnMin=20 EnMin= -1136.08970042451     IErMin=20 ErrMin= 2.54D-08
 ErrMax= 2.54D-08  0.00D+00 EMaxC= 1.00D-01 BMatC= 2.91D-13 BMatP= 1.93D-12
 IDIUse=1 WtCom= 1.00D+00 WtEn= 0.00D+00
 Coeff-Com:  0.602D-07-0.138D-05-0.124D-06-0.259D-04-0.107D-03-0.625D-04
 Coeff-Com:  0.283D-03 0.999D-03-0.887D-04-0.300D-02-0.117D-02 0.138D-01
 Coeff-Com: -0.291D-02-0.255D-01-0.219D-01 0.138D+00-0.269D-03-0.322D+00
 Coeff-Com: -0.343D-01 0.126D+01
 Coeff:      0.602D-07-0.138D-05-0.124D-06-0.259D-04-0.107D-03-0.625D-04
 Coeff:      0.283D-03 0.999D-03-0.887D-04-0.300D-02-0.117D-02 0.138D-01
 Coeff:     -0.291D-02-0.255D-01-0.219D-01 0.138D+00-0.269D-03-0.322D+00
 Coeff:     -0.343D-01 0.126D+01
 Gap=     0.033 Goal=   None    Shift=    0.000
 Gap=     0.046 Goal=   None    Shift=    0.000
 RMSDP=1.25D-06 MaxDP=1.18D-04 DE=-2.21D-11 OVMax= 8.36D-06

 Cycle  22  Pass 1  IDiag  1:
 E= -1136.08970042453     Delta-E=       -0.000000000013 Rises=F Damp=F
 DIIS: error= 8.59D-09 at cycle  22 NSaved=  20.
 NSaved=20 IEnMin=20 EnMin= -1136.08970042453     IErMin=20 ErrMin= 8.59D-09
 ErrMax= 8.59D-09  0.00D+00 EMaxC= 1.00D-01 BMatC= 3.91D-14 BMatP= 2.91D-13
 IDIUse=1 WtCom= 1.00D+00 WtEn= 0.00D+00
 Coeff-Com: -0.858D-06-0.772D-06-0.737D-05-0.232D-04 0.997D-05 0.577D-04
 Coeff-Com:  0.505D-04 0.215D-03-0.319D-03-0.112D-02 0.142D-02 0.286D-02
 Coeff-Com: -0.458D-02-0.923D-02 0.738D-02 0.533D-01-0.365D-01-0.146D+00
 Coeff-Com:  0.443D-02 0.113D+01
 Coeff:     -0.858D-06-0.772D-06-0.737D-05-0.232D-04 0.997D-05 0.577D-04
 Coeff:      0.505D-04 0.215D-03-0.319D-03-0.112D-02 0.142D-02 0.286D-02
 Coeff:     -0.458D-02-0.923D-02 0.738D-02 0.533D-01-0.365D-01-0.146D+00
 Coeff:      0.443D-02 0.113D+01
 Gap=     0.033 Goal=   None    Shift=    0.000
 Gap=     0.046 Goal=   None    Shift=    0.000
 RMSDP=2.71D-07 MaxDP=2.98D-05 DE=-1.34D-11 OVMax= 2.46D-06

 Cycle  23  Pass 1  IDiag  1:
 E= -1136.08970042453     Delta-E=       -0.000000000002 Rises=F Damp=F
 DIIS: error= 4.52D-09 at cycle  23 NSaved=  20.
 NSaved=20 IEnMin=20 EnMin= -1136.08970042453     IErMin=20 ErrMin= 4.52D-09
 ErrMax= 4.52D-09  0.00D+00 EMaxC= 1.00D-01 BMatC= 9.28D-15 BMatP= 3.91D-14
 IDIUse=1 WtCom= 1.00D+00 WtEn= 0.00D+00
 Coeff-Com: -0.762D-06 0.321D-05 0.189D-04 0.194D-04-0.400D-04-0.241D-03
 Coeff-Com:  0.932D-04 0.507D-03 0.978D-04-0.244D-02 0.113D-02 0.393D-02
 Coeff-Com:  0.920D-03-0.211D-01 0.921D-02 0.478D-01-0.191D-01-0.228D+00
 Coeff-Com:  0.262D+00 0.945D+00
 Coeff:     -0.762D-06 0.321D-05 0.189D-04 0.194D-04-0.400D-04-0.241D-03
 Coeff:      0.932D-04 0.507D-03 0.978D-04-0.244D-02 0.113D-02 0.393D-02
 Coeff:      0.920D-03-0.211D-01 0.921D-02 0.478D-01-0.191D-01-0.228D+00
 Coeff:      0.262D+00 0.945D+00
 Gap=     0.033 Goal=   None    Shift=    0.000
 Gap=     0.046 Goal=   None    Shift=    0.000
 RMSDP=8.20D-08 MaxDP=1.03D-05 DE=-1.82D-12 OVMax= 9.68D-07

 Cycle  24  Pass 1  IDiag  1:
 E= -1136.08970042453     Delta-E=        0.000000000000 Rises=F Damp=F
 DIIS: error= 1.44D-09 at cycle  24 NSaved=  20.
 NSaved=20 IEnMin=19 EnMin= -1136.08970042453     IErMin=20 ErrMin= 1.44D-09
 ErrMax= 1.44D-09  0.00D+00 EMaxC= 1.00D-01 BMatC= 1.06D-15 BMatP= 9.28D-15
 IDIUse=1 WtCom= 1.00D+00 WtEn= 0.00D+00
 Large coefficients: NSaved= 20 BigCof=    0.00 CofMax=   10.00 Det=-4.90D-15
 Inversion failed.  Reducing to 19 matrices.
 Large coefficients: NSaved= 19 BigCof=    0.00 CofMax=   10.00 Det=-4.92D-15
 Inversion failed.  Reducing to 18 matrices.
 Large coefficients: NSaved= 18 BigCof=    0.00 CofMax=   10.00 Det=-5.10D-15
 Inversion failed.  Reducing to 17 matrices.
 Large coefficients: NSaved= 17 BigCof=    0.00 CofMax=   10.00 Det=-5.10D-15
 Inversion failed.  Reducing to 16 matrices.
 Large coefficients: NSaved= 16 BigCof=    0.00 CofMax=   10.00 Det=-5.13D-15
 Inversion failed.  Reducing to 15 matrices.
 Coeff-Com: -0.159D-04 0.241D-04 0.548D-04-0.207D-03 0.794D-04 0.339D-03
 Coeff-Com:  0.368D-03-0.111D-02-0.553D-02 0.990D-02 0.117D-01-0.314D-01
 Coeff-Com: -0.931D-01 0.876D-01 0.102D+01
 Coeff:     -0.159D-04 0.241D-04 0.548D-04-0.207D-03 0.794D-04 0.339D-03
 Coeff:      0.368D-03-0.111D-02-0.553D-02 0.990D-02 0.117D-01-0.314D-01
 Coeff:     -0.931D-01 0.876D-01 0.102D+01
 Gap=     0.033 Goal=   None    Shift=    0.000
 Gap=     0.046 Goal=   None    Shift=    0.000
 RMSDP=3.21D-08 MaxDP=3.73D-06 DE= 0.00D+00 OVMax= 2.04D-07

 Cycle  25  Pass 1  IDiag  1:
 E= -1136.08970042453     Delta-E=       -0.000000000003 Rises=F Damp=F
 DIIS: error= 9.53D-10 at cycle  25 NSaved=  16.
 NSaved=16 IEnMin=16 EnMin= -1136.08970042453     IErMin=16 ErrMin= 9.53D-10
 ErrMax= 9.53D-10  0.00D+00 EMaxC= 1.00D-01 BMatC= 3.50D-16 BMatP= 1.06D-15
 IDIUse=1 WtCom= 1.00D+00 WtEn= 0.00D+00
 Large coefficients: NSaved= 16 BigCof=    0.00 CofMax=   10.00 Det=-7.74D-16
 Inversion failed.  Reducing to 15 matrices.
 Coeff-Com:  0.542D-06 0.449D-04-0.442D-05-0.603D-04 0.674D-04-0.107D-04
 Coeff-Com:  0.617D-03-0.228D-02-0.455D-03 0.889D-02 0.123D-01-0.774D-01
 Coeff-Com: -0.664D-01 0.288D+00 0.837D+00
 Coeff:      0.542D-06 0.449D-04-0.442D-05-0.603D-04 0.674D-04-0.107D-04
 Coeff:      0.617D-03-0.228D-02-0.455D-03 0.889D-02 0.123D-01-0.774D-01
 Coeff:     -0.664D-01 0.288D+00 0.837D+00
 Gap=     0.033 Goal=   None    Shift=    0.000
 Gap=     0.046 Goal=   None    Shift=    0.000
 RMSDP=2.00D-08 MaxDP=2.06D-06 DE=-3.18D-12 OVMax= 9.15D-08

 Cycle  26  Pass 1  IDiag  1:
 E= -1136.08970042451     Delta-E=        0.000000000023 Rises=F Damp=F
 DIIS: error= 5.47D-10 at cycle  26 NSaved=  16.
 NSaved=16 IEnMin=15 EnMin= -1136.08970042453     IErMin=16 ErrMin= 5.47D-10
 ErrMax= 5.47D-10  0.00D+00 EMaxC= 1.00D-01 BMatC= 1.49D-16 BMatP= 3.50D-16
 IDIUse=1 WtCom= 1.00D+00 WtEn= 0.00D+00
 Large coefficients: NSaved= 16 BigCof=    0.00 CofMax=   10.00 Det=-4.08D-16
 Inversion failed.  Reducing to 15 matrices.
 Coeff-Com:  0.879D-05 0.875D-04-0.933D-04-0.211D-03 0.122D-03 0.118D-02
 Coeff-Com: -0.110D-03-0.434D-02 0.941D-03 0.186D-01-0.136D-01-0.791D-01
 Coeff-Com: -0.105D+00 0.427D+00 0.755D+00
 Coeff:      0.879D-05 0.875D-04-0.933D-04-0.211D-03 0.122D-03 0.118D-02
 Coeff:     -0.110D-03-0.434D-02 0.941D-03 0.186D-01-0.136D-01-0.791D-01
 Coeff:     -0.105D+00 0.427D+00 0.755D+00
 Gap=     0.033 Goal=   None    Shift=    0.000
 Gap=     0.046 Goal=   None    Shift=    0.000
 RMSDP=1.24D-08 MaxDP=1.27D-06 DE= 2.32D-11 OVMax= 5.51D-08

 Cycle  27  Pass 1  IDiag  1:
 E= -1136.08970042453     Delta-E=       -0.000000000025 Rises=F Damp=F
 DIIS: error= 1.84D-10 at cycle  27 NSaved=  16.
 NSaved=16 IEnMin=16 EnMin= -1136.08970042453     IErMin=16 ErrMin= 1.84D-10
 ErrMax= 1.84D-10  0.00D+00 EMaxC= 1.00D-01 BMatC= 1.90D-17 BMatP= 1.49D-16
 IDIUse=1 WtCom= 1.00D+00 WtEn= 0.00D+00
 Large coefficients: NSaved= 16 BigCof=    0.00 CofMax=   10.00 Det=-7.84D-17
 Inversion failed.  Reducing to 15 matrices.
 Coeff-Com:  0.438D-04-0.445D-04-0.992D-04 0.335D-04 0.553D-03 0.926D-06
 Coeff-Com: -0.185D-02-0.234D-03 0.712D-02 0.159D-02-0.271D-01-0.798D-01
 Coeff-Com:  0.576D-01 0.260D+00 0.782D+00
 Coeff:      0.438D-04-0.445D-04-0.992D-04 0.335D-04 0.553D-03 0.926D-06
 Coeff:     -0.185D-02-0.234D-03 0.712D-02 0.159D-02-0.271D-01-0.798D-01
 Coeff:      0.576D-01 0.260D+00 0.782D+00
 Gap=     0.033 Goal=   None    Shift=    0.000
 Gap=     0.046 Goal=   None    Shift=    0.000
 RMSDP=9.63D-09 MaxDP=6.77D-07 DE=-2.48D-11 OVMax= 2.13D-08

 SCF Done:  E(UB3LYP) =  -1136.08970042     A.U. after   27 cycles
            NFock= 27  Conv=0.96D-08     -V/T= 2.0026
 <Sx>= 0.0000 <Sy>= 0.0000 <Sz>= 0.5000 <S**2>= 0.7619 S= 0.5059
 <L.S>= 0.000000000000E+00
 KE= 1.133198739831D+03 PE=-3.429610045361D+03 EE= 8.101371644051D+02
 Annihilation of the first spin contaminant:
 S**2 before annihilation     0.7619,   after     0.7501
 Leave Link  502 at Mon Nov 13 19:08:07 2023, MaxMem=  1879048192 cpu:             251.0 elap:              21.6
 (Enter /home/sekinelabo/g16/l601.exe)
 Copying SCF densities to generalized density rwf, IOpCl= 1 IROHF=0.

 **********************************************************************

            Population analysis using the SCF Density.

 **********************************************************************

 Orbital symmetries:
 Alpha Orbitals:
       Occupied  (A) (A) (A) (A) (A) (A) (A) (A) (A) (A) (A) (A)
                 (A) (A) (A) (A) (A) (A) (A) (A) (A) (A) (A) (A)
                 (A) (A) (A) (A) (A) (A) (A) (A) (A) (A) (A) (A)
                 (A) (A) (A)
       Virtual   (A) (A) (A) (A) (A) (A) (A) (A) (A) (A) (A) (A)
                 (A) (A) (A) (A) (A) (A) (A) (A) (A) (A) (A) (A)
                 (A) (A) (A) (A) (A) (A) (A) (A) (A) (A) (A) (A)
                 (A) (A) (A) (A) (A) (A) (A) (A) (A) (A) (A) (A)
                 (A) (A) (A) (A) (A) (A) (A) (A) (A) (A) (A) (A)
                 (A) (A) (A) (A) (A) (A) (A) (A) (A) (A) (A) (A)
                 (A) (A) (A) (A) (A) (A) (A) (A) (A) (A) (A) (A)
                 (A) (A) (A) (A) (A) (A) (A) (A) (A) (A) (A) (A)
                 (A) (A) (A) (A) (A) (A) (A) (A) (A) (A) (A) (A)
                 (A) (A) (A) (A) (A) (A) (A) (A) (A) (A) (A) (A)
                 (A) (A) (A) (A) (A) (A) (A) (A) (A) (A) (A) (A)
                 (A) (A) (A) (A) (A) (A) (A) (A) (A) (A) (A) (A)
                 (A) (A) (A) (A) (A) (A) (A) (A) (A) (A) (A) (A)
                 (A) (A) (A) (A) (A) (A) (A) (A) (A) (A) (A) (A)
                 (A) (A) (A)
 Beta  Orbitals:
       Occupied  (A) (A) (A) (A) (A) (A) (A) (A) (A) (A) (A) (A)
                 (A) (A) (A) (A) (A) (A) (A) (A) (A) (A) (A) (A)
                 (A) (A) (A) (A) (A) (A) (A) (A) (A) (A) (A) (A)
                 (A) (A)
       Virtual   (A) (A) (A) (A) (A) (A) (A) (A) (A) (A) (A) (A)
                 (A) (A) (A) (A) (A) (A) (A) (A) (A) (A) (A) (A)
                 (A) (A) (A) (A) (A) (A) (A) (A) (A) (A) (A) (A)
                 (A) (A) (A) (A) (A) (A) (A) (A) (A) (A) (A) (A)
                 (A) (A) (A) (A) (A) (A) (A) (A) (A) (A) (A) (A)
                 (A) (A) (A) (A) (A) (A) (A) (A) (A) (A) (A) (A)
                 (A) (A) (A) (A) (A) (A) (A) (A) (A) (A) (A) (A)
                 (A) (A) (A) (A) (A) (A) (A) (A) (A) (A) (A) (A)
                 (A) (A) (A) (A) (A) (A) (A) (A) (A) (A) (A) (A)
                 (A) (A) (A) (A) (A) (A) (A) (A) (A) (A) (A) (A)
                 (A) (A) (A) (A) (A) (A) (A) (A) (A) (A) (A) (A)
                 (A) (A) (A) (A) (A) (A) (A) (A) (A) (A) (A) (A)
                 (A) (A) (A) (A) (A) (A) (A) (A) (A) (A) (A) (A)
                 (A) (A) (A) (A) (A) (A) (A) (A) (A) (A) (A) (A)
                 (A) (A) (A) (A)
 The electronic state is 2-A.
 Alpha  occ. eigenvalues --  -38.45369 -38.45011 -38.44684 -38.43754 -38.43624
 Alpha  occ. eigenvalues --  -38.43567 -38.42710  -2.21162  -2.21066  -2.20669
 Alpha  occ. eigenvalues --   -2.19861  -2.19679  -2.19365  -2.18893  -1.14858
 Alpha  occ. eigenvalues --   -1.14834  -1.14804  -1.14792  -1.14738  -1.14680
 Alpha  occ. eigenvalues --   -1.14369  -1.14302  -1.14285  -1.13651  -1.13498
 Alpha  occ. eigenvalues --   -1.13467  -1.13400  -1.13304  -1.13254  -1.13083
 Alpha  occ. eigenvalues --   -1.13008  -1.13006  -1.12599  -1.12541  -1.12472
 Alpha  occ. eigenvalues --   -0.19928  -0.13689  -0.11998  -0.10791
 Alpha virt. eigenvalues --   -0.07485  -0.05360  -0.03628  -0.03138  -0.02608
 Alpha virt. eigenvalues --   -0.02099  -0.02013  -0.01356  -0.00805  -0.00189
 Alpha virt. eigenvalues --   -0.00107   0.00307   0.00479   0.00618   0.00755
 Alpha virt. eigenvalues --    0.00912   0.01164   0.01193   0.01292   0.01417
 Alpha virt. eigenvalues --    0.01474   0.01594   0.01746   0.01869   0.01900
 Alpha virt. eigenvalues --    0.02156   0.02212   0.02477   0.02527   0.02712
 Alpha virt. eigenvalues --    0.02777   0.02921   0.03011   0.03067   0.03191
 Alpha virt. eigenvalues --    0.03238   0.03495   0.03543   0.03720   0.03799
 Alpha virt. eigenvalues --    0.03991   0.04113   0.04367   0.04715   0.04931
 Alpha virt. eigenvalues --    0.05286   0.05422   0.05622   0.05800   0.05946
 Alpha virt. eigenvalues --    0.06038   0.06823   0.07253   0.07535   0.07600
 Alpha virt. eigenvalues --    0.07977   0.08065   0.08419   0.08626   0.08919
 Alpha virt. eigenvalues --    0.09533   0.09560   0.09654   0.10407   0.11389
 Alpha virt. eigenvalues --    0.11868   0.12511   0.12908   0.13048   0.13566
 Alpha virt. eigenvalues --    0.14123   0.14337   0.14946   0.15093   0.15771
 Alpha virt. eigenvalues --    0.16001   0.16341   0.16442   0.19005   0.19763
 Alpha virt. eigenvalues --    0.24636   0.25040   0.25370   0.27045   0.30496
 Alpha virt. eigenvalues --    0.31985   0.32860   0.33315   0.33945   0.34472
 Alpha virt. eigenvalues --    0.34862   0.35255   0.35820   0.36332   0.36936
 Alpha virt. eigenvalues --    0.37307   0.38856   0.39955   0.40216   0.40754
 Alpha virt. eigenvalues --    0.42595   0.42980   0.43342   0.44120   0.44489
 Alpha virt. eigenvalues --    0.44520   0.45053   0.45365   0.45701   0.45886
 Alpha virt. eigenvalues --    0.46482   0.46987   0.47860   0.48505   0.49230
 Alpha virt. eigenvalues --    0.49711   0.49775   0.50646   0.51218   0.52607
 Alpha virt. eigenvalues --    0.54402   0.54915   0.56314   0.57238   0.58484
 Alpha virt. eigenvalues --    0.62802   0.63697   0.66854   0.67359   0.69803
 Alpha virt. eigenvalues --    0.71037   0.72468   0.73115   0.78938   0.81256
 Alpha virt. eigenvalues --    0.83835   2.09887   2.12670   2.16043   2.23390
 Alpha virt. eigenvalues --    2.27810   2.29763   2.35749   4.40642   4.41055
 Alpha virt. eigenvalues --    4.41716   4.42261   4.42329   4.43191   4.44198
 Alpha virt. eigenvalues --    4.44672   4.46415   4.46840   4.47963   4.49269
 Alpha virt. eigenvalues --    4.55983   4.59188   4.62348   4.63494   4.65552
 Alpha virt. eigenvalues --    4.69637   4.76848   4.79817   4.83809  96.31139
 Alpha virt. eigenvalues --   96.34482  96.38282  96.49479  96.55612  96.57583
 Alpha virt. eigenvalues --   96.65092
  Beta  occ. eigenvalues --  -38.45358 -38.44955 -38.44658 -38.43690 -38.43595
  Beta  occ. eigenvalues --  -38.43575 -38.42674  -2.21141  -2.20966  -2.20627
  Beta  occ. eigenvalues --   -2.19750  -2.19634  -2.19379  -2.18837  -1.14845
  Beta  occ. eigenvalues --   -1.14787  -1.14776  -1.14764  -1.14656  -1.14605
  Beta  occ. eigenvalues --   -1.14342  -1.14270  -1.14224  -1.13574  -1.13430
  Beta  occ. eigenvalues --   -1.13380  -1.13348  -1.13244  -1.13189  -1.13091
  Beta  occ. eigenvalues --   -1.13017  -1.13014  -1.12570  -1.12495  -1.12383
  Beta  occ. eigenvalues --   -0.19079  -0.13398  -0.11926
  Beta virt. eigenvalues --   -0.07307  -0.06582  -0.05219  -0.03484  -0.02674
  Beta virt. eigenvalues --   -0.02432  -0.01692  -0.01563  -0.00918  -0.00512
  Beta virt. eigenvalues --   -0.00063  -0.00039   0.00418   0.00662   0.00733
  Beta virt. eigenvalues --    0.00813   0.00943   0.01272   0.01292   0.01359
  Beta virt. eigenvalues --    0.01514   0.01611   0.01658   0.01817   0.01937
  Beta virt. eigenvalues --    0.01955   0.02181   0.02331   0.02550   0.02659
  Beta virt. eigenvalues --    0.02731   0.02832   0.02916   0.03077   0.03090
  Beta virt. eigenvalues --    0.03231   0.03310   0.03565   0.03608   0.03764
  Beta virt. eigenvalues --    0.03840   0.04122   0.04239   0.04513   0.04818
  Beta virt. eigenvalues --    0.05072   0.05417   0.05497   0.05789   0.05944
  Beta virt. eigenvalues --    0.06122   0.06329   0.06898   0.07279   0.07579
  Beta virt. eigenvalues --    0.07803   0.08044   0.08240   0.08563   0.08728
  Beta virt. eigenvalues --    0.09027   0.09557   0.09685   0.09731   0.10786
  Beta virt. eigenvalues --    0.11801   0.12081   0.12798   0.13094   0.13431
  Beta virt. eigenvalues --    0.13842   0.14296   0.14562   0.15009   0.15329
  Beta virt. eigenvalues --    0.16086   0.16201   0.16611   0.16731   0.19262
  Beta virt. eigenvalues --    0.19954   0.24981   0.25553   0.25808   0.27204
  Beta virt. eigenvalues --    0.30656   0.32083   0.33206   0.33738   0.34368
  Beta virt. eigenvalues --    0.34682   0.35105   0.35539   0.36067   0.36497
  Beta virt. eigenvalues --    0.37059   0.37677   0.39007   0.40166   0.40322
  Beta virt. eigenvalues --    0.40894   0.42738   0.43161   0.43457   0.44327
  Beta virt. eigenvalues --    0.44628   0.44700   0.45182   0.45574   0.45889
  Beta virt. eigenvalues --    0.46029   0.46661   0.47153   0.48016   0.48637
  Beta virt. eigenvalues --    0.49483   0.49927   0.50070   0.50758   0.51398
  Beta virt. eigenvalues --    0.52891   0.54592   0.55122   0.56526   0.57429
  Beta virt. eigenvalues --    0.58648   0.62943   0.63914   0.67195   0.67615
  Beta virt. eigenvalues --    0.69994   0.71268   0.72533   0.73398   0.79085
  Beta virt. eigenvalues --    0.81410   0.83883   2.09942   2.12646   2.16173
  Beta virt. eigenvalues --    2.23518   2.28076   2.29895   2.35852   4.40702
  Beta virt. eigenvalues --    4.41124   4.41795   4.42318   4.42422   4.43256
  Beta virt. eigenvalues --    4.44225   4.44696   4.46414   4.46838   4.48008
  Beta virt. eigenvalues --    4.49348   4.56088   4.59222   4.62404   4.63601
  Beta virt. eigenvalues --    4.65601   4.69671   4.76918   4.79862   4.83877
  Beta virt. eigenvalues --   96.31158  96.34475  96.38327  96.49521  96.55689
  Beta virt. eigenvalues --   96.57635  96.65132
          Condensed to atoms (all electrons):
               1          2          3          4          5          6
     1  Na  22.806758  -2.027949  -1.169001  -2.665843  -0.084576   0.139576
     2  Na  -2.027949  13.607503   1.102176   1.064471  -1.015003  -1.320837
     3  Na  -1.169001   1.102176  12.595840   1.118881  -1.307192  -2.750336
     4  Na  -2.665843   1.064471   1.118881  15.148390  -2.310310  -4.057006
     5  Na  -0.084576  -1.015003  -1.307192  -2.310310  13.337389   2.116290
     6  Na   0.139576  -1.320837  -2.750336  -4.057006   2.116290  23.408380
     7  Na  -7.680342   0.595805   1.050785   3.738525  -0.223674  -6.322781
               7
     1  Na  -7.680342
     2  Na   0.595805
     3  Na   1.050785
     4  Na   3.738525
     5  Na  -0.223674
     6  Na  -6.322781
     7  Na  20.112424
          Atomic-Atomic Spin Densities.
               1          2          3          4          5          6
     1  Na   1.735971   0.098917  -0.026216  -0.228339  -0.622630   0.397754
     2  Na   0.098917   1.132796   0.028797  -0.692840  -0.055028   0.984359
     3  Na  -0.026216   0.028797   0.374263  -0.157823  -0.045906  -0.105408
     4  Na  -0.228339  -0.692840  -0.157823  -0.101872   0.462205   0.316514
     5  Na  -0.622630  -0.055028  -0.045906   0.462205   0.057479  -0.426883
     6  Na   0.397754   0.984359  -0.105408   0.316514  -0.426883   0.716410
     7  Na  -1.261849  -1.023593   0.047923   0.462718   0.659458  -1.280653
               7
     1  Na  -1.261849
     2  Na  -1.023593
     3  Na   0.047923
     4  Na   0.462718
     5  Na   0.659458
     6  Na  -1.280653
     7  Na   2.021999
 Mulliken charges and spin densities:
               1          2
     1  Na   1.681376   0.093609
     2  Na  -1.006165   0.473408
     3  Na   0.358847   0.115631
     4  Na  -1.037108   0.060562
     5  Na   0.487077   0.028695
     6  Na  -0.213285   0.602092
     7  Na  -0.270742  -0.373997
 Sum of Mulliken charges =  -0.00000   1.00000
 Mulliken charges and spin densities with hydrogens summed into heavy atoms:
               1          2
     1  Na   1.681376   0.093609
     2  Na  -1.006165   0.473408
     3  Na   0.358847   0.115631
     4  Na  -1.037108   0.060562
     5  Na   0.487077   0.028695
     6  Na  -0.213285   0.602092
     7  Na  -0.270742  -0.373997
 Electronic spatial extent (au):  <R**2>=           2572.0937
 Charge=             -0.0000 electrons
 Dipole moment (field-independent basis, Debye):
    X=              1.0021    Y=             -0.9354    Z=              0.1164  Tot=              1.3757
 Quadrupole moment (field-independent basis, Debye-Ang):
   XX=            -50.6613   YY=            -65.4733   ZZ=            -73.7339
   XY=              3.4731   XZ=              0.0462   YZ=              2.5776
 Traceless Quadrupole moment (field-independent basis, Debye-Ang):
   XX=             12.6282   YY=             -2.1838   ZZ=            -10.4444
   XY=              3.4731   XZ=              0.0462   YZ=              2.5776
 Octapole moment (field-independent basis, Debye-Ang**2):
  XXX=             67.0964  YYY=             -3.3286  ZZZ=              4.7651  XYY=            -26.3923
  XXY=             10.3378  XXZ=              0.3458  XZZ=              6.0605  YZZ=             -5.7240
  YYZ=             -5.9949  XYZ=             -2.5530
 Hexadecapole moment (field-independent basis, Debye-Ang**3):
 XXXX=          -1879.6317 YYYY=          -1358.4116 ZZZZ=           -606.4324 XXXY=            109.5333
 XXXZ=             11.7684 YYYX=            -23.6267 YYYZ=             39.0803 ZZZX=              3.6262
 ZZZY=             13.0721 XXYY=           -512.6615 XXZZ=           -539.4450 YYZZ=           -350.8220
 XXYZ=             17.2046 YYXZ=            -20.9060 ZZXY=              0.1661
 N-N= 3.501844407006D+02 E-N=-3.429610045410D+03  KE= 1.133198739831D+03
                          Isotropic Fermi Contact Couplings
        Atom                 a.u.       MegaHertz       Gauss      10(-4) cm-1
     1  Na(23)             0.21718     256.92682      91.67788      85.70156
     2  Na(23)             0.20032     236.98973      84.56383      79.05126
     3  Na(23)             0.04828      57.11845      20.38128      19.05266
     4  Na(23)             0.03024      35.77313      12.76474      11.93263
     5  Na(23)             0.05508      65.15857      23.25020      21.73456
     6  Na(23)             0.05470      64.71185      23.09080      21.58555
     7  Na(23)            -0.03739     -44.22987     -15.78232     -14.75350
 --------------------------------------------------------
       Center         ----  Spin Dipole Couplings  ----
                      3XX-RR        3YY-RR        3ZZ-RR
 --------------------------------------------------------
     1   Atom       -0.027267      0.021615      0.005652
     2   Atom        0.004328     -0.004329      0.000000
     3   Atom       -0.002201     -0.000562      0.002763
     4   Atom       -0.008595     -0.021464      0.030058
     5   Atom       -0.023238     -0.018298      0.041536
     6   Atom        0.001572     -0.041489      0.039918
     7   Atom       -0.000613     -0.000527      0.001140
 --------------------------------------------------------
                        XY            XZ            YZ
 --------------------------------------------------------
     1   Atom       -0.005341      0.010039     -0.039023
     2   Atom        0.007589     -0.017142     -0.010234
     3   Atom        0.000549     -0.001983      0.001081
     4   Atom        0.017900      0.043589      0.033710
     5   Atom       -0.001704      0.003069      0.011364
     6   Atom       -0.004798     -0.056371      0.016246
     7   Atom       -0.001762     -0.000681     -0.001882
 --------------------------------------------------------


 ---------------------------------------------------------------------------------
              Anisotropic Spin Dipole Couplings in Principal Axis System
 ---------------------------------------------------------------------------------

       Atom             a.u.   MegaHertz   Gauss  10(-4) cm-1        Axes

              Baa    -0.0319    -4.509    -1.609    -1.504  0.7896 -0.3080 -0.5308
     1 Na(23) Bbb    -0.0229    -3.230    -1.153    -1.078  0.6004  0.5669  0.5641
              Bcc     0.0548     7.740     2.762     2.582 -0.1271  0.7641 -0.6325
 
              Baa    -0.0161    -2.269    -0.810    -0.757  0.5292  0.3367  0.7788
     2 Na(23) Bbb    -0.0087    -1.233    -0.440    -0.411 -0.5189  0.8547 -0.0170
              Bcc     0.0248     3.503     1.250     1.168  0.6714  0.3951 -0.6270
 
              Baa    -0.0032    -0.452    -0.161    -0.151  0.8775 -0.3267  0.3511
     3 Na(23) Bbb    -0.0004    -0.061    -0.022    -0.020  0.3756  0.9234 -0.0794
              Bcc     0.0036     0.513     0.183     0.171 -0.2982  0.2016  0.9330
 
              Baa    -0.0400    -5.642    -2.013    -1.882  0.4709  0.6437 -0.6032
     4 Na(23) Bbb    -0.0337    -4.756    -1.697    -1.586  0.7290 -0.6690 -0.1448
              Bcc     0.0736    10.397     3.710     3.468  0.4967  0.3716  0.7844
 
              Baa    -0.0245    -3.466    -1.237    -1.156  0.8807  0.4583 -0.1197
     5 Na(23) Bbb    -0.0192    -2.710    -0.967    -0.904 -0.4719  0.8706 -0.1391
              Bcc     0.0437     6.175     2.204     2.060  0.0405  0.1790  0.9830
 
              Baa    -0.0472    -6.663    -2.377    -2.222 -0.3862  0.8290 -0.4046
     6 Na(23) Bbb    -0.0352    -4.967    -1.772    -1.657  0.7232  0.5443  0.4251
              Bcc     0.0824    11.630     4.150     3.879 -0.5726  0.1284  0.8097
 
              Baa    -0.0031    -0.441    -0.158    -0.147  0.5962  0.6951  0.4017
     7 Na(23) Bbb     0.0007     0.098     0.035     0.033  0.7842 -0.3972 -0.4767
              Bcc     0.0024     0.344     0.123     0.115  0.1718 -0.5993  0.7819
 

 ---------------------------------------------------------------------------------

 No NMR shielding tensors so no spin-rotation constants.
 Leave Link  601 at Mon Nov 13 19:08:07 2023, MaxMem=  1879048192 cpu:               2.6 elap:               0.2
 (Enter /home/sekinelabo/g16/l701.exe)
 ... and contract with generalized density number  0.
 Compute integral first derivatives.
 Leave Link  701 at Mon Nov 13 19:08:08 2023, MaxMem=  1879048192 cpu:               1.8 elap:               0.1
 (Enter /home/sekinelabo/g16/l702.exe)
 L702 exits ... SP integral derivatives will be done elsewhere.
 Leave Link  702 at Mon Nov 13 19:08:08 2023, MaxMem=  1879048192 cpu:               0.5 elap:               0.0
 (Enter /home/sekinelabo/g16/l703.exe)
 Integral derivatives from FoFJK, PRISM(SPDF).
 Compute integral first derivatives, UseDBF=F ICtDFT=           0.
 Calling FoFJK, ICntrl=      2127 FMM=F ISym2X=0 I1Cent= 0 IOpClX= 1 NMat=1 NMatS=1 NMatT=0.
 FoFJK:  IHMeth= 1 ICntrl=    2127 DoSepK=F KAlg= 0 I1Cent=           0 FoldK=F
 IRaf=         0 NMat=       1 IRICut=       1 DoRegI=T DoRafI=F ISym2E= 0 IDoP0=0 IntGTp=1.
 FoFCou: FMM=F IPFlag=           0 FMFlag=      100000 FMFlg1=         800
         NFxFlg=           0 DoJE=F BraDBF=F KetDBF=F FulRan=T
         wScrn=  0.000000 ICntrl=      2127 IOpCl=  1 I1Cent=           0 NGrid=           0
         NMat0=    1 NMatS0=      1 NMatT0=    0 NMatD0=    1 NMtDS0=    0 NMtDT0=    0
 Symmetry not used in FoFCou.
 Leave Link  703 at Mon Nov 13 19:08:10 2023, MaxMem=  1879048192 cpu:              34.5 elap:               2.2
 (Enter /home/sekinelabo/g16/l716.exe)
 Dipole        = 3.94251628D-01-3.67995309D-01 4.57913111D-02
 ***** Axes restored to original set *****
 -------------------------------------------------------------------
 Center     Atomic                   Forces (Hartrees/Bohr)
 Number     Number              X              Y              Z
 -------------------------------------------------------------------
      1       11           0.009496728    0.012638542    0.012697028
      2       11           0.003375129    0.000489054   -0.018099304
      3       11           0.001483830    0.001578955   -0.002283501
      4       11           0.005946322   -0.012621483    0.004812855
      5       11          -0.009942024    0.010324980   -0.004323401
      6       11          -0.010575382   -0.010183522    0.008959372
      7       11           0.000215398   -0.002226526   -0.001763048
 -------------------------------------------------------------------
 Cartesian Forces:  Max     0.018099304 RMS     0.008468851
 Z-matrix is all fixed cartesians, so copy forces.
 Force constants in Cartesian coordinates: 
                1             2             3             4             5 
      1  0.107422D+00
      2  0.736887D-02  0.117553D+00
      3  0.315657D-01  0.339589D-01  0.105821D+00
      4 -0.105817D-01 -0.471745D-02 -0.177878D-01  0.865034D-01
      5  0.466647D-03 -0.155418D-01 -0.277442D-01 -0.158490D-01  0.757245D-01
      6  0.607290D-02 -0.189601D-02 -0.485153D-01 -0.179963D-01 -0.267726D-02
      7  0.294044D-03  0.717216D-04  0.149147D-03 -0.124157D-02 -0.205155D-03
      8  0.701810D-02  0.310534D-02 -0.169792D-02  0.402824D-02  0.156046D-02
      9  0.146631D-02  0.388508D-03  0.627339D-03 -0.544601D-02 -0.880079D-03
     10 -0.239263D-01 -0.949722D-02 -0.104348D-01 -0.227135D-01  0.782692D-02
     11  0.156496D-01 -0.473611D-01  0.133316D-03  0.101149D-01 -0.223217D-01
     12  0.428821D-02 -0.232930D-01 -0.162274D-01 -0.152808D-01  0.274532D-01
     13 -0.372989D-01  0.199437D-01 -0.117587D-01 -0.276498D-01  0.196265D-01
     14 -0.121290D-01 -0.168677D-01 -0.136382D-01  0.131319D-01 -0.180001D-01
     15 -0.276653D-01  0.717506D-02 -0.184331D-01  0.288925D-01 -0.199501D-01
     16 -0.425873D-01 -0.771118D-02  0.948264D-02 -0.240412D-01 -0.946964D-02
     17 -0.140542D-01 -0.451535D-01  0.116936D-01 -0.607256D-02 -0.212189D-01
     18 -0.156256D-01 -0.141171D-01 -0.342275D-01  0.250641D-01  0.182728D-01
     19  0.667821D-02 -0.545842D-02 -0.121615D-02 -0.275629D-03 -0.239628D-02
     20 -0.432007D-02  0.426534D-02 -0.270548D-02 -0.635953D-03 -0.202533D-03
     21 -0.102243D-03 -0.221622D-02  0.109553D-01  0.255427D-02  0.552561D-02
                6             7             8             9            10 
      6  0.155249D+00
      7  0.703554D-03  0.360770D-01
      8 -0.156175D-02 -0.503131D-03  0.187046D-01
      9  0.310203D-02 -0.486942D-02 -0.265185D-02  0.153990D-01
     10  0.983126D-02 -0.352741D-01 -0.118900D-01  0.817441D-02  0.131559D+00
     11  0.111627D-02  0.720436D-03 -0.317688D-01  0.333139D-02 -0.135112D-01
     12 -0.424508D-01  0.207300D-02  0.637399D-02 -0.277837D-01 -0.574512D-03
     13 -0.248350D-02 -0.120911D-04  0.191484D-04 -0.534811D-04 -0.166119D-03
     14  0.691381D-02 -0.218730D-04 -0.264499D-04 -0.981006D-04  0.889300D-02
     15 -0.281878D-01 -0.377840D-04 -0.214987D-03 -0.173210D-03 -0.185420D-02
     16  0.528350D-02  0.155036D-03  0.132101D-02  0.720437D-03 -0.482792D-01
     17 -0.137150D-02 -0.426153D-04  0.849970D-02 -0.179473D-05  0.174602D-01
     18 -0.437176D-01  0.192429D-02 -0.468330D-03  0.856858D-02 -0.534090D-02
     19 -0.141141D-02  0.171003D-05  0.660083D-05  0.776986D-05 -0.119931D-02
     20 -0.523555D-03 -0.193837D-04 -0.748224D-04 -0.880737D-04  0.718230D-03
     21  0.452065D-02  0.572146D-04  0.220852D-03  0.259966D-03  0.198713D-03
               11            12            13            14            15 
     11  0.141318D+00
     12 -0.124668D-01  0.106863D+00
     13  0.885931D-02 -0.193774D-02  0.891022D-01
     14  0.182922D-02  0.205409D-02 -0.301013D-01  0.782375D-01
     15  0.219980D-02  0.999781D-02  0.971193D-02 -0.454286D-02  0.532151D-01
     16 -0.156432D-01  0.139118D-01 -0.279449D-01  0.185615D-01 -0.111231D-01
     17 -0.455154D-01 -0.139223D-02 -0.149605D-01 -0.434560D-01  0.179473D-01
     18  0.501319D-02 -0.314811D-01  0.401755D-02  0.733586D-02 -0.203687D-01
     19 -0.618986D-02 -0.247997D-02  0.396963D-02  0.166579D-02  0.207585D-02
     20  0.381958D-02  0.127083D-02 -0.338686D-02 -0.171649D-02 -0.261425D-02
     21  0.672823D-03  0.108219D-02  0.250398D-02  0.197539D-02  0.394997D-02
               16            17            18            19            20 
     16  0.178899D+00
     17  0.108840D-01  0.185557D+00
     18 -0.101069D-01 -0.182456D-01  0.165329D+00
     19 -0.362009D-01  0.678554D-02  0.674298D-04  0.270263D-01
     20  0.205741D-02 -0.387132D-01  0.220918D-02  0.558663D-02  0.326221D-01
     21 -0.816842D-02 -0.862979D-02 -0.441023D-01  0.295648D-02  0.245134D-02
               21 
     21  0.233342D-01
 Leave Link  716 at Mon Nov 13 19:08:10 2023, MaxMem=  1879048192 cpu:               0.5 elap:               0.0
 (Enter /home/sekinelabo/g16/l103.exe)

 GradGradGradGradGradGradGradGradGradGradGradGradGradGradGradGradGradGrad
 Berny optimization.
 Search for a local minimum.
 Step number   1 out of a maximum of    2
 All quantities printed in internal units (Hartrees-Bohrs-Radians)
 Second derivative matrix not updated -- first step.
 ITU=  0
     Eigenvalues ---    0.01709   0.02885   0.03295   0.03809   0.05614
     Eigenvalues ---    0.06035   0.13320   0.13753   0.14492   0.17174
     Eigenvalues ---    0.18585   0.20925   0.22449   0.22795   0.25821
 Quadratic step=3.125D-01 exceeds max=3.000D-01 adjusted using Lamda=-2.565D-03.
 Angle between NR and scaled steps=   1.55 degrees.
 Angle between quadratic step and forces=  32.45 degrees.
 Linear search not attempted -- first point.
 B after Tr=     0.000000   -0.000000    0.000000
         Rot=    1.000000   -0.000000   -0.000000    0.000000 Ang=   0.00 deg.
 Variable       Old X    -DE/DX   Delta X   Delta X   Delta X     New X
                                 (Linear)    (Quad)   (Total)
    X1        6.62848   0.00950   0.00000   0.02985   0.02985   6.65833
    Y1        8.84046   0.01264   0.00000   0.09017   0.09017   8.93063
    Z1        5.24149   0.01270   0.00000   0.09035   0.09035   5.33185
    X2        5.86072   0.00338   0.00000   0.02141   0.02141   5.88214
    Y2        6.82113   0.00049   0.00000   0.01690   0.01690   6.83803
    Z2        0.00000  -0.01810   0.00000  -0.07400  -0.07400  -0.07400
    X3       14.10510   0.00148   0.00000   0.08315   0.08315  14.18825
    Y3        3.72420   0.00158   0.00000  -0.02643  -0.02643   3.69777
    Z3        2.63767  -0.00228   0.00000  -0.04873  -0.04873   2.58893
    X4        8.57462   0.00595   0.00000   0.05877   0.05877   8.63339
    Y4        3.69673  -0.01262   0.00000  -0.07111  -0.07111   3.62563
    Z4        3.87818   0.00481   0.00000   0.05074   0.05074   3.92891
    X5        1.75597  -0.00994   0.00000  -0.08005  -0.08005   1.67591
    Y5        9.81550   0.01032   0.00000   0.12483   0.12483   9.94033
    Z5        2.51806  -0.00432   0.00000  -0.05471  -0.05471   2.46336
    X6        2.99184  -0.01058   0.00000  -0.07162  -0.07162   2.92022
    Y6        4.59028  -0.01018   0.00000  -0.03710  -0.03710   4.55318
    Z6        4.34776   0.00896   0.00000   0.05158   0.05158   4.39934
    X7        0.00000   0.00022   0.00000  -0.04151  -0.04151  -0.04151
    Y7        0.00000  -0.00223   0.00000  -0.09726  -0.09726  -0.09726
    Z7        2.88204  -0.00176   0.00000  -0.01523  -0.01523   2.86681
         Item               Value     Threshold  Converged?
 Maximum Force            0.018099     0.000450     NO 
 RMS     Force            0.008469     0.000300     NO 
 Maximum Displacement     0.124828     0.001800     NO 
 RMS     Displacement     0.065480     0.001200     NO 
 Predicted change in Energy=-5.029136D-03
 GradGradGradGradGradGradGradGradGradGradGradGradGradGradGradGradGradGrad

 Leave Link  103 at Mon Nov 13 19:08:10 2023, MaxMem=  1879048192 cpu:               0.3 elap:               0.0
 (Enter /home/sekinelabo/g16/l9999.exe)
 1\1\GINC-SEKINELABO-XA7R-R37\Force\UB3LYP\6-311+G(d)\Na7(2)\SEKINELABO
 \13-Nov-2023\0\\#P B3LYP/6-311+g(d) force\\Gaussian input prepared by 
 ASE\\0,2\Na,3.5076392354,4.6781722213,2.7736785373\Na,3.1013598102,3.6
 095844531,0.\Na,7.4640983813,1.9707621811,1.3957940467\Na,4.5374941738
 ,1.9562275599,2.0522427059\Na,0.9292172942,5.1941403119,1.3325019318\N
 a,1.5832148929,2.4290703622,2.3007341483\Na,0.,0.,1.5251102517\\Versio
 n=ES64L-G16RevB.01\State=2-A\HF=-1136.0897004\S2=0.761907\S2-1=0.\S2A=
 0.750095\RMSD=9.630e-09\RMSF=8.469e-03\Dipole=0.3942516,0.3679953,-0.0
 457913\Quadrupole=9.3887632,-1.6236162,-7.765147,-2.5821482,-0.0343555
 ,1.9163934\PG=C01 [X(Na7)]\\@


 Boundary, n.  In political geography, an imaginary
 line between two nations, separating the imaginary
 rights of one from the imaginary rights of another.
                               -- Ambrose Bierce
 Job cpu time:       0 days  0 hours  5 minutes  3.5 seconds.
 Elapsed time:       0 days  0 hours  0 minutes 24.9 seconds.
 File lengths (MBytes):  RWF=     32 Int=      0 D2E=      0 Chk=      6 Scr=      1
 Normal termination of Gaussian 16 at Mon Nov 13 19:08:10 2023.
