 Entering Gaussian System, Link 0=g16
 Initial command:
 /home/sekinelabo/g16/l1.exe "/home/sekinelabo/g16temp/Gau-4148742.inp" -scrdir="/home/sekinelabo/g16temp/"
 Entering Link 1 = /home/sekinelabo/g16/l1.exe PID=   4148744.
  
 Copyright (c) 1988-2017, Gaussian, Inc.  All Rights Reserved.
  
 This is part of the Gaussian(R) 16 program.  It is based on
 the Gaussian(R) 09 system (copyright 2009, Gaussian, Inc.),
 the Gaussian(R) 03 system (copyright 2003, Gaussian, Inc.),
 the Gaussian(R) 98 system (copyright 1998, Gaussian, Inc.),
 the Gaussian(R) 94 system (copyright 1995, Gaussian, Inc.),
 the Gaussian 92(TM) system (copyright 1992, Gaussian, Inc.),
 the Gaussian 90(TM) system (copyright 1990, Gaussian, Inc.),
 the Gaussian 88(TM) system (copyright 1988, Gaussian, Inc.),
 the Gaussian 86(TM) system (copyright 1986, Carnegie Mellon
 University), and the Gaussian 82(TM) system (copyright 1983,
 Carnegie Mellon University). Gaussian is a federally registered
 trademark of Gaussian, Inc.
  
 This software contains proprietary and confidential information,
 including trade secrets, belonging to Gaussian, Inc.
  
 This software is provided under written license and may be
 used, copied, transmitted, or stored only in accord with that
 written license.
  
 The following legend is applicable only to US Government
 contracts under FAR:
  
                    RESTRICTED RIGHTS LEGEND
  
 Use, reproduction and disclosure by the US Government is
 subject to restrictions as set forth in subparagraphs (a)
 and (c) of the Commercial Computer Software - Restricted
 Rights clause in FAR 52.227-19.
  
 Gaussian, Inc.
 340 Quinnipiac St., Bldg. 40, Wallingford CT 06492
  
  
 ---------------------------------------------------------------
 Warning -- This program may not be used in any manner that
 competes with the business of Gaussian, Inc. or will provide
 assistance to any competitor of Gaussian, Inc.  The licensee
 of this program is prohibited from giving any competitor of
 Gaussian, Inc. access to this program.  By using this program,
 the user acknowledges that Gaussian, Inc. is engaged in the
 business of creating and licensing software in the field of
 computational chemistry and represents and warrants to the
 licensee that it is not a competitor of Gaussian, Inc. and that
 it will not use this program in any manner prohibited above.
 ---------------------------------------------------------------
  

 Cite this work as:
 Gaussian 16, Revision B.01,
 M. J. Frisch, G. W. Trucks, H. B. Schlegel, G. E. Scuseria, 
 M. A. Robb, J. R. Cheeseman, G. Scalmani, V. Barone, 
 G. A. Petersson, H. Nakatsuji, X. Li, M. Caricato, A. V. Marenich, 
 J. Bloino, B. G. Janesko, R. Gomperts, B. Mennucci, H. P. Hratchian, 
 J. V. Ortiz, A. F. Izmaylov, J. L. Sonnenberg, D. Williams-Young, 
 F. Ding, F. Lipparini, F. Egidi, J. Goings, B. Peng, A. Petrone, 
 T. Henderson, D. Ranasinghe, V. G. Zakrzewski, J. Gao, N. Rega, 
 G. Zheng, W. Liang, M. Hada, M. Ehara, K. Toyota, R. Fukuda, 
 J. Hasegawa, M. Ishida, T. Nakajima, Y. Honda, O. Kitao, H. Nakai, 
 T. Vreven, K. Throssell, J. A. Montgomery, Jr., J. E. Peralta, 
 F. Ogliaro, M. J. Bearpark, J. J. Heyd, E. N. Brothers, K. N. Kudin, 
 V. N. Staroverov, T. A. Keith, R. Kobayashi, J. Normand, 
 K. Raghavachari, A. P. Rendell, J. C. Burant, S. S. Iyengar, 
 J. Tomasi, M. Cossi, J. M. Millam, M. Klene, C. Adamo, R. Cammi, 
 J. W. Ochterski, R. L. Martin, K. Morokuma, O. Farkas, 
 J. B. Foresman, and D. J. Fox, Gaussian, Inc., Wallingford CT, 2016.
 
 ******************************************
 Gaussian 16:  ES64L-G16RevB.01 20-Dec-2017
                13-Nov-2023 
 ******************************************
 %mem=14GB
 %chk=checkpoint.chk
 %nprocshared=16
 Will use up to   16 processors via shared memory.
 -------------------------
 #P B3LYP/6-311+g(d) force
 -------------------------
 1/10=7,30=1,38=1/1,3;
 2/12=2,17=6,18=5,40=1/2;
 3/5=4,6=6,7=11,11=2,25=1,30=1,71=1,74=-5/1,2,3;
 4//1;
 5/5=2,38=5/2;
 6/7=2,8=2,9=2,10=2,28=1/1;
 7/29=1/1,2,3,16;
 1/10=7,30=1/3;
 99//99;
 Leave Link    1 at Mon Nov 13 19:29:12 2023, MaxMem=  1879048192 cpu:               0.3 elap:               0.0
 (Enter /home/sekinelabo/g16/l101.exe)
 ------------------------------
 Gaussian input prepared by ASE
 ------------------------------
 Symbolic Z-matrix:
 Charge =  0 Multiplicity = 2
 Na                    2.27462   0.59576   1.38982 
 Na                    2.32161   1.86304   4.10898 
 Na                    0.        1.97785   0. 
 Na                    1.93021   3.55968   1.66412 
 Na                    4.42508   4.7873    0.53441 
 Na                    4.59902   2.30294   2.20476 
 Na                    5.01658   0.        0.3255 
 
 ITRead=  0  0  0  0  0  0  0
 MicOpt= -1 -1 -1 -1 -1 -1 -1
 NAtoms=      7 NQM=        7 NQMF=       0 NMMI=      0 NMMIF=      0
                NMic=       0 NMicF=      0.
                    Isotopes and Nuclear Properties:
 (Nuclear quadrupole moments (NQMom) in fm**2, nuclear magnetic moments (NMagM)
  in nuclear magnetons)

  Atom         1           2           3           4           5           6           7
 IAtWgt=          23          23          23          23          23          23          23
 AtmWgt=  22.9897697  22.9897697  22.9897697  22.9897697  22.9897697  22.9897697  22.9897697
 NucSpn=           3           3           3           3           3           3           3
 AtZEff=  -0.0000000  -0.0000000  -0.0000000  -0.0000000  -0.0000000  -0.0000000  -0.0000000
 NQMom=   10.4000000  10.4000000  10.4000000  10.4000000  10.4000000  10.4000000  10.4000000
 NMagM=    2.2175200   2.2175200   2.2175200   2.2175200   2.2175200   2.2175200   2.2175200
 AtZNuc=  11.0000000  11.0000000  11.0000000  11.0000000  11.0000000  11.0000000  11.0000000
 Leave Link  101 at Mon Nov 13 19:29:12 2023, MaxMem=  1879048192 cpu:               2.7 elap:               0.2
 (Enter /home/sekinelabo/g16/l103.exe)

 GradGradGradGradGradGradGradGradGradGradGradGradGradGradGradGradGradGrad
 Berny optimization.
 Initialization pass.
 Trust Radius=3.00D-01 FncErr=1.00D-07 GrdErr=1.00D-07 EigMax=2.50D+02 EigMin=1.00D-04
 Number of steps in this run=      2 maximum allowed number of steps=      2.
 GradGradGradGradGradGradGradGradGradGradGradGradGradGradGradGradGradGrad

 Leave Link  103 at Mon Nov 13 19:29:12 2023, MaxMem=  1879048192 cpu:               0.2 elap:               0.0
 (Enter /home/sekinelabo/g16/l202.exe)
                          Input orientation:                          
 ---------------------------------------------------------------------
 Center     Atomic      Atomic             Coordinates (Angstroms)
 Number     Number       Type             X           Y           Z
 ---------------------------------------------------------------------
      1         11           0        2.274622    0.595757    1.389821
      2         11           0        2.321606    1.863040    4.108975
      3         11           0        0.000000    1.977846    0.000000
      4         11           0        1.930214    3.559684    1.664116
      5         11           0        4.425076    4.787296    0.534411
      6         11           0        4.599015    2.302938    2.204760
      7         11           0        5.016579    0.000000    0.325497
 ---------------------------------------------------------------------
                    Distance matrix (angstroms):
                    1          2          3          4          5
     1  Na   0.000000
     2  Na   3.000335   0.000000
     3  Na   3.002612   4.720881   0.000000
     4  Na   2.996451   3.001521   2.999537   0.000000
     5  Na   4.788024   5.074778   5.268767   3.001266   0.000000
     6  Na   2.996897   3.001022   5.110537   2.999034   2.998726
     7  Na   3.001007   5.004848   5.402212   4.897847   4.828222
                    6          7
     6  Na   0.000000
     7  Na   3.001585   0.000000
 Stoichiometry    Na7(2)
 Framework group  C1[X(Na7)]
 Deg. of freedom    15
 Full point group                 C1      NOp   1
 Largest Abelian subgroup         C1      NOp   1
 Largest concise Abelian subgroup C1      NOp   1
                         Standard orientation:                         
 ---------------------------------------------------------------------
 Center     Atomic      Atomic             Coordinates (Angstroms)
 Number     Number       Type             X           Y           Z
 ---------------------------------------------------------------------
      1         11           0       -0.663537   -1.559466   -0.071262
      2         11           0       -0.616553   -0.292183    2.647892
      3         11           0       -2.938159   -0.177377   -1.461083
      4         11           0       -1.007944    1.404461    0.203033
      5         11           0        1.486917    2.632073   -0.926672
      6         11           0        1.660856    0.147715    0.743677
      7         11           0        2.078420   -2.155223   -1.135586
 ---------------------------------------------------------------------
 Rotational constants (GHZ):           0.7848295           0.6945130           0.6127734
 Leave Link  202 at Mon Nov 13 19:29:12 2023, MaxMem=  1879048192 cpu:               0.0 elap:               0.0
 (Enter /home/sekinelabo/g16/l301.exe)
 Standard basis: 6-311+G(d) (5D, 7F)
 Ernie: Thresh=  0.10000D-02 Tol=  0.10000D-05 Strict=F.
 There are   217 symmetry adapted cartesian basis functions of A   symmetry.
 There are   210 symmetry adapted basis functions of A   symmetry.
   210 basis functions,   350 primitive gaussians,   217 cartesian basis functions
    39 alpha electrons       38 beta electrons
       nuclear repulsion energy       371.3387243202 Hartrees.
 IExCor=  402 DFT=T Ex+Corr=B3LYP ExCW=0 ScaHFX=  0.200000
 ScaDFX=  0.800000  0.720000  1.000000  0.810000 ScalE2=  1.000000  1.000000
 IRadAn=      5 IRanWt=     -1 IRanGd=            0 ICorTp=0 IEmpDi=  4
 NAtoms=    7 NActive=    7 NUniq=    7 SFac= 1.00D+00 NAtFMM=   60 NAOKFM=F Big=F
 Integral buffers will be    131072 words long.
 Raffenetti 2 integral format.
 Two-electron integral symmetry is turned on.
 Leave Link  301 at Mon Nov 13 19:29:12 2023, MaxMem=  1879048192 cpu:               0.5 elap:               0.0
 (Enter /home/sekinelabo/g16/l302.exe)
 NPDir=0 NMtPBC=     1 NCelOv=     1 NCel=       1 NClECP=     1 NCelD=      1
         NCelK=      1 NCelE2=     1 NClLst=     1 CellRange=     0.0.
 One-electron integrals computed using PRISM.
 One-electron integral symmetry used in STVInt
 NBasis=   210 RedAO= T EigKep=  1.99D-06  NBF=   210
 NBsUse=   210 1.00D-06 EigRej= -1.00D+00 NBFU=   210
 Precomputing XC quadrature grid using
 IXCGrd= 4 IRadAn=           5 IRanWt=          -1 IRanGd=           0 AccXCQ= 0.00D+00.
 Generated NRdTot=       0 NPtTot=           0 NUsed=           0 NTot=          32
 NSgBfM=   210   210   210   210   210 MxSgAt=     7 MxSgA2=     7.
 Leave Link  302 at Mon Nov 13 19:29:12 2023, MaxMem=  1879048192 cpu:               2.2 elap:               0.1
 (Enter /home/sekinelabo/g16/l303.exe)
 DipDrv:  MaxL=1.
 Leave Link  303 at Mon Nov 13 19:29:12 2023, MaxMem=  1879048192 cpu:               0.6 elap:               0.0
 (Enter /home/sekinelabo/g16/l401.exe)
 ExpMin= 7.60D-03 ExpMax= 3.62D+04 ExpMxC= 1.21D+03 IAcc=3 IRadAn=         5 AccDes= 0.00D+00
 Harris functional with IExCor=  402 and IRadAn=       5 diagonalized for initial guess.
 HarFok:  IExCor=  402 AccDes= 0.00D+00 IRadAn=         5 IDoV= 1 UseB2=F ITyADJ=14
 ICtDFT=  3500011 ScaDFX=  1.000000  1.000000  1.000000  1.000000
 FoFCou: FMM=F IPFlag=           0 FMFlag=      100000 FMFlg1=           0
         NFxFlg=           0 DoJE=T BraDBF=F KetDBF=T FulRan=T
         wScrn=  0.000000 ICntrl=       500 IOpCl=  0 I1Cent=   200000004 NGrid=           0
         NMat0=    1 NMatS0=      1 NMatT0=    0 NMatD0=    1 NMtDS0=    0 NMtDT0=    0
 Petite list used in FoFCou.
 Harris En= -1135.87234630958    
 JPrj=0 DoOrth=F DoCkMO=F.
 Initial guess <Sx>= 0.0000 <Sy>= 0.0000 <Sz>= 0.5000 <S**2>= 0.7500 S= 0.5000
 Leave Link  401 at Mon Nov 13 19:29:13 2023, MaxMem=  1879048192 cpu:               4.8 elap:               0.3
 (Enter /home/sekinelabo/g16/l502.exe)
 Keep R1 and R2 ints in memory in canonical form, NReq=507620374.
 FoFCou: FMM=F IPFlag=           0 FMFlag=           0 FMFlg1=           0
         NFxFlg=           0 DoJE=F BraDBF=F KetDBF=F FulRan=T
         wScrn=  0.000000 ICntrl=       600 IOpCl=  0 I1Cent=           0 NGrid=           0
         NMat0=    1 NMatS0=  22155 NMatT0=    0 NMatD0=    1 NMtDS0=    0 NMtDT0=    0
 Symmetry not used in FoFCou.
 Two-electron integral symmetry not used.
 UHF open shell SCF:
 Using DIIS extrapolation, IDIIS=  1040.
 NGot=  1879048192 LenX=  1388082362 LenY=  1388034832
 Requested convergence on RMS density matrix=1.00D-08 within 128 cycles.
 Requested convergence on MAX density matrix=1.00D-06.
 Requested convergence on             energy=1.00D-06.
 No special actions if energy rises.

 Cycle   1  Pass 1  IDiag  1:
 E= -1136.05574978726    
 DIIS: error= 1.33D-02 at cycle   1 NSaved=   1.
 NSaved= 1 IEnMin= 1 EnMin= -1136.05574978726     IErMin= 1 ErrMin= 1.33D-02
 ErrMax= 1.33D-02  0.00D+00 EMaxC= 1.00D-01 BMatC= 2.01D-01 BMatP= 2.01D-01
 IDIUse=3 WtCom= 8.67D-01 WtEn= 1.33D-01
 Coeff-Com:  0.100D+01
 Coeff-En:   0.100D+01
 Coeff:      0.100D+01
 Gap=     0.072 Goal=   None    Shift=    0.000
 Gap=     0.031 Goal=   None    Shift=    0.000
 GapD=    0.031 DampG=0.250 DampE=0.500 DampFc=0.2500 IDamp=-1.
 Damping current iteration by 2.50D-01
 RMSDP=2.44D-02 MaxDP=1.60D+00              OVMax= 2.50D-01

 Cycle   2  Pass 1  IDiag  1:
 E= -1136.07076395567     Delta-E=       -0.015014168407 Rises=F Damp=T
 DIIS: error= 9.31D-03 at cycle   2 NSaved=   2.
 NSaved= 2 IEnMin= 2 EnMin= -1136.07076395567     IErMin= 2 ErrMin= 9.31D-03
 ErrMax= 9.31D-03  0.00D+00 EMaxC= 1.00D-01 BMatC= 7.59D-02 BMatP= 2.01D-01
 IDIUse=3 WtCom= 9.07D-01 WtEn= 9.31D-02
 Coeff-Com: -0.125D+01 0.225D+01
 Coeff-En:   0.000D+00 0.100D+01
 Coeff:     -0.113D+01 0.213D+01
 Gap=     0.074 Goal=   None    Shift=    0.000
 Gap=     0.032 Goal=   None    Shift=    0.000
 RMSDP=1.55D-02 MaxDP=1.20D+00 DE=-1.50D-02 OVMax= 1.89D-01

 Cycle   3  Pass 1  IDiag  1:
 E= -1136.09429559522     Delta-E=       -0.023531639547 Rises=F Damp=F
 DIIS: error= 4.14D-03 at cycle   3 NSaved=   3.
 NSaved= 3 IEnMin= 3 EnMin= -1136.09429559522     IErMin= 3 ErrMin= 4.14D-03
 ErrMax= 4.14D-03  0.00D+00 EMaxC= 1.00D-01 BMatC= 5.83D-03 BMatP= 7.59D-02
 IDIUse=3 WtCom= 9.59D-01 WtEn= 4.14D-02
 Coeff-Com: -0.338D+00 0.608D+00 0.730D+00
 Coeff-En:   0.000D+00 0.000D+00 0.100D+01
 Coeff:     -0.324D+00 0.582D+00 0.742D+00
 Gap=     0.072 Goal=   None    Shift=    0.000
 Gap=     0.034 Goal=   None    Shift=    0.000
 RMSDP=8.75D-03 MaxDP=9.80D-01 DE=-2.35D-02 OVMax= 9.24D-02

 Cycle   4  Pass 1  IDiag  1:
 E= -1136.09484335467     Delta-E=       -0.000547759455 Rises=F Damp=F
 DIIS: error= 3.52D-03 at cycle   4 NSaved=   4.
 NSaved= 4 IEnMin= 4 EnMin= -1136.09484335467     IErMin= 4 ErrMin= 3.52D-03
 ErrMax= 3.52D-03  0.00D+00 EMaxC= 1.00D-01 BMatC= 4.45D-03 BMatP= 5.83D-03
 IDIUse=3 WtCom= 9.65D-01 WtEn= 3.52D-02
 Coeff-Com: -0.395D-02 0.887D-02 0.464D+00 0.531D+00
 Coeff-En:   0.000D+00 0.000D+00 0.471D+00 0.529D+00
 Coeff:     -0.381D-02 0.856D-02 0.465D+00 0.531D+00
 Gap=     0.072 Goal=   None    Shift=    0.000
 Gap=     0.033 Goal=   None    Shift=    0.000
 RMSDP=3.74D-03 MaxDP=4.81D-01 DE=-5.48D-04 OVMax= 5.28D-02

 Cycle   5  Pass 1  IDiag  1:
 E= -1136.09829608147     Delta-E=       -0.003452726796 Rises=F Damp=F
 DIIS: error= 6.58D-04 at cycle   5 NSaved=   5.
 NSaved= 5 IEnMin= 5 EnMin= -1136.09829608147     IErMin= 5 ErrMin= 6.58D-04
 ErrMax= 6.58D-04  0.00D+00 EMaxC= 1.00D-01 BMatC= 1.21D-04 BMatP= 4.45D-03
 IDIUse=3 WtCom= 9.93D-01 WtEn= 6.58D-03
 Coeff-Com: -0.109D-02 0.873D-03 0.245D+00 0.296D+00 0.460D+00
 Coeff-En:   0.000D+00 0.000D+00 0.000D+00 0.000D+00 0.100D+01
 Coeff:     -0.109D-02 0.868D-03 0.243D+00 0.294D+00 0.463D+00
 Gap=     0.072 Goal=   None    Shift=    0.000
 Gap=     0.033 Goal=   None    Shift=    0.000
 RMSDP=7.62D-04 MaxDP=5.55D-02 DE=-3.45D-03 OVMax= 9.95D-03

 Cycle   6  Pass 1  IDiag  1:
 E= -1136.09840953704     Delta-E=       -0.000113455570 Rises=F Damp=F
 DIIS: error= 1.04D-04 at cycle   6 NSaved=   6.
 NSaved= 6 IEnMin= 6 EnMin= -1136.09840953704     IErMin= 6 ErrMin= 1.04D-04
 ErrMax= 1.04D-04  0.00D+00 EMaxC= 1.00D-01 BMatC= 3.23D-06 BMatP= 1.21D-04
 IDIUse=3 WtCom= 9.99D-01 WtEn= 1.04D-03
 Coeff-Com: -0.240D-02 0.280D-02-0.287D-01-0.348D-01 0.847D-01 0.978D+00
 Coeff-En:   0.000D+00 0.000D+00 0.000D+00 0.000D+00 0.000D+00 0.100D+01
 Coeff:     -0.239D-02 0.280D-02-0.287D-01-0.348D-01 0.846D-01 0.978D+00
 Gap=     0.072 Goal=   None    Shift=    0.000
 Gap=     0.033 Goal=   None    Shift=    0.000
 RMSDP=4.36D-04 MaxDP=4.16D-02 DE=-1.13D-04 OVMax= 4.05D-03

 Cycle   7  Pass 1  IDiag  1:
 E= -1136.09841521908     Delta-E=       -0.000005682044 Rises=F Damp=F
 DIIS: error= 6.36D-05 at cycle   7 NSaved=   7.
 NSaved= 7 IEnMin= 7 EnMin= -1136.09841521908     IErMin= 7 ErrMin= 6.36D-05
 ErrMax= 6.36D-05  0.00D+00 EMaxC= 1.00D-01 BMatC= 6.06D-07 BMatP= 3.23D-06
 IDIUse=1 WtCom= 1.00D+00 WtEn= 0.00D+00
 Coeff-Com: -0.755D-03 0.868D-03-0.266D-01-0.321D-01 0.240D-02 0.391D+00
 Coeff-Com:  0.665D+00
 Coeff:     -0.755D-03 0.868D-03-0.266D-01-0.321D-01 0.240D-02 0.391D+00
 Coeff:      0.665D+00
 Gap=     0.072 Goal=   None    Shift=    0.000
 Gap=     0.033 Goal=   None    Shift=    0.000
 RMSDP=1.60D-04 MaxDP=9.06D-03 DE=-5.68D-06 OVMax= 1.55D-03

 Cycle   8  Pass 1  IDiag  1:
 E= -1136.09841623821     Delta-E=       -0.000001019122 Rises=F Damp=F
 DIIS: error= 4.12D-05 at cycle   8 NSaved=   8.
 NSaved= 8 IEnMin= 8 EnMin= -1136.09841623821     IErMin= 8 ErrMin= 4.12D-05
 ErrMax= 4.12D-05  0.00D+00 EMaxC= 1.00D-01 BMatC= 3.07D-07 BMatP= 6.06D-07
 IDIUse=1 WtCom= 1.00D+00 WtEn= 0.00D+00
 Coeff-Com:  0.560D-03-0.712D-03-0.725D-02-0.811D-02-0.326D-01-0.112D+00
 Coeff-Com:  0.442D+00 0.718D+00
 Coeff:      0.560D-03-0.712D-03-0.725D-02-0.811D-02-0.326D-01-0.112D+00
 Coeff:      0.442D+00 0.718D+00
 Gap=     0.072 Goal=   None    Shift=    0.000
 Gap=     0.033 Goal=   None    Shift=    0.000
 RMSDP=1.09D-04 MaxDP=6.56D-03 DE=-1.02D-06 OVMax= 2.06D-03

 Cycle   9  Pass 1  IDiag  1:
 E= -1136.09841710776     Delta-E=       -0.000000869550 Rises=F Damp=F
 DIIS: error= 1.48D-05 at cycle   9 NSaved=   9.
 NSaved= 9 IEnMin= 9 EnMin= -1136.09841710776     IErMin= 9 ErrMin= 1.48D-05
 ErrMax= 1.48D-05  0.00D+00 EMaxC= 1.00D-01 BMatC= 4.48D-08 BMatP= 3.07D-07
 IDIUse=1 WtCom= 1.00D+00 WtEn= 0.00D+00
 Coeff-Com:  0.195D-03-0.237D-03 0.316D-02 0.470D-02-0.383D-02-0.770D-01
 Coeff-Com: -0.206D+00 0.794D-01 0.120D+01
 Coeff:      0.195D-03-0.237D-03 0.316D-02 0.470D-02-0.383D-02-0.770D-01
 Coeff:     -0.206D+00 0.794D-01 0.120D+01
 Gap=     0.072 Goal=   None    Shift=    0.000
 Gap=     0.033 Goal=   None    Shift=    0.000
 RMSDP=1.13D-04 MaxDP=7.93D-03 DE=-8.70D-07 OVMax= 1.53D-03

 Cycle  10  Pass 1  IDiag  1:
 E= -1136.09841746952     Delta-E=       -0.000000361767 Rises=F Damp=F
 DIIS: error= 6.17D-06 at cycle  10 NSaved=  10.
 NSaved=10 IEnMin=10 EnMin= -1136.09841746952     IErMin=10 ErrMin= 6.17D-06
 ErrMax= 6.17D-06  0.00D+00 EMaxC= 1.00D-01 BMatC= 1.20D-08 BMatP= 4.48D-08
 IDIUse=1 WtCom= 1.00D+00 WtEn= 0.00D+00
 Coeff-Com: -0.124D-03 0.168D-03 0.167D-02 0.201D-02 0.286D-02 0.133D-01
 Coeff-Com: -0.105D+00-0.814D-01 0.100D+00 0.107D+01
 Coeff:     -0.124D-03 0.168D-03 0.167D-02 0.201D-02 0.286D-02 0.133D-01
 Coeff:     -0.105D+00-0.814D-01 0.100D+00 0.107D+01
 Gap=     0.072 Goal=   None    Shift=    0.000
 Gap=     0.033 Goal=   None    Shift=    0.000
 RMSDP=5.85D-05 MaxDP=4.30D-03 DE=-3.62D-07 OVMax= 9.26D-04

 Cycle  11  Pass 1  IDiag  1:
 E= -1136.09841758177     Delta-E=       -0.000000112243 Rises=F Damp=F
 DIIS: error= 5.37D-06 at cycle  11 NSaved=  11.
 NSaved=11 IEnMin=11 EnMin= -1136.09841758177     IErMin=11 ErrMin= 5.37D-06
 ErrMax= 5.37D-06  0.00D+00 EMaxC= 1.00D-01 BMatC= 8.96D-09 BMatP= 1.20D-08
 IDIUse=1 WtCom= 1.00D+00 WtEn= 0.00D+00
 Coeff-Com: -0.227D-03 0.292D-03-0.207D-03-0.628D-03 0.408D-02 0.541D-01
 Coeff-Com:  0.132D-01-0.971D-01-0.552D+00 0.797D+00 0.782D+00
 Coeff:     -0.227D-03 0.292D-03-0.207D-03-0.628D-03 0.408D-02 0.541D-01
 Coeff:      0.132D-01-0.971D-01-0.552D+00 0.797D+00 0.782D+00
 Gap=     0.072 Goal=   None    Shift=    0.000
 Gap=     0.033 Goal=   None    Shift=    0.000
 RMSDP=5.37D-05 MaxDP=4.65D-03 DE=-1.12D-07 OVMax= 1.04D-03

 Cycle  12  Pass 1  IDiag  1:
 E= -1136.09841765329     Delta-E=       -0.000000071521 Rises=F Damp=F
 DIIS: error= 3.33D-06 at cycle  12 NSaved=  12.
 NSaved=12 IEnMin=12 EnMin= -1136.09841765329     IErMin=12 ErrMin= 3.33D-06
 ErrMax= 3.33D-06  0.00D+00 EMaxC= 1.00D-01 BMatC= 2.63D-09 BMatP= 8.96D-09
 IDIUse=1 WtCom= 1.00D+00 WtEn= 0.00D+00
 Coeff-Com: -0.268D-04 0.296D-04-0.584D-03-0.645D-03 0.493D-03 0.113D-01
 Coeff-Com:  0.226D-01 0.101D-01-0.150D+00-0.223D+00 0.278D+00 0.105D+01
 Coeff:     -0.268D-04 0.296D-04-0.584D-03-0.645D-03 0.493D-03 0.113D-01
 Coeff:      0.226D-01 0.101D-01-0.150D+00-0.223D+00 0.278D+00 0.105D+01
 Gap=     0.072 Goal=   None    Shift=    0.000
 Gap=     0.033 Goal=   None    Shift=    0.000
 RMSDP=4.15D-05 MaxDP=3.96D-03 DE=-7.15D-08 OVMax= 7.34D-04

 Cycle  13  Pass 1  IDiag  1:
 E= -1136.09841768256     Delta-E=       -0.000000029272 Rises=F Damp=F
 DIIS: error= 2.37D-06 at cycle  13 NSaved=  13.
 NSaved=13 IEnMin=13 EnMin= -1136.09841768256     IErMin=13 ErrMin= 2.37D-06
 ErrMax= 2.37D-06  0.00D+00 EMaxC= 1.00D-01 BMatC= 8.27D-10 BMatP= 2.63D-09
 IDIUse=1 WtCom= 1.00D+00 WtEn= 0.00D+00
 Coeff-Com:  0.128D-03-0.166D-03-0.110D-03 0.129D-03-0.221D-02-0.289D-01
 Coeff-Com:  0.852D-03 0.664D-01 0.274D+00-0.592D+00-0.278D+00 0.287D+00
 Coeff-Com:  0.127D+01
 Coeff:      0.128D-03-0.166D-03-0.110D-03 0.129D-03-0.221D-02-0.289D-01
 Coeff:      0.852D-03 0.664D-01 0.274D+00-0.592D+00-0.278D+00 0.287D+00
 Coeff:      0.127D+01
 Gap=     0.072 Goal=   None    Shift=    0.000
 Gap=     0.033 Goal=   None    Shift=    0.000
 RMSDP=4.30D-05 MaxDP=4.19D-03 DE=-2.93D-08 OVMax= 7.75D-04

 Cycle  14  Pass 1  IDiag  1:
 E= -1136.09841769766     Delta-E=       -0.000000015096 Rises=F Damp=F
 DIIS: error= 1.17D-06 at cycle  14 NSaved=  14.
 NSaved=14 IEnMin=14 EnMin= -1136.09841769766     IErMin=14 ErrMin= 1.17D-06
 ErrMax= 1.17D-06  0.00D+00 EMaxC= 1.00D-01 BMatC= 2.20D-10 BMatP= 8.27D-10
 IDIUse=1 WtCom= 1.00D+00 WtEn= 0.00D+00
 Coeff-Com: -0.833D-05 0.126D-04 0.506D-04 0.118D-04-0.181D-03 0.164D-03
 Coeff-Com: -0.573D-03-0.983D-02 0.366D-02 0.945D-01 0.270D-01-0.332D+00
 Coeff-Com: -0.113D+00 0.133D+01
 Coeff:     -0.833D-05 0.126D-04 0.506D-04 0.118D-04-0.181D-03 0.164D-03
 Coeff:     -0.573D-03-0.983D-02 0.366D-02 0.945D-01 0.270D-01-0.332D+00
 Coeff:     -0.113D+00 0.133D+01
 Gap=     0.072 Goal=   None    Shift=    0.000
 Gap=     0.033 Goal=   None    Shift=    0.000
 RMSDP=1.80D-05 MaxDP=1.49D-03 DE=-1.51D-08 OVMax= 3.32D-04

 Cycle  15  Pass 1  IDiag  1:
 E= -1136.09841770118     Delta-E=       -0.000000003527 Rises=F Damp=F
 DIIS: error= 6.72D-07 at cycle  15 NSaved=  15.
 NSaved=15 IEnMin=15 EnMin= -1136.09841770118     IErMin=15 ErrMin= 6.72D-07
 ErrMax= 6.72D-07  0.00D+00 EMaxC= 1.00D-01 BMatC= 8.41D-11 BMatP= 2.20D-10
 IDIUse=1 WtCom= 1.00D+00 WtEn= 0.00D+00
 Coeff-Com: -0.333D-04 0.429D-04 0.625D-04-0.303D-04 0.825D-03 0.883D-02
 Coeff-Com:  0.121D-02-0.218D-01-0.845D-01 0.149D+00 0.118D+00-0.771D-01
 Coeff-Com: -0.343D+00-0.273D+00 0.152D+01
 Coeff:     -0.333D-04 0.429D-04 0.625D-04-0.303D-04 0.825D-03 0.883D-02
 Coeff:      0.121D-02-0.218D-01-0.845D-01 0.149D+00 0.118D+00-0.771D-01
 Coeff:     -0.343D+00-0.273D+00 0.152D+01
 Gap=     0.072 Goal=   None    Shift=    0.000
 Gap=     0.033 Goal=   None    Shift=    0.000
 RMSDP=1.30D-05 MaxDP=1.08D-03 DE=-3.53D-09 OVMax= 2.43D-04

 Cycle  16  Pass 1  IDiag  1:
 E= -1136.09841770275     Delta-E=       -0.000000001565 Rises=F Damp=F
 DIIS: error= 3.20D-07 at cycle  16 NSaved=  16.
 NSaved=16 IEnMin=16 EnMin= -1136.09841770275     IErMin=16 ErrMin= 3.20D-07
 ErrMax= 3.20D-07  0.00D+00 EMaxC= 1.00D-01 BMatC= 2.82D-11 BMatP= 8.41D-11
 IDIUse=1 WtCom= 1.00D+00 WtEn= 0.00D+00
 Coeff-Com:  0.121D-04-0.165D-04-0.125D-04 0.311D-04-0.304D-04-0.240D-02
 Coeff-Com: -0.568D-04 0.583D-02 0.271D-01-0.884D-01-0.173D-01 0.150D+00
 Coeff-Com:  0.123D+00-0.523D+00-0.278D+00 0.160D+01
 Coeff:      0.121D-04-0.165D-04-0.125D-04 0.311D-04-0.304D-04-0.240D-02
 Coeff:     -0.568D-04 0.583D-02 0.271D-01-0.884D-01-0.173D-01 0.150D+00
 Coeff:      0.123D+00-0.523D+00-0.278D+00 0.160D+01
 Gap=     0.072 Goal=   None    Shift=    0.000
 Gap=     0.033 Goal=   None    Shift=    0.000
 RMSDP=8.24D-06 MaxDP=6.47D-04 DE=-1.57D-09 OVMax= 1.49D-04

 Cycle  17  Pass 1  IDiag  1:
 E= -1136.09841770325     Delta-E=       -0.000000000505 Rises=F Damp=F
 DIIS: error= 1.23D-07 at cycle  17 NSaved=  17.
 NSaved=17 IEnMin=17 EnMin= -1136.09841770325     IErMin=17 ErrMin= 1.23D-07
 ErrMax= 1.23D-07  0.00D+00 EMaxC= 1.00D-01 BMatC= 6.04D-12 BMatP= 2.82D-11
 IDIUse=1 WtCom= 1.00D+00 WtEn= 0.00D+00
 Coeff-Com:  0.477D-05-0.628D-05-0.386D-04-0.563D-05-0.187D-03-0.155D-02
 Coeff-Com: -0.313D-03 0.360D-02 0.201D-01-0.407D-01-0.210D-01 0.291D-01
 Coeff-Com:  0.850D-01-0.183D-01-0.396D+00 0.310D+00 0.103D+01
 Coeff:      0.477D-05-0.628D-05-0.386D-04-0.563D-05-0.187D-03-0.155D-02
 Coeff:     -0.313D-03 0.360D-02 0.201D-01-0.407D-01-0.210D-01 0.291D-01
 Coeff:      0.850D-01-0.183D-01-0.396D+00 0.310D+00 0.103D+01
 Gap=     0.072 Goal=   None    Shift=    0.000
 Gap=     0.033 Goal=   None    Shift=    0.000
 RMSDP=2.92D-06 MaxDP=2.30D-04 DE=-5.05D-10 OVMax= 5.30D-05

 Cycle  18  Pass 1  IDiag  1:
 E= -1136.09841770331     Delta-E=       -0.000000000055 Rises=F Damp=F
 DIIS: error= 5.28D-08 at cycle  18 NSaved=  18.
 NSaved=18 IEnMin=18 EnMin= -1136.09841770331     IErMin=18 ErrMin= 5.28D-08
 ErrMax= 5.28D-08  0.00D+00 EMaxC= 1.00D-01 BMatC= 7.42D-13 BMatP= 6.04D-12
 IDIUse=1 WtCom= 1.00D+00 WtEn= 0.00D+00
 Coeff-Com: -0.927D-06 0.138D-05-0.746D-05-0.108D-04-0.442D-04 0.803D-04
 Coeff-Com:  0.965D-04-0.400D-03-0.581D-03 0.770D-02-0.169D-02-0.254D-01
 Coeff-Com:  0.468D-03 0.975D-01-0.332D-01-0.256D+00 0.229D+00 0.983D+00
 Coeff:     -0.927D-06 0.138D-05-0.746D-05-0.108D-04-0.442D-04 0.803D-04
 Coeff:      0.965D-04-0.400D-03-0.581D-03 0.770D-02-0.169D-02-0.254D-01
 Coeff:      0.468D-03 0.975D-01-0.332D-01-0.256D+00 0.229D+00 0.983D+00
 Gap=     0.072 Goal=   None    Shift=    0.000
 Gap=     0.033 Goal=   None    Shift=    0.000
 RMSDP=8.40D-07 MaxDP=6.72D-05 DE=-5.50D-11 OVMax= 1.47D-05

 Cycle  19  Pass 1  IDiag  1:
 E= -1136.09841770334     Delta-E=       -0.000000000028 Rises=F Damp=F
 DIIS: error= 1.83D-08 at cycle  19 NSaved=  19.
 NSaved=19 IEnMin=19 EnMin= -1136.09841770334     IErMin=19 ErrMin= 1.83D-08
 ErrMax= 1.83D-08  0.00D+00 EMaxC= 1.00D-01 BMatC= 7.59D-14 BMatP= 7.42D-13
 IDIUse=1 WtCom= 1.00D+00 WtEn= 0.00D+00
 Coeff-Com: -0.217D-06 0.273D-06 0.834D-05 0.398D-05 0.361D-04 0.169D-03
 Coeff-Com: -0.558D-04-0.440D-03-0.230D-02 0.501D-02 0.287D-02-0.374D-02
 Coeff-Com: -0.108D-01 0.142D-02 0.579D-01-0.383D-01-0.159D+00-0.819D-01
 Coeff-Com:  0.123D+01
 Coeff:     -0.217D-06 0.273D-06 0.834D-05 0.398D-05 0.361D-04 0.169D-03
 Coeff:     -0.558D-04-0.440D-03-0.230D-02 0.501D-02 0.287D-02-0.374D-02
 Coeff:     -0.108D-01 0.142D-02 0.579D-01-0.383D-01-0.159D+00-0.819D-01
 Coeff:      0.123D+01
 Gap=     0.072 Goal=   None    Shift=    0.000
 Gap=     0.033 Goal=   None    Shift=    0.000
 RMSDP=1.72D-07 MaxDP=1.61D-05 DE=-2.82D-11 OVMax= 2.17D-06

 Cycle  20  Pass 1  IDiag  1:
 E= -1136.09841770332     Delta-E=        0.000000000015 Rises=F Damp=F
 DIIS: error= 4.69D-09 at cycle  20 NSaved=  20.
 NSaved=20 IEnMin=19 EnMin= -1136.09841770334     IErMin=20 ErrMin= 4.69D-09
 ErrMax= 4.69D-09  0.00D+00 EMaxC= 1.00D-01 BMatC= 6.51D-15 BMatP= 7.59D-14
 IDIUse=1 WtCom= 1.00D+00 WtEn= 0.00D+00
 Coeff-Com:  0.608D-07-0.934D-07-0.131D-05-0.292D-06-0.501D-05-0.336D-04
 Coeff-Com:  0.146D-04 0.120D-03 0.508D-03-0.208D-02-0.244D-03 0.418D-02
 Coeff-Com:  0.110D-02-0.120D-01-0.540D-02 0.351D-01 0.847D-02-0.884D-01
 Coeff-Com: -0.234D+00 0.129D+01
 Coeff:      0.608D-07-0.934D-07-0.131D-05-0.292D-06-0.501D-05-0.336D-04
 Coeff:      0.146D-04 0.120D-03 0.508D-03-0.208D-02-0.244D-03 0.418D-02
 Coeff:      0.110D-02-0.120D-01-0.540D-02 0.351D-01 0.847D-02-0.884D-01
 Coeff:     -0.234D+00 0.129D+01
 Gap=     0.072 Goal=   None    Shift=    0.000
 Gap=     0.033 Goal=   None    Shift=    0.000
 RMSDP=4.26D-08 MaxDP=3.15D-06 DE= 1.50D-11 OVMax= 5.12D-07

 Cycle  21  Pass 1  IDiag  1:
 E= -1136.09841770332     Delta-E=        0.000000000003 Rises=F Damp=F
 DIIS: error= 1.13D-09 at cycle  21 NSaved=  20.
 NSaved=20 IEnMin=18 EnMin= -1136.09841770334     IErMin=20 ErrMin= 1.13D-09
 ErrMax= 1.13D-09  0.00D+00 EMaxC= 1.00D-01 BMatC= 6.70D-16 BMatP= 6.51D-15
 IDIUse=1 WtCom= 1.00D+00 WtEn= 0.00D+00
 Large coefficients: NSaved= 20 BigCof=    0.00 CofMax=   10.00 Det=-8.96D-16
 Inversion failed.  Reducing to 19 matrices.
 Large coefficients: NSaved= 19 BigCof=    0.00 CofMax=   10.00 Det=-9.01D-16
 Inversion failed.  Reducing to 18 matrices.
 Large coefficients: NSaved= 18 BigCof=    0.00 CofMax=   10.00 Det=-9.55D-16
 Inversion failed.  Reducing to 17 matrices.
 Large coefficients: NSaved= 17 BigCof=    0.00 CofMax=   10.00 Det=-1.25D-15
 Inversion failed.  Reducing to 16 matrices.
 Large coefficients: NSaved= 16 BigCof=    0.00 CofMax=   10.00 Det=-1.25D-15
 Inversion failed.  Reducing to 15 matrices.
 Coeff-Com: -0.223D-05-0.158D-04 0.184D-04 0.219D-03-0.813D-04-0.493D-03
 Coeff-Com:  0.481D-03 0.881D-03-0.447D-03-0.490D-02 0.551D-02 0.205D-01
 Coeff-Com: -0.393D-01-0.185D+00 0.120D+01
 Coeff:     -0.223D-05-0.158D-04 0.184D-04 0.219D-03-0.813D-04-0.493D-03
 Coeff:      0.481D-03 0.881D-03-0.447D-03-0.490D-02 0.551D-02 0.205D-01
 Coeff:     -0.393D-01-0.185D+00 0.120D+01
 Gap=     0.072 Goal=   None    Shift=    0.000
 Gap=     0.033 Goal=   None    Shift=    0.000
 RMSDP=2.76D-08 MaxDP=3.15D-06 DE= 2.96D-12 OVMax= 2.72D-07

 Cycle  22  Pass 1  IDiag  1:
 E= -1136.09841770332     Delta-E=        0.000000000000 Rises=F Damp=F
 DIIS: error= 4.70D-10 at cycle  22 NSaved=  16.
 NSaved=16 IEnMin=13 EnMin= -1136.09841770334     IErMin=16 ErrMin= 4.70D-10
 ErrMax= 4.70D-10  0.00D+00 EMaxC= 1.00D-01 BMatC= 1.29D-16 BMatP= 6.70D-16
 IDIUse=1 WtCom= 1.00D+00 WtEn= 0.00D+00
 Large coefficients: NSaved= 16 BigCof=    0.00 CofMax=   10.00 Det=-3.11D-16
 Inversion failed.  Reducing to 15 matrices.
 Coeff-Com: -0.318D-05-0.446D-05 0.106D-03-0.360D-04-0.360D-03 0.142D-03
 Coeff-Com:  0.125D-02-0.684D-03-0.342D-02 0.316D-02 0.151D-01-0.763D-02
 Coeff-Com: -0.163D+00 0.353D+00 0.802D+00
 Coeff:     -0.318D-05-0.446D-05 0.106D-03-0.360D-04-0.360D-03 0.142D-03
 Coeff:      0.125D-02-0.684D-03-0.342D-02 0.316D-02 0.151D-01-0.763D-02
 Coeff:     -0.163D+00 0.353D+00 0.802D+00
 Gap=     0.072 Goal=   None    Shift=    0.000
 Gap=     0.033 Goal=   None    Shift=    0.000
 RMSDP=6.14D-09 MaxDP=5.21D-07 DE= 2.27D-13 OVMax= 5.24D-08

 SCF Done:  E(UB3LYP) =  -1136.09841770     A.U. after   22 cycles
            NFock= 22  Conv=0.61D-08     -V/T= 2.0025
 <Sx>= 0.0000 <Sy>= 0.0000 <Sz>= 0.5000 <S**2>= 0.7596 S= 0.5048
 <L.S>= 0.000000000000E+00
 KE= 1.133272953660D+03 PE=-3.472265472065D+03 EE= 8.315553763806D+02
 Annihilation of the first spin contaminant:
 S**2 before annihilation     0.7596,   after     0.7501
 Leave Link  502 at Mon Nov 13 19:29:31 2023, MaxMem=  1879048192 cpu:             215.0 elap:              18.3
 (Enter /home/sekinelabo/g16/l601.exe)
 Copying SCF densities to generalized density rwf, IOpCl= 1 IROHF=0.

 **********************************************************************

            Population analysis using the SCF Density.

 **********************************************************************

 Orbital symmetries:
 Alpha Orbitals:
       Occupied  (A) (A) (A) (A) (A) (A) (A) (A) (A) (A) (A) (A)
                 (A) (A) (A) (A) (A) (A) (A) (A) (A) (A) (A) (A)
                 (A) (A) (A) (A) (A) (A) (A) (A) (A) (A) (A) (A)
                 (A) (A) (A)
       Virtual   (A) (A) (A) (A) (A) (A) (A) (A) (A) (A) (A) (A)
                 (A) (A) (A) (A) (A) (A) (A) (A) (A) (A) (A) (A)
                 (A) (A) (A) (A) (A) (A) (A) (A) (A) (A) (A) (A)
                 (A) (A) (A) (A) (A) (A) (A) (A) (A) (A) (A) (A)
                 (A) (A) (A) (A) (A) (A) (A) (A) (A) (A) (A) (A)
                 (A) (A) (A) (A) (A) (A) (A) (A) (A) (A) (A) (A)
                 (A) (A) (A) (A) (A) (A) (A) (A) (A) (A) (A) (A)
                 (A) (A) (A) (A) (A) (A) (A) (A) (A) (A) (A) (A)
                 (A) (A) (A) (A) (A) (A) (A) (A) (A) (A) (A) (A)
                 (A) (A) (A) (A) (A) (A) (A) (A) (A) (A) (A) (A)
                 (A) (A) (A) (A) (A) (A) (A) (A) (A) (A) (A) (A)
                 (A) (A) (A) (A) (A) (A) (A) (A) (A) (A) (A) (A)
                 (A) (A) (A) (A) (A) (A) (A) (A) (A) (A) (A) (A)
                 (A) (A) (A) (A) (A) (A) (A) (A) (A) (A) (A) (A)
                 (A) (A) (A)
 Beta  Orbitals:
       Occupied  (A) (A) (A) (A) (A) (A) (A) (A) (A) (A) (A) (A)
                 (A) (A) (A) (A) (A) (A) (A) (A) (A) (A) (A) (A)
                 (A) (A) (A) (A) (A) (A) (A) (A) (A) (A) (A) (A)
                 (A) (A)
       Virtual   (A) (A) (A) (A) (A) (A) (A) (A) (A) (A) (A) (A)
                 (A) (A) (A) (A) (A) (A) (A) (A) (A) (A) (A) (A)
                 (A) (A) (A) (A) (A) (A) (A) (A) (A) (A) (A) (A)
                 (A) (A) (A) (A) (A) (A) (A) (A) (A) (A) (A) (A)
                 (A) (A) (A) (A) (A) (A) (A) (A) (A) (A) (A) (A)
                 (A) (A) (A) (A) (A) (A) (A) (A) (A) (A) (A) (A)
                 (A) (A) (A) (A) (A) (A) (A) (A) (A) (A) (A) (A)
                 (A) (A) (A) (A) (A) (A) (A) (A) (A) (A) (A) (A)
                 (A) (A) (A) (A) (A) (A) (A) (A) (A) (A) (A) (A)
                 (A) (A) (A) (A) (A) (A) (A) (A) (A) (A) (A) (A)
                 (A) (A) (A) (A) (A) (A) (A) (A) (A) (A) (A) (A)
                 (A) (A) (A) (A) (A) (A) (A) (A) (A) (A) (A) (A)
                 (A) (A) (A) (A) (A) (A) (A) (A) (A) (A) (A) (A)
                 (A) (A) (A) (A) (A) (A) (A) (A) (A) (A) (A) (A)
                 (A) (A) (A) (A)
 The electronic state is 2-A.
 Alpha  occ. eigenvalues --  -38.45777 -38.44322 -38.43664 -38.43353 -38.42986
 Alpha  occ. eigenvalues --  -38.42865 -38.42842  -2.21767  -2.20219  -2.19559
 Alpha  occ. eigenvalues --   -2.19250  -2.19158  -2.19031  -2.19002  -1.15484
 Alpha  occ. eigenvalues --   -1.15364  -1.15354  -1.13933  -1.13875  -1.13817
 Alpha  occ. eigenvalues --   -1.13305  -1.13231  -1.13168  -1.13061  -1.13020
 Alpha  occ. eigenvalues --   -1.12941  -1.12869  -1.12816  -1.12765  -1.12748
 Alpha  occ. eigenvalues --   -1.12715  -1.12665  -1.12599  -1.12575  -1.12514
 Alpha  occ. eigenvalues --   -0.19997  -0.12981  -0.12670  -0.12243
 Alpha virt. eigenvalues --   -0.05067  -0.04545  -0.04497  -0.03307  -0.03105
 Alpha virt. eigenvalues --   -0.03017  -0.00918  -0.00893  -0.00564   0.00307
 Alpha virt. eigenvalues --    0.00636   0.00709   0.00779   0.00790   0.00944
 Alpha virt. eigenvalues --    0.00985   0.01077   0.01182   0.01237   0.01354
 Alpha virt. eigenvalues --    0.01553   0.01575   0.01630   0.01812   0.01891
 Alpha virt. eigenvalues --    0.02624   0.02696   0.02751   0.02795   0.02868
 Alpha virt. eigenvalues --    0.02924   0.02980   0.03031   0.03170   0.03193
 Alpha virt. eigenvalues --    0.03322   0.03372   0.03468   0.03613   0.03635
 Alpha virt. eigenvalues --    0.03936   0.04211   0.04336   0.04521   0.04932
 Alpha virt. eigenvalues --    0.05390   0.05568   0.06099   0.06136   0.06366
 Alpha virt. eigenvalues --    0.06449   0.06519   0.06875   0.07832   0.07957
 Alpha virt. eigenvalues --    0.08103   0.08310   0.08493   0.08580   0.09036
 Alpha virt. eigenvalues --    0.09195   0.09424   0.10407   0.11051   0.12511
 Alpha virt. eigenvalues --    0.12662   0.13039   0.13428   0.13592   0.13817
 Alpha virt. eigenvalues --    0.14099   0.14562   0.14567   0.14889   0.15410
 Alpha virt. eigenvalues --    0.15604   0.15816   0.16360   0.17541   0.18233
 Alpha virt. eigenvalues --    0.24671   0.27097   0.27489   0.28184   0.30244
 Alpha virt. eigenvalues --    0.31202   0.31460   0.32481   0.32720   0.34899
 Alpha virt. eigenvalues --    0.35640   0.35765   0.36411   0.37411   0.39235
 Alpha virt. eigenvalues --    0.40013   0.40666   0.40941   0.41905   0.42391
 Alpha virt. eigenvalues --    0.43299   0.43532   0.43835   0.44741   0.44997
 Alpha virt. eigenvalues --    0.45267   0.45834   0.46170   0.46881   0.47169
 Alpha virt. eigenvalues --    0.47811   0.48457   0.50339   0.50738   0.51347
 Alpha virt. eigenvalues --    0.52145   0.52311   0.53024   0.54629   0.54830
 Alpha virt. eigenvalues --    0.55355   0.56229   0.56722   0.58177   0.62970
 Alpha virt. eigenvalues --    0.64299   0.64804   0.66732   0.68653   0.69174
 Alpha virt. eigenvalues --    0.72226   0.73482   0.78225   0.78968   0.81151
 Alpha virt. eigenvalues --    0.81927   2.11822   2.15126   2.15523   2.18626
 Alpha virt. eigenvalues --    2.29252   2.33528   2.34234   4.41058   4.41214
 Alpha virt. eigenvalues --    4.42170   4.42372   4.42765   4.42819   4.45253
 Alpha virt. eigenvalues --    4.45902   4.46541   4.47384   4.49068   4.49504
 Alpha virt. eigenvalues --    4.58670   4.62039   4.63676   4.65721   4.66206
 Alpha virt. eigenvalues --    4.72890   4.79317   4.83195   4.84425  96.32926
 Alpha virt. eigenvalues --   96.38255  96.38506  96.43160  96.57043  96.62818
 Alpha virt. eigenvalues --   96.63663
  Beta  occ. eigenvalues --  -38.45649 -38.44281 -38.43643 -38.43342 -38.42966
  Beta  occ. eigenvalues --  -38.42847 -38.42825  -2.21535  -2.20143  -2.19521
  Beta  occ. eigenvalues --   -2.19228  -2.19130  -2.19007  -2.18980  -1.15320
  Beta  occ. eigenvalues --   -1.15202  -1.15196  -1.13880  -1.13823  -1.13765
  Beta  occ. eigenvalues --   -1.13280  -1.13203  -1.13140  -1.13051  -1.12996
  Beta  occ. eigenvalues --   -1.12922  -1.12848  -1.12763  -1.12748  -1.12707
  Beta  occ. eigenvalues --   -1.12633  -1.12595  -1.12592  -1.12568  -1.12512
  Beta  occ. eigenvalues --   -0.19078  -0.12624  -0.12006
  Beta virt. eigenvalues --   -0.08674  -0.04640  -0.04262  -0.04126  -0.02899
  Beta virt. eigenvalues --   -0.02543  -0.02330  -0.00775  -0.00519  -0.00467
  Beta virt. eigenvalues --    0.00386   0.00707   0.00785   0.00844   0.00885
  Beta virt. eigenvalues --    0.01066   0.01079   0.01143   0.01247   0.01378
  Beta virt. eigenvalues --    0.01433   0.01650   0.01651   0.01729   0.01865
  Beta virt. eigenvalues --    0.01980   0.02662   0.02755   0.02831   0.02875
  Beta virt. eigenvalues --    0.02922   0.02982   0.03011   0.03049   0.03204
  Beta virt. eigenvalues --    0.03224   0.03385   0.03456   0.03508   0.03671
  Beta virt. eigenvalues --    0.03796   0.04041   0.04298   0.04472   0.04650
  Beta virt. eigenvalues --    0.05085   0.05532   0.05690   0.06141   0.06157
  Beta virt. eigenvalues --    0.06326   0.06490   0.06606   0.07231   0.07889
  Beta virt. eigenvalues --    0.08040   0.08168   0.08514   0.08661   0.08911
  Beta virt. eigenvalues --    0.09259   0.09388   0.09577   0.10634   0.11318
  Beta virt. eigenvalues --    0.12658   0.13064   0.13275   0.13577   0.13856
  Beta virt. eigenvalues --    0.14080   0.14288   0.14561   0.14725   0.14995
  Beta virt. eigenvalues --    0.15480   0.15808   0.16120   0.16555   0.17815
  Beta virt. eigenvalues --    0.18430   0.25255   0.27456   0.27726   0.28544
  Beta virt. eigenvalues --    0.30630   0.31411   0.31706   0.33055   0.33220
  Beta virt. eigenvalues --    0.35132   0.36023   0.36061   0.36779   0.37791
  Beta virt. eigenvalues --    0.39404   0.40499   0.41013   0.41155   0.42067
  Beta virt. eigenvalues --    0.42502   0.43674   0.43757   0.44047   0.44810
  Beta virt. eigenvalues --    0.45137   0.45494   0.46155   0.46283   0.47077
  Beta virt. eigenvalues --    0.47321   0.47858   0.48507   0.50658   0.50858
  Beta virt. eigenvalues --    0.51549   0.52404   0.52444   0.53336   0.54815
  Beta virt. eigenvalues --    0.55091   0.55445   0.56397   0.56907   0.58302
  Beta virt. eigenvalues --    0.63219   0.64323   0.64929   0.66792   0.68723
  Beta virt. eigenvalues --    0.69320   0.72421   0.73691   0.78238   0.79179
  Beta virt. eigenvalues --    0.81219   0.81916   2.11977   2.15247   2.15593
  Beta virt. eigenvalues --    2.19046   2.29365   2.33548   2.34265   4.41170
  Beta virt. eigenvalues --    4.41305   4.42226   4.42453   4.42847   4.42881
  Beta virt. eigenvalues --    4.45290   4.45958   4.46584   4.47419   4.49167
  Beta virt. eigenvalues --    4.49604   4.58743   4.62145   4.63741   4.65771
  Beta virt. eigenvalues --    4.66217   4.72898   4.79446   4.83213   4.84467
  Beta virt. eigenvalues --   96.32978  96.38298  96.38529  96.43295  96.57090
  Beta virt. eigenvalues --   96.62833  96.63682
          Condensed to atoms (all electrons):
               1          2          3          4          5          6
     1  Na  16.789252   0.224646  -1.011084  -2.959983   1.951160  -1.647643
     2  Na   0.224646  12.288929  -1.110519  -0.537645   0.419279  -1.251383
     3  Na  -1.011084  -1.110519  12.427296  -0.634095  -0.511163   1.987660
     4  Na  -2.959983  -0.537645  -0.634095  16.003613  -1.153370  -1.041817
     5  Na   1.951160   0.419279  -0.511163  -1.153370  11.533702  -1.025941
     6  Na  -1.647643  -1.251383   1.987660  -1.041817  -1.025941  14.597470
     7  Na  -1.416729   0.085804  -0.368540   1.875721  -0.198607  -0.877585
               7
     1  Na  -1.416729
     2  Na   0.085804
     3  Na  -0.368540
     4  Na   1.875721
     5  Na  -0.198607
     6  Na  -0.877585
     7  Na  11.763401
          Atomic-Atomic Spin Densities.
               1          2          3          4          5          6
     1  Na   2.002946   0.369571  -0.511266  -1.117026   0.607452  -0.583677
     2  Na   0.369571   0.972594  -0.526682  -0.200866   0.103814  -0.439202
     3  Na  -0.511266  -0.526682   0.664982  -0.060019  -0.223569   0.656241
     4  Na  -1.117026  -0.200866  -0.060019   1.451269  -0.286946   0.058960
     5  Na   0.607452   0.103814  -0.223569  -0.286946   0.043407  -0.073797
     6  Na  -0.583677  -0.439202   0.656241   0.058960  -0.073797   0.494994
     7  Na  -0.360483  -0.166949  -0.039987   0.517360  -0.266002   0.227345
               7
     1  Na  -0.360483
     2  Na  -0.166949
     3  Na  -0.039987
     4  Na   0.517360
     5  Na  -0.266002
     6  Na   0.227345
     7  Na   0.001263
 Mulliken charges and spin densities:
               1          2
     1  Na  -0.929620   0.407516
     2  Na   0.880888   0.112280
     3  Na   0.220445  -0.040299
     4  Na  -0.552424   0.362733
     5  Na  -0.015061  -0.095640
     6  Na   0.259237   0.340864
     7  Na   0.136534  -0.087454
 Sum of Mulliken charges =  -0.00000   1.00000
 Mulliken charges and spin densities with hydrogens summed into heavy atoms:
               1          2
     1  Na  -0.929620   0.407516
     2  Na   0.880888   0.112280
     3  Na   0.220445  -0.040299
     4  Na  -0.552424   0.362733
     5  Na  -0.015061  -0.095640
     6  Na   0.259237   0.340864
     7  Na   0.136534  -0.087454
 Electronic spatial extent (au):  <R**2>=           2020.3714
 Charge=             -0.0000 electrons
 Dipole moment (field-independent basis, Debye):
    X=             -0.3883    Y=             -0.1551    Z=             -0.1179  Tot=              0.4344
 Quadrupole moment (field-independent basis, Debye-Ang):
   XX=            -63.7696   YY=            -71.1116   ZZ=            -58.7549
   XY=              0.0235   XZ=             -0.9283   YZ=             -0.6340
 Traceless Quadrupole moment (field-independent basis, Debye-Ang):
   XX=              0.7758   YY=             -6.5662   ZZ=              5.7905
   XY=              0.0235   XZ=             -0.9283   YZ=             -0.6340
 Octapole moment (field-independent basis, Debye-Ang**2):
  XXX=            -10.6389  YYY=              4.9364  ZZZ=             24.0331  XYY=             11.7265
  XXY=             -3.4160  XXZ=            -22.4449  XZZ=             -9.6491  YZZ=             -4.6500
  YYZ=            -16.0374  XYZ=              1.1896
 Hexadecapole moment (field-independent basis, Debye-Ang**3):
 XXXX=          -1354.9406 YYYY=          -1263.8482 ZZZZ=           -797.4926 XXXY=            -13.9798
 XXXZ=             52.4884 YYYX=             12.8856 YYYZ=            -16.4701 ZZZX=            -21.9321
 ZZZY=            -14.0956 XXYY=           -420.6452 XXZZ=           -337.3511 YYZZ=           -357.4520
 XXYZ=             15.3870 YYXZ=            -49.7863 ZZXY=              0.8764
 N-N= 3.713387243202D+02 E-N=-3.472265472120D+03  KE= 1.133272953660D+03
                          Isotropic Fermi Contact Couplings
        Atom                 a.u.       MegaHertz       Gauss      10(-4) cm-1
     1  Na(23)            -0.01534     -18.14463      -6.47445      -6.05240
     2  Na(23)             0.53724     635.57560     226.78918     212.00520
     3  Na(23)             0.17028     201.44066      71.87904      67.19337
     4  Na(23)            -0.02098     -24.81811      -8.85572      -8.27843
     5  Na(23)             0.04535      53.64849      19.14312      17.89521
     6  Na(23)            -0.00756      -8.94410      -3.19148      -2.98343
     7  Na(23)             0.08560     101.26915      36.13535      33.77975
 --------------------------------------------------------
       Center         ----  Spin Dipole Couplings  ----
                      3XX-RR        3YY-RR        3ZZ-RR
 --------------------------------------------------------
     1   Atom       -0.040676     -0.037165      0.077841
     2   Atom        0.003960      0.002743     -0.006703
     3   Atom        0.009109     -0.000290     -0.008819
     4   Atom       -0.038988     -0.039208      0.078196
     5   Atom       -0.000466      0.003125     -0.002659
     6   Atom       -0.011921     -0.047590      0.059511
     7   Atom        0.002677      0.002517     -0.005194
 --------------------------------------------------------
                        XY            XZ            YZ
 --------------------------------------------------------
     1   Atom        0.003966      0.006932      0.006574
     2   Atom        0.004038     -0.008806     -0.003453
     3   Atom        0.000346     -0.006828     -0.000164
     4   Atom       -0.007959      0.017039     -0.017721
     5   Atom        0.002940      0.002785      0.005158
     6   Atom        0.002822     -0.049894     -0.005318
     7   Atom       -0.003828      0.004592     -0.004382
 --------------------------------------------------------


 ---------------------------------------------------------------------------------
              Anisotropic Spin Dipole Couplings in Principal Axis System
 ---------------------------------------------------------------------------------

       Atom             a.u.   MegaHertz   Gauss  10(-4) cm-1        Axes

              Baa    -0.0433    -6.115    -2.182    -2.040  0.8493 -0.5275 -0.0200
     1 Na(23) Bbb    -0.0353    -4.991    -1.781    -1.665  0.5244  0.8476 -0.0814
              Bcc     0.0786    11.106     3.963     3.704  0.0598  0.0586  0.9965
 
              Baa    -0.0117    -1.659    -0.592    -0.553  0.4724  0.0776  0.8780
     2 Na(23) Bbb    -0.0002    -0.022    -0.008    -0.007 -0.4703  0.8647  0.1766
              Bcc     0.0119     1.681     0.600     0.561  0.7455  0.4963 -0.4449
 
              Baa    -0.0111    -1.571    -0.561    -0.524  0.3197  0.0042  0.9475
     3 Na(23) Bbb    -0.0003    -0.043    -0.015    -0.014 -0.0320  0.9995  0.0064
              Bcc     0.0114     1.613     0.576     0.538  0.9470  0.0324 -0.3197
 
              Baa    -0.0471    -6.646    -2.371    -2.217  0.6939  0.7200  0.0075
     4 Na(23) Bbb    -0.0364    -5.141    -1.834    -1.715  0.7051 -0.6774 -0.2096
              Bcc     0.0835    11.787     4.206     3.932  0.1458 -0.1507  0.9778
 
              Baa    -0.0059    -0.831    -0.297    -0.277 -0.2166 -0.4309  0.8760
     5 Na(23) Bbb    -0.0021    -0.298    -0.106    -0.100  0.8790 -0.4765 -0.0171
              Bcc     0.0080     1.129     0.403     0.377  0.4248  0.7664  0.4820
 
              Baa    -0.0479    -6.759    -2.412    -2.255 -0.0275  0.9989  0.0367
     6 Na(23) Bbb    -0.0376    -5.305    -1.893    -1.769  0.8892  0.0076  0.4574
              Bcc     0.0854    12.064     4.305     4.024 -0.4567 -0.0452  0.8885
 
              Baa    -0.0080    -1.128    -0.403    -0.376 -0.2957  0.2739  0.9152
     7 Na(23) Bbb    -0.0012    -0.174    -0.062    -0.058  0.6943  0.7196  0.0090
              Bcc     0.0092     1.302     0.465     0.434  0.6561 -0.6381  0.4030
 

 ---------------------------------------------------------------------------------

 No NMR shielding tensors so no spin-rotation constants.
 Leave Link  601 at Mon Nov 13 19:29:31 2023, MaxMem=  1879048192 cpu:               2.6 elap:               0.2
 (Enter /home/sekinelabo/g16/l701.exe)
 ... and contract with generalized density number  0.
 Compute integral first derivatives.
 Leave Link  701 at Mon Nov 13 19:29:32 2023, MaxMem=  1879048192 cpu:               1.8 elap:               0.1
 (Enter /home/sekinelabo/g16/l702.exe)
 L702 exits ... SP integral derivatives will be done elsewhere.
 Leave Link  702 at Mon Nov 13 19:29:32 2023, MaxMem=  1879048192 cpu:               0.5 elap:               0.0
 (Enter /home/sekinelabo/g16/l703.exe)
 Integral derivatives from FoFJK, PRISM(SPDF).
 Compute integral first derivatives, UseDBF=F ICtDFT=           0.
 Calling FoFJK, ICntrl=      2127 FMM=F ISym2X=0 I1Cent= 0 IOpClX= 1 NMat=1 NMatS=1 NMatT=0.
 FoFJK:  IHMeth= 1 ICntrl=    2127 DoSepK=F KAlg= 0 I1Cent=           0 FoldK=F
 IRaf=         0 NMat=       1 IRICut=       1 DoRegI=T DoRafI=F ISym2E= 0 IDoP0=0 IntGTp=1.
 FoFCou: FMM=F IPFlag=           0 FMFlag=      100000 FMFlg1=         800
         NFxFlg=           0 DoJE=F BraDBF=F KetDBF=F FulRan=T
         wScrn=  0.000000 ICntrl=      2127 IOpCl=  1 I1Cent=           0 NGrid=           0
         NMat0=    1 NMatS0=      1 NMatT0=    0 NMatD0=    1 NMtDS0=    0 NMtDT0=    0
 Symmetry not used in FoFCou.
 Leave Link  703 at Mon Nov 13 19:29:34 2023, MaxMem=  1879048192 cpu:              36.8 elap:               2.3
 (Enter /home/sekinelabo/g16/l716.exe)
 Dipole        =-1.52755896D-01-6.10334713D-02-4.63739964D-02
 ***** Axes restored to original set *****
 -------------------------------------------------------------------
 Center     Atomic                   Forces (Hartrees/Bohr)
 Number     Number              X              Y              Z
 -------------------------------------------------------------------
      1       11          -0.004965819   -0.015669272   -0.003737148
      2       11          -0.004958554   -0.002349188    0.013170588
      3       11          -0.008159685   -0.000479629   -0.004184352
      4       11          -0.008174334    0.015103378   -0.000862754
      5       11           0.004188681    0.007055521   -0.004597181
      6       11           0.016283610    0.001913070    0.004742072
      7       11           0.005786100   -0.005573880   -0.004531225
 -------------------------------------------------------------------
 Cartesian Forces:  Max     0.016283610 RMS     0.007965877
 Z-matrix is all fixed cartesians, so copy forces.
 Force constants in Cartesian coordinates: 
                1             2             3             4             5 
      1  0.161835D+00
      2  0.307093D-02  0.168711D+00
      3  0.577853D-02  0.103724D-01  0.133611D+00
      4 -0.232180D-01 -0.486490D-05 -0.105945D-01  0.695784D-01
      5  0.640769D-02 -0.212214D-01 -0.327710D-01  0.127667D-02  0.614197D-01
      6  0.506258D-02  0.209167D-02 -0.408786D-01 -0.108414D-01 -0.561311D-02
      7 -0.293411D-01 -0.323344D-02 -0.544323D-02  0.182302D-02 -0.552026D-03
      8  0.244310D-01 -0.317792D-01  0.154045D-01  0.330768D-03  0.675990D-02
      9 -0.445792D-02 -0.281935D-02 -0.271076D-01 -0.926389D-02 -0.100590D-03
     10 -0.296292D-01 -0.753787D-02  0.510054D-02 -0.225502D-01 -0.614260D-02
     11  0.121123D-01 -0.546646D-01  0.609479D-03  0.358767D-02 -0.285321D-01
     12  0.765205D-02 -0.637215D-02 -0.188361D-01 -0.173859D-01  0.323385D-01
     13  0.454388D-02 -0.430150D-02  0.322511D-02  0.731668D-02 -0.495589D-02
     14 -0.599655D-02 -0.311747D-02  0.557834D-02 -0.386199D-02  0.214403D-02
     15 -0.675996D-03 -0.281360D-02  0.404531D-02  0.476239D-02  0.570839D-02
     16 -0.414614D-01 -0.346245D-03 -0.112084D-01 -0.374422D-01 -0.119121D-02
     17 -0.237955D-01 -0.389420D-01 -0.375882D-02 -0.453601D-02 -0.250995D-01
     18 -0.126606D-01  0.326880D-02 -0.242440D-01  0.365031D-01  0.493905D-02
     19 -0.427290D-01  0.123530D-01  0.131419D-01  0.449240D-02  0.515735D-02
     20 -0.162299D-01 -0.189859D-01  0.456512D-02  0.320775D-02  0.452934D-02
     21 -0.698640D-03 -0.372775D-02 -0.265903D-01  0.682022D-02 -0.450125D-02
                6             7             8             9            10 
      6  0.105359D+00
      7  0.243078D-03  0.569928D-01
      8  0.970849D-03 -0.866750D-03  0.473126D-01
      9 -0.373614D-02  0.209127D-01  0.275001D-02  0.459600D-01
     10  0.434965D-02 -0.245622D-01 -0.218841D-01 -0.974577D-02  0.162662D+00
     11  0.117432D-02  0.528329D-02 -0.333582D-01 -0.356226D-04 -0.740025D-02
     12 -0.345870D-01 -0.130319D-02 -0.173203D-01 -0.292486D-01  0.503083D-02
     13  0.215308D-02 -0.100572D-02 -0.375380D-03  0.155485D-02 -0.412850D-01
     14  0.228186D-03 -0.186883D-02 -0.211146D-03  0.234421D-02  0.116845D-01
     15 -0.298433D-03 -0.418543D-02 -0.108458D-02  0.584644D-02  0.171671D-02
     16 -0.359847D-02 -0.281237D-02 -0.149276D-02 -0.675298D-03 -0.473406D-01
     17  0.322147D-04 -0.976824D-03  0.105015D-01  0.677618D-03  0.238792D-01
     18 -0.249521D-01 -0.621363D-02  0.244356D-04  0.250402D-02 -0.650826D-02
     19  0.263150D-02 -0.109450D-02 -0.142818D-03  0.167535D-02  0.270487D-02
     20  0.111587D-02  0.221458D-02  0.774586D-03 -0.281628D-02  0.740118D-02
     21 -0.906171D-03 -0.401029D-02 -0.744968D-03  0.578190D-02  0.562954D-04
               11            12            13            14            15 
     11  0.168383D+00
     12 -0.140841D-02  0.130660D+00
     13 -0.178883D-01  0.131718D-01  0.529134D-01
     14 -0.187554D-01 -0.140889D-02  0.658907D-02  0.540643D-01
     15  0.636129D-02 -0.269414D-01 -0.782965D-02 -0.193071D-01  0.427330D-01
     16 -0.768439D-03 -0.121066D-01 -0.225630D-01 -0.662837D-02  0.613316D-02
     17 -0.333855D-01 -0.112518D-02  0.202638D-01 -0.313664D-01  0.153026D-01
     18 -0.872304D-02 -0.248023D-01 -0.114400D-01  0.916453D-02 -0.304369D-01
     19  0.507379D-02  0.494099D-02  0.797778D-04  0.821806D-04  0.788195D-04
     20  0.312978D-03 -0.470363D-02  0.668265D-03 -0.275794D-02 -0.416702D-02
     21  0.202198D-02  0.375491D-02 -0.835156D-03  0.340068D-02  0.505194D-02
               16            17            18            19            20 
     16  0.171523D+00
     17  0.159636D-02  0.150084D+00
     18  0.113233D-01  0.270562D-02  0.134289D+00
     19 -0.199037D-01 -0.164310D-01 -0.110038D-01  0.564502D-01
     20  0.883067D-02 -0.317924D-01 -0.113794D-01 -0.609254D-02  0.479193D-01
     21  0.101323D-01 -0.138340D-01 -0.323575D-01 -0.114648D-01  0.173853D-01
               21 
     21  0.452653D-01
 Leave Link  716 at Mon Nov 13 19:29:34 2023, MaxMem=  1879048192 cpu:               0.4 elap:               0.0
 (Enter /home/sekinelabo/g16/l103.exe)

 GradGradGradGradGradGradGradGradGradGradGradGradGradGradGradGradGradGrad
 Berny optimization.
 Search for a local minimum.
 Step number   1 out of a maximum of    2
 All quantities printed in internal units (Hartrees-Bohrs-Radians)
 Second derivative matrix not updated -- first step.
 ITU=  0
     Eigenvalues ---    0.03609   0.03631   0.05098   0.07451   0.07593
     Eigenvalues ---    0.08783   0.13157   0.14709   0.16886   0.18000
     Eigenvalues ---    0.18255   0.19728   0.22779   0.22992   0.23394
 Quadratic step=3.698D-01 exceeds max=3.000D-01 adjusted using Lamda=-1.708D-02.
 Angle between NR and scaled steps=   3.97 degrees.
 Angle between quadratic step and forces=  25.98 degrees.
 Linear search not attempted -- first point.
 B after Tr=     0.000000    0.000000    0.000000
         Rot=    1.000000   -0.000000   -0.000000    0.000000 Ang=   0.00 deg.
 Variable       Old X    -DE/DX   Delta X   Delta X   Delta X     New X
                                 (Linear)    (Quad)   (Total)
    X1        4.29841  -0.00497   0.00000  -0.02867  -0.02867   4.26974
    Y1        1.12582  -0.01567   0.00000  -0.08114  -0.08114   1.04467
    Z1        2.62638  -0.00374   0.00000  -0.01166  -0.01166   2.61473
    X2        4.38720  -0.00496   0.00000  -0.04016  -0.04016   4.34704
    Y2        3.52063  -0.00235   0.00000  -0.01945  -0.01945   3.50119
    Z2        7.76484   0.01317   0.00000   0.10802   0.10802   7.87286
    X3        0.00000  -0.00816   0.00000  -0.12459  -0.12459  -0.12459
    Y3        3.73759  -0.00048   0.00000  -0.00674  -0.00674   3.73085
    Z3        0.00000  -0.00418   0.00000  -0.04534  -0.04534  -0.04534
    X4        3.64758  -0.00817   0.00000  -0.04591  -0.04591   3.60167
    Y4        6.72683   0.01510   0.00000   0.07719   0.07719   6.80402
    Z4        3.14472  -0.00086   0.00000   0.00231   0.00231   3.14704
    X5        8.36218   0.00419   0.00000   0.06359   0.06359   8.42577
    Y5        9.04668   0.00706   0.00000   0.10836   0.10836   9.15504
    Z5        1.00989  -0.00460   0.00000  -0.04069  -0.04069   0.96920
    X6        8.69088   0.01628   0.00000   0.08670   0.08670   8.77758
    Y6        4.35192   0.00191   0.00000   0.00963   0.00963   4.36155
    Z6        4.16639   0.00474   0.00000   0.02963   0.02963   4.19602
    X7        9.47996   0.00579   0.00000   0.08904   0.08904   9.56900
    Y7        0.00000  -0.00557   0.00000  -0.08785  -0.08785  -0.08785
    Z7        0.61510  -0.00453   0.00000  -0.04227  -0.04227   0.57283
         Item               Value     Threshold  Converged?
 Maximum Force            0.016284     0.000450     NO 
 RMS     Force            0.007966     0.000300     NO 
 Maximum Displacement     0.124595     0.001800     NO 
 RMS     Displacement     0.065560     0.001200     NO 
 Predicted change in Energy=-5.700371D-03
 GradGradGradGradGradGradGradGradGradGradGradGradGradGradGradGradGradGrad

 Leave Link  103 at Mon Nov 13 19:29:34 2023, MaxMem=  1879048192 cpu:               0.3 elap:               0.0
 (Enter /home/sekinelabo/g16/l9999.exe)
 1\1\GINC-SEKINELABO-XA7R-R37\Force\UB3LYP\6-311+G(d)\Na7(2)\SEKINELABO
 \13-Nov-2023\0\\#P B3LYP/6-311+g(d) force\\Gaussian input prepared by 
 ASE\\0,2\Na,2.2746220711,0.5957571573,1.3898211359\Na,2.3216060646,1.8
 630396273,4.1089753179\Na,0.,1.9778455978,0.\Na,1.9302144741,3.5596842
 749,1.6641160121\Na,4.425075604,4.7872960539,0.5344111547\Na,4.5990150
 041,2.3029375113,2.2047604099\Na,5.0165793346,0.,0.3254972144\\Version
 =ES64L-G16RevB.01\State=2-A\HF=-1136.0984177\S2=0.759559\S2-1=0.\S2A=0
 .750061\RMSD=6.135e-09\RMSF=7.966e-03\Dipole=-0.1527559,-0.0610335,-0.
 046374\Quadrupole=0.576762,-4.881829,4.3050671,0.0174709,-0.6901865,-0
 .4713399\PG=C01 [X(Na7)]\\@


 THEREFORE SHALL EVIL COME UPON THEE...
 THOU SHALT NOT KNOW FROM WHENCE IT RISETH...
 AND MISCHIEF SHALL FALL UPON THEE...
 THOU SHALT NOT BE ABLE TO PUT IT OFF...
 AND DESOLATION SHALL COME UPON THEE SUDDENLY...
 WHICH THOU SHALT NOT KNOW...

                                         ISAIAH 47.11
 Job cpu time:       0 days  0 hours  4 minutes 29.6 seconds.
 Elapsed time:       0 days  0 hours  0 minutes 21.8 seconds.
 File lengths (MBytes):  RWF=     32 Int=      0 D2E=      0 Chk=      6 Scr=      1
 Normal termination of Gaussian 16 at Mon Nov 13 19:29:34 2023.
