 Entering Gaussian System, Link 0=g16
 Initial command:
 /home/sekinelabo/g16/l1.exe "/home/sekinelabo/g16temp/Gau-3997949.inp" -scrdir="/home/sekinelabo/g16temp/"
 Entering Link 1 = /home/sekinelabo/g16/l1.exe PID=   3997951.
  
 Copyright (c) 1988-2017, Gaussian, Inc.  All Rights Reserved.
  
 This is part of the Gaussian(R) 16 program.  It is based on
 the Gaussian(R) 09 system (copyright 2009, Gaussian, Inc.),
 the Gaussian(R) 03 system (copyright 2003, Gaussian, Inc.),
 the Gaussian(R) 98 system (copyright 1998, Gaussian, Inc.),
 the Gaussian(R) 94 system (copyright 1995, Gaussian, Inc.),
 the Gaussian 92(TM) system (copyright 1992, Gaussian, Inc.),
 the Gaussian 90(TM) system (copyright 1990, Gaussian, Inc.),
 the Gaussian 88(TM) system (copyright 1988, Gaussian, Inc.),
 the Gaussian 86(TM) system (copyright 1986, Carnegie Mellon
 University), and the Gaussian 82(TM) system (copyright 1983,
 Carnegie Mellon University). Gaussian is a federally registered
 trademark of Gaussian, Inc.
  
 This software contains proprietary and confidential information,
 including trade secrets, belonging to Gaussian, Inc.
  
 This software is provided under written license and may be
 used, copied, transmitted, or stored only in accord with that
 written license.
  
 The following legend is applicable only to US Government
 contracts under FAR:
  
                    RESTRICTED RIGHTS LEGEND
  
 Use, reproduction and disclosure by the US Government is
 subject to restrictions as set forth in subparagraphs (a)
 and (c) of the Commercial Computer Software - Restricted
 Rights clause in FAR 52.227-19.
  
 Gaussian, Inc.
 340 Quinnipiac St., Bldg. 40, Wallingford CT 06492
  
  
 ---------------------------------------------------------------
 Warning -- This program may not be used in any manner that
 competes with the business of Gaussian, Inc. or will provide
 assistance to any competitor of Gaussian, Inc.  The licensee
 of this program is prohibited from giving any competitor of
 Gaussian, Inc. access to this program.  By using this program,
 the user acknowledges that Gaussian, Inc. is engaged in the
 business of creating and licensing software in the field of
 computational chemistry and represents and warrants to the
 licensee that it is not a competitor of Gaussian, Inc. and that
 it will not use this program in any manner prohibited above.
 ---------------------------------------------------------------
  

 Cite this work as:
 Gaussian 16, Revision B.01,
 M. J. Frisch, G. W. Trucks, H. B. Schlegel, G. E. Scuseria, 
 M. A. Robb, J. R. Cheeseman, G. Scalmani, V. Barone, 
 G. A. Petersson, H. Nakatsuji, X. Li, M. Caricato, A. V. Marenich, 
 J. Bloino, B. G. Janesko, R. Gomperts, B. Mennucci, H. P. Hratchian, 
 J. V. Ortiz, A. F. Izmaylov, J. L. Sonnenberg, D. Williams-Young, 
 F. Ding, F. Lipparini, F. Egidi, J. Goings, B. Peng, A. Petrone, 
 T. Henderson, D. Ranasinghe, V. G. Zakrzewski, J. Gao, N. Rega, 
 G. Zheng, W. Liang, M. Hada, M. Ehara, K. Toyota, R. Fukuda, 
 J. Hasegawa, M. Ishida, T. Nakajima, Y. Honda, O. Kitao, H. Nakai, 
 T. Vreven, K. Throssell, J. A. Montgomery, Jr., J. E. Peralta, 
 F. Ogliaro, M. J. Bearpark, J. J. Heyd, E. N. Brothers, K. N. Kudin, 
 V. N. Staroverov, T. A. Keith, R. Kobayashi, J. Normand, 
 K. Raghavachari, A. P. Rendell, J. C. Burant, S. S. Iyengar, 
 J. Tomasi, M. Cossi, J. M. Millam, M. Klene, C. Adamo, R. Cammi, 
 J. W. Ochterski, R. L. Martin, K. Morokuma, O. Farkas, 
 J. B. Foresman, and D. J. Fox, Gaussian, Inc., Wallingford CT, 2016.
 
 ******************************************
 Gaussian 16:  ES64L-G16RevB.01 20-Dec-2017
                13-Nov-2023 
 ******************************************
 %mem=14GB
 %chk=checkpoint.chk
 %nprocshared=16
 Will use up to   16 processors via shared memory.
 -------------------------
 #P B3LYP/6-311+g(d) force
 -------------------------
 1/10=7,30=1,38=1/1,3;
 2/12=2,17=6,18=5,40=1/2;
 3/5=4,6=6,7=11,11=2,25=1,30=1,71=1,74=-5/1,2,3;
 4//1;
 5/5=2,38=5/2;
 6/7=2,8=2,9=2,10=2,28=1/1;
 7/29=1/1,2,3,16;
 1/10=7,30=1/3;
 99//99;
 Leave Link    1 at Mon Nov 13 14:56:27 2023, MaxMem=  1879048192 cpu:               0.3 elap:               0.0
 (Enter /home/sekinelabo/g16/l101.exe)
 ------------------------------
 Gaussian input prepared by ASE
 ------------------------------
 Symbolic Z-matrix:
 Charge =  0 Multiplicity = 2
 Na                    3.86404   0.18368   1.52447 
 Na                    6.65554   0.22611   2.60634 
 Na                    5.96616   1.84947   0.18431 
 Na                    4.22727   4.22919   0.74937 
 Na                    2.75527   2.6516    2.83609 
 Na                    0.        1.72869   2.08756 
 Na                    1.28424   0.        0. 
 
 ITRead=  0  0  0  0  0  0  0
 MicOpt= -1 -1 -1 -1 -1 -1 -1
 NAtoms=      7 NQM=        7 NQMF=       0 NMMI=      0 NMMIF=      0
                NMic=       0 NMicF=      0.
                    Isotopes and Nuclear Properties:
 (Nuclear quadrupole moments (NQMom) in fm**2, nuclear magnetic moments (NMagM)
  in nuclear magnetons)

  Atom         1           2           3           4           5           6           7
 IAtWgt=          23          23          23          23          23          23          23
 AtmWgt=  22.9897697  22.9897697  22.9897697  22.9897697  22.9897697  22.9897697  22.9897697
 NucSpn=           3           3           3           3           3           3           3
 AtZEff=  -0.0000000  -0.0000000  -0.0000000  -0.0000000  -0.0000000  -0.0000000  -0.0000000
 NQMom=   10.4000000  10.4000000  10.4000000  10.4000000  10.4000000  10.4000000  10.4000000
 NMagM=    2.2175200   2.2175200   2.2175200   2.2175200   2.2175200   2.2175200   2.2175200
 AtZNuc=  11.0000000  11.0000000  11.0000000  11.0000000  11.0000000  11.0000000  11.0000000
 Leave Link  101 at Mon Nov 13 14:56:27 2023, MaxMem=  1879048192 cpu:               2.6 elap:               0.2
 (Enter /home/sekinelabo/g16/l103.exe)

 GradGradGradGradGradGradGradGradGradGradGradGradGradGradGradGradGradGrad
 Berny optimization.
 Initialization pass.
 Trust Radius=3.00D-01 FncErr=1.00D-07 GrdErr=1.00D-07 EigMax=2.50D+02 EigMin=1.00D-04
 Number of steps in this run=      2 maximum allowed number of steps=      2.
 GradGradGradGradGradGradGradGradGradGradGradGradGradGradGradGradGradGrad

 Leave Link  103 at Mon Nov 13 14:56:27 2023, MaxMem=  1879048192 cpu:               0.2 elap:               0.0
 (Enter /home/sekinelabo/g16/l202.exe)
                          Input orientation:                          
 ---------------------------------------------------------------------
 Center     Atomic      Atomic             Coordinates (Angstroms)
 Number     Number       Type             X           Y           Z
 ---------------------------------------------------------------------
      1         11           0        3.864043    0.183678    1.524468
      2         11           0        6.655542    0.226109    2.606336
      3         11           0        5.966159    1.849473    0.184307
      4         11           0        4.227274    4.229193    0.749367
      5         11           0        2.755269    2.651604    2.836089
      6         11           0        0.000000    1.728692    2.087559
      7         11           0        1.284236    0.000000    0.000000
 ---------------------------------------------------------------------
                    Distance matrix (angstroms):
                    1          2          3          4          5
     1  Na   0.000000
     2  Na   2.994112   0.000000
     3  Na   2.998299   2.996128   0.000000
     4  Na   4.135083   5.036814   3.001013   0.000000
     5  Na   3.006724   4.598689   4.240893   3.001665   0.000000
     6  Na   4.199401   6.842742   6.263546   5.090492   3.000595
     7  Na   3.002190   5.974533   5.037353   5.206640   4.151908
                    6          7
     6  Na   0.000000
     7  Na   2.999257   0.000000
 Stoichiometry    Na7(2)
 Framework group  C1[X(Na7)]
 Deg. of freedom    15
 Full point group                 C1      NOp   1
 Largest Abelian subgroup         C1      NOp   1
 Largest concise Abelian subgroup C1      NOp   1
                         Standard orientation:                         
 ---------------------------------------------------------------------
 Center     Atomic      Atomic             Coordinates (Angstroms)
 Number     Number       Type             X           Y           Z
 ---------------------------------------------------------------------
      1         11           0       -0.327968   -1.369001   -0.097593
      2         11           0       -3.119467   -1.326569   -1.179461
      3         11           0       -2.430084    0.296795    1.242568
      4         11           0       -0.691200    2.676514    0.677508
      5         11           0        0.780806    1.098925   -1.409214
      6         11           0        3.536075    0.176014   -0.660684
      7         11           0        2.251839   -1.552678    1.426875
 ---------------------------------------------------------------------
 Rotational constants (GHZ):           0.9814969           0.5200813           0.4491675
 Leave Link  202 at Mon Nov 13 14:56:27 2023, MaxMem=  1879048192 cpu:               0.1 elap:               0.0
 (Enter /home/sekinelabo/g16/l301.exe)
 Standard basis: 6-311+G(d) (5D, 7F)
 Ernie: Thresh=  0.10000D-02 Tol=  0.10000D-05 Strict=F.
 There are   217 symmetry adapted cartesian basis functions of A   symmetry.
 There are   210 symmetry adapted basis functions of A   symmetry.
   210 basis functions,   350 primitive gaussians,   217 cartesian basis functions
    39 alpha electrons       38 beta electrons
       nuclear repulsion energy       347.8650808827 Hartrees.
 IExCor=  402 DFT=T Ex+Corr=B3LYP ExCW=0 ScaHFX=  0.200000
 ScaDFX=  0.800000  0.720000  1.000000  0.810000 ScalE2=  1.000000  1.000000
 IRadAn=      5 IRanWt=     -1 IRanGd=            0 ICorTp=0 IEmpDi=  4
 NAtoms=    7 NActive=    7 NUniq=    7 SFac= 1.00D+00 NAtFMM=   60 NAOKFM=F Big=F
 Integral buffers will be    131072 words long.
 Raffenetti 2 integral format.
 Two-electron integral symmetry is turned on.
 Leave Link  301 at Mon Nov 13 14:56:27 2023, MaxMem=  1879048192 cpu:               0.5 elap:               0.0
 (Enter /home/sekinelabo/g16/l302.exe)
 NPDir=0 NMtPBC=     1 NCelOv=     1 NCel=       1 NClECP=     1 NCelD=      1
         NCelK=      1 NCelE2=     1 NClLst=     1 CellRange=     0.0.
 One-electron integrals computed using PRISM.
 One-electron integral symmetry used in STVInt
 NBasis=   210 RedAO= T EigKep=  1.54D-06  NBF=   210
 NBsUse=   209 1.00D-06 EigRej=  9.97D-07 NBFU=   209
 Precomputing XC quadrature grid using
 IXCGrd= 4 IRadAn=           5 IRanWt=          -1 IRanGd=           0 AccXCQ= 0.00D+00.
 Generated NRdTot=       0 NPtTot=           0 NUsed=           0 NTot=          32
 NSgBfM=   209   209   209   209   209 MxSgAt=     7 MxSgA2=     7.
 Leave Link  302 at Mon Nov 13 14:56:27 2023, MaxMem=  1879048192 cpu:               2.2 elap:               0.1
 (Enter /home/sekinelabo/g16/l303.exe)
 DipDrv:  MaxL=1.
 Leave Link  303 at Mon Nov 13 14:56:27 2023, MaxMem=  1879048192 cpu:               0.6 elap:               0.0
 (Enter /home/sekinelabo/g16/l401.exe)
 ExpMin= 7.60D-03 ExpMax= 3.62D+04 ExpMxC= 1.21D+03 IAcc=3 IRadAn=         5 AccDes= 0.00D+00
 Harris functional with IExCor=  402 and IRadAn=       5 diagonalized for initial guess.
 HarFok:  IExCor=  402 AccDes= 0.00D+00 IRadAn=         5 IDoV= 1 UseB2=F ITyADJ=14
 ICtDFT=  3500011 ScaDFX=  1.000000  1.000000  1.000000  1.000000
 FoFCou: FMM=F IPFlag=           0 FMFlag=      100000 FMFlg1=           0
         NFxFlg=           0 DoJE=T BraDBF=F KetDBF=T FulRan=T
         wScrn=  0.000000 ICntrl=       500 IOpCl=  0 I1Cent=   200000004 NGrid=           0
         NMat0=    1 NMatS0=      1 NMatT0=    0 NMatD0=    1 NMtDS0=    0 NMtDT0=    0
 Petite list used in FoFCou.
 Harris En= -1135.87435695390    
 JPrj=0 DoOrth=F DoCkMO=F.
 Initial guess <Sx>= 0.0000 <Sy>= 0.0000 <Sz>= 0.5000 <S**2>= 0.7500 S= 0.5000
 Leave Link  401 at Mon Nov 13 14:56:27 2023, MaxMem=  1879048192 cpu:               5.1 elap:               0.3
 (Enter /home/sekinelabo/g16/l502.exe)
 Keep R1 and R2 ints in memory in canonical form, NReq=507620360.
 FoFCou: FMM=F IPFlag=           0 FMFlag=           0 FMFlg1=           0
         NFxFlg=           0 DoJE=F BraDBF=F KetDBF=F FulRan=T
         wScrn=  0.000000 ICntrl=       600 IOpCl=  0 I1Cent=           0 NGrid=           0
         NMat0=    1 NMatS0=  22155 NMatT0=    0 NMatD0=    1 NMtDS0=    0 NMtDT0=    0
 Symmetry not used in FoFCou.
 Two-electron integral symmetry not used.
 UHF open shell SCF:
 Using DIIS extrapolation, IDIIS=  1040.
 NGot=  1879048192 LenX=  1388082376 LenY=  1388034846
 Requested convergence on RMS density matrix=1.00D-08 within 128 cycles.
 Requested convergence on MAX density matrix=1.00D-06.
 Requested convergence on             energy=1.00D-06.
 No special actions if energy rises.

 Cycle   1  Pass 1  IDiag  1:
 E= -1136.06696913392    
 DIIS: error= 1.04D-02 at cycle   1 NSaved=   1.
 NSaved= 1 IEnMin= 1 EnMin= -1136.06696913392     IErMin= 1 ErrMin= 1.04D-02
 ErrMax= 1.04D-02  0.00D+00 EMaxC= 1.00D-01 BMatC= 1.94D-01 BMatP= 1.94D-01
 IDIUse=3 WtCom= 8.96D-01 WtEn= 1.04D-01
 Coeff-Com:  0.100D+01
 Coeff-En:   0.100D+01
 Coeff:      0.100D+01
 Gap=     0.030 Goal=   None    Shift=    0.000
 Gap=     0.037 Goal=   None    Shift=    0.000
 GapD=    0.030 DampG=0.250 DampE=0.500 DampFc=0.2500 IDamp=-1.
 Damping current iteration by 2.50D-01
 RMSDP=5.70D-02 MaxDP=3.23D+00              OVMax= 2.41D-01

 Cycle   2  Pass 1  IDiag  1:
 E= -1136.07948031686     Delta-E=       -0.012511182939 Rises=F Damp=T
 DIIS: error= 7.21D-03 at cycle   2 NSaved=   2.
 NSaved= 2 IEnMin= 2 EnMin= -1136.07948031686     IErMin= 2 ErrMin= 7.21D-03
 ErrMax= 7.21D-03  0.00D+00 EMaxC= 1.00D-01 BMatC= 7.36D-02 BMatP= 1.94D-01
 IDIUse=3 WtCom= 9.28D-01 WtEn= 7.21D-02
 Coeff-Com: -0.124D+01 0.224D+01
 Coeff-En:   0.000D+00 0.100D+01
 Coeff:     -0.115D+01 0.215D+01
 Gap=     0.042 Goal=   None    Shift=    0.000
 Gap=     0.047 Goal=   None    Shift=    0.000
 RMSDP=2.56D-02 MaxDP=1.52D+00 DE=-1.25D-02 OVMax= 2.06D-01

 Cycle   3  Pass 1  IDiag  1:
 E= -1136.09804256390     Delta-E=       -0.018562247047 Rises=F Damp=F
 DIIS: error= 3.96D-03 at cycle   3 NSaved=   3.
 NSaved= 3 IEnMin= 3 EnMin= -1136.09804256390     IErMin= 3 ErrMin= 3.96D-03
 ErrMax= 3.96D-03  0.00D+00 EMaxC= 1.00D-01 BMatC= 5.45D-03 BMatP= 7.36D-02
 IDIUse=3 WtCom= 9.60D-01 WtEn= 3.96D-02
 Coeff-Com: -0.350D+00 0.611D+00 0.739D+00
 Coeff-En:   0.000D+00 0.000D+00 0.100D+01
 Coeff:     -0.336D+00 0.587D+00 0.749D+00
 Gap=     0.037 Goal=   None    Shift=    0.000
 Gap=     0.041 Goal=   None    Shift=    0.000
 RMSDP=8.90D-03 MaxDP=5.22D-01 DE=-1.86D-02 OVMax= 1.20D-01

 Cycle   4  Pass 1  IDiag  1:
 E= -1136.09724864038     Delta-E=        0.000793923524 Rises=F Damp=F
 DIIS: error= 4.31D-03 at cycle   4 NSaved=   4.
 NSaved= 4 IEnMin= 3 EnMin= -1136.09804256390     IErMin= 3 ErrMin= 3.96D-03
 ErrMax= 4.31D-03  0.00D+00 EMaxC= 1.00D-01 BMatC= 5.60D-03 BMatP= 5.45D-03
 IDIUse=3 WtCom= 9.57D-01 WtEn= 4.31D-02
 Coeff-Com: -0.262D-01 0.405D-01 0.500D+00 0.485D+00
 Coeff-En:   0.000D+00 0.000D+00 0.529D+00 0.471D+00
 Coeff:     -0.250D-01 0.388D-01 0.502D+00 0.485D+00
 Gap=     0.041 Goal=   None    Shift=    0.000
 Gap=     0.043 Goal=   None    Shift=    0.000
 RMSDP=3.07D-03 MaxDP=1.33D-01 DE= 7.94D-04 OVMax= 9.28D-02

 Cycle   5  Pass 1  IDiag  1:
 E= -1136.10278929585     Delta-E=       -0.005540655474 Rises=F Damp=F
 DIIS: error= 1.08D-03 at cycle   5 NSaved=   5.
 NSaved= 5 IEnMin= 5 EnMin= -1136.10278929585     IErMin= 5 ErrMin= 1.08D-03
 ErrMax= 1.08D-03  0.00D+00 EMaxC= 1.00D-01 BMatC= 3.79D-04 BMatP= 5.45D-03
 IDIUse=3 WtCom= 9.89D-01 WtEn= 1.08D-02
 Coeff-Com: -0.867D-02 0.107D-01 0.299D+00 0.315D+00 0.384D+00
 Coeff-En:   0.000D+00 0.000D+00 0.000D+00 0.490D-02 0.995D+00
 Coeff:     -0.858D-02 0.106D-01 0.296D+00 0.311D+00 0.390D+00
 Gap=     0.040 Goal=   None    Shift=    0.000
 Gap=     0.042 Goal=   None    Shift=    0.000
 RMSDP=1.77D-03 MaxDP=1.28D-01 DE=-5.54D-03 OVMax= 2.37D-02

 Cycle   6  Pass 1  IDiag  1:
 E= -1136.10324665374     Delta-E=       -0.000457357883 Rises=F Damp=F
 DIIS: error= 1.18D-04 at cycle   6 NSaved=   6.
 NSaved= 6 IEnMin= 6 EnMin= -1136.10324665374     IErMin= 6 ErrMin= 1.18D-04
 ErrMax= 1.18D-04  0.00D+00 EMaxC= 1.00D-01 BMatC= 7.55D-06 BMatP= 3.79D-04
 IDIUse=3 WtCom= 9.99D-01 WtEn= 1.18D-03
 Coeff-Com: -0.396D-03-0.384D-04-0.393D-01-0.411D-01 0.460D-01 0.103D+01
 Coeff-En:   0.000D+00 0.000D+00 0.000D+00 0.000D+00 0.000D+00 0.100D+01
 Coeff:     -0.395D-03-0.384D-04-0.393D-01-0.410D-01 0.460D-01 0.103D+01
 Gap=     0.040 Goal=   None    Shift=    0.000
 Gap=     0.043 Goal=   None    Shift=    0.000
 RMSDP=6.23D-04 MaxDP=4.50D-02 DE=-4.57D-04 OVMax= 1.20D-02

 Cycle   7  Pass 1  IDiag  1:
 E= -1136.10328035051     Delta-E=       -0.000033696773 Rises=F Damp=F
 DIIS: error= 9.91D-05 at cycle   7 NSaved=   7.
 NSaved= 7 IEnMin= 7 EnMin= -1136.10328035051     IErMin= 7 ErrMin= 9.91D-05
 ErrMax= 9.91D-05  0.00D+00 EMaxC= 1.00D-01 BMatC= 2.78D-06 BMatP= 7.55D-06
 IDIUse=1 WtCom= 1.00D+00 WtEn= 0.00D+00
 Coeff-Com:  0.122D-02-0.181D-02-0.463D-01-0.497D-01-0.225D-01 0.369D+00
 Coeff-Com:  0.750D+00
 Coeff:      0.122D-02-0.181D-02-0.463D-01-0.497D-01-0.225D-01 0.369D+00
 Coeff:      0.750D+00
 Gap=     0.040 Goal=   None    Shift=    0.000
 Gap=     0.043 Goal=   None    Shift=    0.000
 RMSDP=3.16D-04 MaxDP=2.28D-02 DE=-3.37D-05 OVMax= 6.16D-03

 Cycle   8  Pass 1  IDiag  1:
 E= -1136.10329290898     Delta-E=       -0.000012558475 Rises=F Damp=F
 DIIS: error= 7.93D-05 at cycle   8 NSaved=   8.
 NSaved= 8 IEnMin= 8 EnMin= -1136.10329290898     IErMin= 8 ErrMin= 7.93D-05
 ErrMax= 7.93D-05  0.00D+00 EMaxC= 1.00D-01 BMatC= 1.37D-06 BMatP= 2.78D-06
 IDIUse=1 WtCom= 1.00D+00 WtEn= 0.00D+00
 Coeff-Com:  0.179D-02-0.223D-02-0.628D-02-0.725D-02-0.433D-01-0.389D+00
 Coeff-Com:  0.399D+00 0.105D+01
 Coeff:      0.179D-02-0.223D-02-0.628D-02-0.725D-02-0.433D-01-0.389D+00
 Coeff:      0.399D+00 0.105D+01
 Gap=     0.040 Goal=   None    Shift=    0.000
 Gap=     0.043 Goal=   None    Shift=    0.000
 RMSDP=4.34D-04 MaxDP=2.60D-02 DE=-1.26D-05 OVMax= 9.61D-03

 Cycle   9  Pass 1  IDiag  1:
 E= -1136.10330426072     Delta-E=       -0.000011351740 Rises=F Damp=F
 DIIS: error= 3.41D-05 at cycle   9 NSaved=   9.
 NSaved= 9 IEnMin= 9 EnMin= -1136.10330426072     IErMin= 9 ErrMin= 3.41D-05
 ErrMax= 3.41D-05  0.00D+00 EMaxC= 1.00D-01 BMatC= 3.17D-07 BMatP= 1.37D-06
 IDIUse=1 WtCom= 1.00D+00 WtEn= 0.00D+00
 Coeff-Com:  0.707D-03-0.850D-03 0.765D-02 0.734D-02-0.108D-01-0.150D+00
 Coeff-Com: -0.120D+00 0.180D+00 0.109D+01
 Coeff:      0.707D-03-0.850D-03 0.765D-02 0.734D-02-0.108D-01-0.150D+00
 Coeff:     -0.120D+00 0.180D+00 0.109D+01
 Gap=     0.040 Goal=   None    Shift=    0.000
 Gap=     0.043 Goal=   None    Shift=    0.000
 RMSDP=2.98D-04 MaxDP=1.61D-02 DE=-1.14D-05 OVMax= 5.55D-03

 Cycle  10  Pass 1  IDiag  1:
 E= -1136.10330762697     Delta-E=       -0.000003366244 Rises=F Damp=F
 DIIS: error= 2.44D-05 at cycle  10 NSaved=  10.
 NSaved=10 IEnMin=10 EnMin= -1136.10330762697     IErMin=10 ErrMin= 2.44D-05
 ErrMax= 2.44D-05  0.00D+00 EMaxC= 1.00D-01 BMatC= 1.86D-07 BMatP= 3.17D-07
 IDIUse=1 WtCom= 1.00D+00 WtEn= 0.00D+00
 Coeff-Com: -0.115D-03 0.172D-03 0.689D-02 0.642D-02 0.796D-02 0.305D-01
 Coeff-Com: -0.202D+00-0.230D+00 0.663D+00 0.717D+00
 Coeff:     -0.115D-03 0.172D-03 0.689D-02 0.642D-02 0.796D-02 0.305D-01
 Coeff:     -0.202D+00-0.230D+00 0.663D+00 0.717D+00
 Gap=     0.040 Goal=   None    Shift=    0.000
 Gap=     0.043 Goal=   None    Shift=    0.000
 RMSDP=1.73D-04 MaxDP=1.07D-02 DE=-3.37D-06 OVMax= 3.03D-03

 Cycle  11  Pass 1  IDiag  1:
 E= -1136.10330865125     Delta-E=       -0.000001024281 Rises=F Damp=F
 DIIS: error= 1.15D-05 at cycle  11 NSaved=  11.
 NSaved=11 IEnMin=11 EnMin= -1136.10330865125     IErMin=11 ErrMin= 1.15D-05
 ErrMax= 1.15D-05  0.00D+00 EMaxC= 1.00D-01 BMatC= 3.27D-08 BMatP= 1.86D-07
 IDIUse=1 WtCom= 1.00D+00 WtEn= 0.00D+00
 Coeff-Com: -0.439D-03 0.567D-03 0.598D-03 0.279D-03 0.891D-02 0.554D-01
 Coeff-Com: -0.252D-01-0.137D+00-0.148D+00 0.183D+00 0.106D+01
 Coeff:     -0.439D-03 0.567D-03 0.598D-03 0.279D-03 0.891D-02 0.554D-01
 Coeff:     -0.252D-01-0.137D+00-0.148D+00 0.183D+00 0.106D+01
 Gap=     0.040 Goal=   None    Shift=    0.000
 Gap=     0.043 Goal=   None    Shift=    0.000
 RMSDP=1.22D-04 MaxDP=7.56D-03 DE=-1.02D-06 OVMax= 1.82D-03

 Cycle  12  Pass 1  IDiag  1:
 E= -1136.10330897297     Delta-E=       -0.000000321717 Rises=F Damp=F
 DIIS: error= 5.19D-06 at cycle  12 NSaved=  12.
 NSaved=12 IEnMin=12 EnMin= -1136.10330897297     IErMin=12 ErrMin= 5.19D-06
 ErrMax= 5.19D-06  0.00D+00 EMaxC= 1.00D-01 BMatC= 8.35D-09 BMatP= 3.27D-08
 IDIUse=1 WtCom= 1.00D+00 WtEn= 0.00D+00
 Coeff-Com: -0.151D-03 0.186D-03-0.133D-02-0.114D-02 0.171D-02 0.220D-01
 Coeff-Com:  0.249D-01-0.246D-01-0.159D+00-0.818D-01 0.323D+00 0.896D+00
 Coeff:     -0.151D-03 0.186D-03-0.133D-02-0.114D-02 0.171D-02 0.220D-01
 Coeff:      0.249D-01-0.246D-01-0.159D+00-0.818D-01 0.323D+00 0.896D+00
 Gap=     0.040 Goal=   None    Shift=    0.000
 Gap=     0.043 Goal=   None    Shift=    0.000
 RMSDP=5.74D-05 MaxDP=3.35D-03 DE=-3.22D-07 OVMax= 7.85D-04

 Cycle  13  Pass 1  IDiag  1:
 E= -1136.10330903427     Delta-E=       -0.000000061302 Rises=F Damp=F
 DIIS: error= 2.83D-06 at cycle  13 NSaved=  13.
 NSaved=13 IEnMin=13 EnMin= -1136.10330903427     IErMin=13 ErrMin= 2.83D-06
 ErrMax= 2.83D-06  0.00D+00 EMaxC= 1.00D-01 BMatC= 1.74D-09 BMatP= 8.35D-09
 IDIUse=1 WtCom= 1.00D+00 WtEn= 0.00D+00
 Coeff-Com:  0.963D-04-0.127D-03-0.398D-03-0.224D-03-0.241D-02-0.143D-01
 Coeff-Com:  0.167D-01 0.390D-01-0.332D-02-0.700D-01-0.232D+00 0.151D+00
 Coeff-Com:  0.112D+01
 Coeff:      0.963D-04-0.127D-03-0.398D-03-0.224D-03-0.241D-02-0.143D-01
 Coeff:      0.167D-01 0.390D-01-0.332D-02-0.700D-01-0.232D+00 0.151D+00
 Coeff:      0.112D+01
 Gap=     0.040 Goal=   None    Shift=    0.000
 Gap=     0.043 Goal=   None    Shift=    0.000
 RMSDP=3.55D-05 MaxDP=2.45D-03 DE=-6.13D-08 OVMax= 4.50D-04

 Cycle  14  Pass 1  IDiag  1:
 E= -1136.10330905026     Delta-E=       -0.000000015987 Rises=F Damp=F
 DIIS: error= 1.05D-06 at cycle  14 NSaved=  14.
 NSaved=14 IEnMin=14 EnMin= -1136.10330905026     IErMin=14 ErrMin= 1.05D-06
 ErrMax= 1.05D-06  0.00D+00 EMaxC= 1.00D-01 BMatC= 2.50D-10 BMatP= 1.74D-09
 IDIUse=1 WtCom= 1.00D+00 WtEn= 0.00D+00
 Coeff-Com:  0.144D-04-0.172D-04 0.172D-03 0.162D-03 0.935D-04-0.134D-02
 Coeff-Com: -0.988D-02 0.211D-03 0.346D-01 0.294D-01-0.289D-01-0.213D+00
 Coeff-Com: -0.147D+00 0.134D+01
 Coeff:      0.144D-04-0.172D-04 0.172D-03 0.162D-03 0.935D-04-0.134D-02
 Coeff:     -0.988D-02 0.211D-03 0.346D-01 0.294D-01-0.289D-01-0.213D+00
 Coeff:     -0.147D+00 0.134D+01
 Gap=     0.040 Goal=   None    Shift=    0.000
 Gap=     0.043 Goal=   None    Shift=    0.000
 RMSDP=1.17D-05 MaxDP=8.69D-04 DE=-1.60D-08 OVMax= 1.65D-04

 Cycle  15  Pass 1  IDiag  1:
 E= -1136.10330905250     Delta-E=       -0.000000002240 Rises=F Damp=F
 DIIS: error= 2.56D-07 at cycle  15 NSaved=  15.
 NSaved=15 IEnMin=15 EnMin= -1136.10330905250     IErMin=15 ErrMin= 2.56D-07
 ErrMax= 2.56D-07  0.00D+00 EMaxC= 1.00D-01 BMatC= 2.63D-11 BMatP= 2.50D-10
 IDIUse=1 WtCom= 1.00D+00 WtEn= 0.00D+00
 Coeff-Com: -0.143D-04 0.191D-04 0.808D-04 0.508D-04 0.279D-03 0.115D-02
 Coeff-Com: -0.949D-03-0.499D-02 0.974D-03 0.738D-02 0.275D-01-0.207D-01
 Coeff-Com: -0.135D+00 0.408D-01 0.108D+01
 Coeff:     -0.143D-04 0.191D-04 0.808D-04 0.508D-04 0.279D-03 0.115D-02
 Coeff:     -0.949D-03-0.499D-02 0.974D-03 0.738D-02 0.275D-01-0.207D-01
 Coeff:     -0.135D+00 0.408D-01 0.108D+01
 Gap=     0.040 Goal=   None    Shift=    0.000
 Gap=     0.043 Goal=   None    Shift=    0.000
 RMSDP=1.67D-06 MaxDP=1.14D-04 DE=-2.24D-09 OVMax= 3.10D-05

 Cycle  16  Pass 1  IDiag  1:
 E= -1136.10330905265     Delta-E=       -0.000000000159 Rises=F Damp=F
 DIIS: error= 1.36D-07 at cycle  16 NSaved=  16.
 NSaved=16 IEnMin=16 EnMin= -1136.10330905265     IErMin=16 ErrMin= 1.36D-07
 ErrMax= 1.36D-07  0.00D+00 EMaxC= 1.00D-01 BMatC= 4.33D-12 BMatP= 2.63D-11
 IDIUse=1 WtCom= 1.00D+00 WtEn= 0.00D+00
 Coeff-Com: -0.438D-05 0.558D-05-0.171D-04-0.159D-04 0.328D-04 0.268D-03
 Coeff-Com:  0.145D-02-0.288D-03-0.546D-02-0.348D-02 0.383D-02 0.339D-01
 Coeff-Com:  0.192D-01-0.196D+00 0.431D-01 0.110D+01
 Coeff:     -0.438D-05 0.558D-05-0.171D-04-0.159D-04 0.328D-04 0.268D-03
 Coeff:      0.145D-02-0.288D-03-0.546D-02-0.348D-02 0.383D-02 0.339D-01
 Coeff:      0.192D-01-0.196D+00 0.431D-01 0.110D+01
 Gap=     0.040 Goal=   None    Shift=    0.000
 Gap=     0.043 Goal=   None    Shift=    0.000
 RMSDP=5.52D-07 MaxDP=3.39D-05 DE=-1.59D-10 OVMax= 1.41D-05

 Cycle  17  Pass 1  IDiag  1:
 E= -1136.10330905270     Delta-E=       -0.000000000046 Rises=F Damp=F
 DIIS: error= 5.58D-08 at cycle  17 NSaved=  17.
 NSaved=17 IEnMin=17 EnMin= -1136.10330905270     IErMin=17 ErrMin= 5.58D-08
 ErrMax= 5.58D-08  0.00D+00 EMaxC= 1.00D-01 BMatC= 1.06D-12 BMatP= 4.33D-12
 IDIUse=1 WtCom= 1.00D+00 WtEn= 0.00D+00
 Coeff-Com:  0.301D-05-0.406D-05-0.195D-04-0.125D-04-0.548D-04-0.241D-03
 Coeff-Com:  0.329D-03 0.106D-02-0.787D-03-0.180D-02-0.526D-02 0.878D-02
 Coeff-Com:  0.291D-01-0.380D-01-0.192D+00 0.196D+00 0.100D+01
 Coeff:      0.301D-05-0.406D-05-0.195D-04-0.125D-04-0.548D-04-0.241D-03
 Coeff:      0.329D-03 0.106D-02-0.787D-03-0.180D-02-0.526D-02 0.878D-02
 Coeff:      0.291D-01-0.380D-01-0.192D+00 0.196D+00 0.100D+01
 Gap=     0.040 Goal=   None    Shift=    0.000
 Gap=     0.043 Goal=   None    Shift=    0.000
 RMSDP=2.95D-07 MaxDP=1.97D-05 DE=-4.57D-11 OVMax= 7.34D-06

 Cycle  18  Pass 1  IDiag  1:
 E= -1136.10330905270     Delta-E=       -0.000000000002 Rises=F Damp=F
 DIIS: error= 3.84D-08 at cycle  18 NSaved=  18.
 NSaved=18 IEnMin=18 EnMin= -1136.10330905270     IErMin=18 ErrMin= 3.84D-08
 ErrMax= 3.84D-08  0.00D+00 EMaxC= 1.00D-01 BMatC= 2.77D-13 BMatP= 1.06D-12
 IDIUse=1 WtCom= 1.00D+00 WtEn= 0.00D+00
 Coeff-Com:  0.241D-05-0.311D-05 0.228D-05 0.948D-06-0.253D-04-0.188D-03
 Coeff-Com: -0.278D-03 0.347D-03 0.147D-02 0.439D-03-0.279D-02-0.736D-02
 Coeff-Com:  0.266D-02 0.439D-01-0.471D-01-0.278D+00 0.675D-01 0.122D+01
 Coeff:      0.241D-05-0.311D-05 0.228D-05 0.948D-06-0.253D-04-0.188D-03
 Coeff:     -0.278D-03 0.347D-03 0.147D-02 0.439D-03-0.279D-02-0.736D-02
 Coeff:      0.266D-02 0.439D-01-0.471D-01-0.278D+00 0.675D-01 0.122D+01
 Gap=     0.040 Goal=   None    Shift=    0.000
 Gap=     0.043 Goal=   None    Shift=    0.000
 RMSDP=1.90D-07 MaxDP=1.12D-05 DE=-1.82D-12 OVMax= 5.54D-06

 Cycle  19  Pass 1  IDiag  1:
 E= -1136.10330905270     Delta-E=       -0.000000000000 Rises=F Damp=F
 DIIS: error= 8.73D-09 at cycle  19 NSaved=  19.
 NSaved=19 IEnMin=19 EnMin= -1136.10330905270     IErMin=19 ErrMin= 8.73D-09
 ErrMax= 8.73D-09  0.00D+00 EMaxC= 1.00D-01 BMatC= 3.24D-14 BMatP= 2.77D-13
 IDIUse=1 WtCom= 1.00D+00 WtEn= 0.00D+00
 Coeff-Com: -0.906D-06 0.121D-05 0.111D-05 0.307D-06 0.135D-04 0.848D-04
 Coeff-Com: -0.380D-04-0.252D-03-0.235D-04 0.306D-03 0.128D-02-0.833D-03
 Coeff-Com: -0.611D-02 0.526D-02 0.340D-01-0.295D-01-0.158D+00 0.270D-01
 Coeff-Com:  0.113D+01
 Coeff:     -0.906D-06 0.121D-05 0.111D-05 0.307D-06 0.135D-04 0.848D-04
 Coeff:     -0.380D-04-0.252D-03-0.235D-04 0.306D-03 0.128D-02-0.833D-03
 Coeff:     -0.611D-02 0.526D-02 0.340D-01-0.295D-01-0.158D+00 0.270D-01
 Coeff:      0.113D+01
 Gap=     0.040 Goal=   None    Shift=    0.000
 Gap=     0.043 Goal=   None    Shift=    0.000
 RMSDP=5.37D-08 MaxDP=4.18D-06 DE=-2.27D-13 OVMax= 1.55D-06

 Cycle  20  Pass 1  IDiag  1:
 E= -1136.10330905269     Delta-E=        0.000000000010 Rises=F Damp=F
 DIIS: error= 2.99D-09 at cycle  20 NSaved=  20.
 NSaved=20 IEnMin=19 EnMin= -1136.10330905270     IErMin=20 ErrMin= 2.99D-09
 ErrMax= 2.99D-09  0.00D+00 EMaxC= 1.00D-01 BMatC= 5.59D-15 BMatP= 3.24D-14
 IDIUse=1 WtCom= 1.00D+00 WtEn= 0.00D+00
 Coeff-Com: -0.283D-06 0.370D-06 0.713D-06 0.863D-06 0.390D-05 0.132D-04
 Coeff-Com:  0.204D-04-0.381D-04-0.119D-03-0.430D-05 0.281D-03 0.707D-03
 Coeff-Com: -0.743D-03-0.420D-02 0.725D-02 0.324D-01-0.121D-01-0.189D+00
 Coeff-Com:  0.126D+00 0.104D+01
 Coeff:     -0.283D-06 0.370D-06 0.713D-06 0.863D-06 0.390D-05 0.132D-04
 Coeff:      0.204D-04-0.381D-04-0.119D-03-0.430D-05 0.281D-03 0.707D-03
 Coeff:     -0.743D-03-0.420D-02 0.725D-02 0.324D-01-0.121D-01-0.189D+00
 Coeff:      0.126D+00 0.104D+01
 Gap=     0.040 Goal=   None    Shift=    0.000
 Gap=     0.043 Goal=   None    Shift=    0.000
 RMSDP=3.39D-08 MaxDP=3.67D-06 DE= 1.00D-11 OVMax= 6.13D-07

 Cycle  21  Pass 1  IDiag  1:
 E= -1136.10330905269     Delta-E=        0.000000000002 Rises=F Damp=F
 DIIS: error= 1.77D-09 at cycle  21 NSaved=  20.
 NSaved=20 IEnMin=18 EnMin= -1136.10330905270     IErMin=20 ErrMin= 1.77D-09
 ErrMax= 1.77D-09  0.00D+00 EMaxC= 1.00D-01 BMatC= 1.08D-15 BMatP= 5.59D-15
 IDIUse=1 WtCom= 1.00D+00 WtEn= 0.00D+00
 Large coefficients: NSaved= 20 BigCof=    0.00 CofMax=   10.00 Det=-1.64D-15
 Inversion failed.  Reducing to 19 matrices.
 Large coefficients: NSaved= 19 BigCof=    0.00 CofMax=   10.00 Det=-1.66D-15
 Inversion failed.  Reducing to 18 matrices.
 Large coefficients: NSaved= 18 BigCof=    0.00 CofMax=   10.00 Det=-1.71D-15
 Inversion failed.  Reducing to 17 matrices.
 Large coefficients: NSaved= 17 BigCof=    0.00 CofMax=   10.00 Det=-1.86D-15
 Inversion failed.  Reducing to 16 matrices.
 Large coefficients: NSaved= 16 BigCof=    0.00 CofMax=   10.00 Det=-1.86D-15
 Inversion failed.  Reducing to 15 matrices.
 Coeff-Com: -0.224D-06 0.420D-05 0.146D-05-0.192D-04-0.790D-04 0.117D-03
 Coeff-Com:  0.583D-03-0.115D-02-0.266D-02 0.490D-02 0.176D-01-0.183D-01
 Coeff-Com: -0.118D+00-0.240D-01 0.114D+01
 Coeff:     -0.224D-06 0.420D-05 0.146D-05-0.192D-04-0.790D-04 0.117D-03
 Coeff:      0.583D-03-0.115D-02-0.266D-02 0.490D-02 0.176D-01-0.183D-01
 Coeff:     -0.118D+00-0.240D-01 0.114D+01
 Gap=     0.040 Goal=   None    Shift=    0.000
 Gap=     0.043 Goal=   None    Shift=    0.000
 RMSDP=8.61D-09 MaxDP=7.99D-07 DE= 1.59D-12 OVMax= 2.81D-07

 SCF Done:  E(UB3LYP) =  -1136.10330905     A.U. after   21 cycles
            NFock= 21  Conv=0.86D-08     -V/T= 2.0026
 <Sx>= 0.0000 <Sy>= 0.0000 <Sz>= 0.5000 <S**2>= 0.7940 S= 0.5218
 <L.S>= 0.000000000000E+00
 KE= 1.133140320752D+03 PE=-3.424998333229D+03 EE= 8.078896225420D+02
 Annihilation of the first spin contaminant:
 S**2 before annihilation     0.7940,   after     0.7509
 Leave Link  502 at Mon Nov 13 14:56:45 2023, MaxMem=  1879048192 cpu:             207.1 elap:              17.6
 (Enter /home/sekinelabo/g16/l601.exe)
 Copying SCF densities to generalized density rwf, IOpCl= 1 IROHF=0.

 **********************************************************************

            Population analysis using the SCF Density.

 **********************************************************************

 Orbital symmetries:
 Alpha Orbitals:
       Occupied  (A) (A) (A) (A) (A) (A) (A) (A) (A) (A) (A) (A)
                 (A) (A) (A) (A) (A) (A) (A) (A) (A) (A) (A) (A)
                 (A) (A) (A) (A) (A) (A) (A) (A) (A) (A) (A) (A)
                 (A) (A) (A)
       Virtual   (A) (A) (A) (A) (A) (A) (A) (A) (A) (A) (A) (A)
                 (A) (A) (A) (A) (A) (A) (A) (A) (A) (A) (A) (A)
                 (A) (A) (A) (A) (A) (A) (A) (A) (A) (A) (A) (A)
                 (A) (A) (A) (A) (A) (A) (A) (A) (A) (A) (A) (A)
                 (A) (A) (A) (A) (A) (A) (A) (A) (A) (A) (A) (A)
                 (A) (A) (A) (A) (A) (A) (A) (A) (A) (A) (A) (A)
                 (A) (A) (A) (A) (A) (A) (A) (A) (A) (A) (A) (A)
                 (A) (A) (A) (A) (A) (A) (A) (A) (A) (A) (A) (A)
                 (A) (A) (A) (A) (A) (A) (A) (A) (A) (A) (A) (A)
                 (A) (A) (A) (A) (A) (A) (A) (A) (A) (A) (A) (A)
                 (A) (A) (A) (A) (A) (A) (A) (A) (A) (A) (A) (A)
                 (A) (A) (A) (A) (A) (A) (A) (A) (A) (A) (A) (A)
                 (A) (A) (A) (A) (A) (A) (A) (A) (A) (A) (A) (A)
                 (A) (A) (A) (A) (A) (A) (A) (A) (A) (A) (A) (A)
                 (A) (A)
 Beta  Orbitals:
       Occupied  (A) (A) (A) (A) (A) (A) (A) (A) (A) (A) (A) (A)
                 (A) (A) (A) (A) (A) (A) (A) (A) (A) (A) (A) (A)
                 (A) (A) (A) (A) (A) (A) (A) (A) (A) (A) (A) (A)
                 (A) (A)
       Virtual   (A) (A) (A) (A) (A) (A) (A) (A) (A) (A) (A) (A)
                 (A) (A) (A) (A) (A) (A) (A) (A) (A) (A) (A) (A)
                 (A) (A) (A) (A) (A) (A) (A) (A) (A) (A) (A) (A)
                 (A) (A) (A) (A) (A) (A) (A) (A) (A) (A) (A) (A)
                 (A) (A) (A) (A) (A) (A) (A) (A) (A) (A) (A) (A)
                 (A) (A) (A) (A) (A) (A) (A) (A) (A) (A) (A) (A)
                 (A) (A) (A) (A) (A) (A) (A) (A) (A) (A) (A) (A)
                 (A) (A) (A) (A) (A) (A) (A) (A) (A) (A) (A) (A)
                 (A) (A) (A) (A) (A) (A) (A) (A) (A) (A) (A) (A)
                 (A) (A) (A) (A) (A) (A) (A) (A) (A) (A) (A) (A)
                 (A) (A) (A) (A) (A) (A) (A) (A) (A) (A) (A) (A)
                 (A) (A) (A) (A) (A) (A) (A) (A) (A) (A) (A) (A)
                 (A) (A) (A) (A) (A) (A) (A) (A) (A) (A) (A) (A)
                 (A) (A) (A) (A) (A) (A) (A) (A) (A) (A) (A) (A)
                 (A) (A) (A)
 The electronic state is 2-A.
 Alpha  occ. eigenvalues --  -38.45360 -38.44440 -38.44176 -38.44012 -38.43987
 Alpha  occ. eigenvalues --  -38.43671 -38.42816  -2.21245  -2.20433  -2.20085
 Alpha  occ. eigenvalues --   -2.20052  -2.19921  -2.19659  -2.18721  -1.14947
 Alpha  occ. eigenvalues --   -1.14919  -1.14868  -1.14185  -1.14133  -1.14067
 Alpha  occ. eigenvalues --   -1.13893  -1.13781  -1.13718  -1.13699  -1.13684
 Alpha  occ. eigenvalues --   -1.13673  -1.13557  -1.13525  -1.13497  -1.13321
 Alpha  occ. eigenvalues --   -1.13309  -1.13285  -1.12398  -1.12379  -1.12343
 Alpha  occ. eigenvalues --   -0.19006  -0.14607  -0.11961  -0.10966
 Alpha virt. eigenvalues --   -0.06924  -0.04987  -0.04114  -0.03545  -0.02959
 Alpha virt. eigenvalues --   -0.02589  -0.01958  -0.00809  -0.00545   0.00103
 Alpha virt. eigenvalues --    0.00181   0.00212   0.00508   0.00820   0.00857
 Alpha virt. eigenvalues --    0.00971   0.01053   0.01104   0.01203   0.01384
 Alpha virt. eigenvalues --    0.01559   0.01679   0.01743   0.01947   0.01958
 Alpha virt. eigenvalues --    0.02345   0.02440   0.02513   0.02697   0.02730
 Alpha virt. eigenvalues --    0.02769   0.02849   0.02947   0.02989   0.03209
 Alpha virt. eigenvalues --    0.03243   0.03340   0.03655   0.03714   0.03833
 Alpha virt. eigenvalues --    0.03883   0.04342   0.04682   0.04815   0.04950
 Alpha virt. eigenvalues --    0.05200   0.05483   0.05647   0.05938   0.06454
 Alpha virt. eigenvalues --    0.06552   0.06855   0.06928   0.07263   0.07360
 Alpha virt. eigenvalues --    0.07864   0.08030   0.08484   0.08790   0.09055
 Alpha virt. eigenvalues --    0.09491   0.09784   0.10333   0.11110   0.11696
 Alpha virt. eigenvalues --    0.11934   0.12645   0.13099   0.13511   0.13674
 Alpha virt. eigenvalues --    0.13702   0.14044   0.14457   0.14963   0.15217
 Alpha virt. eigenvalues --    0.16045   0.16734   0.18590   0.20588   0.23484
 Alpha virt. eigenvalues --    0.25814   0.26920   0.28832   0.29242   0.29976
 Alpha virt. eigenvalues --    0.30695   0.31337   0.31933   0.32235   0.32726
 Alpha virt. eigenvalues --    0.34423   0.36423   0.36911   0.37765   0.39099
 Alpha virt. eigenvalues --    0.39868   0.40329   0.41421   0.42095   0.43049
 Alpha virt. eigenvalues --    0.43522   0.43634   0.44256   0.44630   0.44883
 Alpha virt. eigenvalues --    0.45517   0.46072   0.46597   0.47001   0.47386
 Alpha virt. eigenvalues --    0.47539   0.47887   0.48378   0.49094   0.49352
 Alpha virt. eigenvalues --    0.50244   0.50744   0.52694   0.52765   0.53352
 Alpha virt. eigenvalues --    0.54207   0.54558   0.55492   0.56165   0.58474
 Alpha virt. eigenvalues --    0.59769   0.65783   0.67287   0.68501   0.69952
 Alpha virt. eigenvalues --    0.73050   0.74525   0.76428   0.80214   0.83297
 Alpha virt. eigenvalues --    2.07547   2.12424   2.14862   2.18379   2.22443
 Alpha virt. eigenvalues --    2.24565   2.33953   4.40742   4.41171   4.41787
 Alpha virt. eigenvalues --    4.42491   4.42841   4.43295   4.44030   4.44587
 Alpha virt. eigenvalues --    4.46065   4.46570   4.46795   4.48197   4.55463
 Alpha virt. eigenvalues --    4.59550   4.61385   4.63522   4.66022   4.68301
 Alpha virt. eigenvalues --    4.72354   4.74292   4.78111  96.28018  96.34379
 Alpha virt. eigenvalues --   96.37541  96.42697  96.47595  96.50470  96.63208
  Beta  occ. eigenvalues --  -38.45347 -38.44411 -38.44148 -38.43961 -38.43957
  Beta  occ. eigenvalues --  -38.43630 -38.42806  -2.21224  -2.20383  -2.20034
  Beta  occ. eigenvalues --   -2.20006  -2.19827  -2.19583  -2.18706  -1.14913
  Beta  occ. eigenvalues --   -1.14895  -1.14859  -1.14153  -1.14078  -1.14037
  Beta  occ. eigenvalues --   -1.13828  -1.13742  -1.13682  -1.13649  -1.13643
  Beta  occ. eigenvalues --   -1.13635  -1.13495  -1.13458  -1.13438  -1.13268
  Beta  occ. eigenvalues --   -1.13258  -1.13232  -1.12381  -1.12363  -1.12329
  Beta  occ. eigenvalues --   -0.18400  -0.14323  -0.11616
  Beta virt. eigenvalues --   -0.07298  -0.06716  -0.04401  -0.03869  -0.03289
  Beta virt. eigenvalues --   -0.02527  -0.02348  -0.01330  -0.00515  -0.00342
  Beta virt. eigenvalues --    0.00187   0.00235   0.00338   0.00602   0.00883
  Beta virt. eigenvalues --    0.01001   0.01071   0.01105   0.01163   0.01276
  Beta virt. eigenvalues --    0.01488   0.01715   0.01776   0.01818   0.02005
  Beta virt. eigenvalues --    0.02062   0.02399   0.02495   0.02602   0.02745
  Beta virt. eigenvalues --    0.02768   0.02845   0.02869   0.03007   0.03044
  Beta virt. eigenvalues --    0.03298   0.03347   0.03448   0.03717   0.03814
  Beta virt. eigenvalues --    0.03883   0.04011   0.04420   0.04799   0.04887
  Beta virt. eigenvalues --    0.05112   0.05360   0.05560   0.05734   0.05978
  Beta virt. eigenvalues --    0.06498   0.06620   0.06914   0.07032   0.07369
  Beta virt. eigenvalues --    0.07403   0.08010   0.08161   0.08703   0.09013
  Beta virt. eigenvalues --    0.09137   0.09706   0.10060   0.10500   0.11387
  Beta virt. eigenvalues --    0.11809   0.12188   0.12977   0.13350   0.13718
  Beta virt. eigenvalues --    0.13781   0.14025   0.14185   0.14710   0.15107
  Beta virt. eigenvalues --    0.15412   0.16165   0.16956   0.18850   0.20822
  Beta virt. eigenvalues --    0.23686   0.26098   0.27255   0.29023   0.29482
  Beta virt. eigenvalues --    0.30254   0.30986   0.31581   0.32165   0.32388
  Beta virt. eigenvalues --    0.33022   0.34698   0.36641   0.37303   0.38033
  Beta virt. eigenvalues --    0.39389   0.40008   0.40635   0.41639   0.42453
  Beta virt. eigenvalues --    0.43213   0.43601   0.43818   0.44397   0.44797
  Beta virt. eigenvalues --    0.45059   0.45684   0.46244   0.46715   0.47158
  Beta virt. eigenvalues --    0.47588   0.47682   0.48143   0.48552   0.49262
  Beta virt. eigenvalues --    0.49555   0.50436   0.50944   0.52844   0.52967
  Beta virt. eigenvalues --    0.53550   0.54326   0.54747   0.55750   0.56329
  Beta virt. eigenvalues --    0.58678   0.59999   0.65963   0.67394   0.68630
  Beta virt. eigenvalues --    0.70139   0.73175   0.74655   0.76525   0.80297
  Beta virt. eigenvalues --    0.83420   2.07666   2.12497   2.14959   2.18544
  Beta virt. eigenvalues --    2.22583   2.24647   2.34067   4.40792   4.41224
  Beta virt. eigenvalues --    4.41866   4.42550   4.42876   4.43345   4.44073
  Beta virt. eigenvalues --    4.44618   4.46107   4.46602   4.46852   4.48232
  Beta virt. eigenvalues --    4.55522   4.59609   4.61439   4.63584   4.66072
  Beta virt. eigenvalues --    4.68342   4.72394   4.74322   4.78144  96.28058
  Beta virt. eigenvalues --   96.34407  96.37574  96.42748  96.47641  96.50501
  Beta virt. eigenvalues --   96.63247
          Condensed to atoms (all electrons):
               1          2          3          4          5          6
     1  Na  16.222376  -4.238415  -0.668643   0.247953  -1.405295   0.613643
     2  Na  -4.238415  15.311382   1.361803  -0.600668   2.473815  -0.868688
     3  Na  -0.668643   1.361803  12.139219  -0.701005   0.663219  -0.036310
     4  Na   0.247953  -0.600668  -0.701005  11.327558  -0.494617   0.130040
     5  Na  -1.405295   2.473815   0.663219  -0.494617  13.094977  -0.677491
     6  Na   0.613643  -0.868688  -0.036310   0.130040  -0.677491  10.950399
     7  Na   1.524607  -3.131880  -1.549966   1.020050  -2.362811   0.686247
               7
     1  Na   1.524607
     2  Na  -3.131880
     3  Na  -1.549966
     4  Na   1.020050
     5  Na  -2.362811
     6  Na   0.686247
     7  Na  13.982912
          Atomic-Atomic Spin Densities.
               1          2          3          4          5          6
     1  Na   1.123780  -0.759762   0.013412   0.014865  -0.198282   0.082342
     2  Na  -0.759762   0.828417   0.061143   0.009152   0.328464  -0.086083
     3  Na   0.013412   0.061143   0.147564   0.012521  -0.060018  -0.142870
     4  Na   0.014865   0.009152   0.012521   0.042167  -0.096061  -0.032515
     5  Na  -0.198282   0.328464  -0.060018  -0.096061   0.591360   0.097465
     6  Na   0.082342  -0.086083  -0.142870  -0.032515   0.097465  -0.011110
     7  Na   0.389551  -0.437590  -0.060673   0.062035  -0.390656   0.014448
               7
     1  Na   0.389551
     2  Na  -0.437590
     3  Na  -0.060673
     4  Na   0.062035
     5  Na  -0.390656
     6  Na   0.014448
     7  Na   0.636049
 Mulliken charges and spin densities:
               1          2
     1  Na  -1.296226   0.665906
     2  Na   0.692650  -0.056259
     3  Na  -0.208316  -0.028922
     4  Na   0.070689   0.012163
     5  Na  -0.291796   0.272272
     6  Na   0.202160  -0.078323
     7  Na   0.830839   0.213164
 Sum of Mulliken charges =  -0.00000   1.00000
 Mulliken charges and spin densities with hydrogens summed into heavy atoms:
               1          2
     1  Na  -1.296226   0.665906
     2  Na   0.692650  -0.056259
     3  Na  -0.208316  -0.028922
     4  Na   0.070689   0.012163
     5  Na  -0.291796   0.272272
     6  Na   0.202160  -0.078323
     7  Na   0.830839   0.213164
 Electronic spatial extent (au):  <R**2>=           2376.4674
 Charge=             -0.0000 electrons
 Dipole moment (field-independent basis, Debye):
    X=              0.4448    Y=              0.0723    Z=             -0.0105  Tot=              0.4507
 Quadrupole moment (field-independent basis, Debye-Ang):
   XX=            -49.9325   YY=            -75.9184   ZZ=            -69.3701
   XY=              1.0388   XZ=              0.2325   YZ=              0.9729
 Traceless Quadrupole moment (field-independent basis, Debye-Ang):
   XX=             15.1412   YY=            -10.8447   ZZ=             -4.2964
   XY=              1.0388   XZ=              0.2325   YZ=              0.9729
 Octapole moment (field-independent basis, Debye-Ang**2):
  XXX=             22.4103  YYY=              8.7808  ZZZ=              1.3449  XYY=              1.1258
  XXY=             -0.3231  XXZ=             -9.8369  XZZ=             -6.3137  YZZ=             -4.1732
  YYZ=              3.9620  XYZ=             -7.5408
 Hexadecapole moment (field-independent basis, Debye-Ang**3):
 XXXX=          -1782.1528 YYYY=          -1234.5658 ZZZZ=           -770.6733 XXXY=             62.1430
 XXXZ=            -25.6484 YYYX=            -12.7988 YYYZ=             26.3122 ZZZX=             11.4611
 ZZZY=             -5.3073 XXYY=           -592.8213 XXZZ=           -445.1758 YYZZ=           -339.0599
 XXYZ=             16.6721 YYXZ=             22.8550 ZZXY=              1.2099
 N-N= 3.478650808827D+02 E-N=-3.424998332938D+03  KE= 1.133140320752D+03
                          Isotropic Fermi Contact Couplings
        Atom                 a.u.       MegaHertz       Gauss      10(-4) cm-1
     1  Na(23)             0.02700      31.94035      11.39711      10.65415
     2  Na(23)             0.11915     140.95933      50.29779      47.01897
     3  Na(23)             0.08932     105.67317      37.70681      35.24877
     4  Na(23)             0.01398      16.53767       5.90105       5.51637
     5  Na(23)             0.16537     195.63644      69.80795      65.25729
     6  Na(23)             0.01509      17.85190       6.37000       5.95475
     7  Na(23)             0.21723     256.98549      91.69881      85.72113
 --------------------------------------------------------
       Center         ----  Spin Dipole Couplings  ----
                      3XX-RR        3YY-RR        3ZZ-RR
 --------------------------------------------------------
     1   Atom       -0.031163     -0.040517      0.071680
     2   Atom        0.008547     -0.001388     -0.007159
     3   Atom       -0.000646     -0.005487      0.006132
     4   Atom       -0.003831     -0.003294      0.007125
     5   Atom        0.002356     -0.007697      0.005342
     6   Atom       -0.008100     -0.008753      0.016853
     7   Atom        0.007214     -0.002260     -0.004955
 --------------------------------------------------------
                        XY            XZ            YZ
 --------------------------------------------------------
     1   Atom       -0.006093      0.042107     -0.007613
     2   Atom       -0.001074     -0.008125     -0.000955
     3   Atom        0.005857      0.018661      0.015423
     4   Atom        0.009788     -0.011199     -0.016480
     5   Atom        0.007450     -0.004484      0.003913
     6   Atom       -0.008792      0.016551     -0.019040
     7   Atom       -0.000343     -0.001262      0.003347
 --------------------------------------------------------


 ---------------------------------------------------------------------------------
              Anisotropic Spin Dipole Couplings in Principal Axis System
 ---------------------------------------------------------------------------------

       Atom             a.u.   MegaHertz   Gauss  10(-4) cm-1        Axes

              Baa    -0.0477    -6.741    -2.405    -2.249  0.8578  0.4343 -0.2748
     1 Na(23) Bbb    -0.0396    -5.599    -1.998    -1.868 -0.3879  0.8979  0.2081
              Bcc     0.0874    12.340     4.403     4.116  0.3371 -0.0719  0.9387
 
              Baa    -0.0108    -1.523    -0.543    -0.508  0.3903  0.1371  0.9104
     2 Na(23) Bbb    -0.0012    -0.175    -0.062    -0.058 -0.0111  0.9895 -0.1442
              Bcc     0.0120     1.698     0.606     0.566  0.9206 -0.0462 -0.3877
 
              Baa    -0.0197    -2.782    -0.993    -0.928 -0.5036 -0.5315  0.6811
     3 Na(23) Bbb    -0.0092    -1.301    -0.464    -0.434 -0.6722  0.7363  0.0775
              Bcc     0.0289     4.083     1.457     1.362  0.5426  0.4188  0.7281
 
              Baa    -0.0157    -2.212    -0.789    -0.738 -0.2238  0.8387  0.4966
     4 Na(23) Bbb    -0.0108    -1.524    -0.544    -0.508  0.8697 -0.0581  0.4901
              Bcc     0.0265     3.736     1.333     1.246 -0.4399 -0.5415  0.7164
 
              Baa    -0.0133    -1.883    -0.672    -0.628 -0.4767  0.8304 -0.2884
     5 Na(23) Bbb     0.0046     0.651     0.232     0.217  0.5740  0.5426  0.6133
              Bcc     0.0087     1.232     0.440     0.411 -0.6658 -0.1268  0.7353
 
              Baa    -0.0189    -2.668    -0.952    -0.890 -0.0067  0.8813  0.4725
     6 Na(23) Bbb    -0.0162    -2.291    -0.818    -0.764  0.9174  0.1934 -0.3477
              Bcc     0.0351     4.960     1.770     1.654  0.3978 -0.4312  0.8098
 
              Baa    -0.0073    -1.026    -0.366    -0.342  0.0595 -0.5520  0.8317
     7 Na(23) Bbb    -0.0001    -0.018    -0.007    -0.006  0.1318  0.8303  0.5416
              Bcc     0.0074     1.045     0.373     0.348  0.9895 -0.0774 -0.1221
 

 ---------------------------------------------------------------------------------

 No NMR shielding tensors so no spin-rotation constants.
 Leave Link  601 at Mon Nov 13 14:56:45 2023, MaxMem=  1879048192 cpu:               2.6 elap:               0.2
 (Enter /home/sekinelabo/g16/l701.exe)
 ... and contract with generalized density number  0.
 Compute integral first derivatives.
 Leave Link  701 at Mon Nov 13 14:56:45 2023, MaxMem=  1879048192 cpu:               1.7 elap:               0.1
 (Enter /home/sekinelabo/g16/l702.exe)
 L702 exits ... SP integral derivatives will be done elsewhere.
 Leave Link  702 at Mon Nov 13 14:56:46 2023, MaxMem=  1879048192 cpu:               0.4 elap:               0.0
 (Enter /home/sekinelabo/g16/l703.exe)
 Integral derivatives from FoFJK, PRISM(SPDF).
 Compute integral first derivatives, UseDBF=F ICtDFT=           0.
 Calling FoFJK, ICntrl=      2127 FMM=F ISym2X=0 I1Cent= 0 IOpClX= 1 NMat=1 NMatS=1 NMatT=0.
 FoFJK:  IHMeth= 1 ICntrl=    2127 DoSepK=F KAlg= 0 I1Cent=           0 FoldK=F
 IRaf=         0 NMat=       1 IRICut=       1 DoRegI=T DoRafI=F ISym2E= 0 IDoP0=0 IntGTp=1.
 FoFCou: FMM=F IPFlag=           0 FMFlag=      100000 FMFlg1=         800
         NFxFlg=           0 DoJE=F BraDBF=F KetDBF=F FulRan=T
         wScrn=  0.000000 ICntrl=      2127 IOpCl=  1 I1Cent=           0 NGrid=           0
         NMat0=    1 NMatS0=      1 NMatT0=    0 NMatD0=    1 NMtDS0=    0 NMtDT0=    0
 Symmetry not used in FoFCou.
 Leave Link  703 at Mon Nov 13 14:56:48 2023, MaxMem=  1879048192 cpu:              35.6 elap:               2.3
 (Enter /home/sekinelabo/g16/l716.exe)
 Dipole        = 1.74989882D-01 2.84550888D-02-4.11159658D-03
 ***** Axes restored to original set *****
 -------------------------------------------------------------------
 Center     Atomic                   Forces (Hartrees/Bohr)
 Number     Number              X              Y              Z
 -------------------------------------------------------------------
      1       11          -0.002988935   -0.008774178    0.000566291
      2       11           0.005426893   -0.004475819    0.007866480
      3       11           0.003729385    0.002480850   -0.008225335
      4       11          -0.001885083    0.008374105   -0.002909690
      5       11           0.001736696    0.005553109    0.007700504
      6       11          -0.004454468    0.000970989    0.002711959
      7       11          -0.001564488   -0.004129055   -0.007710209
 -------------------------------------------------------------------
 Cartesian Forces:  Max     0.008774178 RMS     0.005199384
 Z-matrix is all fixed cartesians, so copy forces.
 Force constants in Cartesian coordinates: 
                1             2             3             4             5 
      1  0.148525D+00
      2  0.738385D-02  0.150409D+00
      3  0.803108D-03 -0.246361D-02  0.125554D+00
      4 -0.410575D-01  0.646361D-02 -0.122585D-01  0.497185D-01
      5 -0.169203D-01 -0.330106D-01 -0.811897D-02 -0.590533D-02  0.403069D-01
      6  0.236964D-02  0.556242D-03 -0.319738D-01  0.143141D-01 -0.159307D-01
      7 -0.335769D-01 -0.200969D-02  0.135149D-01 -0.979451D-02  0.120220D-01
      8 -0.132873D-01 -0.307652D-01  0.162271D-01 -0.104728D-02 -0.152268D-01
      9  0.382865D-02  0.237916D-02 -0.258092D-01  0.647824D-02  0.140341D-01
     10 -0.549281D-02 -0.546644D-02 -0.620818D-02  0.630831D-03  0.549987D-02
     11 -0.416013D-04 -0.163148D-01  0.578928D-02  0.972105D-03 -0.110369D-02
     12 -0.737616D-02  0.128242D-02 -0.443426D-02 -0.420069D-02  0.726760D-02
     13 -0.293675D-01 -0.654814D-02  0.327251D-02 -0.141781D-02  0.606933D-02
     14  0.272760D-02 -0.381730D-01 -0.195947D-01 -0.673142D-04  0.143678D-02
     15  0.364682D-03 -0.548007D-03 -0.235880D-01 -0.111848D-02  0.239518D-02
     16 -0.583337D-02  0.278152D-02  0.391797D-02  0.108131D-04  0.104404D-03
     17  0.579233D-02  0.139659D-02  0.184517D-02  0.408979D-04  0.350937D-03
     18  0.134484D-02  0.358526D-02  0.340520D-02 -0.380142D-04 -0.246459D-03
     19 -0.331969D-01 -0.260471D-02 -0.304171D-02  0.190962D-02 -0.870005D-03
     20  0.143454D-01 -0.335421D-01  0.631572D-02 -0.456699D-03  0.724652D-02
     21 -0.133476D-02 -0.479146D-02 -0.431534D-01 -0.317656D-02  0.599174D-03
                6             7             8             9            10 
      6  0.512264D-01
      7 -0.136089D-01  0.707569D-01
      8  0.153515D-01 -0.104033D-01  0.691126D-01
      9 -0.350006D-01 -0.213324D-01 -0.202293D-01  0.776902D-01
     10 -0.145396D-02 -0.224488D-01  0.222342D-01  0.625221D-02  0.465661D-01
     11 -0.813936D-03  0.186405D-02 -0.310908D-01  0.929941D-02 -0.612988D-02
     12  0.479898D-02  0.151677D-01 -0.917461D-02 -0.207405D-01 -0.119406D-01
     13  0.330438D-02 -0.311998D-02  0.244792D-02  0.753205D-02 -0.186309D-01
     14  0.619997D-04  0.145514D-02  0.680539D-02 -0.229026D-02 -0.849363D-02
     15  0.266844D-02  0.281067D-02 -0.192870D-02 -0.122175D-02  0.719413D-02
     16 -0.319954D-04 -0.296041D-04  0.716322D-05 -0.157705D-04 -0.564014D-03
     17 -0.119291D-03  0.000000D+00  0.778491D-04  0.496847D-04 -0.280071D-02
     18  0.107753D-03  0.708347D-04 -0.328614D-04  0.493312D-04  0.549212D-02
     19 -0.489319D-02 -0.178719D-02  0.485449D-04 -0.274297D-02 -0.604643D-04
     20  0.894188D-03 -0.292880D-02  0.108699D-02 -0.324288D-02 -0.484340D-02
     21  0.817284D-02  0.337728D-02 -0.213119D-03  0.503255D-02  0.664268D-03
               11            12            13            14            15 
     11  0.729540D-01
     12 -0.153926D-01  0.462587D-01
     13  0.354139D-02  0.943105D-02  0.804624D-01
     14 -0.241053D-01  0.209952D-01  0.933575D-02  0.688538D-01
     15  0.285020D-03 -0.315952D-01 -0.715461D-02  0.906620D-02  0.742371D-01
     16 -0.961385D-04 -0.457033D-03 -0.330773D-01 -0.138264D-02  0.186988D-02
     17 -0.170179D-03 -0.206026D-02 -0.106913D-01 -0.133022D-01 -0.330605D-02
     18  0.578735D-03  0.428358D-02 -0.137860D-01 -0.592185D-02 -0.177963D-01
     19 -0.109930D-03 -0.624297D-03  0.515103D-02 -0.357491D-02 -0.396626D-02
     20 -0.169283D-03 -0.291772D-02 -0.415498D-02 -0.151545D-02 -0.596364D-02
     21  0.254103D-03  0.142882D-02 -0.259942D-02 -0.231660D-02 -0.270421D-02
               16            17            18            19            20 
     16  0.582273D-01
     17 -0.310423D-02  0.235699D-01
     18 -0.559249D-02  0.182122D-01  0.317027D-01
     19 -0.187338D-01  0.107624D-01  0.125087D-01  0.467177D-01
     20  0.168992D-02 -0.119228D-01 -0.161750D-01 -0.365139D-02  0.388162D-01
     21  0.309445D-03 -0.146215D-01 -0.217523D-01  0.275974D-02  0.210894D-01
               21 
     21  0.529756D-01
 Leave Link  716 at Mon Nov 13 14:56:48 2023, MaxMem=  1879048192 cpu:               0.5 elap:               0.0
 (Enter /home/sekinelabo/g16/l103.exe)

 GradGradGradGradGradGradGradGradGradGradGradGradGradGradGradGradGradGrad
 Berny optimization.
 Search for a local minimum.
 Step number   1 out of a maximum of    2
 All quantities printed in internal units (Hartrees-Bohrs-Radians)
 Second derivative matrix not updated -- first step.
 ITU=  0
     Eigenvalues ---    0.00968   0.03211   0.03629   0.03852   0.04555
     Eigenvalues ---    0.06878   0.08127   0.09018   0.09429   0.10767
     Eigenvalues ---    0.12116   0.13687   0.17396   0.18273   0.20027
 Quadratic step=3.303D-01 exceeds max=3.000D-01 adjusted using Lamda=-4.608D-03.
 Angle between NR and scaled steps=   4.50 degrees.
 Angle between quadratic step and forces=  24.68 degrees.
 Linear search not attempted -- first point.
 B after Tr=     0.000000   -0.000000    0.000000
         Rot=    1.000000   -0.000000    0.000000   -0.000000 Ang=   0.00 deg.
 Variable       Old X    -DE/DX   Delta X   Delta X   Delta X     New X
                                 (Linear)    (Quad)   (Total)
    X1        7.30198  -0.00299   0.00000  -0.00347  -0.00347   7.29851
    Y1        0.34710  -0.00877   0.00000  -0.05564  -0.05564   0.29146
    Z1        2.88083   0.00057   0.00000  -0.00810  -0.00810   2.87273
    X2       12.57715   0.00543   0.00000   0.08170   0.08170  12.65885
    Y2        0.42728  -0.00448   0.00000  -0.08281  -0.08281   0.34447
    Z2        4.92526   0.00787   0.00000   0.08732   0.08732   5.01258
    X3       11.27441   0.00373   0.00000   0.07677   0.07677  11.35117
    Y3        3.49500   0.00248   0.00000   0.01352   0.01352   3.50852
    Z3        0.34829  -0.00823   0.00000  -0.05420  -0.05420   0.29409
    X4        7.98839  -0.00189   0.00000  -0.00904  -0.00904   7.97935
    Y4        7.99202   0.00837   0.00000   0.11795   0.11795   8.10997
    Z4        1.41610  -0.00291   0.00000  -0.05714  -0.05714   1.35896
    X5        5.20670   0.00174   0.00000  -0.00316  -0.00316   5.20354
    Y5        5.01080   0.00555   0.00000   0.08086   0.08086   5.09167
    Z5        5.35943   0.00770   0.00000   0.06593   0.06593   5.42536
    X6        0.00000  -0.00445   0.00000  -0.08169  -0.08169  -0.08169
    Y6        3.26675   0.00097   0.00000  -0.02411  -0.02411   3.24265
    Z6        3.94491   0.00271   0.00000   0.06827   0.06827   4.01319
    X7        2.42685  -0.00156   0.00000  -0.06110  -0.06110   2.36576
    Y7        0.00000  -0.00413   0.00000  -0.04977  -0.04977  -0.04977
    Z7        0.00000  -0.00771   0.00000  -0.10208  -0.10208  -0.10208
         Item               Value     Threshold  Converged?
 Maximum Force            0.008774     0.000450     NO 
 RMS     Force            0.005199     0.000300     NO 
 Maximum Displacement     0.117950     0.001800     NO 
 RMS     Displacement     0.065481     0.001200     NO 
 Predicted change in Energy=-3.455718D-03
 GradGradGradGradGradGradGradGradGradGradGradGradGradGradGradGradGradGrad

 Leave Link  103 at Mon Nov 13 14:56:48 2023, MaxMem=  1879048192 cpu:               0.3 elap:               0.0
 (Enter /home/sekinelabo/g16/l9999.exe)
 1\1\GINC-SEKINELABO-XA7R-R37\Force\UB3LYP\6-311+G(d)\Na7(2)\SEKINELABO
 \13-Nov-2023\0\\#P B3LYP/6-311+g(d) force\\Gaussian input prepared by 
 ASE\\0,2\Na,3.8640425021,0.1836775936,1.5244675827\Na,6.6555418007,0.2
 261090245,2.6063355106\Na,5.9661589286,1.8494731605,0.1843069228\Na,4.
 2272740296,4.229192642,0.7493669989\Na,2.7552686333,2.6516036036,2.836
 0888493\Na,0.,1.7286921227,2.0875588168\Na,1.2842357292,0.,0.\\Version
 =ES64L-G16RevB.01\State=2-A\HF=-1136.1033091\S2=0.794022\S2-1=0.\S2A=0
 .750933\RMSD=8.609e-09\RMSF=5.199e-03\Dipole=-0.1749899,0.0284551,0.00
 41116\Quadrupole=11.2570852,-8.0627992,-3.194286,-0.7723218,0.1728347,
 -0.7233618\PG=C01 [X(Na7)]\\@


 DO NOT LET SELFISH MEN OR GREEDY INTERESTS SKIN YOUR COUNTRY OF ITS
 BEAUTY, ITS RICHES, OR ITS ROMANCE. -- THEODORE ROOSEVELT
 Job cpu time:       0 days  0 hours  4 minutes 20.7 seconds.
 Elapsed time:       0 days  0 hours  0 minutes 21.0 seconds.
 File lengths (MBytes):  RWF=     32 Int=      0 D2E=      0 Chk=      5 Scr=      1
 Normal termination of Gaussian 16 at Mon Nov 13 14:56:48 2023.
