 Entering Gaussian System, Link 0=g16
 Initial command:
 /home/sekinelabo/g16/l1.exe "/home/sekinelabo/g16temp/Gau-4023079.inp" -scrdir="/home/sekinelabo/g16temp/"
 Entering Link 1 = /home/sekinelabo/g16/l1.exe PID=   4023081.
  
 Copyright (c) 1988-2017, Gaussian, Inc.  All Rights Reserved.
  
 This is part of the Gaussian(R) 16 program.  It is based on
 the Gaussian(R) 09 system (copyright 2009, Gaussian, Inc.),
 the Gaussian(R) 03 system (copyright 2003, Gaussian, Inc.),
 the Gaussian(R) 98 system (copyright 1998, Gaussian, Inc.),
 the Gaussian(R) 94 system (copyright 1995, Gaussian, Inc.),
 the Gaussian 92(TM) system (copyright 1992, Gaussian, Inc.),
 the Gaussian 90(TM) system (copyright 1990, Gaussian, Inc.),
 the Gaussian 88(TM) system (copyright 1988, Gaussian, Inc.),
 the Gaussian 86(TM) system (copyright 1986, Carnegie Mellon
 University), and the Gaussian 82(TM) system (copyright 1983,
 Carnegie Mellon University). Gaussian is a federally registered
 trademark of Gaussian, Inc.
  
 This software contains proprietary and confidential information,
 including trade secrets, belonging to Gaussian, Inc.
  
 This software is provided under written license and may be
 used, copied, transmitted, or stored only in accord with that
 written license.
  
 The following legend is applicable only to US Government
 contracts under FAR:
  
                    RESTRICTED RIGHTS LEGEND
  
 Use, reproduction and disclosure by the US Government is
 subject to restrictions as set forth in subparagraphs (a)
 and (c) of the Commercial Computer Software - Restricted
 Rights clause in FAR 52.227-19.
  
 Gaussian, Inc.
 340 Quinnipiac St., Bldg. 40, Wallingford CT 06492
  
  
 ---------------------------------------------------------------
 Warning -- This program may not be used in any manner that
 competes with the business of Gaussian, Inc. or will provide
 assistance to any competitor of Gaussian, Inc.  The licensee
 of this program is prohibited from giving any competitor of
 Gaussian, Inc. access to this program.  By using this program,
 the user acknowledges that Gaussian, Inc. is engaged in the
 business of creating and licensing software in the field of
 computational chemistry and represents and warrants to the
 licensee that it is not a competitor of Gaussian, Inc. and that
 it will not use this program in any manner prohibited above.
 ---------------------------------------------------------------
  

 Cite this work as:
 Gaussian 16, Revision B.01,
 M. J. Frisch, G. W. Trucks, H. B. Schlegel, G. E. Scuseria, 
 M. A. Robb, J. R. Cheeseman, G. Scalmani, V. Barone, 
 G. A. Petersson, H. Nakatsuji, X. Li, M. Caricato, A. V. Marenich, 
 J. Bloino, B. G. Janesko, R. Gomperts, B. Mennucci, H. P. Hratchian, 
 J. V. Ortiz, A. F. Izmaylov, J. L. Sonnenberg, D. Williams-Young, 
 F. Ding, F. Lipparini, F. Egidi, J. Goings, B. Peng, A. Petrone, 
 T. Henderson, D. Ranasinghe, V. G. Zakrzewski, J. Gao, N. Rega, 
 G. Zheng, W. Liang, M. Hada, M. Ehara, K. Toyota, R. Fukuda, 
 J. Hasegawa, M. Ishida, T. Nakajima, Y. Honda, O. Kitao, H. Nakai, 
 T. Vreven, K. Throssell, J. A. Montgomery, Jr., J. E. Peralta, 
 F. Ogliaro, M. J. Bearpark, J. J. Heyd, E. N. Brothers, K. N. Kudin, 
 V. N. Staroverov, T. A. Keith, R. Kobayashi, J. Normand, 
 K. Raghavachari, A. P. Rendell, J. C. Burant, S. S. Iyengar, 
 J. Tomasi, M. Cossi, J. M. Millam, M. Klene, C. Adamo, R. Cammi, 
 J. W. Ochterski, R. L. Martin, K. Morokuma, O. Farkas, 
 J. B. Foresman, and D. J. Fox, Gaussian, Inc., Wallingford CT, 2016.
 
 ******************************************
 Gaussian 16:  ES64L-G16RevB.01 20-Dec-2017
                13-Nov-2023 
 ******************************************
 %mem=14GB
 %chk=checkpoint.chk
 %nprocshared=16
 Will use up to   16 processors via shared memory.
 -------------------------
 #P B3LYP/6-311+g(d) force
 -------------------------
 1/10=7,30=1,38=1/1,3;
 2/12=2,17=6,18=5,40=1/2;
 3/5=4,6=6,7=11,11=2,25=1,30=1,71=1,74=-5/1,2,3;
 4//1;
 5/5=2,38=5/2;
 6/7=2,8=2,9=2,10=2,28=1/1;
 7/29=1/1,2,3,16;
 1/10=7,30=1/3;
 99//99;
 Leave Link    1 at Mon Nov 13 15:41:22 2023, MaxMem=  1879048192 cpu:               0.3 elap:               0.0
 (Enter /home/sekinelabo/g16/l101.exe)
 ------------------------------
 Gaussian input prepared by ASE
 ------------------------------
 Symbolic Z-matrix:
 Charge =  0 Multiplicity = 2
 Na                    2.41916   4.52273   1.7877 
 Na                    5.06909   3.41805   2.6707 
 Na                    4.8194    4.74139   0. 
 Na                    5.22666   1.77289   0.16477 
 Na                    2.87087   0.        0.73477 
 Na                    0.94119   1.91765   2.00338 
 Na                    0.        4.02073   0.08878 
 
 ITRead=  0  0  0  0  0  0  0
 MicOpt= -1 -1 -1 -1 -1 -1 -1
 NAtoms=      7 NQM=        7 NQMF=       0 NMMI=      0 NMMIF=      0
                NMic=       0 NMicF=      0.
                    Isotopes and Nuclear Properties:
 (Nuclear quadrupole moments (NQMom) in fm**2, nuclear magnetic moments (NMagM)
  in nuclear magnetons)

  Atom         1           2           3           4           5           6           7
 IAtWgt=          23          23          23          23          23          23          23
 AtmWgt=  22.9897697  22.9897697  22.9897697  22.9897697  22.9897697  22.9897697  22.9897697
 NucSpn=           3           3           3           3           3           3           3
 AtZEff=  -0.0000000  -0.0000000  -0.0000000  -0.0000000  -0.0000000  -0.0000000  -0.0000000
 NQMom=   10.4000000  10.4000000  10.4000000  10.4000000  10.4000000  10.4000000  10.4000000
 NMagM=    2.2175200   2.2175200   2.2175200   2.2175200   2.2175200   2.2175200   2.2175200
 AtZNuc=  11.0000000  11.0000000  11.0000000  11.0000000  11.0000000  11.0000000  11.0000000
 Leave Link  101 at Mon Nov 13 15:41:23 2023, MaxMem=  1879048192 cpu:               2.6 elap:               0.2
 (Enter /home/sekinelabo/g16/l103.exe)

 GradGradGradGradGradGradGradGradGradGradGradGradGradGradGradGradGradGrad
 Berny optimization.
 Initialization pass.
 Trust Radius=3.00D-01 FncErr=1.00D-07 GrdErr=1.00D-07 EigMax=2.50D+02 EigMin=1.00D-04
 Number of steps in this run=      2 maximum allowed number of steps=      2.
 GradGradGradGradGradGradGradGradGradGradGradGradGradGradGradGradGradGrad

 Leave Link  103 at Mon Nov 13 15:41:23 2023, MaxMem=  1879048192 cpu:               0.3 elap:               0.0
 (Enter /home/sekinelabo/g16/l202.exe)
                          Input orientation:                          
 ---------------------------------------------------------------------
 Center     Atomic      Atomic             Coordinates (Angstroms)
 Number     Number       Type             X           Y           Z
 ---------------------------------------------------------------------
      1         11           0        2.419158    4.522732    1.787697
      2         11           0        5.069094    3.418046    2.670701
      3         11           0        4.819401    4.741388    0.000000
      4         11           0        5.226664    1.772890    0.164770
      5         11           0        2.870871    0.000000    0.734765
      6         11           0        0.941192    1.917647    2.003378
      7         11           0        0.000000    4.020730    0.088783
 ---------------------------------------------------------------------
                    Distance matrix (angstroms):
                    1          2          3          4          5
     1  Na   0.000000
     2  Na   3.003696   0.000000
     3  Na   3.000806   2.991025   0.000000
     4  Na   4.251777   3.001843   3.000833   0.000000
     5  Na   4.665598   4.501452   5.178553   3.002964   0.000000
     6  Na   3.002893   4.442532   5.198803   4.665480   3.001734
     7  Na   2.998440   5.720599   4.873793   5.690042   4.982516
                    6          7
     6  Na   0.000000
     7  Na   2.995743   0.000000
 Stoichiometry    Na7(2)
 Framework group  C1[X(Na7)]
 Deg. of freedom    15
 Full point group                 C1      NOp   1
 Largest Abelian subgroup         C1      NOp   1
 Largest concise Abelian subgroup C1      NOp   1
                         Standard orientation:                         
 ---------------------------------------------------------------------
 Center     Atomic      Atomic             Coordinates (Angstroms)
 Number     Number       Type             X           Y           Z
 ---------------------------------------------------------------------
      1         11           0        0.630325   -1.609384    0.723398
      2         11           0       -2.019611   -0.504698    1.606402
      3         11           0       -1.769918   -1.828041   -1.064299
      4         11           0       -2.177181    1.140458   -0.899529
      5         11           0        0.178612    2.913347   -0.329534
      6         11           0        2.108291    0.995701    0.939079
      7         11           0        3.049483   -1.107383   -0.975517
 ---------------------------------------------------------------------
 Rotational constants (GHZ):           0.8730137           0.6638752           0.4960290
 Leave Link  202 at Mon Nov 13 15:41:23 2023, MaxMem=  1879048192 cpu:               0.1 elap:               0.0
 (Enter /home/sekinelabo/g16/l301.exe)
 Standard basis: 6-311+G(d) (5D, 7F)
 Ernie: Thresh=  0.10000D-02 Tol=  0.10000D-05 Strict=F.
 There are   217 symmetry adapted cartesian basis functions of A   symmetry.
 There are   210 symmetry adapted basis functions of A   symmetry.
   210 basis functions,   350 primitive gaussians,   217 cartesian basis functions
    39 alpha electrons       38 beta electrons
       nuclear repulsion energy       357.6963783647 Hartrees.
 IExCor=  402 DFT=T Ex+Corr=B3LYP ExCW=0 ScaHFX=  0.200000
 ScaDFX=  0.800000  0.720000  1.000000  0.810000 ScalE2=  1.000000  1.000000
 IRadAn=      5 IRanWt=     -1 IRanGd=            0 ICorTp=0 IEmpDi=  4
 NAtoms=    7 NActive=    7 NUniq=    7 SFac= 1.00D+00 NAtFMM=   60 NAOKFM=F Big=F
 Integral buffers will be    131072 words long.
 Raffenetti 2 integral format.
 Two-electron integral symmetry is turned on.
 Leave Link  301 at Mon Nov 13 15:41:23 2023, MaxMem=  1879048192 cpu:               0.5 elap:               0.0
 (Enter /home/sekinelabo/g16/l302.exe)
 NPDir=0 NMtPBC=     1 NCelOv=     1 NCel=       1 NClECP=     1 NCelD=      1
         NCelK=      1 NCelE2=     1 NClLst=     1 CellRange=     0.0.
 One-electron integrals computed using PRISM.
 One-electron integral symmetry used in STVInt
 NBasis=   210 RedAO= T EigKep=  2.71D-06  NBF=   210
 NBsUse=   210 1.00D-06 EigRej= -1.00D+00 NBFU=   210
 Precomputing XC quadrature grid using
 IXCGrd= 4 IRadAn=           5 IRanWt=          -1 IRanGd=           0 AccXCQ= 0.00D+00.
 Generated NRdTot=       0 NPtTot=           0 NUsed=           0 NTot=          32
 NSgBfM=   209   209   209   209   209 MxSgAt=     7 MxSgA2=     7.
 Leave Link  302 at Mon Nov 13 15:41:23 2023, MaxMem=  1879048192 cpu:               2.1 elap:               0.1
 (Enter /home/sekinelabo/g16/l303.exe)
 DipDrv:  MaxL=1.
 Leave Link  303 at Mon Nov 13 15:41:23 2023, MaxMem=  1879048192 cpu:               0.6 elap:               0.0
 (Enter /home/sekinelabo/g16/l401.exe)
 ExpMin= 7.60D-03 ExpMax= 3.62D+04 ExpMxC= 1.21D+03 IAcc=3 IRadAn=         5 AccDes= 0.00D+00
 Harris functional with IExCor=  402 and IRadAn=       5 diagonalized for initial guess.
 HarFok:  IExCor=  402 AccDes= 0.00D+00 IRadAn=         5 IDoV= 1 UseB2=F ITyADJ=14
 ICtDFT=  3500011 ScaDFX=  1.000000  1.000000  1.000000  1.000000
 FoFCou: FMM=F IPFlag=           0 FMFlag=      100000 FMFlg1=           0
         NFxFlg=           0 DoJE=T BraDBF=F KetDBF=T FulRan=T
         wScrn=  0.000000 ICntrl=       500 IOpCl=  0 I1Cent=   200000004 NGrid=           0
         NMat0=    1 NMatS0=      1 NMatT0=    0 NMatD0=    1 NMtDS0=    0 NMtDT0=    0
 Petite list used in FoFCou.
 Harris En= -1135.87735666484    
 JPrj=0 DoOrth=F DoCkMO=F.
 Initial guess <Sx>= 0.0000 <Sy>= 0.0000 <Sz>= 0.5000 <S**2>= 0.7500 S= 0.5000
 Leave Link  401 at Mon Nov 13 15:41:23 2023, MaxMem=  1879048192 cpu:               4.8 elap:               0.3
 (Enter /home/sekinelabo/g16/l502.exe)
 Keep R1 and R2 ints in memory in canonical form, NReq=507620360.
 FoFCou: FMM=F IPFlag=           0 FMFlag=           0 FMFlg1=           0
         NFxFlg=           0 DoJE=F BraDBF=F KetDBF=F FulRan=T
         wScrn=  0.000000 ICntrl=       600 IOpCl=  0 I1Cent=           0 NGrid=           0
         NMat0=    1 NMatS0=  22155 NMatT0=    0 NMatD0=    1 NMtDS0=    0 NMtDT0=    0
 Symmetry not used in FoFCou.
 Two-electron integral symmetry not used.
 UHF open shell SCF:
 Using DIIS extrapolation, IDIIS=  1040.
 NGot=  1879048192 LenX=  1388082376 LenY=  1388034846
 Requested convergence on RMS density matrix=1.00D-08 within 128 cycles.
 Requested convergence on MAX density matrix=1.00D-06.
 Requested convergence on             energy=1.00D-06.
 No special actions if energy rises.

 Cycle   1  Pass 1  IDiag  1:
 E= -1136.07359964967    
 DIIS: error= 1.04D-02 at cycle   1 NSaved=   1.
 NSaved= 1 IEnMin= 1 EnMin= -1136.07359964967     IErMin= 1 ErrMin= 1.04D-02
 ErrMax= 1.04D-02  0.00D+00 EMaxC= 1.00D-01 BMatC= 1.93D-01 BMatP= 1.93D-01
 IDIUse=3 WtCom= 8.96D-01 WtEn= 1.04D-01
 Coeff-Com:  0.100D+01
 Coeff-En:   0.100D+01
 Coeff:      0.100D+01
 Gap=     0.042 Goal=   None    Shift=    0.000
 Gap=     0.052 Goal=   None    Shift=    0.000
 GapD=    0.042 DampG=0.250 DampE=0.500 DampFc=0.2500 IDamp=-1.
 Damping current iteration by 2.50D-01
 RMSDP=4.05D-02 MaxDP=3.33D+00              OVMax= 2.10D-01

 Cycle   2  Pass 1  IDiag  1:
 E= -1136.08532400793     Delta-E=       -0.011724358260 Rises=F Damp=T
 DIIS: error= 7.25D-03 at cycle   2 NSaved=   2.
 NSaved= 2 IEnMin= 2 EnMin= -1136.08532400793     IErMin= 2 ErrMin= 7.25D-03
 ErrMax= 7.25D-03  0.00D+00 EMaxC= 1.00D-01 BMatC= 7.41D-02 BMatP= 1.93D-01
 IDIUse=3 WtCom= 9.28D-01 WtEn= 7.25D-02
 Coeff-Com: -0.129D+01 0.229D+01
 Coeff-En:   0.000D+00 0.100D+01
 Coeff:     -0.120D+01 0.220D+01
 Gap=     0.050 Goal=   None    Shift=    0.000
 Gap=     0.054 Goal=   None    Shift=    0.000
 RMSDP=2.15D-02 MaxDP=2.50D+00 DE=-1.17D-02 OVMax= 1.30D-01

 Cycle   3  Pass 1  IDiag  1:
 E= -1136.10618109574     Delta-E=       -0.020857087816 Rises=F Damp=F
 DIIS: error= 2.42D-03 at cycle   3 NSaved=   3.
 NSaved= 3 IEnMin= 3 EnMin= -1136.10618109574     IErMin= 3 ErrMin= 2.42D-03
 ErrMax= 2.42D-03  0.00D+00 EMaxC= 1.00D-01 BMatC= 1.80D-03 BMatP= 7.41D-02
 IDIUse=3 WtCom= 9.76D-01 WtEn= 2.42D-02
 Coeff-Com: -0.143D+00 0.258D+00 0.886D+00
 Coeff-En:   0.000D+00 0.000D+00 0.100D+01
 Coeff:     -0.140D+00 0.251D+00 0.889D+00
 Gap=     0.046 Goal=   None    Shift=    0.000
 Gap=     0.055 Goal=   None    Shift=    0.000
 RMSDP=8.04D-03 MaxDP=7.38D-01 DE=-2.09D-02 OVMax= 7.93D-02

 Cycle   4  Pass 1  IDiag  1:
 E= -1136.10506003218     Delta-E=        0.001121063563 Rises=F Damp=F
 DIIS: error= 2.61D-03 at cycle   4 NSaved=   4.
 NSaved= 4 IEnMin= 3 EnMin= -1136.10618109574     IErMin= 3 ErrMin= 2.42D-03
 ErrMax= 2.61D-03  0.00D+00 EMaxC= 1.00D-01 BMatC= 2.78D-03 BMatP= 1.80D-03
 IDIUse=3 WtCom= 1.64D-01 WtEn= 8.36D-01
 Coeff-Com: -0.172D-02 0.390D-02 0.554D+00 0.443D+00
 Coeff-En:   0.000D+00 0.000D+00 0.612D+00 0.388D+00
 Coeff:     -0.281D-03 0.639D-03 0.603D+00 0.397D+00
 Gap=     0.048 Goal=   None    Shift=    0.000
 Gap=     0.054 Goal=   None    Shift=    0.000
 RMSDP=3.08D-03 MaxDP=2.75D-01 DE= 1.12D-03 OVMax= 4.72D-02

 Cycle   5  Pass 1  IDiag  1:
 E= -1136.10767242893     Delta-E=       -0.002612396754 Rises=F Damp=F
 DIIS: error= 5.04D-04 at cycle   5 NSaved=   5.
 NSaved= 5 IEnMin= 5 EnMin= -1136.10767242893     IErMin= 5 ErrMin= 5.04D-04
 ErrMax= 5.04D-04  0.00D+00 EMaxC= 1.00D-01 BMatC= 9.71D-05 BMatP= 1.80D-03
 IDIUse=3 WtCom= 9.95D-01 WtEn= 5.04D-03
 Coeff-Com: -0.639D-03 0.282D-03 0.327D+00 0.223D+00 0.450D+00
 Coeff-En:   0.000D+00 0.000D+00 0.000D+00 0.000D+00 0.100D+01
 Coeff:     -0.635D-03 0.281D-03 0.325D+00 0.222D+00 0.453D+00
 Gap=     0.048 Goal=   None    Shift=    0.000
 Gap=     0.054 Goal=   None    Shift=    0.000
 RMSDP=7.69D-04 MaxDP=4.96D-02 DE=-2.61D-03 OVMax= 8.95D-03

 Cycle   6  Pass 1  IDiag  1:
 E= -1136.10775222726     Delta-E=       -0.000079798323 Rises=F Damp=F
 DIIS: error= 1.18D-04 at cycle   6 NSaved=   6.
 NSaved= 6 IEnMin= 6 EnMin= -1136.10775222726     IErMin= 6 ErrMin= 1.18D-04
 ErrMax= 1.18D-04  0.00D+00 EMaxC= 1.00D-01 BMatC= 4.69D-06 BMatP= 9.71D-05
 IDIUse=3 WtCom= 9.99D-01 WtEn= 1.18D-03
 Coeff-Com: -0.206D-02 0.229D-02 0.152D-01-0.281D-02 0.159D+00 0.828D+00
 Coeff-En:   0.000D+00 0.000D+00 0.000D+00 0.000D+00 0.000D+00 0.100D+01
 Coeff:     -0.206D-02 0.229D-02 0.152D-01-0.281D-02 0.159D+00 0.828D+00
 Gap=     0.049 Goal=   None    Shift=    0.000
 Gap=     0.054 Goal=   None    Shift=    0.000
 RMSDP=3.23D-04 MaxDP=2.80D-02 DE=-7.98D-05 OVMax= 4.62D-03

 Cycle   7  Pass 1  IDiag  1:
 E= -1136.10775827335     Delta-E=       -0.000006046094 Rises=F Damp=F
 DIIS: error= 8.36D-05 at cycle   7 NSaved=   7.
 NSaved= 7 IEnMin= 7 EnMin= -1136.10775827335     IErMin= 7 ErrMin= 8.36D-05
 ErrMax= 8.36D-05  0.00D+00 EMaxC= 1.00D-01 BMatC= 2.47D-06 BMatP= 4.69D-06
 IDIUse=1 WtCom= 1.00D+00 WtEn= 0.00D+00
 Coeff-Com: -0.101D-02 0.112D-02-0.614D-01-0.504D-01 0.556D-02 0.534D+00
 Coeff-Com:  0.573D+00
 Coeff:     -0.101D-02 0.112D-02-0.614D-01-0.504D-01 0.556D-02 0.534D+00
 Coeff:      0.573D+00
 Gap=     0.049 Goal=   None    Shift=    0.000
 Gap=     0.054 Goal=   None    Shift=    0.000
 RMSDP=1.94D-04 MaxDP=1.56D-02 DE=-6.05D-06 OVMax= 2.50D-03

 Cycle   8  Pass 1  IDiag  1:
 E= -1136.10776172257     Delta-E=       -0.000003449223 Rises=F Damp=F
 DIIS: error= 2.74D-05 at cycle   8 NSaved=   8.
 NSaved= 8 IEnMin= 8 EnMin= -1136.10776172257     IErMin= 8 ErrMin= 2.74D-05
 ErrMax= 2.74D-05  0.00D+00 EMaxC= 1.00D-01 BMatC= 2.42D-07 BMatP= 2.47D-06
 IDIUse=1 WtCom= 1.00D+00 WtEn= 0.00D+00
 Coeff-Com:  0.304D-03-0.436D-03-0.284D-01-0.196D-01-0.284D-01 0.584D-01
 Coeff-Com:  0.234D+00 0.784D+00
 Coeff:      0.304D-03-0.436D-03-0.284D-01-0.196D-01-0.284D-01 0.584D-01
 Coeff:      0.234D+00 0.784D+00
 Gap=     0.049 Goal=   None    Shift=    0.000
 Gap=     0.054 Goal=   None    Shift=    0.000
 RMSDP=1.24D-04 MaxDP=8.41D-03 DE=-3.45D-06 OVMax= 1.47D-03

 Cycle   9  Pass 1  IDiag  1:
 E= -1136.10776220750     Delta-E=       -0.000000484929 Rises=F Damp=F
 DIIS: error= 1.76D-05 at cycle   9 NSaved=   9.
 NSaved= 9 IEnMin= 9 EnMin= -1136.10776220750     IErMin= 9 ErrMin= 1.76D-05
 ErrMax= 1.76D-05  0.00D+00 EMaxC= 1.00D-01 BMatC= 1.20D-07 BMatP= 2.42D-07
 IDIUse=1 WtCom= 1.00D+00 WtEn= 0.00D+00
 Coeff-Com:  0.638D-03-0.804D-03-0.878D-03 0.175D-02-0.202D-01-0.113D+00
 Coeff-Com: -0.791D-02 0.518D+00 0.622D+00
 Coeff:      0.638D-03-0.804D-03-0.878D-03 0.175D-02-0.202D-01-0.113D+00
 Coeff:     -0.791D-02 0.518D+00 0.622D+00
 Gap=     0.049 Goal=   None    Shift=    0.000
 Gap=     0.054 Goal=   None    Shift=    0.000
 RMSDP=4.23D-05 MaxDP=2.42D-03 DE=-4.85D-07 OVMax= 7.85D-04

 Cycle  10  Pass 1  IDiag  1:
 E= -1136.10776242374     Delta-E=       -0.000000216238 Rises=F Damp=F
 DIIS: error= 4.75D-06 at cycle  10 NSaved=  10.
 NSaved=10 IEnMin=10 EnMin= -1136.10776242374     IErMin=10 ErrMin= 4.75D-06
 ErrMax= 4.75D-06  0.00D+00 EMaxC= 1.00D-01 BMatC= 5.67D-09 BMatP= 1.20D-07
 IDIUse=1 WtCom= 1.00D+00 WtEn= 0.00D+00
 Coeff-Com:  0.112D-03-0.136D-03 0.389D-02 0.262D-02 0.193D-02-0.193D-01
 Coeff-Com: -0.332D-01-0.680D-01 0.409D-01 0.107D+01
 Coeff:      0.112D-03-0.136D-03 0.389D-02 0.262D-02 0.193D-02-0.193D-01
 Coeff:     -0.332D-01-0.680D-01 0.409D-01 0.107D+01
 Gap=     0.049 Goal=   None    Shift=    0.000
 Gap=     0.054 Goal=   None    Shift=    0.000
 RMSDP=3.60D-05 MaxDP=3.40D-03 DE=-2.16D-07 OVMax= 5.19D-04

 Cycle  11  Pass 1  IDiag  1:
 E= -1136.10776245802     Delta-E=       -0.000000034278 Rises=F Damp=F
 DIIS: error= 2.06D-06 at cycle  11 NSaved=  11.
 NSaved=11 IEnMin=11 EnMin= -1136.10776245802     IErMin=11 ErrMin= 2.06D-06
 ErrMax= 2.06D-06  0.00D+00 EMaxC= 1.00D-01 BMatC= 1.11D-09 BMatP= 5.67D-09
 IDIUse=1 WtCom= 1.00D+00 WtEn= 0.00D+00
 Coeff-Com: -0.155D-03 0.202D-03 0.103D-02 0.210D-03 0.403D-02 0.161D-01
 Coeff-Com: -0.120D-02-0.103D+00-0.120D+00 0.102D+00 0.110D+01
 Coeff:     -0.155D-03 0.202D-03 0.103D-02 0.210D-03 0.403D-02 0.161D-01
 Coeff:     -0.120D-02-0.103D+00-0.120D+00 0.102D+00 0.110D+01
 Gap=     0.049 Goal=   None    Shift=    0.000
 Gap=     0.054 Goal=   None    Shift=    0.000
 RMSDP=2.02D-05 MaxDP=2.26D-03 DE=-3.43D-08 OVMax= 3.03D-04

 Cycle  12  Pass 1  IDiag  1:
 E= -1136.10776246557     Delta-E=       -0.000000007547 Rises=F Damp=F
 DIIS: error= 6.92D-07 at cycle  12 NSaved=  12.
 NSaved=12 IEnMin=12 EnMin= -1136.10776246557     IErMin=12 ErrMin= 6.92D-07
 ErrMax= 6.92D-07  0.00D+00 EMaxC= 1.00D-01 BMatC= 1.48D-10 BMatP= 1.11D-09
 IDIUse=1 WtCom= 1.00D+00 WtEn= 0.00D+00
 Coeff-Com: -0.411D-04 0.514D-04-0.204D-03-0.153D-03 0.341D-03 0.470D-02
 Coeff-Com:  0.311D-02-0.110D-01-0.221D-01-0.111D+00 0.138D+00 0.998D+00
 Coeff:     -0.411D-04 0.514D-04-0.204D-03-0.153D-03 0.341D-03 0.470D-02
 Coeff:      0.311D-02-0.110D-01-0.221D-01-0.111D+00 0.138D+00 0.998D+00
 Gap=     0.049 Goal=   None    Shift=    0.000
 Gap=     0.054 Goal=   None    Shift=    0.000
 RMSDP=6.85D-06 MaxDP=8.24D-04 DE=-7.55D-09 OVMax= 9.82D-05

 Cycle  13  Pass 1  IDiag  1:
 E= -1136.10776246646     Delta-E=       -0.000000000893 Rises=F Damp=F
 DIIS: error= 2.77D-07 at cycle  13 NSaved=  13.
 NSaved=13 IEnMin=13 EnMin= -1136.10776246646     IErMin=13 ErrMin= 2.77D-07
 ErrMax= 2.77D-07  0.00D+00 EMaxC= 1.00D-01 BMatC= 3.23D-11 BMatP= 1.48D-10
 IDIUse=1 WtCom= 1.00D+00 WtEn= 0.00D+00
 Coeff-Com:  0.151D-04-0.203D-04-0.176D-03-0.546D-04-0.501D-03-0.167D-02
 Coeff-Com:  0.983D-03 0.140D-01 0.135D-01-0.521D-01-0.112D+00 0.226D+00
 Coeff-Com:  0.911D+00
 Coeff:      0.151D-04-0.203D-04-0.176D-03-0.546D-04-0.501D-03-0.167D-02
 Coeff:      0.983D-03 0.140D-01 0.135D-01-0.521D-01-0.112D+00 0.226D+00
 Coeff:      0.911D+00
 Gap=     0.049 Goal=   None    Shift=    0.000
 Gap=     0.054 Goal=   None    Shift=    0.000
 RMSDP=2.13D-06 MaxDP=2.56D-04 DE=-8.93D-10 OVMax= 2.97D-05

 Cycle  14  Pass 1  IDiag  1:
 E= -1136.10776246658     Delta-E=       -0.000000000126 Rises=F Damp=F
 DIIS: error= 1.53D-07 at cycle  14 NSaved=  14.
 NSaved=14 IEnMin=14 EnMin= -1136.10776246658     IErMin=14 ErrMin= 1.53D-07
 ErrMax= 1.53D-07  0.00D+00 EMaxC= 1.00D-01 BMatC= 7.48D-12 BMatP= 3.23D-11
 IDIUse=1 WtCom= 1.00D+00 WtEn= 0.00D+00
 Coeff-Com:  0.163D-04-0.210D-04 0.957D-05 0.229D-04-0.157D-03-0.153D-02
 Coeff-Com: -0.736D-03 0.576D-02 0.828D-02 0.210D-01-0.592D-01-0.213D+00
 Coeff-Com:  0.177D+00 0.106D+01
 Coeff:      0.163D-04-0.210D-04 0.957D-05 0.229D-04-0.157D-03-0.153D-02
 Coeff:     -0.736D-03 0.576D-02 0.828D-02 0.210D-01-0.592D-01-0.213D+00
 Coeff:      0.177D+00 0.106D+01
 Gap=     0.049 Goal=   None    Shift=    0.000
 Gap=     0.054 Goal=   None    Shift=    0.000
 RMSDP=1.10D-06 MaxDP=1.23D-04 DE=-1.26D-10 OVMax= 1.34D-05

 Cycle  15  Pass 1  IDiag  1:
 E= -1136.10776246663     Delta-E=       -0.000000000040 Rises=F Damp=F
 DIIS: error= 7.36D-08 at cycle  15 NSaved=  15.
 NSaved=15 IEnMin=15 EnMin= -1136.10776246663     IErMin=15 ErrMin= 7.36D-08
 ErrMax= 7.36D-08  0.00D+00 EMaxC= 1.00D-01 BMatC= 9.70D-13 BMatP= 7.48D-12
 IDIUse=1 WtCom= 1.00D+00 WtEn= 0.00D+00
 Coeff-Com: -0.778D-05 0.103D-04 0.258D-04 0.103D-05 0.110D-03 0.657D-03
 Coeff-Com:  0.134D-03-0.378D-02-0.451D-02 0.306D-02 0.360D-01 0.995D-02
 Coeff-Com: -0.182D+00-0.289D+00 0.143D+01
 Coeff:     -0.778D-05 0.103D-04 0.258D-04 0.103D-05 0.110D-03 0.657D-03
 Coeff:      0.134D-03-0.378D-02-0.451D-02 0.306D-02 0.360D-01 0.995D-02
 Coeff:     -0.182D+00-0.289D+00 0.143D+01
 Gap=     0.049 Goal=   None    Shift=    0.000
 Gap=     0.054 Goal=   None    Shift=    0.000
 RMSDP=3.89D-07 MaxDP=3.79D-05 DE=-4.02D-11 OVMax= 5.92D-06

 Cycle  16  Pass 1  IDiag  1:
 E= -1136.10776246664     Delta-E=       -0.000000000020 Rises=F Damp=F
 DIIS: error= 3.29D-08 at cycle  16 NSaved=  16.
 NSaved=16 IEnMin=16 EnMin= -1136.10776246664     IErMin=16 ErrMin= 3.29D-08
 ErrMax= 3.29D-08  0.00D+00 EMaxC= 1.00D-01 BMatC= 1.60D-13 BMatP= 9.70D-13
 IDIUse=1 WtCom= 1.00D+00 WtEn= 0.00D+00
 Coeff-Com: -0.841D-06 0.103D-05-0.380D-05-0.269D-05 0.683D-05 0.810D-04
 Coeff-Com:  0.785D-04-0.120D-03-0.219D-03-0.396D-02 0.938D-03 0.344D-01
 Coeff-Com: -0.309D-02-0.977D-01-0.242D+00 0.131D+01
 Coeff:     -0.841D-06 0.103D-05-0.380D-05-0.269D-05 0.683D-05 0.810D-04
 Coeff:      0.785D-04-0.120D-03-0.219D-03-0.396D-02 0.938D-03 0.344D-01
 Coeff:     -0.309D-02-0.977D-01-0.242D+00 0.131D+01
 Gap=     0.049 Goal=   None    Shift=    0.000
 Gap=     0.054 Goal=   None    Shift=    0.000
 RMSDP=1.31D-07 MaxDP=1.48D-05 DE=-1.98D-11 OVMax= 2.71D-06

 Cycle  17  Pass 1  IDiag  1:
 E= -1136.10776246664     Delta-E=        0.000000000005 Rises=F Damp=F
 DIIS: error= 1.58D-08 at cycle  17 NSaved=  17.
 NSaved=17 IEnMin=16 EnMin= -1136.10776246664     IErMin=17 ErrMin= 1.58D-08
 ErrMax= 1.58D-08  0.00D+00 EMaxC= 1.00D-01 BMatC= 4.32D-14 BMatP= 1.60D-13
 IDIUse=1 WtCom= 1.00D+00 WtEn= 0.00D+00
 Coeff-Com:  0.137D-05-0.184D-05-0.652D-05-0.141D-05-0.178D-04-0.906D-04
 Coeff-Com: -0.169D-04 0.669D-03 0.720D-03-0.101D-02-0.625D-02 0.200D-02
 Coeff-Com:  0.340D-01 0.461D-01-0.331D+00 0.276D+00 0.979D+00
 Coeff:      0.137D-05-0.184D-05-0.652D-05-0.141D-05-0.178D-04-0.906D-04
 Coeff:     -0.169D-04 0.669D-03 0.720D-03-0.101D-02-0.625D-02 0.200D-02
 Coeff:      0.340D-01 0.461D-01-0.331D+00 0.276D+00 0.979D+00
 Gap=     0.049 Goal=   None    Shift=    0.000
 Gap=     0.054 Goal=   None    Shift=    0.000
 RMSDP=4.34D-08 MaxDP=4.53D-06 DE= 4.55D-12 OVMax= 1.24D-06

 Cycle  18  Pass 1  IDiag  1:
 E= -1136.10776246662     Delta-E=        0.000000000021 Rises=F Damp=F
 DIIS: error= 6.95D-09 at cycle  18 NSaved=  18.
 NSaved=18 IEnMin=16 EnMin= -1136.10776246664     IErMin=18 ErrMin= 6.95D-09
 ErrMax= 6.95D-09  0.00D+00 EMaxC= 1.00D-01 BMatC= 1.04D-14 BMatP= 4.32D-14
 IDIUse=1 WtCom= 1.00D+00 WtEn= 0.00D+00
 Coeff-Com:  0.240D-06-0.295D-06-0.328D-06-0.276D-06-0.320D-05-0.218D-04
 Coeff-Com: -0.114D-04 0.564D-04 0.124D-03 0.813D-03-0.601D-03-0.810D-02
 Coeff-Com:  0.391D-02 0.177D-01 0.735D-01-0.385D+00 0.294D-01 0.127D+01
 Coeff:      0.240D-06-0.295D-06-0.328D-06-0.276D-06-0.320D-05-0.218D-04
 Coeff:     -0.114D-04 0.564D-04 0.124D-03 0.813D-03-0.601D-03-0.810D-02
 Coeff:      0.391D-02 0.177D-01 0.735D-01-0.385D+00 0.294D-01 0.127D+01
 Gap=     0.049 Goal=   None    Shift=    0.000
 Gap=     0.054 Goal=   None    Shift=    0.000
 RMSDP=2.34D-08 MaxDP=1.84D-06 DE= 2.14D-11 OVMax= 8.52D-07

 Cycle  19  Pass 1  IDiag  1:
 E= -1136.10776246663     Delta-E=       -0.000000000011 Rises=F Damp=F
 DIIS: error= 2.39D-09 at cycle  19 NSaved=  19.
 NSaved=19 IEnMin=16 EnMin= -1136.10776246664     IErMin=19 ErrMin= 2.39D-09
 ErrMax= 2.39D-09  0.00D+00 EMaxC= 1.00D-01 BMatC= 1.57D-15 BMatP= 1.04D-14
 IDIUse=1 WtCom= 1.00D+00 WtEn= 0.00D+00
 Large coefficients: NSaved= 19 BigCof=    0.00 CofMax=   10.00 Det=-1.73D-15
 Inversion failed.  Reducing to 18 matrices.
 Large coefficients: NSaved= 18 BigCof=    0.00 CofMax=   10.00 Det=-1.80D-15
 Inversion failed.  Reducing to 17 matrices.
 Large coefficients: NSaved= 17 BigCof=    0.00 CofMax=   10.00 Det=-1.83D-15
 Inversion failed.  Reducing to 16 matrices.
 Large coefficients: NSaved= 16 BigCof=    0.00 CofMax=   10.00 Det=-1.83D-15
 Inversion failed.  Reducing to 15 matrices.
 Coeff-Com: -0.409D-07-0.675D-06-0.129D-05-0.895D-05-0.116D-04 0.186D-03
 Coeff-Com:  0.162D-03-0.116D-02-0.308D-02 0.332D-02 0.246D-01-0.185D-01
 Coeff-Com: -0.146D+00-0.110D+00 0.125D+01
 Coeff:     -0.409D-07-0.675D-06-0.129D-05-0.895D-05-0.116D-04 0.186D-03
 Coeff:      0.162D-03-0.116D-02-0.308D-02 0.332D-02 0.246D-01-0.185D-01
 Coeff:     -0.146D+00-0.110D+00 0.125D+01
 Gap=     0.049 Goal=   None    Shift=    0.000
 Gap=     0.054 Goal=   None    Shift=    0.000
 RMSDP=1.31D-08 MaxDP=8.46D-07 DE=-1.09D-11 OVMax= 3.92D-07

 Cycle  20  Pass 1  IDiag  1:
 E= -1136.10776246664     Delta-E=       -0.000000000015 Rises=F Damp=F
 DIIS: error= 8.77D-10 at cycle  20 NSaved=  16.
 NSaved=16 IEnMin=12 EnMin= -1136.10776246664     IErMin=16 ErrMin= 8.77D-10
 ErrMax= 8.77D-10  0.00D+00 EMaxC= 1.00D-01 BMatC= 2.92D-16 BMatP= 1.57D-15
 IDIUse=1 WtCom= 1.00D+00 WtEn= 0.00D+00
 Large coefficients: NSaved= 16 BigCof=    0.00 CofMax=   10.00 Det=-4.15D-16
 Inversion failed.  Reducing to 15 matrices.
 Coeff-Com:  0.148D-05 0.270D-05 0.327D-05 0.175D-05-0.207D-03-0.393D-04
 Coeff-Com:  0.178D-02 0.180D-04-0.410D-02-0.164D-01 0.733D-01 0.308D-02
 Coeff-Com: -0.248D+00-0.150D-02 0.119D+01
 Coeff:      0.148D-05 0.270D-05 0.327D-05 0.175D-05-0.207D-03-0.393D-04
 Coeff:      0.178D-02 0.180D-04-0.410D-02-0.164D-01 0.733D-01 0.308D-02
 Coeff:     -0.248D+00-0.150D-02 0.119D+01
 Gap=     0.049 Goal=   None    Shift=    0.000
 Gap=     0.054 Goal=   None    Shift=    0.000
 RMSDP=7.81D-09 MaxDP=5.09D-07 DE=-1.50D-11 OVMax= 1.45D-07

 SCF Done:  E(UB3LYP) =  -1136.10776247     A.U. after   20 cycles
            NFock= 20  Conv=0.78D-08     -V/T= 2.0026
 <Sx>= 0.0000 <Sy>= 0.0000 <Sz>= 0.5000 <S**2>= 0.7606 S= 0.5053
 <L.S>= 0.000000000000E+00
 KE= 1.133186019842D+03 PE=-3.444769827761D+03 EE= 8.177796670876D+02
 Annihilation of the first spin contaminant:
 S**2 before annihilation     0.7606,   after     0.7501
 Leave Link  502 at Mon Nov 13 15:41:40 2023, MaxMem=  1879048192 cpu:             197.9 elap:              16.7
 (Enter /home/sekinelabo/g16/l601.exe)
 Copying SCF densities to generalized density rwf, IOpCl= 1 IROHF=0.

 **********************************************************************

            Population analysis using the SCF Density.

 **********************************************************************

 Orbital symmetries:
 Alpha Orbitals:
       Occupied  (A) (A) (A) (A) (A) (A) (A) (A) (A) (A) (A) (A)
                 (A) (A) (A) (A) (A) (A) (A) (A) (A) (A) (A) (A)
                 (A) (A) (A) (A) (A) (A) (A) (A) (A) (A) (A) (A)
                 (A) (A) (A)
       Virtual   (A) (A) (A) (A) (A) (A) (A) (A) (A) (A) (A) (A)
                 (A) (A) (A) (A) (A) (A) (A) (A) (A) (A) (A) (A)
                 (A) (A) (A) (A) (A) (A) (A) (A) (A) (A) (A) (A)
                 (A) (A) (A) (A) (A) (A) (A) (A) (A) (A) (A) (A)
                 (A) (A) (A) (A) (A) (A) (A) (A) (A) (A) (A) (A)
                 (A) (A) (A) (A) (A) (A) (A) (A) (A) (A) (A) (A)
                 (A) (A) (A) (A) (A) (A) (A) (A) (A) (A) (A) (A)
                 (A) (A) (A) (A) (A) (A) (A) (A) (A) (A) (A) (A)
                 (A) (A) (A) (A) (A) (A) (A) (A) (A) (A) (A) (A)
                 (A) (A) (A) (A) (A) (A) (A) (A) (A) (A) (A) (A)
                 (A) (A) (A) (A) (A) (A) (A) (A) (A) (A) (A) (A)
                 (A) (A) (A) (A) (A) (A) (A) (A) (A) (A) (A) (A)
                 (A) (A) (A) (A) (A) (A) (A) (A) (A) (A) (A) (A)
                 (A) (A) (A) (A) (A) (A) (A) (A) (A) (A) (A) (A)
                 (A) (A) (A)
 Beta  Orbitals:
       Occupied  (A) (A) (A) (A) (A) (A) (A) (A) (A) (A) (A) (A)
                 (A) (A) (A) (A) (A) (A) (A) (A) (A) (A) (A) (A)
                 (A) (A) (A) (A) (A) (A) (A) (A) (A) (A) (A) (A)
                 (A) (A)
       Virtual   (A) (A) (A) (A) (A) (A) (A) (A) (A) (A) (A) (A)
                 (A) (A) (A) (A) (A) (A) (A) (A) (A) (A) (A) (A)
                 (A) (A) (A) (A) (A) (A) (A) (A) (A) (A) (A) (A)
                 (A) (A) (A) (A) (A) (A) (A) (A) (A) (A) (A) (A)
                 (A) (A) (A) (A) (A) (A) (A) (A) (A) (A) (A) (A)
                 (A) (A) (A) (A) (A) (A) (A) (A) (A) (A) (A) (A)
                 (A) (A) (A) (A) (A) (A) (A) (A) (A) (A) (A) (A)
                 (A) (A) (A) (A) (A) (A) (A) (A) (A) (A) (A) (A)
                 (A) (A) (A) (A) (A) (A) (A) (A) (A) (A) (A) (A)
                 (A) (A) (A) (A) (A) (A) (A) (A) (A) (A) (A) (A)
                 (A) (A) (A) (A) (A) (A) (A) (A) (A) (A) (A) (A)
                 (A) (A) (A) (A) (A) (A) (A) (A) (A) (A) (A) (A)
                 (A) (A) (A) (A) (A) (A) (A) (A) (A) (A) (A) (A)
                 (A) (A) (A) (A) (A) (A) (A) (A) (A) (A) (A) (A)
                 (A) (A) (A) (A)
 The electronic state is 2-A.
 Alpha  occ. eigenvalues --  -38.44495 -38.44238 -38.44182 -38.44041 -38.43865
 Alpha  occ. eigenvalues --  -38.43411 -38.43368  -2.20391  -2.20245  -2.20165
 Alpha  occ. eigenvalues --   -2.20012  -2.19846  -2.19445  -2.19288  -1.14130
 Alpha  occ. eigenvalues --   -1.14062  -1.14050  -1.14005  -1.13950  -1.13876
 Alpha  occ. eigenvalues --   -1.13854  -1.13834  -1.13722  -1.13711  -1.13688
 Alpha  occ. eigenvalues --   -1.13629  -1.13516  -1.13487  -1.13466  -1.13111
 Alpha  occ. eigenvalues --   -1.13089  -1.13072  -1.12958  -1.12940  -1.12904
 Alpha  occ. eigenvalues --   -0.19272  -0.14287  -0.12617  -0.10829
 Alpha virt. eigenvalues --   -0.05951  -0.05294  -0.04633  -0.03941  -0.02774
 Alpha virt. eigenvalues --   -0.02168  -0.01414  -0.00613  -0.00275  -0.00136
 Alpha virt. eigenvalues --    0.00140   0.00424   0.00463   0.00820   0.00895
 Alpha virt. eigenvalues --    0.00941   0.01000   0.01166   0.01333   0.01353
 Alpha virt. eigenvalues --    0.01511   0.01586   0.01769   0.01880   0.02102
 Alpha virt. eigenvalues --    0.02344   0.02423   0.02632   0.02744   0.02823
 Alpha virt. eigenvalues --    0.02852   0.02882   0.02922   0.03014   0.03028
 Alpha virt. eigenvalues --    0.03127   0.03149   0.03342   0.03555   0.03716
 Alpha virt. eigenvalues --    0.04065   0.04497   0.04537   0.04640   0.05053
 Alpha virt. eigenvalues --    0.05376   0.05700   0.05875   0.05929   0.06106
 Alpha virt. eigenvalues --    0.06284   0.06581   0.06869   0.06992   0.07471
 Alpha virt. eigenvalues --    0.07550   0.07772   0.07988   0.08480   0.08791
 Alpha virt. eigenvalues --    0.08926   0.09524   0.09803   0.10768   0.10879
 Alpha virt. eigenvalues --    0.11331   0.12506   0.12707   0.13392   0.13731
 Alpha virt. eigenvalues --    0.14004   0.14443   0.14717   0.14788   0.14904
 Alpha virt. eigenvalues --    0.15761   0.16244   0.16566   0.17375   0.18180
 Alpha virt. eigenvalues --    0.24986   0.26479   0.26871   0.28738   0.29195
 Alpha virt. eigenvalues --    0.29869   0.30431   0.30599   0.31538   0.32869
 Alpha virt. eigenvalues --    0.33732   0.34600   0.36248   0.37246   0.37730
 Alpha virt. eigenvalues --    0.38047   0.39603   0.39865   0.40808   0.42021
 Alpha virt. eigenvalues --    0.43315   0.43689   0.44099   0.44816   0.45606
 Alpha virt. eigenvalues --    0.45834   0.46153   0.46504   0.46662   0.47009
 Alpha virt. eigenvalues --    0.47905   0.48118   0.48445   0.49309   0.50632
 Alpha virt. eigenvalues --    0.51572   0.51741   0.52380   0.52602   0.53221
 Alpha virt. eigenvalues --    0.54087   0.55296   0.55482   0.56001   0.58138
 Alpha virt. eigenvalues --    0.59908   0.64835   0.65203   0.67658   0.70160
 Alpha virt. eigenvalues --    0.71055   0.72713   0.75433   0.76527   0.78127
 Alpha virt. eigenvalues --    0.81006   2.09124   2.13869   2.15490   2.21317
 Alpha virt. eigenvalues --    2.23538   2.26433   2.31328   4.40536   4.40966
 Alpha virt. eigenvalues --    4.41861   4.42135   4.42944   4.43651   4.44397
 Alpha virt. eigenvalues --    4.44993   4.45823   4.46718   4.48222   4.51561
 Alpha virt. eigenvalues --    4.56491   4.60674   4.63387   4.64775   4.66232
 Alpha virt. eigenvalues --    4.70840   4.72859   4.74982   4.77673  96.29917
 Alpha virt. eigenvalues --   96.36278  96.38212  96.46538  96.49576  96.53266
 Alpha virt. eigenvalues --   96.59297
  Beta  occ. eigenvalues --  -38.44471 -38.44181 -38.44152 -38.44027 -38.43834
  Beta  occ. eigenvalues --  -38.43411 -38.43335  -2.20344  -2.20147  -2.20110
  Beta  occ. eigenvalues --   -2.19990  -2.19792  -2.19395  -2.19290  -1.14104
  Beta  occ. eigenvalues --   -1.14022  -1.14009  -1.13970  -1.13869  -1.13808
  Beta  occ. eigenvalues --   -1.13797  -1.13787  -1.13703  -1.13678  -1.13654
  Beta  occ. eigenvalues --   -1.13592  -1.13482  -1.13438  -1.13420  -1.13067
  Beta  occ. eigenvalues --   -1.13058  -1.12991  -1.12952  -1.12940  -1.12899
  Beta  occ. eigenvalues --   -0.18580  -0.14056  -0.12411
  Beta virt. eigenvalues --   -0.06976  -0.05776  -0.05111  -0.04274  -0.03521
  Beta virt. eigenvalues --   -0.02230  -0.01388  -0.01195  -0.00538  -0.00082
  Beta virt. eigenvalues --    0.00026   0.00234   0.00500   0.00586   0.00879
  Beta virt. eigenvalues --    0.00926   0.01006   0.01147   0.01257   0.01423
  Beta virt. eigenvalues --    0.01455   0.01645   0.01731   0.01883   0.01962
  Beta virt. eigenvalues --    0.02280   0.02378   0.02455   0.02659   0.02774
  Beta virt. eigenvalues --    0.02841   0.02927   0.02936   0.03001   0.03042
  Beta virt. eigenvalues --    0.03103   0.03177   0.03287   0.03404   0.03651
  Beta virt. eigenvalues --    0.03817   0.04179   0.04556   0.04696   0.04823
  Beta virt. eigenvalues --    0.05180   0.05436   0.05785   0.05958   0.06024
  Beta virt. eigenvalues --    0.06210   0.06460   0.06774   0.06956   0.07048
  Beta virt. eigenvalues --    0.07543   0.07653   0.07894   0.08061   0.08554
  Beta virt. eigenvalues --    0.08965   0.09072   0.09700   0.09937   0.11063
  Beta virt. eigenvalues --    0.11333   0.11557   0.12792   0.12973   0.13553
  Beta virt. eigenvalues --    0.13884   0.14357   0.14599   0.14861   0.14901
  Beta virt. eigenvalues --    0.15019   0.16077   0.16347   0.16760   0.17684
  Beta virt. eigenvalues --    0.18363   0.25203   0.26713   0.27209   0.28920
  Beta virt. eigenvalues --    0.29356   0.30080   0.30576   0.30929   0.31784
  Beta virt. eigenvalues --    0.33055   0.34136   0.34755   0.36404   0.37578
  Beta virt. eigenvalues --    0.37982   0.38352   0.40005   0.40198   0.41000
  Beta virt. eigenvalues --    0.42425   0.43495   0.43905   0.44213   0.45036
  Beta virt. eigenvalues --    0.45793   0.45927   0.46281   0.46623   0.46815
  Beta virt. eigenvalues --    0.47187   0.48076   0.48333   0.48591   0.49500
  Beta virt. eigenvalues --    0.50829   0.51766   0.51886   0.52555   0.52817
  Beta virt. eigenvalues --    0.53370   0.54212   0.55468   0.55665   0.56237
  Beta virt. eigenvalues --    0.58295   0.59953   0.64850   0.65291   0.67889
  Beta virt. eigenvalues --    0.70345   0.71231   0.72908   0.75556   0.76587
  Beta virt. eigenvalues --    0.78244   0.81038   2.09204   2.13962   2.15563
  Beta virt. eigenvalues --    2.21447   2.23710   2.26527   2.31408   4.40586
  Beta virt. eigenvalues --    4.41015   4.41932   4.42186   4.42985   4.43713
  Beta virt. eigenvalues --    4.44433   4.45032   4.45870   4.46725   4.48270
  Beta virt. eigenvalues --    4.51642   4.56568   4.60736   4.63415   4.64794
  Beta virt. eigenvalues --    4.66288   4.70872   4.72907   4.75014   4.77701
  Beta virt. eigenvalues --   96.29946  96.36310  96.38236  96.46573  96.49634
  Beta virt. eigenvalues --   96.53300  96.59327
          Condensed to atoms (all electrons):
               1          2          3          4          5          6
     1  Na  13.379420  -0.495705  -0.163511  -0.885835   1.247442  -1.937037
     2  Na  -0.495705  14.167255  -2.132925  -0.355425  -0.279531  -0.223170
     3  Na  -0.163511  -2.132925  13.382092  -0.286805   0.592440   0.324026
     4  Na  -0.885835  -0.355425  -0.286805  12.329904  -0.852289   1.035306
     5  Na   1.247442  -0.279531   0.592440  -0.852289  11.928725  -1.266231
     6  Na  -1.937037  -0.223170   0.324026   1.035306  -1.266231  12.861842
     7  Na  -0.328432  -0.006349  -0.522502   0.331474  -0.322246   0.453807
               7
     1  Na  -0.328432
     2  Na  -0.006349
     3  Na  -0.522502
     4  Na   0.331474
     5  Na  -0.322246
     6  Na   0.453807
     7  Na  11.097762
          Atomic-Atomic Spin Densities.
               1          2          3          4          5          6
     1  Na  -0.633757   0.544110   0.313014   0.232317  -0.202882   0.541979
     2  Na   0.544110   1.659375  -1.308604  -0.728389  -0.022137  -0.132546
     3  Na   0.313014  -1.308604   0.909466   0.353388   0.139086  -0.232999
     4  Na   0.232317  -0.728389   0.353388   0.315371   0.127786  -0.116745
     5  Na  -0.202882  -0.022137   0.139086   0.127786  -0.144513   0.155118
     6  Na   0.541979  -0.132546  -0.232999  -0.116745   0.155118  -0.325493
     7  Na  -0.083842   0.127879  -0.048365  -0.005954  -0.066212   0.021115
               7
     1  Na  -0.083842
     2  Na   0.127879
     3  Na  -0.048365
     4  Na  -0.005954
     5  Na  -0.066212
     6  Na   0.021115
     7  Na   0.005321
 Mulliken charges and spin densities:
               1          2
     1  Na   0.183658   0.710937
     2  Na   0.325850   0.139688
     3  Na  -0.192815   0.124985
     4  Na  -0.316329   0.177774
     5  Na  -0.048309  -0.013755
     6  Na  -0.248542  -0.089572
     7  Na   0.296487  -0.050058
 Sum of Mulliken charges =  -0.00000   1.00000
 Mulliken charges and spin densities with hydrogens summed into heavy atoms:
               1          2
     1  Na   0.183658   0.710937
     2  Na   0.325850   0.139688
     3  Na  -0.192815   0.124985
     4  Na  -0.316329   0.177774
     5  Na  -0.048309  -0.013755
     6  Na  -0.248542  -0.089572
     7  Na   0.296487  -0.050058
 Electronic spatial extent (au):  <R**2>=           2162.3287
 Charge=              0.0000 electrons
 Dipole moment (field-independent basis, Debye):
    X=              0.2581    Y=             -0.2872    Z=             -0.2709  Tot=              0.4717
 Quadrupole moment (field-independent basis, Debye-Ang):
   XX=            -58.6156   YY=            -69.3298   ZZ=            -69.7302
   XY=              0.9513   XZ=             -2.7410   YZ=              2.4054
 Traceless Quadrupole moment (field-independent basis, Debye-Ang):
   XX=              7.2763   YY=             -3.4380   ZZ=             -3.8384
   XY=              0.9513   XZ=             -2.7410   YZ=              2.4054
 Octapole moment (field-independent basis, Debye-Ang**2):
  XXX=             13.7516  YYY=              2.2301  ZZZ=              3.8368  XYY=              1.2797
  XXY=             -6.3560  XXZ=             -2.3530  XZZ=              0.1719  YZZ=             -4.3874
  YYZ=             -9.3273  XYZ=              4.2591
 Hexadecapole moment (field-independent basis, Debye-Ang**3):
 XXXX=          -1631.4988 YYYY=          -1356.6042 ZZZZ=           -726.0474 XXXY=            -27.2061
 XXXZ=            -71.2565 YYYX=             33.5272 YYYZ=              7.9792 ZZZX=            -30.5490
 ZZZY=             15.8784 XXYY=           -512.2403 XXZZ=           -358.4967 YYZZ=           -352.9424
 XXYZ=             34.8759 YYXZ=             14.0829 ZZXY=              8.2602
 N-N= 3.576963783647D+02 E-N=-3.444769827880D+03  KE= 1.133186019842D+03
                          Isotropic Fermi Contact Couplings
        Atom                 a.u.       MegaHertz       Gauss      10(-4) cm-1
     1  Na(23)             0.04085      48.32911      17.24503      16.12086
     2  Na(23)             0.20417     241.53440      86.18548      80.56720
     3  Na(23)             0.09126     107.96315      38.52394      36.01263
     4  Na(23)             0.10214     120.82899      43.11479      40.30421
     5  Na(23)            -0.02130     -25.19839      -8.99141      -8.40528
     6  Na(23)             0.02475      29.28417      10.44932       9.76815
     7  Na(23)             0.10850     128.35511      45.80029      42.81466
 --------------------------------------------------------
       Center         ----  Spin Dipole Couplings  ----
                      3XX-RR        3YY-RR        3ZZ-RR
 --------------------------------------------------------
     1   Atom       -0.025298     -0.023007      0.048306
     2   Atom        0.017870     -0.012472     -0.005398
     3   Atom       -0.013977     -0.004606      0.018583
     4   Atom       -0.012003     -0.009032      0.021035
     5   Atom       -0.007859     -0.006295      0.014154
     6   Atom        0.006173     -0.018278      0.012105
     7   Atom        0.001778     -0.000627     -0.001150
 --------------------------------------------------------
                        XY            XZ            YZ
 --------------------------------------------------------
     1   Atom       -0.015689     -0.041469      0.033961
     2   Atom       -0.004815      0.023301     -0.005336
     3   Atom       -0.001649      0.001299     -0.022120
     4   Atom       -0.000731     -0.000243      0.015528
     5   Atom        0.000641      0.008419     -0.001138
     6   Atom        0.004906     -0.021657     -0.000830
     7   Atom        0.000953      0.005077     -0.000599
 --------------------------------------------------------


 ---------------------------------------------------------------------------------
              Anisotropic Spin Dipole Couplings in Principal Axis System
 ---------------------------------------------------------------------------------

       Atom             a.u.   MegaHertz   Gauss  10(-4) cm-1        Axes

              Baa    -0.0440    -6.208    -2.215    -2.071  0.9174  0.0461  0.3953
     1 Na(23) Bbb    -0.0365    -5.156    -1.840    -1.720  0.0948  0.9393 -0.3297
              Bcc     0.0805    11.364     4.055     3.791 -0.3866  0.3400  0.8573
 
              Baa    -0.0204    -2.878    -1.027    -0.960 -0.4747  0.2750  0.8361
     2 Na(23) Bbb    -0.0129    -1.827    -0.652    -0.610  0.2692  0.9498 -0.1596
              Bcc     0.0333     4.706     1.679     1.570  0.8380 -0.1493  0.5249
 
              Baa    -0.0181    -2.559    -0.913    -0.854  0.1788  0.8455  0.5032
     3 Na(23) Bbb    -0.0139    -1.967    -0.702    -0.656  0.9830 -0.1313 -0.1286
              Bcc     0.0320     4.525     1.615     1.510  0.0427 -0.5176  0.8545
 
              Baa    -0.0157    -2.217    -0.791    -0.740  0.1546  0.9104 -0.3838
     4 Na(23) Bbb    -0.0119    -1.683    -0.601    -0.561  0.9879 -0.1374  0.0720
              Bcc     0.0276     3.900     1.392     1.301 -0.0128  0.3903  0.9206
 
              Baa    -0.0109    -1.541    -0.550    -0.514  0.9245 -0.2072 -0.3199
     5 Na(23) Bbb    -0.0061    -0.865    -0.308    -0.288  0.2081  0.9776 -0.0315
              Bcc     0.0170     2.406     0.859     0.803  0.3193 -0.0374  0.9469
 
              Baa    -0.0199    -2.816    -1.005    -0.939 -0.3460  0.9144 -0.2101
     6 Na(23) Bbb    -0.0114    -1.603    -0.572    -0.535  0.6672  0.3973  0.6300
              Bcc     0.0313     4.420     1.577     1.474 -0.6596 -0.0778  0.7476
 
              Baa    -0.0052    -0.736    -0.263    -0.246 -0.5925  0.2242  0.7737
     7 Na(23) Bbb    -0.0004    -0.058    -0.021    -0.019  0.0829  0.9724 -0.2182
              Bcc     0.0056     0.794     0.283     0.265  0.8013  0.0652  0.5948
 

 ---------------------------------------------------------------------------------

 No NMR shielding tensors so no spin-rotation constants.
 Leave Link  601 at Mon Nov 13 15:41:40 2023, MaxMem=  1879048192 cpu:               2.7 elap:               0.2
 (Enter /home/sekinelabo/g16/l701.exe)
 ... and contract with generalized density number  0.
 Compute integral first derivatives.
 Leave Link  701 at Mon Nov 13 15:41:41 2023, MaxMem=  1879048192 cpu:               1.7 elap:               0.1
 (Enter /home/sekinelabo/g16/l702.exe)
 L702 exits ... SP integral derivatives will be done elsewhere.
 Leave Link  702 at Mon Nov 13 15:41:41 2023, MaxMem=  1879048192 cpu:               0.5 elap:               0.0
 (Enter /home/sekinelabo/g16/l703.exe)
 Integral derivatives from FoFJK, PRISM(SPDF).
 Compute integral first derivatives, UseDBF=F ICtDFT=           0.
 Calling FoFJK, ICntrl=      2127 FMM=F ISym2X=0 I1Cent= 0 IOpClX= 1 NMat=1 NMatS=1 NMatT=0.
 FoFJK:  IHMeth= 1 ICntrl=    2127 DoSepK=F KAlg= 0 I1Cent=           0 FoldK=F
 IRaf=         0 NMat=       1 IRICut=       1 DoRegI=T DoRafI=F ISym2E= 0 IDoP0=0 IntGTp=1.
 FoFCou: FMM=F IPFlag=           0 FMFlag=      100000 FMFlg1=         800
         NFxFlg=           0 DoJE=F BraDBF=F KetDBF=F FulRan=T
         wScrn=  0.000000 ICntrl=      2127 IOpCl=  1 I1Cent=           0 NGrid=           0
         NMat0=    1 NMatS0=      1 NMatT0=    0 NMatD0=    1 NMtDS0=    0 NMtDT0=    0
 Symmetry not used in FoFCou.
 Leave Link  703 at Mon Nov 13 15:41:43 2023, MaxMem=  1879048192 cpu:              36.0 elap:               2.3
 (Enter /home/sekinelabo/g16/l716.exe)
 Dipole        = 1.01550031D-01-1.12998682D-01-1.06571154D-01
 ***** Axes restored to original set *****
 -------------------------------------------------------------------
 Center     Atomic                   Forces (Hartrees/Bohr)
 Number     Number              X              Y              Z
 -------------------------------------------------------------------
      1       11          -0.002282863    0.008024925    0.005263004
      2       11           0.003268966   -0.002245102    0.013350964
      3       11           0.002658226    0.009720757   -0.010321602
      4       11           0.003717121   -0.006710269   -0.006647152
      5       11           0.000010467   -0.006500442   -0.000954188
      6       11          -0.002539485   -0.005741784    0.006972153
      7       11          -0.004832432    0.003451915   -0.007663178
 -------------------------------------------------------------------
 Cartesian Forces:  Max     0.013350964 RMS     0.006277684
 Z-matrix is all fixed cartesians, so copy forces.
 Force constants in Cartesian coordinates: 
                1             2             3             4             5 
      1  0.114820D+00
      2 -0.725225D-02  0.116147D+00
      3  0.209046D-02  0.147029D-01  0.922607D-01
      4 -0.326770D-01  0.692797D-02 -0.227005D-01  0.531578D-01
      5  0.136584D-01 -0.295499D-01  0.400409D-02 -0.952030D-02  0.528360D-01
      6  0.223494D-02 -0.877993D-02 -0.222450D-01  0.157247D-01 -0.247071D-02
      7 -0.283731D-01 -0.123881D-01  0.188872D-01 -0.615719D-02  0.783001D-02
      8  0.848670D-02 -0.218952D-01 -0.773612D-02 -0.118629D-02 -0.143247D-01
      9  0.938995D-02  0.727576D-02 -0.311083D-01  0.520836D-02  0.247338D-01
     10 -0.975399D-03  0.102737D-01  0.554135D-02 -0.122729D-01 -0.376216D-02
     11  0.225957D-03 -0.819666D-03 -0.258099D-02  0.412350D-02 -0.166845D-01
     12  0.546556D-03 -0.350821D-02  0.246531D-02  0.824445D-02 -0.226030D-01
     13  0.390639D-02 -0.235904D-02 -0.220729D-02  0.938858D-03  0.535186D-03
     14  0.443691D-02 -0.279325D-02 -0.270656D-02 -0.298947D-02 -0.188614D-02
     15 -0.853307D-03  0.547898D-03  0.726694D-03 -0.542370D-02 -0.364947D-02
     16 -0.272106D-01 -0.257825D-02  0.101834D-01 -0.272491D-02 -0.614531D-02
     17 -0.800824D-02 -0.415137D-01  0.890042D-02  0.145979D-02  0.332934D-02
     18  0.645409D-03 -0.898194D-02 -0.127170D-01 -0.108007D-02 -0.185540D-02
     19 -0.294908D-01  0.737589D-02 -0.117946D-01 -0.264666D-03 -0.259580D-02
     20 -0.115474D-01 -0.195751D-01 -0.145837D-01  0.118479D-02  0.627989D-02
     21 -0.140540D-01 -0.125646D-02 -0.293824D-01  0.267826D-04  0.184066D-02
                6             7             8             9            10 
      6  0.951296D-01
      7 -0.999043D-02  0.504195D-01
      8  0.941621D-02  0.288511D-03  0.755536D-01
      9 -0.406659D-01 -0.160272D-01 -0.252262D-01  0.745077D-01
     10 -0.559298D-02 -0.174168D-01 -0.237584D-02  0.709342D-02  0.638792D-01
     11 -0.336298D-02  0.102342D-01 -0.420919D-01 -0.868419D-02 -0.354641D-02
     12 -0.371397D-01  0.281399D-02  0.173541D-01 -0.980512D-02 -0.208699D-01
     13 -0.326410D-03  0.458342D-02  0.596939D-03 -0.827828D-03 -0.306667D-01
     14  0.106366D-02 -0.616312D-02 -0.785129D-03  0.118792D-02  0.220892D-02
     15  0.198279D-02 -0.209442D-03  0.173843D-04  0.295025D-03  0.132745D-01
     16  0.403429D-03 -0.395653D-03 -0.492262D-02 -0.115656D-02 -0.249198D-02
     17 -0.167098D-03  0.284557D-03  0.320807D-02  0.787578D-03 -0.279829D-02
     18  0.715793D-03  0.712494D-03  0.501003D-02  0.151421D-02  0.520535D-03
     19 -0.245321D-02 -0.266015D-02 -0.887406D-03 -0.368017D-02 -0.554422D-04
     20  0.430086D-02 -0.861435D-04  0.335217D-03 -0.746591D-04  0.000000D+00
     21  0.222239D-02  0.381335D-02  0.116456D-02  0.526242D-02  0.330499D-04
               11            12            13            14            15 
     11  0.813733D-01
     12  0.125991D-01  0.554896D-01
     13 -0.149640D-01  0.711794D-02  0.447111D-01
     14 -0.262358D-01 -0.614432D-02  0.307162D-02  0.591267D-01
     15  0.261628D-02 -0.108351D-01 -0.162860D-01  0.830527D-02  0.213623D-01
     16  0.395681D-02  0.218470D-02 -0.231689D-01 -0.276983D-02  0.132936D-01
     17  0.448165D-02  0.225758D-02  0.127989D-01 -0.258916D-01 -0.106445D-01
     18 -0.662892D-03 -0.106485D-03  0.120282D-01  0.106379D-02 -0.184812D-01
     19 -0.301363D-04 -0.377125D-04 -0.304148D-03  0.220497D-02 -0.379569D-02
     20 -0.230989D-04  0.446805D-04  0.320339D-03 -0.153473D-02  0.280718D-02
     21  0.756704D-04 -0.685045D-04  0.501391D-03 -0.276976D-02  0.494945D-02
               16            17            18            19            20 
     16  0.657449D-01
     17 -0.288996D-02  0.793961D-01
     18 -0.136170D-01 -0.141647D-01  0.559761D-01
     19 -0.975296D-02 -0.846791D-03  0.790414D-03  0.425281D-01
     20  0.153492D-01 -0.230098D-01  0.195911D-01 -0.522072D-02  0.375276D-01
     21 -0.112916D-01  0.130308D-01 -0.269014D-01  0.209710D-01 -0.120855D-01
               21 
     21  0.439181D-01
 Leave Link  716 at Mon Nov 13 15:41:43 2023, MaxMem=  1879048192 cpu:               0.4 elap:               0.0
 (Enter /home/sekinelabo/g16/l103.exe)

 GradGradGradGradGradGradGradGradGradGradGradGradGradGradGradGradGradGrad
 Berny optimization.
 Search for a local minimum.
 Step number   1 out of a maximum of    2
 All quantities printed in internal units (Hartrees-Bohrs-Radians)
 Second derivative matrix not updated -- first step.
 ITU=  0
     Eigenvalues ---    0.01303   0.02359   0.03193   0.04142   0.05267
     Eigenvalues ---    0.07147   0.07340   0.09437   0.11041   0.11579
     Eigenvalues ---    0.12382   0.14088   0.14928   0.16242   0.17080
 Quadratic step=3.323D-01 exceeds max=3.000D-01 adjusted using Lamda=-6.492D-03.
 Angle between NR and scaled steps=   3.45 degrees.
 Angle between quadratic step and forces=  24.79 degrees.
 Linear search not attempted -- first point.
 B after Tr=    -0.000000    0.000000    0.000000
         Rot=    1.000000    0.000000   -0.000000    0.000000 Ang=   0.00 deg.
 Variable       Old X    -DE/DX   Delta X   Delta X   Delta X     New X
                                 (Linear)    (Quad)   (Total)
    X1        4.57155  -0.00228   0.00000  -0.02659  -0.02659   4.54496
    Y1        8.54672   0.00802   0.00000   0.07965   0.07965   8.62637
    Z1        3.37826   0.00526   0.00000   0.04425   0.04425   3.42250
    X2        9.57920   0.00327   0.00000   0.05441   0.05441   9.63361
    Y2        6.45917  -0.00225   0.00000   0.00044   0.00044   6.45961
    Z2        5.04689   0.01335   0.00000   0.08709   0.08709   5.13398
    X3        9.10735   0.00266   0.00000   0.05738   0.05738   9.16473
    Y3        8.95993   0.00972   0.00000   0.10554   0.10554   9.06547
    Z3        0.00000  -0.01032   0.00000  -0.04855  -0.04855  -0.04855
    X4        9.87696   0.00372   0.00000   0.05093   0.05093   9.92789
    Y4        3.35028  -0.00671   0.00000  -0.05512  -0.05512   3.29516
    Z4        0.31137  -0.00665   0.00000  -0.07954  -0.07954   0.23183
    X5        5.42516   0.00001   0.00000   0.00614   0.00614   5.43130
    Y5        0.00000  -0.00650   0.00000  -0.13587  -0.13587  -0.13587
    Z5        1.38851  -0.00095   0.00000   0.00937   0.00937   1.39788
    X6        1.77860  -0.00254   0.00000  -0.06113  -0.06113   1.71746
    Y6        3.62383  -0.00574   0.00000  -0.04333  -0.04333   3.58050
    Z6        3.78584   0.00697   0.00000   0.05882   0.05882   3.84465
    X7        0.00000  -0.00483   0.00000  -0.08113  -0.08113  -0.08113
    Y7        7.59808   0.00345   0.00000   0.04869   0.04869   7.64676
    Z7        0.16777  -0.00766   0.00000  -0.07142  -0.07142   0.09635
         Item               Value     Threshold  Converged?
 Maximum Force            0.013351     0.000450     NO 
 RMS     Force            0.006278     0.000300     NO 
 Maximum Displacement     0.135868     0.001800     NO 
 RMS     Displacement     0.065471     0.001200     NO 
 Predicted change in Energy=-4.210092D-03
 GradGradGradGradGradGradGradGradGradGradGradGradGradGradGradGradGradGrad

 Leave Link  103 at Mon Nov 13 15:41:43 2023, MaxMem=  1879048192 cpu:               0.3 elap:               0.0
 (Enter /home/sekinelabo/g16/l9999.exe)
 1\1\GINC-SEKINELABO-XA7R-R37\Force\UB3LYP\6-311+G(d)\Na7(2)\SEKINELABO
 \13-Nov-2023\0\\#P B3LYP/6-311+g(d) force\\Gaussian input prepared by 
 ASE\\0,2\Na,2.419158064,4.5227315005,1.7876967448\Na,5.0690943876,3.41
 80455782,2.6707013047\Na,4.8194014328,4.7413884145,0.\Na,5.2266636388,
 1.7728895069,0.1647699414\Na,2.8708711231,0.,0.7347654187\Na,0.9411920
 834,1.9176468953,2.0033783221\Na,0.,4.0207300868,0.088782589\\Version=
 ES64L-G16RevB.01\State=2-A\HF=-1136.1077625\S2=0.760569\S2-1=0.\S2A=0.
 750069\RMSD=7.811e-09\RMSF=6.278e-03\Dipole=-0.10155,0.1129987,-0.1065
 712\Quadrupole=5.4097623,-2.556041,-2.8537214,0.7072891,2.0378684,-1.7
 883632\PG=C01 [X(Na7)]\\@


 OF ALL THE WONDERS OF THE UNIVERSE, THE GREATEST IS MAN.

                                    -- ARISTOTLE
 Job cpu time:       0 days  0 hours  4 minutes 11.6 seconds.
 Elapsed time:       0 days  0 hours  0 minutes 20.2 seconds.
 File lengths (MBytes):  RWF=     32 Int=      0 D2E=      0 Chk=      5 Scr=      1
 Normal termination of Gaussian 16 at Mon Nov 13 15:41:43 2023.
