 Entering Gaussian System, Link 0=g16
 Initial command:
 /home/sekinelabo/g16/l1.exe "/home/sekinelabo/g16temp/Gau-4064349.inp" -scrdir="/home/sekinelabo/g16temp/"
 Entering Link 1 = /home/sekinelabo/g16/l1.exe PID=   4064351.
  
 Copyright (c) 1988-2017, Gaussian, Inc.  All Rights Reserved.
  
 This is part of the Gaussian(R) 16 program.  It is based on
 the Gaussian(R) 09 system (copyright 2009, Gaussian, Inc.),
 the Gaussian(R) 03 system (copyright 2003, Gaussian, Inc.),
 the Gaussian(R) 98 system (copyright 1998, Gaussian, Inc.),
 the Gaussian(R) 94 system (copyright 1995, Gaussian, Inc.),
 the Gaussian 92(TM) system (copyright 1992, Gaussian, Inc.),
 the Gaussian 90(TM) system (copyright 1990, Gaussian, Inc.),
 the Gaussian 88(TM) system (copyright 1988, Gaussian, Inc.),
 the Gaussian 86(TM) system (copyright 1986, Carnegie Mellon
 University), and the Gaussian 82(TM) system (copyright 1983,
 Carnegie Mellon University). Gaussian is a federally registered
 trademark of Gaussian, Inc.
  
 This software contains proprietary and confidential information,
 including trade secrets, belonging to Gaussian, Inc.
  
 This software is provided under written license and may be
 used, copied, transmitted, or stored only in accord with that
 written license.
  
 The following legend is applicable only to US Government
 contracts under FAR:
  
                    RESTRICTED RIGHTS LEGEND
  
 Use, reproduction and disclosure by the US Government is
 subject to restrictions as set forth in subparagraphs (a)
 and (c) of the Commercial Computer Software - Restricted
 Rights clause in FAR 52.227-19.
  
 Gaussian, Inc.
 340 Quinnipiac St., Bldg. 40, Wallingford CT 06492
  
  
 ---------------------------------------------------------------
 Warning -- This program may not be used in any manner that
 competes with the business of Gaussian, Inc. or will provide
 assistance to any competitor of Gaussian, Inc.  The licensee
 of this program is prohibited from giving any competitor of
 Gaussian, Inc. access to this program.  By using this program,
 the user acknowledges that Gaussian, Inc. is engaged in the
 business of creating and licensing software in the field of
 computational chemistry and represents and warrants to the
 licensee that it is not a competitor of Gaussian, Inc. and that
 it will not use this program in any manner prohibited above.
 ---------------------------------------------------------------
  

 Cite this work as:
 Gaussian 16, Revision B.01,
 M. J. Frisch, G. W. Trucks, H. B. Schlegel, G. E. Scuseria, 
 M. A. Robb, J. R. Cheeseman, G. Scalmani, V. Barone, 
 G. A. Petersson, H. Nakatsuji, X. Li, M. Caricato, A. V. Marenich, 
 J. Bloino, B. G. Janesko, R. Gomperts, B. Mennucci, H. P. Hratchian, 
 J. V. Ortiz, A. F. Izmaylov, J. L. Sonnenberg, D. Williams-Young, 
 F. Ding, F. Lipparini, F. Egidi, J. Goings, B. Peng, A. Petrone, 
 T. Henderson, D. Ranasinghe, V. G. Zakrzewski, J. Gao, N. Rega, 
 G. Zheng, W. Liang, M. Hada, M. Ehara, K. Toyota, R. Fukuda, 
 J. Hasegawa, M. Ishida, T. Nakajima, Y. Honda, O. Kitao, H. Nakai, 
 T. Vreven, K. Throssell, J. A. Montgomery, Jr., J. E. Peralta, 
 F. Ogliaro, M. J. Bearpark, J. J. Heyd, E. N. Brothers, K. N. Kudin, 
 V. N. Staroverov, T. A. Keith, R. Kobayashi, J. Normand, 
 K. Raghavachari, A. P. Rendell, J. C. Burant, S. S. Iyengar, 
 J. Tomasi, M. Cossi, J. M. Millam, M. Klene, C. Adamo, R. Cammi, 
 J. W. Ochterski, R. L. Martin, K. Morokuma, O. Farkas, 
 J. B. Foresman, and D. J. Fox, Gaussian, Inc., Wallingford CT, 2016.
 
 ******************************************
 Gaussian 16:  ES64L-G16RevB.01 20-Dec-2017
                13-Nov-2023 
 ******************************************
 %mem=14GB
 %chk=checkpoint.chk
 %nprocshared=16
 Will use up to   16 processors via shared memory.
 -------------------------
 #P B3LYP/6-311+g(d) force
 -------------------------
 1/10=7,30=1,38=1/1,3;
 2/12=2,17=6,18=5,40=1/2;
 3/5=4,6=6,7=11,11=2,25=1,30=1,71=1,74=-5/1,2,3;
 4//1;
 5/5=2,38=5/2;
 6/7=2,8=2,9=2,10=2,28=1/1;
 7/29=1/1,2,3,16;
 1/10=7,30=1/3;
 99//99;
 Leave Link    1 at Mon Nov 13 16:54:47 2023, MaxMem=  1879048192 cpu:               0.3 elap:               0.0
 (Enter /home/sekinelabo/g16/l101.exe)
 ------------------------------
 Gaussian input prepared by ASE
 ------------------------------
 Symbolic Z-matrix:
 Charge =  0 Multiplicity = 2
 Na                    2.68565   3.53419   1.14079 
 Na                    2.38812   1.35646   3.15603 
 Na                    4.90748   1.93068   1.9421 
 Na                    2.98      0.60294   0.31323 
 Na                    0.40143   0.        1.85139 
 Na                    0.        2.98028   2.58276 
 Na                    0.53257   2.30582   0. 
 
 ITRead=  0  0  0  0  0  0  0
 MicOpt= -1 -1 -1 -1 -1 -1 -1
 NAtoms=      7 NQM=        7 NQMF=       0 NMMI=      0 NMMIF=      0
                NMic=       0 NMicF=      0.
                    Isotopes and Nuclear Properties:
 (Nuclear quadrupole moments (NQMom) in fm**2, nuclear magnetic moments (NMagM)
  in nuclear magnetons)

  Atom         1           2           3           4           5           6           7
 IAtWgt=          23          23          23          23          23          23          23
 AtmWgt=  22.9897697  22.9897697  22.9897697  22.9897697  22.9897697  22.9897697  22.9897697
 NucSpn=           3           3           3           3           3           3           3
 AtZEff=  -0.0000000  -0.0000000  -0.0000000  -0.0000000  -0.0000000  -0.0000000  -0.0000000
 NQMom=   10.4000000  10.4000000  10.4000000  10.4000000  10.4000000  10.4000000  10.4000000
 NMagM=    2.2175200   2.2175200   2.2175200   2.2175200   2.2175200   2.2175200   2.2175200
 AtZNuc=  11.0000000  11.0000000  11.0000000  11.0000000  11.0000000  11.0000000  11.0000000
 Leave Link  101 at Mon Nov 13 16:54:47 2023, MaxMem=  1879048192 cpu:               2.7 elap:               0.2
 (Enter /home/sekinelabo/g16/l103.exe)

 GradGradGradGradGradGradGradGradGradGradGradGradGradGradGradGradGradGrad
 Berny optimization.
 Initialization pass.
 Trust Radius=3.00D-01 FncErr=1.00D-07 GrdErr=1.00D-07 EigMax=2.50D+02 EigMin=1.00D-04
 Number of steps in this run=      2 maximum allowed number of steps=      2.
 GradGradGradGradGradGradGradGradGradGradGradGradGradGradGradGradGradGrad

 Leave Link  103 at Mon Nov 13 16:54:47 2023, MaxMem=  1879048192 cpu:               0.2 elap:               0.0
 (Enter /home/sekinelabo/g16/l202.exe)
                          Input orientation:                          
 ---------------------------------------------------------------------
 Center     Atomic      Atomic             Coordinates (Angstroms)
 Number     Number       Type             X           Y           Z
 ---------------------------------------------------------------------
      1         11           0        2.685652    3.534189    1.140789
      2         11           0        2.388125    1.356456    3.156030
      3         11           0        4.907483    1.930684    1.942098
      4         11           0        2.980001    0.602936    0.313228
      5         11           0        0.401430    0.000000    1.851392
      6         11           0        0.000000    2.980277    2.582756
      7         11           0        0.532565    2.305822    0.000000
 ---------------------------------------------------------------------
                    Distance matrix (angstroms):
                    1          2          3          4          5
     1  Na   0.000000
     2  Na   2.981986   0.000000
     3  Na   2.854796   2.854914   0.000000
     4  Na   3.060023   2.999938   2.851546   0.000000
     5  Na   4.267683   2.736605   4.903089   3.062435   0.000000
     6  Na   3.098195   2.944245   5.059197   4.436542   3.094849
     7  Na   2.728748   3.782185   4.801289   2.997978   2.960011
                    6          7
     6  Na   0.000000
     7  Na   2.721974   0.000000
 Stoichiometry    Na7(2)
 Framework group  C1[X(Na7)]
 Deg. of freedom    15
 Full point group                 C1      NOp   1
 Largest Abelian subgroup         C1      NOp   1
 Largest concise Abelian subgroup C1      NOp   1
                         Standard orientation:                         
 ---------------------------------------------------------------------
 Center     Atomic      Atomic             Coordinates (Angstroms)
 Number     Number       Type             X           Y           Z
 ---------------------------------------------------------------------
      1         11           0        0.700615   -1.718423    0.428681
      2         11           0        0.403088    0.459310   -1.586559
      3         11           0        2.922447   -0.114918   -0.372628
      4         11           0        0.994965    1.212830    1.256242
      5         11           0       -1.583607    1.815766   -0.281922
      6         11           0       -1.985036   -1.164511   -1.013285
      7         11           0       -1.452471   -0.490056    1.569471
 ---------------------------------------------------------------------
 Rotational constants (GHZ):           1.2540985           0.8224243           0.7772382
 Leave Link  202 at Mon Nov 13 16:54:47 2023, MaxMem=  1879048192 cpu:               0.0 elap:               0.0
 (Enter /home/sekinelabo/g16/l301.exe)
 Standard basis: 6-311+G(d) (5D, 7F)
 Ernie: Thresh=  0.10000D-02 Tol=  0.10000D-05 Strict=F.
 There are   217 symmetry adapted cartesian basis functions of A   symmetry.
 There are   210 symmetry adapted basis functions of A   symmetry.
   210 basis functions,   350 primitive gaussians,   217 cartesian basis functions
    39 alpha electrons       38 beta electrons
       nuclear repulsion energy       413.8586409464 Hartrees.
 IExCor=  402 DFT=T Ex+Corr=B3LYP ExCW=0 ScaHFX=  0.200000
 ScaDFX=  0.800000  0.720000  1.000000  0.810000 ScalE2=  1.000000  1.000000
 IRadAn=      5 IRanWt=     -1 IRanGd=            0 ICorTp=0 IEmpDi=  4
 NAtoms=    7 NActive=    7 NUniq=    7 SFac= 1.00D+00 NAtFMM=   60 NAOKFM=F Big=F
 Integral buffers will be    131072 words long.
 Raffenetti 2 integral format.
 Two-electron integral symmetry is turned on.
 Leave Link  301 at Mon Nov 13 16:54:47 2023, MaxMem=  1879048192 cpu:               0.5 elap:               0.0
 (Enter /home/sekinelabo/g16/l302.exe)
 NPDir=0 NMtPBC=     1 NCelOv=     1 NCel=       1 NClECP=     1 NCelD=      1
         NCelK=      1 NCelE2=     1 NClLst=     1 CellRange=     0.0.
 One-electron integrals computed using PRISM.
 One-electron integral symmetry used in STVInt
 NBasis=   210 RedAO= T EigKep=  1.93D-06  NBF=   210
 NBsUse=   210 1.00D-06 EigRej= -1.00D+00 NBFU=   210
 Precomputing XC quadrature grid using
 IXCGrd= 4 IRadAn=           5 IRanWt=          -1 IRanGd=           0 AccXCQ= 0.00D+00.
 Generated NRdTot=       0 NPtTot=           0 NUsed=           0 NTot=          32
 NSgBfM=   211   211   211   211   211 MxSgAt=     7 MxSgA2=     7.
 Leave Link  302 at Mon Nov 13 16:54:47 2023, MaxMem=  1879048192 cpu:               2.2 elap:               0.1
 (Enter /home/sekinelabo/g16/l303.exe)
 DipDrv:  MaxL=1.
 Leave Link  303 at Mon Nov 13 16:54:47 2023, MaxMem=  1879048192 cpu:               1.3 elap:               0.1
 (Enter /home/sekinelabo/g16/l401.exe)
 ExpMin= 7.60D-03 ExpMax= 3.62D+04 ExpMxC= 1.21D+03 IAcc=3 IRadAn=         5 AccDes= 0.00D+00
 Harris functional with IExCor=  402 and IRadAn=       5 diagonalized for initial guess.
 HarFok:  IExCor=  402 AccDes= 0.00D+00 IRadAn=         5 IDoV= 1 UseB2=F ITyADJ=14
 ICtDFT=  3500011 ScaDFX=  1.000000  1.000000  1.000000  1.000000
 FoFCou: FMM=F IPFlag=           0 FMFlag=      100000 FMFlg1=           0
         NFxFlg=           0 DoJE=T BraDBF=F KetDBF=T FulRan=T
         wScrn=  0.000000 ICntrl=       500 IOpCl=  0 I1Cent=   200000004 NGrid=           0
         NMat0=    1 NMatS0=      1 NMatT0=    0 NMatD0=    1 NMtDS0=    0 NMtDT0=    0
 Petite list used in FoFCou.
 Harris En= -1135.85222926415    
 JPrj=0 DoOrth=F DoCkMO=F.
 Initial guess <Sx>= 0.0000 <Sy>= 0.0000 <Sz>= 0.5000 <S**2>= 0.7500 S= 0.5000
 Leave Link  401 at Mon Nov 13 16:54:48 2023, MaxMem=  1879048192 cpu:               4.7 elap:               0.3
 (Enter /home/sekinelabo/g16/l502.exe)
 Keep R1 and R2 ints in memory in canonical form, NReq=507620388.
 FoFCou: FMM=F IPFlag=           0 FMFlag=           0 FMFlg1=           0
         NFxFlg=           0 DoJE=F BraDBF=F KetDBF=F FulRan=T
         wScrn=  0.000000 ICntrl=       600 IOpCl=  0 I1Cent=           0 NGrid=           0
         NMat0=    1 NMatS0=  22155 NMatT0=    0 NMatD0=    1 NMtDS0=    0 NMtDT0=    0
 Symmetry not used in FoFCou.
 Two-electron integral symmetry not used.
 UHF open shell SCF:
 Using DIIS extrapolation, IDIIS=  1040.
 NGot=  1879048192 LenX=  1388082348 LenY=  1388034818
 Requested convergence on RMS density matrix=1.00D-08 within 128 cycles.
 Requested convergence on MAX density matrix=1.00D-06.
 Requested convergence on             energy=1.00D-06.
 No special actions if energy rises.

 Cycle   1  Pass 1  IDiag  1:
 E= -1136.03111761993    
 DIIS: error= 1.59D-02 at cycle   1 NSaved=   1.
 NSaved= 1 IEnMin= 1 EnMin= -1136.03111761993     IErMin= 1 ErrMin= 1.59D-02
 ErrMax= 1.59D-02  0.00D+00 EMaxC= 1.00D-01 BMatC= 2.13D-01 BMatP= 2.13D-01
 IDIUse=3 WtCom= 8.41D-01 WtEn= 1.59D-01
 Coeff-Com:  0.100D+01
 Coeff-En:   0.100D+01
 Coeff:      0.100D+01
 Gap=     0.065 Goal=   None    Shift=    0.000
 Gap=     0.029 Goal=   None    Shift=    0.000
 GapD=    0.029 DampG=0.250 DampE=0.500 DampFc=0.2500 IDamp=-1.
 Damping current iteration by 2.50D-01
 RMSDP=8.24D-02 MaxDP=8.13D+00              OVMax= 2.64D-01

 Cycle   2  Pass 1  IDiag  1:
 E= -1136.04781005822     Delta-E=       -0.016692438283 Rises=F Damp=T
 DIIS: error= 1.03D-02 at cycle   2 NSaved=   2.
 NSaved= 2 IEnMin= 2 EnMin= -1136.04781005822     IErMin= 2 ErrMin= 1.03D-02
 ErrMax= 1.03D-02  0.00D+00 EMaxC= 1.00D-01 BMatC= 8.00D-02 BMatP= 2.13D-01
 IDIUse=3 WtCom= 8.97D-01 WtEn= 1.03D-01
 Coeff-Com: -0.126D+01 0.226D+01
 Coeff-En:   0.000D+00 0.100D+01
 Coeff:     -0.113D+01 0.213D+01
 Gap=     0.066 Goal=   None    Shift=    0.000
 Gap=     0.032 Goal=   None    Shift=    0.000
 RMSDP=3.79D-02 MaxDP=3.94D+00 DE=-1.67D-02 OVMax= 1.73D-01

 Cycle   3  Pass 1  IDiag  1:
 E= -1136.07632130619     Delta-E=       -0.028511247969 Rises=F Damp=F
 DIIS: error= 3.63D-03 at cycle   3 NSaved=   3.
 NSaved= 3 IEnMin= 3 EnMin= -1136.07632130619     IErMin= 3 ErrMin= 3.63D-03
 ErrMax= 3.63D-03  0.00D+00 EMaxC= 1.00D-01 BMatC= 3.78D-03 BMatP= 8.00D-02
 IDIUse=3 WtCom= 9.64D-01 WtEn= 3.63D-02
 Coeff-Com: -0.216D+00 0.410D+00 0.806D+00
 Coeff-En:   0.000D+00 0.000D+00 0.100D+01
 Coeff:     -0.208D+00 0.395D+00 0.813D+00
 Gap=     0.062 Goal=   None    Shift=    0.000
 Gap=     0.032 Goal=   None    Shift=    0.000
 RMSDP=1.48D-02 MaxDP=1.26D+00 DE=-2.85D-02 OVMax= 5.18D-02

 Cycle   4  Pass 1  IDiag  1:
 E= -1136.07678558269     Delta-E=       -0.000464276502 Rises=F Damp=F
 DIIS: error= 3.32D-03 at cycle   4 NSaved=   4.
 NSaved= 4 IEnMin= 4 EnMin= -1136.07678558269     IErMin= 4 ErrMin= 3.32D-03
 ErrMax= 3.32D-03  0.00D+00 EMaxC= 1.00D-01 BMatC= 2.57D-03 BMatP= 3.78D-03
 IDIUse=3 WtCom= 9.67D-01 WtEn= 3.32D-02
 Coeff-Com:  0.190D-01-0.248D-01 0.454D+00 0.552D+00
 Coeff-En:   0.000D+00 0.000D+00 0.434D+00 0.566D+00
 Coeff:      0.183D-01-0.240D-01 0.454D+00 0.552D+00
 Gap=     0.063 Goal=   None    Shift=    0.000
 Gap=     0.033 Goal=   None    Shift=    0.000
 RMSDP=5.11D-03 MaxDP=3.98D-01 DE=-4.64D-04 OVMax= 2.49D-02

 Cycle   5  Pass 1  IDiag  1:
 E= -1136.07814801496     Delta-E=       -0.001362432269 Rises=F Damp=F
 DIIS: error= 2.43D-04 at cycle   5 NSaved=   5.
 NSaved= 5 IEnMin= 5 EnMin= -1136.07814801496     IErMin= 5 ErrMin= 2.43D-04
 ErrMax= 2.43D-04  0.00D+00 EMaxC= 1.00D-01 BMatC= 1.27D-05 BMatP= 2.57D-03
 IDIUse=3 WtCom= 9.98D-01 WtEn= 2.43D-03
 Coeff-Com:  0.594D-02-0.819D-02 0.179D+00 0.218D+00 0.605D+00
 Coeff-En:   0.000D+00 0.000D+00 0.000D+00 0.000D+00 0.100D+01
 Coeff:      0.592D-02-0.817D-02 0.179D+00 0.217D+00 0.606D+00
 Gap=     0.063 Goal=   None    Shift=    0.000
 Gap=     0.033 Goal=   None    Shift=    0.000
 RMSDP=5.67D-04 MaxDP=3.51D-02 DE=-1.36D-03 OVMax= 5.77D-03

 Cycle   6  Pass 1  IDiag  1:
 E= -1136.07815387332     Delta-E=       -0.000005858361 Rises=F Damp=F
 DIIS: error= 2.27D-04 at cycle   6 NSaved=   6.
 NSaved= 6 IEnMin= 6 EnMin= -1136.07815387332     IErMin= 6 ErrMin= 2.27D-04
 ErrMax= 2.27D-04  0.00D+00 EMaxC= 1.00D-01 BMatC= 9.71D-06 BMatP= 1.27D-05
 IDIUse=3 WtCom= 9.98D-01 WtEn= 2.27D-03
 Coeff-Com: -0.389D-02 0.475D-02-0.467D-01-0.590D-01 0.492D+00 0.613D+00
 Coeff-En:   0.000D+00 0.000D+00 0.000D+00 0.000D+00 0.395D+00 0.605D+00
 Coeff:     -0.388D-02 0.474D-02-0.466D-01-0.588D-01 0.492D+00 0.613D+00
 Gap=     0.063 Goal=   None    Shift=    0.000
 Gap=     0.033 Goal=   None    Shift=    0.000
 RMSDP=3.02D-04 MaxDP=1.74D-02 DE=-5.86D-06 OVMax= 3.93D-03

 Cycle   7  Pass 1  IDiag  1:
 E= -1136.07816600346     Delta-E=       -0.000012130143 Rises=F Damp=F
 DIIS: error= 2.74D-05 at cycle   7 NSaved=   7.
 NSaved= 7 IEnMin= 7 EnMin= -1136.07816600346     IErMin= 7 ErrMin= 2.74D-05
 ErrMax= 2.74D-05  0.00D+00 EMaxC= 1.00D-01 BMatC= 2.32D-07 BMatP= 9.71D-06
 IDIUse=1 WtCom= 1.00D+00 WtEn= 0.00D+00
 Coeff-Com: -0.503D-03 0.646D-03-0.206D-01-0.233D-01-0.536D-01-0.654D-02
 Coeff-Com:  0.110D+01
 Coeff:     -0.503D-03 0.646D-03-0.206D-01-0.233D-01-0.536D-01-0.654D-02
 Coeff:      0.110D+01
 Gap=     0.063 Goal=   None    Shift=    0.000
 Gap=     0.033 Goal=   None    Shift=    0.000
 RMSDP=1.71D-04 MaxDP=1.18D-02 DE=-1.21D-05 OVMax= 3.40D-03

 Cycle   8  Pass 1  IDiag  1:
 E= -1136.07816723845     Delta-E=       -0.000001234987 Rises=F Damp=F
 DIIS: error= 2.17D-05 at cycle   8 NSaved=   8.
 NSaved= 8 IEnMin= 8 EnMin= -1136.07816723845     IErMin= 8 ErrMin= 2.17D-05
 ErrMax= 2.17D-05  0.00D+00 EMaxC= 1.00D-01 BMatC= 2.14D-07 BMatP= 2.32D-07
 IDIUse=1 WtCom= 1.00D+00 WtEn= 0.00D+00
 Coeff-Com:  0.433D-03-0.531D-03-0.575D-02-0.523D-02-0.111D+00-0.101D+00
 Coeff-Com:  0.696D+00 0.527D+00
 Coeff:      0.433D-03-0.531D-03-0.575D-02-0.523D-02-0.111D+00-0.101D+00
 Coeff:      0.696D+00 0.527D+00
 Gap=     0.063 Goal=   None    Shift=    0.000
 Gap=     0.033 Goal=   None    Shift=    0.000
 RMSDP=7.03D-05 MaxDP=4.61D-03 DE=-1.23D-06 OVMax= 1.73D-03

 Cycle   9  Pass 1  IDiag  1:
 E= -1136.07816778091     Delta-E=       -0.000000542457 Rises=F Damp=F
 DIIS: error= 1.83D-05 at cycle   9 NSaved=   9.
 NSaved= 9 IEnMin= 9 EnMin= -1136.07816778091     IErMin= 9 ErrMin= 1.83D-05
 ErrMax= 1.83D-05  0.00D+00 EMaxC= 1.00D-01 BMatC= 5.30D-08 BMatP= 2.14D-07
 IDIUse=1 WtCom= 1.00D+00 WtEn= 0.00D+00
 Coeff-Com:  0.490D-03-0.620D-03 0.467D-02 0.584D-02-0.305D-01-0.407D-01
 Coeff-Com: -0.813D-01 0.217D+00 0.925D+00
 Coeff:      0.490D-03-0.620D-03 0.467D-02 0.584D-02-0.305D-01-0.407D-01
 Coeff:     -0.813D-01 0.217D+00 0.925D+00
 Gap=     0.063 Goal=   None    Shift=    0.000
 Gap=     0.033 Goal=   None    Shift=    0.000
 RMSDP=7.87D-05 MaxDP=5.72D-03 DE=-5.42D-07 OVMax= 2.48D-03

 Cycle  10  Pass 1  IDiag  1:
 E= -1136.07816824383     Delta-E=       -0.000000462924 Rises=F Damp=F
 DIIS: error= 1.56D-05 at cycle  10 NSaved=  10.
 NSaved=10 IEnMin=10 EnMin= -1136.07816824383     IErMin=10 ErrMin= 1.56D-05
 ErrMax= 1.56D-05  0.00D+00 EMaxC= 1.00D-01 BMatC= 2.68D-08 BMatP= 5.30D-08
 IDIUse=1 WtCom= 1.00D+00 WtEn= 0.00D+00
 Coeff-Com: -0.389D-04 0.573D-04 0.381D-02 0.368D-02 0.262D-01 0.207D-01
 Coeff-Com: -0.258D+00-0.152D+00 0.204D+00 0.115D+01
 Coeff:     -0.389D-04 0.573D-04 0.381D-02 0.368D-02 0.262D-01 0.207D-01
 Coeff:     -0.258D+00-0.152D+00 0.204D+00 0.115D+01
 Gap=     0.063 Goal=   None    Shift=    0.000
 Gap=     0.033 Goal=   None    Shift=    0.000
 RMSDP=8.00D-05 MaxDP=5.26D-03 DE=-4.63D-07 OVMax= 2.94D-03

 Cycle  11  Pass 1  IDiag  1:
 E= -1136.07816864859     Delta-E=       -0.000000404765 Rises=F Damp=F
 DIIS: error= 1.24D-05 at cycle  11 NSaved=  11.
 NSaved=11 IEnMin=11 EnMin= -1136.07816864859     IErMin=11 ErrMin= 1.24D-05
 ErrMax= 1.24D-05  0.00D+00 EMaxC= 1.00D-01 BMatC= 1.53D-08 BMatP= 2.68D-08
 IDIUse=1 WtCom= 1.00D+00 WtEn= 0.00D+00
 Coeff-Com: -0.346D-03 0.440D-03-0.208D-02-0.295D-02 0.269D-01 0.301D-01
 Coeff-Com: -0.489D-02-0.187D+00-0.556D+00 0.232D+00 0.146D+01
 Coeff:     -0.346D-03 0.440D-03-0.208D-02-0.295D-02 0.269D-01 0.301D-01
 Coeff:     -0.489D-02-0.187D+00-0.556D+00 0.232D+00 0.146D+01
 Gap=     0.063 Goal=   None    Shift=    0.000
 Gap=     0.033 Goal=   None    Shift=    0.000
 RMSDP=9.37D-05 MaxDP=6.35D-03 DE=-4.05D-07 OVMax= 4.00D-03

 Cycle  12  Pass 1  IDiag  1:
 E= -1136.07816902989     Delta-E=       -0.000000381292 Rises=F Damp=F
 DIIS: error= 8.01D-06 at cycle  12 NSaved=  12.
 NSaved=12 IEnMin=12 EnMin= -1136.07816902989     IErMin=12 ErrMin= 8.01D-06
 ErrMax= 8.01D-06  0.00D+00 EMaxC= 1.00D-01 BMatC= 8.05D-09 BMatP= 1.53D-08
 IDIUse=1 WtCom= 1.00D+00 WtEn= 0.00D+00
 Coeff-Com: -0.531D-04 0.605D-04-0.212D-02-0.237D-02-0.132D-02 0.149D-02
 Coeff-Com:  0.112D+00-0.173D-01-0.301D+00-0.314D+00 0.485D+00 0.104D+01
 Coeff:     -0.531D-04 0.605D-04-0.212D-02-0.237D-02-0.132D-02 0.149D-02
 Coeff:      0.112D+00-0.173D-01-0.301D+00-0.314D+00 0.485D+00 0.104D+01
 Gap=     0.063 Goal=   None    Shift=    0.000
 Gap=     0.033 Goal=   None    Shift=    0.000
 RMSDP=5.31D-05 MaxDP=4.00D-03 DE=-3.81D-07 OVMax= 2.45D-03

 Cycle  13  Pass 1  IDiag  1:
 E= -1136.07816918491     Delta-E=       -0.000000155026 Rises=F Damp=F
 DIIS: error= 5.43D-06 at cycle  13 NSaved=  13.
 NSaved=13 IEnMin=13 EnMin= -1136.07816918491     IErMin=13 ErrMin= 5.43D-06
 ErrMax= 5.43D-06  0.00D+00 EMaxC= 1.00D-01 BMatC= 6.31D-09 BMatP= 8.05D-09
 IDIUse=1 WtCom= 1.00D+00 WtEn= 0.00D+00
 Coeff-Com:  0.310D-03-0.400D-03-0.393D-03 0.193D-03-0.296D-01-0.297D-01
 Coeff-Com:  0.140D+00 0.165D+00 0.219D+00-0.501D+00-0.101D+01 0.998D+00
 Coeff-Com:  0.105D+01
 Coeff:      0.310D-03-0.400D-03-0.393D-03 0.193D-03-0.296D-01-0.297D-01
 Coeff:      0.140D+00 0.165D+00 0.219D+00-0.501D+00-0.101D+01 0.998D+00
 Coeff:      0.105D+01
 Gap=     0.063 Goal=   None    Shift=    0.000
 Gap=     0.033 Goal=   None    Shift=    0.000
 RMSDP=6.41D-05 MaxDP=4.42D-03 DE=-1.55D-07 OVMax= 3.11D-03

 Cycle  14  Pass 1  IDiag  1:
 E= -1136.07816930390     Delta-E=       -0.000000118986 Rises=F Damp=F
 DIIS: error= 2.23D-06 at cycle  14 NSaved=  14.
 NSaved=14 IEnMin=14 EnMin= -1136.07816930390     IErMin=14 ErrMin= 2.23D-06
 ErrMax= 2.23D-06  0.00D+00 EMaxC= 1.00D-01 BMatC= 9.64D-10 BMatP= 6.31D-09
 IDIUse=1 WtCom= 1.00D+00 WtEn= 0.00D+00
 Coeff-Com: -0.344D-04 0.502D-04 0.490D-03 0.558D-03 0.376D-02 0.206D-02
 Coeff-Com: -0.491D-01-0.364D-02 0.976D-01 0.136D+00-0.907D-01-0.462D+00
 Coeff-Com: -0.717D-01 0.144D+01
 Coeff:     -0.344D-04 0.502D-04 0.490D-03 0.558D-03 0.376D-02 0.206D-02
 Coeff:     -0.491D-01-0.364D-02 0.976D-01 0.136D+00-0.907D-01-0.462D+00
 Coeff:     -0.717D-01 0.144D+01
 Gap=     0.063 Goal=   None    Shift=    0.000
 Gap=     0.033 Goal=   None    Shift=    0.000
 RMSDP=3.12D-05 MaxDP=2.14D-03 DE=-1.19D-07 OVMax= 1.47D-03

 Cycle  15  Pass 1  IDiag  1:
 E= -1136.07816932784     Delta-E=       -0.000000023944 Rises=F Damp=F
 DIIS: error= 7.04D-07 at cycle  15 NSaved=  15.
 NSaved=15 IEnMin=15 EnMin= -1136.07816932784     IErMin=15 ErrMin= 7.04D-07
 ErrMax= 7.04D-07  0.00D+00 EMaxC= 1.00D-01 BMatC= 1.84D-10 BMatP= 9.64D-10
 IDIUse=1 WtCom= 1.00D+00 WtEn= 0.00D+00
 Coeff-Com: -0.671D-04 0.859D-04 0.385D-04-0.206D-03 0.639D-02 0.693D-02
 Coeff-Com: -0.229D-01-0.430D-01-0.844D-01 0.996D-01 0.285D+00-0.158D+00
 Coeff-Com: -0.248D+00-0.353D+00 0.151D+01
 Coeff:     -0.671D-04 0.859D-04 0.385D-04-0.206D-03 0.639D-02 0.693D-02
 Coeff:     -0.229D-01-0.430D-01-0.844D-01 0.996D-01 0.285D+00-0.158D+00
 Coeff:     -0.248D+00-0.353D+00 0.151D+01
 Gap=     0.063 Goal=   None    Shift=    0.000
 Gap=     0.033 Goal=   None    Shift=    0.000
 RMSDP=1.34D-05 MaxDP=8.88D-04 DE=-2.39D-08 OVMax= 5.75D-04

 Cycle  16  Pass 1  IDiag  1:
 E= -1136.07816933115     Delta-E=       -0.000000003312 Rises=F Damp=F
 DIIS: error= 2.21D-07 at cycle  16 NSaved=  16.
 NSaved=16 IEnMin=16 EnMin= -1136.07816933115     IErMin=16 ErrMin= 2.21D-07
 ErrMax= 2.21D-07  0.00D+00 EMaxC= 1.00D-01 BMatC= 1.71D-11 BMatP= 1.84D-10
 IDIUse=1 WtCom= 1.00D+00 WtEn= 0.00D+00
 Coeff-Com:  0.749D-05-0.111D-04-0.261D-04-0.373D-04-0.442D-03-0.107D-03
 Coeff-Com:  0.600D-02-0.389D-03-0.199D-01-0.148D-01 0.278D-01 0.625D-01
 Coeff-Com: -0.703D-02-0.211D+00 0.655D-01 0.109D+01
 Coeff:      0.749D-05-0.111D-04-0.261D-04-0.373D-04-0.442D-03-0.107D-03
 Coeff:      0.600D-02-0.389D-03-0.199D-01-0.148D-01 0.278D-01 0.625D-01
 Coeff:     -0.703D-02-0.211D+00 0.655D-01 0.109D+01
 Gap=     0.063 Goal=   None    Shift=    0.000
 Gap=     0.033 Goal=   None    Shift=    0.000
 RMSDP=2.66D-06 MaxDP=1.76D-04 DE=-3.31D-09 OVMax= 8.49D-05

 Cycle  17  Pass 1  IDiag  1:
 E= -1136.07816933128     Delta-E=       -0.000000000130 Rises=F Damp=F
 DIIS: error= 8.69D-08 at cycle  17 NSaved=  17.
 NSaved=17 IEnMin=17 EnMin= -1136.07816933128     IErMin=17 ErrMin= 8.69D-08
 ErrMax= 8.69D-08  0.00D+00 EMaxC= 1.00D-01 BMatC= 3.82D-12 BMatP= 1.71D-11
 IDIUse=1 WtCom= 1.00D+00 WtEn= 0.00D+00
 Coeff-Com:  0.869D-05-0.115D-04-0.211D-04 0.954D-05-0.710D-03-0.829D-03
 Coeff-Com:  0.380D-02 0.486D-02 0.530D-02-0.143D-01-0.270D-01 0.306D-01
 Coeff-Com:  0.306D-01-0.784D-02-0.176D+00 0.306D+00 0.846D+00
 Coeff:      0.869D-05-0.115D-04-0.211D-04 0.954D-05-0.710D-03-0.829D-03
 Coeff:      0.380D-02 0.486D-02 0.530D-02-0.143D-01-0.270D-01 0.306D-01
 Coeff:      0.306D-01-0.784D-02-0.176D+00 0.306D+00 0.846D+00
 Gap=     0.063 Goal=   None    Shift=    0.000
 Gap=     0.033 Goal=   None    Shift=    0.000
 RMSDP=7.23D-07 MaxDP=4.98D-05 DE=-1.30D-10 OVMax= 1.44D-05

 Cycle  18  Pass 1  IDiag  1:
 E= -1136.07816933131     Delta-E=       -0.000000000028 Rises=F Damp=F
 DIIS: error= 3.08D-08 at cycle  18 NSaved=  18.
 NSaved=18 IEnMin=18 EnMin= -1136.07816933131     IErMin=18 ErrMin= 3.08D-08
 ErrMax= 3.08D-08  0.00D+00 EMaxC= 1.00D-01 BMatC= 4.33D-13 BMatP= 3.82D-12
 IDIUse=1 WtCom= 1.00D+00 WtEn= 0.00D+00
 Coeff-Com: -0.127D-05 0.195D-05-0.404D-05 0.146D-05-0.462D-05-0.634D-04
 Coeff-Com: -0.521D-03 0.466D-03 0.362D-02 0.181D-02-0.789D-02-0.827D-02
 Coeff-Com:  0.250D-02 0.379D-01-0.222D-01-0.200D+00 0.699D-01 0.112D+01
 Coeff:     -0.127D-05 0.195D-05-0.404D-05 0.146D-05-0.462D-05-0.634D-04
 Coeff:     -0.521D-03 0.466D-03 0.362D-02 0.181D-02-0.789D-02-0.827D-02
 Coeff:      0.250D-02 0.379D-01-0.222D-01-0.200D+00 0.699D-01 0.112D+01
 Gap=     0.063 Goal=   None    Shift=    0.000
 Gap=     0.033 Goal=   None    Shift=    0.000
 RMSDP=3.85D-07 MaxDP=2.48D-05 DE=-2.77D-11 OVMax= 1.14D-05

 Cycle  19  Pass 1  IDiag  1:
 E= -1136.07816933130     Delta-E=        0.000000000015 Rises=F Damp=F
 DIIS: error= 9.16D-09 at cycle  19 NSaved=  19.
 NSaved=19 IEnMin=18 EnMin= -1136.07816933131     IErMin=19 ErrMin= 9.16D-09
 ErrMax= 9.16D-09  0.00D+00 EMaxC= 1.00D-01 BMatC= 3.37D-14 BMatP= 4.33D-13
 IDIUse=1 WtCom= 1.00D+00 WtEn= 0.00D+00
 Coeff-Com: -0.277D-06 0.322D-06 0.429D-05-0.106D-07 0.528D-04 0.773D-04
 Coeff-Com: -0.234D-03-0.452D-03-0.972D-03 0.902D-03 0.333D-02-0.820D-03
 Coeff-Com: -0.299D-02-0.494D-02 0.169D-01 0.705D-02-0.670D-01-0.207D+00
 Coeff-Com:  0.126D+01
 Coeff:     -0.277D-06 0.322D-06 0.429D-05-0.106D-07 0.528D-04 0.773D-04
 Coeff:     -0.234D-03-0.452D-03-0.972D-03 0.902D-03 0.333D-02-0.820D-03
 Coeff:     -0.299D-02-0.494D-02 0.169D-01 0.705D-02-0.670D-01-0.207D+00
 Coeff:      0.126D+01
 Gap=     0.063 Goal=   None    Shift=    0.000
 Gap=     0.033 Goal=   None    Shift=    0.000
 RMSDP=8.51D-08 MaxDP=4.86D-06 DE= 1.50D-11 OVMax= 1.14D-06

 Cycle  20  Pass 1  IDiag  1:
 E= -1136.07816933129     Delta-E=        0.000000000004 Rises=F Damp=F
 DIIS: error= 4.71D-09 at cycle  20 NSaved=  20.
 NSaved=20 IEnMin=18 EnMin= -1136.07816933131     IErMin=20 ErrMin= 4.71D-09
 ErrMax= 4.71D-09  0.00D+00 EMaxC= 1.00D-01 BMatC= 6.04D-15 BMatP= 3.37D-14
 IDIUse=1 WtCom= 1.00D+00 WtEn= 0.00D+00
 Large coefficients: NSaved= 20 BigCof=    0.00 CofMax=   10.00 Det=-9.74D-15
 Inversion failed.  Reducing to 19 matrices.
 Large coefficients: NSaved= 19 BigCof=    0.00 CofMax=   10.00 Det=-9.81D-15
 Inversion failed.  Reducing to 18 matrices.
 Large coefficients: NSaved= 18 BigCof=    0.00 CofMax=   10.00 Det=-9.94D-15
 Inversion failed.  Reducing to 17 matrices.
 Coeff-Com: -0.136D-05 0.596D-05 0.110D-04 0.690D-04-0.108D-03-0.552D-03
 Coeff-Com: -0.193D-03 0.145D-02 0.528D-03-0.733D-03-0.460D-02 0.466D-02
 Coeff-Com:  0.206D-01-0.172D-01-0.125D+00 0.106D+00 0.101D+01
 Coeff:     -0.136D-05 0.596D-05 0.110D-04 0.690D-04-0.108D-03-0.552D-03
 Coeff:     -0.193D-03 0.145D-02 0.528D-03-0.733D-03-0.460D-02 0.466D-02
 Coeff:      0.206D-01-0.172D-01-0.125D+00 0.106D+00 0.101D+01
 Gap=     0.063 Goal=   None    Shift=    0.000
 Gap=     0.033 Goal=   None    Shift=    0.000
 RMSDP=4.63D-08 MaxDP=3.27D-06 DE= 4.09D-12 OVMax= 1.47D-06

 Cycle  21  Pass 1  IDiag  1:
 E= -1136.07816933129     Delta-E=        0.000000000005 Rises=F Damp=F
 DIIS: error= 2.59D-09 at cycle  21 NSaved=  18.
 NSaved=18 IEnMin=15 EnMin= -1136.07816933131     IErMin=18 ErrMin= 2.59D-09
 ErrMax= 2.59D-09  0.00D+00 EMaxC= 1.00D-01 BMatC= 1.68D-15 BMatP= 6.04D-15
 IDIUse=1 WtCom= 1.00D+00 WtEn= 0.00D+00
 Large coefficients: NSaved= 18 BigCof=    0.00 CofMax=   10.00 Det=-3.76D-15
 Inversion failed.  Reducing to 17 matrices.
 Large coefficients: NSaved= 17 BigCof=    0.00 CofMax=   10.00 Det=-4.35D-15
 Inversion failed.  Reducing to 16 matrices.
 Large coefficients: NSaved= 16 BigCof=    0.00 CofMax=   10.00 Det=-4.38D-15
 Inversion failed.  Reducing to 15 matrices.
 Coeff-Com:  0.120D-04-0.214D-04-0.108D-03-0.895D-05 0.238D-03 0.148D-03
 Coeff-Com: -0.118D-03-0.108D-02 0.654D-03 0.555D-02 0.131D-02-0.174D-01
 Coeff-Com: -0.161D+00 0.298D+00 0.874D+00
 Coeff:      0.120D-04-0.214D-04-0.108D-03-0.895D-05 0.238D-03 0.148D-03
 Coeff:     -0.118D-03-0.108D-02 0.654D-03 0.555D-02 0.131D-02-0.174D-01
 Coeff:     -0.161D+00 0.298D+00 0.874D+00
 Gap=     0.063 Goal=   None    Shift=    0.000
 Gap=     0.033 Goal=   None    Shift=    0.000
 RMSDP=1.22D-08 MaxDP=7.31D-07 DE= 4.55D-12 OVMax= 2.07D-07

 Cycle  22  Pass 1  IDiag  1:
 E= -1136.07816933130     Delta-E=       -0.000000000011 Rises=F Damp=F
 DIIS: error= 1.08D-09 at cycle  22 NSaved=  16.
 NSaved=16 IEnMin=12 EnMin= -1136.07816933131     IErMin=16 ErrMin= 1.08D-09
 ErrMax= 1.08D-09  0.00D+00 EMaxC= 1.00D-01 BMatC= 2.83D-16 BMatP= 1.68D-15
 IDIUse=1 WtCom= 1.00D+00 WtEn= 0.00D+00
 Large coefficients: NSaved= 16 BigCof=    0.00 CofMax=   10.00 Det=-6.89D-16
 Inversion failed.  Reducing to 15 matrices.
 Coeff-Com:  0.624D-05 0.351D-04 0.269D-04-0.168D-03 0.264D-04 0.143D-03
 Coeff-Com:  0.302D-03-0.350D-03-0.225D-02 0.221D-02 0.146D-01-0.492D-02
 Coeff-Com: -0.216D+00-0.746D-01 0.128D+01
 Coeff:      0.624D-05 0.351D-04 0.269D-04-0.168D-03 0.264D-04 0.143D-03
 Coeff:      0.302D-03-0.350D-03-0.225D-02 0.221D-02 0.146D-01-0.492D-02
 Coeff:     -0.216D+00-0.746D-01 0.128D+01
 Gap=     0.063 Goal=   None    Shift=    0.000
 Gap=     0.033 Goal=   None    Shift=    0.000
 RMSDP=1.14D-08 MaxDP=8.90D-07 DE=-1.09D-11 OVMax= 1.78D-07

 Cycle  23  Pass 1  IDiag  1:
 E= -1136.07816933132     Delta-E=       -0.000000000019 Rises=F Damp=F
 DIIS: error= 5.12D-10 at cycle  23 NSaved=  16.
 NSaved=16 IEnMin=16 EnMin= -1136.07816933132     IErMin=16 ErrMin= 5.12D-10
 ErrMax= 5.12D-10  0.00D+00 EMaxC= 1.00D-01 BMatC= 8.44D-17 BMatP= 2.83D-16
 IDIUse=1 WtCom= 1.00D+00 WtEn= 0.00D+00
 Large coefficients: NSaved= 16 BigCof=    0.00 CofMax=   10.00 Det=-1.33D-16
 Inversion failed.  Reducing to 15 matrices.
 Coeff-Com:  0.143D-04 0.120D-04-0.575D-04-0.281D-04 0.504D-04 0.209D-03
 Coeff-Com: -0.163D-03-0.162D-02 0.120D-02 0.102D-01 0.698D-02-0.107D+00
 Coeff-Com: -0.122D+00 0.560D+00 0.652D+00
 Coeff:      0.143D-04 0.120D-04-0.575D-04-0.281D-04 0.504D-04 0.209D-03
 Coeff:     -0.163D-03-0.162D-02 0.120D-02 0.102D-01 0.698D-02-0.107D+00
 Coeff:     -0.122D+00 0.560D+00 0.652D+00
 Gap=     0.063 Goal=   None    Shift=    0.000
 Gap=     0.033 Goal=   None    Shift=    0.000
 RMSDP=7.36D-09 MaxDP=5.80D-07 DE=-1.86D-11 OVMax= 9.01D-08

 SCF Done:  E(UB3LYP) =  -1136.07816933     A.U. after   23 cycles
            NFock= 23  Conv=0.74D-08     -V/T= 2.0022
 <Sx>= 0.0000 <Sy>= 0.0000 <Sz>= 0.5000 <S**2>= 0.7611 S= 0.5055
 <L.S>= 0.000000000000E+00
 KE= 1.133529425413D+03 PE=-3.557248149278D+03 EE= 8.737819135873D+02
 Annihilation of the first spin contaminant:
 S**2 before annihilation     0.7611,   after     0.7501
 Leave Link  502 at Mon Nov 13 16:55:07 2023, MaxMem=  1879048192 cpu:             223.1 elap:              19.0
 (Enter /home/sekinelabo/g16/l601.exe)
 Copying SCF densities to generalized density rwf, IOpCl= 1 IROHF=0.

 **********************************************************************

            Population analysis using the SCF Density.

 **********************************************************************

 Orbital symmetries:
 Alpha Orbitals:
       Occupied  (A) (A) (A) (A) (A) (A) (A) (A) (A) (A) (A) (A)
                 (A) (A) (A) (A) (A) (A) (A) (A) (A) (A) (A) (A)
                 (A) (A) (A) (A) (A) (A) (A) (A) (A) (A) (A) (A)
                 (A) (A) (A)
       Virtual   (A) (A) (A) (A) (A) (A) (A) (A) (A) (A) (A) (A)
                 (A) (A) (A) (A) (A) (A) (A) (A) (A) (A) (A) (A)
                 (A) (A) (A) (A) (A) (A) (A) (A) (A) (A) (A) (A)
                 (A) (A) (A) (A) (A) (A) (A) (A) (A) (A) (A) (A)
                 (A) (A) (A) (A) (A) (A) (A) (A) (A) (A) (A) (A)
                 (A) (A) (A) (A) (A) (A) (A) (A) (A) (A) (A) (A)
                 (A) (A) (A) (A) (A) (A) (A) (A) (A) (A) (A) (A)
                 (A) (A) (A) (A) (A) (A) (A) (A) (A) (A) (A) (A)
                 (A) (A) (A) (A) (A) (A) (A) (A) (A) (A) (A) (A)
                 (A) (A) (A) (A) (A) (A) (A) (A) (A) (A) (A) (A)
                 (A) (A) (A) (A) (A) (A) (A) (A) (A) (A) (A) (A)
                 (A) (A) (A) (A) (A) (A) (A) (A) (A) (A) (A) (A)
                 (A) (A) (A) (A) (A) (A) (A) (A) (A) (A) (A) (A)
                 (A) (A) (A) (A) (A) (A) (A) (A) (A) (A) (A) (A)
                 (A) (A) (A)
 Beta  Orbitals:
       Occupied  (A) (A) (A) (A) (A) (A) (A) (A) (A) (A) (A) (A)
                 (A) (A) (A) (A) (A) (A) (A) (A) (A) (A) (A) (A)
                 (A) (A) (A) (A) (A) (A) (A) (A) (A) (A) (A) (A)
                 (A) (A)
       Virtual   (A) (A) (A) (A) (A) (A) (A) (A) (A) (A) (A) (A)
                 (A) (A) (A) (A) (A) (A) (A) (A) (A) (A) (A) (A)
                 (A) (A) (A) (A) (A) (A) (A) (A) (A) (A) (A) (A)
                 (A) (A) (A) (A) (A) (A) (A) (A) (A) (A) (A) (A)
                 (A) (A) (A) (A) (A) (A) (A) (A) (A) (A) (A) (A)
                 (A) (A) (A) (A) (A) (A) (A) (A) (A) (A) (A) (A)
                 (A) (A) (A) (A) (A) (A) (A) (A) (A) (A) (A) (A)
                 (A) (A) (A) (A) (A) (A) (A) (A) (A) (A) (A) (A)
                 (A) (A) (A) (A) (A) (A) (A) (A) (A) (A) (A) (A)
                 (A) (A) (A) (A) (A) (A) (A) (A) (A) (A) (A) (A)
                 (A) (A) (A) (A) (A) (A) (A) (A) (A) (A) (A) (A)
                 (A) (A) (A) (A) (A) (A) (A) (A) (A) (A) (A) (A)
                 (A) (A) (A) (A) (A) (A) (A) (A) (A) (A) (A) (A)
                 (A) (A) (A) (A) (A) (A) (A) (A) (A) (A) (A) (A)
                 (A) (A) (A) (A)
 The electronic state is 2-A.
 Alpha  occ. eigenvalues --  -38.44539 -38.44442 -38.44188 -38.43991 -38.43664
 Alpha  occ. eigenvalues --  -38.43059 -38.42896  -2.20651  -2.20585  -2.20468
 Alpha  occ. eigenvalues --   -2.20098  -2.19846  -2.19163  -2.19103  -1.14510
 Alpha  occ. eigenvalues --   -1.14495  -1.14414  -1.14317  -1.14270  -1.14215
 Alpha  occ. eigenvalues --   -1.14207  -1.14105  -1.14032  -1.13732  -1.13692
 Alpha  occ. eigenvalues --   -1.13658  -1.13550  -1.13463  -1.13429  -1.12856
 Alpha  occ. eigenvalues --   -1.12810  -1.12801  -1.12751  -1.12735  -1.12669
 Alpha  occ. eigenvalues --   -0.21648  -0.14294  -0.12890  -0.11982
 Alpha virt. eigenvalues --   -0.05654  -0.04298  -0.03928  -0.03706  -0.02938
 Alpha virt. eigenvalues --   -0.02834  -0.01242  -0.00423  -0.00238   0.00297
 Alpha virt. eigenvalues --    0.00729   0.00901   0.01037   0.01060   0.01099
 Alpha virt. eigenvalues --    0.01113   0.01282   0.01374   0.01399   0.01467
 Alpha virt. eigenvalues --    0.01503   0.01806   0.01879   0.01969   0.02016
 Alpha virt. eigenvalues --    0.02569   0.02789   0.02860   0.02970   0.02977
 Alpha virt. eigenvalues --    0.03020   0.03100   0.03150   0.03167   0.03294
 Alpha virt. eigenvalues --    0.03322   0.03410   0.03439   0.03868   0.03891
 Alpha virt. eigenvalues --    0.04055   0.05019   0.05144   0.05255   0.05405
 Alpha virt. eigenvalues --    0.05466   0.05552   0.05752   0.05870   0.06102
 Alpha virt. eigenvalues --    0.06494   0.06567   0.06897   0.07288   0.07354
 Alpha virt. eigenvalues --    0.07776   0.08478   0.08722   0.09056   0.09257
 Alpha virt. eigenvalues --    0.09478   0.10266   0.12089   0.12616   0.12844
 Alpha virt. eigenvalues --    0.12912   0.13035   0.13190   0.13698   0.14002
 Alpha virt. eigenvalues --    0.14165   0.14654   0.14834   0.15283   0.15837
 Alpha virt. eigenvalues --    0.16542   0.16910   0.17476   0.17689   0.18264
 Alpha virt. eigenvalues --    0.21442   0.25088   0.26735   0.28319   0.29821
 Alpha virt. eigenvalues --    0.30367   0.31354   0.31910   0.32586   0.34486
 Alpha virt. eigenvalues --    0.35468   0.35573   0.37646   0.38189   0.39141
 Alpha virt. eigenvalues --    0.40448   0.41242   0.42830   0.44288   0.44413
 Alpha virt. eigenvalues --    0.44496   0.44685   0.45026   0.46306   0.46944
 Alpha virt. eigenvalues --    0.47371   0.48131   0.48876   0.49268   0.49530
 Alpha virt. eigenvalues --    0.49836   0.50164   0.50508   0.50963   0.51607
 Alpha virt. eigenvalues --    0.52702   0.54670   0.55170   0.55678   0.56594
 Alpha virt. eigenvalues --    0.57737   0.60592   0.64792   0.66068   0.67261
 Alpha virt. eigenvalues --    0.67846   0.69947   0.71471   0.73455   0.74496
 Alpha virt. eigenvalues --    0.77141   0.78346   0.81211   0.83790   0.86934
 Alpha virt. eigenvalues --    0.88422   2.17810   2.21964   2.25886   2.28295
 Alpha virt. eigenvalues --    2.30496   2.32996   2.34513   4.40512   4.41005
 Alpha virt. eigenvalues --    4.41515   4.41812   4.41953   4.43637   4.45875
 Alpha virt. eigenvalues --    4.48935   4.49032   4.53546   4.58559   4.58778
 Alpha virt. eigenvalues --    4.66151   4.69279   4.72789   4.74444   4.78163
 Alpha virt. eigenvalues --    4.79348   4.82958   4.88823   4.95758  96.40217
 Alpha virt. eigenvalues --   96.48516  96.54195  96.56808  96.59924  96.63101
 Alpha virt. eigenvalues --   96.65036
  Beta  occ. eigenvalues --  -38.44532 -38.44377 -38.44113 -38.43957 -38.43611
  Beta  occ. eigenvalues --  -38.43046 -38.42873  -2.20573  -2.20538  -2.20335
  Beta  occ. eigenvalues --   -2.20040  -2.19753  -2.19147  -2.19071  -1.14461
  Beta  occ. eigenvalues --   -1.14446  -1.14309  -1.14269  -1.14217  -1.14179
  Beta  occ. eigenvalues --   -1.14139  -1.14007  -1.13958  -1.13678  -1.13643
  Beta  occ. eigenvalues --   -1.13604  -1.13489  -1.13392  -1.13344  -1.12844
  Beta  occ. eigenvalues --   -1.12782  -1.12768  -1.12711  -1.12697  -1.12625
  Beta  occ. eigenvalues --   -0.20768  -0.14052  -0.11727
  Beta virt. eigenvalues --   -0.08417  -0.05567  -0.03952  -0.03500  -0.03308
  Beta virt. eigenvalues --   -0.02146  -0.01935  -0.01192  -0.00284  -0.00086
  Beta virt. eigenvalues --    0.00332   0.00802   0.00983   0.01074   0.01109
  Beta virt. eigenvalues --    0.01138   0.01186   0.01350   0.01453   0.01494
  Beta virt. eigenvalues --    0.01551   0.01616   0.01879   0.01986   0.02033
  Beta virt. eigenvalues --    0.02072   0.02604   0.02854   0.02937   0.02972
  Beta virt. eigenvalues --    0.03014   0.03039   0.03097   0.03168   0.03249
  Beta virt. eigenvalues --    0.03379   0.03405   0.03505   0.03530   0.03971
  Beta virt. eigenvalues --    0.04155   0.04163   0.05145   0.05240   0.05379
  Beta virt. eigenvalues --    0.05454   0.05653   0.05729   0.05947   0.06015
  Beta virt. eigenvalues --    0.06232   0.06531   0.06589   0.06930   0.07406
  Beta virt. eigenvalues --    0.07471   0.07863   0.08589   0.08842   0.09199
  Beta virt. eigenvalues --    0.09349   0.09762   0.10761   0.12370   0.12854
  Beta virt. eigenvalues --    0.12963   0.13036   0.13220   0.13396   0.13863
  Beta virt. eigenvalues --    0.14176   0.14600   0.14817   0.15211   0.15545
  Beta virt. eigenvalues --    0.16026   0.16632   0.17060   0.17705   0.17979
  Beta virt. eigenvalues --    0.18525   0.21960   0.25170   0.27448   0.28871
  Beta virt. eigenvalues --    0.30169   0.30487   0.31651   0.32249   0.32805
  Beta virt. eigenvalues --    0.34811   0.35671   0.36200   0.37958   0.38381
  Beta virt. eigenvalues --    0.39407   0.40743   0.41603   0.43141   0.44467
  Beta virt. eigenvalues --    0.44524   0.44670   0.44816   0.45183   0.46579
  Beta virt. eigenvalues --    0.47159   0.47561   0.48331   0.49131   0.49450
  Beta virt. eigenvalues --    0.49629   0.49959   0.50281   0.50700   0.51056
  Beta virt. eigenvalues --    0.52043   0.53047   0.54955   0.55321   0.55935
  Beta virt. eigenvalues --    0.56722   0.58061   0.60901   0.64974   0.66246
  Beta virt. eigenvalues --    0.67418   0.68134   0.70234   0.71740   0.73748
  Beta virt. eigenvalues --    0.74648   0.77332   0.78525   0.81390   0.84037
  Beta virt. eigenvalues --    0.87063   0.88541   2.17888   2.22015   2.26082
  Beta virt. eigenvalues --    2.28389   2.30632   2.33128   2.34758   4.40610
  Beta virt. eigenvalues --    4.41088   4.41592   4.41867   4.42031   4.43713
  Beta virt. eigenvalues --    4.45920   4.48976   4.49096   4.53672   4.58646
  Beta virt. eigenvalues --    4.58841   4.66197   4.69372   4.72842   4.74529
  Beta virt. eigenvalues --    4.78227   4.79429   4.83016   4.88870   4.95811
  Beta virt. eigenvalues --   96.40256  96.48531  96.54251  96.56842  96.59988
  Beta virt. eigenvalues --   96.63148  96.65123
          Condensed to atoms (all electrons):
               1          2          3          4          5          6
     1  Na  14.720320   0.170485  -1.015230   1.316875   0.030052  -1.125803
     2  Na   0.170485  13.660141  -0.330115   0.084770  -1.284477  -1.317993
     3  Na  -1.015230  -0.330115  12.953458  -0.536482  -1.144125   0.188580
     4  Na   1.316875   0.084770  -0.536482  13.880406  -1.030530  -0.277036
     5  Na   0.030052  -1.284477  -1.144125  -1.030530  14.248887   0.035760
     6  Na  -1.125803  -1.317993   0.188580  -0.277036   0.035760  13.814143
     7  Na  -2.206871   0.114290  -0.187612  -1.790220   0.250932  -0.256404
               7
     1  Na  -2.206871
     2  Na   0.114290
     3  Na  -0.187612
     4  Na  -1.790220
     5  Na   0.250932
     6  Na  -0.256404
     7  Na  14.344952
          Atomic-Atomic Spin Densities.
               1          2          3          4          5          6
     1  Na   0.379176   0.183190  -0.588817   0.005495   0.126297  -0.129741
     2  Na   0.183190   0.597455  -0.263738  -0.107478   0.432836  -0.253301
     3  Na  -0.588817  -0.263738   0.750624   0.019365  -0.117196   0.434302
     4  Na   0.005495  -0.107478   0.019365   0.070475  -0.136095   0.067371
     5  Na   0.126297   0.432836  -0.117196  -0.136095  -0.169067  -0.243123
     6  Na  -0.129741  -0.253301   0.434302   0.067371  -0.243123   0.040576
     7  Na   0.218271  -0.174969  -0.254188   0.228012   0.108439   0.061720
               7
     1  Na   0.218271
     2  Na  -0.174969
     3  Na  -0.254188
     4  Na   0.228012
     5  Na   0.108439
     6  Na   0.061720
     7  Na   0.097457
 Mulliken charges and spin densities:
               1          2
     1  Na  -0.889828   0.193871
     2  Na  -0.097103   0.413994
     3  Na   1.071527  -0.019647
     4  Na  -0.647783   0.147145
     5  Na  -0.106500   0.002092
     6  Na  -0.061246  -0.022196
     7  Na   0.730933   0.284741
 Sum of Mulliken charges =  -0.00000   1.00000
 Mulliken charges and spin densities with hydrogens summed into heavy atoms:
               1          2
     1  Na  -0.889828   0.193871
     2  Na  -0.097103   0.413994
     3  Na   1.071527  -0.019647
     4  Na  -0.647783   0.147145
     5  Na  -0.106500   0.002092
     6  Na  -0.061246  -0.022196
     7  Na   0.730933   0.284741
 Electronic spatial extent (au):  <R**2>=           1571.3690
 Charge=             -0.0000 electrons
 Dipole moment (field-independent basis, Debye):
    X=              0.2371    Y=              0.0876    Z=             -0.0946  Tot=              0.2699
 Quadrupole moment (field-independent basis, Debye-Ang):
   XX=            -56.8603   YY=            -75.5169   ZZ=            -64.8021
   XY=             -0.1053   XZ=              0.1517   YZ=              1.7643
 Traceless Quadrupole moment (field-independent basis, Debye-Ang):
   XX=              8.8662   YY=             -9.7905   ZZ=              0.9243
   XY=             -0.1053   XZ=              0.1517   YZ=              1.7643
 Octapole moment (field-independent basis, Debye-Ang**2):
  XXX=             20.4472  YYY=              2.3613  ZZZ=              0.8115  XYY=             -4.0038
  XXY=             -1.7883  XXZ=             -6.3044  XZZ=             -4.3641  YZZ=              1.1441
  YYZ=              0.8949  XYZ=             -0.0842
 Hexadecapole moment (field-independent basis, Debye-Ang**3):
 XXXX=          -1120.9254 YYYY=           -929.0233 ZZZZ=           -687.6487 XXXY=              4.6174
 XXXZ=            -10.3419 YYYX=            -29.8084 YYYZ=             11.3641 ZZZX=            -13.1944
 ZZZY=             10.0172 XXYY=           -353.9048 XXZZ=           -313.0230 YYZZ=           -273.0219
 XXYZ=             16.7333 YYXZ=             24.5961 ZZXY=             24.2506
 N-N= 4.138586409464D+02 E-N=-3.557248149283D+03  KE= 1.133529425413D+03
                          Isotropic Fermi Contact Couplings
        Atom                 a.u.       MegaHertz       Gauss      10(-4) cm-1
     1  Na(23)             0.00390       4.61707       1.64748       1.54009
     2  Na(23)             0.28222     333.87272     119.13409     111.36795
     3  Na(23)            -0.00138      -1.63660      -0.58398      -0.54591
     4  Na(23)             0.17164     203.05854      72.45634      67.73304
     5  Na(23)            -0.01692     -20.01759      -7.14278      -6.67715
     6  Na(23)             0.09715     114.92550      41.00828      38.33502
     7  Na(23)             0.22807     269.80777      96.27412      89.99818
 --------------------------------------------------------
       Center         ----  Spin Dipole Couplings  ----
                      3XX-RR        3YY-RR        3ZZ-RR
 --------------------------------------------------------
     1   Atom       -0.038941     -0.029718      0.068659
     2   Atom        0.010161      0.002236     -0.012396
     3   Atom       -0.007913     -0.015794      0.023707
     4   Atom       -0.001894     -0.001715      0.003609
     5   Atom       -0.030629     -0.026827      0.057456
     6   Atom       -0.001034     -0.007886      0.008920
     7   Atom        0.017569     -0.002526     -0.015043
 --------------------------------------------------------
                        XY            XZ            YZ
 --------------------------------------------------------
     1   Atom       -0.004465     -0.012790      0.025514
     2   Atom        0.007988      0.013038      0.009294
     3   Atom        0.001754      0.012115      0.002698
     4   Atom        0.019216     -0.028368     -0.025230
     5   Atom       -0.002051      0.002610      0.017224
     6   Atom        0.010567     -0.024116     -0.021947
     7   Atom        0.013664      0.021351      0.011246
 --------------------------------------------------------


 ---------------------------------------------------------------------------------
              Anisotropic Spin Dipole Couplings in Principal Axis System
 ---------------------------------------------------------------------------------

       Atom             a.u.   MegaHertz   Gauss  10(-4) cm-1        Axes

              Baa    -0.0409    -5.770    -2.059    -1.925  0.9604  0.2745  0.0482
     1 Na(23) Bbb    -0.0356    -5.027    -1.794    -1.677 -0.2534  0.9320 -0.2592
              Bcc     0.0765    10.797     3.853     3.601 -0.1161  0.2367  0.9646
 
              Baa    -0.0198    -2.793    -0.996    -0.932 -0.3245 -0.2655  0.9078
     2 Na(23) Bbb    -0.0027    -0.378    -0.135    -0.126 -0.5587  0.8283  0.0426
              Bcc     0.0225     3.170     1.131     1.058  0.7632  0.4934  0.4172
 
              Baa    -0.0162    -2.283    -0.815    -0.762 -0.2001  0.9798 -0.0055
     3 Na(23) Bbb    -0.0119    -1.676    -0.598    -0.559  0.9255  0.1872 -0.3294
              Bcc     0.0280     3.959     1.413     1.321  0.3217  0.0710  0.9442
 
              Baa    -0.0284    -4.015    -1.433    -1.339  0.6024  0.2745  0.7495
     4 Na(23) Bbb    -0.0206    -2.913    -1.039    -0.972 -0.5724  0.8030  0.1659
              Bcc     0.0491     6.928     2.472     2.311 -0.5563 -0.5290  0.6409
 
              Baa    -0.0330    -4.656    -1.661    -1.553  0.7391  0.6575 -0.1466
     5 Na(23) Bbb    -0.0279    -3.943    -1.407    -1.315 -0.6732  0.7285 -0.1264
              Bcc     0.0609     8.599     3.068     2.868  0.0237  0.1921  0.9811
 
              Baa    -0.0253    -3.571    -1.274    -1.191  0.4111  0.6076  0.6796
     6 Na(23) Bbb    -0.0150    -2.125    -0.758    -0.709  0.7394 -0.6583  0.1412
              Bcc     0.0403     5.696     2.032     1.900 -0.5332 -0.4445  0.7198
 
              Baa    -0.0265    -3.739    -1.334    -1.247 -0.3723 -0.2119  0.9036
     7 Na(23) Bbb    -0.0094    -1.332    -0.475    -0.444 -0.4624  0.8865  0.0174
              Bcc     0.0359     5.071     1.809     1.691  0.8047  0.4113  0.4280
 

 ---------------------------------------------------------------------------------

 No NMR shielding tensors so no spin-rotation constants.
 Leave Link  601 at Mon Nov 13 16:55:07 2023, MaxMem=  1879048192 cpu:               2.7 elap:               0.2
 (Enter /home/sekinelabo/g16/l701.exe)
 ... and contract with generalized density number  0.
 Compute integral first derivatives.
 Leave Link  701 at Mon Nov 13 16:55:07 2023, MaxMem=  1879048192 cpu:               2.0 elap:               0.1
 (Enter /home/sekinelabo/g16/l702.exe)
 L702 exits ... SP integral derivatives will be done elsewhere.
 Leave Link  702 at Mon Nov 13 16:55:07 2023, MaxMem=  1879048192 cpu:               0.5 elap:               0.0
 (Enter /home/sekinelabo/g16/l703.exe)
 Integral derivatives from FoFJK, PRISM(SPDF).
 Compute integral first derivatives, UseDBF=F ICtDFT=           0.
 Calling FoFJK, ICntrl=      2127 FMM=F ISym2X=0 I1Cent= 0 IOpClX= 1 NMat=1 NMatS=1 NMatT=0.
 FoFJK:  IHMeth= 1 ICntrl=    2127 DoSepK=F KAlg= 0 I1Cent=           0 FoldK=F
 IRaf=         0 NMat=       1 IRICut=       1 DoRegI=T DoRafI=F ISym2E= 0 IDoP0=0 IntGTp=1.
 FoFCou: FMM=F IPFlag=           0 FMFlag=      100000 FMFlg1=         800
         NFxFlg=           0 DoJE=F BraDBF=F KetDBF=F FulRan=T
         wScrn=  0.000000 ICntrl=      2127 IOpCl=  1 I1Cent=           0 NGrid=           0
         NMat0=    1 NMatS0=      1 NMatT0=    0 NMatD0=    1 NMtDS0=    0 NMtDT0=    0
 Symmetry not used in FoFCou.
 Leave Link  703 at Mon Nov 13 16:55:10 2023, MaxMem=  1879048192 cpu:              38.1 elap:               2.4
 (Enter /home/sekinelabo/g16/l716.exe)
 Dipole        = 9.32839080D-02 3.44783761D-02-3.72137806D-02
 ***** Axes restored to original set *****
 -------------------------------------------------------------------
 Center     Atomic                   Forces (Hartrees/Bohr)
 Number     Number              X              Y              Z
 -------------------------------------------------------------------
      1       11           0.006442169    0.025564800   -0.002283657
      2       11           0.004967256   -0.004399261    0.020345451
      3       11           0.022343102    0.001097101    0.004122746
      4       11           0.004574004   -0.016257627   -0.013423358
      5       11          -0.012659899   -0.021093996    0.000011723
      6       11          -0.013051657    0.013610682    0.013722924
      7       11          -0.012614974    0.001478301   -0.022495829
 -------------------------------------------------------------------
 Cartesian Forces:  Max     0.025564800 RMS     0.013727976
 Z-matrix is all fixed cartesians, so copy forces.
 Force constants in Cartesian coordinates: 
                1             2             3             4             5 
      1  0.181643D+00
      2  0.226514D-01  0.238000D+00
      3 -0.852691D-03 -0.230075D-01  0.156998D+00
      4 -0.268820D-01 -0.882486D-02  0.664216D-02  0.213603D+00
      5  0.121781D-02 -0.483202D-01  0.397369D-01 -0.454717D-03  0.204540D+00
      6 -0.652127D-02 -0.538377D-02 -0.454109D-01  0.135024D-01 -0.242384D-01
      7 -0.448434D-01 -0.113405D-01  0.223839D-02 -0.496327D-01  0.473270D-02
      8  0.360890D-01 -0.452652D-01  0.130832D-01 -0.110193D-01 -0.385092D-01
      9 -0.114200D-01  0.581303D-02 -0.344863D-01  0.387310D-01  0.953003D-02
     10 -0.206670D-01 -0.125007D-01  0.734803D-02 -0.255107D-01  0.846050D-02
     11  0.116962D-01 -0.536996D-01 -0.290202D-01  0.466031D-02 -0.261598D-01
     12  0.786736D-02  0.121200D-01 -0.189341D-01  0.159780D-01 -0.285866D-01
     13  0.692862D-02 -0.169930D-01 -0.295033D-03 -0.561975D-01 -0.243285D-01
     14 -0.142898D-01 -0.711204D-02  0.545788D-02 -0.252418D-03 -0.476234D-01
     15  0.980532D-04  0.507376D-02  0.134603D-01 -0.310840D-01 -0.321917D-01
     16 -0.362717D-01  0.207301D-01  0.135817D-01 -0.471805D-01  0.106860D-01
     17 -0.264033D-01 -0.305162D-01  0.213660D-01  0.129878D-01 -0.433249D-01
     18  0.112788D-01 -0.744300D-02 -0.251105D-01 -0.288938D-01  0.280491D-01
     19 -0.599072D-01  0.627751D-02 -0.286626D-01 -0.819948D-02 -0.313824D-03
     20 -0.309614D-01 -0.530868D-01 -0.276162D-01  0.290322D-02 -0.601986D-03
     21 -0.450275D-03  0.128275D-01 -0.465168D-01 -0.148758D-01  0.770067D-02
                6             7             8             9            10 
      6  0.280366D+00
      7 -0.157059D-01  0.145719D+00
      8  0.614366D-02  0.818028D-03  0.864037D-01
      9 -0.516223D-01  0.123454D-01 -0.128518D-02  0.926774D-01
     10 -0.839789D-02 -0.391809D-01 -0.247171D-01 -0.298119D-01  0.165272D+00
     11  0.151145D-01  0.809562D-02 -0.351171D-01 -0.119891D-01 -0.204695D-01
     12 -0.619569D-01  0.715876D-02 -0.158823D-01 -0.411318D-01 -0.207169D-01
     13  0.209559D-02 -0.243514D-02 -0.766179D-02  0.680776D-04 -0.366537D-01
     14  0.113139D-01 -0.463421D-02  0.890830D-02 -0.307658D-03  0.165640D-01
     15 -0.532282D-01 -0.972368D-03  0.175329D-02  0.117113D-01  0.214357D-01
     16  0.201368D-01 -0.418867D-02  0.407899D-02  0.208176D-02  0.284979D-03
     17 -0.100340D-01  0.245786D-02  0.108086D-01 -0.383894D-02  0.120882D-01
     18 -0.389731D-01  0.694493D-03 -0.385552D-02  0.104046D-01  0.966141D-02
     19 -0.510970D-02 -0.543833D-02  0.241223D-02 -0.119944D-01 -0.435448D-01
     20  0.708421D-02 -0.129512D-03  0.127708D-01  0.207782D-02  0.205746D-01
     21 -0.291749D-01 -0.575876D-02  0.427807D-04  0.124472D-01  0.204815D-01
               11            12            13            14            15 
     11  0.176019D+00
     12  0.383915D-01  0.180499D+00
     13 -0.248549D-01  0.688444D-02  0.133581D+00
     14 -0.295400D-01 -0.142142D-01  0.346036D-01  0.160815D+00
     15  0.156569D-01 -0.289645D-01 -0.562285D-02 -0.546948D-02  0.108707D+00
     16  0.116408D-01  0.909056D-02 -0.175419D-01 -0.180164D-01  0.321466D-02
     17  0.761076D-02 -0.107036D-01  0.234448D-01 -0.433859D-01 -0.196837D-01
     18 -0.105380D-01  0.526874D-02  0.844931D-02  0.382914D-02 -0.135240D-01
     19  0.923147D-02 -0.262622D-01 -0.276814D-01 -0.139748D-01  0.129308D-01
     20 -0.391138D-01  0.188752D-01  0.157898D-01 -0.420620D-01  0.348609D-01
     21 -0.176156D-01 -0.347801D-01 -0.115795D-01 -0.609576D-03 -0.381617D-01
               16            17            18            19            20 
     16  0.133422D+00
     17 -0.325196D-01  0.130849D+00
     18 -0.312659D-01  0.162034D-01  0.137981D+00
     19 -0.285241D-01  0.794428D-02  0.300756D-01  0.173295D+00
     20  0.340017D-02 -0.320413D-01 -0.262452D-01 -0.115769D-01  0.154135D+00
     21 -0.168396D-01  0.669095D-02 -0.760471D-01  0.290224D-01 -0.903676D-02
               21 
     21  0.212233D+00
 Leave Link  716 at Mon Nov 13 16:55:10 2023, MaxMem=  1879048192 cpu:               0.5 elap:               0.0
 (Enter /home/sekinelabo/g16/l103.exe)

 GradGradGradGradGradGradGradGradGradGradGradGradGradGradGradGradGradGrad
 Berny optimization.
 Search for a local minimum.
 Step number   1 out of a maximum of    2
 All quantities printed in internal units (Hartrees-Bohrs-Radians)
 Second derivative matrix not updated -- first step.
 ITU=  0
     Eigenvalues ---    0.11496   0.12378   0.15104   0.17825   0.18801
     Eigenvalues ---    0.20337   0.21077   0.23565   0.24646   0.25293
     Eigenvalues ---    0.26918   0.29052   0.30360   0.31699   0.34762
 Quadratic step=3.908D-01 exceeds max=3.000D-01 adjusted using Lamda=-4.442D-02.
 Angle between NR and scaled steps=   2.96 degrees.
 Angle between quadratic step and forces=  12.57 degrees.
 Linear search not attempted -- first point.
 B after Tr=    -0.000000    0.000000    0.000000
         Rot=    1.000000   -0.000000    0.000000   -0.000000 Ang=   0.00 deg.
 Variable       Old X    -DE/DX   Delta X   Delta X   Delta X     New X
                                 (Linear)    (Quad)   (Total)
    X1        5.07515   0.00644   0.00000   0.03103   0.03103   5.10618
    Y1        6.67865   0.02556   0.00000   0.09912   0.09912   6.77777
    Z1        2.15578  -0.00228   0.00000  -0.01426  -0.01426   2.14152
    X2        4.51290   0.00497   0.00000   0.01948   0.01948   4.53238
    Y2        2.56333  -0.00440   0.00000  -0.02083  -0.02083   2.54250
    Z2        5.96403   0.02035   0.00000   0.07378   0.07378   6.03781
    X3        9.27380   0.02234   0.00000   0.14283   0.14283   9.41663
    Y3        3.64846   0.00110   0.00000   0.00914   0.00914   3.65760
    Z3        3.67003   0.00412   0.00000   0.02057   0.02057   3.69060
    X4        5.63139   0.00457   0.00000   0.03606   0.03606   5.66745
    Y4        1.13938  -0.01626   0.00000  -0.06931  -0.06931   1.07008
    Z4        0.59192  -0.01342   0.00000  -0.05652  -0.05652   0.53539
    X5        0.75859  -0.01266   0.00000  -0.07575  -0.07575   0.68285
    Y5        0.00000  -0.02109   0.00000  -0.10241  -0.10241  -0.10241
    Z5        3.49862   0.00001   0.00000   0.00419   0.00419   3.50281
    X6        0.00000  -0.01305   0.00000  -0.08431  -0.08431  -0.08431
    Y6        5.63191   0.01361   0.00000   0.06783   0.06783   5.69974
    Z6        4.88070   0.01372   0.00000   0.05582   0.05582   4.93652
    X7        1.00640  -0.01261   0.00000  -0.06935  -0.06935   0.93706
    Y7        4.35737   0.00148   0.00000   0.01646   0.01646   4.37383
    Z7        0.00000  -0.02250   0.00000  -0.08357  -0.08357  -0.08357
         Item               Value     Threshold  Converged?
 Maximum Force            0.025565     0.000450     NO 
 RMS     Force            0.013728     0.000300     NO 
 Maximum Displacement     0.142830     0.001800     NO 
 RMS     Displacement     0.065678     0.001200     NO 
 Predicted change in Energy=-1.125195D-02
 GradGradGradGradGradGradGradGradGradGradGradGradGradGradGradGradGradGrad

 Leave Link  103 at Mon Nov 13 16:55:10 2023, MaxMem=  1879048192 cpu:               0.3 elap:               0.0
 (Enter /home/sekinelabo/g16/l9999.exe)
 1\1\GINC-SEKINELABO-XA7R-R37\Force\UB3LYP\6-311+G(d)\Na7(2)\SEKINELABO
 \13-Nov-2023\0\\#P B3LYP/6-311+g(d) force\\Gaussian input prepared by 
 ASE\\0,2\Na,2.6856517928,3.5341887629,1.1407890968\Na,2.3881246179,1.3
 564557924,3.1560298355\Na,4.90748306,1.9306837552,1.9420982536\Na,2.98
 00011167,0.6029364888,0.3132284151\Na,0.4014296135,0.,1.851392106\Na,0
 .,2.9802768672,2.5827559307\Na,0.532565224,2.3058220213,0.\\Version=ES
 64L-G16RevB.01\State=2-A\HF=-1136.0781693\S2=0.761053\S2-1=0.\S2A=0.75
 0073\RMSD=7.356e-09\RMSF=1.373e-02\Dipole=0.0932839,-0.0344784,0.03721
 38\Quadrupole=6.5917678,-7.2789904,0.6872227,0.0782804,-0.1127608,1.31
 17304\PG=C01 [X(Na7)]\\@


 When I told the people of Northern Ireland that I was
 an atheist, a woman in the audience stood up and said,
 "Yes, but is it the God of the Catholics or the God
 of the Protestants in whom you don't believe?"
                               -- Quentin Crisp
 Job cpu time:       0 days  0 hours  4 minutes 40.0 seconds.
 Elapsed time:       0 days  0 hours  0 minutes 22.6 seconds.
 File lengths (MBytes):  RWF=     32 Int=      0 D2E=      0 Chk=      5 Scr=      1
 Normal termination of Gaussian 16 at Mon Nov 13 16:55:10 2023.
