 Entering Gaussian System, Link 0=g16
 Initial command:
 /home/sekinelabo/g16/l1.exe "/home/sekinelabo/g16temp/Gau-4069682.inp" -scrdir="/home/sekinelabo/g16temp/"
 Entering Link 1 = /home/sekinelabo/g16/l1.exe PID=   4069684.
  
 Copyright (c) 1988-2017, Gaussian, Inc.  All Rights Reserved.
  
 This is part of the Gaussian(R) 16 program.  It is based on
 the Gaussian(R) 09 system (copyright 2009, Gaussian, Inc.),
 the Gaussian(R) 03 system (copyright 2003, Gaussian, Inc.),
 the Gaussian(R) 98 system (copyright 1998, Gaussian, Inc.),
 the Gaussian(R) 94 system (copyright 1995, Gaussian, Inc.),
 the Gaussian 92(TM) system (copyright 1992, Gaussian, Inc.),
 the Gaussian 90(TM) system (copyright 1990, Gaussian, Inc.),
 the Gaussian 88(TM) system (copyright 1988, Gaussian, Inc.),
 the Gaussian 86(TM) system (copyright 1986, Carnegie Mellon
 University), and the Gaussian 82(TM) system (copyright 1983,
 Carnegie Mellon University). Gaussian is a federally registered
 trademark of Gaussian, Inc.
  
 This software contains proprietary and confidential information,
 including trade secrets, belonging to Gaussian, Inc.
  
 This software is provided under written license and may be
 used, copied, transmitted, or stored only in accord with that
 written license.
  
 The following legend is applicable only to US Government
 contracts under FAR:
  
                    RESTRICTED RIGHTS LEGEND
  
 Use, reproduction and disclosure by the US Government is
 subject to restrictions as set forth in subparagraphs (a)
 and (c) of the Commercial Computer Software - Restricted
 Rights clause in FAR 52.227-19.
  
 Gaussian, Inc.
 340 Quinnipiac St., Bldg. 40, Wallingford CT 06492
  
  
 ---------------------------------------------------------------
 Warning -- This program may not be used in any manner that
 competes with the business of Gaussian, Inc. or will provide
 assistance to any competitor of Gaussian, Inc.  The licensee
 of this program is prohibited from giving any competitor of
 Gaussian, Inc. access to this program.  By using this program,
 the user acknowledges that Gaussian, Inc. is engaged in the
 business of creating and licensing software in the field of
 computational chemistry and represents and warrants to the
 licensee that it is not a competitor of Gaussian, Inc. and that
 it will not use this program in any manner prohibited above.
 ---------------------------------------------------------------
  

 Cite this work as:
 Gaussian 16, Revision B.01,
 M. J. Frisch, G. W. Trucks, H. B. Schlegel, G. E. Scuseria, 
 M. A. Robb, J. R. Cheeseman, G. Scalmani, V. Barone, 
 G. A. Petersson, H. Nakatsuji, X. Li, M. Caricato, A. V. Marenich, 
 J. Bloino, B. G. Janesko, R. Gomperts, B. Mennucci, H. P. Hratchian, 
 J. V. Ortiz, A. F. Izmaylov, J. L. Sonnenberg, D. Williams-Young, 
 F. Ding, F. Lipparini, F. Egidi, J. Goings, B. Peng, A. Petrone, 
 T. Henderson, D. Ranasinghe, V. G. Zakrzewski, J. Gao, N. Rega, 
 G. Zheng, W. Liang, M. Hada, M. Ehara, K. Toyota, R. Fukuda, 
 J. Hasegawa, M. Ishida, T. Nakajima, Y. Honda, O. Kitao, H. Nakai, 
 T. Vreven, K. Throssell, J. A. Montgomery, Jr., J. E. Peralta, 
 F. Ogliaro, M. J. Bearpark, J. J. Heyd, E. N. Brothers, K. N. Kudin, 
 V. N. Staroverov, T. A. Keith, R. Kobayashi, J. Normand, 
 K. Raghavachari, A. P. Rendell, J. C. Burant, S. S. Iyengar, 
 J. Tomasi, M. Cossi, J. M. Millam, M. Klene, C. Adamo, R. Cammi, 
 J. W. Ochterski, R. L. Martin, K. Morokuma, O. Farkas, 
 J. B. Foresman, and D. J. Fox, Gaussian, Inc., Wallingford CT, 2016.
 
 ******************************************
 Gaussian 16:  ES64L-G16RevB.01 20-Dec-2017
                13-Nov-2023 
 ******************************************
 %mem=14GB
 %chk=checkpoint.chk
 %nprocshared=16
 Will use up to   16 processors via shared memory.
 -------------------------
 #P B3LYP/6-311+g(d) force
 -------------------------
 1/10=7,30=1,38=1/1,3;
 2/12=2,17=6,18=5,40=1/2;
 3/5=4,6=6,7=11,11=2,25=1,30=1,71=1,74=-5/1,2,3;
 4//1;
 5/5=2,38=5/2;
 6/7=2,8=2,9=2,10=2,28=1/1;
 7/29=1/1,2,3,16;
 1/10=7,30=1/3;
 99//99;
 Leave Link    1 at Mon Nov 13 17:04:51 2023, MaxMem=  1879048192 cpu:               0.3 elap:               0.0
 (Enter /home/sekinelabo/g16/l101.exe)
 ------------------------------
 Gaussian input prepared by ASE
 ------------------------------
 Symbolic Z-matrix:
 Charge =  0 Multiplicity = 2
 Na                    2.80034   1.97729   2.76241 
 Na                    3.74986   2.65121   0. 
 Na                    4.45274   0.        1.22234 
 Na                    5.70992   2.51564   2.26569 
 Na                    3.72847   4.75981   2.12974 
 Na                    1.14026   3.74696   1.00207 
 Na                    0.        1.17061   2.03444 
 
 ITRead=  0  0  0  0  0  0  0
 MicOpt= -1 -1 -1 -1 -1 -1 -1
 NAtoms=      7 NQM=        7 NQMF=       0 NMMI=      0 NMMIF=      0
                NMic=       0 NMicF=      0.
                    Isotopes and Nuclear Properties:
 (Nuclear quadrupole moments (NQMom) in fm**2, nuclear magnetic moments (NMagM)
  in nuclear magnetons)

  Atom         1           2           3           4           5           6           7
 IAtWgt=          23          23          23          23          23          23          23
 AtmWgt=  22.9897697  22.9897697  22.9897697  22.9897697  22.9897697  22.9897697  22.9897697
 NucSpn=           3           3           3           3           3           3           3
 AtZEff=  -0.0000000  -0.0000000  -0.0000000  -0.0000000  -0.0000000  -0.0000000  -0.0000000
 NQMom=   10.4000000  10.4000000  10.4000000  10.4000000  10.4000000  10.4000000  10.4000000
 NMagM=    2.2175200   2.2175200   2.2175200   2.2175200   2.2175200   2.2175200   2.2175200
 AtZNuc=  11.0000000  11.0000000  11.0000000  11.0000000  11.0000000  11.0000000  11.0000000
 Leave Link  101 at Mon Nov 13 17:04:51 2023, MaxMem=  1879048192 cpu:               2.6 elap:               0.2
 (Enter /home/sekinelabo/g16/l103.exe)

 GradGradGradGradGradGradGradGradGradGradGradGradGradGradGradGradGradGrad
 Berny optimization.
 Initialization pass.
 Trust Radius=3.00D-01 FncErr=1.00D-07 GrdErr=1.00D-07 EigMax=2.50D+02 EigMin=1.00D-04
 Number of steps in this run=      2 maximum allowed number of steps=      2.
 GradGradGradGradGradGradGradGradGradGradGradGradGradGradGradGradGradGrad

 Leave Link  103 at Mon Nov 13 17:04:51 2023, MaxMem=  1879048192 cpu:               0.2 elap:               0.0
 (Enter /home/sekinelabo/g16/l202.exe)
                          Input orientation:                          
 ---------------------------------------------------------------------
 Center     Atomic      Atomic             Coordinates (Angstroms)
 Number     Number       Type             X           Y           Z
 ---------------------------------------------------------------------
      1         11           0        2.800338    1.977287    2.762408
      2         11           0        3.749863    2.651208    0.000000
      3         11           0        4.452745    0.000000    1.222338
      4         11           0        5.709917    2.515636    2.265686
      5         11           0        3.728473    4.759811    2.129738
      6         11           0        1.140263    3.746956    1.002070
      7         11           0        0.000000    1.170612    2.034442
 ---------------------------------------------------------------------
                    Distance matrix (angstroms):
                    1          2          3          4          5
     1  Na   0.000000
     2  Na   2.997777   0.000000
     3  Na   3.001987   3.002841   0.000000
     4  Na   3.000367   2.998920   2.999580   0.000000
     5  Na   3.000691   2.997073   4.899362   2.996818   0.000000
     6  Na   2.997728   3.002469   5.006070   4.898429   2.999390
     7  Na   3.003757   4.515816   4.675124   5.870751   5.176190
                    6          7
     6  Na   0.000000
     7  Na   3.000590   0.000000
 Stoichiometry    Na7(2)
 Framework group  C1[X(Na7)]
 Deg. of freedom    15
 Full point group                 C1      NOp   1
 Largest Abelian subgroup         C1      NOp   1
 Largest concise Abelian subgroup C1      NOp   1
                         Standard orientation:                         
 ---------------------------------------------------------------------
 Center     Atomic      Atomic             Coordinates (Angstroms)
 Number     Number       Type             X           Y           Z
 ---------------------------------------------------------------------
      1         11           0       -0.282747    0.425786   -1.131454
      2         11           0        0.666778   -0.248135    1.630955
      3         11           0        1.369659    2.403073    0.408617
      4         11           0        2.626831   -0.112563   -0.634731
      5         11           0        0.645388   -2.356738   -0.498783
      6         11           0       -1.942823   -1.343883    0.628884
      7         11           0       -3.083086    1.232461   -0.403487
 ---------------------------------------------------------------------
 Rotational constants (GHZ):           1.0868238           0.7763820           0.5799174
 Leave Link  202 at Mon Nov 13 17:04:51 2023, MaxMem=  1879048192 cpu:               0.0 elap:               0.0
 (Enter /home/sekinelabo/g16/l301.exe)
 Standard basis: 6-311+G(d) (5D, 7F)
 Ernie: Thresh=  0.10000D-02 Tol=  0.10000D-05 Strict=F.
 There are   217 symmetry adapted cartesian basis functions of A   symmetry.
 There are   210 symmetry adapted basis functions of A   symmetry.
   210 basis functions,   350 primitive gaussians,   217 cartesian basis functions
    39 alpha electrons       38 beta electrons
       nuclear repulsion energy       388.8923049861 Hartrees.
 IExCor=  402 DFT=T Ex+Corr=B3LYP ExCW=0 ScaHFX=  0.200000
 ScaDFX=  0.800000  0.720000  1.000000  0.810000 ScalE2=  1.000000  1.000000
 IRadAn=      5 IRanWt=     -1 IRanGd=            0 ICorTp=0 IEmpDi=  4
 NAtoms=    7 NActive=    7 NUniq=    7 SFac= 1.00D+00 NAtFMM=   60 NAOKFM=F Big=F
 Integral buffers will be    131072 words long.
 Raffenetti 2 integral format.
 Two-electron integral symmetry is turned on.
 Leave Link  301 at Mon Nov 13 17:04:51 2023, MaxMem=  1879048192 cpu:               0.6 elap:               0.0
 (Enter /home/sekinelabo/g16/l302.exe)
 NPDir=0 NMtPBC=     1 NCelOv=     1 NCel=       1 NClECP=     1 NCelD=      1
         NCelK=      1 NCelE2=     1 NClLst=     1 CellRange=     0.0.
 One-electron integrals computed using PRISM.
 One-electron integral symmetry used in STVInt
 NBasis=   210 RedAO= T EigKep=  1.96D-06  NBF=   210
 NBsUse=   210 1.00D-06 EigRej= -1.00D+00 NBFU=   210
 Precomputing XC quadrature grid using
 IXCGrd= 4 IRadAn=           5 IRanWt=          -1 IRanGd=           0 AccXCQ= 0.00D+00.
 Generated NRdTot=       0 NPtTot=           0 NUsed=           0 NTot=          32
 NSgBfM=   211   211   211   211   211 MxSgAt=     7 MxSgA2=     7.
 Leave Link  302 at Mon Nov 13 17:04:51 2023, MaxMem=  1879048192 cpu:               2.2 elap:               0.1
 (Enter /home/sekinelabo/g16/l303.exe)
 DipDrv:  MaxL=1.
 Leave Link  303 at Mon Nov 13 17:04:51 2023, MaxMem=  1879048192 cpu:               0.7 elap:               0.0
 (Enter /home/sekinelabo/g16/l401.exe)
 ExpMin= 7.60D-03 ExpMax= 3.62D+04 ExpMxC= 1.21D+03 IAcc=3 IRadAn=         5 AccDes= 0.00D+00
 Harris functional with IExCor=  402 and IRadAn=       5 diagonalized for initial guess.
 HarFok:  IExCor=  402 AccDes= 0.00D+00 IRadAn=         5 IDoV= 1 UseB2=F ITyADJ=14
 ICtDFT=  3500011 ScaDFX=  1.000000  1.000000  1.000000  1.000000
 FoFCou: FMM=F IPFlag=           0 FMFlag=      100000 FMFlg1=           0
         NFxFlg=           0 DoJE=T BraDBF=F KetDBF=T FulRan=T
         wScrn=  0.000000 ICntrl=       500 IOpCl=  0 I1Cent=   200000004 NGrid=           0
         NMat0=    1 NMatS0=      1 NMatT0=    0 NMatD0=    1 NMtDS0=    0 NMtDT0=    0
 Petite list used in FoFCou.
 Harris En= -1135.87533430103    
 JPrj=0 DoOrth=F DoCkMO=F.
 Initial guess <Sx>= 0.0000 <Sy>= 0.0000 <Sz>= 0.5000 <S**2>= 0.7500 S= 0.5000
 Leave Link  401 at Mon Nov 13 17:04:52 2023, MaxMem=  1879048192 cpu:               4.8 elap:               0.3
 (Enter /home/sekinelabo/g16/l502.exe)
 Keep R1 and R2 ints in memory in canonical form, NReq=507620388.
 FoFCou: FMM=F IPFlag=           0 FMFlag=           0 FMFlg1=           0
         NFxFlg=           0 DoJE=F BraDBF=F KetDBF=F FulRan=T
         wScrn=  0.000000 ICntrl=       600 IOpCl=  0 I1Cent=           0 NGrid=           0
         NMat0=    1 NMatS0=  22155 NMatT0=    0 NMatD0=    1 NMtDS0=    0 NMtDT0=    0
 Symmetry not used in FoFCou.
 Two-electron integral symmetry not used.
 UHF open shell SCF:
 Using DIIS extrapolation, IDIIS=  1040.
 NGot=  1879048192 LenX=  1388082348 LenY=  1388034818
 Requested convergence on RMS density matrix=1.00D-08 within 128 cycles.
 Requested convergence on MAX density matrix=1.00D-06.
 Requested convergence on             energy=1.00D-06.
 No special actions if energy rises.

 Cycle   1  Pass 1  IDiag  1:
 E= -1136.05371448546    
 DIIS: error= 1.47D-02 at cycle   1 NSaved=   1.
 NSaved= 1 IEnMin= 1 EnMin= -1136.05371448546     IErMin= 1 ErrMin= 1.47D-02
 ErrMax= 1.47D-02  0.00D+00 EMaxC= 1.00D-01 BMatC= 2.08D-01 BMatP= 2.08D-01
 IDIUse=3 WtCom= 8.53D-01 WtEn= 1.47D-01
 Coeff-Com:  0.100D+01
 Coeff-En:   0.100D+01
 Coeff:      0.100D+01
 Gap=     0.041 Goal=   None    Shift=    0.000
 Gap=     0.052 Goal=   None    Shift=    0.000
 GapD=    0.041 DampG=0.250 DampE=0.500 DampFc=0.2500 IDamp=-1.
 Damping current iteration by 2.50D-01
 RMSDP=1.03D-01 MaxDP=1.11D+01              OVMax= 2.78D-01

 Cycle   2  Pass 1  IDiag  1:
 E= -1136.07083659284     Delta-E=       -0.017122107380 Rises=F Damp=T
 DIIS: error= 9.49D-03 at cycle   2 NSaved=   2.
 NSaved= 2 IEnMin= 2 EnMin= -1136.07083659284     IErMin= 2 ErrMin= 9.49D-03
 ErrMax= 9.49D-03  0.00D+00 EMaxC= 1.00D-01 BMatC= 7.77D-02 BMatP= 2.08D-01
 IDIUse=3 WtCom= 9.05D-01 WtEn= 9.49D-02
 Coeff-Com: -0.122D+01 0.222D+01
 Coeff-En:   0.000D+00 0.100D+01
 Coeff:     -0.111D+01 0.211D+01
 Gap=     0.057 Goal=   None    Shift=    0.000
 Gap=     0.056 Goal=   None    Shift=    0.000
 RMSDP=4.07D-02 MaxDP=4.63D+00 DE=-1.71D-02 OVMax= 2.01D-01

 Cycle   3  Pass 1  IDiag  1:
 E= -1136.09722464765     Delta-E=       -0.026388054814 Rises=F Damp=F
 DIIS: error= 4.36D-03 at cycle   3 NSaved=   3.
 NSaved= 3 IEnMin= 3 EnMin= -1136.09722464765     IErMin= 3 ErrMin= 4.36D-03
 ErrMax= 4.36D-03  0.00D+00 EMaxC= 1.00D-01 BMatC= 6.68D-03 BMatP= 7.77D-02
 IDIUse=3 WtCom= 9.56D-01 WtEn= 4.36D-02
 Coeff-Com: -0.361D+00 0.650D+00 0.711D+00
 Coeff-En:   0.000D+00 0.000D+00 0.100D+01
 Coeff:     -0.345D+00 0.622D+00 0.723D+00
 Gap=     0.051 Goal=   None    Shift=    0.000
 Gap=     0.052 Goal=   None    Shift=    0.000
 RMSDP=2.14D-02 MaxDP=1.86D+00 DE=-2.64D-02 OVMax= 1.01D-01

 Cycle   4  Pass 1  IDiag  1:
 E= -1136.09848323585     Delta-E=       -0.001258588194 Rises=F Damp=F
 DIIS: error= 3.28D-03 at cycle   4 NSaved=   4.
 NSaved= 4 IEnMin= 4 EnMin= -1136.09848323585     IErMin= 4 ErrMin= 3.28D-03
 ErrMax= 3.28D-03  0.00D+00 EMaxC= 1.00D-01 BMatC= 4.05D-03 BMatP= 6.68D-03
 IDIUse=3 WtCom= 9.67D-01 WtEn= 3.28D-02
 Coeff-Com: -0.100D-01 0.182D-01 0.435D+00 0.557D+00
 Coeff-En:   0.000D+00 0.000D+00 0.429D+00 0.571D+00
 Coeff:     -0.971D-02 0.176D-01 0.435D+00 0.557D+00
 Gap=     0.054 Goal=   None    Shift=    0.000
 Gap=     0.052 Goal=   None    Shift=    0.000
 RMSDP=6.32D-03 MaxDP=4.40D-01 DE=-1.26D-03 OVMax= 5.79D-02

 Cycle   5  Pass 1  IDiag  1:
 E= -1136.10122779980     Delta-E=       -0.002744563951 Rises=F Damp=F
 DIIS: error= 1.03D-03 at cycle   5 NSaved=   5.
 NSaved= 5 IEnMin= 5 EnMin= -1136.10122779980     IErMin= 5 ErrMin= 1.03D-03
 ErrMax= 1.03D-03  0.00D+00 EMaxC= 1.00D-01 BMatC= 3.40D-04 BMatP= 4.05D-03
 IDIUse=3 WtCom= 9.90D-01 WtEn= 1.03D-02
 Coeff-Com: -0.856D-03 0.549D-03 0.268D+00 0.364D+00 0.368D+00
 Coeff-En:   0.000D+00 0.000D+00 0.000D+00 0.520D-01 0.948D+00
 Coeff:     -0.847D-03 0.544D-03 0.265D+00 0.361D+00 0.374D+00
 Gap=     0.054 Goal=   None    Shift=    0.000
 Gap=     0.052 Goal=   None    Shift=    0.000
 RMSDP=1.55D-03 MaxDP=1.09D-01 DE=-2.74D-03 OVMax= 1.86D-02

 Cycle   6  Pass 1  IDiag  1:
 E= -1136.10158991679     Delta-E=       -0.000362116990 Rises=F Damp=F
 DIIS: error= 1.31D-04 at cycle   6 NSaved=   6.
 NSaved= 6 IEnMin= 6 EnMin= -1136.10158991679     IErMin= 6 ErrMin= 1.31D-04
 ErrMax= 1.31D-04  0.00D+00 EMaxC= 1.00D-01 BMatC= 4.44D-06 BMatP= 3.40D-04
 IDIUse=3 WtCom= 9.99D-01 WtEn= 1.31D-03
 Coeff-Com: -0.141D-02 0.151D-02-0.377D-02-0.817D-02 0.722D-01 0.940D+00
 Coeff-En:   0.000D+00 0.000D+00 0.000D+00 0.000D+00 0.000D+00 0.100D+01
 Coeff:     -0.140D-02 0.151D-02-0.377D-02-0.815D-02 0.721D-01 0.940D+00
 Gap=     0.054 Goal=   None    Shift=    0.000
 Gap=     0.052 Goal=   None    Shift=    0.000
 RMSDP=5.46D-04 MaxDP=5.49D-02 DE=-3.62D-04 OVMax= 3.63D-03

 Cycle   7  Pass 1  IDiag  1:
 E= -1136.10159429332     Delta-E=       -0.000004376537 Rises=F Damp=F
 DIIS: error= 8.71D-05 at cycle   7 NSaved=   7.
 NSaved= 7 IEnMin= 7 EnMin= -1136.10159429332     IErMin= 7 ErrMin= 8.71D-05
 ErrMax= 8.71D-05  0.00D+00 EMaxC= 1.00D-01 BMatC= 3.01D-06 BMatP= 4.44D-06
 IDIUse=1 WtCom= 1.00D+00 WtEn= 0.00D+00
 Coeff-Com: -0.767D-03 0.824D-03-0.321D-01-0.457D-01 0.539D-02 0.604D+00
 Coeff-Com:  0.468D+00
 Coeff:     -0.767D-03 0.824D-03-0.321D-01-0.457D-01 0.539D-02 0.604D+00
 Coeff:      0.468D+00
 Gap=     0.054 Goal=   None    Shift=    0.000
 Gap=     0.052 Goal=   None    Shift=    0.000
 RMSDP=2.38D-04 MaxDP=1.38D-02 DE=-4.38D-06 OVMax= 2.15D-03

 Cycle   8  Pass 1  IDiag  1:
 E= -1136.10159790826     Delta-E=       -0.000003614939 Rises=F Damp=F
 DIIS: error= 2.54D-05 at cycle   8 NSaved=   8.
 NSaved= 8 IEnMin= 8 EnMin= -1136.10159790826     IErMin= 8 ErrMin= 2.54D-05
 ErrMax= 2.54D-05  0.00D+00 EMaxC= 1.00D-01 BMatC= 1.60D-07 BMatP= 3.01D-06
 IDIUse=1 WtCom= 1.00D+00 WtEn= 0.00D+00
 Coeff-Com:  0.584D-03-0.759D-03-0.302D-02-0.258D-02-0.170D-01-0.162D+00
 Coeff-Com:  0.739D-01 0.111D+01
 Coeff:      0.584D-03-0.759D-03-0.302D-02-0.258D-02-0.170D-01-0.162D+00
 Coeff:      0.739D-01 0.111D+01
 Gap=     0.054 Goal=   None    Shift=    0.000
 Gap=     0.052 Goal=   None    Shift=    0.000
 RMSDP=1.38D-04 MaxDP=7.93D-03 DE=-3.61D-06 OVMax= 1.22D-03

 Cycle   9  Pass 1  IDiag  1:
 E= -1136.10159846867     Delta-E=       -0.000000560409 Rises=F Damp=F
 DIIS: error= 9.97D-06 at cycle   9 NSaved=   9.
 NSaved= 9 IEnMin= 9 EnMin= -1136.10159846867     IErMin= 9 ErrMin= 9.97D-06
 ErrMax= 9.97D-06  0.00D+00 EMaxC= 1.00D-01 BMatC= 3.20D-08 BMatP= 1.60D-07
 IDIUse=1 WtCom= 1.00D+00 WtEn= 0.00D+00
 Coeff-Com:  0.389D-03-0.487D-03 0.154D-02 0.289D-02-0.837D-02-0.127D+00
 Coeff-Com: -0.238D-01 0.396D+00 0.759D+00
 Coeff:      0.389D-03-0.487D-03 0.154D-02 0.289D-02-0.837D-02-0.127D+00
 Coeff:     -0.238D-01 0.396D+00 0.759D+00
 Gap=     0.054 Goal=   None    Shift=    0.000
 Gap=     0.052 Goal=   None    Shift=    0.000
 RMSDP=5.60D-05 MaxDP=4.64D-03 DE=-5.60D-07 OVMax= 5.25D-04

 Cycle  10  Pass 1  IDiag  1:
 E= -1136.10159855326     Delta-E=       -0.000000084590 Rises=F Damp=F
 DIIS: error= 5.71D-06 at cycle  10 NSaved=  10.
 NSaved=10 IEnMin=10 EnMin= -1136.10159855326     IErMin=10 ErrMin= 5.71D-06
 ErrMax= 5.71D-06  0.00D+00 EMaxC= 1.00D-01 BMatC= 1.37D-08 BMatP= 3.20D-08
 IDIUse=1 WtCom= 1.00D+00 WtEn= 0.00D+00
 Coeff-Com:  0.656D-04-0.743D-04 0.162D-02 0.200D-02 0.549D-03-0.205D-01
 Coeff-Com: -0.318D-01-0.109D+00 0.412D+00 0.744D+00
 Coeff:      0.656D-04-0.743D-04 0.162D-02 0.200D-02 0.549D-03-0.205D-01
 Coeff:     -0.318D-01-0.109D+00 0.412D+00 0.744D+00
 Gap=     0.054 Goal=   None    Shift=    0.000
 Gap=     0.052 Goal=   None    Shift=    0.000
 RMSDP=3.52D-05 MaxDP=2.50D-03 DE=-8.46D-08 OVMax= 3.37D-04

 Cycle  11  Pass 1  IDiag  1:
 E= -1136.10159858618     Delta-E=       -0.000000032914 Rises=F Damp=F
 DIIS: error= 2.26D-06 at cycle  11 NSaved=  11.
 NSaved=11 IEnMin=11 EnMin= -1136.10159858618     IErMin=11 ErrMin= 2.26D-06
 ErrMax= 2.26D-06  0.00D+00 EMaxC= 1.00D-01 BMatC= 1.84D-09 BMatP= 1.37D-08
 IDIUse=1 WtCom= 1.00D+00 WtEn= 0.00D+00
 Coeff-Com: -0.848D-04 0.113D-03 0.317D-03 0.121D-04 0.263D-02 0.226D-01
 Coeff-Com: -0.448D-02-0.129D+00-0.709D-01 0.219D+00 0.959D+00
 Coeff:     -0.848D-04 0.113D-03 0.317D-03 0.121D-04 0.263D-02 0.226D-01
 Coeff:     -0.448D-02-0.129D+00-0.709D-01 0.219D+00 0.959D+00
 Gap=     0.054 Goal=   None    Shift=    0.000
 Gap=     0.052 Goal=   None    Shift=    0.000
 RMSDP=1.90D-05 MaxDP=1.72D-03 DE=-3.29D-08 OVMax= 1.96D-04

 Cycle  12  Pass 1  IDiag  1:
 E= -1136.10159859383     Delta-E=       -0.000000007657 Rises=F Damp=F
 DIIS: error= 6.45D-07 at cycle  12 NSaved=  12.
 NSaved=12 IEnMin=12 EnMin= -1136.10159859383     IErMin=12 ErrMin= 6.45D-07
 ErrMax= 6.45D-07  0.00D+00 EMaxC= 1.00D-01 BMatC= 2.06D-10 BMatP= 1.84D-09
 IDIUse=1 WtCom= 1.00D+00 WtEn= 0.00D+00
 Coeff-Com: -0.298D-04 0.368D-04-0.121D-03-0.213D-03 0.625D-03 0.887D-02
 Coeff-Com:  0.236D-02-0.178D-01-0.651D-01-0.700D-01 0.183D+00 0.959D+00
 Coeff:     -0.298D-04 0.368D-04-0.121D-03-0.213D-03 0.625D-03 0.887D-02
 Coeff:      0.236D-02-0.178D-01-0.651D-01-0.700D-01 0.183D+00 0.959D+00
 Gap=     0.054 Goal=   None    Shift=    0.000
 Gap=     0.052 Goal=   None    Shift=    0.000
 RMSDP=5.49D-06 MaxDP=3.71D-04 DE=-7.66D-09 OVMax= 7.83D-05

 Cycle  13  Pass 1  IDiag  1:
 E= -1136.10159859482     Delta-E=       -0.000000000983 Rises=F Damp=F
 DIIS: error= 2.91D-07 at cycle  13 NSaved=  13.
 NSaved=13 IEnMin=13 EnMin= -1136.10159859482     IErMin=13 ErrMin= 2.91D-07
 ErrMax= 2.91D-07  0.00D+00 EMaxC= 1.00D-01 BMatC= 3.52D-11 BMatP= 2.06D-10
 IDIUse=1 WtCom= 1.00D+00 WtEn= 0.00D+00
 Coeff-Com:  0.141D-04-0.188D-04-0.513D-04 0.146D-05-0.383D-03-0.352D-02
 Coeff-Com:  0.731D-03 0.220D-01 0.679D-02-0.454D-01-0.155D+00 0.123D+00
 Coeff-Com:  0.105D+01
 Coeff:      0.141D-04-0.188D-04-0.513D-04 0.146D-05-0.383D-03-0.352D-02
 Coeff:      0.731D-03 0.220D-01 0.679D-02-0.454D-01-0.155D+00 0.123D+00
 Coeff:      0.105D+01
 Gap=     0.054 Goal=   None    Shift=    0.000
 Gap=     0.052 Goal=   None    Shift=    0.000
 RMSDP=2.49D-06 MaxDP=1.89D-04 DE=-9.83D-10 OVMax= 3.48D-05

 Cycle  14  Pass 1  IDiag  1:
 E= -1136.10159859499     Delta-E=       -0.000000000171 Rises=F Damp=F
 DIIS: error= 1.13D-07 at cycle  14 NSaved=  14.
 NSaved=14 IEnMin=14 EnMin= -1136.10159859499     IErMin=14 ErrMin= 1.13D-07
 ErrMax= 1.13D-07  0.00D+00 EMaxC= 1.00D-01 BMatC= 6.31D-12 BMatP= 3.52D-11
 IDIUse=1 WtCom= 1.00D+00 WtEn= 0.00D+00
 Coeff-Com:  0.153D-05-0.164D-05-0.154D-04-0.140D-04-0.775D-04-0.641D-03
 Coeff-Com:  0.573D-04 0.182D-03 0.773D-02 0.153D-01-0.696D-02-0.201D+00
 Coeff-Com: -0.414D-01 0.123D+01
 Coeff:      0.153D-05-0.164D-05-0.154D-04-0.140D-04-0.775D-04-0.641D-03
 Coeff:      0.573D-04 0.182D-03 0.773D-02 0.153D-01-0.696D-02-0.201D+00
 Coeff:     -0.414D-01 0.123D+01
 Gap=     0.054 Goal=   None    Shift=    0.000
 Gap=     0.052 Goal=   None    Shift=    0.000
 RMSDP=1.44D-06 MaxDP=1.46D-04 DE=-1.71D-10 OVMax= 1.78D-05

 Cycle  15  Pass 1  IDiag  1:
 E= -1136.10159859504     Delta-E=       -0.000000000049 Rises=F Damp=F
 DIIS: error= 4.68D-08 at cycle  15 NSaved=  15.
 NSaved=15 IEnMin=15 EnMin= -1136.10159859504     IErMin=15 ErrMin= 4.68D-08
 ErrMax= 4.68D-08  0.00D+00 EMaxC= 1.00D-01 BMatC= 9.11D-13 BMatP= 6.31D-12
 IDIUse=1 WtCom= 1.00D+00 WtEn= 0.00D+00
 Coeff-Com: -0.503D-06 0.802D-06 0.208D-04 0.156D-04 0.479D-04 0.154D-03
 Coeff-Com: -0.303D-03-0.251D-02 0.955D-03 0.758D-02 0.204D-01-0.234D-01
 Coeff-Com: -0.173D+00 0.393D-01 0.113D+01
 Coeff:     -0.503D-06 0.802D-06 0.208D-04 0.156D-04 0.479D-04 0.154D-03
 Coeff:     -0.303D-03-0.251D-02 0.955D-03 0.758D-02 0.204D-01-0.234D-01
 Coeff:     -0.173D+00 0.393D-01 0.113D+01
 Gap=     0.054 Goal=   None    Shift=    0.000
 Gap=     0.052 Goal=   None    Shift=    0.000
 RMSDP=6.22D-07 MaxDP=6.74D-05 DE=-4.87D-11 OVMax= 5.81D-06

 Cycle  16  Pass 1  IDiag  1:
 E= -1136.10159859505     Delta-E=       -0.000000000011 Rises=F Damp=F
 DIIS: error= 2.01D-08 at cycle  16 NSaved=  16.
 NSaved=16 IEnMin=16 EnMin= -1136.10159859505     IErMin=16 ErrMin= 2.01D-08
 ErrMax= 2.01D-08  0.00D+00 EMaxC= 1.00D-01 BMatC= 1.31D-13 BMatP= 9.11D-13
 IDIUse=1 WtCom= 1.00D+00 WtEn= 0.00D+00
 Coeff-Com: -0.744D-06 0.929D-06 0.137D-05-0.425D-06 0.173D-04 0.172D-03
 Coeff-Com:  0.240D-04-0.176D-03-0.166D-02-0.200D-02 0.186D-02 0.311D-01
 Coeff-Com: -0.117D-01-0.157D+00 0.202D-01 0.112D+01
 Coeff:     -0.744D-06 0.929D-06 0.137D-05-0.425D-06 0.173D-04 0.172D-03
 Coeff:      0.240D-04-0.176D-03-0.166D-02-0.200D-02 0.186D-02 0.311D-01
 Coeff:     -0.117D-01-0.157D+00 0.202D-01 0.112D+01
 Gap=     0.054 Goal=   None    Shift=    0.000
 Gap=     0.052 Goal=   None    Shift=    0.000
 RMSDP=1.93D-07 MaxDP=1.31D-05 DE=-1.14D-11 OVMax= 2.23D-06

 Cycle  17  Pass 1  IDiag  1:
 E= -1136.10159859506     Delta-E=       -0.000000000009 Rises=F Damp=F
 DIIS: error= 1.15D-08 at cycle  17 NSaved=  17.
 NSaved=17 IEnMin=17 EnMin= -1136.10159859506     IErMin=17 ErrMin= 1.15D-08
 ErrMax= 1.15D-08  0.00D+00 EMaxC= 1.00D-01 BMatC= 3.25D-14 BMatP= 1.31D-13
 IDIUse=1 WtCom= 1.00D+00 WtEn= 0.00D+00
 Coeff-Com:  0.370D-07-0.822D-07-0.327D-05-0.196D-05-0.916D-05-0.147D-04
 Coeff-Com:  0.616D-04 0.457D-03-0.306D-03-0.156D-02-0.436D-02 0.878D-02
 Coeff-Com:  0.339D-01-0.385D-01-0.212D+00 0.250D+00 0.964D+00
 Coeff:      0.370D-07-0.822D-07-0.327D-05-0.196D-05-0.916D-05-0.147D-04
 Coeff:      0.616D-04 0.457D-03-0.306D-03-0.156D-02-0.436D-02 0.878D-02
 Coeff:      0.339D-01-0.385D-01-0.212D+00 0.250D+00 0.964D+00
 Gap=     0.054 Goal=   None    Shift=    0.000
 Gap=     0.052 Goal=   None    Shift=    0.000
 RMSDP=6.46D-08 MaxDP=4.58D-06 DE=-8.64D-12 OVMax= 9.43D-07

 Cycle  18  Pass 1  IDiag  1:
 E= -1136.10159859504     Delta-E=        0.000000000016 Rises=F Damp=F
 DIIS: error= 4.07D-09 at cycle  18 NSaved=  18.
 NSaved=18 IEnMin=17 EnMin= -1136.10159859506     IErMin=18 ErrMin= 4.07D-09
 ErrMax= 4.07D-09  0.00D+00 EMaxC= 1.00D-01 BMatC= 5.48D-15 BMatP= 3.25D-14
 IDIUse=1 WtCom= 1.00D+00 WtEn= 0.00D+00
 Coeff-Com:  0.237D-06-0.298D-06-0.195D-06 0.313D-06-0.417D-05-0.521D-04
 Coeff-Com: -0.702D-05 0.644D-04 0.379D-03 0.517D-03-0.631D-04-0.879D-02
 Coeff-Com:  0.341D-02 0.397D-01-0.426D-02-0.269D+00 0.236D-01 0.121D+01
 Coeff:      0.237D-06-0.298D-06-0.195D-06 0.313D-06-0.417D-05-0.521D-04
 Coeff:     -0.702D-05 0.644D-04 0.379D-03 0.517D-03-0.631D-04-0.879D-02
 Coeff:      0.341D-02 0.397D-01-0.426D-02-0.269D+00 0.236D-01 0.121D+01
 Gap=     0.054 Goal=   None    Shift=    0.000
 Gap=     0.052 Goal=   None    Shift=    0.000
 RMSDP=3.63D-08 MaxDP=1.98D-06 DE= 1.64D-11 OVMax= 4.58D-07

 Cycle  19  Pass 1  IDiag  1:
 E= -1136.10159859506     Delta-E=       -0.000000000019 Rises=F Damp=F
 DIIS: error= 1.96D-09 at cycle  19 NSaved=  19.
 NSaved=19 IEnMin=19 EnMin= -1136.10159859506     IErMin=19 ErrMin= 1.96D-09
 ErrMax= 1.96D-09  0.00D+00 EMaxC= 1.00D-01 BMatC= 7.64D-16 BMatP= 5.48D-15
 IDIUse=1 WtCom= 1.00D+00 WtEn= 0.00D+00
 Large coefficients: NSaved= 19 BigCof=    0.00 CofMax=   10.00 Det=-9.58D-16
 Inversion failed.  Reducing to 18 matrices.
 Large coefficients: NSaved= 18 BigCof=    0.00 CofMax=   10.00 Det=-1.25D-15
 Inversion failed.  Reducing to 17 matrices.
 Large coefficients: NSaved= 17 BigCof=    0.00 CofMax=   10.00 Det=-1.38D-15
 Inversion failed.  Reducing to 16 matrices.
 Large coefficients: NSaved= 16 BigCof=    0.00 CofMax=   10.00 Det=-1.38D-15
 Inversion failed.  Reducing to 15 matrices.
 Coeff-Com:  0.283D-07-0.182D-05-0.353D-05-0.449D-05 0.295D-04 0.371D-04
 Coeff-Com:  0.149D-03-0.471D-03-0.237D-02 0.413D-02 0.151D-01-0.157D-01
 Coeff-Com: -0.118D+00-0.370D-01 0.115D+01
 Coeff:      0.283D-07-0.182D-05-0.353D-05-0.449D-05 0.295D-04 0.371D-04
 Coeff:      0.149D-03-0.471D-03-0.237D-02 0.413D-02 0.151D-01-0.157D-01
 Coeff:     -0.118D+00-0.370D-01 0.115D+01
 Gap=     0.054 Goal=   None    Shift=    0.000
 Gap=     0.052 Goal=   None    Shift=    0.000
 RMSDP=1.38D-08 MaxDP=9.51D-07 DE=-1.93D-11 OVMax= 1.91D-07

 Cycle  20  Pass 1  IDiag  1:
 E= -1136.10159859505     Delta-E=        0.000000000007 Rises=F Damp=F
 DIIS: error= 8.96D-10 at cycle  20 NSaved=  16.
 NSaved=16 IEnMin=15 EnMin= -1136.10159859506     IErMin=16 ErrMin= 8.96D-10
 ErrMax= 8.96D-10  0.00D+00 EMaxC= 1.00D-01 BMatC= 1.62D-16 BMatP= 7.64D-16
 IDIUse=1 WtCom= 1.00D+00 WtEn= 0.00D+00
 Large coefficients: NSaved= 16 BigCof=    0.00 CofMax=   10.00 Det=-1.99D-16
 Inversion failed.  Reducing to 15 matrices.
 Coeff-Com:  0.897D-06 0.376D-05 0.179D-04-0.421D-04-0.106D-03-0.149D-03
 Coeff-Com:  0.125D-02 0.308D-03-0.591D-02-0.349D-02 0.434D-01 0.234D-01
 Coeff-Com: -0.206D+00-0.200D+00 0.135D+01
 Coeff:      0.897D-06 0.376D-05 0.179D-04-0.421D-04-0.106D-03-0.149D-03
 Coeff:      0.125D-02 0.308D-03-0.591D-02-0.349D-02 0.434D-01 0.234D-01
 Coeff:     -0.206D+00-0.200D+00 0.135D+01
 Gap=     0.054 Goal=   None    Shift=    0.000
 Gap=     0.052 Goal=   None    Shift=    0.000
 RMSDP=8.94D-09 MaxDP=7.09D-07 DE= 7.28D-12 OVMax= 9.37D-08

 SCF Done:  E(UB3LYP) =  -1136.10159860     A.U. after   20 cycles
            NFock= 20  Conv=0.89D-08     -V/T= 2.0024
 <Sx>= 0.0000 <Sy>= 0.0000 <Sz>= 0.5000 <S**2>= 0.7604 S= 0.5052
 <L.S>= 0.000000000000E+00
 KE= 1.133360485545D+03 PE=-3.507499081375D+03 EE= 8.491446922494D+02
 Annihilation of the first spin contaminant:
 S**2 before annihilation     0.7604,   after     0.7501
 Leave Link  502 at Mon Nov 13 17:05:08 2023, MaxMem=  1879048192 cpu:             197.0 elap:              16.7
 (Enter /home/sekinelabo/g16/l601.exe)
 Copying SCF densities to generalized density rwf, IOpCl= 1 IROHF=0.

 **********************************************************************

            Population analysis using the SCF Density.

 **********************************************************************

 Orbital symmetries:
 Alpha Orbitals:
       Occupied  (A) (A) (A) (A) (A) (A) (A) (A) (A) (A) (A) (A)
                 (A) (A) (A) (A) (A) (A) (A) (A) (A) (A) (A) (A)
                 (A) (A) (A) (A) (A) (A) (A) (A) (A) (A) (A) (A)
                 (A) (A) (A)
       Virtual   (A) (A) (A) (A) (A) (A) (A) (A) (A) (A) (A) (A)
                 (A) (A) (A) (A) (A) (A) (A) (A) (A) (A) (A) (A)
                 (A) (A) (A) (A) (A) (A) (A) (A) (A) (A) (A) (A)
                 (A) (A) (A) (A) (A) (A) (A) (A) (A) (A) (A) (A)
                 (A) (A) (A) (A) (A) (A) (A) (A) (A) (A) (A) (A)
                 (A) (A) (A) (A) (A) (A) (A) (A) (A) (A) (A) (A)
                 (A) (A) (A) (A) (A) (A) (A) (A) (A) (A) (A) (A)
                 (A) (A) (A) (A) (A) (A) (A) (A) (A) (A) (A) (A)
                 (A) (A) (A) (A) (A) (A) (A) (A) (A) (A) (A) (A)
                 (A) (A) (A) (A) (A) (A) (A) (A) (A) (A) (A) (A)
                 (A) (A) (A) (A) (A) (A) (A) (A) (A) (A) (A) (A)
                 (A) (A) (A) (A) (A) (A) (A) (A) (A) (A) (A) (A)
                 (A) (A) (A) (A) (A) (A) (A) (A) (A) (A) (A) (A)
                 (A) (A) (A) (A) (A) (A) (A) (A) (A) (A) (A) (A)
                 (A) (A) (A)
 Beta  Orbitals:
       Occupied  (A) (A) (A) (A) (A) (A) (A) (A) (A) (A) (A) (A)
                 (A) (A) (A) (A) (A) (A) (A) (A) (A) (A) (A) (A)
                 (A) (A) (A) (A) (A) (A) (A) (A) (A) (A) (A) (A)
                 (A) (A)
       Virtual   (A) (A) (A) (A) (A) (A) (A) (A) (A) (A) (A) (A)
                 (A) (A) (A) (A) (A) (A) (A) (A) (A) (A) (A) (A)
                 (A) (A) (A) (A) (A) (A) (A) (A) (A) (A) (A) (A)
                 (A) (A) (A) (A) (A) (A) (A) (A) (A) (A) (A) (A)
                 (A) (A) (A) (A) (A) (A) (A) (A) (A) (A) (A) (A)
                 (A) (A) (A) (A) (A) (A) (A) (A) (A) (A) (A) (A)
                 (A) (A) (A) (A) (A) (A) (A) (A) (A) (A) (A) (A)
                 (A) (A) (A) (A) (A) (A) (A) (A) (A) (A) (A) (A)
                 (A) (A) (A) (A) (A) (A) (A) (A) (A) (A) (A) (A)
                 (A) (A) (A) (A) (A) (A) (A) (A) (A) (A) (A) (A)
                 (A) (A) (A) (A) (A) (A) (A) (A) (A) (A) (A) (A)
                 (A) (A) (A) (A) (A) (A) (A) (A) (A) (A) (A) (A)
                 (A) (A) (A) (A) (A) (A) (A) (A) (A) (A) (A) (A)
                 (A) (A) (A) (A) (A) (A) (A) (A) (A) (A) (A) (A)
                 (A) (A) (A) (A)
 The electronic state is 2-A.
 Alpha  occ. eigenvalues --  -38.44211 -38.44038 -38.43545 -38.43477 -38.43447
 Alpha  occ. eigenvalues --  -38.43088 -38.42893  -2.20120  -2.20097  -2.19645
 Alpha  occ. eigenvalues --   -2.19613  -2.19460  -2.19369  -2.18971  -1.13913
 Alpha  occ. eigenvalues --   -1.13837  -1.13782  -1.13776  -1.13769  -1.13708
 Alpha  occ. eigenvalues --   -1.13525  -1.13389  -1.13316  -1.13282  -1.13227
 Alpha  occ. eigenvalues --   -1.13182  -1.13173  -1.13067  -1.13054  -1.13038
 Alpha  occ. eigenvalues --   -1.12977  -1.12928  -1.12637  -1.12601  -1.12572
 Alpha  occ. eigenvalues --   -0.20554  -0.14055  -0.12599  -0.11206
 Alpha virt. eigenvalues --   -0.05807  -0.04787  -0.04016  -0.03395  -0.02685
 Alpha virt. eigenvalues --   -0.02120  -0.01564  -0.00844  -0.00127   0.00239
 Alpha virt. eigenvalues --    0.00332   0.00498   0.00906   0.00961   0.00985
 Alpha virt. eigenvalues --    0.01091   0.01237   0.01322   0.01363   0.01382
 Alpha virt. eigenvalues --    0.01475   0.01740   0.01831   0.01983   0.02100
 Alpha virt. eigenvalues --    0.02441   0.02533   0.02779   0.02825   0.02864
 Alpha virt. eigenvalues --    0.03002   0.03051   0.03139   0.03153   0.03252
 Alpha virt. eigenvalues --    0.03365   0.03426   0.03534   0.03729   0.03891
 Alpha virt. eigenvalues --    0.04262   0.04629   0.04919   0.05163   0.05203
 Alpha virt. eigenvalues --    0.05244   0.05407   0.05656   0.05799   0.05880
 Alpha virt. eigenvalues --    0.06094   0.06812   0.07191   0.07686   0.07881
 Alpha virt. eigenvalues --    0.08072   0.08401   0.08568   0.08837   0.09186
 Alpha virt. eigenvalues --    0.09410   0.10238   0.10733   0.12274   0.12461
 Alpha virt. eigenvalues --    0.12610   0.13178   0.13283   0.13711   0.13969
 Alpha virt. eigenvalues --    0.14119   0.14375   0.14733   0.14915   0.15279
 Alpha virt. eigenvalues --    0.16170   0.16560   0.16604   0.17414   0.19656
 Alpha virt. eigenvalues --    0.24190   0.26126   0.26964   0.27880   0.29357
 Alpha virt. eigenvalues --    0.30013   0.30453   0.31905   0.32996   0.34580
 Alpha virt. eigenvalues --    0.34874   0.35717   0.36755   0.38330   0.38743
 Alpha virt. eigenvalues --    0.39375   0.40889   0.42439   0.43118   0.43904
 Alpha virt. eigenvalues --    0.44397   0.44580   0.45143   0.45488   0.45752
 Alpha virt. eigenvalues --    0.46537   0.47083   0.47321   0.47804   0.48315
 Alpha virt. eigenvalues --    0.48821   0.49377   0.50316   0.50785   0.51746
 Alpha virt. eigenvalues --    0.52158   0.52513   0.54386   0.54984   0.55686
 Alpha virt. eigenvalues --    0.56484   0.59042   0.63047   0.63783   0.65563
 Alpha virt. eigenvalues --    0.65870   0.66994   0.68495   0.70481   0.71227
 Alpha virt. eigenvalues --    0.73022   0.75814   0.76037   0.78361   0.81025
 Alpha virt. eigenvalues --    0.83912   2.12725   2.18543   2.23717   2.27202
 Alpha virt. eigenvalues --    2.28008   2.32545   2.39874   4.40951   4.41031
 Alpha virt. eigenvalues --    4.41232   4.42281   4.42502   4.44098   4.45048
 Alpha virt. eigenvalues --    4.46335   4.47328   4.49747   4.52153   4.57593
 Alpha virt. eigenvalues --    4.62588   4.65038   4.65861   4.67120   4.70287
 Alpha virt. eigenvalues --    4.73521   4.79424   4.84093   4.89642  96.34198
 Alpha virt. eigenvalues --   96.41895  96.49687  96.54795  96.55765  96.62044
 Alpha virt. eigenvalues --   96.71206
  Beta  occ. eigenvalues --  -38.44205 -38.44010 -38.43524 -38.43464 -38.43363
  Beta  occ. eigenvalues --  -38.43038 -38.42874  -2.20088  -2.20074  -2.19585
  Beta  occ. eigenvalues --   -2.19490  -2.19439  -2.19284  -2.18943  -1.13885
  Beta  occ. eigenvalues --   -1.13829  -1.13762  -1.13751  -1.13699  -1.13697
  Beta  occ. eigenvalues --   -1.13469  -1.13320  -1.13253  -1.13223  -1.13188
  Beta  occ. eigenvalues --   -1.13129  -1.13100  -1.13053  -1.12989  -1.12979
  Beta  occ. eigenvalues --   -1.12890  -1.12879  -1.12619  -1.12586  -1.12500
  Beta  occ. eigenvalues --   -0.19791  -0.13773  -0.12283
  Beta virt. eigenvalues --   -0.07089  -0.05702  -0.04766  -0.03930  -0.02666
  Beta virt. eigenvalues --   -0.01962  -0.01536  -0.01020  -0.00763   0.00041
  Beta virt. eigenvalues --    0.00252   0.00385   0.00509   0.00937   0.00993
  Beta virt. eigenvalues --    0.01010   0.01204   0.01304   0.01424   0.01478
  Beta virt. eigenvalues --    0.01561   0.01650   0.01863   0.01905   0.02037
  Beta virt. eigenvalues --    0.02245   0.02473   0.02547   0.02785   0.02833
  Beta virt. eigenvalues --    0.02885   0.03034   0.03167   0.03198   0.03247
  Beta virt. eigenvalues --    0.03298   0.03460   0.03556   0.03612   0.03805
  Beta virt. eigenvalues --    0.04089   0.04450   0.04727   0.05061   0.05286
  Beta virt. eigenvalues --    0.05314   0.05421   0.05604   0.05791   0.05878
  Beta virt. eigenvalues --    0.06006   0.06403   0.06809   0.07264   0.07727
  Beta virt. eigenvalues --    0.08007   0.08156   0.08561   0.08648   0.08985
  Beta virt. eigenvalues --    0.09388   0.09605   0.10582   0.11007   0.12513
  Beta virt. eigenvalues --    0.12699   0.12822   0.13365   0.13447   0.14009
  Beta virt. eigenvalues --    0.14256   0.14423   0.14673   0.14906   0.15206
  Beta virt. eigenvalues --    0.15550   0.16446   0.16745   0.16800   0.17791
  Beta virt. eigenvalues --    0.20077   0.24472   0.26461   0.27099   0.27931
  Beta virt. eigenvalues --    0.29587   0.30388   0.30819   0.32394   0.33455
  Beta virt. eigenvalues --    0.34786   0.35136   0.36016   0.37083   0.38507
  Beta virt. eigenvalues --    0.39085   0.39652   0.41108   0.42641   0.43344
  Beta virt. eigenvalues --    0.44276   0.44593   0.44807   0.45211   0.45533
  Beta virt. eigenvalues --    0.45838   0.46668   0.47351   0.47651   0.48002
  Beta virt. eigenvalues --    0.48443   0.49079   0.49453   0.50511   0.50968
  Beta virt. eigenvalues --    0.51955   0.52270   0.52647   0.54586   0.55136
  Beta virt. eigenvalues --    0.56045   0.56741   0.59369   0.63187   0.64096
  Beta virt. eigenvalues --    0.65802   0.65945   0.67539   0.68632   0.70752
  Beta virt. eigenvalues --    0.71400   0.73275   0.75880   0.76286   0.78560
  Beta virt. eigenvalues --    0.81232   0.84039   2.12778   2.18594   2.23775
  Beta virt. eigenvalues --    2.27272   2.28066   2.32895   2.40075   4.40995
  Beta virt. eigenvalues --    4.41085   4.41319   4.42360   4.42557   4.44141
  Beta virt. eigenvalues --    4.45107   4.46383   4.47366   4.49819   4.52216
  Beta virt. eigenvalues --    4.57663   4.62631   4.65075   4.65907   4.67200
  Beta virt. eigenvalues --    4.70375   4.73550   4.79491   4.84137   4.89705
  Beta virt. eigenvalues --   96.34221  96.41914  96.49707  96.54824  96.55786
  Beta virt. eigenvalues --   96.62150  96.71268
          Condensed to atoms (all electrons):
               1          2          3          4          5          6
     1  Na  15.517231  -0.559547  -1.455768   0.225940   0.290449  -1.245817
     2  Na  -0.559547  15.856485  -0.130550  -2.251614  -1.702415  -0.021780
     3  Na  -1.455768  -0.130550  14.520799  -0.717718  -1.593050  -0.519313
     4  Na   0.225940  -2.251614  -0.717718  19.756275   0.218851  -3.652158
     5  Na   0.290449  -1.702415  -1.593050   0.218851  12.936122   0.706577
     6  Na  -1.245817  -0.021780  -0.519313  -3.652158   0.706577  13.989881
     7  Na  -1.401161   0.106896   0.972689  -3.215681   0.229595   1.423197
               7
     1  Na  -1.401161
     2  Na   0.106896
     3  Na   0.972689
     4  Na  -3.215681
     5  Na   0.229595
     6  Na   1.423197
     7  Na  13.007962
          Atomic-Atomic Spin Densities.
               1          2          3          4          5          6
     1  Na   0.795646  -0.891674   0.182842   0.378130   0.056566  -0.030792
     2  Na  -0.891674   2.245171  -0.586932   0.007203  -0.299976   0.085410
     3  Na   0.182842  -0.586932   0.163470  -0.439811   0.323078   0.066530
     4  Na   0.378130   0.007203  -0.439811   0.206620  -0.121665   0.412536
     5  Na   0.056566  -0.299976   0.323078  -0.121665   0.002985   0.081143
     6  Na  -0.030792   0.085410   0.066530   0.412536   0.081143  -0.398472
     7  Na  -0.262577  -0.217403   0.398633  -0.392117   0.110767  -0.083727
               7
     1  Na  -0.262577
     2  Na  -0.217403
     3  Na   0.398633
     4  Na  -0.392117
     5  Na   0.110767
     6  Na  -0.083727
     7  Na   0.432252
 Mulliken charges and spin densities:
               1          2
     1  Na  -0.371327   0.228140
     2  Na  -0.297475   0.341799
     3  Na  -0.077088   0.107811
     4  Na   0.636104   0.050896
     5  Na  -0.086130   0.152899
     6  Na   0.319413   0.132628
     7  Na  -0.123498  -0.014173
 Sum of Mulliken charges =  -0.00000   1.00000
 Mulliken charges and spin densities with hydrogens summed into heavy atoms:
               1          2
     1  Na  -0.371327   0.228140
     2  Na  -0.297475   0.341799
     3  Na  -0.077088   0.107811
     4  Na   0.636104   0.050896
     5  Na  -0.086130   0.152899
     6  Na   0.319413   0.132628
     7  Na  -0.123498  -0.014173
 Electronic spatial extent (au):  <R**2>=           1841.7567
 Charge=             -0.0000 electrons
 Dipole moment (field-independent basis, Debye):
    X=             -0.1496    Y=              0.3334    Z=              0.1464  Tot=              0.3937
 Quadrupole moment (field-independent basis, Debye-Ang):
   XX=            -55.6309   YY=            -65.0736   ZZ=            -72.7773
   XY=             -0.6888   XZ=             -1.3664   YZ=              0.7896
 Traceless Quadrupole moment (field-independent basis, Debye-Ang):
   XX=              8.8630   YY=             -0.5797   ZZ=             -8.2834
   XY=             -0.6888   XZ=             -1.3664   YZ=              0.7896
 Octapole moment (field-independent basis, Debye-Ang**2):
  XXX=            -10.6715  YYY=              6.2846  ZZZ=              5.4269  XYY=             -1.9354
  XXY=              8.5112  XXZ=             -4.4815  XZZ=              1.1518  YZZ=             -0.6019
  YYZ=             -0.5667  XYZ=              6.1740
 Hexadecapole moment (field-independent basis, Debye-Ang**3):
 XXXX=          -1321.3744 YYYY=          -1057.9686 ZZZZ=           -628.9410 XXXY=            -58.1762
 XXXZ=            -31.9505 YYYX=             23.9771 YYYZ=             37.9885 ZZZX=              1.7197
 ZZZY=             -2.4132 XXYY=           -407.2643 XXZZ=           -369.7892 YYZZ=           -310.2995
 XXYZ=            -15.4188 YYXZ=             -0.2814 ZZXY=              0.3014
 N-N= 3.888923049861D+02 E-N=-3.507499081407D+03  KE= 1.133360485545D+03
                          Isotropic Fermi Contact Couplings
        Atom                 a.u.       MegaHertz       Gauss      10(-4) cm-1
     1  Na(23)             0.14926     176.58287      63.00916      58.90170
     2  Na(23)             0.33338     394.40181     140.73237     131.55828
     3  Na(23)             0.01103      13.05025       4.65665       4.35309
     4  Na(23)             0.05840      69.08743      24.65211      23.04509
     5  Na(23)             0.00880      10.40521       3.71284       3.47080
     6  Na(23)             0.03451      40.82158      14.56616      13.61661
     7  Na(23)             0.00944      11.16335       3.98336       3.72369
 --------------------------------------------------------
       Center         ----  Spin Dipole Couplings  ----
                      3XX-RR        3YY-RR        3ZZ-RR
 --------------------------------------------------------
     1   Atom       -0.010776     -0.019503      0.030278
     2   Atom        0.002281      0.006264     -0.008545
     3   Atom       -0.017899     -0.012893      0.030791
     4   Atom       -0.014649     -0.022782      0.037430
     5   Atom       -0.024547     -0.019798      0.044345
     6   Atom       -0.010092     -0.024028      0.034120
     7   Atom       -0.002956     -0.009154      0.012110
 --------------------------------------------------------
                        XY            XZ            YZ
 --------------------------------------------------------
     1   Atom       -0.010759     -0.015003      0.017479
     2   Atom        0.008718     -0.006010      0.000941
     3   Atom        0.003316     -0.003455     -0.015786
     4   Atom        0.005751      0.025272      0.017808
     5   Atom        0.005503     -0.018942     -0.025184
     6   Atom        0.006251      0.029532      0.001652
     7   Atom       -0.001622     -0.005657      0.002721
 --------------------------------------------------------


 ---------------------------------------------------------------------------------
              Anisotropic Spin Dipole Couplings in Principal Axis System
 ---------------------------------------------------------------------------------

       Atom             a.u.   MegaHertz   Gauss  10(-4) cm-1        Axes

              Baa    -0.0277    -3.918    -1.398    -1.307  0.4249  0.8912 -0.1586
     1 Na(23) Bbb    -0.0140    -1.974    -0.704    -0.659  0.8469 -0.3295  0.4172
              Bcc     0.0417     5.892     2.102     1.965 -0.3196  0.3116  0.8948
 
              Baa    -0.0125    -1.762    -0.629    -0.588  0.4966 -0.2724  0.8242
     2 Na(23) Bbb    -0.0012    -0.166    -0.059    -0.055 -0.5766  0.6063  0.5477
              Bcc     0.0137     1.928     0.688     0.643  0.6488  0.7472 -0.1440
 
              Baa    -0.0202    -2.854    -1.018    -0.952  0.7251 -0.6702 -0.1583
     3 Na(23) Bbb    -0.0160    -2.264    -0.808    -0.755  0.6841  0.6744  0.2779
              Bcc     0.0362     5.118     1.826     1.707 -0.0794 -0.3098  0.9475
 
              Baa    -0.0280    -3.952    -1.410    -1.318  0.2819  0.8926 -0.3519
     4 Na(23) Bbb    -0.0243    -3.436    -1.226    -1.146  0.8891 -0.3809 -0.2540
              Bcc     0.0523     7.388     2.636     2.464  0.3607  0.2413  0.9009
 
              Baa    -0.0299    -4.225    -1.507    -1.409  0.8044  0.4693  0.3643
     5 Na(23) Bbb    -0.0279    -3.933    -1.403    -1.312 -0.5466  0.8249  0.1443
              Bcc     0.0578     8.157     2.911     2.721 -0.2328 -0.3152  0.9200
 
              Baa    -0.0294    -4.156    -1.483    -1.386 -0.6682  0.6840  0.2927
     6 Na(23) Bbb    -0.0197    -2.786    -0.994    -0.929  0.5922  0.7272 -0.3471
              Bcc     0.0492     6.941     2.477     2.315  0.4503  0.0586  0.8910
 
              Baa    -0.0097    -1.363    -0.486    -0.455  0.1719  0.9820 -0.0781
     7 Na(23) Bbb    -0.0048    -0.671    -0.239    -0.224  0.9323 -0.1366  0.3348
              Bcc     0.0144     2.034     0.726     0.678 -0.3181  0.1304  0.9390
 

 ---------------------------------------------------------------------------------

 No NMR shielding tensors so no spin-rotation constants.
 Leave Link  601 at Mon Nov 13 17:05:09 2023, MaxMem=  1879048192 cpu:               2.5 elap:               0.2
 (Enter /home/sekinelabo/g16/l701.exe)
 ... and contract with generalized density number  0.
 Compute integral first derivatives.
 Leave Link  701 at Mon Nov 13 17:05:09 2023, MaxMem=  1879048192 cpu:               1.9 elap:               0.1
 (Enter /home/sekinelabo/g16/l702.exe)
 L702 exits ... SP integral derivatives will be done elsewhere.
 Leave Link  702 at Mon Nov 13 17:05:09 2023, MaxMem=  1879048192 cpu:               0.4 elap:               0.0
 (Enter /home/sekinelabo/g16/l703.exe)
 Integral derivatives from FoFJK, PRISM(SPDF).
 Compute integral first derivatives, UseDBF=F ICtDFT=           0.
 Calling FoFJK, ICntrl=      2127 FMM=F ISym2X=0 I1Cent= 0 IOpClX= 1 NMat=1 NMatS=1 NMatT=0.
 FoFJK:  IHMeth= 1 ICntrl=    2127 DoSepK=F KAlg= 0 I1Cent=           0 FoldK=F
 IRaf=         0 NMat=       1 IRICut=       1 DoRegI=T DoRafI=F ISym2E= 0 IDoP0=0 IntGTp=1.
 FoFCou: FMM=F IPFlag=           0 FMFlag=      100000 FMFlg1=         800
         NFxFlg=           0 DoJE=F BraDBF=F KetDBF=F FulRan=T
         wScrn=  0.000000 ICntrl=      2127 IOpCl=  1 I1Cent=           0 NGrid=           0
         NMat0=    1 NMatS0=      1 NMatT0=    0 NMatD0=    1 NMtDS0=    0 NMtDT0=    0
 Symmetry not used in FoFCou.
 Leave Link  703 at Mon Nov 13 17:05:11 2023, MaxMem=  1879048192 cpu:              37.1 elap:               2.4
 (Enter /home/sekinelabo/g16/l716.exe)
 Dipole        =-5.88441208D-02 1.31171186D-01 5.76120361D-02
 ***** Axes restored to original set *****
 -------------------------------------------------------------------
 Center     Atomic                   Forces (Hartrees/Bohr)
 Number     Number              X              Y              Z
 -------------------------------------------------------------------
      1       11          -0.004274214   -0.006494317    0.016511293
      2       11           0.001081472    0.000406295   -0.019780226
      3       11           0.000539492   -0.016120178   -0.002933407
      4       11           0.016204818    0.001022497    0.006701414
      5       11           0.003187413    0.019484087    0.005388776
      6       11          -0.011627018    0.009435870   -0.006184242
      7       11          -0.005111962   -0.007734254    0.000296393
 -------------------------------------------------------------------
 Cartesian Forces:  Max     0.019780226 RMS     0.009929037
 Z-matrix is all fixed cartesians, so copy forces.
 Force constants in Cartesian coordinates: 
                1             2             3             4             5 
      1  0.206760D+00
      2  0.453169D-02  0.195938D+00
      3 -0.163649D-01 -0.197062D-01  0.250518D+00
      4 -0.258624D-01 -0.202438D-02  0.124169D-01  0.126225D+00
      5 -0.385660D-02 -0.219534D-01  0.138243D-01 -0.119207D-01  0.131211D+00
      6  0.250802D-02  0.803541D-03 -0.587219D-01 -0.417831D-02 -0.270870D-02
      7 -0.289377D-01  0.171111D-01  0.631046D-02 -0.157254D-01  0.538621D-02
      8 -0.760166D-02 -0.325576D-01  0.680551D-02  0.451930D-02 -0.391521D-01
      9  0.141470D-01 -0.274522D-01 -0.380436D-01 -0.590542D-02  0.363229D-01
     10 -0.513339D-01 -0.119147D-02 -0.150801D-01 -0.309877D-01  0.440962D-03
     11 -0.124757D-01 -0.279668D-01  0.406324D-03  0.512999D-02 -0.124231D-01
     12  0.298260D-01  0.634013D-02 -0.396656D-01 -0.380514D-01 -0.321575D-02
     13 -0.312171D-01 -0.108338D-01 -0.139668D-03 -0.124862D-01  0.535790D-02
     14 -0.195473D-02 -0.499643D-01 -0.111299D-01 -0.235795D-02 -0.338291D-01
     15  0.109723D-01  0.303940D-01 -0.248344D-01 -0.627095D-02 -0.377984D-01
     16 -0.316917D-01  0.210784D-02  0.718246D-02 -0.380689D-01  0.113651D-01
     17  0.145844D-01 -0.326186D-01  0.751502D-02  0.711999D-02 -0.281411D-01
     18 -0.181179D-01  0.204618D-01 -0.446899D-01  0.342063D-01 -0.111787D-01
     19 -0.377171D-01 -0.970105D-02  0.567480D-02 -0.309410D-02 -0.677292D-02
     20  0.677257D-02 -0.308770D-01  0.228494D-02 -0.466291D-03  0.428764D-02
     21 -0.229705D-01 -0.108412D-01 -0.445624D-01  0.778281D-02  0.475439D-02
                6             7             8             9            10 
      6  0.205229D+00
      7  0.453625D-02  0.635588D-01
      8 -0.797320D-02 -0.737186D-02  0.113637D+00
      9 -0.319783D-01  0.254391D-03  0.104392D-01  0.609297D-01
     10  0.416953D-02 -0.263428D-01  0.754608D-02 -0.516572D-02  0.151833D+00
     11 -0.565027D-03 -0.307755D-01 -0.360603D-01 -0.181896D-01  0.157155D-02
     12 -0.442434D-01 -0.145273D-01 -0.531172D-02 -0.109463D-01  0.322632D-01
     13  0.131652D-02  0.941316D-02  0.267144D-02  0.473229D-03 -0.367495D-01
     14  0.334933D-02  0.253063D-02 -0.757031D-02 -0.337434D-02 -0.121574D-01
     15 -0.425052D-01  0.441672D-03 -0.335887D-02  0.929468D-02 -0.130132D-01
     16 -0.973382D-02  0.477448D-03  0.138762D-02 -0.263245D-02 -0.620145D-02
     17  0.860488D-02  0.826583D-02 -0.933718D-03  0.443247D-03  0.427031D-02
     18 -0.301609D-01 -0.935859D-03 -0.200763D-02  0.840133D-02 -0.446088D-02
     19  0.138182D-02 -0.244357D-02 -0.115093D-02 -0.117104D-02 -0.218048D-03
     20 -0.151082D-02  0.485355D-02  0.263693D-02  0.181080D-02 -0.480016D-03
     21  0.238025D-02  0.392041D-02  0.140675D-02  0.234250D-02  0.128709D-02
               11            12            13            14            15 
     11  0.104327D+00
     12  0.117004D-01  0.855971D-01
     13  0.337484D-01 -0.202162D-02  0.107247D+00
     14 -0.402702D-01 -0.120883D-01  0.518729D-02  0.159764D+00
     15  0.339235D-02 -0.975365D-02  0.161755D-01  0.213039D-01  0.810602D-01
     16  0.438162D-02 -0.473916D-02 -0.382728D-01  0.142720D-01 -0.114261D-01
     17  0.881023D-02  0.160733D-02 -0.287298D-01 -0.306861D-01 -0.117838D-01
     18  0.135176D-02  0.940388D-02 -0.172840D-01  0.546357D-02 -0.205236D-01
     19 -0.158043D-02 -0.274978D-02  0.206533D-02 -0.551983D-02  0.312077D-02
     20  0.358346D-02  0.967874D-03 -0.740146D-02  0.255632D-02 -0.214915D-02
     21  0.190377D-02  0.960802D-02  0.148002D-02 -0.352422D-02  0.726188D-02
               16            17            18            19            20 
     16  0.133281D+00
     17 -0.155797D-01  0.122186D+00
     18  0.151361D-01 -0.233201D-01  0.923354D-01
     19 -0.195231D-01  0.100690D-01 -0.854381D-02  0.609306D-01
     20 -0.179345D-01 -0.386172D-01  0.922931D-02  0.146562D-01  0.564298D-01
     21  0.621296D-02  0.169334D-01 -0.147662D-01  0.228724D-02 -0.106329D-01
               21 
     21  0.377360D-01
 Leave Link  716 at Mon Nov 13 17:05:11 2023, MaxMem=  1879048192 cpu:               0.4 elap:               0.0
 (Enter /home/sekinelabo/g16/l103.exe)

 GradGradGradGradGradGradGradGradGradGradGradGradGradGradGradGradGradGrad
 Berny optimization.
 Search for a local minimum.
 Step number   1 out of a maximum of    2
 All quantities printed in internal units (Hartrees-Bohrs-Radians)
 Second derivative matrix not updated -- first step.
 ITU=  0
     Eigenvalues ---    0.04831   0.05759   0.07998   0.08922   0.12183
     Eigenvalues ---    0.14431   0.14851   0.17033   0.19262   0.19929
     Eigenvalues ---    0.22308   0.23337   0.24998   0.26023   0.31357
 Quadratic step=3.493D-01 exceeds max=3.000D-01 adjusted using Lamda=-1.751D-02.
 Angle between NR and scaled steps=   3.04 degrees.
 Angle between quadratic step and forces=  20.46 degrees.
 Linear search not attempted -- first point.
 B after Tr=     0.000000   -0.000000    0.000000
         Rot=    1.000000    0.000000   -0.000000    0.000000 Ang=   0.00 deg.
 Variable       Old X    -DE/DX   Delta X   Delta X   Delta X     New X
                                 (Linear)    (Quad)   (Total)
    X1        5.29187  -0.00427   0.00000  -0.01607  -0.01607   5.27580
    Y1        3.73653  -0.00649   0.00000  -0.01685  -0.01685   3.71968
    Z1        5.22020   0.01651   0.00000   0.05911   0.05911   5.27930
    X2        7.08621   0.00108   0.00000   0.02220   0.02220   7.10841
    Y2        5.01006   0.00041   0.00000   0.01520   0.01520   5.02525
    Z2        0.00000  -0.01978   0.00000  -0.08318  -0.08318  -0.08318
    X3        8.41447   0.00054   0.00000   0.02705   0.02705   8.44152
    Y3        0.00000  -0.01612   0.00000  -0.12571  -0.12571  -0.12571
    Z3        2.30988  -0.00293   0.00000  -0.01761  -0.01761   2.29228
    X4       10.79018   0.01620   0.00000   0.11555   0.11555  10.90573
    Y4        4.75386   0.00102   0.00000  -0.00093  -0.00093   4.75293
    Z4        4.28153   0.00670   0.00000   0.03891   0.03891   4.32043
    X5        7.04579   0.00319   0.00000   0.03091   0.03091   7.07670
    Y5        8.99474   0.01948   0.00000   0.13311   0.13311   9.12785
    Z5        4.02462   0.00539   0.00000   0.02170   0.02170   4.04632
    X6        2.15478  -0.01163   0.00000  -0.09090  -0.09090   2.06389
    Y6        7.08072   0.00944   0.00000   0.06965   0.06965   7.15037
    Z6        1.89364  -0.00618   0.00000  -0.02945  -0.02945   1.86418
    X7        0.00000  -0.00511   0.00000  -0.08874  -0.08874  -0.08874
    Y7        2.21214  -0.00773   0.00000  -0.07445  -0.07445   2.13768
    Z7        3.84454   0.00030   0.00000   0.01053   0.01053   3.85507
         Item               Value     Threshold  Converged?
 Maximum Force            0.019780     0.000450     NO 
 RMS     Force            0.009929     0.000300     NO 
 Maximum Displacement     0.133111     0.001800     NO 
 RMS     Displacement     0.065482     0.001200     NO 
 Predicted change in Energy=-7.184743D-03
 GradGradGradGradGradGradGradGradGradGradGradGradGradGradGradGradGradGrad

 Leave Link  103 at Mon Nov 13 17:05:11 2023, MaxMem=  1879048192 cpu:               0.3 elap:               0.0
 (Enter /home/sekinelabo/g16/l9999.exe)
 1\1\GINC-SEKINELABO-XA7R-R37\Force\UB3LYP\6-311+G(d)\Na7(2)\SEKINELABO
 \13-Nov-2023\0\\#P B3LYP/6-311+g(d) force\\Gaussian input prepared by 
 ASE\\0,2\Na,2.8003383186,1.9772866554,2.7624084176\Na,3.7498631777,2.6
 512078386,0.\Na,4.4527445583,0.,1.2223378946\Na,5.7099168297,2.5156363
 396,2.2656857162\Na,3.7284734635,4.7598109647,2.1297375445\Na,1.140262
 8982,3.7469563594,1.0020701267\Na,0.,1.1706122771,2.034441947\\Version
 =ES64L-G16RevB.01\State=2-A\HF=-1136.1015986\S2=0.760389\S2-1=0.\S2A=0
 .750076\RMSD=8.940e-09\RMSF=9.929e-03\Dipole=-0.0588441,-0.1311712,-0.
 057612\Quadrupole=6.5894492,-0.4309578,-6.1584915,0.5121026,1.0159055,
 0.5870696\PG=C01 [X(Na7)]\\@


 IF NO USE IS MADE OF THE LABOR OF PAST AGES,
 THE WORLD MUST REMAIN ALWAYS IN THE INFANCY OF KNOWLEDGE.

                          -- CICERO
 Job cpu time:       0 days  0 hours  4 minutes 12.0 seconds.
 Elapsed time:       0 days  0 hours  0 minutes 20.2 seconds.
 File lengths (MBytes):  RWF=     32 Int=      0 D2E=      0 Chk=      5 Scr=      1
 Normal termination of Gaussian 16 at Mon Nov 13 17:05:11 2023.
