 Entering Gaussian System, Link 0=g16
 Initial command:
 /home/sekinelabo/g16/l1.exe "/home/sekinelabo/g16temp/Gau-4175920.inp" -scrdir="/home/sekinelabo/g16temp/"
 Entering Link 1 = /home/sekinelabo/g16/l1.exe PID=   4175922.
  
 Copyright (c) 1988-2017, Gaussian, Inc.  All Rights Reserved.
  
 This is part of the Gaussian(R) 16 program.  It is based on
 the Gaussian(R) 09 system (copyright 2009, Gaussian, Inc.),
 the Gaussian(R) 03 system (copyright 2003, Gaussian, Inc.),
 the Gaussian(R) 98 system (copyright 1998, Gaussian, Inc.),
 the Gaussian(R) 94 system (copyright 1995, Gaussian, Inc.),
 the Gaussian 92(TM) system (copyright 1992, Gaussian, Inc.),
 the Gaussian 90(TM) system (copyright 1990, Gaussian, Inc.),
 the Gaussian 88(TM) system (copyright 1988, Gaussian, Inc.),
 the Gaussian 86(TM) system (copyright 1986, Carnegie Mellon
 University), and the Gaussian 82(TM) system (copyright 1983,
 Carnegie Mellon University). Gaussian is a federally registered
 trademark of Gaussian, Inc.
  
 This software contains proprietary and confidential information,
 including trade secrets, belonging to Gaussian, Inc.
  
 This software is provided under written license and may be
 used, copied, transmitted, or stored only in accord with that
 written license.
  
 The following legend is applicable only to US Government
 contracts under FAR:
  
                    RESTRICTED RIGHTS LEGEND
  
 Use, reproduction and disclosure by the US Government is
 subject to restrictions as set forth in subparagraphs (a)
 and (c) of the Commercial Computer Software - Restricted
 Rights clause in FAR 52.227-19.
  
 Gaussian, Inc.
 340 Quinnipiac St., Bldg. 40, Wallingford CT 06492
  
  
 ---------------------------------------------------------------
 Warning -- This program may not be used in any manner that
 competes with the business of Gaussian, Inc. or will provide
 assistance to any competitor of Gaussian, Inc.  The licensee
 of this program is prohibited from giving any competitor of
 Gaussian, Inc. access to this program.  By using this program,
 the user acknowledges that Gaussian, Inc. is engaged in the
 business of creating and licensing software in the field of
 computational chemistry and represents and warrants to the
 licensee that it is not a competitor of Gaussian, Inc. and that
 it will not use this program in any manner prohibited above.
 ---------------------------------------------------------------
  

 Cite this work as:
 Gaussian 16, Revision B.01,
 M. J. Frisch, G. W. Trucks, H. B. Schlegel, G. E. Scuseria, 
 M. A. Robb, J. R. Cheeseman, G. Scalmani, V. Barone, 
 G. A. Petersson, H. Nakatsuji, X. Li, M. Caricato, A. V. Marenich, 
 J. Bloino, B. G. Janesko, R. Gomperts, B. Mennucci, H. P. Hratchian, 
 J. V. Ortiz, A. F. Izmaylov, J. L. Sonnenberg, D. Williams-Young, 
 F. Ding, F. Lipparini, F. Egidi, J. Goings, B. Peng, A. Petrone, 
 T. Henderson, D. Ranasinghe, V. G. Zakrzewski, J. Gao, N. Rega, 
 G. Zheng, W. Liang, M. Hada, M. Ehara, K. Toyota, R. Fukuda, 
 J. Hasegawa, M. Ishida, T. Nakajima, Y. Honda, O. Kitao, H. Nakai, 
 T. Vreven, K. Throssell, J. A. Montgomery, Jr., J. E. Peralta, 
 F. Ogliaro, M. J. Bearpark, J. J. Heyd, E. N. Brothers, K. N. Kudin, 
 V. N. Staroverov, T. A. Keith, R. Kobayashi, J. Normand, 
 K. Raghavachari, A. P. Rendell, J. C. Burant, S. S. Iyengar, 
 J. Tomasi, M. Cossi, J. M. Millam, M. Klene, C. Adamo, R. Cammi, 
 J. W. Ochterski, R. L. Martin, K. Morokuma, O. Farkas, 
 J. B. Foresman, and D. J. Fox, Gaussian, Inc., Wallingford CT, 2016.
 
 ******************************************
 Gaussian 16:  ES64L-G16RevB.01 20-Dec-2017
                13-Nov-2023 
 ******************************************
 %mem=14GB
 %chk=checkpoint.chk
 %nprocshared=16
 Will use up to   16 processors via shared memory.
 -------------------------
 #P B3LYP/6-311+g(d) force
 -------------------------
 1/10=7,30=1,38=1/1,3;
 2/12=2,17=6,18=5,40=1/2;
 3/5=4,6=6,7=11,11=2,25=1,30=1,71=1,74=-5/1,2,3;
 4//1;
 5/5=2,38=5/2;
 6/7=2,8=2,9=2,10=2,28=1/1;
 7/29=1/1,2,3,16;
 1/10=7,30=1/3;
 99//99;
 Leave Link    1 at Mon Nov 13 20:12:09 2023, MaxMem=  1879048192 cpu:               0.3 elap:               0.0
 (Enter /home/sekinelabo/g16/l101.exe)
 ------------------------------
 Gaussian input prepared by ASE
 ------------------------------
 Symbolic Z-matrix:
 Charge =  0 Multiplicity = 2
 Na                    2.13414   2.45073   0. 
 Na                    0.04615   4.13124   1.42987 
 Na                    0.        0.82934   1.43015 
 Na                    2.13443   2.45378   2.85881 
 Na                    3.19692   0.        1.43205 
 Na                    4.80169   2.41689   1.42887 
 Na                    3.26519   4.87659   1.43045 
 
 ITRead=  0  0  0  0  0  0  0
 MicOpt= -1 -1 -1 -1 -1 -1 -1
 NAtoms=      7 NQM=        7 NQMF=       0 NMMI=      0 NMMIF=      0
                NMic=       0 NMicF=      0.
                    Isotopes and Nuclear Properties:
 (Nuclear quadrupole moments (NQMom) in fm**2, nuclear magnetic moments (NMagM)
  in nuclear magnetons)

  Atom         1           2           3           4           5           6           7
 IAtWgt=          23          23          23          23          23          23          23
 AtmWgt=  22.9897697  22.9897697  22.9897697  22.9897697  22.9897697  22.9897697  22.9897697
 NucSpn=           3           3           3           3           3           3           3
 AtZEff=  -0.0000000  -0.0000000  -0.0000000  -0.0000000  -0.0000000  -0.0000000  -0.0000000
 NQMom=   10.4000000  10.4000000  10.4000000  10.4000000  10.4000000  10.4000000  10.4000000
 NMagM=    2.2175200   2.2175200   2.2175200   2.2175200   2.2175200   2.2175200   2.2175200
 AtZNuc=  11.0000000  11.0000000  11.0000000  11.0000000  11.0000000  11.0000000  11.0000000
 Leave Link  101 at Mon Nov 13 20:12:09 2023, MaxMem=  1879048192 cpu:               2.7 elap:               0.2
 (Enter /home/sekinelabo/g16/l103.exe)

 GradGradGradGradGradGradGradGradGradGradGradGradGradGradGradGradGradGrad
 Berny optimization.
 Initialization pass.
 Trust Radius=3.00D-01 FncErr=1.00D-07 GrdErr=1.00D-07 EigMax=2.50D+02 EigMin=1.00D-04
 Number of steps in this run=      2 maximum allowed number of steps=      2.
 GradGradGradGradGradGradGradGradGradGradGradGradGradGradGradGradGradGrad

 Leave Link  103 at Mon Nov 13 20:12:09 2023, MaxMem=  1879048192 cpu:               0.2 elap:               0.0
 (Enter /home/sekinelabo/g16/l202.exe)
                          Input orientation:                          
 ---------------------------------------------------------------------
 Center     Atomic      Atomic             Coordinates (Angstroms)
 Number     Number       Type             X           Y           Z
 ---------------------------------------------------------------------
      1         11           0        2.134144    2.450728    0.000000
      2         11           0        0.046152    4.131241    1.429874
      3         11           0        0.000000    0.829335    1.430147
      4         11           0        2.134427    2.453776    2.858811
      5         11           0        3.196921    0.000000    1.432054
      6         11           0        4.801695    2.416889    1.428866
      7         11           0        3.265194    4.876590    1.430449
 ---------------------------------------------------------------------
                    Distance matrix (angstroms):
                    1          2          3          4          5
     1  Na   0.000000
     2  Na   3.037824   0.000000
     3  Na   3.037895   3.302228   0.000000
     4  Na   2.858812   3.035892   3.039024   0.000000
     5  Na   3.030897   5.195623   3.302742   3.030767   0.000000
     6  Na   3.026323   5.055115   5.057331   3.026619   2.901148
     7  Na   3.034842   3.304206   5.200170   3.031316   4.877068
                    6          7
     6  Na   0.000000
     7  Na   2.900167   0.000000
 Stoichiometry    Na7(2)
 Framework group  C1[X(Na7)]
 Deg. of freedom    15
 Full point group                 C1      NOp   1
 Largest Abelian subgroup         C1      NOp   1
 Largest concise Abelian subgroup C1      NOp   1
                         Standard orientation:                         
 ---------------------------------------------------------------------
 Center     Atomic      Atomic             Coordinates (Angstroms)
 Number     Number       Type             X           Y           Z
 ---------------------------------------------------------------------
      1         11           0        0.091361   -0.000495    1.430029
      2         11           0        2.179353    1.680018    0.000155
      3         11           0        2.225505   -1.621888   -0.000118
      4         11           0        0.091078    0.002553   -1.428782
      5         11           0       -0.971416   -2.451223   -0.002025
      6         11           0       -2.576190   -0.034334    0.001163
      7         11           0       -1.039689    2.425367   -0.000421
 ---------------------------------------------------------------------
 Rotational constants (GHZ):           1.0257242           0.9784538           0.6153243
 Leave Link  202 at Mon Nov 13 20:12:09 2023, MaxMem=  1879048192 cpu:               0.1 elap:               0.0
 (Enter /home/sekinelabo/g16/l301.exe)
 Standard basis: 6-311+G(d) (5D, 7F)
 Ernie: Thresh=  0.10000D-02 Tol=  0.10000D-05 Strict=F.
 There are   217 symmetry adapted cartesian basis functions of A   symmetry.
 There are   210 symmetry adapted basis functions of A   symmetry.
   210 basis functions,   350 primitive gaussians,   217 cartesian basis functions
    39 alpha electrons       38 beta electrons
       nuclear repulsion energy       398.8986883210 Hartrees.
 IExCor=  402 DFT=T Ex+Corr=B3LYP ExCW=0 ScaHFX=  0.200000
 ScaDFX=  0.800000  0.720000  1.000000  0.810000 ScalE2=  1.000000  1.000000
 IRadAn=      5 IRanWt=     -1 IRanGd=            0 ICorTp=0 IEmpDi=  4
 NAtoms=    7 NActive=    7 NUniq=    7 SFac= 1.00D+00 NAtFMM=   60 NAOKFM=F Big=F
 Integral buffers will be    131072 words long.
 Raffenetti 2 integral format.
 Two-electron integral symmetry is turned on.
 Leave Link  301 at Mon Nov 13 20:12:09 2023, MaxMem=  1879048192 cpu:               0.5 elap:               0.0
 (Enter /home/sekinelabo/g16/l302.exe)
 NPDir=0 NMtPBC=     1 NCelOv=     1 NCel=       1 NClECP=     1 NCelD=      1
         NCelK=      1 NCelE2=     1 NClLst=     1 CellRange=     0.0.
 One-electron integrals computed using PRISM.
 One-electron integral symmetry used in STVInt
 NBasis=   210 RedAO= T EigKep=  1.59D-06  NBF=   210
 NBsUse=   210 1.00D-06 EigRej= -1.00D+00 NBFU=   210
 Precomputing XC quadrature grid using
 IXCGrd= 4 IRadAn=           5 IRanWt=          -1 IRanGd=           0 AccXCQ= 0.00D+00.
 Generated NRdTot=       0 NPtTot=           0 NUsed=           0 NTot=          32
 NSgBfM=   212   211   211   211   212 MxSgAt=     7 MxSgA2=     7.
 Leave Link  302 at Mon Nov 13 20:12:10 2023, MaxMem=  1879048192 cpu:               3.5 elap:               0.2
 (Enter /home/sekinelabo/g16/l303.exe)
 DipDrv:  MaxL=1.
 Leave Link  303 at Mon Nov 13 20:12:10 2023, MaxMem=  1879048192 cpu:               0.6 elap:               0.0
 (Enter /home/sekinelabo/g16/l401.exe)
 ExpMin= 7.60D-03 ExpMax= 3.62D+04 ExpMxC= 1.21D+03 IAcc=3 IRadAn=         5 AccDes= 0.00D+00
 Harris functional with IExCor=  402 and IRadAn=       5 diagonalized for initial guess.
 HarFok:  IExCor=  402 AccDes= 0.00D+00 IRadAn=         5 IDoV= 1 UseB2=F ITyADJ=14
 ICtDFT=  3500011 ScaDFX=  1.000000  1.000000  1.000000  1.000000
 FoFCou: FMM=F IPFlag=           0 FMFlag=      100000 FMFlg1=           0
         NFxFlg=           0 DoJE=T BraDBF=F KetDBF=T FulRan=T
         wScrn=  0.000000 ICntrl=       500 IOpCl=  0 I1Cent=   200000004 NGrid=           0
         NMat0=    1 NMatS0=      1 NMatT0=    0 NMatD0=    1 NMtDS0=    0 NMtDT0=    0
 Petite list used in FoFCou.
 Harris En= -1135.88317399375    
 JPrj=0 DoOrth=F DoCkMO=F.
 Initial guess <Sx>= 0.0000 <Sy>= 0.0000 <Sz>= 0.5000 <S**2>= 0.7500 S= 0.5000
 Leave Link  401 at Mon Nov 13 20:12:10 2023, MaxMem=  1879048192 cpu:               4.8 elap:               0.3
 (Enter /home/sekinelabo/g16/l502.exe)
 Keep R1 and R2 ints in memory in canonical form, NReq=507620388.
 FoFCou: FMM=F IPFlag=           0 FMFlag=           0 FMFlg1=           0
         NFxFlg=           0 DoJE=F BraDBF=F KetDBF=F FulRan=T
         wScrn=  0.000000 ICntrl=       600 IOpCl=  0 I1Cent=           0 NGrid=           0
         NMat0=    1 NMatS0=  22155 NMatT0=    0 NMatD0=    1 NMtDS0=    0 NMtDT0=    0
 Symmetry not used in FoFCou.
 Two-electron integral symmetry not used.
 UHF open shell SCF:
 Using DIIS extrapolation, IDIIS=  1040.
 NGot=  1879048192 LenX=  1388082348 LenY=  1388034818
 Requested convergence on RMS density matrix=1.00D-08 within 128 cycles.
 Requested convergence on MAX density matrix=1.00D-06.
 Requested convergence on             energy=1.00D-06.
 No special actions if energy rises.

 Cycle   1  Pass 1  IDiag  1:
 E= -1136.05574393451    
 DIIS: error= 1.64D-02 at cycle   1 NSaved=   1.
 NSaved= 1 IEnMin= 1 EnMin= -1136.05574393451     IErMin= 1 ErrMin= 1.64D-02
 ErrMax= 1.64D-02  0.00D+00 EMaxC= 1.00D-01 BMatC= 2.13D-01 BMatP= 2.13D-01
 IDIUse=3 WtCom= 8.36D-01 WtEn= 1.64D-01
 Coeff-Com:  0.100D+01
 Coeff-En:   0.100D+01
 Coeff:      0.100D+01
 Gap=     0.046 Goal=   None    Shift=    0.000
 Gap=     0.061 Goal=   None    Shift=    0.000
 GapD=    0.046 DampG=0.250 DampE=0.500 DampFc=0.2500 IDamp=-1.
 Damping current iteration by 2.50D-01
 RMSDP=1.39D-01 MaxDP=7.76D+00              OVMax= 2.92D-01

 Cycle   2  Pass 1  IDiag  1:
 E= -1136.07455501847     Delta-E=       -0.018811083958 Rises=F Damp=T
 DIIS: error= 1.04D-02 at cycle   2 NSaved=   2.
 NSaved= 2 IEnMin= 2 EnMin= -1136.07455501847     IErMin= 2 ErrMin= 1.04D-02
 ErrMax= 1.04D-02  0.00D+00 EMaxC= 1.00D-01 BMatC= 7.92D-02 BMatP= 2.13D-01
 IDIUse=3 WtCom= 8.96D-01 WtEn= 1.04D-01
 Coeff-Com: -0.123D+01 0.223D+01
 Coeff-En:   0.000D+00 0.100D+01
 Coeff:     -0.110D+01 0.210D+01
 Gap=     0.060 Goal=   None    Shift=    0.000
 Gap=     0.063 Goal=   None    Shift=    0.000
 RMSDP=5.91D-02 MaxDP=3.42D+00 DE=-1.88D-02 OVMax= 1.99D-01

 Cycle   3  Pass 1  IDiag  1:
 E= -1136.10500421304     Delta-E=       -0.030449194571 Rises=F Damp=F
 DIIS: error= 4.12D-03 at cycle   3 NSaved=   3.
 NSaved= 3 IEnMin= 3 EnMin= -1136.10500421304     IErMin= 3 ErrMin= 4.12D-03
 ErrMax= 4.12D-03  0.00D+00 EMaxC= 1.00D-01 BMatC= 5.50D-03 BMatP= 7.92D-02
 IDIUse=3 WtCom= 9.59D-01 WtEn= 4.12D-02
 Coeff-Com: -0.303D+00 0.559D+00 0.744D+00
 Coeff-En:   0.000D+00 0.000D+00 0.100D+01
 Coeff:     -0.290D+00 0.536D+00 0.755D+00
 Gap=     0.055 Goal=   None    Shift=    0.000
 Gap=     0.063 Goal=   None    Shift=    0.000
 RMSDP=2.88D-02 MaxDP=2.12D+00 DE=-3.04D-02 OVMax= 5.53D-02

 Cycle   4  Pass 1  IDiag  1:
 E= -1136.10630130430     Delta-E=       -0.001297091257 Rises=F Damp=F
 DIIS: error= 3.12D-03 at cycle   4 NSaved=   4.
 NSaved= 4 IEnMin= 4 EnMin= -1136.10630130430     IErMin= 4 ErrMin= 3.12D-03
 ErrMax= 3.12D-03  0.00D+00 EMaxC= 1.00D-01 BMatC= 2.69D-03 BMatP= 5.50D-03
 IDIUse=3 WtCom= 9.69D-01 WtEn= 3.12D-02
 Coeff-Com:  0.908D-02-0.120D-01 0.412D+00 0.591D+00
 Coeff-En:   0.000D+00 0.000D+00 0.354D+00 0.646D+00
 Coeff:      0.879D-02-0.116D-01 0.410D+00 0.593D+00
 Gap=     0.057 Goal=   None    Shift=    0.000
 Gap=     0.063 Goal=   None    Shift=    0.000
 RMSDP=7.01D-03 MaxDP=4.11D-01 DE=-1.30D-03 OVMax= 2.41D-02

 Cycle   5  Pass 1  IDiag  1:
 E= -1136.10766416348     Delta-E=       -0.001362859183 Rises=F Damp=F
 DIIS: error= 1.19D-04 at cycle   5 NSaved=   5.
 NSaved= 5 IEnMin= 5 EnMin= -1136.10766416348     IErMin= 5 ErrMin= 1.19D-04
 ErrMax= 1.19D-04  0.00D+00 EMaxC= 1.00D-01 BMatC= 3.50D-06 BMatP= 2.69D-03
 IDIUse=3 WtCom= 9.99D-01 WtEn= 1.19D-03
 Coeff-Com: -0.847D-03 0.892D-03 0.744D-01 0.107D+00 0.819D+00
 Coeff-En:   0.000D+00 0.000D+00 0.000D+00 0.000D+00 0.100D+01
 Coeff:     -0.846D-03 0.891D-03 0.743D-01 0.107D+00 0.819D+00
 Gap=     0.057 Goal=   None    Shift=    0.000
 Gap=     0.063 Goal=   None    Shift=    0.000
 RMSDP=1.07D-03 MaxDP=1.30D-01 DE=-1.36D-03 OVMax= 3.98D-03

 Cycle   6  Pass 1  IDiag  1:
 E= -1136.10766040118     Delta-E=        0.000003762302 Rises=F Damp=F
 DIIS: error= 2.04D-04 at cycle   6 NSaved=   6.
 NSaved= 6 IEnMin= 5 EnMin= -1136.10766416348     IErMin= 5 ErrMin= 1.19D-04
 ErrMax= 2.04D-04  0.00D+00 EMaxC= 1.00D-01 BMatC= 7.11D-06 BMatP= 3.50D-06
 IDIUse=3 WtCom= 9.99D-01 WtEn= 1.19D-03
 Coeff-Com: -0.282D-02 0.354D-02-0.250D-01-0.367D-01 0.627D+00 0.434D+00
 Coeff-En:   0.000D+00 0.000D+00 0.000D+00 0.000D+00 0.634D+00 0.366D+00
 Coeff:     -0.282D-02 0.354D-02-0.250D-01-0.366D-01 0.627D+00 0.433D+00
 Gap=     0.057 Goal=   None    Shift=    0.000
 Gap=     0.063 Goal=   None    Shift=    0.000
 RMSDP=3.78D-04 MaxDP=4.26D-02 DE= 3.76D-06 OVMax= 2.51D-03

 Cycle   7  Pass 1  IDiag  1:
 E= -1136.10766827918     Delta-E=       -0.000007877998 Rises=F Damp=F
 DIIS: error= 9.79D-06 at cycle   7 NSaved=   7.
 NSaved= 7 IEnMin= 7 EnMin= -1136.10766827918     IErMin= 7 ErrMin= 9.79D-06
 ErrMax= 9.79D-06  0.00D+00 EMaxC= 1.00D-01 BMatC= 2.53D-08 BMatP= 3.50D-06
 IDIUse=1 WtCom= 1.00D+00 WtEn= 0.00D+00
 Coeff-Com:  0.514D-03-0.700D-03-0.281D-02-0.308D-02-0.953D-01-0.229D-01
 Coeff-Com:  0.112D+01
 Coeff:      0.514D-03-0.700D-03-0.281D-02-0.308D-02-0.953D-01-0.229D-01
 Coeff:      0.112D+01
 Gap=     0.057 Goal=   None    Shift=    0.000
 Gap=     0.063 Goal=   None    Shift=    0.000
 RMSDP=2.29D-04 MaxDP=3.03D-02 DE=-7.88D-06 OVMax= 2.10D-04

 Cycle   8  Pass 1  IDiag  1:
 E= -1136.10766832436     Delta-E=       -0.000000045181 Rises=F Damp=F
 DIIS: error= 2.18D-06 at cycle   8 NSaved=   8.
 NSaved= 8 IEnMin= 8 EnMin= -1136.10766832436     IErMin= 8 ErrMin= 2.18D-06
 ErrMax= 2.18D-06  0.00D+00 EMaxC= 1.00D-01 BMatC= 2.32D-09 BMatP= 2.53D-08
 IDIUse=1 WtCom= 1.00D+00 WtEn= 0.00D+00
 Coeff-Com:  0.278D-03-0.360D-03 0.105D-03 0.356D-03-0.540D-01-0.238D-01
 Coeff-Com:  0.274D+00 0.804D+00
 Coeff:      0.278D-03-0.360D-03 0.105D-03 0.356D-03-0.540D-01-0.238D-01
 Coeff:      0.274D+00 0.804D+00
 Gap=     0.057 Goal=   None    Shift=    0.000
 Gap=     0.063 Goal=   None    Shift=    0.000
 RMSDP=2.68D-05 MaxDP=3.41D-03 DE=-4.52D-08 OVMax= 5.59D-05

 Cycle   9  Pass 1  IDiag  1:
 E= -1136.10766832634     Delta-E=       -0.000000001981 Rises=F Damp=F
 DIIS: error= 1.19D-06 at cycle   9 NSaved=   9.
 NSaved= 9 IEnMin= 9 EnMin= -1136.10766832634     IErMin= 9 ErrMin= 1.19D-06
 ErrMax= 1.19D-06  0.00D+00 EMaxC= 1.00D-01 BMatC= 5.37D-10 BMatP= 2.32D-09
 IDIUse=1 WtCom= 1.00D+00 WtEn= 0.00D+00
 Coeff-Com:  0.452D-04-0.552D-04 0.173D-03 0.263D-03-0.985D-02-0.511D-02
 Coeff-Com: -0.637D-02 0.322D+00 0.699D+00
 Coeff:      0.452D-04-0.552D-04 0.173D-03 0.263D-03-0.985D-02-0.511D-02
 Coeff:     -0.637D-02 0.322D+00 0.699D+00
 Gap=     0.057 Goal=   None    Shift=    0.000
 Gap=     0.063 Goal=   None    Shift=    0.000
 RMSDP=5.19D-06 MaxDP=3.95D-04 DE=-1.98D-09 OVMax= 3.49D-05

 Cycle  10  Pass 1  IDiag  1:
 E= -1136.10766832675     Delta-E=       -0.000000000409 Rises=F Damp=F
 DIIS: error= 1.14D-06 at cycle  10 NSaved=  10.
 NSaved=10 IEnMin=10 EnMin= -1136.10766832675     IErMin=10 ErrMin= 1.14D-06
 ErrMax= 1.14D-06  0.00D+00 EMaxC= 1.00D-01 BMatC= 2.57D-10 BMatP= 5.37D-10
 IDIUse=1 WtCom= 1.00D+00 WtEn= 0.00D+00
 Coeff-Com: -0.159D-04 0.229D-04 0.981D-04 0.116D-03 0.206D-02 0.505D-03
 Coeff-Com: -0.481D-01 0.869D-01 0.462D+00 0.497D+00
 Coeff:     -0.159D-04 0.229D-04 0.981D-04 0.116D-03 0.206D-02 0.505D-03
 Coeff:     -0.481D-01 0.869D-01 0.462D+00 0.497D+00
 Gap=     0.057 Goal=   None    Shift=    0.000
 Gap=     0.063 Goal=   None    Shift=    0.000
 RMSDP=2.66D-06 MaxDP=1.92D-04 DE=-4.09D-10 OVMax= 1.87D-05

 Cycle  11  Pass 1  IDiag  1:
 E= -1136.10766832708     Delta-E=       -0.000000000331 Rises=F Damp=F
 DIIS: error= 2.59D-07 at cycle  11 NSaved=  11.
 NSaved=11 IEnMin=11 EnMin= -1136.10766832708     IErMin=11 ErrMin= 2.59D-07
 ErrMax= 2.59D-07  0.00D+00 EMaxC= 1.00D-01 BMatC= 2.55D-11 BMatP= 2.57D-10
 IDIUse=1 WtCom= 1.00D+00 WtEn= 0.00D+00
 Coeff-Com: -0.182D-04 0.234D-04 0.298D-06-0.226D-04 0.327D-02 0.163D-02
 Coeff-Com: -0.111D-01-0.788D-01-0.667D-01 0.167D+00 0.985D+00
 Coeff:     -0.182D-04 0.234D-04 0.298D-06-0.226D-04 0.327D-02 0.163D-02
 Coeff:     -0.111D-01-0.788D-01-0.667D-01 0.167D+00 0.985D+00
 Gap=     0.057 Goal=   None    Shift=    0.000
 Gap=     0.063 Goal=   None    Shift=    0.000
 RMSDP=3.18D-06 MaxDP=2.16D-04 DE=-3.31D-10 OVMax= 1.57D-05

 Cycle  12  Pass 1  IDiag  1:
 E= -1136.10766832718     Delta-E=       -0.000000000102 Rises=F Damp=F
 DIIS: error= 1.37D-07 at cycle  12 NSaved=  12.
 NSaved=12 IEnMin=12 EnMin= -1136.10766832718     IErMin=12 ErrMin= 1.37D-07
 ErrMax= 1.37D-07  0.00D+00 EMaxC= 1.00D-01 BMatC= 3.65D-12 BMatP= 2.55D-11
 IDIUse=1 WtCom= 1.00D+00 WtEn= 0.00D+00
 Coeff-Com:  0.229D-05-0.371D-05-0.156D-04-0.193D-04-0.583D-04 0.229D-03
 Coeff-Com:  0.101D-01-0.349D-01-0.121D+00-0.999D-01 0.119D+00 0.113D+01
 Coeff:      0.229D-05-0.371D-05-0.156D-04-0.193D-04-0.583D-04 0.229D-03
 Coeff:      0.101D-01-0.349D-01-0.121D+00-0.999D-01 0.119D+00 0.113D+01
 Gap=     0.057 Goal=   None    Shift=    0.000
 Gap=     0.063 Goal=   None    Shift=    0.000
 RMSDP=1.93D-06 MaxDP=1.07D-04 DE=-1.02D-10 OVMax= 1.05D-05

 Cycle  13  Pass 1  IDiag  1:
 E= -1136.10766832720     Delta-E=       -0.000000000018 Rises=F Damp=F
 DIIS: error= 5.80D-08 at cycle  13 NSaved=  13.
 NSaved=13 IEnMin=13 EnMin= -1136.10766832720     IErMin=13 ErrMin= 5.80D-08
 ErrMax= 5.80D-08  0.00D+00 EMaxC= 1.00D-01 BMatC= 1.03D-12 BMatP= 3.65D-12
 IDIUse=1 WtCom= 1.00D+00 WtEn= 0.00D+00
 Coeff-Com:  0.285D-05-0.401D-05-0.998D-05-0.892D-05-0.334D-03-0.482D-04
 Coeff-Com:  0.540D-02-0.584D-02-0.494D-01-0.636D-01-0.409D-01 0.490D+00
 Coeff-Com:  0.664D+00
 Coeff:      0.285D-05-0.401D-05-0.998D-05-0.892D-05-0.334D-03-0.482D-04
 Coeff:      0.540D-02-0.584D-02-0.494D-01-0.636D-01-0.409D-01 0.490D+00
 Coeff:      0.664D+00
 Gap=     0.057 Goal=   None    Shift=    0.000
 Gap=     0.063 Goal=   None    Shift=    0.000
 RMSDP=5.10D-07 MaxDP=6.98D-05 DE=-1.77D-11 OVMax= 2.29D-06

 Cycle  14  Pass 1  IDiag  1:
 E= -1136.10766832719     Delta-E=        0.000000000010 Rises=F Damp=F
 DIIS: error= 3.26D-08 at cycle  14 NSaved=  14.
 NSaved=14 IEnMin=13 EnMin= -1136.10766832720     IErMin=14 ErrMin= 3.26D-08
 ErrMax= 3.26D-08  0.00D+00 EMaxC= 1.00D-01 BMatC= 3.10D-13 BMatP= 1.03D-12
 IDIUse=1 WtCom= 1.00D+00 WtEn= 0.00D+00
 Coeff-Com:  0.714D-06-0.822D-06-0.196D-05 0.142D-06-0.166D-03-0.131D-03
 Coeff-Com: -0.728D-03 0.105D-01 0.161D-01 0.120D-02-0.604D-01-0.166D+00
 Coeff-Com:  0.363D+00 0.837D+00
 Coeff:      0.714D-06-0.822D-06-0.196D-05 0.142D-06-0.166D-03-0.131D-03
 Coeff:     -0.728D-03 0.105D-01 0.161D-01 0.120D-02-0.604D-01-0.166D+00
 Coeff:      0.363D+00 0.837D+00
 Gap=     0.057 Goal=   None    Shift=    0.000
 Gap=     0.063 Goal=   None    Shift=    0.000
 RMSDP=3.37D-07 MaxDP=3.45D-05 DE= 1.05D-11 OVMax= 1.54D-06

 Cycle  15  Pass 1  IDiag  1:
 E= -1136.10766832721     Delta-E=       -0.000000000020 Rises=F Damp=F
 DIIS: error= 1.26D-08 at cycle  15 NSaved=  15.
 NSaved=15 IEnMin=15 EnMin= -1136.10766832721     IErMin=15 ErrMin= 1.26D-08
 ErrMax= 1.26D-08  0.00D+00 EMaxC= 1.00D-01 BMatC= 1.79D-14 BMatP= 3.10D-13
 IDIUse=1 WtCom= 1.00D+00 WtEn= 0.00D+00
 Coeff-Com: -0.385D-06 0.517D-06 0.145D-05 0.111D-05 0.430D-04-0.834D-05
 Coeff-Com: -0.181D-03-0.183D-02 0.289D-02 0.741D-02 0.135D-01-0.335D-01
 Coeff-Com: -0.122D+00-0.103D+00 0.124D+01
 Coeff:     -0.385D-06 0.517D-06 0.145D-05 0.111D-05 0.430D-04-0.834D-05
 Coeff:     -0.181D-03-0.183D-02 0.289D-02 0.741D-02 0.135D-01-0.335D-01
 Coeff:     -0.122D+00-0.103D+00 0.124D+01
 Gap=     0.057 Goal=   None    Shift=    0.000
 Gap=     0.063 Goal=   None    Shift=    0.000
 RMSDP=5.76D-08 MaxDP=4.84D-06 DE=-1.96D-11 OVMax= 6.17D-07

 Cycle  16  Pass 1  IDiag  1:
 E= -1136.10766832718     Delta-E=        0.000000000027 Rises=F Damp=F
 DIIS: error= 4.32D-09 at cycle  16 NSaved=  16.
 NSaved=16 IEnMin=15 EnMin= -1136.10766832721     IErMin=16 ErrMin= 4.32D-09
 ErrMax= 4.32D-09  0.00D+00 EMaxC= 1.00D-01 BMatC= 2.39D-15 BMatP= 1.79D-14
 IDIUse=1 WtCom= 1.00D+00 WtEn= 0.00D+00
 Large coefficients: NSaved= 16 BigCof=    0.00 CofMax=   10.00 Det=-5.32D-15
 Inversion failed.  Reducing to 15 matrices.
 Coeff-Com: -0.238D-07 0.101D-05 0.800D-06 0.160D-04 0.801D-05 0.519D-04
 Coeff-Com: -0.126D-02-0.891D-03 0.117D-02 0.809D-02 0.131D-01-0.687D-01
 Coeff-Com: -0.122D+00 0.266D+00 0.904D+00
 Coeff:     -0.238D-07 0.101D-05 0.800D-06 0.160D-04 0.801D-05 0.519D-04
 Coeff:     -0.126D-02-0.891D-03 0.117D-02 0.809D-02 0.131D-01-0.687D-01
 Coeff:     -0.122D+00 0.266D+00 0.904D+00
 Gap=     0.057 Goal=   None    Shift=    0.000
 Gap=     0.063 Goal=   None    Shift=    0.000
 RMSDP=1.94D-08 MaxDP=1.65D-06 DE= 2.68D-11 OVMax= 2.16D-07

 Cycle  17  Pass 1  IDiag  1:
 E= -1136.10766832719     Delta-E=       -0.000000000012 Rises=F Damp=F
 DIIS: error= 1.25D-09 at cycle  17 NSaved=  16.
 NSaved=16 IEnMin=14 EnMin= -1136.10766832721     IErMin=16 ErrMin= 1.25D-09
 ErrMax= 1.25D-09  0.00D+00 EMaxC= 1.00D-01 BMatC= 4.24D-16 BMatP= 2.39D-15
 IDIUse=1 WtCom= 1.00D+00 WtEn= 0.00D+00
 Large coefficients: NSaved= 16 BigCof=    0.00 CofMax=   10.00 Det=-1.85D-15
 Inversion failed.  Reducing to 15 matrices.
 Coeff-Com: -0.696D-07-0.366D-06 0.952D-05 0.856D-05 0.324D-04-0.365D-03
 Coeff-Com: -0.114D-02-0.560D-03 0.285D-02 0.861D-02-0.756D-02-0.275D-01
 Coeff-Com: -0.100D+00 0.256D+00 0.869D+00
 Coeff:     -0.696D-07-0.366D-06 0.952D-05 0.856D-05 0.324D-04-0.365D-03
 Coeff:     -0.114D-02-0.560D-03 0.285D-02 0.861D-02-0.756D-02-0.275D-01
 Coeff:     -0.100D+00 0.256D+00 0.869D+00
 Gap=     0.057 Goal=   None    Shift=    0.000
 Gap=     0.063 Goal=   None    Shift=    0.000
 RMSDP=1.69D-08 MaxDP=2.40D-06 DE=-1.18D-11 OVMax= 7.03D-08

 Cycle  18  Pass 1  IDiag  1:
 E= -1136.10766832720     Delta-E=       -0.000000000005 Rises=F Damp=F
 DIIS: error= 3.69D-10 at cycle  18 NSaved=  16.
 NSaved=16 IEnMin=13 EnMin= -1136.10766832721     IErMin=16 ErrMin= 3.69D-10
 ErrMax= 3.69D-10  0.00D+00 EMaxC= 1.00D-01 BMatC= 1.59D-17 BMatP= 4.24D-16
 IDIUse=1 WtCom= 1.00D+00 WtEn= 0.00D+00
 Large coefficients: NSaved= 16 BigCof=    0.00 CofMax=   10.00 Det=-8.76D-17
 Inversion failed.  Reducing to 15 matrices.
 Coeff-Com:  0.581D-07-0.652D-06-0.132D-05-0.890D-05 0.780D-04 0.114D-03
 Coeff-Com: -0.310D-04-0.600D-03-0.101D-02 0.393D-02 0.750D-02-0.928D-02
 Coeff-Com: -0.599D-01-0.520D-02 0.106D+01
 Coeff:      0.581D-07-0.652D-06-0.132D-05-0.890D-05 0.780D-04 0.114D-03
 Coeff:     -0.310D-04-0.600D-03-0.101D-02 0.393D-02 0.750D-02-0.928D-02
 Coeff:     -0.599D-01-0.520D-02 0.106D+01
 Gap=     0.057 Goal=   None    Shift=    0.000
 Gap=     0.063 Goal=   None    Shift=    0.000
 RMSDP=1.65D-08 MaxDP=3.24D-06 DE=-5.00D-12 OVMax= 1.27D-08

 Cycle  19  Pass 1  IDiag  1:
 E= -1136.10766832717     Delta-E=        0.000000000025 Rises=F Damp=F
 DIIS: error= 1.56D-10 at cycle  19 NSaved=  16.
 NSaved=16 IEnMin=12 EnMin= -1136.10766832721     IErMin=16 ErrMin= 1.56D-10
 ErrMax= 1.56D-10  0.00D+00 EMaxC= 1.00D-01 BMatC= 2.50D-18 BMatP= 1.59D-17
 IDIUse=1 WtCom= 1.00D+00 WtEn= 0.00D+00
 Large coefficients: NSaved= 16 BigCof=    0.00 CofMax=   10.00 Det=-4.26D-18
 Inversion failed.  Reducing to 15 matrices.
 Coeff-Com: -0.839D-06-0.756D-07 0.456D-05-0.557D-05 0.128D-04 0.232D-04
 Coeff-Com:  0.169D-04-0.343D-04-0.545D-03-0.687D-03 0.523D-02 0.247D-02
 Coeff-Com: -0.476D-01-0.241D+00 0.128D+01
 Coeff:     -0.839D-06-0.756D-07 0.456D-05-0.557D-05 0.128D-04 0.232D-04
 Coeff:      0.169D-04-0.343D-04-0.545D-03-0.687D-03 0.523D-02 0.247D-02
 Coeff:     -0.476D-01-0.241D+00 0.128D+01
 Gap=     0.057 Goal=   None    Shift=    0.000
 Gap=     0.063 Goal=   None    Shift=    0.000
 RMSDP=9.33D-09 MaxDP=6.93D-07 DE= 2.55D-11 OVMax= 6.35D-09

 SCF Done:  E(UB3LYP) =  -1136.10766833     A.U. after   19 cycles
            NFock= 19  Conv=0.93D-08     -V/T= 2.0024
 <Sx>= 0.0000 <Sy>= 0.0000 <Sz>= 0.5000 <S**2>= 0.7565 S= 0.5032
 <L.S>= 0.000000000000E+00
 KE= 1.133383956483D+03 PE=-3.527660444581D+03 EE= 8.592701314495D+02
 Annihilation of the first spin contaminant:
 S**2 before annihilation     0.7565,   after     0.7500
 Leave Link  502 at Mon Nov 13 20:12:27 2023, MaxMem=  1879048192 cpu:             191.8 elap:              16.4
 (Enter /home/sekinelabo/g16/l601.exe)
 Copying SCF densities to generalized density rwf, IOpCl= 1 IROHF=0.

 **********************************************************************

            Population analysis using the SCF Density.

 **********************************************************************

 Orbital symmetries:
 Alpha Orbitals:
       Occupied  (A) (A) (A) (A) (A) (A) (A) (A) (A) (A) (A) (A)
                 (A) (A) (A) (A) (A) (A) (A) (A) (A) (A) (A) (A)
                 (A) (A) (A) (A) (A) (A) (A) (A) (A) (A) (A) (A)
                 (A) (A) (A)
       Virtual   (A) (A) (A) (A) (A) (A) (A) (A) (A) (A) (A) (A)
                 (A) (A) (A) (A) (A) (A) (A) (A) (A) (A) (A) (A)
                 (A) (A) (A) (A) (A) (A) (A) (A) (A) (A) (A) (A)
                 (A) (A) (A) (A) (A) (A) (A) (A) (A) (A) (A) (A)
                 (A) (A) (A) (A) (A) (A) (A) (A) (A) (A) (A) (A)
                 (A) (A) (A) (A) (A) (A) (A) (A) (A) (A) (A) (A)
                 (A) (A) (A) (A) (A) (A) (A) (A) (A) (A) (A) (A)
                 (A) (A) (A) (A) (A) (A) (A) (A) (A) (A) (A) (A)
                 (A) (A) (A) (A) (A) (A) (A) (A) (A) (A) (A) (A)
                 (A) (A) (A) (A) (A) (A) (A) (A) (A) (A) (A) (A)
                 (A) (A) (A) (A) (A) (A) (A) (A) (A) (A) (A) (A)
                 (A) (A) (A) (A) (A) (A) (A) (A) (A) (A) (A) (A)
                 (A) (A) (A) (A) (A) (A) (A) (A) (A) (A) (A) (A)
                 (A) (A) (A) (A) (A) (A) (A) (A) (A) (A) (A) (A)
                 (A) (A) (A)
 Beta  Orbitals:
       Occupied  (A) (A) (A) (A) (A) (A) (A) (A) (A) (A) (A) (A)
                 (A) (A) (A) (A) (A) (A) (A) (A) (A) (A) (A) (A)
                 (A) (A) (A) (A) (A) (A) (A) (A) (A) (A) (A) (A)
                 (A) (A)
       Virtual   (A) (A) (A) (A) (A) (A) (A) (A) (A) (A) (A) (A)
                 (A) (A) (A) (A) (A) (A) (A) (A) (A) (A) (A) (A)
                 (A) (A) (A) (A) (A) (A) (A) (A) (A) (A) (A) (A)
                 (A) (A) (A) (A) (A) (A) (A) (A) (A) (A) (A) (A)
                 (A) (A) (A) (A) (A) (A) (A) (A) (A) (A) (A) (A)
                 (A) (A) (A) (A) (A) (A) (A) (A) (A) (A) (A) (A)
                 (A) (A) (A) (A) (A) (A) (A) (A) (A) (A) (A) (A)
                 (A) (A) (A) (A) (A) (A) (A) (A) (A) (A) (A) (A)
                 (A) (A) (A) (A) (A) (A) (A) (A) (A) (A) (A) (A)
                 (A) (A) (A) (A) (A) (A) (A) (A) (A) (A) (A) (A)
                 (A) (A) (A) (A) (A) (A) (A) (A) (A) (A) (A) (A)
                 (A) (A) (A) (A) (A) (A) (A) (A) (A) (A) (A) (A)
                 (A) (A) (A) (A) (A) (A) (A) (A) (A) (A) (A) (A)
                 (A) (A) (A) (A) (A) (A) (A) (A) (A) (A) (A) (A)
                 (A) (A) (A) (A)
 The electronic state is 2-A.
 Alpha  occ. eigenvalues --  -38.43569 -38.43567 -38.43565 -38.43426 -38.43422
 Alpha  occ. eigenvalues --  -38.42882 -38.42882  -2.19658  -2.19553  -2.19548
 Alpha  occ. eigenvalues --   -2.19461  -2.19456  -2.19199  -2.19156  -1.13530
 Alpha  occ. eigenvalues --   -1.13483  -1.13397  -1.13319  -1.13292  -1.13233
 Alpha  occ. eigenvalues --   -1.13221  -1.13219  -1.13166  -1.13145  -1.13116
 Alpha  occ. eigenvalues --   -1.13110  -1.13092  -1.13063  -1.13002  -1.12989
 Alpha  occ. eigenvalues --   -1.12752  -1.12745  -1.12733  -1.12727  -1.12703
 Alpha  occ. eigenvalues --   -0.20797  -0.13634  -0.13361  -0.10788
 Alpha virt. eigenvalues --   -0.05053  -0.05032  -0.04610  -0.02985  -0.02789
 Alpha virt. eigenvalues --   -0.01727  -0.01201  -0.01114   0.00088   0.00230
 Alpha virt. eigenvalues --    0.00328   0.00372   0.00953   0.00969   0.01045
 Alpha virt. eigenvalues --    0.01065   0.01325   0.01353   0.01402   0.01513
 Alpha virt. eigenvalues --    0.01666   0.01730   0.01963   0.01982   0.02226
 Alpha virt. eigenvalues --    0.02456   0.02468   0.02800   0.02803   0.02885
 Alpha virt. eigenvalues --    0.03227   0.03231   0.03344   0.03374   0.03375
 Alpha virt. eigenvalues --    0.03512   0.03578   0.03659   0.03779   0.03783
 Alpha virt. eigenvalues --    0.04731   0.04874   0.04902   0.05101   0.05113
 Alpha virt. eigenvalues --    0.05313   0.05368   0.05390   0.05551   0.05598
 Alpha virt. eigenvalues --    0.06238   0.07690   0.07707   0.08091   0.08249
 Alpha virt. eigenvalues --    0.08320   0.08357   0.08667   0.08854   0.09694
 Alpha virt. eigenvalues --    0.09935   0.10323   0.11661   0.11692   0.12301
 Alpha virt. eigenvalues --    0.12740   0.13826   0.13925   0.13942   0.14088
 Alpha virt. eigenvalues --    0.14359   0.14530   0.14710   0.15119   0.15220
 Alpha virt. eigenvalues --    0.16215   0.17047   0.17867   0.17900   0.19461
 Alpha virt. eigenvalues --    0.25875   0.26052   0.26416   0.26808   0.27747
 Alpha virt. eigenvalues --    0.28362   0.29969   0.31476   0.32195   0.36423
 Alpha virt. eigenvalues --    0.36697   0.36954   0.37659   0.39228   0.39909
 Alpha virt. eigenvalues --    0.40518   0.40654   0.42439   0.42932   0.44350
 Alpha virt. eigenvalues --    0.44488   0.45875   0.45962   0.46414   0.46890
 Alpha virt. eigenvalues --    0.47059   0.47823   0.47936   0.48497   0.48699
 Alpha virt. eigenvalues --    0.48937   0.49725   0.51270   0.52072   0.52528
 Alpha virt. eigenvalues --    0.53218   0.53877   0.54294   0.55858   0.56489
 Alpha virt. eigenvalues --    0.56543   0.60522   0.63603   0.64450   0.65331
 Alpha virt. eigenvalues --    0.65379   0.67283   0.67612   0.68480   0.70387
 Alpha virt. eigenvalues --    0.74538   0.74786   0.77259   0.77681   0.80952
 Alpha virt. eigenvalues --    0.84158   2.13956   2.24432   2.25349   2.26047
 Alpha virt. eigenvalues --    2.26235   2.38395   2.42930   4.41537   4.41760
 Alpha virt. eigenvalues --    4.41855   4.42086   4.42172   4.43674   4.46806
 Alpha virt. eigenvalues --    4.47637   4.49127   4.49881   4.54215   4.54472
 Alpha virt. eigenvalues --    4.60943   4.65194   4.66841   4.66905   4.67636
 Alpha virt. eigenvalues --    4.71657   4.84825   4.87154   4.90632  96.35127
 Alpha virt. eigenvalues --   96.50031  96.51306  96.52817  96.53298  96.70456
 Alpha virt. eigenvalues --   96.75084
  Beta  occ. eigenvalues --  -38.43560 -38.43556 -38.43554 -38.43415 -38.43411
  Beta  occ. eigenvalues --  -38.42805 -38.42805  -2.19640  -2.19542  -2.19537
  Beta  occ. eigenvalues --   -2.19447  -2.19441  -2.19063  -2.19018  -1.13513
  Beta  occ. eigenvalues --   -1.13479  -1.13378  -1.13307  -1.13224  -1.13217
  Beta  occ. eigenvalues --   -1.13183  -1.13169  -1.13159  -1.13135  -1.13107
  Beta  occ. eigenvalues --   -1.13057  -1.13057  -1.13033  -1.12986  -1.12932
  Beta  occ. eigenvalues --   -1.12660  -1.12647  -1.12645  -1.12628  -1.12601
  Beta  occ. eigenvalues --   -0.20040  -0.13290  -0.13029
  Beta virt. eigenvalues --   -0.06707  -0.05064  -0.05030  -0.04597  -0.02089
  Beta virt. eigenvalues --   -0.01929  -0.01131  -0.01055  -0.00750   0.00186
  Beta virt. eigenvalues --    0.00213   0.00286   0.00422   0.00970   0.00984
  Beta virt. eigenvalues --    0.01063   0.01074   0.01495   0.01518   0.01595
  Beta virt. eigenvalues --    0.01603   0.01747   0.01877   0.01974   0.01983
  Beta virt. eigenvalues --    0.02395   0.02467   0.02473   0.02805   0.02811
  Beta virt. eigenvalues --    0.02896   0.03224   0.03226   0.03343   0.03374
  Beta virt. eigenvalues --    0.03520   0.03591   0.03643   0.03769   0.03833
  Beta virt. eigenvalues --    0.04120   0.04823   0.04982   0.05032   0.05213
  Beta virt. eigenvalues --    0.05255   0.05505   0.05531   0.05548   0.05621
  Beta virt. eigenvalues --    0.05680   0.06582   0.07667   0.07674   0.08205
  Beta virt. eigenvalues --    0.08405   0.08462   0.08492   0.08791   0.08960
  Beta virt. eigenvalues --    0.09932   0.10402   0.10631   0.11774   0.11822
  Beta virt. eigenvalues --    0.12475   0.12877   0.14057   0.14316   0.14396
  Beta virt. eigenvalues --    0.14478   0.14545   0.14671   0.14932   0.15366
  Beta virt. eigenvalues --    0.15536   0.16617   0.16964   0.18230   0.18282
  Beta virt. eigenvalues --    0.20073   0.26238   0.26405   0.26448   0.26793
  Beta virt. eigenvalues --    0.27742   0.28332   0.30543   0.32137   0.32839
  Beta virt. eigenvalues --    0.36820   0.36940   0.37036   0.37864   0.39637
  Beta virt. eigenvalues --    0.40178   0.40755   0.41067   0.42556   0.43130
  Beta virt. eigenvalues --    0.44604   0.44732   0.45878   0.46024   0.46628
  Beta virt. eigenvalues --    0.46818   0.47086   0.48163   0.48278   0.48679
  Beta virt. eigenvalues --    0.48765   0.49065   0.50067   0.51378   0.52296
  Beta virt. eigenvalues --    0.52699   0.53243   0.53936   0.54367   0.56353
  Beta virt. eigenvalues --    0.56460   0.56922   0.60504   0.63837   0.64819
  Beta virt. eigenvalues --    0.65307   0.65980   0.67888   0.68024   0.69103
  Beta virt. eigenvalues --    0.70318   0.74836   0.75083   0.77681   0.77694
  Beta virt. eigenvalues --    0.81035   0.84192   2.13978   2.24446   2.25364
  Beta virt. eigenvalues --    2.26067   2.26245   2.38792   2.43238   4.41607
  Beta virt. eigenvalues --    4.41809   4.41952   4.42100   4.42268   4.43668
  Beta virt. eigenvalues --    4.46878   4.47715   4.49193   4.49964   4.54230
  Beta virt. eigenvalues --    4.54484   4.60953   4.65213   4.66976   4.67043
  Beta virt. eigenvalues --    4.67657   4.71680   4.84911   4.87216   4.90681
  Beta virt. eigenvalues --   96.35141  96.50038  96.51315  96.52825  96.53308
  Beta virt. eigenvalues --   96.70565  96.75184
          Condensed to atoms (all electrons):
               1          2          3          4          5          6
     1  Na  22.316223  -0.103238  -0.117354  -9.270105  -0.312966  -0.356690
     2  Na  -0.103238  14.641305   0.547939  -0.108325  -3.058031  -2.697463
     3  Na  -0.117354   0.547939  14.653958  -0.097270   1.512598  -2.707595
     4  Na  -9.270105  -0.108325  -0.097270  22.295089  -0.284304  -0.361245
     5  Na  -0.312966  -3.058031   1.512598  -0.284304  14.735076   0.960173
     6  Na  -0.356690  -2.697463  -2.707595  -0.361245   0.960173  14.803001
     7  Na  -0.289314   1.510563  -3.060012  -0.303578  -2.958356   0.968066
               7
     1  Na  -0.289314
     2  Na   1.510563
     3  Na  -3.060012
     4  Na  -0.303578
     5  Na  -2.958356
     6  Na   0.968066
     7  Na  14.728367
          Atomic-Atomic Spin Densities.
               1          2          3          4          5          6
     1  Na  10.112198   0.000884   0.002546  -9.935286   0.073277   0.155787
     2  Na   0.000884  -0.614523  -0.125241   0.004160   0.433996   0.456002
     3  Na   0.002546  -0.125241  -0.617561   0.003834  -0.210956   0.458430
     4  Na  -9.935286   0.004160   0.003834  10.094691   0.081494   0.153696
     5  Na   0.073277   0.433996  -0.210956   0.081494  -0.648437  -0.175033
     6  Na   0.155787   0.456002   0.458430   0.153696  -0.175033  -0.777891
     7  Na   0.074622  -0.210321   0.434109   0.079803   0.470829  -0.177386
               7
     1  Na   0.074622
     2  Na  -0.210321
     3  Na   0.434109
     4  Na   0.079803
     5  Na   0.470829
     6  Na  -0.177386
     7  Na  -0.646969
 Mulliken charges and spin densities:
               1          2
     1  Na  -0.866555   0.484028
     2  Na   0.267252  -0.055043
     3  Na   0.267737  -0.054839
     4  Na  -0.870263   0.482391
     5  Na   0.405811   0.025169
     6  Na   0.391754   0.093606
     7  Na   0.404264   0.024687
 Sum of Mulliken charges =  -0.00000   1.00000
 Mulliken charges and spin densities with hydrogens summed into heavy atoms:
               1          2
     1  Na  -0.866555   0.484028
     2  Na   0.267252  -0.055043
     3  Na   0.267737  -0.054839
     4  Na  -0.870263   0.482391
     5  Na   0.405811   0.025169
     6  Na   0.391754   0.093606
     7  Na   0.404264   0.024687
 Electronic spatial extent (au):  <R**2>=           1707.1238
 Charge=             -0.0000 electrons
 Dipole moment (field-independent basis, Debye):
    X=              0.3445    Y=              0.0053    Z=              0.0009  Tot=              0.3445
 Quadrupole moment (field-independent basis, Debye-Ang):
   XX=            -57.9928   YY=            -59.2422   ZZ=            -75.4323
   XY=             -0.0124   XZ=             -0.0007   YZ=              0.0071
 Traceless Quadrupole moment (field-independent basis, Debye-Ang):
   XX=              6.2296   YY=              4.9803   ZZ=            -11.2099
   XY=             -0.0124   XZ=             -0.0007   YZ=              0.0071
 Octapole moment (field-independent basis, Debye-Ang**2):
  XXX=              6.6901  YYY=              0.1344  ZZZ=              0.0193  XYY=              2.6158
  XXY=              0.0003  XXZ=              0.0083  XZZ=              1.8235  YZZ=              0.0271
  YYZ=             -0.0144  XYZ=             -0.0019
 Hexadecapole moment (field-independent basis, Debye-Ang**3):
 XXXX=          -1139.1027 YYYY=          -1102.8489 ZZZZ=           -576.3165 XXXY=             -1.1975
 XXXZ=             -0.0657 YYYX=              0.8368 YYYZ=              0.1413 ZZZX=              0.0021
 ZZZY=              0.0047 XXYY=           -348.2089 XXZZ=           -335.7667 YYZZ=           -326.7848
 XXYZ=              0.0372 YYXZ=              0.0479 ZZXY=             -0.0237
 N-N= 3.988986883210D+02 E-N=-3.527660444578D+03  KE= 1.133383956483D+03
                          Isotropic Fermi Contact Couplings
        Atom                 a.u.       MegaHertz       Gauss      10(-4) cm-1
     1  Na(23)             0.29486     348.82441     124.46922     116.35530
     2  Na(23)            -0.01630     -19.28491      -6.88133      -6.43275
     3  Na(23)            -0.01632     -19.30562      -6.88873      -6.43966
     4  Na(23)             0.29444     348.33103     124.29317     116.19073
     5  Na(23)            -0.01693     -20.02611      -7.14581      -6.67999
     6  Na(23)            -0.01695     -20.05483      -7.15606      -6.68957
     7  Na(23)            -0.01696     -20.06114      -7.15831      -6.69168
 --------------------------------------------------------
       Center         ----  Spin Dipole Couplings  ----
                      3XX-RR        3YY-RR        3ZZ-RR
 --------------------------------------------------------
     1   Atom       -0.001545     -0.002295      0.003840
     2   Atom       -0.019874     -0.021530      0.041404
     3   Atom       -0.019698     -0.021659      0.041357
     4   Atom       -0.001637     -0.002288      0.003925
     5   Atom       -0.027079     -0.022072      0.049151
     6   Atom       -0.024886     -0.031559      0.056444
     7   Atom       -0.026921     -0.022113      0.049034
 --------------------------------------------------------
                        XY            XZ            YZ
 --------------------------------------------------------
     1   Atom        0.000002     -0.003517     -0.000033
     2   Atom        0.002853      0.000006     -0.000033
     3   Atom       -0.002807      0.000024      0.000024
     4   Atom        0.000025      0.003520      0.000091
     5   Atom        0.001819     -0.000041     -0.000074
     6   Atom        0.000089      0.000061      0.000028
     7   Atom       -0.001962     -0.000030     -0.000014
 --------------------------------------------------------


 ---------------------------------------------------------------------------------
              Anisotropic Spin Dipole Couplings in Principal Axis System
 ---------------------------------------------------------------------------------

       Atom             a.u.   MegaHertz   Gauss  10(-4) cm-1        Axes

              Baa    -0.0033    -0.463    -0.165    -0.155  0.8965  0.0132  0.4428
     1 Na(23) Bbb    -0.0023    -0.324    -0.116    -0.108 -0.0135  0.9999 -0.0025
              Bcc     0.0056     0.788     0.281     0.263 -0.4428 -0.0038  0.8966
 
              Baa    -0.0237    -3.343    -1.193    -1.115 -0.6006  0.7996  0.0005
     2 Na(23) Bbb    -0.0177    -2.504    -0.893    -0.835  0.7996  0.6006  0.0003
              Bcc     0.0414     5.847     2.086     1.950  0.0001 -0.0005  1.0000
 
              Baa    -0.0237    -3.340    -1.192    -1.114  0.5789  0.8154 -0.0005
     3 Na(23) Bbb    -0.0177    -2.500    -0.892    -0.834  0.8154 -0.5789 -0.0001
              Bcc     0.0414     5.840     2.084     1.948  0.0004  0.0004  1.0000
 
              Baa    -0.0033    -0.472    -0.168    -0.157  0.8998  0.0161 -0.4360
     4 Na(23) Bbb    -0.0023    -0.323    -0.115    -0.108 -0.0196  0.9998 -0.0035
              Bcc     0.0056     0.795     0.284     0.265  0.4359  0.0118  0.8999
 
              Baa    -0.0277    -3.907    -1.394    -1.303  0.9511 -0.3090  0.0002
     5 Na(23) Bbb    -0.0215    -3.033    -1.082    -1.012  0.3090  0.9511  0.0012
              Bcc     0.0492     6.941     2.477     2.315 -0.0006 -0.0011  1.0000
 
              Baa    -0.0316    -4.457    -1.590    -1.487 -0.0133  0.9999 -0.0003
     6 Na(23) Bbb    -0.0249    -3.514    -1.254    -1.172  0.9999  0.0133 -0.0007
              Bcc     0.0564     7.971     2.844     2.659  0.0007  0.0003  1.0000
 
              Baa    -0.0276    -3.900    -1.392    -1.301  0.9420  0.3356  0.0004
     7 Na(23) Bbb    -0.0214    -3.024    -1.079    -1.009 -0.3356  0.9420  0.0000
              Bcc     0.0490     6.924     2.471     2.310 -0.0004 -0.0002  1.0000
 

 ---------------------------------------------------------------------------------

 No NMR shielding tensors so no spin-rotation constants.
 Leave Link  601 at Mon Nov 13 20:12:27 2023, MaxMem=  1879048192 cpu:               2.6 elap:               0.2
 (Enter /home/sekinelabo/g16/l701.exe)
 ... and contract with generalized density number  0.
 Compute integral first derivatives.
 Leave Link  701 at Mon Nov 13 20:12:27 2023, MaxMem=  1879048192 cpu:               1.8 elap:               0.1
 (Enter /home/sekinelabo/g16/l702.exe)
 L702 exits ... SP integral derivatives will be done elsewhere.
 Leave Link  702 at Mon Nov 13 20:12:27 2023, MaxMem=  1879048192 cpu:               0.4 elap:               0.0
 (Enter /home/sekinelabo/g16/l703.exe)
 Integral derivatives from FoFJK, PRISM(SPDF).
 Compute integral first derivatives, UseDBF=F ICtDFT=           0.
 Calling FoFJK, ICntrl=      2127 FMM=F ISym2X=0 I1Cent= 0 IOpClX= 1 NMat=1 NMatS=1 NMatT=0.
 FoFJK:  IHMeth= 1 ICntrl=    2127 DoSepK=F KAlg= 0 I1Cent=           0 FoldK=F
 IRaf=         0 NMat=       1 IRICut=       1 DoRegI=T DoRafI=F ISym2E= 0 IDoP0=0 IntGTp=1.
 FoFCou: FMM=F IPFlag=           0 FMFlag=      100000 FMFlg1=         800
         NFxFlg=           0 DoJE=F BraDBF=F KetDBF=F FulRan=T
         wScrn=  0.000000 ICntrl=      2127 IOpCl=  1 I1Cent=           0 NGrid=           0
         NMat0=    1 NMatS0=      1 NMatT0=    0 NMatD0=    1 NMtDS0=    0 NMtDT0=    0
 Symmetry not used in FoFCou.
 Leave Link  703 at Mon Nov 13 20:12:30 2023, MaxMem=  1879048192 cpu:              38.3 elap:               2.5
 (Enter /home/sekinelabo/g16/l716.exe)
 Dipole        = 1.35527551D-01 2.07441584D-03 3.60508561D-04
 ***** Axes restored to original set *****
 -------------------------------------------------------------------
 Center     Atomic                   Forces (Hartrees/Bohr)
 Number     Number              X              Y              Z
 -------------------------------------------------------------------
      1       11          -0.001498790    0.000057215   -0.022640226
      2       11          -0.009178767    0.007562018   -0.000016591
      3       11          -0.009354601   -0.007270170    0.000012704
      4       11          -0.001505482    0.000016159    0.022661300
      5       11           0.000775816   -0.017230269    0.000020688
      6       11           0.019579578   -0.000290830   -0.000013777
      7       11           0.001182247    0.017155877   -0.000024099
 -------------------------------------------------------------------
 Cartesian Forces:  Max     0.022661300 RMS     0.010440490
 Z-matrix is all fixed cartesians, so copy forces.
 Force constants in Cartesian coordinates: 
                1             2             3             4             5 
      1  0.187546D+00
      2 -0.434253D-04  0.184433D+00
      3  0.171133D-02 -0.217446D-04  0.274074D+00
      4 -0.337258D-01  0.680833D-02 -0.749939D-02  0.126657D+00
      5  0.762663D-02 -0.312404D-01  0.497588D-02 -0.257277D-01  0.114534D+00
      6  0.307302D-01 -0.246289D-01 -0.396534D-01  0.349386D-04 -0.578100D-05
      7 -0.341069D-01 -0.675476D-02 -0.763317D-02 -0.219978D-01  0.233244D-01
      8 -0.753299D-02 -0.308247D-01 -0.478608D-02 -0.236959D-01 -0.358496D-01
      9  0.314024D-01  0.237644D-01 -0.396878D-01  0.389723D-05  0.930918D-05
     10 -0.227942D-01 -0.496625D-05 -0.330128D-02 -0.338036D-01  0.762056D-02
     11  0.000000D+00 -0.222009D-01  0.110804D-04  0.684638D-02 -0.313107D-01
     12  0.329487D-02 -0.824245D-04 -0.792248D-01  0.746881D-02 -0.497146D-02
     13 -0.270903D-01  0.760729D-02  0.362395D-02  0.354869D-02  0.851192D-02
     14  0.437991D-02 -0.385468D-01 -0.793910D-02  0.808986D-02 -0.104893D-02
     15 -0.134216D-01  0.371346D-01 -0.387572D-01  0.167037D-05  0.100424D-04
     16 -0.425213D-01  0.269944D-03  0.921789D-02 -0.567756D-02  0.560200D-02
     17  0.235380D-03 -0.235497D-01 -0.118536D-03  0.706658D-02  0.850159D-02
     18 -0.393337D-01  0.514658D-03 -0.381572D-01 -0.342179D-05  0.000000D+00
     19 -0.273073D-01 -0.788241D-02  0.388067D-02 -0.350008D-01 -0.269578D-01
     20 -0.466454D-02 -0.380709D-01  0.787850D-02  0.206124D-01 -0.235855D-01
     21 -0.143835D-01 -0.366806D-01 -0.385937D-01 -0.650207D-05 -0.176705D-04
                6             7             8             9            10 
      6  0.669737D-01
      7 -0.287028D-05  0.127939D+00
      8  0.112345D-04  0.253272D-01  0.113038D+00
      9 -0.401803D-02 -0.170537D-04 -0.263608D-04  0.669015D-01
     10 -0.307740D-01 -0.340691D-01 -0.756180D-02 -0.313640D-01  0.187727D+00
     11  0.246218D-01 -0.672864D-02 -0.308182D-01 -0.237560D-01 -0.551956D-04
     12 -0.397409D-01  0.763499D-02  0.478226D-02 -0.396242D-01 -0.169391D-02
     13 -0.272396D-05 -0.348675D-01  0.272873D-01 -0.382187D-04 -0.271308D-01
     14  0.132403D-04 -0.203007D-01 -0.238005D-01  0.903310D-05  0.440065D-02
     15  0.105897D-01  0.893897D-05  0.209631D-04 -0.566145D-02  0.134070D-01
     16  0.784943D-05 -0.599717D-02 -0.521204D-02  0.858322D-05 -0.424985D-01
     17 -0.306122D-05 -0.667040D-02  0.883742D-02  0.000000D+00  0.280765D-03
     18  0.115118D-01  0.605981D-05  0.000000D+00  0.115021D-01  0.393059D-01
     19  0.658270D-05  0.309981D-02 -0.861182D-02  0.443341D-05 -0.274309D-01
     20 -0.860472D-05 -0.819712D-02 -0.582601D-03  0.000000D+00 -0.468002D-02
     21 -0.566287D-02  0.310851D-05 -0.117708D-05  0.105877D-01  0.144202D-01
               11            12            13            14            15 
     11  0.184710D+00
     12  0.681910D-04  0.274200D+00
     13  0.759613D-02 -0.364611D-02  0.115070D+00
     14 -0.386173D-01  0.794823D-02 -0.131480D-01  0.160615D+00
     15 -0.371386D-01 -0.387025D-01  0.155015D-04 -0.873526D-04  0.728404D-01
     16  0.253610D-03 -0.919101D-02 -0.417466D-01  0.157870D-01 -0.568481D-05
     17 -0.235313D-01  0.107449D-03 -0.364808D-01 -0.497153D-01  0.554056D-04
     18 -0.542900D-03 -0.381678D-01  0.523556D-04  0.399424D-04 -0.128701D-01
     19 -0.791131D-02 -0.386764D-02  0.122163D-01  0.791262D-03 -0.582093D-05
     20 -0.382312D-01 -0.785224D-02 -0.137383D-02 -0.888641D-02  0.488136D-05
     21  0.367363D-01 -0.387402D-01 -0.475744D-05  0.160126D-04  0.125611D-01
               16            17            18            19            20 
     16  0.179676D+00
     17 -0.699039D-03  0.129782D+00
     18 -0.404488D-04 -0.100862D-04  0.790676D-01
     19 -0.412349D-01  0.362675D-01  0.131713D-04  0.115658D+00
     20 -0.160015D-01 -0.503249D-01  0.000000D+00  0.143046D-01  0.159682D+00
     21  0.282225D-05 -0.304260D-04 -0.128864D-01 -0.314024D-04 -0.224730D-04
               21 
     21  0.727343D-01
 Leave Link  716 at Mon Nov 13 20:12:30 2023, MaxMem=  1879048192 cpu:               0.4 elap:               0.0
 (Enter /home/sekinelabo/g16/l103.exe)

 GradGradGradGradGradGradGradGradGradGradGradGradGradGradGradGradGradGrad
 Berny optimization.
 Search for a local minimum.
 Step number   1 out of a maximum of    2
 All quantities printed in internal units (Hartrees-Bohrs-Radians)
 Second derivative matrix not updated -- first step.
 ITU=  0
     Eigenvalues ---    0.08265   0.10188   0.11649   0.13980   0.14009
     Eigenvalues ---    0.15904   0.16372   0.22653   0.23040   0.24339
     Eigenvalues ---    0.24598   0.24689   0.24776   0.27375   0.35682
 Quadratic step=3.220D-01 exceeds max=3.000D-01 adjusted using Lamda=-9.229D-03.
 Angle between NR and scaled steps=   0.78 degrees.
 Angle between quadratic step and forces=  22.14 degrees.
 Linear search not attempted -- first point.
 B after Tr=     0.000000    0.000000    0.000000
         Rot=    1.000000    0.000000   -0.000000   -0.000000 Ang=   0.00 deg.
 Variable       Old X    -DE/DX   Delta X   Delta X   Delta X     New X
                                 (Linear)    (Quad)   (Total)
    X1        4.03295  -0.00150   0.00000  -0.00290  -0.00290   4.03005
    Y1        4.63120   0.00006   0.00000   0.00008   0.00008   4.63129
    Z1        0.00000  -0.02264   0.00000  -0.07765  -0.07765  -0.07765
    X2        0.08721  -0.00918   0.00000  -0.09025  -0.09025  -0.00304
    Y2        7.80691   0.00756   0.00000   0.06894   0.06894   7.87586
    Z2        2.70207  -0.00002   0.00000  -0.00004  -0.00004   2.70203
    X3        0.00000  -0.00935   0.00000  -0.09204  -0.09204  -0.09204
    Y3        1.56722  -0.00727   0.00000  -0.06632  -0.06632   1.50090
    Z3        2.70259   0.00001   0.00000   0.00006   0.00006   2.70265
    X4        4.03348  -0.00151   0.00000  -0.00292  -0.00292   4.03057
    Y4        4.63696   0.00002   0.00000   0.00004   0.00004   4.63700
    Z4        5.40237   0.02266   0.00000   0.07766   0.07766   5.48003
    X5        6.04130   0.00078   0.00000   0.02549   0.02549   6.06679
    Y5        0.00000  -0.01723   0.00000  -0.12858  -0.12858  -0.12858
    Z5        2.70619   0.00002   0.00000   0.00008   0.00008   2.70627
    X6        9.07389   0.01958   0.00000   0.13386   0.13386   9.20775
    Y6        4.56726  -0.00029   0.00000  -0.00190  -0.00190   4.56536
    Z6        2.70017  -0.00001   0.00000  -0.00003  -0.00003   2.70013
    X7        6.17032   0.00118   0.00000   0.02876   0.02876   6.19908
    Y7        9.21542   0.01716   0.00000   0.12773   0.12773   9.34315
    Z7        2.70316  -0.00002   0.00000  -0.00007  -0.00007   2.70309
         Item               Value     Threshold  Converged?
 Maximum Force            0.022661     0.000450     NO 
 RMS     Force            0.010440     0.000300     NO 
 Maximum Displacement     0.133865     0.001800     NO 
 RMS     Displacement     0.065499     0.001200     NO 
 Predicted change in Energy=-7.066533D-03
 GradGradGradGradGradGradGradGradGradGradGradGradGradGradGradGradGradGrad

 Leave Link  103 at Mon Nov 13 20:12:30 2023, MaxMem=  1879048192 cpu:               0.2 elap:               0.0
 (Enter /home/sekinelabo/g16/l9999.exe)
 1\1\GINC-SEKINELABO-XA7R-R37\Force\UB3LYP\6-311+G(d)\Na7(2)\SEKINELABO
 \13-Nov-2023\0\\#P B3LYP/6-311+g(d) force\\Gaussian input prepared by 
 ASE\\0,2\Na,2.1341439981,2.4507277095,0.\Na,0.0461520462,4.1312409277,
 1.4298739883\Na,0.,0.8293351273,1.4301471075\Na,2.1344267839,2.4537760
 383,2.858810656\Na,3.1969207,0.,1.4320536767\Na,4.8016945662,2.4168890
 754,1.4288658176\Na,3.2651937623,4.8765901244,1.4304491273\\Version=ES
 64L-G16RevB.01\State=2-A\HF=-1136.1076683\S2=0.756462\S2-1=0.\S2A=0.75
 0029\RMSD=9.333e-09\RMSF=1.044e-02\Dipole=-0.1355276,0.0020744,-0.0003
 605\Quadrupole=4.631554,3.7027034,-8.3342575,0.0091953,-0.0005164,-0.0
 05291\PG=C01 [X(Na7)]\\@


 IF IT HAPPENS, IT MUST BE POSSIBLE.

 -- THE UNNAMED LAW FROM PAUL DICKSON'S 
    "THE OFFICIAL RULES"
 Job cpu time:       0 days  0 hours  4 minutes  9.0 seconds.
 Elapsed time:       0 days  0 hours  0 minutes 20.1 seconds.
 File lengths (MBytes):  RWF=     32 Int=      0 D2E=      0 Chk=      6 Scr=      1
 Normal termination of Gaussian 16 at Mon Nov 13 20:12:30 2023.
