 Entering Gaussian System, Link 0=g16
 Initial command:
 /home/sekinelabo/g16/l1.exe "/home/sekinelabo/g16temp/Gau-4070172.inp" -scrdir="/home/sekinelabo/g16temp/"
 Entering Link 1 = /home/sekinelabo/g16/l1.exe PID=   4070174.
  
 Copyright (c) 1988-2017, Gaussian, Inc.  All Rights Reserved.
  
 This is part of the Gaussian(R) 16 program.  It is based on
 the Gaussian(R) 09 system (copyright 2009, Gaussian, Inc.),
 the Gaussian(R) 03 system (copyright 2003, Gaussian, Inc.),
 the Gaussian(R) 98 system (copyright 1998, Gaussian, Inc.),
 the Gaussian(R) 94 system (copyright 1995, Gaussian, Inc.),
 the Gaussian 92(TM) system (copyright 1992, Gaussian, Inc.),
 the Gaussian 90(TM) system (copyright 1990, Gaussian, Inc.),
 the Gaussian 88(TM) system (copyright 1988, Gaussian, Inc.),
 the Gaussian 86(TM) system (copyright 1986, Carnegie Mellon
 University), and the Gaussian 82(TM) system (copyright 1983,
 Carnegie Mellon University). Gaussian is a federally registered
 trademark of Gaussian, Inc.
  
 This software contains proprietary and confidential information,
 including trade secrets, belonging to Gaussian, Inc.
  
 This software is provided under written license and may be
 used, copied, transmitted, or stored only in accord with that
 written license.
  
 The following legend is applicable only to US Government
 contracts under FAR:
  
                    RESTRICTED RIGHTS LEGEND
  
 Use, reproduction and disclosure by the US Government is
 subject to restrictions as set forth in subparagraphs (a)
 and (c) of the Commercial Computer Software - Restricted
 Rights clause in FAR 52.227-19.
  
 Gaussian, Inc.
 340 Quinnipiac St., Bldg. 40, Wallingford CT 06492
  
  
 ---------------------------------------------------------------
 Warning -- This program may not be used in any manner that
 competes with the business of Gaussian, Inc. or will provide
 assistance to any competitor of Gaussian, Inc.  The licensee
 of this program is prohibited from giving any competitor of
 Gaussian, Inc. access to this program.  By using this program,
 the user acknowledges that Gaussian, Inc. is engaged in the
 business of creating and licensing software in the field of
 computational chemistry and represents and warrants to the
 licensee that it is not a competitor of Gaussian, Inc. and that
 it will not use this program in any manner prohibited above.
 ---------------------------------------------------------------
  

 Cite this work as:
 Gaussian 16, Revision B.01,
 M. J. Frisch, G. W. Trucks, H. B. Schlegel, G. E. Scuseria, 
 M. A. Robb, J. R. Cheeseman, G. Scalmani, V. Barone, 
 G. A. Petersson, H. Nakatsuji, X. Li, M. Caricato, A. V. Marenich, 
 J. Bloino, B. G. Janesko, R. Gomperts, B. Mennucci, H. P. Hratchian, 
 J. V. Ortiz, A. F. Izmaylov, J. L. Sonnenberg, D. Williams-Young, 
 F. Ding, F. Lipparini, F. Egidi, J. Goings, B. Peng, A. Petrone, 
 T. Henderson, D. Ranasinghe, V. G. Zakrzewski, J. Gao, N. Rega, 
 G. Zheng, W. Liang, M. Hada, M. Ehara, K. Toyota, R. Fukuda, 
 J. Hasegawa, M. Ishida, T. Nakajima, Y. Honda, O. Kitao, H. Nakai, 
 T. Vreven, K. Throssell, J. A. Montgomery, Jr., J. E. Peralta, 
 F. Ogliaro, M. J. Bearpark, J. J. Heyd, E. N. Brothers, K. N. Kudin, 
 V. N. Staroverov, T. A. Keith, R. Kobayashi, J. Normand, 
 K. Raghavachari, A. P. Rendell, J. C. Burant, S. S. Iyengar, 
 J. Tomasi, M. Cossi, J. M. Millam, M. Klene, C. Adamo, R. Cammi, 
 J. W. Ochterski, R. L. Martin, K. Morokuma, O. Farkas, 
 J. B. Foresman, and D. J. Fox, Gaussian, Inc., Wallingford CT, 2016.
 
 ******************************************
 Gaussian 16:  ES64L-G16RevB.01 20-Dec-2017
                13-Nov-2023 
 ******************************************
 %mem=14GB
 %chk=checkpoint.chk
 %nprocshared=16
 Will use up to   16 processors via shared memory.
 -------------------------
 #P B3LYP/6-311+g(d) force
 -------------------------
 1/10=7,30=1,38=1/1,3;
 2/12=2,17=6,18=5,40=1/2;
 3/5=4,6=6,7=11,11=2,25=1,30=1,71=1,74=-5/1,2,3;
 4//1;
 5/5=2,38=5/2;
 6/7=2,8=2,9=2,10=2,28=1/1;
 7/29=1/1,2,3,16;
 1/10=7,30=1/3;
 99//99;
 Leave Link    1 at Mon Nov 13 17:05:32 2023, MaxMem=  1879048192 cpu:               0.3 elap:               0.0
 (Enter /home/sekinelabo/g16/l101.exe)
 ------------------------------
 Gaussian input prepared by ASE
 ------------------------------
 Symbolic Z-matrix:
 Charge =  0 Multiplicity = 2
 Na                    3.92794   1.71478   0. 
 Na                    3.858     1.72538   3.59226 
 Na                    6.02356   0.6028    1.84167 
 Na                    5.47428   3.52779   1.82177 
 Na                    2.50015   3.69275   1.76352 
 Na                    0.        2.04097   1.82807 
 Na                    2.19096   0.        1.76861 
 
 ITRead=  0  0  0  0  0  0  0
 MicOpt= -1 -1 -1 -1 -1 -1 -1
 NAtoms=      7 NQM=        7 NQMF=       0 NMMI=      0 NMMIF=      0
                NMic=       0 NMicF=      0.
                    Isotopes and Nuclear Properties:
 (Nuclear quadrupole moments (NQMom) in fm**2, nuclear magnetic moments (NMagM)
  in nuclear magnetons)

  Atom         1           2           3           4           5           6           7
 IAtWgt=          23          23          23          23          23          23          23
 AtmWgt=  22.9897697  22.9897697  22.9897697  22.9897697  22.9897697  22.9897697  22.9897697
 NucSpn=           3           3           3           3           3           3           3
 AtZEff=  -0.0000000  -0.0000000  -0.0000000  -0.0000000  -0.0000000  -0.0000000  -0.0000000
 NQMom=   10.4000000  10.4000000  10.4000000  10.4000000  10.4000000  10.4000000  10.4000000
 NMagM=    2.2175200   2.2175200   2.2175200   2.2175200   2.2175200   2.2175200   2.2175200
 AtZNuc=  11.0000000  11.0000000  11.0000000  11.0000000  11.0000000  11.0000000  11.0000000
 Leave Link  101 at Mon Nov 13 17:05:32 2023, MaxMem=  1879048192 cpu:               2.7 elap:               0.2
 (Enter /home/sekinelabo/g16/l103.exe)

 GradGradGradGradGradGradGradGradGradGradGradGradGradGradGradGradGradGrad
 Berny optimization.
 Initialization pass.
 Trust Radius=3.00D-01 FncErr=1.00D-07 GrdErr=1.00D-07 EigMax=2.50D+02 EigMin=1.00D-04
 Number of steps in this run=      2 maximum allowed number of steps=      2.
 GradGradGradGradGradGradGradGradGradGradGradGradGradGradGradGradGradGrad

 Leave Link  103 at Mon Nov 13 17:05:32 2023, MaxMem=  1879048192 cpu:               0.2 elap:               0.0
 (Enter /home/sekinelabo/g16/l202.exe)
                          Input orientation:                          
 ---------------------------------------------------------------------
 Center     Atomic      Atomic             Coordinates (Angstroms)
 Number     Number       Type             X           Y           Z
 ---------------------------------------------------------------------
      1         11           0        3.927941    1.714776    0.000000
      2         11           0        3.857997    1.725377    3.592256
      3         11           0        6.023557    0.602799    1.841671
      4         11           0        5.474279    3.527785    1.821772
      5         11           0        2.500147    3.692748    1.763516
      6         11           0        0.000000    2.040966    1.828066
      7         11           0        2.190962    0.000000    1.768610
 ---------------------------------------------------------------------
                    Distance matrix (angstroms):
                    1          2          3          4          5
     1  Na   0.000000
     2  Na   3.592953   0.000000
     3  Na   3.003307   3.002396   0.000000
     4  Na   2.999503   2.999276   2.976180   0.000000
     5  Na   3.010143   3.009750   4.687036   2.979272   0.000000
     6  Na   4.344761   4.253952   6.192879   5.672600   2.997213
     7  Na   3.014222   3.013572   3.880398   4.819571   3.705672
                    6          7
     6  Na   0.000000
     7  Na   2.994895   0.000000
 Stoichiometry    Na7(2)
 Framework group  C1[X(Na7)]
 Deg. of freedom    15
 Full point group                 C1      NOp   1
 Largest Abelian subgroup         C1      NOp   1
 Largest concise Abelian subgroup C1      NOp   1
                         Standard orientation:                         
 ---------------------------------------------------------------------
 Center     Atomic      Atomic             Coordinates (Angstroms)
 Number     Number       Type             X           Y           Z
 ---------------------------------------------------------------------
      1         11           0       -0.502958   -0.185860    1.802270
      2         11           0       -0.433014   -0.175259   -1.789986
      3         11           0       -2.598574   -1.297837   -0.039401
      4         11           0       -2.049295    1.627149   -0.019502
      5         11           0        0.924836    1.792112    0.038754
      6         11           0        3.424983    0.140331   -0.025796
      7         11           0        1.234021   -1.900636    0.033660
 ---------------------------------------------------------------------
 Rotational constants (GHZ):           1.2420707           0.6878481           0.5982956
 Leave Link  202 at Mon Nov 13 17:05:32 2023, MaxMem=  1879048192 cpu:               0.1 elap:               0.0
 (Enter /home/sekinelabo/g16/l301.exe)
 Standard basis: 6-311+G(d) (5D, 7F)
 Ernie: Thresh=  0.10000D-02 Tol=  0.10000D-05 Strict=F.
 There are   217 symmetry adapted cartesian basis functions of A   symmetry.
 There are   210 symmetry adapted basis functions of A   symmetry.
   210 basis functions,   350 primitive gaussians,   217 cartesian basis functions
    39 alpha electrons       38 beta electrons
       nuclear repulsion energy       386.0918484366 Hartrees.
 IExCor=  402 DFT=T Ex+Corr=B3LYP ExCW=0 ScaHFX=  0.200000
 ScaDFX=  0.800000  0.720000  1.000000  0.810000 ScalE2=  1.000000  1.000000
 IRadAn=      5 IRanWt=     -1 IRanGd=            0 ICorTp=0 IEmpDi=  4
 NAtoms=    7 NActive=    7 NUniq=    7 SFac= 1.00D+00 NAtFMM=   60 NAOKFM=F Big=F
 Integral buffers will be    131072 words long.
 Raffenetti 2 integral format.
 Two-electron integral symmetry is turned on.
 Leave Link  301 at Mon Nov 13 17:05:32 2023, MaxMem=  1879048192 cpu:               0.5 elap:               0.0
 (Enter /home/sekinelabo/g16/l302.exe)
 NPDir=0 NMtPBC=     1 NCelOv=     1 NCel=       1 NClECP=     1 NCelD=      1
         NCelK=      1 NCelE2=     1 NClLst=     1 CellRange=     0.0.
 One-electron integrals computed using PRISM.
 One-electron integral symmetry used in STVInt
 NBasis=   210 RedAO= T EigKep=  3.96D-06  NBF=   210
 NBsUse=   209 1.00D-06 EigRej=  4.53D-07 NBFU=   209
 Precomputing XC quadrature grid using
 IXCGrd= 4 IRadAn=           5 IRanWt=          -1 IRanGd=           0 AccXCQ= 0.00D+00.
 Generated NRdTot=       0 NPtTot=           0 NUsed=           0 NTot=          32
 NSgBfM=   210   210   210   210   210 MxSgAt=     7 MxSgA2=     7.
 Leave Link  302 at Mon Nov 13 17:05:32 2023, MaxMem=  1879048192 cpu:               2.3 elap:               0.1
 (Enter /home/sekinelabo/g16/l303.exe)
 DipDrv:  MaxL=1.
 Leave Link  303 at Mon Nov 13 17:05:33 2023, MaxMem=  1879048192 cpu:               0.6 elap:               0.0
 (Enter /home/sekinelabo/g16/l401.exe)
 ExpMin= 7.60D-03 ExpMax= 3.62D+04 ExpMxC= 1.21D+03 IAcc=3 IRadAn=         5 AccDes= 0.00D+00
 Harris functional with IExCor=  402 and IRadAn=       5 diagonalized for initial guess.
 HarFok:  IExCor=  402 AccDes= 0.00D+00 IRadAn=         5 IDoV= 1 UseB2=F ITyADJ=14
 ICtDFT=  3500011 ScaDFX=  1.000000  1.000000  1.000000  1.000000
 FoFCou: FMM=F IPFlag=           0 FMFlag=      100000 FMFlg1=           0
         NFxFlg=           0 DoJE=T BraDBF=F KetDBF=T FulRan=T
         wScrn=  0.000000 ICntrl=       500 IOpCl=  0 I1Cent=   200000004 NGrid=           0
         NMat0=    1 NMatS0=      1 NMatT0=    0 NMatD0=    1 NMtDS0=    0 NMtDT0=    0
 Petite list used in FoFCou.
 Harris En= -1135.87718891664    
 JPrj=0 DoOrth=F DoCkMO=F.
 Initial guess <Sx>= 0.0000 <Sy>= 0.0000 <Sz>= 0.5000 <S**2>= 0.7500 S= 0.5000
 Leave Link  401 at Mon Nov 13 17:05:33 2023, MaxMem=  1879048192 cpu:               4.7 elap:               0.3
 (Enter /home/sekinelabo/g16/l502.exe)
 Keep R1 and R2 ints in memory in canonical form, NReq=507620374.
 FoFCou: FMM=F IPFlag=           0 FMFlag=           0 FMFlg1=           0
         NFxFlg=           0 DoJE=F BraDBF=F KetDBF=F FulRan=T
         wScrn=  0.000000 ICntrl=       600 IOpCl=  0 I1Cent=           0 NGrid=           0
         NMat0=    1 NMatS0=  22155 NMatT0=    0 NMatD0=    1 NMtDS0=    0 NMtDT0=    0
 Symmetry not used in FoFCou.
 Two-electron integral symmetry not used.
 UHF open shell SCF:
 Using DIIS extrapolation, IDIIS=  1040.
 NGot=  1879048192 LenX=  1388082362 LenY=  1388034832
 Requested convergence on RMS density matrix=1.00D-08 within 128 cycles.
 Requested convergence on MAX density matrix=1.00D-06.
 Requested convergence on             energy=1.00D-06.
 No special actions if energy rises.

 Cycle   1  Pass 1  IDiag  1:
 E= -1136.05742189827    
 DIIS: error= 1.49D-02 at cycle   1 NSaved=   1.
 NSaved= 1 IEnMin= 1 EnMin= -1136.05742189827     IErMin= 1 ErrMin= 1.49D-02
 ErrMax= 1.49D-02  0.00D+00 EMaxC= 1.00D-01 BMatC= 2.07D-01 BMatP= 2.07D-01
 IDIUse=3 WtCom= 8.51D-01 WtEn= 1.49D-01
 Coeff-Com:  0.100D+01
 Coeff-En:   0.100D+01
 Coeff:      0.100D+01
 Gap=     0.034 Goal=   None    Shift=    0.000
 Gap=     0.038 Goal=   None    Shift=    0.000
 GapD=    0.034 DampG=0.250 DampE=0.500 DampFc=0.2500 IDamp=-1.
 Damping current iteration by 2.50D-01
 RMSDP=7.01D-02 MaxDP=8.78D+00              OVMax= 2.89D-01

 Cycle   2  Pass 1  IDiag  1:
 E= -1136.07377314926     Delta-E=       -0.016351250987 Rises=F Damp=T
 DIIS: error= 8.46D-03 at cycle   2 NSaved=   2.
 NSaved= 2 IEnMin= 2 EnMin= -1136.07377314926     IErMin= 2 ErrMin= 8.46D-03
 ErrMax= 8.46D-03  0.00D+00 EMaxC= 1.00D-01 BMatC= 7.72D-02 BMatP= 2.07D-01
 IDIUse=3 WtCom= 9.15D-01 WtEn= 8.46D-02
 Coeff-Com: -0.122D+01 0.222D+01
 Coeff-En:   0.000D+00 0.100D+01
 Coeff:     -0.111D+01 0.211D+01
 Gap=     0.056 Goal=   None    Shift=    0.000
 Gap=     0.053 Goal=   None    Shift=    0.000
 RMSDP=3.32D-02 MaxDP=4.30D+00 DE=-1.64D-02 OVMax= 2.36D-01

 Cycle   3  Pass 1  IDiag  1:
 E= -1136.09541780455     Delta-E=       -0.021644655291 Rises=F Damp=F
 DIIS: error= 5.13D-03 at cycle   3 NSaved=   3.
 NSaved= 3 IEnMin= 3 EnMin= -1136.09541780455     IErMin= 3 ErrMin= 5.13D-03
 ErrMax= 5.13D-03  0.00D+00 EMaxC= 1.00D-01 BMatC= 9.17D-03 BMatP= 7.72D-02
 IDIUse=3 WtCom= 9.49D-01 WtEn= 5.13D-02
 Coeff-Com: -0.436D+00 0.779D+00 0.658D+00
 Coeff-En:   0.000D+00 0.000D+00 0.100D+01
 Coeff:     -0.414D+00 0.739D+00 0.675D+00
 Gap=     0.046 Goal=   None    Shift=    0.000
 Gap=     0.040 Goal=   None    Shift=    0.000
 RMSDP=1.32D-02 MaxDP=1.57D+00 DE=-2.16D-02 OVMax= 1.64D-01

 Cycle   4  Pass 1  IDiag  1:
 E= -1136.09334071750     Delta-E=        0.002077087055 Rises=F Damp=F
 DIIS: error= 6.78D-03 at cycle   4 NSaved=   4.
 NSaved= 4 IEnMin= 3 EnMin= -1136.09541780455     IErMin= 3 ErrMin= 5.13D-03
 ErrMax= 6.78D-03  0.00D+00 EMaxC= 1.00D-01 BMatC= 9.59D-03 BMatP= 9.17D-03
 IDIUse=3 WtCom= 9.32D-01 WtEn= 6.78D-02
 Coeff-Com: -0.387D-01 0.706D-01 0.496D+00 0.472D+00
 Coeff-En:   0.000D+00 0.000D+00 0.542D+00 0.458D+00
 Coeff:     -0.361D-01 0.658D-01 0.499D+00 0.471D+00
 Gap=     0.049 Goal=   None    Shift=    0.000
 Gap=     0.040 Goal=   None    Shift=    0.000
 RMSDP=3.16D-03 MaxDP=2.18D-01 DE= 2.08D-03 OVMax= 1.08D-01

 Cycle   5  Pass 1  IDiag  1:
 E= -1136.10276368024     Delta-E=       -0.009422962743 Rises=F Damp=F
 DIIS: error= 1.78D-03 at cycle   5 NSaved=   5.
 NSaved= 5 IEnMin= 5 EnMin= -1136.10276368024     IErMin= 5 ErrMin= 1.78D-03
 ErrMax= 1.78D-03  0.00D+00 EMaxC= 1.00D-01 BMatC= 8.90D-04 BMatP= 9.17D-03
 IDIUse=3 WtCom= 9.82D-01 WtEn= 1.78D-02
 Coeff-Com: -0.202D-02 0.237D-02 0.277D+00 0.307D+00 0.415D+00
 Coeff-En:   0.000D+00 0.000D+00 0.000D+00 0.644D-01 0.936D+00
 Coeff:     -0.199D-02 0.233D-02 0.272D+00 0.303D+00 0.425D+00
 Gap=     0.050 Goal=   None    Shift=    0.000
 Gap=     0.040 Goal=   None    Shift=    0.000
 RMSDP=1.70D-03 MaxDP=1.89D-01 DE=-9.42D-03 OVMax= 2.66D-02

 Cycle   6  Pass 1  IDiag  1:
 E= -1136.10360243234     Delta-E=       -0.000838752104 Rises=F Damp=F
 DIIS: error= 1.99D-04 at cycle   6 NSaved=   6.
 NSaved= 6 IEnMin= 6 EnMin= -1136.10360243234     IErMin= 6 ErrMin= 1.99D-04
 ErrMax= 1.99D-04  0.00D+00 EMaxC= 1.00D-01 BMatC= 7.61D-06 BMatP= 8.90D-04
 IDIUse=3 WtCom= 9.98D-01 WtEn= 1.99D-03
 Coeff-Com: -0.188D-02 0.217D-02-0.129D-01-0.206D-01 0.512D-01 0.982D+00
 Coeff-En:   0.000D+00 0.000D+00 0.000D+00 0.000D+00 0.000D+00 0.100D+01
 Coeff:     -0.187D-02 0.217D-02-0.129D-01-0.205D-01 0.510D-01 0.982D+00
 Gap=     0.050 Goal=   None    Shift=    0.000
 Gap=     0.040 Goal=   None    Shift=    0.000
 RMSDP=3.99D-04 MaxDP=4.23D-02 DE=-8.39D-04 OVMax= 4.32D-03

 Cycle   7  Pass 1  IDiag  1:
 E= -1136.10361181866     Delta-E=       -0.000009386315 Rises=F Damp=F
 DIIS: error= 8.10D-05 at cycle   7 NSaved=   7.
 NSaved= 7 IEnMin= 7 EnMin= -1136.10361181866     IErMin= 7 ErrMin= 8.10D-05
 ErrMax= 8.10D-05  0.00D+00 EMaxC= 1.00D-01 BMatC= 1.82D-06 BMatP= 7.61D-06
 IDIUse=1 WtCom= 1.00D+00 WtEn= 0.00D+00
 Coeff-Com: -0.717D-03 0.757D-03-0.143D-01-0.193D-01 0.154D-01 0.533D+00
 Coeff-Com:  0.485D+00
 Coeff:     -0.717D-03 0.757D-03-0.143D-01-0.193D-01 0.154D-01 0.533D+00
 Coeff:      0.485D+00
 Gap=     0.050 Goal=   None    Shift=    0.000
 Gap=     0.040 Goal=   None    Shift=    0.000
 RMSDP=7.10D-05 MaxDP=5.63D-03 DE=-9.39D-06 OVMax= 1.78D-03

 Cycle   8  Pass 1  IDiag  1:
 E= -1136.10361393884     Delta-E=       -0.000002120180 Rises=F Damp=F
 DIIS: error= 3.12D-05 at cycle   8 NSaved=   8.
 NSaved= 8 IEnMin= 8 EnMin= -1136.10361393884     IErMin= 8 ErrMin= 3.12D-05
 ErrMax= 3.12D-05  0.00D+00 EMaxC= 1.00D-01 BMatC= 2.61D-07 BMatP= 1.82D-06
 IDIUse=1 WtCom= 1.00D+00 WtEn= 0.00D+00
 Coeff-Com:  0.593D-03-0.785D-03-0.127D-02 0.146D-03-0.130D-01-0.137D+00
 Coeff-Com:  0.196D+00 0.956D+00
 Coeff:      0.593D-03-0.785D-03-0.127D-02 0.146D-03-0.130D-01-0.137D+00
 Coeff:      0.196D+00 0.956D+00
 Gap=     0.050 Goal=   None    Shift=    0.000
 Gap=     0.040 Goal=   None    Shift=    0.000
 RMSDP=8.97D-05 MaxDP=7.44D-03 DE=-2.12D-06 OVMax= 1.59D-03

 Cycle   9  Pass 1  IDiag  1:
 E= -1136.10361480884     Delta-E=       -0.000000869999 Rises=F Damp=F
 DIIS: error= 1.75D-05 at cycle   9 NSaved=   9.
 NSaved= 9 IEnMin= 9 EnMin= -1136.10361480884     IErMin= 9 ErrMin= 1.75D-05
 ErrMax= 1.75D-05  0.00D+00 EMaxC= 1.00D-01 BMatC= 4.96D-08 BMatP= 2.61D-07
 IDIUse=1 WtCom= 1.00D+00 WtEn= 0.00D+00
 Coeff-Com:  0.742D-04-0.783D-04 0.725D-03 0.237D-02-0.536D-02-0.988D-01
 Coeff-Com: -0.335D-01 0.204D+00 0.931D+00
 Coeff:      0.742D-04-0.783D-04 0.725D-03 0.237D-02-0.536D-02-0.988D-01
 Coeff:     -0.335D-01 0.204D+00 0.931D+00
 Gap=     0.050 Goal=   None    Shift=    0.000
 Gap=     0.040 Goal=   None    Shift=    0.000
 RMSDP=4.41D-05 MaxDP=3.27D-03 DE=-8.70D-07 OVMax= 1.09D-03

 Cycle  10  Pass 1  IDiag  1:
 E= -1136.10361507721     Delta-E=       -0.000000268368 Rises=F Damp=F
 DIIS: error= 9.04D-06 at cycle  10 NSaved=  10.
 NSaved=10 IEnMin=10 EnMin= -1136.10361507721     IErMin=10 ErrMin= 9.04D-06
 ErrMax= 9.04D-06  0.00D+00 EMaxC= 1.00D-01 BMatC= 1.30D-08 BMatP= 4.96D-08
 IDIUse=1 WtCom= 1.00D+00 WtEn= 0.00D+00
 Coeff-Com: -0.151D-03 0.214D-03 0.115D-02 0.675D-03 0.356D-02 0.200D-01
 Coeff-Com: -0.730D-01-0.307D+00 0.356D-01 0.132D+01
 Coeff:     -0.151D-03 0.214D-03 0.115D-02 0.675D-03 0.356D-02 0.200D-01
 Coeff:     -0.730D-01-0.307D+00 0.356D-01 0.132D+01
 Gap=     0.050 Goal=   None    Shift=    0.000
 Gap=     0.040 Goal=   None    Shift=    0.000
 RMSDP=4.26D-05 MaxDP=3.41D-03 DE=-2.68D-07 OVMax= 9.59D-04

 Cycle  11  Pass 1  IDiag  1:
 E= -1136.10361521003     Delta-E=       -0.000000132821 Rises=F Damp=F
 DIIS: error= 3.15D-06 at cycle  11 NSaved=  11.
 NSaved=11 IEnMin=11 EnMin= -1136.10361521003     IErMin=11 ErrMin= 3.15D-06
 ErrMax= 3.15D-06  0.00D+00 EMaxC= 1.00D-01 BMatC= 2.50D-09 BMatP= 1.30D-08
 IDIUse=1 WtCom= 1.00D+00 WtEn= 0.00D+00
 Coeff-Com: -0.208D-04 0.275D-04 0.406D-03-0.813D-04 0.196D-02 0.187D-01
 Coeff-Com: -0.171D-01-0.103D+00-0.135D+00 0.303D+00 0.930D+00
 Coeff:     -0.208D-04 0.275D-04 0.406D-03-0.813D-04 0.196D-02 0.187D-01
 Coeff:     -0.171D-01-0.103D+00-0.135D+00 0.303D+00 0.930D+00
 Gap=     0.050 Goal=   None    Shift=    0.000
 Gap=     0.040 Goal=   None    Shift=    0.000
 RMSDP=1.10D-05 MaxDP=6.42D-04 DE=-1.33D-07 OVMax= 3.01D-04

 Cycle  12  Pass 1  IDiag  1:
 E= -1136.10361522536     Delta-E=       -0.000000015333 Rises=F Damp=F
 DIIS: error= 1.58D-06 at cycle  12 NSaved=  12.
 NSaved=12 IEnMin=12 EnMin= -1136.10361522536     IErMin=12 ErrMin= 1.58D-06
 ErrMax= 1.58D-06  0.00D+00 EMaxC= 1.00D-01 BMatC= 9.22D-10 BMatP= 2.50D-09
 IDIUse=1 WtCom= 1.00D+00 WtEn= 0.00D+00
 Coeff-Com:  0.365D-05-0.748D-05 0.270D-06-0.180D-03 0.509D-03 0.745D-02
 Coeff-Com:  0.321D-02 0.109D-02-0.616D-01-0.105D+00 0.441D+00 0.714D+00
 Coeff:      0.365D-05-0.748D-05 0.270D-06-0.180D-03 0.509D-03 0.745D-02
 Coeff:      0.321D-02 0.109D-02-0.616D-01-0.105D+00 0.441D+00 0.714D+00
 Gap=     0.050 Goal=   None    Shift=    0.000
 Gap=     0.040 Goal=   None    Shift=    0.000
 RMSDP=3.46D-06 MaxDP=1.85D-04 DE=-1.53D-08 OVMax= 1.23D-04

 Cycle  13  Pass 1  IDiag  1:
 E= -1136.10361522866     Delta-E=       -0.000000003304 Rises=F Damp=F
 DIIS: error= 1.03D-06 at cycle  13 NSaved=  13.
 NSaved=13 IEnMin=13 EnMin= -1136.10361522866     IErMin=13 ErrMin= 1.03D-06
 ErrMax= 1.03D-06  0.00D+00 EMaxC= 1.00D-01 BMatC= 3.60D-10 BMatP= 9.22D-10
 IDIUse=1 WtCom= 1.00D+00 WtEn= 0.00D+00
 Coeff-Com:  0.216D-05-0.438D-05-0.161D-03-0.101D-03-0.318D-03-0.116D-02
 Coeff-Com:  0.725D-02 0.345D-01 0.151D-01-0.170D+00-0.729D-01 0.430D+00
 Coeff-Com:  0.758D+00
 Coeff:      0.216D-05-0.438D-05-0.161D-03-0.101D-03-0.318D-03-0.116D-02
 Coeff:      0.725D-02 0.345D-01 0.151D-01-0.170D+00-0.729D-01 0.430D+00
 Coeff:      0.758D+00
 Gap=     0.050 Goal=   None    Shift=    0.000
 Gap=     0.040 Goal=   None    Shift=    0.000
 RMSDP=2.12D-06 MaxDP=1.38D-04 DE=-3.30D-09 OVMax= 9.58D-05

 Cycle  14  Pass 1  IDiag  1:
 E= -1136.10361523028     Delta-E=       -0.000000001612 Rises=F Damp=F
 DIIS: error= 5.34D-07 at cycle  14 NSaved=  14.
 NSaved=14 IEnMin=14 EnMin= -1136.10361523028     IErMin=14 ErrMin= 5.34D-07
 ErrMax= 5.34D-07  0.00D+00 EMaxC= 1.00D-01 BMatC= 6.66D-11 BMatP= 3.60D-10
 IDIUse=1 WtCom= 1.00D+00 WtEn= 0.00D+00
 Coeff-Com:  0.421D-05-0.424D-05 0.366D-04 0.817D-04-0.104D-03-0.224D-02
 Coeff-Com: -0.430D-02-0.151D-01 0.708D-02 0.125D+00-0.121D+00-0.427D+00
 Coeff-Com: -0.338D+00 0.178D+01
 Coeff:      0.421D-05-0.424D-05 0.366D-04 0.817D-04-0.104D-03-0.224D-02
 Coeff:     -0.430D-02-0.151D-01 0.708D-02 0.125D+00-0.121D+00-0.427D+00
 Coeff:     -0.338D+00 0.178D+01
 Gap=     0.050 Goal=   None    Shift=    0.000
 Gap=     0.040 Goal=   None    Shift=    0.000
 RMSDP=2.32D-06 MaxDP=2.13D-04 DE=-1.61D-09 OVMax= 1.12D-04

 Cycle  15  Pass 1  IDiag  1:
 E= -1136.10361523131     Delta-E=       -0.000000001030 Rises=F Damp=F
 DIIS: error= 2.28D-07 at cycle  15 NSaved=  15.
 NSaved=15 IEnMin=15 EnMin= -1136.10361523131     IErMin=15 ErrMin= 2.28D-07
 ErrMax= 2.28D-07  0.00D+00 EMaxC= 1.00D-01 BMatC= 1.39D-11 BMatP= 6.66D-11
 IDIUse=1 WtCom= 1.00D+00 WtEn= 0.00D+00
 Coeff-Com: -0.390D-05 0.548D-05 0.550D-04 0.279D-04 0.139D-03 0.720D-03
 Coeff-Com: -0.149D-02-0.883D-02-0.564D-02 0.324D-01 0.505D-01-0.760D-01
 Coeff-Com: -0.205D+00-0.203D+00 0.142D+01
 Coeff:     -0.390D-05 0.548D-05 0.550D-04 0.279D-04 0.139D-03 0.720D-03
 Coeff:     -0.149D-02-0.883D-02-0.564D-02 0.324D-01 0.505D-01-0.760D-01
 Coeff:     -0.205D+00-0.203D+00 0.142D+01
 Gap=     0.050 Goal=   None    Shift=    0.000
 Gap=     0.040 Goal=   None    Shift=    0.000
 RMSDP=1.41D-06 MaxDP=1.17D-04 DE=-1.03D-09 OVMax= 5.94D-05

 Cycle  16  Pass 1  IDiag  1:
 E= -1136.10361523151     Delta-E=       -0.000000000208 Rises=F Damp=F
 DIIS: error= 1.16D-07 at cycle  16 NSaved=  16.
 NSaved=16 IEnMin=16 EnMin= -1136.10361523151     IErMin=16 ErrMin= 1.16D-07
 ErrMax= 1.16D-07  0.00D+00 EMaxC= 1.00D-01 BMatC= 2.94D-12 BMatP= 1.39D-11
 IDIUse=1 WtCom= 1.00D+00 WtEn= 0.00D+00
 Coeff-Com: -0.132D-05 0.153D-05 0.101D-04-0.553D-05 0.493D-04 0.474D-03
 Coeff-Com:  0.624D-03 0.173D-02-0.915D-03-0.214D-01 0.317D-01 0.705D-01
 Coeff-Com:  0.291D-01-0.392D+00 0.316D+00 0.964D+00
 Coeff:     -0.132D-05 0.153D-05 0.101D-04-0.553D-05 0.493D-04 0.474D-03
 Coeff:      0.624D-03 0.173D-02-0.915D-03-0.214D-01 0.317D-01 0.705D-01
 Coeff:      0.291D-01-0.392D+00 0.316D+00 0.964D+00
 Gap=     0.050 Goal=   None    Shift=    0.000
 Gap=     0.040 Goal=   None    Shift=    0.000
 RMSDP=5.05D-07 MaxDP=5.68D-05 DE=-2.08D-10 OVMax= 1.58D-05

 Cycle  17  Pass 1  IDiag  1:
 E= -1136.10361523154     Delta-E=       -0.000000000025 Rises=F Damp=F
 DIIS: error= 4.38D-08 at cycle  17 NSaved=  17.
 NSaved=17 IEnMin=17 EnMin= -1136.10361523154     IErMin=17 ErrMin= 4.38D-08
 ErrMax= 4.38D-08  0.00D+00 EMaxC= 1.00D-01 BMatC= 6.22D-13 BMatP= 2.94D-12
 IDIUse=1 WtCom= 1.00D+00 WtEn= 0.00D+00
 Coeff-Com:  0.955D-06-0.135D-05-0.122D-04-0.557D-05-0.358D-04-0.101D-03
 Coeff-Com:  0.282D-03 0.191D-02 0.186D-02-0.863D-02-0.126D-01 0.269D-01
 Coeff-Com:  0.602D-01 0.740D-03-0.315D+00 0.111D+00 0.113D+01
 Coeff:      0.955D-06-0.135D-05-0.122D-04-0.557D-05-0.358D-04-0.101D-03
 Coeff:      0.282D-03 0.191D-02 0.186D-02-0.863D-02-0.126D-01 0.269D-01
 Coeff:      0.602D-01 0.740D-03-0.315D+00 0.111D+00 0.113D+01
 Gap=     0.050 Goal=   None    Shift=    0.000
 Gap=     0.040 Goal=   None    Shift=    0.000
 RMSDP=2.65D-07 MaxDP=2.69D-05 DE=-2.52D-11 OVMax= 6.40D-06

 Cycle  18  Pass 1  IDiag  1:
 E= -1136.10361523153     Delta-E=        0.000000000014 Rises=F Damp=F
 DIIS: error= 1.32D-08 at cycle  18 NSaved=  18.
 NSaved=18 IEnMin=17 EnMin= -1136.10361523154     IErMin=18 ErrMin= 1.32D-08
 ErrMax= 1.32D-08  0.00D+00 EMaxC= 1.00D-01 BMatC= 5.36D-14 BMatP= 6.22D-13
 IDIUse=1 WtCom= 1.00D+00 WtEn= 0.00D+00
 Coeff-Com:  0.443D-06-0.559D-06-0.177D-05 0.850D-06-0.100D-04-0.115D-03
 Coeff-Com: -0.952D-04-0.201D-03 0.238D-03 0.323D-02-0.596D-02-0.998D-02
 Coeff-Com: -0.510D-03 0.568D-01-0.588D-01-0.123D+00 0.244D-01 0.111D+01
 Coeff:      0.443D-06-0.559D-06-0.177D-05 0.850D-06-0.100D-04-0.115D-03
 Coeff:     -0.952D-04-0.201D-03 0.238D-03 0.323D-02-0.596D-02-0.998D-02
 Coeff:     -0.510D-03 0.568D-01-0.588D-01-0.123D+00 0.244D-01 0.111D+01
 Gap=     0.050 Goal=   None    Shift=    0.000
 Gap=     0.040 Goal=   None    Shift=    0.000
 RMSDP=9.10D-08 MaxDP=1.21D-05 DE= 1.36D-11 OVMax= 1.77D-06

 Cycle  19  Pass 1  IDiag  1:
 E= -1136.10361523154     Delta-E=       -0.000000000013 Rises=F Damp=F
 DIIS: error= 6.22D-09 at cycle  19 NSaved=  19.
 NSaved=19 IEnMin=17 EnMin= -1136.10361523154     IErMin=19 ErrMin= 6.22D-09
 ErrMax= 6.22D-09  0.00D+00 EMaxC= 1.00D-01 BMatC= 7.72D-15 BMatP= 5.36D-14
 IDIUse=1 WtCom= 1.00D+00 WtEn= 0.00D+00
 Coeff-Com: -0.235D-06 0.315D-06 0.114D-05 0.508D-07 0.584D-05 0.414D-04
 Coeff-Com: -0.217D-05-0.113D-03-0.389D-03 0.241D-03 0.310D-02-0.175D-02
 Coeff-Com: -0.780D-02-0.857D-02 0.459D-01 0.137D-01-0.149D+00-0.239D+00
 Coeff-Com:  0.134D+01
 Coeff:     -0.235D-06 0.315D-06 0.114D-05 0.508D-07 0.584D-05 0.414D-04
 Coeff:     -0.217D-05-0.113D-03-0.389D-03 0.241D-03 0.310D-02-0.175D-02
 Coeff:     -0.780D-02-0.857D-02 0.459D-01 0.137D-01-0.149D+00-0.239D+00
 Coeff:      0.134D+01
 Gap=     0.050 Goal=   None    Shift=    0.000
 Gap=     0.040 Goal=   None    Shift=    0.000
 RMSDP=3.30D-08 MaxDP=3.65D-06 DE=-1.27D-11 OVMax= 7.01D-07

 Cycle  20  Pass 1  IDiag  1:
 E= -1136.10361523152     Delta-E=        0.000000000015 Rises=F Damp=F
 DIIS: error= 1.67D-09 at cycle  20 NSaved=  20.
 NSaved=20 IEnMin=17 EnMin= -1136.10361523154     IErMin=20 ErrMin= 1.67D-09
 ErrMax= 1.67D-09  0.00D+00 EMaxC= 1.00D-01 BMatC= 9.01D-16 BMatP= 7.72D-15
 IDIUse=1 WtCom= 1.00D+00 WtEn= 0.00D+00
 Large coefficients: NSaved= 20 BigCof=    0.00 CofMax=   10.00 Det=-1.39D-15
 Inversion failed.  Reducing to 19 matrices.
 Large coefficients: NSaved= 19 BigCof=    0.00 CofMax=   10.00 Det=-1.58D-15
 Inversion failed.  Reducing to 18 matrices.
 Large coefficients: NSaved= 18 BigCof=    0.00 CofMax=   10.00 Det=-1.64D-15
 Inversion failed.  Reducing to 17 matrices.
 Large coefficients: NSaved= 17 BigCof=    0.00 CofMax=   10.00 Det=-1.64D-15
 Inversion failed.  Reducing to 16 matrices.
 Large coefficients: NSaved= 16 BigCof=    0.00 CofMax=   10.00 Det=-1.84D-15
 Inversion failed.  Reducing to 15 matrices.
 Coeff-Com:  0.237D-05 0.937D-05 0.512D-04 0.525D-04-0.406D-03 0.142D-03
 Coeff-Com:  0.111D-02 0.121D-02-0.382D-02-0.701D-03 0.769D-02 0.178D-01
 Coeff-Com: -0.985D-01-0.563D-02 0.108D+01
 Coeff:      0.237D-05 0.937D-05 0.512D-04 0.525D-04-0.406D-03 0.142D-03
 Coeff:      0.111D-02 0.121D-02-0.382D-02-0.701D-03 0.769D-02 0.178D-01
 Coeff:     -0.985D-01-0.563D-02 0.108D+01
 Gap=     0.050 Goal=   None    Shift=    0.000
 Gap=     0.040 Goal=   None    Shift=    0.000
 RMSDP=7.77D-09 MaxDP=6.74D-07 DE= 1.52D-11 OVMax= 1.42D-07

 SCF Done:  E(UB3LYP) =  -1136.10361523     A.U. after   20 cycles
            NFock= 20  Conv=0.78D-08     -V/T= 2.0025
 <Sx>= 0.0000 <Sy>= 0.0000 <Sz>= 0.5000 <S**2>= 0.7599 S= 0.5049
 <L.S>= 0.000000000000E+00
 KE= 1.133283843371D+03 PE=-3.501708104085D+03 EE= 8.462287970456D+02
 Annihilation of the first spin contaminant:
 S**2 before annihilation     0.7599,   after     0.7501
 Leave Link  502 at Mon Nov 13 17:05:50 2023, MaxMem=  1879048192 cpu:             198.8 elap:              16.8
 (Enter /home/sekinelabo/g16/l601.exe)
 Copying SCF densities to generalized density rwf, IOpCl= 1 IROHF=0.

 **********************************************************************

            Population analysis using the SCF Density.

 **********************************************************************

 Orbital symmetries:
 Alpha Orbitals:
       Occupied  (A) (A) (A) (A) (A) (A) (A) (A) (A) (A) (A) (A)
                 (A) (A) (A) (A) (A) (A) (A) (A) (A) (A) (A) (A)
                 (A) (A) (A) (A) (A) (A) (A) (A) (A) (A) (A) (A)
                 (A) (A) (A)
       Virtual   (A) (A) (A) (A) (A) (A) (A) (A) (A) (A) (A) (A)
                 (A) (A) (A) (A) (A) (A) (A) (A) (A) (A) (A) (A)
                 (A) (A) (A) (A) (A) (A) (A) (A) (A) (A) (A) (A)
                 (A) (A) (A) (A) (A) (A) (A) (A) (A) (A) (A) (A)
                 (A) (A) (A) (A) (A) (A) (A) (A) (A) (A) (A) (A)
                 (A) (A) (A) (A) (A) (A) (A) (A) (A) (A) (A) (A)
                 (A) (A) (A) (A) (A) (A) (A) (A) (A) (A) (A) (A)
                 (A) (A) (A) (A) (A) (A) (A) (A) (A) (A) (A) (A)
                 (A) (A) (A) (A) (A) (A) (A) (A) (A) (A) (A) (A)
                 (A) (A) (A) (A) (A) (A) (A) (A) (A) (A) (A) (A)
                 (A) (A) (A) (A) (A) (A) (A) (A) (A) (A) (A) (A)
                 (A) (A) (A) (A) (A) (A) (A) (A) (A) (A) (A) (A)
                 (A) (A) (A) (A) (A) (A) (A) (A) (A) (A) (A) (A)
                 (A) (A) (A) (A) (A) (A) (A) (A) (A) (A) (A) (A)
                 (A) (A)
 Beta  Orbitals:
       Occupied  (A) (A) (A) (A) (A) (A) (A) (A) (A) (A) (A) (A)
                 (A) (A) (A) (A) (A) (A) (A) (A) (A) (A) (A) (A)
                 (A) (A) (A) (A) (A) (A) (A) (A) (A) (A) (A) (A)
                 (A) (A)
       Virtual   (A) (A) (A) (A) (A) (A) (A) (A) (A) (A) (A) (A)
                 (A) (A) (A) (A) (A) (A) (A) (A) (A) (A) (A) (A)
                 (A) (A) (A) (A) (A) (A) (A) (A) (A) (A) (A) (A)
                 (A) (A) (A) (A) (A) (A) (A) (A) (A) (A) (A) (A)
                 (A) (A) (A) (A) (A) (A) (A) (A) (A) (A) (A) (A)
                 (A) (A) (A) (A) (A) (A) (A) (A) (A) (A) (A) (A)
                 (A) (A) (A) (A) (A) (A) (A) (A) (A) (A) (A) (A)
                 (A) (A) (A) (A) (A) (A) (A) (A) (A) (A) (A) (A)
                 (A) (A) (A) (A) (A) (A) (A) (A) (A) (A) (A) (A)
                 (A) (A) (A) (A) (A) (A) (A) (A) (A) (A) (A) (A)
                 (A) (A) (A) (A) (A) (A) (A) (A) (A) (A) (A) (A)
                 (A) (A) (A) (A) (A) (A) (A) (A) (A) (A) (A) (A)
                 (A) (A) (A) (A) (A) (A) (A) (A) (A) (A) (A) (A)
                 (A) (A) (A) (A) (A) (A) (A) (A) (A) (A) (A) (A)
                 (A) (A) (A)
 The electronic state is 2-A.
 Alpha  occ. eigenvalues --  -38.45297 -38.44125 -38.43916 -38.43891 -38.43352
 Alpha  occ. eigenvalues --  -38.43074 -38.42607  -2.21177  -2.20122  -2.20040
 Alpha  occ. eigenvalues --   -2.20015  -2.19437  -2.19075  -2.18693  -1.14863
 Alpha  occ. eigenvalues --   -1.14858  -1.14805  -1.13955  -1.13858  -1.13766
 Alpha  occ. eigenvalues --   -1.13750  -1.13703  -1.13692  -1.13669  -1.13589
 Alpha  occ. eigenvalues --   -1.13565  -1.13128  -1.13063  -1.13061  -1.12773
 Alpha  occ. eigenvalues --   -1.12749  -1.12671  -1.12399  -1.12344  -1.12298
 Alpha  occ. eigenvalues --   -0.20601  -0.14417  -0.11811  -0.11629
 Alpha virt. eigenvalues --   -0.06627  -0.04616  -0.03864  -0.03363  -0.02527
 Alpha virt. eigenvalues --   -0.02510  -0.02151  -0.00682  -0.00100   0.00138
 Alpha virt. eigenvalues --    0.00349   0.00451   0.00778   0.00905   0.00991
 Alpha virt. eigenvalues --    0.01118   0.01254   0.01451   0.01473   0.01555
 Alpha virt. eigenvalues --    0.01660   0.01693   0.01902   0.01959   0.02076
 Alpha virt. eigenvalues --    0.02250   0.02516   0.02714   0.02775   0.02831
 Alpha virt. eigenvalues --    0.02889   0.02983   0.03037   0.03253   0.03296
 Alpha virt. eigenvalues --    0.03410   0.03773   0.03902   0.04052   0.04127
 Alpha virt. eigenvalues --    0.04430   0.04708   0.04810   0.05228   0.05281
 Alpha virt. eigenvalues --    0.05407   0.05727   0.05912   0.05980   0.06042
 Alpha virt. eigenvalues --    0.06608   0.06971   0.07156   0.07299   0.07327
 Alpha virt. eigenvalues --    0.08552   0.08615   0.08922   0.09521   0.09670
 Alpha virt. eigenvalues --    0.10210   0.10364   0.11262   0.12316   0.12728
 Alpha virt. eigenvalues --    0.13293   0.13451   0.13918   0.14042   0.14180
 Alpha virt. eigenvalues --    0.14430   0.14793   0.15016   0.15304   0.16197
 Alpha virt. eigenvalues --    0.16566   0.17007   0.17495   0.21184   0.23236
 Alpha virt. eigenvalues --    0.23767   0.25740   0.28167   0.28933   0.29081
 Alpha virt. eigenvalues --    0.30052   0.31502   0.32493   0.32938   0.34410
 Alpha virt. eigenvalues --    0.36098   0.37270   0.38438   0.39129   0.39194
 Alpha virt. eigenvalues --    0.40441   0.41990   0.43065   0.43970   0.44105
 Alpha virt. eigenvalues --    0.44991   0.45044   0.45333   0.46033   0.46427
 Alpha virt. eigenvalues --    0.46900   0.47457   0.47662   0.47919   0.49309
 Alpha virt. eigenvalues --    0.50282   0.50509   0.51274   0.52784   0.53242
 Alpha virt. eigenvalues --    0.53904   0.54279   0.54517   0.54820   0.54968
 Alpha virt. eigenvalues --    0.56087   0.56585   0.57630   0.62729   0.67216
 Alpha virt. eigenvalues --    0.67733   0.68520   0.70058   0.71162   0.74784
 Alpha virt. eigenvalues --    0.75030   0.76232   0.76592   0.78334   0.79872
 Alpha virt. eigenvalues --    2.10016   2.17929   2.24864   2.26531   2.29518
 Alpha virt. eigenvalues --    2.30660   2.36334   4.40572   4.41374   4.41892
 Alpha virt. eigenvalues --    4.41984   4.42819   4.43970   4.44745   4.45321
 Alpha virt. eigenvalues --    4.46271   4.49683   4.51354   4.58917   4.63011
 Alpha virt. eigenvalues --    4.64639   4.66300   4.66990   4.68489   4.72313
 Alpha virt. eigenvalues --    4.74747   4.77540   4.80043  96.30645  96.41276
 Alpha virt. eigenvalues --   96.51117  96.52738  96.57708  96.58477  96.66989
  Beta  occ. eigenvalues --  -38.45304 -38.44111 -38.43826 -38.43799 -38.43337
  Beta  occ. eigenvalues --  -38.43063 -38.42592  -2.21191  -2.20101  -2.19877
  Beta  occ. eigenvalues --   -2.19849  -2.19416  -2.19061  -2.18672  -1.14877
  Beta  occ. eigenvalues --   -1.14869  -1.14801  -1.13925  -1.13781  -1.13738
  Beta  occ. eigenvalues --   -1.13661  -1.13594  -1.13580  -1.13550  -1.13489
  Beta  occ. eigenvalues --   -1.13465  -1.13114  -1.13055  -1.12986  -1.12766
  Beta  occ. eigenvalues --   -1.12693  -1.12669  -1.12391  -1.12291  -1.12274
  Beta  occ. eigenvalues --   -0.19797  -0.14144  -0.11483
  Beta virt. eigenvalues --   -0.07505  -0.06543  -0.04641  -0.03273  -0.02980
  Beta virt. eigenvalues --   -0.02092  -0.01667  -0.01519  -0.00650   0.00077
  Beta virt. eigenvalues --    0.00144   0.00369   0.00422   0.00947   0.00986
  Beta virt. eigenvalues --    0.01018   0.01151   0.01387   0.01567   0.01572
  Beta virt. eigenvalues --    0.01648   0.01706   0.01771   0.01965   0.01992
  Beta virt. eigenvalues --    0.02250   0.02270   0.02505   0.02760   0.02855
  Beta virt. eigenvalues --    0.02876   0.02929   0.03018   0.03086   0.03248
  Beta virt. eigenvalues --    0.03339   0.03574   0.03884   0.03968   0.04226
  Beta virt. eigenvalues --    0.04351   0.04503   0.04770   0.04942   0.05396
  Beta virt. eigenvalues --    0.05455   0.05481   0.05901   0.06006   0.06172
  Beta virt. eigenvalues --    0.06192   0.06753   0.07007   0.07180   0.07444
  Beta virt. eigenvalues --    0.07496   0.08666   0.08873   0.08962   0.09609
  Beta virt. eigenvalues --    0.09983   0.10375   0.10763   0.11525   0.12358
  Beta virt. eigenvalues --    0.12801   0.13745   0.13819   0.14180   0.14300
  Beta virt. eigenvalues --    0.14336   0.14879   0.14967   0.15068   0.15528
  Beta virt. eigenvalues --    0.16447   0.17000   0.17042   0.17708   0.21238
  Beta virt. eigenvalues --    0.23760   0.24016   0.26339   0.28861   0.29073
  Beta virt. eigenvalues --    0.29483   0.30105   0.31827   0.33003   0.33084
  Beta virt. eigenvalues --    0.34559   0.36574   0.37502   0.38530   0.39364
  Beta virt. eigenvalues --    0.39687   0.40579   0.42320   0.43195   0.43949
  Beta virt. eigenvalues --    0.44317   0.45216   0.45268   0.45515   0.46141
  Beta virt. eigenvalues --    0.46679   0.47129   0.47644   0.47977   0.48085
  Beta virt. eigenvalues --    0.49483   0.50577   0.50620   0.51359   0.52912
  Beta virt. eigenvalues --    0.53596   0.54006   0.54607   0.54717   0.54997
  Beta virt. eigenvalues --    0.55224   0.56270   0.56970   0.57833   0.63182
  Beta virt. eigenvalues --    0.67202   0.67936   0.68480   0.70598   0.71263
  Beta virt. eigenvalues --    0.74832   0.75354   0.76561   0.76728   0.78504
  Beta virt. eigenvalues --    0.80034   2.10051   2.17994   2.24915   2.26544
  Beta virt. eigenvalues --    2.29560   2.31075   2.36545   4.40592   4.41503
  Beta virt. eigenvalues --    4.42014   4.42018   4.42876   4.44025   4.44799
  Beta virt. eigenvalues --    4.45365   4.46296   4.49742   4.51446   4.58936
  Beta virt. eigenvalues --    4.63037   4.64758   4.66320   4.67134   4.68600
  Beta virt. eigenvalues --    4.72332   4.74772   4.77607   4.80104  96.30664
  Beta virt. eigenvalues --   96.41298  96.51137  96.52750  96.57728  96.58606
  Beta virt. eigenvalues --   96.67060
          Condensed to atoms (all electrons):
               1          2          3          4          5          6
     1  Na  12.823009  -1.511374  -0.066145  -0.438765   0.207714  -0.123051
     2  Na  -1.511374  12.838970  -0.119988  -0.325928   0.150873  -0.021945
     3  Na  -0.066145  -0.119988  13.357761   0.370336  -1.671305  -0.547569
     4  Na  -0.438765  -0.325928   0.370336  13.772237  -1.314815  -0.206933
     5  Na   0.207714   0.150873  -1.671305  -1.314815  12.604244   0.465741
     6  Na  -0.123051  -0.021945  -0.547569  -0.206933   0.465741  11.469999
     7  Na   0.292871   0.221349  -0.707744  -1.271506   0.680043   0.249266
               7
     1  Na   0.292871
     2  Na   0.221349
     3  Na  -0.707744
     4  Na  -1.271506
     5  Na   0.680043
     6  Na   0.249266
     7  Na  11.511530
          Atomic-Atomic Spin Densities.
               1          2          3          4          5          6
     1  Na   1.446580  -1.167962   0.009528  -0.012212   0.063234   0.038361
     2  Na  -1.167962   1.425273   0.132107   0.168870  -0.112416   0.072047
     3  Na   0.009528   0.132107  -0.481655  -0.143613   0.274305   0.082560
     4  Na  -0.012212   0.168870  -0.143613  -0.466919   0.218284   0.101480
     5  Na   0.063234  -0.112416   0.274305   0.218284  -0.175560  -0.033967
     6  Na   0.038361   0.072047   0.082560   0.101480  -0.033967  -0.355924
     7  Na   0.058937  -0.075818   0.154994   0.199928  -0.142854  -0.028521
               7
     1  Na   0.058937
     2  Na  -0.075818
     3  Na   0.154994
     4  Na   0.199928
     5  Na  -0.142854
     6  Na  -0.028521
     7  Na  -0.106344
 Mulliken charges and spin densities:
               1          2
     1  Na  -0.184260   0.436466
     2  Na  -0.231956   0.442102
     3  Na   0.384655   0.028226
     4  Na   0.415373   0.065819
     5  Na  -0.122495   0.091027
     6  Na  -0.285507  -0.123963
     7  Na   0.024190   0.060323
 Sum of Mulliken charges =  -0.00000   1.00000
 Mulliken charges and spin densities with hydrogens summed into heavy atoms:
               1          2
     1  Na  -0.184260   0.436466
     2  Na  -0.231956   0.442102
     3  Na   0.384655   0.028226
     4  Na   0.415373   0.065819
     5  Na  -0.122495   0.091027
     6  Na  -0.285507  -0.123963
     7  Na   0.024190   0.060323
 Electronic spatial extent (au):  <R**2>=           1841.3001
 Charge=              0.0000 electrons
 Dipole moment (field-independent basis, Debye):
    X=              0.5567    Y=             -0.2348    Z=             -0.0133  Tot=              0.6044
 Quadrupole moment (field-independent basis, Debye-Ang):
   XX=            -48.4746   YY=            -74.8651   ZZ=            -70.8000
   XY=              0.5301   XZ=             -0.0151   YZ=              0.0029
 Traceless Quadrupole moment (field-independent basis, Debye-Ang):
   XX=             16.2386   YY=            -10.1519   ZZ=             -6.0868
   XY=              0.5301   XZ=             -0.0151   YZ=              0.0029
 Octapole moment (field-independent basis, Debye-Ang**2):
  XXX=             27.2325  YYY=             -1.8214  ZZZ=             -0.0082  XYY=             -4.1238
  XXY=              0.2283  XXZ=             -0.6124  XZZ=              0.3012  YZZ=             -2.3472
  YYZ=              0.0852  XYZ=             -0.0862
 Hexadecapole moment (field-independent basis, Debye-Ang**3):
 XXXX=          -1244.6492 YYYY=          -1030.4566 ZZZZ=           -641.9381 XXXY=             39.2852
 XXXZ=             -0.3393 YYYX=            -16.5556 YYYZ=              0.0677 ZZZX=             -1.9685
 ZZZY=             -0.2130 XXYY=           -404.4652 XXZZ=           -413.7335 YYZZ=           -308.4638
 XXYZ=              0.2473 YYXZ=              1.8841 ZZXY=              1.8151
 N-N= 3.860918484366D+02 E-N=-3.501708104332D+03  KE= 1.133283843371D+03
                          Isotropic Fermi Contact Couplings
        Atom                 a.u.       MegaHertz       Gauss      10(-4) cm-1
     1  Na(23)             0.37523     443.90808     158.39744     148.07180
     2  Na(23)             0.36548     432.36849     154.27983     144.22260
     3  Na(23)            -0.00652      -7.71047      -2.75129      -2.57193
     4  Na(23)            -0.01561     -18.47086      -6.59086      -6.16122
     5  Na(23)            -0.00925     -10.93957      -3.90351      -3.64905
     6  Na(23)            -0.04511     -53.36563     -19.04218     -17.80086
     7  Na(23)            -0.01180     -13.96506      -4.98308      -4.65824
 --------------------------------------------------------
       Center         ----  Spin Dipole Couplings  ----
                      3XX-RR        3YY-RR        3ZZ-RR
 --------------------------------------------------------
     1   Atom        0.004021      0.008833     -0.012854
     2   Atom        0.005381      0.006948     -0.012329
     3   Atom       -0.026339     -0.026976      0.053315
     4   Atom       -0.028588     -0.033379      0.061967
     5   Atom       -0.031784     -0.027007      0.058791
     6   Atom       -0.001302     -0.012312      0.013615
     7   Atom       -0.027344     -0.020342      0.047686
 --------------------------------------------------------
                        XY            XZ            YZ
 --------------------------------------------------------
     1   Atom        0.000242     -0.003079      0.001114
     2   Atom        0.000103      0.004185     -0.001072
     3   Atom        0.000185     -0.000959     -0.002006
     4   Atom        0.000056      0.000525      0.001712
     5   Atom        0.001068     -0.002161     -0.001585
     6   Atom        0.000585      0.000386     -0.000049
     7   Atom       -0.001950     -0.001755      0.001013
 --------------------------------------------------------


 ---------------------------------------------------------------------------------
              Anisotropic Spin Dipole Couplings in Principal Axis System
 ---------------------------------------------------------------------------------

       Atom             a.u.   MegaHertz   Gauss  10(-4) cm-1        Axes

              Baa    -0.0135    -1.900    -0.678    -0.634  0.1740 -0.0510  0.9834
     1 Na(23) Bbb     0.0046     0.645     0.230     0.215  0.9846 -0.0103 -0.1747
              Bcc     0.0089     1.256     0.448     0.419  0.0191  0.9986  0.0484
 
              Baa    -0.0133    -1.882    -0.671    -0.628 -0.2183  0.0526  0.9745
     2 Na(23) Bbb     0.0063     0.889     0.317     0.297  0.9609  0.1858  0.2052
              Bcc     0.0070     0.993     0.354     0.331 -0.1703  0.9812 -0.0911
 
              Baa    -0.0271    -3.822    -1.364    -1.275 -0.2212  0.9750  0.0217
     3 Na(23) Bbb    -0.0263    -3.716    -1.326    -1.239  0.9751  0.2209  0.0173
              Bcc     0.0534     7.537     2.690     2.514 -0.0121 -0.0250  0.9996
 
              Baa    -0.0334    -4.718    -1.684    -1.574 -0.0097  0.9998 -0.0179
     4 Na(23) Bbb    -0.0286    -4.037    -1.441    -1.347  0.9999  0.0096 -0.0060
              Bcc     0.0620     8.755     3.124     2.920  0.0058  0.0180  0.9998
 
              Baa    -0.0320    -4.526    -1.615    -1.510  0.9793 -0.2013  0.0198
     5 Na(23) Bbb    -0.0268    -3.788    -1.352    -1.264  0.2009  0.9793  0.0232
              Bcc     0.0589     8.314     2.967     2.773 -0.0240 -0.0187  0.9995
 
              Baa    -0.0123    -1.743    -0.622    -0.581 -0.0530  0.9986  0.0027
     6 Na(23) Bbb    -0.0013    -0.181    -0.065    -0.060  0.9983  0.0531 -0.0257
              Bcc     0.0136     1.924     0.687     0.642  0.0258 -0.0013  0.9997
 
              Baa    -0.0279    -3.937    -1.405    -1.313  0.9686  0.2481  0.0192
     7 Na(23) Bbb    -0.0199    -2.805    -1.001    -0.936 -0.2477  0.9686 -0.0210
              Bcc     0.0477     6.742     2.406     2.249 -0.0238  0.0155  0.9996
 

 ---------------------------------------------------------------------------------

 No NMR shielding tensors so no spin-rotation constants.
 Leave Link  601 at Mon Nov 13 17:05:50 2023, MaxMem=  1879048192 cpu:               2.9 elap:               0.2
 (Enter /home/sekinelabo/g16/l701.exe)
 ... and contract with generalized density number  0.
 Compute integral first derivatives.
 Leave Link  701 at Mon Nov 13 17:05:50 2023, MaxMem=  1879048192 cpu:               1.7 elap:               0.1
 (Enter /home/sekinelabo/g16/l702.exe)
 L702 exits ... SP integral derivatives will be done elsewhere.
 Leave Link  702 at Mon Nov 13 17:05:50 2023, MaxMem=  1879048192 cpu:               0.5 elap:               0.0
 (Enter /home/sekinelabo/g16/l703.exe)
 Integral derivatives from FoFJK, PRISM(SPDF).
 Compute integral first derivatives, UseDBF=F ICtDFT=           0.
 Calling FoFJK, ICntrl=      2127 FMM=F ISym2X=0 I1Cent= 0 IOpClX= 1 NMat=1 NMatS=1 NMatT=0.
 FoFJK:  IHMeth= 1 ICntrl=    2127 DoSepK=F KAlg= 0 I1Cent=           0 FoldK=F
 IRaf=         0 NMat=       1 IRICut=       1 DoRegI=T DoRafI=F ISym2E= 0 IDoP0=0 IntGTp=1.
 FoFCou: FMM=F IPFlag=           0 FMFlag=      100000 FMFlg1=         800
         NFxFlg=           0 DoJE=F BraDBF=F KetDBF=F FulRan=T
         wScrn=  0.000000 ICntrl=      2127 IOpCl=  1 I1Cent=           0 NGrid=           0
         NMat0=    1 NMatS0=      1 NMatT0=    0 NMatD0=    1 NMtDS0=    0 NMtDT0=    0
 Symmetry not used in FoFCou.
 Leave Link  703 at Mon Nov 13 17:05:53 2023, MaxMem=  1879048192 cpu:              37.2 elap:               2.4
 (Enter /home/sekinelabo/g16/l716.exe)
 Dipole        = 2.19037217D-01-9.23642973D-02-5.21604413D-03
 ***** Axes restored to original set *****
 -------------------------------------------------------------------
 Center     Atomic                   Forces (Hartrees/Bohr)
 Number     Number              X              Y              Z
 -------------------------------------------------------------------
      1       11          -0.002247640   -0.002223783   -0.014636945
      2       11          -0.002908864   -0.002083039    0.014495442
      3       11           0.006716947   -0.014260650    0.000227418
      4       11           0.010540662    0.016953120    0.000195869
      5       11          -0.006299697    0.014895507   -0.000397074
      6       11          -0.005902968    0.000561452    0.000332520
      7       11           0.000101560   -0.013842606   -0.000217229
 -------------------------------------------------------------------
 Cartesian Forces:  Max     0.016953120 RMS     0.008681971
 Z-matrix is all fixed cartesians, so copy forces.
 Force constants in Cartesian coordinates: 
                1             2             3             4             5 
      1  0.125326D+00
      2  0.755859D-03  0.121306D+00
      3  0.521210D-02  0.886863D-02  0.186349D+00
      4 -0.592030D-02  0.903749D-03 -0.196457D-02  0.126309D+00
      5  0.106144D-02 -0.593806D-02 -0.373723D-02  0.967059D-03  0.120875D+00
      6  0.319419D-02  0.358537D-02 -0.376862D-01 -0.802624D-02 -0.838651D-02
      7 -0.323600D-01  0.134777D-01  0.559943D-02 -0.334611D-01  0.142357D-01
      8  0.687692D-02 -0.213159D-01 -0.579199D-02  0.685290D-02 -0.213895D-01
      9 -0.327500D-01  0.203655D-01 -0.373069D-01  0.328779D-01 -0.199434D-01
     10 -0.255752D-01 -0.130410D-01  0.490307D-02 -0.263636D-01 -0.142060D-01
     11 -0.142396D-01 -0.291478D-01  0.368702D-02 -0.139436D-01 -0.289675D-01
     12 -0.245103D-01 -0.293621D-01 -0.352770D-01  0.249440D-01  0.288564D-01
     13 -0.273719D-01  0.769743D-02 -0.700952D-02 -0.267786D-01  0.665503D-02
     14  0.685054D-02 -0.366650D-01  0.564147D-02  0.710657D-02 -0.361298D-01
     15  0.186574D-01 -0.327477D-01 -0.369045D-01 -0.180411D-01  0.329190D-01
     16 -0.571862D-02  0.102395D-02  0.385935D-03 -0.606094D-02  0.102295D-02
     17  0.975538D-03  0.691901D-02 -0.164625D-03  0.926021D-03  0.644105D-02
     18  0.839365D-02 -0.744120D-03  0.115766D-02 -0.871348D-02  0.779126D-03
     19 -0.283798D-01 -0.108177D-01 -0.712644D-02 -0.277248D-01 -0.973627D-02
     20 -0.228071D-02 -0.351582D-01 -0.850328D-02 -0.281270D-02 -0.348907D-01
     21  0.218030D-01  0.300345D-01 -0.403320D-01 -0.210765D-01 -0.304874D-01
                6             7             8             9            10 
      6  0.186071D+00
      7 -0.552005D-02  0.115560D+00
      8  0.592666D-02 -0.358770D-01  0.106442D+00
      9 -0.361780D-01  0.944937D-03 -0.607756D-03  0.706966D-01
     10 -0.446684D-02 -0.257628D-01  0.265236D-01 -0.431907D-03  0.128460D+00
     11 -0.422232D-02 -0.187661D-01 -0.503919D-01 -0.250736D-03  0.348281D-01
     12 -0.345924D-01 -0.291394D-03  0.649392D-03 -0.806401D-02  0.845094D-03
     13  0.741707D-02 -0.251804D-02  0.130479D-01 -0.304467D-03 -0.504784D-01
     14 -0.506353D-02  0.104518D-01  0.174371D-03  0.267683D-03 -0.230767D-01
     15 -0.378397D-01 -0.310716D-03  0.314783D-03  0.116841D-01 -0.546509D-03
     16 -0.255776D-03 -0.753496D-03  0.454075D-02  0.184616D-03 -0.321827D-03
     17  0.132523D-03 -0.727959D-03  0.495750D-02  0.124725D-03  0.367999D-03
     18  0.120687D-02 -0.650685D-04  0.218148D-03  0.156265D-02 -0.101249D-03
     19  0.765765D-02 -0.207042D-01 -0.219650D-01 -0.521043D-03  0.418034D-04
     20  0.802781D-02  0.172058D-01 -0.184763D-01  0.440427D-04 -0.113960D-01
     21 -0.409817D-01 -0.357138D-03 -0.709243D-03 -0.239443D-02 -0.201657D-03
               11            12            13            14            15 
     11  0.145737D+00
     12  0.122586D-03  0.787446D-01
     13  0.279285D-01 -0.107270D-02  0.151395D+00
     14 -0.426997D-01  0.156115D-03 -0.221868D-01  0.188495D+00
     15  0.122632D-02 -0.171639D-01  0.580550D-03 -0.232763D-02  0.105195D+00
     16 -0.486504D-02  0.265655D-03 -0.343150D-01  0.125428D-01  0.121871D-03
     17  0.745691D-02 -0.234290D-03 -0.233625D-01 -0.438283D-01  0.114913D-02
     18 -0.356362D-03  0.411776D-02  0.715417D-03  0.624995D-03 -0.164408D-01
     19 -0.109423D-01 -0.180355D-03 -0.993253D-02  0.831179D-02 -0.461462D-03
     20 -0.198711D-02 -0.188129D-03 -0.977961D-02 -0.293464D-01 -0.533883D-03
     21 -0.206514D-03  0.122349D-01 -0.326347D-03  0.700899D-03 -0.853032D-02
               16            17            18            19            20 
     16  0.784502D-01
     17 -0.147458D-02  0.618234D-01
     18 -0.862238D-03 -0.214976D-05  0.207504D-01
     19 -0.312804D-01  0.232954D-01  0.632963D-03  0.117980D+00
     20 -0.127908D-01 -0.437696D-01 -0.519637D-03  0.218541D-01  0.163628D+00
     21  0.159937D-03 -0.100531D-02 -0.123545D-01 -0.130936D-05  0.167308D-02
               21 
     21  0.923581D-01
 Leave Link  716 at Mon Nov 13 17:05:53 2023, MaxMem=  1879048192 cpu:               0.5 elap:               0.0
 (Enter /home/sekinelabo/g16/l103.exe)

 GradGradGradGradGradGradGradGradGradGradGradGradGradGradGradGradGradGrad
 Berny optimization.
 Search for a local minimum.
 Step number   1 out of a maximum of    2
 All quantities printed in internal units (Hartrees-Bohrs-Radians)
 Second derivative matrix not updated -- first step.
 ITU=  0
     Eigenvalues ---    0.04496   0.07001   0.07734   0.11539   0.13936
     Eigenvalues ---    0.14898   0.17105   0.17695   0.18011   0.18566
     Eigenvalues ---    0.21382   0.22129   0.23111   0.23544   0.25864
 Angle between quadratic step and forces=  21.14 degrees.
 Linear search not attempted -- first point.
 B after Tr=     0.000000    0.000000    0.000000
         Rot=    1.000000    0.000000   -0.000000    0.000000 Ang=   0.00 deg.
 Variable       Old X    -DE/DX   Delta X   Delta X   Delta X     New X
                                 (Linear)    (Quad)   (Total)
    X1        7.42273  -0.00225   0.00000   0.01365   0.01365   7.43639
    Y1        3.24046  -0.00222   0.00000  -0.00230  -0.00230   3.23815
    Z1        0.00000  -0.01464   0.00000  -0.08282  -0.08282  -0.08282
    X2        7.29056  -0.00291   0.00000   0.00819   0.00819   7.29875
    Y2        3.26049  -0.00208   0.00000  -0.00125  -0.00125   3.25924
    Z2        6.78838   0.01450   0.00000   0.08050   0.08050   6.86888
    X3       11.38287   0.00672   0.00000   0.07764   0.07764  11.46052
    Y3        1.13912  -0.01426   0.00000  -0.10233  -0.10233   1.03679
    Z3        3.48025   0.00023   0.00000   0.00282   0.00282   3.48308
    X4       10.34489   0.01054   0.00000   0.09115   0.09115  10.43604
    Y4        6.66655   0.01695   0.00000   0.10637   0.10637   6.77292
    Z4        3.44265   0.00020   0.00000   0.00105   0.00105   3.44370
    X5        4.72459  -0.00630   0.00000  -0.04557  -0.04557   4.67903
    Y5        6.97828   0.01490   0.00000   0.10082   0.10082   7.07910
    Z5        3.33256  -0.00040   0.00000  -0.00317  -0.00317   3.32939
    X6        0.00000  -0.00590   0.00000  -0.12086  -0.12086  -0.12086
    Y6        3.85687   0.00056   0.00000  -0.00403  -0.00403   3.85284
    Z6        3.45454   0.00033   0.00000   0.00423   0.00423   3.45878
    X7        4.14032   0.00010   0.00000  -0.02421  -0.02421   4.11611
    Y7        0.00000  -0.01384   0.00000  -0.09728  -0.09728  -0.09728
    Z7        3.34219  -0.00022   0.00000  -0.00262  -0.00262   3.33957
         Item               Value     Threshold  Converged?
 Maximum Force            0.016953     0.000450     NO 
 RMS     Force            0.008682     0.000300     NO 
 Maximum Displacement     0.120861     0.001800     NO 
 RMS     Displacement     0.064247     0.001200     NO 
 Predicted change in Energy=-5.462722D-03
 GradGradGradGradGradGradGradGradGradGradGradGradGradGradGradGradGradGrad

 Leave Link  103 at Mon Nov 13 17:05:53 2023, MaxMem=  1879048192 cpu:               0.3 elap:               0.0
 (Enter /home/sekinelabo/g16/l9999.exe)
 1\1\GINC-SEKINELABO-XA7R-R37\Force\UB3LYP\6-311+G(d)\Na7(2)\SEKINELABO
 \13-Nov-2023\0\\#P B3LYP/6-311+g(d) force\\Gaussian input prepared by 
 ASE\\0,2\Na,3.9279409447,1.7147755186,0.\Na,3.8579969118,1.7253766468,
 3.5922563307\Na,6.0235572346,0.6027988497,1.8416708079\Na,5.4742786166
 ,3.5277851714,1.8217719922\Na,2.5001473891,3.6927478948,1.7635164668\N
 a,0.,2.0409663866,1.8280662495\Na,2.1909622057,0.,1.7686102521\\Versio
 n=ES64L-G16RevB.01\State=2-A\HF=-1136.1036152\S2=0.759861\S2-1=0.\S2A=
 0.75007\RMSD=7.774e-09\RMSF=8.682e-03\Dipole=-0.2190372,-0.0923643,0.0
 05216\Quadrupole=12.0730294,-7.5476747,-4.5253547,-0.3940823,-0.011237
 3,-0.0021873\PG=C01 [X(Na7)]\\@


 A true friend is someone who is there for
 you when he'd rather be anywhere else.
                               -- Len Wein
 Job cpu time:       0 days  0 hours  4 minutes 14.0 seconds.
 Elapsed time:       0 days  0 hours  0 minutes 20.3 seconds.
 File lengths (MBytes):  RWF=     32 Int=      0 D2E=      0 Chk=      5 Scr=      1
 Normal termination of Gaussian 16 at Mon Nov 13 17:05:53 2023.
