 Entering Gaussian System, Link 0=g16
 Initial command:
 /home/sekinelabo/g16/l1.exe "/home/sekinelabo/g16temp/Gau-4067470.inp" -scrdir="/home/sekinelabo/g16temp/"
 Entering Link 1 = /home/sekinelabo/g16/l1.exe PID=   4067472.
  
 Copyright (c) 1988-2017, Gaussian, Inc.  All Rights Reserved.
  
 This is part of the Gaussian(R) 16 program.  It is based on
 the Gaussian(R) 09 system (copyright 2009, Gaussian, Inc.),
 the Gaussian(R) 03 system (copyright 2003, Gaussian, Inc.),
 the Gaussian(R) 98 system (copyright 1998, Gaussian, Inc.),
 the Gaussian(R) 94 system (copyright 1995, Gaussian, Inc.),
 the Gaussian 92(TM) system (copyright 1992, Gaussian, Inc.),
 the Gaussian 90(TM) system (copyright 1990, Gaussian, Inc.),
 the Gaussian 88(TM) system (copyright 1988, Gaussian, Inc.),
 the Gaussian 86(TM) system (copyright 1986, Carnegie Mellon
 University), and the Gaussian 82(TM) system (copyright 1983,
 Carnegie Mellon University). Gaussian is a federally registered
 trademark of Gaussian, Inc.
  
 This software contains proprietary and confidential information,
 including trade secrets, belonging to Gaussian, Inc.
  
 This software is provided under written license and may be
 used, copied, transmitted, or stored only in accord with that
 written license.
  
 The following legend is applicable only to US Government
 contracts under FAR:
  
                    RESTRICTED RIGHTS LEGEND
  
 Use, reproduction and disclosure by the US Government is
 subject to restrictions as set forth in subparagraphs (a)
 and (c) of the Commercial Computer Software - Restricted
 Rights clause in FAR 52.227-19.
  
 Gaussian, Inc.
 340 Quinnipiac St., Bldg. 40, Wallingford CT 06492
  
  
 ---------------------------------------------------------------
 Warning -- This program may not be used in any manner that
 competes with the business of Gaussian, Inc. or will provide
 assistance to any competitor of Gaussian, Inc.  The licensee
 of this program is prohibited from giving any competitor of
 Gaussian, Inc. access to this program.  By using this program,
 the user acknowledges that Gaussian, Inc. is engaged in the
 business of creating and licensing software in the field of
 computational chemistry and represents and warrants to the
 licensee that it is not a competitor of Gaussian, Inc. and that
 it will not use this program in any manner prohibited above.
 ---------------------------------------------------------------
  

 Cite this work as:
 Gaussian 16, Revision B.01,
 M. J. Frisch, G. W. Trucks, H. B. Schlegel, G. E. Scuseria, 
 M. A. Robb, J. R. Cheeseman, G. Scalmani, V. Barone, 
 G. A. Petersson, H. Nakatsuji, X. Li, M. Caricato, A. V. Marenich, 
 J. Bloino, B. G. Janesko, R. Gomperts, B. Mennucci, H. P. Hratchian, 
 J. V. Ortiz, A. F. Izmaylov, J. L. Sonnenberg, D. Williams-Young, 
 F. Ding, F. Lipparini, F. Egidi, J. Goings, B. Peng, A. Petrone, 
 T. Henderson, D. Ranasinghe, V. G. Zakrzewski, J. Gao, N. Rega, 
 G. Zheng, W. Liang, M. Hada, M. Ehara, K. Toyota, R. Fukuda, 
 J. Hasegawa, M. Ishida, T. Nakajima, Y. Honda, O. Kitao, H. Nakai, 
 T. Vreven, K. Throssell, J. A. Montgomery, Jr., J. E. Peralta, 
 F. Ogliaro, M. J. Bearpark, J. J. Heyd, E. N. Brothers, K. N. Kudin, 
 V. N. Staroverov, T. A. Keith, R. Kobayashi, J. Normand, 
 K. Raghavachari, A. P. Rendell, J. C. Burant, S. S. Iyengar, 
 J. Tomasi, M. Cossi, J. M. Millam, M. Klene, C. Adamo, R. Cammi, 
 J. W. Ochterski, R. L. Martin, K. Morokuma, O. Farkas, 
 J. B. Foresman, and D. J. Fox, Gaussian, Inc., Wallingford CT, 2016.
 
 ******************************************
 Gaussian 16:  ES64L-G16RevB.01 20-Dec-2017
                13-Nov-2023 
 ******************************************
 %mem=14GB
 %chk=checkpoint.chk
 %nprocshared=16
 Will use up to   16 processors via shared memory.
 -------------------------
 #P B3LYP/6-311+g(d) force
 -------------------------
 1/10=7,30=1,38=1/1,3;
 2/12=2,17=6,18=5,40=1/2;
 3/5=4,6=6,7=11,11=2,25=1,30=1,71=1,74=-5/1,2,3;
 4//1;
 5/5=2,38=5/2;
 6/7=2,8=2,9=2,10=2,28=1/1;
 7/29=1/1,2,3,16;
 1/10=7,30=1/3;
 99//99;
 Leave Link    1 at Mon Nov 13 17:00:53 2023, MaxMem=  1879048192 cpu:               0.3 elap:               0.0
 (Enter /home/sekinelabo/g16/l101.exe)
 ------------------------------
 Gaussian input prepared by ASE
 ------------------------------
 Symbolic Z-matrix:
 Charge =  0 Multiplicity = 2
 Na                    2.4758    3.02617   1.27287 
 Na                    5.48462   0.11719   2.36063 
 Na                    5.56185   3.13535   1.54323 
 Na                    3.89028   2.08006   3.48992 
 Na                    4.24403   0.86656   0. 
 Na                    2.39003   0.        1.89474 
 Na                    0.        1.64527   1.89396 
 
 ITRead=  0  0  0  0  0  0  0
 MicOpt= -1 -1 -1 -1 -1 -1 -1
 NAtoms=      7 NQM=        7 NQMF=       0 NMMI=      0 NMMIF=      0
                NMic=       0 NMicF=      0.
                    Isotopes and Nuclear Properties:
 (Nuclear quadrupole moments (NQMom) in fm**2, nuclear magnetic moments (NMagM)
  in nuclear magnetons)

  Atom         1           2           3           4           5           6           7
 IAtWgt=          23          23          23          23          23          23          23
 AtmWgt=  22.9897697  22.9897697  22.9897697  22.9897697  22.9897697  22.9897697  22.9897697
 NucSpn=           3           3           3           3           3           3           3
 AtZEff=  -0.0000000  -0.0000000  -0.0000000  -0.0000000  -0.0000000  -0.0000000  -0.0000000
 NQMom=   10.4000000  10.4000000  10.4000000  10.4000000  10.4000000  10.4000000  10.4000000
 NMagM=    2.2175200   2.2175200   2.2175200   2.2175200   2.2175200   2.2175200   2.2175200
 AtZNuc=  11.0000000  11.0000000  11.0000000  11.0000000  11.0000000  11.0000000  11.0000000
 Leave Link  101 at Mon Nov 13 17:00:53 2023, MaxMem=  1879048192 cpu:               2.6 elap:               0.2
 (Enter /home/sekinelabo/g16/l103.exe)

 GradGradGradGradGradGradGradGradGradGradGradGradGradGradGradGradGradGrad
 Berny optimization.
 Initialization pass.
 Trust Radius=3.00D-01 FncErr=1.00D-07 GrdErr=1.00D-07 EigMax=2.50D+02 EigMin=1.00D-04
 Number of steps in this run=      2 maximum allowed number of steps=      2.
 GradGradGradGradGradGradGradGradGradGradGradGradGradGradGradGradGradGrad

 Leave Link  103 at Mon Nov 13 17:00:53 2023, MaxMem=  1879048192 cpu:               0.3 elap:               0.0
 (Enter /home/sekinelabo/g16/l202.exe)
                          Input orientation:                          
 ---------------------------------------------------------------------
 Center     Atomic      Atomic             Coordinates (Angstroms)
 Number     Number       Type             X           Y           Z
 ---------------------------------------------------------------------
      1         11           0        2.475798    3.026168    1.272867
      2         11           0        5.484624    0.117191    2.360632
      3         11           0        5.561851    3.135351    1.543227
      4         11           0        3.890279    2.080065    3.489917
      5         11           0        4.244030    0.866556    0.000000
      6         11           0        2.390030    0.000000    1.894742
      7         11           0        0.000000    1.645267    1.893960
 ---------------------------------------------------------------------
                    Distance matrix (angstroms):
                    1          2          3          4          5
     1  Na   0.000000
     2  Na   4.324166   0.000000
     3  Na   3.099797   3.127844   0.000000
     4  Na   2.794848   2.769494   2.774417   0.000000
     5  Na   3.067695   2.770055   3.043950   3.711774   0.000000
     6  Na   3.090595   3.131661   4.473750   3.020265   2.788957
     7  Na   2.902106   5.712609   5.768670   4.227339   4.712246
                    6          7
     6  Na   0.000000
     7  Na   2.901577   0.000000
 Stoichiometry    Na7(2)
 Framework group  C1[X(Na7)]
 Deg. of freedom    15
 Full point group                 C1      NOp   1
 Largest Abelian subgroup         C1      NOp   1
 Largest concise Abelian subgroup C1      NOp   1
                         Standard orientation:                         
 ---------------------------------------------------------------------
 Center     Atomic      Atomic             Coordinates (Angstroms)
 Number     Number       Type             X           Y           Z
 ---------------------------------------------------------------------
      1         11           0        0.959432    1.473225    0.506468
      2         11           0       -2.049394   -1.435752   -0.581297
      3         11           0       -2.126621    1.582408    0.236108
      4         11           0       -0.455048    0.527123   -1.710582
      5         11           0       -0.808800   -0.686386    1.779335
      6         11           0        1.045200   -1.552942   -0.115407
      7         11           0        3.435230    0.092324   -0.114625
 ---------------------------------------------------------------------
 Rotational constants (GHZ):           1.3184123           0.7287206           0.6600950
 Leave Link  202 at Mon Nov 13 17:00:53 2023, MaxMem=  1879048192 cpu:               0.0 elap:               0.0
 (Enter /home/sekinelabo/g16/l301.exe)
 Standard basis: 6-311+G(d) (5D, 7F)
 Ernie: Thresh=  0.10000D-02 Tol=  0.10000D-05 Strict=F.
 There are   217 symmetry adapted cartesian basis functions of A   symmetry.
 There are   210 symmetry adapted basis functions of A   symmetry.
   210 basis functions,   350 primitive gaussians,   217 cartesian basis functions
    39 alpha electrons       38 beta electrons
       nuclear repulsion energy       402.1270173641 Hartrees.
 IExCor=  402 DFT=T Ex+Corr=B3LYP ExCW=0 ScaHFX=  0.200000
 ScaDFX=  0.800000  0.720000  1.000000  0.810000 ScalE2=  1.000000  1.000000
 IRadAn=      5 IRanWt=     -1 IRanGd=            0 ICorTp=0 IEmpDi=  4
 NAtoms=    7 NActive=    7 NUniq=    7 SFac= 1.00D+00 NAtFMM=   60 NAOKFM=F Big=F
 Integral buffers will be    131072 words long.
 Raffenetti 2 integral format.
 Two-electron integral symmetry is turned on.
 Leave Link  301 at Mon Nov 13 17:00:53 2023, MaxMem=  1879048192 cpu:               0.5 elap:               0.0
 (Enter /home/sekinelabo/g16/l302.exe)
 NPDir=0 NMtPBC=     1 NCelOv=     1 NCel=       1 NClECP=     1 NCelD=      1
         NCelK=      1 NCelE2=     1 NClLst=     1 CellRange=     0.0.
 One-electron integrals computed using PRISM.
 One-electron integral symmetry used in STVInt
 NBasis=   210 RedAO= T EigKep=  4.03D-06  NBF=   210
 NBsUse=   209 1.00D-06 EigRej=  6.13D-07 NBFU=   209
 Precomputing XC quadrature grid using
 IXCGrd= 4 IRadAn=           5 IRanWt=          -1 IRanGd=           0 AccXCQ= 0.00D+00.
 Generated NRdTot=       0 NPtTot=           0 NUsed=           0 NTot=          32
 NSgBfM=   210   210   210   210   210 MxSgAt=     7 MxSgA2=     7.
 Leave Link  302 at Mon Nov 13 17:00:53 2023, MaxMem=  1879048192 cpu:               2.1 elap:               0.1
 (Enter /home/sekinelabo/g16/l303.exe)
 DipDrv:  MaxL=1.
 Leave Link  303 at Mon Nov 13 17:00:53 2023, MaxMem=  1879048192 cpu:               0.6 elap:               0.0
 (Enter /home/sekinelabo/g16/l401.exe)
 ExpMin= 7.60D-03 ExpMax= 3.62D+04 ExpMxC= 1.21D+03 IAcc=3 IRadAn=         5 AccDes= 0.00D+00
 Harris functional with IExCor=  402 and IRadAn=       5 diagonalized for initial guess.
 HarFok:  IExCor=  402 AccDes= 0.00D+00 IRadAn=         5 IDoV= 1 UseB2=F ITyADJ=14
 ICtDFT=  3500011 ScaDFX=  1.000000  1.000000  1.000000  1.000000
 FoFCou: FMM=F IPFlag=           0 FMFlag=      100000 FMFlg1=           0
         NFxFlg=           0 DoJE=T BraDBF=F KetDBF=T FulRan=T
         wScrn=  0.000000 ICntrl=       500 IOpCl=  0 I1Cent=   200000004 NGrid=           0
         NMat0=    1 NMatS0=      1 NMatT0=    0 NMatD0=    1 NMtDS0=    0 NMtDT0=    0
 Petite list used in FoFCou.
 Harris En= -1135.85753955628    
 JPrj=0 DoOrth=F DoCkMO=F.
 Initial guess <Sx>= 0.0000 <Sy>= 0.0000 <Sz>= 0.5000 <S**2>= 0.7500 S= 0.5000
 Leave Link  401 at Mon Nov 13 17:00:54 2023, MaxMem=  1879048192 cpu:               4.7 elap:               0.3
 (Enter /home/sekinelabo/g16/l502.exe)
 Keep R1 and R2 ints in memory in canonical form, NReq=507620374.
 FoFCou: FMM=F IPFlag=           0 FMFlag=           0 FMFlg1=           0
         NFxFlg=           0 DoJE=F BraDBF=F KetDBF=F FulRan=T
         wScrn=  0.000000 ICntrl=       600 IOpCl=  0 I1Cent=           0 NGrid=           0
         NMat0=    1 NMatS0=  22155 NMatT0=    0 NMatD0=    1 NMtDS0=    0 NMtDT0=    0
 Symmetry not used in FoFCou.
 Two-electron integral symmetry not used.
 UHF open shell SCF:
 Using DIIS extrapolation, IDIIS=  1040.
 NGot=  1879048192 LenX=  1388082362 LenY=  1388034832
 Requested convergence on RMS density matrix=1.00D-08 within 128 cycles.
 Requested convergence on MAX density matrix=1.00D-06.
 Requested convergence on             energy=1.00D-06.
 No special actions if energy rises.

 Cycle   1  Pass 1  IDiag  1:
 E= -1136.03583838238    
 DIIS: error= 1.55D-02 at cycle   1 NSaved=   1.
 NSaved= 1 IEnMin= 1 EnMin= -1136.03583838238     IErMin= 1 ErrMin= 1.55D-02
 ErrMax= 1.55D-02  0.00D+00 EMaxC= 1.00D-01 BMatC= 2.11D-01 BMatP= 2.11D-01
 IDIUse=3 WtCom= 8.45D-01 WtEn= 1.55D-01
 Coeff-Com:  0.100D+01
 Coeff-En:   0.100D+01
 Coeff:      0.100D+01
 Gap=     0.044 Goal=   None    Shift=    0.000
 Gap=     0.034 Goal=   None    Shift=    0.000
 GapD=    0.034 DampG=0.250 DampE=0.500 DampFc=0.2500 IDamp=-1.
 Damping current iteration by 2.50D-01
 RMSDP=7.34D-02 MaxDP=7.25D+00              OVMax= 2.82D-01

 Cycle   2  Pass 1  IDiag  1:
 E= -1136.05265887194     Delta-E=       -0.016820489553 Rises=F Damp=T
 DIIS: error= 7.56D-03 at cycle   2 NSaved=   2.
 NSaved= 2 IEnMin= 2 EnMin= -1136.05265887194     IErMin= 2 ErrMin= 7.56D-03
 ErrMax= 7.56D-03  0.00D+00 EMaxC= 1.00D-01 BMatC= 7.89D-02 BMatP= 2.11D-01
 IDIUse=3 WtCom= 9.24D-01 WtEn= 7.56D-02
 Coeff-Com: -0.123D+01 0.223D+01
 Coeff-En:   0.000D+00 0.100D+01
 Coeff:     -0.114D+01 0.214D+01
 Gap=     0.059 Goal=   None    Shift=    0.000
 Gap=     0.038 Goal=   None    Shift=    0.000
 RMSDP=3.58D-02 MaxDP=3.81D+00 DE=-1.68D-02 OVMax= 2.15D-01

 Cycle   3  Pass 1  IDiag  1:
 E= -1136.07862309630     Delta-E=       -0.025964224361 Rises=F Damp=F
 DIIS: error= 4.72D-03 at cycle   3 NSaved=   3.
 NSaved= 3 IEnMin= 3 EnMin= -1136.07862309630     IErMin= 3 ErrMin= 4.72D-03
 ErrMax= 4.72D-03  0.00D+00 EMaxC= 1.00D-01 BMatC= 6.62D-03 BMatP= 7.89D-02
 IDIUse=3 WtCom= 9.53D-01 WtEn= 4.72D-02
 Coeff-Com: -0.368D+00 0.656D+00 0.712D+00
 Coeff-En:   0.000D+00 0.000D+00 0.100D+01
 Coeff:     -0.351D+00 0.625D+00 0.725D+00
 Gap=     0.050 Goal=   None    Shift=    0.000
 Gap=     0.037 Goal=   None    Shift=    0.000
 RMSDP=1.26D-02 MaxDP=1.09D+00 DE=-2.60D-02 OVMax= 1.15D-01

 Cycle   4  Pass 1  IDiag  1:
 E= -1136.07919965898     Delta-E=       -0.000576562683 Rises=F Damp=F
 DIIS: error= 3.49D-03 at cycle   4 NSaved=   4.
 NSaved= 4 IEnMin= 4 EnMin= -1136.07919965898     IErMin= 4 ErrMin= 3.49D-03
 ErrMax= 3.49D-03  0.00D+00 EMaxC= 1.00D-01 BMatC= 4.82D-03 BMatP= 6.62D-03
 IDIUse=3 WtCom= 9.65D-01 WtEn= 3.49D-02
 Coeff-Com: -0.249D-01 0.416D-01 0.456D+00 0.528D+00
 Coeff-En:   0.000D+00 0.000D+00 0.472D+00 0.528D+00
 Coeff:     -0.241D-01 0.401D-01 0.456D+00 0.528D+00
 Gap=     0.054 Goal=   None    Shift=    0.000
 Gap=     0.037 Goal=   None    Shift=    0.000
 RMSDP=3.60D-03 MaxDP=2.91D-01 DE=-5.77D-04 OVMax= 7.46D-02

 Cycle   5  Pass 1  IDiag  1:
 E= -1136.08260359243     Delta-E=       -0.003403933446 Rises=F Damp=F
 DIIS: error= 1.24D-03 at cycle   5 NSaved=   5.
 NSaved= 5 IEnMin= 5 EnMin= -1136.08260359243     IErMin= 5 ErrMin= 1.24D-03
 ErrMax= 1.24D-03  0.00D+00 EMaxC= 1.00D-01 BMatC= 5.79D-04 BMatP= 4.82D-03
 IDIUse=3 WtCom= 9.88D-01 WtEn= 1.24D-02
 Coeff-Com: -0.592D-02 0.750D-02 0.281D+00 0.357D+00 0.361D+00
 Coeff-En:   0.000D+00 0.000D+00 0.000D+00 0.117D+00 0.883D+00
 Coeff:     -0.585D-02 0.740D-02 0.278D+00 0.354D+00 0.367D+00
 Gap=     0.054 Goal=   None    Shift=    0.000
 Gap=     0.037 Goal=   None    Shift=    0.000
 RMSDP=1.35D-03 MaxDP=6.51D-02 DE=-3.40D-03 OVMax= 2.28D-02

 Cycle   6  Pass 1  IDiag  1:
 E= -1136.08319843210     Delta-E=       -0.000594839669 Rises=F Damp=F
 DIIS: error= 1.05D-04 at cycle   6 NSaved=   6.
 NSaved= 6 IEnMin= 6 EnMin= -1136.08319843210     IErMin= 6 ErrMin= 1.05D-04
 ErrMax= 1.05D-04  0.00D+00 EMaxC= 1.00D-01 BMatC= 3.35D-06 BMatP= 5.79D-04
 IDIUse=3 WtCom= 9.99D-01 WtEn= 1.05D-03
 Coeff-Com: -0.415D-03 0.157D-03-0.341D-01-0.485D-01 0.122D-01 0.107D+01
 Coeff-En:   0.000D+00 0.000D+00 0.000D+00 0.000D+00 0.000D+00 0.100D+01
 Coeff:     -0.414D-03 0.157D-03-0.341D-01-0.485D-01 0.122D-01 0.107D+01
 Gap=     0.054 Goal=   None    Shift=    0.000
 Gap=     0.037 Goal=   None    Shift=    0.000
 RMSDP=4.67D-04 MaxDP=5.14D-02 DE=-5.95D-04 OVMax= 7.68D-03

 Cycle   7  Pass 1  IDiag  1:
 E= -1136.08320861523     Delta-E=       -0.000010183130 Rises=F Damp=F
 DIIS: error= 5.28D-05 at cycle   7 NSaved=   7.
 NSaved= 7 IEnMin= 7 EnMin= -1136.08320861523     IErMin= 7 ErrMin= 5.28D-05
 ErrMax= 5.28D-05  0.00D+00 EMaxC= 1.00D-01 BMatC= 5.68D-07 BMatP= 3.35D-06
 IDIUse=1 WtCom= 1.00D+00 WtEn= 0.00D+00
 Coeff-Com:  0.432D-03-0.648D-03-0.155D-01-0.201D-01-0.125D-01 0.136D+00
 Coeff-Com:  0.913D+00
 Coeff:      0.432D-03-0.648D-03-0.155D-01-0.201D-01-0.125D-01 0.136D+00
 Coeff:      0.913D+00
 Gap=     0.054 Goal=   None    Shift=    0.000
 Gap=     0.038 Goal=   None    Shift=    0.000
 RMSDP=1.72D-04 MaxDP=1.02D-02 DE=-1.02D-05 OVMax= 5.17D-03

 Cycle   8  Pass 1  IDiag  1:
 E= -1136.08321154806     Delta-E=       -0.000002932838 Rises=F Damp=F
 DIIS: error= 4.26D-05 at cycle   8 NSaved=   8.
 NSaved= 8 IEnMin= 8 EnMin= -1136.08321154806     IErMin= 8 ErrMin= 4.26D-05
 ErrMax= 4.26D-05  0.00D+00 EMaxC= 1.00D-01 BMatC= 5.18D-07 BMatP= 5.68D-07
 IDIUse=1 WtCom= 1.00D+00 WtEn= 0.00D+00
 Coeff-Com:  0.564D-03-0.667D-03 0.179D-02 0.523D-02-0.153D-01-0.341D+00
 Coeff-Com:  0.637D+00 0.712D+00
 Coeff:      0.564D-03-0.667D-03 0.179D-02 0.523D-02-0.153D-01-0.341D+00
 Coeff:      0.637D+00 0.712D+00
 Gap=     0.054 Goal=   None    Shift=    0.000
 Gap=     0.038 Goal=   None    Shift=    0.000
 RMSDP=1.31D-04 MaxDP=1.13D-02 DE=-2.93D-06 OVMax= 5.16D-03

 Cycle   9  Pass 1  IDiag  1:
 E= -1136.08321392804     Delta-E=       -0.000002379980 Rises=F Damp=F
 DIIS: error= 3.14D-05 at cycle   9 NSaved=   9.
 NSaved= 9 IEnMin= 9 EnMin= -1136.08321392804     IErMin= 9 ErrMin= 3.14D-05
 ErrMax= 3.14D-05  0.00D+00 EMaxC= 1.00D-01 BMatC= 1.35D-07 BMatP= 5.18D-07
 IDIUse=1 WtCom= 1.00D+00 WtEn= 0.00D+00
 Coeff-Com:  0.521D-04-0.209D-04 0.480D-02 0.784D-02-0.281D-02-0.158D+00
 Coeff-Com: -0.976D-01 0.234D+00 0.101D+01
 Coeff:      0.521D-04-0.209D-04 0.480D-02 0.784D-02-0.281D-02-0.158D+00
 Coeff:     -0.976D-01 0.234D+00 0.101D+01
 Gap=     0.053 Goal=   None    Shift=    0.000
 Gap=     0.038 Goal=   None    Shift=    0.000
 RMSDP=1.08D-04 MaxDP=6.98D-03 DE=-2.38D-06 OVMax= 4.90D-03

 Cycle  10  Pass 1  IDiag  1:
 E= -1136.08321524540     Delta-E=       -0.000001317360 Rises=F Damp=F
 DIIS: error= 2.10D-05 at cycle  10 NSaved=  10.
 NSaved=10 IEnMin=10 EnMin= -1136.08321524540     IErMin=10 ErrMin= 2.10D-05
 ErrMax= 2.10D-05  0.00D+00 EMaxC= 1.00D-01 BMatC= 5.35D-08 BMatP= 1.35D-07
 IDIUse=1 WtCom= 1.00D+00 WtEn= 0.00D+00
 Coeff-Com: -0.253D-03 0.344D-03 0.299D-02 0.233D-02 0.695D-02 0.647D-01
 Coeff-Com: -0.315D+00-0.246D+00 0.347D+00 0.114D+01
 Coeff:     -0.253D-03 0.344D-03 0.299D-02 0.233D-02 0.695D-02 0.647D-01
 Coeff:     -0.315D+00-0.246D+00 0.347D+00 0.114D+01
 Gap=     0.053 Goal=   None    Shift=    0.000
 Gap=     0.038 Goal=   None    Shift=    0.000
 RMSDP=9.07D-05 MaxDP=4.88D-03 DE=-1.32D-06 OVMax= 4.94D-03

 Cycle  11  Pass 1  IDiag  1:
 E= -1136.08321597601     Delta-E=       -0.000000730604 Rises=F Damp=F
 DIIS: error= 1.01D-05 at cycle  11 NSaved=  11.
 NSaved=11 IEnMin=11 EnMin= -1136.08321597601     IErMin=11 ErrMin= 1.01D-05
 ErrMax= 1.01D-05  0.00D+00 EMaxC= 1.00D-01 BMatC= 1.56D-08 BMatP= 5.35D-08
 IDIUse=1 WtCom= 1.00D+00 WtEn= 0.00D+00
 Coeff-Com: -0.805D-04 0.978D-04 0.229D-03-0.657D-03 0.308D-02 0.471D-01
 Coeff-Com: -0.466D-01-0.110D+00-0.166D+00 0.263D+00 0.101D+01
 Coeff:     -0.805D-04 0.978D-04 0.229D-03-0.657D-03 0.308D-02 0.471D-01
 Coeff:     -0.466D-01-0.110D+00-0.166D+00 0.263D+00 0.101D+01
 Gap=     0.053 Goal=   None    Shift=    0.000
 Gap=     0.038 Goal=   None    Shift=    0.000
 RMSDP=3.72D-05 MaxDP=2.14D-03 DE=-7.31D-07 OVMax= 2.21D-03

 Cycle  12  Pass 1  IDiag  1:
 E= -1136.08321614341     Delta-E=       -0.000000167408 Rises=F Damp=F
 DIIS: error= 5.33D-06 at cycle  12 NSaved=  12.
 NSaved=12 IEnMin=12 EnMin= -1136.08321614341     IErMin=12 ErrMin= 5.33D-06
 ErrMax= 5.33D-06  0.00D+00 EMaxC= 1.00D-01 BMatC= 1.22D-08 BMatP= 1.56D-08
 IDIUse=1 WtCom= 1.00D+00 WtEn= 0.00D+00
 Coeff-Com:  0.407D-04-0.663D-04-0.109D-02-0.142D-02-0.548D-03 0.109D-01
 Coeff-Com:  0.916D-01 0.206D-01-0.265D+00-0.291D+00 0.738D+00 0.698D+00
 Coeff:      0.407D-04-0.663D-04-0.109D-02-0.142D-02-0.548D-03 0.109D-01
 Coeff:      0.916D-01 0.206D-01-0.265D+00-0.291D+00 0.738D+00 0.698D+00
 Gap=     0.053 Goal=   None    Shift=    0.000
 Gap=     0.038 Goal=   None    Shift=    0.000
 RMSDP=2.75D-05 MaxDP=1.71D-03 DE=-1.67D-07 OVMax= 1.36D-03

 Cycle  13  Pass 1  IDiag  1:
 E= -1136.08321621214     Delta-E=       -0.000000068727 Rises=F Damp=F
 DIIS: error= 3.03D-06 at cycle  13 NSaved=  13.
 NSaved=13 IEnMin=13 EnMin= -1136.08321621214     IErMin=13 ErrMin= 3.03D-06
 ErrMax= 3.03D-06  0.00D+00 EMaxC= 1.00D-01 BMatC= 1.98D-09 BMatP= 1.22D-08
 IDIUse=1 WtCom= 1.00D+00 WtEn= 0.00D+00
 Coeff-Com:  0.584D-04-0.753D-04-0.403D-03 0.784D-04-0.197D-02-0.220D-01
 Coeff-Com:  0.356D-01 0.588D-01 0.408D-01-0.147D+00-0.432D+00 0.217D-01
 Coeff-Com:  0.145D+01
 Coeff:      0.584D-04-0.753D-04-0.403D-03 0.784D-04-0.197D-02-0.220D-01
 Coeff:      0.356D-01 0.588D-01 0.408D-01-0.147D+00-0.432D+00 0.217D-01
 Coeff:      0.145D+01
 Gap=     0.053 Goal=   None    Shift=    0.000
 Gap=     0.038 Goal=   None    Shift=    0.000
 RMSDP=2.68D-05 MaxDP=1.74D-03 DE=-6.87D-08 OVMax= 1.07D-03

 Cycle  14  Pass 1  IDiag  1:
 E= -1136.08321623712     Delta-E=       -0.000000024981 Rises=F Damp=F
 DIIS: error= 9.34D-07 at cycle  14 NSaved=  14.
 NSaved=14 IEnMin=14 EnMin= -1136.08321623712     IErMin=14 ErrMin= 9.34D-07
 ErrMax= 9.34D-07  0.00D+00 EMaxC= 1.00D-01 BMatC= 2.08D-10 BMatP= 1.98D-09
 IDIUse=1 WtCom= 1.00D+00 WtEn= 0.00D+00
 Coeff-Com:  0.723D-06 0.152D-05 0.245D-03 0.235D-03 0.238D-03-0.267D-02
 Coeff-Com: -0.144D-01-0.109D-01 0.406D-01 0.948D-01-0.977D-01-0.145D+00
 Coeff-Com: -0.159D+00 0.129D+01
 Coeff:      0.723D-06 0.152D-05 0.245D-03 0.235D-03 0.238D-03-0.267D-02
 Coeff:     -0.144D-01-0.109D-01 0.406D-01 0.948D-01-0.977D-01-0.145D+00
 Coeff:     -0.159D+00 0.129D+01
 Gap=     0.053 Goal=   None    Shift=    0.000
 Gap=     0.038 Goal=   None    Shift=    0.000
 RMSDP=7.01D-06 MaxDP=5.05D-04 DE=-2.50D-08 OVMax= 1.30D-04

 Cycle  15  Pass 1  IDiag  1:
 E= -1136.08321623901     Delta-E=       -0.000000001892 Rises=F Damp=F
 DIIS: error= 3.08D-07 at cycle  15 NSaved=  15.
 NSaved=15 IEnMin=15 EnMin= -1136.08321623901     IErMin=15 ErrMin= 3.08D-07
 ErrMax= 3.08D-07  0.00D+00 EMaxC= 1.00D-01 BMatC= 3.06D-11 BMatP= 2.08D-10
 IDIUse=1 WtCom= 1.00D+00 WtEn= 0.00D+00
 Coeff-Com: -0.106D-04 0.143D-04 0.697D-04 0.201D-04 0.201D-03 0.248D-02
 Coeff-Com: -0.668D-02-0.698D-02 0.217D-02 0.219D-01 0.290D-01-0.213D-01
 Coeff-Com: -0.162D+00 0.173D+00 0.969D+00
 Coeff:     -0.106D-04 0.143D-04 0.697D-04 0.201D-04 0.201D-03 0.248D-02
 Coeff:     -0.668D-02-0.698D-02 0.217D-02 0.219D-01 0.290D-01-0.213D-01
 Coeff:     -0.162D+00 0.173D+00 0.969D+00
 Gap=     0.053 Goal=   None    Shift=    0.000
 Gap=     0.038 Goal=   None    Shift=    0.000
 RMSDP=2.03D-06 MaxDP=1.40D-04 DE=-1.89D-09 OVMax= 5.95D-05

 Cycle  16  Pass 1  IDiag  1:
 E= -1136.08321623917     Delta-E=       -0.000000000153 Rises=F Damp=F
 DIIS: error= 1.60D-07 at cycle  16 NSaved=  16.
 NSaved=16 IEnMin=16 EnMin= -1136.08321623917     IErMin=16 ErrMin= 1.60D-07
 ErrMax= 1.60D-07  0.00D+00 EMaxC= 1.00D-01 BMatC= 8.14D-12 BMatP= 3.06D-11
 IDIUse=1 WtCom= 1.00D+00 WtEn= 0.00D+00
 Coeff-Com: -0.195D-05 0.192D-05-0.290D-04-0.473D-04 0.373D-04 0.124D-02
 Coeff-Com:  0.229D-02 0.114D-02-0.107D-01-0.202D-01 0.400D-01 0.325D-01
 Coeff-Com: -0.173D-01-0.269D+00 0.226D+00 0.101D+01
 Coeff:     -0.195D-05 0.192D-05-0.290D-04-0.473D-04 0.373D-04 0.124D-02
 Coeff:      0.229D-02 0.114D-02-0.107D-01-0.202D-01 0.400D-01 0.325D-01
 Coeff:     -0.173D-01-0.269D+00 0.226D+00 0.101D+01
 Gap=     0.053 Goal=   None    Shift=    0.000
 Gap=     0.038 Goal=   None    Shift=    0.000
 RMSDP=8.72D-07 MaxDP=5.50D-05 DE=-1.53D-10 OVMax= 1.66D-05

 Cycle  17  Pass 1  IDiag  1:
 E= -1136.08321623920     Delta-E=       -0.000000000032 Rises=F Damp=F
 DIIS: error= 4.96D-08 at cycle  17 NSaved=  17.
 NSaved=17 IEnMin=17 EnMin= -1136.08321623920     IErMin=17 ErrMin= 4.96D-08
 ErrMax= 4.96D-08  0.00D+00 EMaxC= 1.00D-01 BMatC= 9.53D-13 BMatP= 8.14D-12
 IDIUse=1 WtCom= 1.00D+00 WtEn= 0.00D+00
 Coeff-Com:  0.312D-05-0.414D-05-0.861D-05 0.323D-05-0.517D-04-0.599D-03
 Coeff-Com:  0.991D-03 0.137D-02 0.526D-03-0.211D-02-0.789D-02 0.120D-02
 Coeff-Com:  0.343D-01-0.306D-01-0.153D+00-0.108D-02 0.116D+01
 Coeff:      0.312D-05-0.414D-05-0.861D-05 0.323D-05-0.517D-04-0.599D-03
 Coeff:      0.991D-03 0.137D-02 0.526D-03-0.211D-02-0.789D-02 0.120D-02
 Coeff:      0.343D-01-0.306D-01-0.153D+00-0.108D-02 0.116D+01
 Gap=     0.053 Goal=   None    Shift=    0.000
 Gap=     0.038 Goal=   None    Shift=    0.000
 RMSDP=3.51D-07 MaxDP=1.95D-05 DE=-3.23D-11 OVMax= 8.54D-06

 Cycle  18  Pass 1  IDiag  1:
 E= -1136.08321623921     Delta-E=       -0.000000000012 Rises=F Damp=F
 DIIS: error= 2.20D-08 at cycle  18 NSaved=  18.
 NSaved=18 IEnMin=18 EnMin= -1136.08321623921     IErMin=18 ErrMin= 2.20D-08
 ErrMax= 2.20D-08  0.00D+00 EMaxC= 1.00D-01 BMatC= 1.66D-13 BMatP= 9.53D-13
 IDIUse=1 WtCom= 1.00D+00 WtEn= 0.00D+00
 Coeff-Com: -0.502D-06 0.746D-06 0.144D-05 0.243D-05 0.124D-05-0.603D-04
 Coeff-Com: -0.341D-03-0.354D-03 0.652D-03 0.318D-02-0.367D-02-0.479D-02
 Coeff-Com: -0.334D-02 0.414D-01-0.108D-01-0.154D+00-0.139D+00 0.127D+01
 Coeff:     -0.502D-06 0.746D-06 0.144D-05 0.243D-05 0.124D-05-0.603D-04
 Coeff:     -0.341D-03-0.354D-03 0.652D-03 0.318D-02-0.367D-02-0.479D-02
 Coeff:     -0.334D-02 0.414D-01-0.108D-01-0.154D+00-0.139D+00 0.127D+01
 Gap=     0.053 Goal=   None    Shift=    0.000
 Gap=     0.038 Goal=   None    Shift=    0.000
 RMSDP=1.50D-07 MaxDP=1.40D-05 DE=-1.23D-11 OVMax= 5.09D-06

 Cycle  19  Pass 1  IDiag  1:
 E= -1136.08321623922     Delta-E=       -0.000000000013 Rises=F Damp=F
 DIIS: error= 1.03D-08 at cycle  19 NSaved=  19.
 NSaved=19 IEnMin=19 EnMin= -1136.08321623922     IErMin=19 ErrMin= 1.03D-08
 ErrMax= 1.03D-08  0.00D+00 EMaxC= 1.00D-01 BMatC= 2.96D-14 BMatP= 1.66D-13
 IDIUse=1 WtCom= 1.00D+00 WtEn= 0.00D+00
 Coeff-Com: -0.358D-06 0.467D-06 0.177D-05-0.919D-09 0.862D-05 0.913D-04
 Coeff-Com: -0.141D-03-0.146D-03 0.520D-04-0.475D-04 0.132D-02 0.380D-03
 Coeff-Com: -0.449D-02 0.170D-02 0.147D-01 0.265D-01-0.128D+00-0.260D+00
 Coeff-Com:  0.135D+01
 Coeff:     -0.358D-06 0.467D-06 0.177D-05-0.919D-09 0.862D-05 0.913D-04
 Coeff:     -0.141D-03-0.146D-03 0.520D-04-0.475D-04 0.132D-02 0.380D-03
 Coeff:     -0.449D-02 0.170D-02 0.147D-01 0.265D-01-0.128D+00-0.260D+00
 Coeff:      0.135D+01
 Gap=     0.053 Goal=   None    Shift=    0.000
 Gap=     0.038 Goal=   None    Shift=    0.000
 RMSDP=6.40D-08 MaxDP=3.99D-06 DE=-1.25D-11 OVMax= 1.62D-06

 Cycle  20  Pass 1  IDiag  1:
 E= -1136.08321623921     Delta-E=        0.000000000013 Rises=F Damp=F
 DIIS: error= 5.05D-09 at cycle  20 NSaved=  20.
 NSaved=20 IEnMin=19 EnMin= -1136.08321623922     IErMin=20 ErrMin= 5.05D-09
 ErrMax= 5.05D-09  0.00D+00 EMaxC= 1.00D-01 BMatC= 8.61D-15 BMatP= 2.96D-14
 IDIUse=1 WtCom= 1.00D+00 WtEn= 0.00D+00
 Large coefficients: NSaved= 20 BigCof=    0.00 CofMax=   10.00 Det=-8.14D-15
 Inversion failed.  Reducing to 19 matrices.
 Large coefficients: NSaved= 19 BigCof=    0.00 CofMax=   10.00 Det=-8.35D-15
 Inversion failed.  Reducing to 18 matrices.
 Large coefficients: NSaved= 18 BigCof=    0.00 CofMax=   10.00 Det=-8.45D-15
 Inversion failed.  Reducing to 17 matrices.
 Large coefficients: NSaved= 17 BigCof=    0.00 CofMax=   10.00 Det=-8.47D-15
 Inversion failed.  Reducing to 16 matrices.
 Large coefficients: NSaved= 16 BigCof=    0.00 CofMax=   10.00 Det=-8.96D-15
 Inversion failed.  Reducing to 15 matrices.
 Coeff-Com:  0.483D-05 0.822D-04 0.110D-03-0.156D-03-0.805D-03 0.834D-03
 Coeff-Com:  0.108D-02 0.444D-03-0.807D-02 0.483D-02 0.286D-01 0.205D-02
 Coeff-Com: -0.240D+00 0.161D+00 0.105D+01
 Coeff:      0.483D-05 0.822D-04 0.110D-03-0.156D-03-0.805D-03 0.834D-03
 Coeff:      0.108D-02 0.444D-03-0.807D-02 0.483D-02 0.286D-01 0.205D-02
 Coeff:     -0.240D+00 0.161D+00 0.105D+01
 Gap=     0.053 Goal=   None    Shift=    0.000
 Gap=     0.038 Goal=   None    Shift=    0.000
 RMSDP=2.86D-08 MaxDP=2.14D-06 DE= 1.25D-11 OVMax= 7.82D-07

 Cycle  21  Pass 1  IDiag  1:
 E= -1136.08321623921     Delta-E=       -0.000000000001 Rises=F Damp=F
 DIIS: error= 2.70D-09 at cycle  21 NSaved=  16.
 NSaved=16 IEnMin=14 EnMin= -1136.08321623922     IErMin=16 ErrMin= 2.70D-09
 ErrMax= 2.70D-09  0.00D+00 EMaxC= 1.00D-01 BMatC= 3.04D-15 BMatP= 8.61D-15
 IDIUse=1 WtCom= 1.00D+00 WtEn= 0.00D+00
 Large coefficients: NSaved= 16 BigCof=    0.00 CofMax=   10.00 Det=-4.53D-15
 Inversion failed.  Reducing to 15 matrices.
 Coeff-Com: -0.993D-05-0.231D-04-0.786D-05 0.148D-03-0.243D-04-0.753D-04
 Coeff-Com:  0.738D-04-0.452D-03-0.173D-03-0.163D-02 0.276D-01-0.356D-02
 Coeff-Com: -0.313D+00 0.210D+00 0.108D+01
 Coeff:     -0.993D-05-0.231D-04-0.786D-05 0.148D-03-0.243D-04-0.753D-04
 Coeff:      0.738D-04-0.452D-03-0.173D-03-0.163D-02 0.276D-01-0.356D-02
 Coeff:     -0.313D+00 0.210D+00 0.108D+01
 Gap=     0.053 Goal=   None    Shift=    0.000
 Gap=     0.038 Goal=   None    Shift=    0.000
 RMSDP=1.79D-08 MaxDP=1.14D-06 DE=-9.09D-13 OVMax= 4.96D-07

 Cycle  22  Pass 1  IDiag  1:
 E= -1136.08321623921     Delta-E=        0.000000000003 Rises=F Damp=F
 DIIS: error= 1.36D-09 at cycle  22 NSaved=  16.
 NSaved=16 IEnMin=13 EnMin= -1136.08321623922     IErMin=16 ErrMin= 1.36D-09
 ErrMax= 1.36D-09  0.00D+00 EMaxC= 1.00D-01 BMatC= 7.45D-16 BMatP= 3.04D-15
 IDIUse=1 WtCom= 1.00D+00 WtEn= 0.00D+00
 Large coefficients: NSaved= 16 BigCof=    0.00 CofMax=   10.00 Det=-9.50D-16
 Inversion failed.  Reducing to 15 matrices.
 Coeff-Com: -0.257D-04-0.129D-04 0.140D-03-0.117D-03-0.180D-03-0.150D-03
 Coeff-Com:  0.169D-02-0.172D-02-0.665D-02-0.353D-02 0.859D-01-0.826D-01
 Coeff-Com: -0.280D+00 0.428D-01 0.124D+01
 Coeff:     -0.257D-04-0.129D-04 0.140D-03-0.117D-03-0.180D-03-0.150D-03
 Coeff:      0.169D-02-0.172D-02-0.665D-02-0.353D-02 0.859D-01-0.826D-01
 Coeff:     -0.280D+00 0.428D-01 0.124D+01
 Gap=     0.053 Goal=   None    Shift=    0.000
 Gap=     0.038 Goal=   None    Shift=    0.000
 RMSDP=9.49D-09 MaxDP=9.23D-07 DE= 3.18D-12 OVMax= 2.74D-07

 SCF Done:  E(UB3LYP) =  -1136.08321624     A.U. after   22 cycles
            NFock= 22  Conv=0.95D-08     -V/T= 2.0023
 <Sx>= 0.0000 <Sy>= 0.0000 <Sz>= 0.5000 <S**2>= 0.7602 S= 0.5051
 <L.S>= 0.000000000000E+00
 KE= 1.133449691889D+03 PE=-3.533738276911D+03 EE= 8.620783514195D+02
 Annihilation of the first spin contaminant:
 S**2 before annihilation     0.7602,   after     0.7501
 Leave Link  502 at Mon Nov 13 17:01:12 2023, MaxMem=  1879048192 cpu:             214.6 elap:              18.2
 (Enter /home/sekinelabo/g16/l601.exe)
 Copying SCF densities to generalized density rwf, IOpCl= 1 IROHF=0.

 **********************************************************************

            Population analysis using the SCF Density.

 **********************************************************************

 Orbital symmetries:
 Alpha Orbitals:
       Occupied  (A) (A) (A) (A) (A) (A) (A) (A) (A) (A) (A) (A)
                 (A) (A) (A) (A) (A) (A) (A) (A) (A) (A) (A) (A)
                 (A) (A) (A) (A) (A) (A) (A) (A) (A) (A) (A) (A)
                 (A) (A) (A)
       Virtual   (A) (A) (A) (A) (A) (A) (A) (A) (A) (A) (A) (A)
                 (A) (A) (A) (A) (A) (A) (A) (A) (A) (A) (A) (A)
                 (A) (A) (A) (A) (A) (A) (A) (A) (A) (A) (A) (A)
                 (A) (A) (A) (A) (A) (A) (A) (A) (A) (A) (A) (A)
                 (A) (A) (A) (A) (A) (A) (A) (A) (A) (A) (A) (A)
                 (A) (A) (A) (A) (A) (A) (A) (A) (A) (A) (A) (A)
                 (A) (A) (A) (A) (A) (A) (A) (A) (A) (A) (A) (A)
                 (A) (A) (A) (A) (A) (A) (A) (A) (A) (A) (A) (A)
                 (A) (A) (A) (A) (A) (A) (A) (A) (A) (A) (A) (A)
                 (A) (A) (A) (A) (A) (A) (A) (A) (A) (A) (A) (A)
                 (A) (A) (A) (A) (A) (A) (A) (A) (A) (A) (A) (A)
                 (A) (A) (A) (A) (A) (A) (A) (A) (A) (A) (A) (A)
                 (A) (A) (A) (A) (A) (A) (A) (A) (A) (A) (A) (A)
                 (A) (A) (A) (A) (A) (A) (A) (A) (A) (A) (A) (A)
                 (A) (A)
 Beta  Orbitals:
       Occupied  (A) (A) (A) (A) (A) (A) (A) (A) (A) (A) (A) (A)
                 (A) (A) (A) (A) (A) (A) (A) (A) (A) (A) (A) (A)
                 (A) (A) (A) (A) (A) (A) (A) (A) (A) (A) (A) (A)
                 (A) (A)
       Virtual   (A) (A) (A) (A) (A) (A) (A) (A) (A) (A) (A) (A)
                 (A) (A) (A) (A) (A) (A) (A) (A) (A) (A) (A) (A)
                 (A) (A) (A) (A) (A) (A) (A) (A) (A) (A) (A) (A)
                 (A) (A) (A) (A) (A) (A) (A) (A) (A) (A) (A) (A)
                 (A) (A) (A) (A) (A) (A) (A) (A) (A) (A) (A) (A)
                 (A) (A) (A) (A) (A) (A) (A) (A) (A) (A) (A) (A)
                 (A) (A) (A) (A) (A) (A) (A) (A) (A) (A) (A) (A)
                 (A) (A) (A) (A) (A) (A) (A) (A) (A) (A) (A) (A)
                 (A) (A) (A) (A) (A) (A) (A) (A) (A) (A) (A) (A)
                 (A) (A) (A) (A) (A) (A) (A) (A) (A) (A) (A) (A)
                 (A) (A) (A) (A) (A) (A) (A) (A) (A) (A) (A) (A)
                 (A) (A) (A) (A) (A) (A) (A) (A) (A) (A) (A) (A)
                 (A) (A) (A) (A) (A) (A) (A) (A) (A) (A) (A) (A)
                 (A) (A) (A) (A) (A) (A) (A) (A) (A) (A) (A) (A)
                 (A) (A) (A)
 The electronic state is 2-A.
 Alpha  occ. eigenvalues --  -38.45212 -38.44355 -38.44087 -38.43802 -38.43444
 Alpha  occ. eigenvalues --  -38.43150 -38.42978  -2.21121  -2.20577  -2.20262
 Alpha  occ. eigenvalues --   -2.19924  -2.19525  -2.19322  -2.19150  -1.14847
 Alpha  occ. eigenvalues --   -1.14803  -1.14726  -1.14391  -1.14319  -1.14226
 Alpha  occ. eigenvalues --   -1.14095  -1.13998  -1.13873  -1.13561  -1.13508
 Alpha  occ. eigenvalues --   -1.13469  -1.13213  -1.13171  -1.13124  -1.13053
 Alpha  occ. eigenvalues --   -1.12960  -1.12911  -1.12831  -1.12798  -1.12710
 Alpha  occ. eigenvalues --   -0.21264  -0.14444  -0.12243  -0.11804
 Alpha virt. eigenvalues --   -0.06472  -0.04223  -0.03864  -0.03476  -0.02615
 Alpha virt. eigenvalues --   -0.02596  -0.01911  -0.00571  -0.00177   0.00204
 Alpha virt. eigenvalues --    0.00509   0.00637   0.00829   0.00959   0.01040
 Alpha virt. eigenvalues --    0.01282   0.01337   0.01460   0.01464   0.01613
 Alpha virt. eigenvalues --    0.01648   0.01771   0.01856   0.01947   0.02100
 Alpha virt. eigenvalues --    0.02333   0.02588   0.02743   0.02825   0.02942
 Alpha virt. eigenvalues --    0.03024   0.03030   0.03074   0.03286   0.03410
 Alpha virt. eigenvalues --    0.03526   0.03723   0.03879   0.04053   0.04115
 Alpha virt. eigenvalues --    0.04510   0.04794   0.04961   0.05325   0.05528
 Alpha virt. eigenvalues --    0.05708   0.05831   0.05945   0.06048   0.06250
 Alpha virt. eigenvalues --    0.06840   0.07052   0.07112   0.07153   0.07222
 Alpha virt. eigenvalues --    0.08573   0.08943   0.09179   0.09682   0.09918
 Alpha virt. eigenvalues --    0.10353   0.10461   0.11341   0.12501   0.12768
 Alpha virt. eigenvalues --    0.13614   0.13840   0.14089   0.14273   0.14454
 Alpha virt. eigenvalues --    0.14822   0.15104   0.15217   0.15685   0.16128
 Alpha virt. eigenvalues --    0.16803   0.17908   0.18008   0.20370   0.22311
 Alpha virt. eigenvalues --    0.23221   0.27281   0.27393   0.28043   0.30661
 Alpha virt. eigenvalues --    0.31028   0.32822   0.33542   0.34392   0.35726
 Alpha virt. eigenvalues --    0.35832   0.37301   0.37855   0.38248   0.40010
 Alpha virt. eigenvalues --    0.40423   0.41080   0.42455   0.43638   0.44869
 Alpha virt. eigenvalues --    0.44916   0.44963   0.46185   0.46896   0.47253
 Alpha virt. eigenvalues --    0.47614   0.47939   0.48340   0.48721   0.49468
 Alpha virt. eigenvalues --    0.49816   0.50172   0.50636   0.51559   0.52927
 Alpha virt. eigenvalues --    0.54500   0.54884   0.55241   0.56085   0.56836
 Alpha virt. eigenvalues --    0.58187   0.60695   0.64972   0.66305   0.66966
 Alpha virt. eigenvalues --    0.69126   0.69608   0.73330   0.74811   0.76097
 Alpha virt. eigenvalues --    0.80085   0.80826   0.82182   0.84980   0.85838
 Alpha virt. eigenvalues --    2.12999   2.19995   2.26738   2.27739   2.30377
 Alpha virt. eigenvalues --    2.33094   2.34969   4.40761   4.41217   4.41585
 Alpha virt. eigenvalues --    4.41808   4.43202   4.44083   4.45473   4.46463
 Alpha virt. eigenvalues --    4.48655   4.51838   4.53853   4.58651   4.67201
 Alpha virt. eigenvalues --    4.69424   4.71068   4.72449   4.75761   4.78985
 Alpha virt. eigenvalues --    4.81074   4.82044   4.88718  96.34940  96.43931
 Alpha virt. eigenvalues --   96.54984  96.56063  96.59500  96.62469  96.65717
  Beta  occ. eigenvalues --  -38.45218 -38.44272 -38.44004 -38.43775 -38.43428
  Beta  occ. eigenvalues --  -38.43124 -38.42958  -2.21134  -2.20429  -2.20112
  Beta  occ. eigenvalues --   -2.19880  -2.19502  -2.19282  -2.19121  -1.14856
  Beta  occ. eigenvalues --   -1.14813  -1.14725  -1.14309  -1.14203  -1.14116
  Beta  occ. eigenvalues --   -1.14014  -1.13892  -1.13756  -1.13504  -1.13478
  Beta  occ. eigenvalues --   -1.13403  -1.13199  -1.13119  -1.13095  -1.13031
  Beta  occ. eigenvalues --   -1.12896  -1.12873  -1.12817  -1.12720  -1.12694
  Beta  occ. eigenvalues --   -0.20404  -0.14200  -0.11596
  Beta virt. eigenvalues --   -0.07835  -0.06337  -0.04216  -0.03291  -0.03060
  Beta virt. eigenvalues --   -0.01932  -0.01884  -0.01484  -0.00500   0.00012
  Beta virt. eigenvalues --    0.00245   0.00531   0.00622   0.00972   0.01028
  Beta virt. eigenvalues --    0.01072   0.01320   0.01429   0.01536   0.01589
  Beta virt. eigenvalues --    0.01678   0.01786   0.01821   0.01938   0.02063
  Beta virt. eigenvalues --    0.02187   0.02351   0.02583   0.02815   0.02885
  Beta virt. eigenvalues --    0.02979   0.03039   0.03098   0.03112   0.03314
  Beta virt. eigenvalues --    0.03454   0.03653   0.03765   0.04072   0.04291
  Beta virt. eigenvalues --    0.04330   0.04594   0.04864   0.05066   0.05402
  Beta virt. eigenvalues --    0.05621   0.05854   0.05995   0.06119   0.06233
  Beta virt. eigenvalues --    0.06400   0.06885   0.07100   0.07154   0.07208
  Beta virt. eigenvalues --    0.07458   0.08796   0.09007   0.09240   0.09897
  Beta virt. eigenvalues --    0.10269   0.10692   0.10718   0.11569   0.12587
  Beta virt. eigenvalues --    0.12865   0.13885   0.14005   0.14236   0.14554
  Beta virt. eigenvalues --    0.14828   0.15044   0.15348   0.15443   0.15937
  Beta virt. eigenvalues --    0.16234   0.17012   0.18162   0.18268   0.20547
  Beta virt. eigenvalues --    0.22943   0.23514   0.27687   0.28056   0.28481
  Beta virt. eigenvalues --    0.30832   0.31135   0.33103   0.33769   0.34604
  Beta virt. eigenvalues --    0.35975   0.36384   0.37551   0.38214   0.38559
  Beta virt. eigenvalues --    0.40194   0.40577   0.41333   0.42940   0.43780
  Beta virt. eigenvalues --    0.44841   0.45104   0.45208   0.46191   0.47175
  Beta virt. eigenvalues --    0.47528   0.47833   0.48078   0.48574   0.48738
  Beta virt. eigenvalues --    0.49906   0.50001   0.50384   0.50767   0.51656
  Beta virt. eigenvalues --    0.53411   0.54809   0.54974   0.55431   0.56392
  Beta virt. eigenvalues --    0.57180   0.58473   0.61075   0.65049   0.66374
  Beta virt. eigenvalues --    0.67073   0.69445   0.69851   0.73372   0.75045
  Beta virt. eigenvalues --    0.76155   0.80334   0.81133   0.82410   0.85273
  Beta virt. eigenvalues --    0.85917   2.12995   2.20082   2.26893   2.27891
  Beta virt. eigenvalues --    2.30524   2.33283   2.35108   4.40783   4.41268
  Beta virt. eigenvalues --    4.41704   4.41887   4.43301   4.44148   4.45507
  Beta virt. eigenvalues --    4.46507   4.48721   4.51902   4.53971   4.58686
  Beta virt. eigenvalues --    4.67284   4.69534   4.71094   4.72491   4.75839
  Beta virt. eigenvalues --    4.79058   4.81177   4.82101   4.88749  96.34946
  Beta virt. eigenvalues --   96.43963  96.55022  96.56116  96.59560  96.62540
  Beta virt. eigenvalues --   96.65773
          Condensed to atoms (all electrons):
               1          2          3          4          5          6
     1  Na  12.659670  -1.433586  -1.539281   0.088682   0.049210   0.990211
     2  Na  -1.433586  13.647948   0.706791  -0.373142   0.262726  -1.852918
     3  Na  -1.539281   0.706791  14.202998  -0.233930   0.616985  -2.184804
     4  Na   0.088682  -0.373142  -0.233930  12.468056  -1.174384   0.564958
     5  Na   0.049210   0.262726   0.616985  -1.174384  12.236108  -0.503924
     6  Na   0.990211  -1.852918  -2.184804   0.564958  -0.503924  13.544627
     7  Na   0.226969  -0.094893  -0.906240  -0.172384  -0.385785   0.427709
               7
     1  Na   0.226969
     2  Na  -0.094893
     3  Na  -0.906240
     4  Na  -0.172384
     5  Na  -0.385785
     6  Na   0.427709
     7  Na  12.082655
          Atomic-Atomic Spin Densities.
               1          2          3          4          5          6
     1  Na  -0.037936   0.308293   0.173360  -0.301168   0.305213  -0.326154
     2  Na   0.308293  -0.419500  -0.154995  -0.158869   0.145922   0.157842
     3  Na   0.173360  -0.154995  -0.620229   0.531811  -0.549332   0.579403
     4  Na  -0.301168  -0.158869   0.531811   0.868766  -0.523959  -0.041225
     5  Na   0.305213   0.145922  -0.549332  -0.523959   0.601509   0.261026
     6  Na  -0.326154   0.157842   0.579403  -0.041225   0.261026  -0.200840
     7  Na   0.096692   0.096960   0.067856   0.060959   0.106007  -0.277517
               7
     1  Na   0.096692
     2  Na   0.096960
     3  Na   0.067856
     4  Na   0.060959
     5  Na   0.106007
     6  Na  -0.277517
     7  Na  -0.308020
 Mulliken charges and spin densities:
               1          2
     1  Na  -0.041875   0.218300
     2  Na   0.137073  -0.024347
     3  Na   0.337483   0.027874
     4  Na  -0.167856   0.436315
     5  Na  -0.100936   0.346386
     6  Na   0.014142   0.152534
     7  Na  -0.178030  -0.157063
 Sum of Mulliken charges =  -0.00000   1.00000
 Mulliken charges and spin densities with hydrogens summed into heavy atoms:
               1          2
     1  Na  -0.041875   0.218300
     2  Na   0.137073  -0.024347
     3  Na   0.337483   0.027874
     4  Na  -0.167856   0.436315
     5  Na  -0.100936   0.346386
     6  Na   0.014142   0.152534
     7  Na  -0.178030  -0.157063
 Electronic spatial extent (au):  <R**2>=           1718.8591
 Charge=             -0.0000 electrons
 Dipole moment (field-independent basis, Debye):
    X=              0.6886    Y=              0.0258    Z=              0.0518  Tot=              0.6910
 Quadrupole moment (field-independent basis, Debye-Ang):
   XX=            -50.3525   YY=            -76.1176   ZZ=            -68.2828
   XY=              0.0151   XZ=             -0.6561   YZ=              1.9123
 Traceless Quadrupole moment (field-independent basis, Debye-Ang):
   XX=             14.5652   YY=            -11.2000   ZZ=             -3.3652
   XY=              0.0151   XZ=             -0.6561   YZ=              1.9123
 Octapole moment (field-independent basis, Debye-Ang**2):
  XXX=             39.4290  YYY=              0.6744  ZZZ=              1.5976  XYY=             -3.1899
  XXY=              1.4264  XXZ=             -2.4949  XZZ=             -3.1114  YZZ=             -0.7444
  YYZ=              0.8654  XYZ=             -2.2576
 Hexadecapole moment (field-independent basis, Debye-Ang**3):
 XXXX=          -1176.2946 YYYY=           -976.8116 ZZZZ=           -636.8119 XXXY=              2.1189
 XXXZ=            -10.5638 YYYX=             -9.8337 YYYZ=             29.9252 ZZZX=            -11.4811
 ZZZY=            -12.1761 XXYY=           -379.8252 XXZZ=           -378.5514 YYZZ=           -278.2105
 XXYZ=             23.4260 YYXZ=              4.8219 ZZXY=              8.1641
 N-N= 4.021270173641D+02 E-N=-3.533738277142D+03  KE= 1.133449691889D+03
                          Isotropic Fermi Contact Couplings
        Atom                 a.u.       MegaHertz       Gauss      10(-4) cm-1
     1  Na(23)             0.03542      41.90744      14.95362      13.97882
     2  Na(23)             0.03971      46.98302      16.76471      15.67185
     3  Na(23)            -0.00181      -2.13739      -0.76267      -0.71296
     4  Na(23)             0.32334     382.52157     136.49321     127.59546
     5  Na(23)             0.33486     396.15345     141.35740     132.14257
     6  Na(23)             0.00176       2.07672       0.74102       0.69272
     7  Na(23)            -0.04168     -49.30670     -17.59386     -16.44695
 --------------------------------------------------------
       Center         ----  Spin Dipole Couplings  ----
                      3XX-RR        3YY-RR        3ZZ-RR
 --------------------------------------------------------
     1   Atom       -0.028013     -0.023135      0.051148
     2   Atom       -0.021980     -0.026537      0.048517
     3   Atom       -0.025032     -0.030292      0.055323
     4   Atom        0.001883      0.015204     -0.017088
     5   Atom        0.000366      0.018959     -0.019325
     6   Atom       -0.037202     -0.029346      0.066548
     7   Atom       -0.001073     -0.009515      0.010588
 --------------------------------------------------------
                        XY            XZ            YZ
 --------------------------------------------------------
     1   Atom        0.005003     -0.025834     -0.016677
     2   Atom        0.003130     -0.025421     -0.021513
     3   Atom       -0.001455      0.018655     -0.006305
     4   Atom        0.005460      0.006644      0.010844
     5   Atom        0.003055      0.000276      0.006775
     6   Atom       -0.000545      0.005640     -0.002367
     7   Atom        0.000299      0.002015      0.001477
 --------------------------------------------------------


 ---------------------------------------------------------------------------------
              Anisotropic Spin Dipole Couplings in Principal Axis System
 ---------------------------------------------------------------------------------

       Atom             a.u.   MegaHertz   Gauss  10(-4) cm-1        Axes

              Baa    -0.0357    -5.041    -1.799    -1.681  0.9587 -0.0043  0.2844
     1 Na(23) Bbb    -0.0267    -3.768    -1.344    -1.257 -0.0527  0.9799  0.1925
              Bcc     0.0624     8.809     3.143     2.938 -0.2795 -0.1995  0.9392
 
              Baa    -0.0346    -4.883    -1.742    -1.629  0.5427  0.7578  0.3622
     2 Na(23) Bbb    -0.0274    -3.862    -1.378    -1.288  0.7884 -0.6083  0.0917
              Bcc     0.0619     8.745     3.121     2.917 -0.2898 -0.2358  0.9276
 
              Baa    -0.0308    -4.343    -1.550    -1.449  0.0525  0.9967  0.0616
     3 Na(23) Bbb    -0.0291    -4.116    -1.469    -1.373  0.9752 -0.0379 -0.2182
              Bcc     0.0599     8.460     3.019     2.822  0.2151 -0.0716  0.9740
 
              Baa    -0.0214    -3.025    -1.079    -1.009 -0.2113 -0.2484  0.9453
     4 Na(23) Bbb     0.0002     0.027     0.009     0.009  0.9105 -0.4018  0.0979
              Bcc     0.0212     2.999     1.070     1.000  0.3555  0.8814  0.3111
 
              Baa    -0.0205    -2.894    -1.033    -0.965  0.0119 -0.1701  0.9853
     5 Na(23) Bbb    -0.0001    -0.013    -0.005    -0.004  0.9887 -0.1454 -0.0370
              Bcc     0.0206     2.907     1.037     0.970  0.1495  0.9746  0.1665
 
              Baa    -0.0375    -5.300    -1.891    -1.768  0.9973  0.0511 -0.0529
     6 Na(23) Bbb    -0.0294    -4.149    -1.481    -1.384 -0.0497  0.9984  0.0276
              Bcc     0.0669     9.449     3.372     3.152  0.0542 -0.0249  0.9982
 
              Baa    -0.0096    -1.359    -0.485    -0.453 -0.0182  0.9973 -0.0710
     7 Na(23) Bbb    -0.0014    -0.199    -0.071    -0.066  0.9861  0.0061 -0.1663
              Bcc     0.0110     1.559     0.556     0.520  0.1654  0.0731  0.9835
 

 ---------------------------------------------------------------------------------

 No NMR shielding tensors so no spin-rotation constants.
 Leave Link  601 at Mon Nov 13 17:01:12 2023, MaxMem=  1879048192 cpu:               2.7 elap:               0.2
 (Enter /home/sekinelabo/g16/l701.exe)
 ... and contract with generalized density number  0.
 Compute integral first derivatives.
 Leave Link  701 at Mon Nov 13 17:01:12 2023, MaxMem=  1879048192 cpu:               1.7 elap:               0.1
 (Enter /home/sekinelabo/g16/l702.exe)
 L702 exits ... SP integral derivatives will be done elsewhere.
 Leave Link  702 at Mon Nov 13 17:01:13 2023, MaxMem=  1879048192 cpu:               0.5 elap:               0.0
 (Enter /home/sekinelabo/g16/l703.exe)
 Integral derivatives from FoFJK, PRISM(SPDF).
 Compute integral first derivatives, UseDBF=F ICtDFT=           0.
 Calling FoFJK, ICntrl=      2127 FMM=F ISym2X=0 I1Cent= 0 IOpClX= 1 NMat=1 NMatS=1 NMatT=0.
 FoFJK:  IHMeth= 1 ICntrl=    2127 DoSepK=F KAlg= 0 I1Cent=           0 FoldK=F
 IRaf=         0 NMat=       1 IRICut=       1 DoRegI=T DoRafI=F ISym2E= 0 IDoP0=0 IntGTp=1.
 FoFCou: FMM=F IPFlag=           0 FMFlag=      100000 FMFlg1=         800
         NFxFlg=           0 DoJE=F BraDBF=F KetDBF=F FulRan=T
         wScrn=  0.000000 ICntrl=      2127 IOpCl=  1 I1Cent=           0 NGrid=           0
         NMat0=    1 NMatS0=      1 NMatT0=    0 NMatD0=    1 NMtDS0=    0 NMtDT0=    0
 Symmetry not used in FoFCou.
 Leave Link  703 at Mon Nov 13 17:01:15 2023, MaxMem=  1879048192 cpu:              37.6 elap:               2.4
 (Enter /home/sekinelabo/g16/l716.exe)
 Dipole        = 2.70914387D-01 1.01689845D-02 2.03878515D-02
 ***** Axes restored to original set *****
 -------------------------------------------------------------------
 Center     Atomic                   Forces (Hartrees/Bohr)
 Number     Number              X              Y              Z
 -------------------------------------------------------------------
      1       11          -0.004904534    0.018702032   -0.009113077
      2       11           0.014883753   -0.018600293    0.006580311
      3       11           0.013057124    0.016377662   -0.005703813
      4       11          -0.007003314    0.006080069    0.024235033
      5       11           0.001808960   -0.003163568   -0.022620001
      6       11          -0.006792072   -0.020480133    0.004483903
      7       11          -0.011049918    0.001084230    0.002137643
 -------------------------------------------------------------------
 Cartesian Forces:  Max     0.024235033 RMS     0.012631651
 Z-matrix is all fixed cartesians, so copy forces.
 Force constants in Cartesian coordinates: 
                1             2             3             4             5 
      1  0.179479D+00
      2 -0.185355D-01  0.212567D+00
      3  0.143475D-01 -0.268566D-01  0.145856D+00
      4  0.160358D-02  0.164430D-01 -0.509836D-02  0.139719D+00
      5  0.171362D-01  0.246426D-02  0.610509D-02 -0.393554D-01  0.149653D+00
      6 -0.513124D-02  0.620914D-02  0.107657D-01  0.208061D-01 -0.967610D-02
      7 -0.457804D-01 -0.243229D-01  0.367918D-02 -0.182181D-01  0.238985D-01
      8  0.267639D-01 -0.369933D-01  0.620488D-02 -0.234851D-01 -0.418700D-01
      9 -0.111364D-01  0.267043D-03 -0.201647D-01  0.255963D-02  0.125619D-01
     10 -0.372955D-01 -0.291198D-02 -0.279311D-01 -0.450766D-01  0.209175D-01
     11  0.100609D-01 -0.377863D-01  0.341282D-01  0.113976D-01 -0.507386D-01
     12  0.180676D-02 -0.930243D-02 -0.624066D-01 -0.830308D-02  0.467376D-02
     13 -0.332446D-01  0.707145D-02  0.199298D-01 -0.341054D-01  0.359397D-03
     14  0.585936D-02 -0.437232D-01 -0.323435D-01  0.100025D-01 -0.319430D-01
     15 -0.107611D-01  0.101576D-01 -0.299810D-01  0.810824D-03 -0.995680D-02
     16 -0.254806D-01  0.114574D-01 -0.358555D-02 -0.433649D-01 -0.279792D-01
     17 -0.145139D-01 -0.505831D-01  0.359180D-02  0.248188D-01 -0.357681D-01
     18  0.106651D-02  0.136889D-01 -0.156192D-01 -0.103756D-01 -0.617388D-02
     19 -0.392815D-01  0.107985D-01 -0.134139D-02 -0.557734D-03  0.502298D-02
     20 -0.267709D-01 -0.459453D-01  0.917003D-02  0.178542D-03  0.820275D-02
     21  0.980797D-02  0.583636D-02 -0.284500D-01 -0.399450D-03  0.246599D-02
                6             7             8             9            10 
      6  0.113663D+00
      7 -0.877484D-02  0.133143D+00
      8  0.643774D-02  0.387466D-01  0.137753D+00
      9 -0.119376D-01 -0.109502D-01 -0.825066D-02  0.982313D-01
     10  0.285732D-01 -0.406008D-01 -0.288654D-02  0.388077D-01  0.158294D+00
     11 -0.363632D-01 -0.185174D-01 -0.299313D-01  0.298264D-01 -0.362869D-02
     12 -0.368032D-01  0.167724D-02 -0.105302D-01 -0.554234D-01 -0.111838D-01
     13 -0.369448D-01 -0.290501D-01 -0.188762D-01 -0.227142D-01  0.395423D-03
     14  0.287663D-01 -0.172007D-02 -0.370757D-01 -0.343536D-01  0.174948D-02
     15 -0.619970D-01  0.110628D-01  0.516635D-02 -0.305383D-01  0.393929D-02
     16  0.711726D-03  0.861613D-03 -0.162085D-01  0.135286D-02 -0.298365D-01
     17  0.383587D-02 -0.174763D-01  0.484615D-03  0.133568D-02 -0.958473D-02
     18 -0.180031D-01  0.422736D-02  0.194871D-02  0.138923D-01 -0.207644D-01
     19  0.759872D-03 -0.355235D-03 -0.405419D-02  0.208056D-02 -0.587991D-02
     20  0.790249D-03 -0.608379D-03  0.763296D-02 -0.138687D-02 -0.365508D-02
     21  0.431223D-02 -0.921530D-03 -0.976851D-03  0.594042D-02 -0.114409D-01
               11            12            13            14            15 
     11  0.158172D+00
     12  0.170540D-01  0.221732D+00
     13  0.163794D-02  0.352831D-02  0.144350D+00
     14 -0.102073D-02 -0.887875D-02  0.197250D-02  0.145282D+00
     15 -0.948506D-02 -0.321285D-01 -0.783799D-02  0.163522D-01  0.205251D+00
     16 -0.179888D-02  0.121101D-01 -0.449531D-01 -0.181529D-01  0.188357D-02
     17 -0.444147D-01  0.765847D-02  0.380449D-02 -0.405744D-01 -0.113336D-01
     18 -0.339211D-01 -0.386057D-01  0.343476D-01  0.329688D-01 -0.552647D-01
     19  0.848617D-03  0.364435D-03 -0.339238D-02  0.289211D-03  0.902648D-03
     20  0.571986D-02 -0.674852D-03  0.403043D-02  0.905505D-02 -0.900599D-03
     21 -0.123924D-02  0.363561D-02  0.969141D-02 -0.251154D-02  0.465896D-02
               16            17            18            19            20 
     16  0.181067D+00
     17  0.243100D-01  0.221264D+00
     18 -0.976024D-02 -0.444212D-02  0.138102D+00
     19 -0.382930D-01 -0.113584D-01  0.125888D-02  0.877597D-01
     20  0.283721D-01 -0.504079D-01 -0.406931D-02 -0.154670D-02  0.657426D-01
     21 -0.271249D-02 -0.646079D-03 -0.245014D-01 -0.402501D-02 -0.292865D-02
               21 
     21  0.344043D-01
 Leave Link  716 at Mon Nov 13 17:01:15 2023, MaxMem=  1879048192 cpu:               0.4 elap:               0.0
 (Enter /home/sekinelabo/g16/l103.exe)

 GradGradGradGradGradGradGradGradGradGradGradGradGradGradGradGradGradGrad
 Berny optimization.
 Search for a local minimum.
 Step number   1 out of a maximum of    2
 All quantities printed in internal units (Hartrees-Bohrs-Radians)
 Second derivative matrix not updated -- first step.
 ITU=  0
     Eigenvalues ---    0.07305   0.08298   0.09523   0.15450   0.16655
     Eigenvalues ---    0.18810   0.21910   0.22267   0.23281   0.23383
     Eigenvalues ---    0.24857   0.25863   0.27708   0.29071   0.30387
 Quadratic step=3.721D-01 exceeds max=3.000D-01 adjusted using Lamda=-2.939D-02.
 Angle between NR and scaled steps=   4.74 degrees.
 Angle between quadratic step and forces=  19.24 degrees.
 Linear search not attempted -- first point.
 B after Tr=     0.000000   -0.000000    0.000000
         Rot=    1.000000    0.000000    0.000000   -0.000000 Ang=   0.00 deg.
 Variable       Old X    -DE/DX   Delta X   Delta X   Delta X     New X
                                 (Linear)    (Quad)   (Total)
    X1        4.67858  -0.00490   0.00000  -0.03648  -0.03648   4.64210
    Y1        5.71863   0.01870   0.00000   0.08281   0.08281   5.80144
    Z1        2.40537  -0.00911   0.00000  -0.03509  -0.03509   2.37028
    X2       10.36444   0.01488   0.00000   0.08961   0.08961  10.45404
    Y2        0.22146  -0.01860   0.00000  -0.09312  -0.09312   0.12834
    Z2        4.46095   0.00658   0.00000   0.03218   0.03218   4.49313
    X3       10.51038   0.01306   0.00000   0.08825   0.08825  10.59862
    Y3        5.92495   0.01638   0.00000   0.09377   0.09377   6.01872
    Z3        2.91628  -0.00570   0.00000  -0.01830  -0.01830   2.89797
    X4        7.35156  -0.00700   0.00000  -0.00229  -0.00229   7.34927
    Y4        3.93075   0.00608   0.00000   0.02709   0.02709   3.95784
    Z4        6.59499   0.02424   0.00000   0.09120   0.09120   6.68619
    X5        8.02005   0.00181   0.00000   0.03068   0.03068   8.05073
    Y5        1.63755  -0.00316   0.00000  -0.02743  -0.02743   1.61012
    Z5        0.00000  -0.02262   0.00000  -0.09460  -0.09460  -0.09460
    X6        4.51650  -0.00679   0.00000  -0.04211  -0.04211   4.47439
    Y6        0.00000  -0.02048   0.00000  -0.09045  -0.09045  -0.09045
    Z6        3.58054   0.00448   0.00000   0.01280   0.01280   3.59334
    X7        0.00000  -0.01105   0.00000  -0.12765  -0.12765  -0.12765
    Y7        3.10910   0.00108   0.00000   0.00734   0.00734   3.11644
    Z7        3.57907   0.00214   0.00000   0.01181   0.01181   3.59088
         Item               Value     Threshold  Converged?
 Maximum Force            0.024235     0.000450     NO 
 RMS     Force            0.012632     0.000300     NO 
 Maximum Displacement     0.127647     0.001800     NO 
 RMS     Displacement     0.065602     0.001200     NO 
 Predicted change in Energy=-9.543078D-03
 GradGradGradGradGradGradGradGradGradGradGradGradGradGradGradGradGradGrad

 Leave Link  103 at Mon Nov 13 17:01:15 2023, MaxMem=  1879048192 cpu:               0.3 elap:               0.0
 (Enter /home/sekinelabo/g16/l9999.exe)
 1\1\GINC-SEKINELABO-XA7R-R37\Force\UB3LYP\6-311+G(d)\Na7(2)\SEKINELABO
 \13-Nov-2023\0\\#P B3LYP/6-311+g(d) force\\Gaussian input prepared by 
 ASE\\0,2\Na,2.4757981642,3.0261675368,1.2728669334\Na,5.4846239401,0.1
 171905216,2.3606322881\Na,5.5618512935,3.1353505465,1.5432265428\Na,3.
 8902786102,2.0800649352,3.4899170657\Na,4.2440298022,0.8665561496,0.\N
 a,2.3900299774,0.,1.894741752\Na,0.,1.6452667299,1.89396037\\Version=E
 S64L-G16RevB.01\State=2-A\HF=-1136.0832162\S2=0.760188\S2-1=0.\S2A=0.7
 50068\RMSD=9.487e-09\RMSF=1.263e-02\Dipole=-0.2709144,0.010169,-0.0203
 879\Quadrupole=10.8288334,-8.3269025,-2.5019308,-0.0112124,-0.4878112,
 -1.4217282\PG=C01 [X(Na7)]\\@


 LIFE IS SO UNCERTAIN - EAT DESSERT FIRST.
 Job cpu time:       0 days  0 hours  4 minutes 29.9 seconds.
 Elapsed time:       0 days  0 hours  0 minutes 21.8 seconds.
 File lengths (MBytes):  RWF=     32 Int=      0 D2E=      0 Chk=      5 Scr=      1
 Normal termination of Gaussian 16 at Mon Nov 13 17:01:15 2023.
