 Entering Gaussian System, Link 0=g16
 Initial command:
 /home/sekinelabo/g16/l1.exe "/home/sekinelabo/g16temp/Gau-4031852.inp" -scrdir="/home/sekinelabo/g16temp/"
 Entering Link 1 = /home/sekinelabo/g16/l1.exe PID=   4031854.
  
 Copyright (c) 1988-2017, Gaussian, Inc.  All Rights Reserved.
  
 This is part of the Gaussian(R) 16 program.  It is based on
 the Gaussian(R) 09 system (copyright 2009, Gaussian, Inc.),
 the Gaussian(R) 03 system (copyright 2003, Gaussian, Inc.),
 the Gaussian(R) 98 system (copyright 1998, Gaussian, Inc.),
 the Gaussian(R) 94 system (copyright 1995, Gaussian, Inc.),
 the Gaussian 92(TM) system (copyright 1992, Gaussian, Inc.),
 the Gaussian 90(TM) system (copyright 1990, Gaussian, Inc.),
 the Gaussian 88(TM) system (copyright 1988, Gaussian, Inc.),
 the Gaussian 86(TM) system (copyright 1986, Carnegie Mellon
 University), and the Gaussian 82(TM) system (copyright 1983,
 Carnegie Mellon University). Gaussian is a federally registered
 trademark of Gaussian, Inc.
  
 This software contains proprietary and confidential information,
 including trade secrets, belonging to Gaussian, Inc.
  
 This software is provided under written license and may be
 used, copied, transmitted, or stored only in accord with that
 written license.
  
 The following legend is applicable only to US Government
 contracts under FAR:
  
                    RESTRICTED RIGHTS LEGEND
  
 Use, reproduction and disclosure by the US Government is
 subject to restrictions as set forth in subparagraphs (a)
 and (c) of the Commercial Computer Software - Restricted
 Rights clause in FAR 52.227-19.
  
 Gaussian, Inc.
 340 Quinnipiac St., Bldg. 40, Wallingford CT 06492
  
  
 ---------------------------------------------------------------
 Warning -- This program may not be used in any manner that
 competes with the business of Gaussian, Inc. or will provide
 assistance to any competitor of Gaussian, Inc.  The licensee
 of this program is prohibited from giving any competitor of
 Gaussian, Inc. access to this program.  By using this program,
 the user acknowledges that Gaussian, Inc. is engaged in the
 business of creating and licensing software in the field of
 computational chemistry and represents and warrants to the
 licensee that it is not a competitor of Gaussian, Inc. and that
 it will not use this program in any manner prohibited above.
 ---------------------------------------------------------------
  

 Cite this work as:
 Gaussian 16, Revision B.01,
 M. J. Frisch, G. W. Trucks, H. B. Schlegel, G. E. Scuseria, 
 M. A. Robb, J. R. Cheeseman, G. Scalmani, V. Barone, 
 G. A. Petersson, H. Nakatsuji, X. Li, M. Caricato, A. V. Marenich, 
 J. Bloino, B. G. Janesko, R. Gomperts, B. Mennucci, H. P. Hratchian, 
 J. V. Ortiz, A. F. Izmaylov, J. L. Sonnenberg, D. Williams-Young, 
 F. Ding, F. Lipparini, F. Egidi, J. Goings, B. Peng, A. Petrone, 
 T. Henderson, D. Ranasinghe, V. G. Zakrzewski, J. Gao, N. Rega, 
 G. Zheng, W. Liang, M. Hada, M. Ehara, K. Toyota, R. Fukuda, 
 J. Hasegawa, M. Ishida, T. Nakajima, Y. Honda, O. Kitao, H. Nakai, 
 T. Vreven, K. Throssell, J. A. Montgomery, Jr., J. E. Peralta, 
 F. Ogliaro, M. J. Bearpark, J. J. Heyd, E. N. Brothers, K. N. Kudin, 
 V. N. Staroverov, T. A. Keith, R. Kobayashi, J. Normand, 
 K. Raghavachari, A. P. Rendell, J. C. Burant, S. S. Iyengar, 
 J. Tomasi, M. Cossi, J. M. Millam, M. Klene, C. Adamo, R. Cammi, 
 J. W. Ochterski, R. L. Martin, K. Morokuma, O. Farkas, 
 J. B. Foresman, and D. J. Fox, Gaussian, Inc., Wallingford CT, 2016.
 
 ******************************************
 Gaussian 16:  ES64L-G16RevB.01 20-Dec-2017
                13-Nov-2023 
 ******************************************
 %mem=14GB
 %chk=checkpoint.chk
 %nprocshared=16
 Will use up to   16 processors via shared memory.
 -------------------------
 #P B3LYP/6-311+g(d) force
 -------------------------
 1/10=7,30=1,38=1/1,3;
 2/12=2,17=6,18=5,40=1/2;
 3/5=4,6=6,7=11,11=2,25=1,30=1,71=1,74=-5/1,2,3;
 4//1;
 5/5=2,38=5/2;
 6/7=2,8=2,9=2,10=2,28=1/1;
 7/29=1/1,2,3,16;
 1/10=7,30=1/3;
 99//99;
 Leave Link    1 at Mon Nov 13 15:57:40 2023, MaxMem=  1879048192 cpu:               0.3 elap:               0.0
 (Enter /home/sekinelabo/g16/l101.exe)
 ------------------------------
 Gaussian input prepared by ASE
 ------------------------------
 Symbolic Z-matrix:
 Charge =  0 Multiplicity = 2
 Na                    2.9569    0.84282   1.03404 
 Na                    5.20857   0.        2.81413 
 Na                    5.77704   0.87353   0. 
 Na                    6.38569   3.57598   1.1655 
 Na                    4.12704   2.7978    2.98775 
 Na                    1.81537   3.60201   1.25122 
 Na                    0.        1.2202    1.34163 
 
 ITRead=  0  0  0  0  0  0  0
 MicOpt= -1 -1 -1 -1 -1 -1 -1
 NAtoms=      7 NQM=        7 NQMF=       0 NMMI=      0 NMMIF=      0
                NMic=       0 NMicF=      0.
                    Isotopes and Nuclear Properties:
 (Nuclear quadrupole moments (NQMom) in fm**2, nuclear magnetic moments (NMagM)
  in nuclear magnetons)

  Atom         1           2           3           4           5           6           7
 IAtWgt=          23          23          23          23          23          23          23
 AtmWgt=  22.9897697  22.9897697  22.9897697  22.9897697  22.9897697  22.9897697  22.9897697
 NucSpn=           3           3           3           3           3           3           3
 AtZEff=  -0.0000000  -0.0000000  -0.0000000  -0.0000000  -0.0000000  -0.0000000  -0.0000000
 NQMom=   10.4000000  10.4000000  10.4000000  10.4000000  10.4000000  10.4000000  10.4000000
 NMagM=    2.2175200   2.2175200   2.2175200   2.2175200   2.2175200   2.2175200   2.2175200
 AtZNuc=  11.0000000  11.0000000  11.0000000  11.0000000  11.0000000  11.0000000  11.0000000
 Leave Link  101 at Mon Nov 13 15:57:40 2023, MaxMem=  1879048192 cpu:               2.6 elap:               0.2
 (Enter /home/sekinelabo/g16/l103.exe)

 GradGradGradGradGradGradGradGradGradGradGradGradGradGradGradGradGradGrad
 Berny optimization.
 Initialization pass.
 Trust Radius=3.00D-01 FncErr=1.00D-07 GrdErr=1.00D-07 EigMax=2.50D+02 EigMin=1.00D-04
 Number of steps in this run=      2 maximum allowed number of steps=      2.
 GradGradGradGradGradGradGradGradGradGradGradGradGradGradGradGradGradGrad

 Leave Link  103 at Mon Nov 13 15:57:40 2023, MaxMem=  1879048192 cpu:               0.2 elap:               0.0
 (Enter /home/sekinelabo/g16/l202.exe)
                          Input orientation:                          
 ---------------------------------------------------------------------
 Center     Atomic      Atomic             Coordinates (Angstroms)
 Number     Number       Type             X           Y           Z
 ---------------------------------------------------------------------
      1         11           0        2.956902    0.842818    1.034035
      2         11           0        5.208573    0.000000    2.814134
      3         11           0        5.777037    0.873533    0.000000
      4         11           0        6.385693    3.575982    1.165502
      5         11           0        4.127042    2.797801    2.987749
      6         11           0        1.815372    3.602005    1.251217
      7         11           0        0.000000    1.220201    1.341625
 ---------------------------------------------------------------------
                    Distance matrix (angstroms):
                    1          2          3          4          5
     1  Na   0.000000
     2  Na   2.991507   0.000000
     3  Na   3.003886   3.000927   0.000000
     4  Na   4.386807   4.109896   3.005343   0.000000
     5  Na   3.001364   3.004587   3.918155   3.004605   0.000000
     6  Na   2.993889   5.189505   4.970402   4.571199   3.001018
     7  Na   2.996715   5.548549   5.940900   6.808656   4.714979
                    6          7
     6  Na   0.000000
     7  Na   2.996121   0.000000
 Stoichiometry    Na7(2)
 Framework group  C1[X(Na7)]
 Deg. of freedom    15
 Full point group                 C1      NOp   1
 Largest Abelian subgroup         C1      NOp   1
 Largest concise Abelian subgroup C1      NOp   1
                         Standard orientation:                         
 ---------------------------------------------------------------------
 Center     Atomic      Atomic             Coordinates (Angstroms)
 Number     Number       Type             X           Y           Z
 ---------------------------------------------------------------------
      1         11           0       -0.796043   -1.001802   -0.479431
      2         11           0        1.455627   -1.844620    1.300668
      3         11           0        2.024091   -0.971087   -1.513466
      4         11           0        2.632747    1.731362   -0.347964
      5         11           0        0.374097    0.953181    1.474283
      6         11           0       -1.937574    1.757385   -0.262249
      7         11           0       -3.752946   -0.624419   -0.171841
 ---------------------------------------------------------------------
 Rotational constants (GHZ):           1.1367203           0.5729957           0.4940695
 Leave Link  202 at Mon Nov 13 15:57:40 2023, MaxMem=  1879048192 cpu:               0.0 elap:               0.0
 (Enter /home/sekinelabo/g16/l301.exe)
 Standard basis: 6-311+G(d) (5D, 7F)
 Ernie: Thresh=  0.10000D-02 Tol=  0.10000D-05 Strict=F.
 There are   217 symmetry adapted cartesian basis functions of A   symmetry.
 There are   210 symmetry adapted basis functions of A   symmetry.
   210 basis functions,   350 primitive gaussians,   217 cartesian basis functions
    39 alpha electrons       38 beta electrons
       nuclear repulsion energy       365.8273747826 Hartrees.
 IExCor=  402 DFT=T Ex+Corr=B3LYP ExCW=0 ScaHFX=  0.200000
 ScaDFX=  0.800000  0.720000  1.000000  0.810000 ScalE2=  1.000000  1.000000
 IRadAn=      5 IRanWt=     -1 IRanGd=            0 ICorTp=0 IEmpDi=  4
 NAtoms=    7 NActive=    7 NUniq=    7 SFac= 1.00D+00 NAtFMM=   60 NAOKFM=F Big=F
 Integral buffers will be    131072 words long.
 Raffenetti 2 integral format.
 Two-electron integral symmetry is turned on.
 Leave Link  301 at Mon Nov 13 15:57:40 2023, MaxMem=  1879048192 cpu:               0.5 elap:               0.0
 (Enter /home/sekinelabo/g16/l302.exe)
 NPDir=0 NMtPBC=     1 NCelOv=     1 NCel=       1 NClECP=     1 NCelD=      1
         NCelK=      1 NCelE2=     1 NClLst=     1 CellRange=     0.0.
 One-electron integrals computed using PRISM.
 One-electron integral symmetry used in STVInt
 NBasis=   210 RedAO= T EigKep=  3.58D-06  NBF=   210
 NBsUse=   209 1.00D-06 EigRej=  9.98D-07 NBFU=   209
 Precomputing XC quadrature grid using
 IXCGrd= 4 IRadAn=           5 IRanWt=          -1 IRanGd=           0 AccXCQ= 0.00D+00.
 Generated NRdTot=       0 NPtTot=           0 NUsed=           0 NTot=          32
 NSgBfM=   210   210   210   210   210 MxSgAt=     7 MxSgA2=     7.
 Leave Link  302 at Mon Nov 13 15:57:40 2023, MaxMem=  1879048192 cpu:               2.1 elap:               0.1
 (Enter /home/sekinelabo/g16/l303.exe)
 DipDrv:  MaxL=1.
 Leave Link  303 at Mon Nov 13 15:57:40 2023, MaxMem=  1879048192 cpu:               0.6 elap:               0.0
 (Enter /home/sekinelabo/g16/l401.exe)
 ExpMin= 7.60D-03 ExpMax= 3.62D+04 ExpMxC= 1.21D+03 IAcc=3 IRadAn=         5 AccDes= 0.00D+00
 Harris functional with IExCor=  402 and IRadAn=       5 diagonalized for initial guess.
 HarFok:  IExCor=  402 AccDes= 0.00D+00 IRadAn=         5 IDoV= 1 UseB2=F ITyADJ=14
 ICtDFT=  3500011 ScaDFX=  1.000000  1.000000  1.000000  1.000000
 FoFCou: FMM=F IPFlag=           0 FMFlag=      100000 FMFlg1=           0
         NFxFlg=           0 DoJE=T BraDBF=F KetDBF=T FulRan=T
         wScrn=  0.000000 ICntrl=       500 IOpCl=  0 I1Cent=   200000004 NGrid=           0
         NMat0=    1 NMatS0=      1 NMatT0=    0 NMatD0=    1 NMtDS0=    0 NMtDT0=    0
 Petite list used in FoFCou.
 Harris En= -1135.87200158055    
 JPrj=0 DoOrth=F DoCkMO=F.
 Initial guess <Sx>= 0.0000 <Sy>= 0.0000 <Sz>= 0.5000 <S**2>= 0.7500 S= 0.5000
 Leave Link  401 at Mon Nov 13 15:57:41 2023, MaxMem=  1879048192 cpu:               4.6 elap:               0.3
 (Enter /home/sekinelabo/g16/l502.exe)
 Keep R1 and R2 ints in memory in canonical form, NReq=507620374.
 FoFCou: FMM=F IPFlag=           0 FMFlag=           0 FMFlg1=           0
         NFxFlg=           0 DoJE=F BraDBF=F KetDBF=F FulRan=T
         wScrn=  0.000000 ICntrl=       600 IOpCl=  0 I1Cent=           0 NGrid=           0
         NMat0=    1 NMatS0=  22155 NMatT0=    0 NMatD0=    1 NMtDS0=    0 NMtDT0=    0
 Symmetry not used in FoFCou.
 Two-electron integral symmetry not used.
 UHF open shell SCF:
 Using DIIS extrapolation, IDIIS=  1040.
 NGot=  1879048192 LenX=  1388082362 LenY=  1388034832
 Requested convergence on RMS density matrix=1.00D-08 within 128 cycles.
 Requested convergence on MAX density matrix=1.00D-06.
 Requested convergence on             energy=1.00D-06.
 No special actions if energy rises.

 Cycle   1  Pass 1  IDiag  1:
 E= -1136.05827345260    
 DIIS: error= 1.24D-02 at cycle   1 NSaved=   1.
 NSaved= 1 IEnMin= 1 EnMin= -1136.05827345260     IErMin= 1 ErrMin= 1.24D-02
 ErrMax= 1.24D-02  0.00D+00 EMaxC= 1.00D-01 BMatC= 2.00D-01 BMatP= 2.00D-01
 IDIUse=3 WtCom= 8.76D-01 WtEn= 1.24D-01
 Coeff-Com:  0.100D+01
 Coeff-En:   0.100D+01
 Coeff:      0.100D+01
 Gap=     0.035 Goal=   None    Shift=    0.000
 Gap=     0.037 Goal=   None    Shift=    0.000
 GapD=    0.035 DampG=0.250 DampE=0.500 DampFc=0.2500 IDamp=-1.
 Damping current iteration by 2.50D-01
 RMSDP=2.38D-02 MaxDP=1.62D+00              OVMax= 2.78D-01

 Cycle   2  Pass 1  IDiag  1:
 E= -1136.07291536072     Delta-E=       -0.014641908123 Rises=F Damp=T
 DIIS: error= 8.77D-03 at cycle   2 NSaved=   2.
 NSaved= 2 IEnMin= 2 EnMin= -1136.07291536072     IErMin= 2 ErrMin= 8.77D-03
 ErrMax= 8.77D-03  0.00D+00 EMaxC= 1.00D-01 BMatC= 7.52D-02 BMatP= 2.00D-01
 IDIUse=3 WtCom= 9.12D-01 WtEn= 8.77D-02
 Coeff-Com: -0.123D+01 0.223D+01
 Coeff-En:   0.000D+00 0.100D+01
 Coeff:     -0.112D+01 0.212D+01
 Gap=     0.052 Goal=   None    Shift=    0.000
 Gap=     0.045 Goal=   None    Shift=    0.000
 RMSDP=1.34D-02 MaxDP=1.26D+00 DE=-1.46D-02 OVMax= 1.98D-01

 Cycle   3  Pass 1  IDiag  1:
 E= -1136.09588378689     Delta-E=       -0.022968426170 Rises=F Damp=F
 DIIS: error= 3.91D-03 at cycle   3 NSaved=   3.
 NSaved= 3 IEnMin= 3 EnMin= -1136.09588378689     IErMin= 3 ErrMin= 3.91D-03
 ErrMax= 3.91D-03  0.00D+00 EMaxC= 1.00D-01 BMatC= 5.44D-03 BMatP= 7.52D-02
 IDIUse=3 WtCom= 9.61D-01 WtEn= 3.91D-02
 Coeff-Com: -0.328D+00 0.586D+00 0.742D+00
 Coeff-En:   0.000D+00 0.000D+00 0.100D+01
 Coeff:     -0.316D+00 0.564D+00 0.752D+00
 Gap=     0.042 Goal=   None    Shift=    0.000
 Gap=     0.040 Goal=   None    Shift=    0.000
 RMSDP=4.90D-03 MaxDP=3.03D-01 DE=-2.30D-02 OVMax= 9.63D-02

 Cycle   4  Pass 1  IDiag  1:
 E= -1136.09676311628     Delta-E=       -0.000879329388 Rises=F Damp=F
 DIIS: error= 2.83D-03 at cycle   4 NSaved=   4.
 NSaved= 4 IEnMin= 4 EnMin= -1136.09676311628     IErMin= 4 ErrMin= 2.83D-03
 ErrMax= 2.83D-03  0.00D+00 EMaxC= 1.00D-01 BMatC= 3.86D-03 BMatP= 5.44D-03
 IDIUse=3 WtCom= 9.72D-01 WtEn= 2.83D-02
 Coeff-Com: -0.979D-02 0.159D-01 0.455D+00 0.539D+00
 Coeff-En:   0.000D+00 0.000D+00 0.449D+00 0.551D+00
 Coeff:     -0.952D-02 0.155D-01 0.455D+00 0.539D+00
 Gap=     0.047 Goal=   None    Shift=    0.000
 Gap=     0.040 Goal=   None    Shift=    0.000
 RMSDP=2.11D-03 MaxDP=1.01D-01 DE=-8.79D-04 OVMax= 6.64D-02

 Cycle   5  Pass 1  IDiag  1:
 E= -1136.09960272923     Delta-E=       -0.002839612951 Rises=F Damp=F
 DIIS: error= 1.03D-03 at cycle   5 NSaved=   5.
 NSaved= 5 IEnMin= 5 EnMin= -1136.09960272923     IErMin= 5 ErrMin= 1.03D-03
 ErrMax= 1.03D-03  0.00D+00 EMaxC= 1.00D-01 BMatC= 2.96D-04 BMatP= 3.86D-03
 IDIUse=3 WtCom= 9.90D-01 WtEn= 1.03D-02
 Coeff-Com: -0.155D-02 0.122D-02 0.291D+00 0.359D+00 0.350D+00
 Coeff-En:   0.000D+00 0.000D+00 0.000D+00 0.221D-01 0.978D+00
 Coeff:     -0.154D-02 0.120D-02 0.288D+00 0.356D+00 0.356D+00
 Gap=     0.046 Goal=   None    Shift=    0.000
 Gap=     0.040 Goal=   None    Shift=    0.000
 RMSDP=8.97D-04 MaxDP=7.77D-02 DE=-2.84D-03 OVMax= 2.26D-02

 Cycle   6  Pass 1  IDiag  1:
 E= -1136.09995580700     Delta-E=       -0.000353077771 Rises=F Damp=F
 DIIS: error= 1.36D-04 at cycle   6 NSaved=   6.
 NSaved= 6 IEnMin= 6 EnMin= -1136.09995580700     IErMin= 6 ErrMin= 1.36D-04
 ErrMax= 1.36D-04  0.00D+00 EMaxC= 1.00D-01 BMatC= 6.56D-06 BMatP= 2.96D-04
 IDIUse=3 WtCom= 9.99D-01 WtEn= 1.36D-03
 Coeff-Com: -0.116D-02 0.109D-02-0.262D-01-0.346D-01 0.858D-01 0.975D+00
 Coeff-En:   0.000D+00 0.000D+00 0.000D+00 0.000D+00 0.000D+00 0.100D+01
 Coeff:     -0.116D-02 0.108D-02-0.262D-01-0.346D-01 0.857D-01 0.975D+00
 Gap=     0.046 Goal=   None    Shift=    0.000
 Gap=     0.040 Goal=   None    Shift=    0.000
 RMSDP=2.98D-04 MaxDP=1.12D-02 DE=-3.53D-04 OVMax= 5.58D-03

 Cycle   7  Pass 1  IDiag  1:
 E= -1136.09996806825     Delta-E=       -0.000012261241 Rises=F Damp=F
 DIIS: error= 5.61D-05 at cycle   7 NSaved=   7.
 NSaved= 7 IEnMin= 7 EnMin= -1136.09996806825     IErMin= 7 ErrMin= 5.61D-05
 ErrMax= 5.61D-05  0.00D+00 EMaxC= 1.00D-01 BMatC= 1.88D-06 BMatP= 6.56D-06
 IDIUse=1 WtCom= 1.00D+00 WtEn= 0.00D+00
 Coeff-Com: -0.315D-03 0.237D-03-0.403D-01-0.509D-01 0.129D-01 0.494D+00
 Coeff-Com:  0.585D+00
 Coeff:     -0.315D-03 0.237D-03-0.403D-01-0.509D-01 0.129D-01 0.494D+00
 Coeff:      0.585D+00
 Gap=     0.046 Goal=   None    Shift=    0.000
 Gap=     0.040 Goal=   None    Shift=    0.000
 RMSDP=1.07D-04 MaxDP=6.98D-03 DE=-1.23D-05 OVMax= 2.32D-03

 Cycle   8  Pass 1  IDiag  1:
 E= -1136.09997110609     Delta-E=       -0.000003037848 Rises=F Damp=F
 DIIS: error= 2.62D-05 at cycle   8 NSaved=   8.
 NSaved= 8 IEnMin= 8 EnMin= -1136.09997110609     IErMin= 8 ErrMin= 2.62D-05
 ErrMax= 2.62D-05  0.00D+00 EMaxC= 1.00D-01 BMatC= 3.02D-07 BMatP= 1.88D-06
 IDIUse=1 WtCom= 1.00D+00 WtEn= 0.00D+00
 Coeff-Com:  0.659D-03-0.825D-03-0.415D-02-0.423D-02-0.226D-01-0.163D+00
 Coeff-Com:  0.174D+00 0.102D+01
 Coeff:      0.659D-03-0.825D-03-0.415D-02-0.423D-02-0.226D-01-0.163D+00
 Coeff:      0.174D+00 0.102D+01
 Gap=     0.046 Goal=   None    Shift=    0.000
 Gap=     0.041 Goal=   None    Shift=    0.000
 RMSDP=9.53D-05 MaxDP=7.53D-03 DE=-3.04D-06 OVMax= 3.27D-03

 Cycle   9  Pass 1  IDiag  1:
 E= -1136.09997272463     Delta-E=       -0.000001618535 Rises=F Damp=F
 DIIS: error= 1.62D-05 at cycle   9 NSaved=   9.
 NSaved= 9 IEnMin= 9 EnMin= -1136.09997272463     IErMin= 9 ErrMin= 1.62D-05
 ErrMax= 1.62D-05  0.00D+00 EMaxC= 1.00D-01 BMatC= 8.07D-08 BMatP= 3.02D-07
 IDIUse=1 WtCom= 1.00D+00 WtEn= 0.00D+00
 Coeff-Com:  0.483D-03-0.597D-03 0.440D-02 0.551D-02-0.939D-02-0.116D+00
 Coeff-Com: -0.664D-01 0.292D+00 0.890D+00
 Coeff:      0.483D-03-0.597D-03 0.440D-02 0.551D-02-0.939D-02-0.116D+00
 Coeff:     -0.664D-01 0.292D+00 0.890D+00
 Gap=     0.046 Goal=   None    Shift=    0.000
 Gap=     0.041 Goal=   None    Shift=    0.000
 RMSDP=4.55D-05 MaxDP=2.69D-03 DE=-1.62D-06 OVMax= 1.94D-03

 Cycle  10  Pass 1  IDiag  1:
 E= -1136.09997321412     Delta-E=       -0.000000489495 Rises=F Damp=F
 DIIS: error= 1.09D-05 at cycle  10 NSaved=  10.
 NSaved=10 IEnMin=10 EnMin= -1136.09997321412     IErMin=10 ErrMin= 1.09D-05
 ErrMax= 1.09D-05  0.00D+00 EMaxC= 1.00D-01 BMatC= 4.22D-08 BMatP= 8.07D-08
 IDIUse=1 WtCom= 1.00D+00 WtEn= 0.00D+00
 Coeff-Com:  0.764D-04-0.861D-04 0.430D-02 0.467D-02 0.298D-02-0.194D-01
 Coeff-Com: -0.100D+00-0.167D+00 0.506D+00 0.769D+00
 Coeff:      0.764D-04-0.861D-04 0.430D-02 0.467D-02 0.298D-02-0.194D-01
 Coeff:     -0.100D+00-0.167D+00 0.506D+00 0.769D+00
 Gap=     0.046 Goal=   None    Shift=    0.000
 Gap=     0.041 Goal=   None    Shift=    0.000
 RMSDP=2.81D-05 MaxDP=1.65D-03 DE=-4.89D-07 OVMax= 1.54D-03

 Cycle  11  Pass 1  IDiag  1:
 E= -1136.09997345203     Delta-E=       -0.000000237903 Rises=F Damp=F
 DIIS: error= 5.61D-06 at cycle  11 NSaved=  11.
 NSaved=11 IEnMin=11 EnMin= -1136.09997345203     IErMin=11 ErrMin= 5.61D-06
 ErrMax= 5.61D-06  0.00D+00 EMaxC= 1.00D-01 BMatC= 1.38D-08 BMatP= 4.22D-08
 IDIUse=1 WtCom= 1.00D+00 WtEn= 0.00D+00
 Coeff-Com: -0.230D-03 0.300D-03 0.793D-03 0.445D-03 0.660D-02 0.309D-01
 Coeff-Com: -0.153D-01-0.186D+00-0.156D+00 0.350D+00 0.969D+00
 Coeff:     -0.230D-03 0.300D-03 0.793D-03 0.445D-03 0.660D-02 0.309D-01
 Coeff:     -0.153D-01-0.186D+00-0.156D+00 0.350D+00 0.969D+00
 Gap=     0.046 Goal=   None    Shift=    0.000
 Gap=     0.041 Goal=   None    Shift=    0.000
 RMSDP=1.95D-05 MaxDP=7.85D-04 DE=-2.38D-07 OVMax= 1.22D-03

 Cycle  12  Pass 1  IDiag  1:
 E= -1136.09997356093     Delta-E=       -0.000000108904 Rises=F Damp=F
 DIIS: error= 3.16D-06 at cycle  12 NSaved=  12.
 NSaved=12 IEnMin=12 EnMin= -1136.09997356093     IErMin=12 ErrMin= 3.16D-06
 ErrMax= 3.16D-06  0.00D+00 EMaxC= 1.00D-01 BMatC= 3.12D-09 BMatP= 1.38D-08
 IDIUse=1 WtCom= 1.00D+00 WtEn= 0.00D+00
 Coeff-Com: -0.107D-03 0.135D-03-0.852D-03-0.103D-02 0.186D-02 0.186D-01
 Coeff-Com:  0.138D-01-0.287D-01-0.163D+00-0.804D-01 0.313D+00 0.927D+00
 Coeff:     -0.107D-03 0.135D-03-0.852D-03-0.103D-02 0.186D-02 0.186D-01
 Coeff:      0.138D-01-0.287D-01-0.163D+00-0.804D-01 0.313D+00 0.927D+00
 Gap=     0.046 Goal=   None    Shift=    0.000
 Gap=     0.041 Goal=   None    Shift=    0.000
 RMSDP=8.82D-06 MaxDP=4.16D-04 DE=-1.09D-07 OVMax= 6.40D-04

 Cycle  13  Pass 1  IDiag  1:
 E= -1136.09997359117     Delta-E=       -0.000000030237 Rises=F Damp=F
 DIIS: error= 2.48D-06 at cycle  13 NSaved=  13.
 NSaved=13 IEnMin=13 EnMin= -1136.09997359117     IErMin=13 ErrMin= 2.48D-06
 ErrMax= 2.48D-06  0.00D+00 EMaxC= 1.00D-01 BMatC= 1.02D-09 BMatP= 3.12D-09
 IDIUse=1 WtCom= 1.00D+00 WtEn= 0.00D+00
 Coeff-Com:  0.874D-04-0.115D-03-0.256D-03-0.108D-03-0.214D-02-0.100D-01
 Coeff-Com:  0.313D-02 0.659D-01 0.534D-01-0.139D+00-0.306D+00 0.105D-02
 Coeff-Com:  0.133D+01
 Coeff:      0.874D-04-0.115D-03-0.256D-03-0.108D-03-0.214D-02-0.100D-01
 Coeff:      0.313D-02 0.659D-01 0.534D-01-0.139D+00-0.306D+00 0.105D-02
 Coeff:      0.133D+01
 Gap=     0.046 Goal=   None    Shift=    0.000
 Gap=     0.041 Goal=   None    Shift=    0.000
 RMSDP=7.32D-06 MaxDP=4.81D-04 DE=-3.02D-08 OVMax= 4.71D-04

 Cycle  14  Pass 1  IDiag  1:
 E= -1136.09997360724     Delta-E=       -0.000000016078 Rises=F Damp=F
 DIIS: error= 1.48D-06 at cycle  14 NSaved=  14.
 NSaved=14 IEnMin=14 EnMin= -1136.09997360724     IErMin=14 ErrMin= 1.48D-06
 ErrMax= 1.48D-06  0.00D+00 EMaxC= 1.00D-01 BMatC= 3.67D-10 BMatP= 1.02D-09
 IDIUse=1 WtCom= 1.00D+00 WtEn= 0.00D+00
 Coeff-Com:  0.101D-04-0.109D-04 0.191D-03 0.207D-03-0.230D-03-0.288D-02
 Coeff-Com: -0.631D-02-0.104D-01 0.642D-01 0.753D-01-0.627D-01-0.371D+00
 Coeff-Com: -0.392D+00 0.171D+01
 Coeff:      0.101D-04-0.109D-04 0.191D-03 0.207D-03-0.230D-03-0.288D-02
 Coeff:     -0.631D-02-0.104D-01 0.642D-01 0.753D-01-0.627D-01-0.371D+00
 Coeff:     -0.392D+00 0.171D+01
 Gap=     0.046 Goal=   None    Shift=    0.000
 Gap=     0.041 Goal=   None    Shift=    0.000
 RMSDP=6.76D-06 MaxDP=4.79D-04 DE=-1.61D-08 OVMax= 3.58D-04

 Cycle  15  Pass 1  IDiag  1:
 E= -1136.09997361508     Delta-E=       -0.000000007834 Rises=F Damp=F
 DIIS: error= 6.01D-07 at cycle  15 NSaved=  15.
 NSaved=15 IEnMin=15 EnMin= -1136.09997361508     IErMin=15 ErrMin= 6.01D-07
 ErrMax= 6.01D-07  0.00D+00 EMaxC= 1.00D-01 BMatC= 9.02D-11 BMatP= 3.67D-10
 IDIUse=1 WtCom= 1.00D+00 WtEn= 0.00D+00
 Coeff-Com: -0.321D-04 0.424D-04 0.119D-03 0.645D-04 0.769D-03 0.353D-02
 Coeff-Com: -0.561D-03-0.223D-01-0.213D-01 0.384D-01 0.112D+00 0.238D-01
 Coeff-Com: -0.383D+00-0.150D+00 0.140D+01
 Coeff:     -0.321D-04 0.424D-04 0.119D-03 0.645D-04 0.769D-03 0.353D-02
 Coeff:     -0.561D-03-0.223D-01-0.213D-01 0.384D-01 0.112D+00 0.238D-01
 Coeff:     -0.383D+00-0.150D+00 0.140D+01
 Gap=     0.046 Goal=   None    Shift=    0.000
 Gap=     0.041 Goal=   None    Shift=    0.000
 RMSDP=3.67D-06 MaxDP=3.16D-04 DE=-7.83D-09 OVMax= 1.79D-04

 Cycle  16  Pass 1  IDiag  1:
 E= -1136.09997361691     Delta-E=       -0.000000001829 Rises=F Damp=F
 DIIS: error= 2.80D-07 at cycle  16 NSaved=  16.
 NSaved=16 IEnMin=16 EnMin= -1136.09997361691     IErMin=16 ErrMin= 2.80D-07
 ErrMax= 2.80D-07  0.00D+00 EMaxC= 1.00D-01 BMatC= 2.26D-11 BMatP= 9.02D-11
 IDIUse=1 WtCom= 1.00D+00 WtEn= 0.00D+00
 Coeff-Com: -0.470D-05 0.567D-05-0.281D-04-0.322D-04 0.123D-03 0.827D-03
 Coeff-Com:  0.177D-02 0.212D-02-0.174D-01-0.217D-01 0.195D-01 0.973D-01
 Coeff-Com:  0.836D-01-0.407D+00-0.665D-02 0.125D+01
 Coeff:     -0.470D-05 0.567D-05-0.281D-04-0.322D-04 0.123D-03 0.827D-03
 Coeff:      0.177D-02 0.212D-02-0.174D-01-0.217D-01 0.195D-01 0.973D-01
 Coeff:      0.836D-01-0.407D+00-0.665D-02 0.125D+01
 Gap=     0.046 Goal=   None    Shift=    0.000
 Gap=     0.041 Goal=   None    Shift=    0.000
 RMSDP=1.73D-06 MaxDP=1.59D-04 DE=-1.83D-09 OVMax= 7.66D-05

 Cycle  17  Pass 1  IDiag  1:
 E= -1136.09997361727     Delta-E=       -0.000000000364 Rises=F Damp=F
 DIIS: error= 1.55D-07 at cycle  17 NSaved=  17.
 NSaved=17 IEnMin=17 EnMin= -1136.09997361727     IErMin=17 ErrMin= 1.55D-07
 ErrMax= 1.55D-07  0.00D+00 EMaxC= 1.00D-01 BMatC= 7.86D-12 BMatP= 2.26D-11
 IDIUse=1 WtCom= 1.00D+00 WtEn= 0.00D+00
 Coeff-Com:  0.692D-05-0.934D-05-0.395D-04-0.194D-04-0.208D-03-0.620D-03
 Coeff-Com:  0.501D-03 0.505D-02 0.329D-02-0.110D-01-0.232D-01 0.369D-03
 Coeff-Com:  0.985D-01 0.122D-01-0.425D+00 0.281D+00 0.106D+01
 Coeff:      0.692D-05-0.934D-05-0.395D-04-0.194D-04-0.208D-03-0.620D-03
 Coeff:      0.501D-03 0.505D-02 0.329D-02-0.110D-01-0.232D-01 0.369D-03
 Coeff:      0.985D-01 0.122D-01-0.425D+00 0.281D+00 0.106D+01
 Gap=     0.046 Goal=   None    Shift=    0.000
 Gap=     0.041 Goal=   None    Shift=    0.000
 RMSDP=8.03D-07 MaxDP=6.47D-05 DE=-3.64D-10 OVMax= 3.83D-05

 Cycle  18  Pass 1  IDiag  1:
 E= -1136.09997361736     Delta-E=       -0.000000000085 Rises=F Damp=F
 DIIS: error= 7.27D-08 at cycle  18 NSaved=  18.
 NSaved=18 IEnMin=18 EnMin= -1136.09997361736     IErMin=18 ErrMin= 7.27D-08
 ErrMax= 7.27D-08  0.00D+00 EMaxC= 1.00D-01 BMatC= 1.29D-12 BMatP= 7.86D-12
 IDIUse=1 WtCom= 1.00D+00 WtEn= 0.00D+00
 Coeff-Com:  0.250D-05-0.308D-05 0.107D-04 0.109D-04-0.613D-04-0.425D-03
 Coeff-Com: -0.270D-03 0.331D-05 0.470D-02 0.465D-02-0.507D-02-0.284D-01
 Coeff-Com: -0.133D-01 0.104D+00-0.204D-02-0.319D+00-0.936D-01 0.135D+01
 Coeff:      0.250D-05-0.308D-05 0.107D-04 0.109D-04-0.613D-04-0.425D-03
 Coeff:     -0.270D-03 0.331D-05 0.470D-02 0.465D-02-0.507D-02-0.284D-01
 Coeff:     -0.133D-01 0.104D+00-0.204D-02-0.319D+00-0.936D-01 0.135D+01
 Gap=     0.046 Goal=   None    Shift=    0.000
 Gap=     0.041 Goal=   None    Shift=    0.000
 RMSDP=4.30D-07 MaxDP=2.42D-05 DE=-8.55D-11 OVMax= 2.02D-05

 Cycle  19  Pass 1  IDiag  1:
 E= -1136.09997361737     Delta-E=       -0.000000000015 Rises=F Damp=F
 DIIS: error= 2.16D-08 at cycle  19 NSaved=  19.
 NSaved=19 IEnMin=19 EnMin= -1136.09997361737     IErMin=19 ErrMin= 2.16D-08
 ErrMax= 2.16D-08  0.00D+00 EMaxC= 1.00D-01 BMatC= 1.50D-13 BMatP= 1.29D-12
 IDIUse=1 WtCom= 1.00D+00 WtEn= 0.00D+00
 Coeff-Com: -0.232D-05 0.304D-05 0.388D-05 0.152D-05 0.504D-04 0.236D-03
 Coeff-Com: -0.109D-04-0.948D-03-0.176D-02 0.917D-03 0.558D-02 0.594D-02
 Coeff-Com: -0.177D-01-0.178D-01 0.679D-01 0.111D-01-0.142D+00-0.214D+00
 Coeff-Com:  0.130D+01
 Coeff:     -0.232D-05 0.304D-05 0.388D-05 0.152D-05 0.504D-04 0.236D-03
 Coeff:     -0.109D-04-0.948D-03-0.176D-02 0.917D-03 0.558D-02 0.594D-02
 Coeff:     -0.177D-01-0.178D-01 0.679D-01 0.111D-01-0.142D+00-0.214D+00
 Coeff:      0.130D+01
 Gap=     0.046 Goal=   None    Shift=    0.000
 Gap=     0.041 Goal=   None    Shift=    0.000
 RMSDP=1.21D-07 MaxDP=5.98D-06 DE=-1.55D-11 OVMax= 5.52D-06

 Cycle  20  Pass 1  IDiag  1:
 E= -1136.09997361737     Delta-E=        0.000000000007 Rises=F Damp=F
 DIIS: error= 7.57D-09 at cycle  20 NSaved=  20.
 NSaved=20 IEnMin=19 EnMin= -1136.09997361737     IErMin=20 ErrMin= 7.57D-09
 ErrMax= 7.57D-09  0.00D+00 EMaxC= 1.00D-01 BMatC= 2.54D-14 BMatP= 1.50D-13
 IDIUse=1 WtCom= 1.00D+00 WtEn= 0.00D+00
 Coeff-Com:  0.104D-06-0.166D-06 0.346D-06 0.820D-06 0.932D-06-0.838D-07
 Coeff-Com:  0.267D-04 0.151D-03-0.243D-03-0.801D-03-0.260D-03 0.280D-02
 Coeff-Com:  0.481D-02-0.129D-01-0.585D-02 0.426D-01 0.327D-01-0.217D+00
 Coeff-Com: -0.225D-01 0.118D+01
 Coeff:      0.104D-06-0.166D-06 0.346D-06 0.820D-06 0.932D-06-0.838D-07
 Coeff:      0.267D-04 0.151D-03-0.243D-03-0.801D-03-0.260D-03 0.280D-02
 Coeff:      0.481D-02-0.129D-01-0.585D-02 0.426D-01 0.327D-01-0.217D+00
 Coeff:     -0.225D-01 0.118D+01
 Gap=     0.046 Goal=   None    Shift=    0.000
 Gap=     0.041 Goal=   None    Shift=    0.000
 RMSDP=4.25D-08 MaxDP=2.72D-06 DE= 6.82D-12 OVMax= 1.92D-06

 Cycle  21  Pass 1  IDiag  1:
 E= -1136.09997361738     Delta-E=       -0.000000000010 Rises=F Damp=F
 DIIS: error= 4.19D-09 at cycle  21 NSaved=  20.
 NSaved=20 IEnMin=20 EnMin= -1136.09997361738     IErMin=20 ErrMin= 4.19D-09
 ErrMax= 4.19D-09  0.00D+00 EMaxC= 1.00D-01 BMatC= 4.10D-15 BMatP= 2.54D-14
 IDIUse=1 WtCom= 1.00D+00 WtEn= 0.00D+00
 Large coefficients: NSaved= 20 BigCof=    0.00 CofMax=   10.00 Det=-6.39D-15
 Inversion failed.  Reducing to 19 matrices.
 Large coefficients: NSaved= 19 BigCof=    0.00 CofMax=   10.00 Det=-6.40D-15
 Inversion failed.  Reducing to 18 matrices.
 Large coefficients: NSaved= 18 BigCof=    0.00 CofMax=   10.00 Det=-6.43D-15
 Inversion failed.  Reducing to 17 matrices.
 Large coefficients: NSaved= 17 BigCof=    0.00 CofMax=   10.00 Det=-6.50D-15
 Inversion failed.  Reducing to 16 matrices.
 Large coefficients: NSaved= 16 BigCof=    0.00 CofMax=   10.00 Det=-6.65D-15
 Inversion failed.  Reducing to 15 matrices.
 Coeff-Com: -0.363D-05-0.269D-04 0.686D-04 0.639D-04 0.122D-04-0.291D-03
 Coeff-Com:  0.194D-03 0.105D-02-0.361D-02 0.445D-03 0.733D-02 0.214D-01
 Coeff-Com: -0.150D+00 0.693D-01 0.105D+01
 Coeff:     -0.363D-05-0.269D-04 0.686D-04 0.639D-04 0.122D-04-0.291D-03
 Coeff:      0.194D-03 0.105D-02-0.361D-02 0.445D-03 0.733D-02 0.214D-01
 Coeff:     -0.150D+00 0.693D-01 0.105D+01
 Gap=     0.046 Goal=   None    Shift=    0.000
 Gap=     0.041 Goal=   None    Shift=    0.000
 RMSDP=1.36D-08 MaxDP=9.61D-07 DE=-9.55D-12 OVMax= 5.22D-07

 Cycle  22  Pass 1  IDiag  1:
 E= -1136.09997361737     Delta-E=        0.000000000005 Rises=F Damp=F
 DIIS: error= 1.67D-09 at cycle  22 NSaved=  16.
 NSaved=16 IEnMin=15 EnMin= -1136.09997361738     IErMin=16 ErrMin= 1.67D-09
 ErrMax= 1.67D-09  0.00D+00 EMaxC= 1.00D-01 BMatC= 1.05D-15 BMatP= 4.10D-15
 IDIUse=1 WtCom= 1.00D+00 WtEn= 0.00D+00
 Large coefficients: NSaved= 16 BigCof=    0.00 CofMax=   10.00 Det=-2.00D-15
 Inversion failed.  Reducing to 15 matrices.
 Coeff-Com: -0.148D-04 0.191D-04 0.779D-04 0.405D-04-0.307D-03-0.401D-03
 Coeff-Com:  0.126D-02 0.450D-03-0.456D-02-0.510D-02 0.366D-01-0.199D-01
 Coeff-Com: -0.202D+00 0.203D+00 0.991D+00
 Coeff:     -0.148D-04 0.191D-04 0.779D-04 0.405D-04-0.307D-03-0.401D-03
 Coeff:      0.126D-02 0.450D-03-0.456D-02-0.510D-02 0.366D-01-0.199D-01
 Coeff:     -0.202D+00 0.203D+00 0.991D+00
 Gap=     0.046 Goal=   None    Shift=    0.000
 Gap=     0.041 Goal=   None    Shift=    0.000
 RMSDP=7.20D-09 MaxDP=6.13D-07 DE= 5.00D-12 OVMax= 1.85D-07

 SCF Done:  E(UB3LYP) =  -1136.09997362     A.U. after   22 cycles
            NFock= 22  Conv=0.72D-08     -V/T= 2.0025
 <Sx>= 0.0000 <Sy>= 0.0000 <Sz>= 0.5000 <S**2>= 0.7637 S= 0.5068
 <L.S>= 0.000000000000E+00
 KE= 1.133231298573D+03 PE=-3.461071540580D+03 EE= 8.259128936076D+02
 Annihilation of the first spin contaminant:
 S**2 before annihilation     0.7637,   after     0.7501
 Leave Link  502 at Mon Nov 13 15:57:59 2023, MaxMem=  1879048192 cpu:             211.8 elap:              18.1
 (Enter /home/sekinelabo/g16/l601.exe)
 Copying SCF densities to generalized density rwf, IOpCl= 1 IROHF=0.

 **********************************************************************

            Population analysis using the SCF Density.

 **********************************************************************

 Orbital symmetries:
 Alpha Orbitals:
       Occupied  (A) (A) (A) (A) (A) (A) (A) (A) (A) (A) (A) (A)
                 (A) (A) (A) (A) (A) (A) (A) (A) (A) (A) (A) (A)
                 (A) (A) (A) (A) (A) (A) (A) (A) (A) (A) (A) (A)
                 (A) (A) (A)
       Virtual   (A) (A) (A) (A) (A) (A) (A) (A) (A) (A) (A) (A)
                 (A) (A) (A) (A) (A) (A) (A) (A) (A) (A) (A) (A)
                 (A) (A) (A) (A) (A) (A) (A) (A) (A) (A) (A) (A)
                 (A) (A) (A) (A) (A) (A) (A) (A) (A) (A) (A) (A)
                 (A) (A) (A) (A) (A) (A) (A) (A) (A) (A) (A) (A)
                 (A) (A) (A) (A) (A) (A) (A) (A) (A) (A) (A) (A)
                 (A) (A) (A) (A) (A) (A) (A) (A) (A) (A) (A) (A)
                 (A) (A) (A) (A) (A) (A) (A) (A) (A) (A) (A) (A)
                 (A) (A) (A) (A) (A) (A) (A) (A) (A) (A) (A) (A)
                 (A) (A) (A) (A) (A) (A) (A) (A) (A) (A) (A) (A)
                 (A) (A) (A) (A) (A) (A) (A) (A) (A) (A) (A) (A)
                 (A) (A) (A) (A) (A) (A) (A) (A) (A) (A) (A) (A)
                 (A) (A) (A) (A) (A) (A) (A) (A) (A) (A) (A) (A)
                 (A) (A) (A) (A) (A) (A) (A) (A) (A) (A) (A) (A)
                 (A) (A)
 Beta  Orbitals:
       Occupied  (A) (A) (A) (A) (A) (A) (A) (A) (A) (A) (A) (A)
                 (A) (A) (A) (A) (A) (A) (A) (A) (A) (A) (A) (A)
                 (A) (A) (A) (A) (A) (A) (A) (A) (A) (A) (A) (A)
                 (A) (A)
       Virtual   (A) (A) (A) (A) (A) (A) (A) (A) (A) (A) (A) (A)
                 (A) (A) (A) (A) (A) (A) (A) (A) (A) (A) (A) (A)
                 (A) (A) (A) (A) (A) (A) (A) (A) (A) (A) (A) (A)
                 (A) (A) (A) (A) (A) (A) (A) (A) (A) (A) (A) (A)
                 (A) (A) (A) (A) (A) (A) (A) (A) (A) (A) (A) (A)
                 (A) (A) (A) (A) (A) (A) (A) (A) (A) (A) (A) (A)
                 (A) (A) (A) (A) (A) (A) (A) (A) (A) (A) (A) (A)
                 (A) (A) (A) (A) (A) (A) (A) (A) (A) (A) (A) (A)
                 (A) (A) (A) (A) (A) (A) (A) (A) (A) (A) (A) (A)
                 (A) (A) (A) (A) (A) (A) (A) (A) (A) (A) (A) (A)
                 (A) (A) (A) (A) (A) (A) (A) (A) (A) (A) (A) (A)
                 (A) (A) (A) (A) (A) (A) (A) (A) (A) (A) (A) (A)
                 (A) (A) (A) (A) (A) (A) (A) (A) (A) (A) (A) (A)
                 (A) (A) (A) (A) (A) (A) (A) (A) (A) (A) (A) (A)
                 (A) (A) (A)
 The electronic state is 2-A.
 Alpha  occ. eigenvalues --  -38.45223 -38.44123 -38.44041 -38.43810 -38.43602
 Alpha  occ. eigenvalues --  -38.43368 -38.43065  -2.21106  -2.20092  -2.19945
 Alpha  occ. eigenvalues --   -2.19822  -2.19613  -2.19525  -2.19166  -1.14811
 Alpha  occ. eigenvalues --   -1.14772  -1.14729  -1.13868  -1.13749  -1.13705
 Alpha  occ. eigenvalues --   -1.13691  -1.13637  -1.13583  -1.13560  -1.13502
 Alpha  occ. eigenvalues --   -1.13408  -1.13386  -1.13253  -1.13223  -1.13190
 Alpha  occ. eigenvalues --   -1.13162  -1.13072  -1.12830  -1.12779  -1.12747
 Alpha  occ. eigenvalues --   -0.19768  -0.14730  -0.11585  -0.11303
 Alpha virt. eigenvalues --   -0.06711  -0.05027  -0.03895  -0.03282  -0.02780
 Alpha virt. eigenvalues --   -0.02328  -0.02137  -0.00959  -0.00313   0.00054
 Alpha virt. eigenvalues --    0.00180   0.00355   0.00648   0.00832   0.00913
 Alpha virt. eigenvalues --    0.01044   0.01134   0.01180   0.01370   0.01423
 Alpha virt. eigenvalues --    0.01652   0.01674   0.01799   0.01983   0.02050
 Alpha virt. eigenvalues --    0.02180   0.02526   0.02666   0.02715   0.02751
 Alpha virt. eigenvalues --    0.02772   0.02973   0.03051   0.03070   0.03173
 Alpha virt. eigenvalues --    0.03203   0.03336   0.03578   0.03891   0.03971
 Alpha virt. eigenvalues --    0.04399   0.04525   0.04713   0.05021   0.05190
 Alpha virt. eigenvalues --    0.05345   0.05461   0.05794   0.05944   0.06208
 Alpha virt. eigenvalues --    0.06701   0.06877   0.07085   0.07222   0.07637
 Alpha virt. eigenvalues --    0.07947   0.08371   0.08841   0.09058   0.09293
 Alpha virt. eigenvalues --    0.09692   0.10071   0.11344   0.11686   0.12025
 Alpha virt. eigenvalues --    0.12266   0.13177   0.13442   0.13722   0.13885
 Alpha virt. eigenvalues --    0.14196   0.14331   0.14677   0.15236   0.15520
 Alpha virt. eigenvalues --    0.16415   0.16916   0.18291   0.20363   0.23439
 Alpha virt. eigenvalues --    0.25418   0.27743   0.28228   0.28442   0.28669
 Alpha virt. eigenvalues --    0.29586   0.31268   0.32158   0.32941   0.34392
 Alpha virt. eigenvalues --    0.36278   0.37114   0.38062   0.38485   0.39305
 Alpha virt. eigenvalues --    0.40616   0.41640   0.41744   0.42909   0.43240
 Alpha virt. eigenvalues --    0.43691   0.44286   0.44516   0.45038   0.45258
 Alpha virt. eigenvalues --    0.46060   0.46543   0.47111   0.47431   0.48103
 Alpha virt. eigenvalues --    0.48381   0.49103   0.49329   0.50034   0.50494
 Alpha virt. eigenvalues --    0.51464   0.51893   0.52896   0.53713   0.54419
 Alpha virt. eigenvalues --    0.54947   0.55836   0.56987   0.60236   0.64821
 Alpha virt. eigenvalues --    0.65659   0.68058   0.70159   0.71195   0.72324
 Alpha virt. eigenvalues --    0.73597   0.75426   0.75912   0.80122   0.83270
 Alpha virt. eigenvalues --    2.09079   2.14068   2.20266   2.20370   2.24955
 Alpha virt. eigenvalues --    2.29069   2.35739   4.40342   4.41820   4.42120
 Alpha virt. eigenvalues --    4.42392   4.42607   4.43194   4.43732   4.45323
 Alpha virt. eigenvalues --    4.45900   4.47632   4.48860   4.55118   4.57513
 Alpha virt. eigenvalues --    4.61140   4.63383   4.66760   4.67279   4.68874
 Alpha virt. eigenvalues --    4.74131   4.78771   4.82988  96.29706  96.36677
 Alpha virt. eigenvalues --   96.44487  96.45184  96.51578  96.56657  96.65590
  Beta  occ. eigenvalues --  -38.45221 -38.44119 -38.44011 -38.43752 -38.43552
  Beta  occ. eigenvalues --  -38.43349 -38.43001  -2.21102  -2.20086  -2.19892
  Beta  occ. eigenvalues --   -2.19715  -2.19529  -2.19496  -2.19052  -1.14809
  Beta  occ. eigenvalues --   -1.14770  -1.14721  -1.13863  -1.13726  -1.13692
  Beta  occ. eigenvalues --   -1.13655  -1.13578  -1.13531  -1.13523  -1.13432
  Beta  occ. eigenvalues --   -1.13328  -1.13310  -1.13202  -1.13183  -1.13119
  Beta  occ. eigenvalues --   -1.13116  -1.13036  -1.12759  -1.12709  -1.12641
  Beta  occ. eigenvalues --   -0.19069  -0.14400  -0.11356
  Beta virt. eigenvalues --   -0.07292  -0.06420  -0.04979  -0.03244  -0.03204
  Beta virt. eigenvalues --   -0.02438  -0.01824  -0.01285  -0.00856  -0.00031
  Beta virt. eigenvalues --    0.00139   0.00245   0.00376   0.00776   0.00867
  Beta virt. eigenvalues --    0.00939   0.01108   0.01246   0.01275   0.01511
  Beta virt. eigenvalues --    0.01532   0.01731   0.01812   0.01888   0.02013
  Beta virt. eigenvalues --    0.02222   0.02256   0.02545   0.02733   0.02761
  Beta virt. eigenvalues --    0.02788   0.02806   0.03025   0.03078   0.03179
  Beta virt. eigenvalues --    0.03234   0.03243   0.03380   0.03722   0.04074
  Beta virt. eigenvalues --    0.04132   0.04585   0.04636   0.04790   0.05120
  Beta virt. eigenvalues --    0.05283   0.05445   0.05659   0.05865   0.06119
  Beta virt. eigenvalues --    0.06303   0.06793   0.06944   0.07109   0.07434
  Beta virt. eigenvalues --    0.07757   0.08064   0.08499   0.08936   0.09267
  Beta virt. eigenvalues --    0.09389   0.09955   0.10361   0.11505   0.12031
  Beta virt. eigenvalues --    0.12120   0.12522   0.13524   0.13696   0.13903
  Beta virt. eigenvalues --    0.14065   0.14359   0.14432   0.15035   0.15389
  Beta virt. eigenvalues --    0.15726   0.16689   0.17276   0.18450   0.20542
  Beta virt. eigenvalues --    0.23919   0.25616   0.28049   0.28591   0.28788
  Beta virt. eigenvalues --    0.29070   0.29880   0.31509   0.32511   0.33387
  Beta virt. eigenvalues --    0.34747   0.36451   0.37309   0.38351   0.38652
  Beta virt. eigenvalues --    0.39479   0.40859   0.41793   0.41990   0.43131
  Beta virt. eigenvalues --    0.43432   0.43769   0.44389   0.44779   0.45239
  Beta virt. eigenvalues --    0.45399   0.46257   0.46731   0.47257   0.47602
  Beta virt. eigenvalues --    0.48285   0.48638   0.49274   0.49656   0.50256
  Beta virt. eigenvalues --    0.50822   0.51729   0.52115   0.53097   0.53947
  Beta virt. eigenvalues --    0.54607   0.55133   0.56008   0.57225   0.60445
  Beta virt. eigenvalues --    0.64971   0.65862   0.68150   0.70392   0.71376
  Beta virt. eigenvalues --    0.72386   0.73865   0.75547   0.76138   0.80255
  Beta virt. eigenvalues --    0.83383   2.09200   2.14124   2.20320   2.20482
  Beta virt. eigenvalues --    2.25159   2.29263   2.35832   4.40383   4.41887
  Beta virt. eigenvalues --    4.42172   4.42476   4.42704   4.43233   4.43796
  Beta virt. eigenvalues --    4.45351   4.45935   4.47674   4.48919   4.55146
  Beta virt. eigenvalues --    4.57615   4.61196   4.63450   4.66842   4.67325
  Beta virt. eigenvalues --    4.68939   4.74182   4.78802   4.83030  96.29749
  Beta virt. eigenvalues --   96.36696  96.44534  96.45205  96.51644  96.56721
  Beta virt. eigenvalues --   96.65628
          Condensed to atoms (all electrons):
               1          2          3          4          5          6
     1  Na  13.590164  -2.571422   0.967146  -0.522718   0.214968  -0.202481
     2  Na  -2.571422  13.568919  -0.943846   0.534498   0.037584   0.133018
     3  Na   0.967146  -0.943846  11.684041   0.069000  -0.454379   0.154501
     4  Na  -0.522718   0.534498   0.069000  10.916043   0.072032   0.106403
     5  Na   0.214968   0.037584  -0.454379   0.072032  11.665541  -0.158218
     6  Na  -0.202481   0.133018   0.154501   0.106403  -0.158218  10.879616
     7  Na  -1.005546   0.347301  -0.001619  -0.101735  -0.487042   0.281770
               7
     1  Na  -1.005546
     2  Na   0.347301
     3  Na  -0.001619
     4  Na  -0.101735
     5  Na  -0.487042
     6  Na   0.281770
     7  Na  11.757248
          Atomic-Atomic Spin Densities.
               1          2          3          4          5          6
     1  Na   0.370540  -0.155815   0.349904   0.063144   0.026466   0.030558
     2  Na  -0.155815   0.317877  -0.328462  -0.079999   0.103035  -0.092219
     3  Na   0.349904  -0.328462   0.233975  -0.022112   0.191704  -0.072972
     4  Na   0.063144  -0.079999  -0.022112   0.014041   0.071086  -0.049446
     5  Na   0.026466   0.103035   0.191704   0.071086  -0.057929   0.138146
     6  Na   0.030558  -0.092219  -0.072972  -0.049446   0.138146  -0.010201
     7  Na  -0.112143   0.028012  -0.059066   0.004178  -0.047803   0.061232
               7
     1  Na  -0.112143
     2  Na   0.028012
     3  Na  -0.059066
     4  Na   0.004178
     5  Na  -0.047803
     6  Na   0.061232
     7  Na   0.036835
 Mulliken charges and spin densities:
               1          2
     1  Na   0.529890   0.572656
     2  Na  -0.106052  -0.207570
     3  Na  -0.474843   0.292971
     4  Na  -0.073523   0.000894
     5  Na   0.109513   0.424706
     6  Na  -0.194609   0.005097
     7  Na   0.209623  -0.088754
 Sum of Mulliken charges =  -0.00000   1.00000
 Mulliken charges and spin densities with hydrogens summed into heavy atoms:
               1          2
     1  Na   0.529890   0.572656
     2  Na  -0.106052  -0.207570
     3  Na  -0.474843   0.292971
     4  Na  -0.073523   0.000894
     5  Na   0.109513   0.424706
     6  Na  -0.194609   0.005097
     7  Na   0.209623  -0.088754
 Electronic spatial extent (au):  <R**2>=           2151.1769
 Charge=             -0.0000 electrons
 Dipole moment (field-independent basis, Debye):
    X=             -1.0516    Y=             -0.0264    Z=              0.1666  Tot=              1.0651
 Quadrupole moment (field-independent basis, Debye-Ang):
   XX=            -49.9447   YY=            -73.3568   ZZ=            -70.3106
   XY=              0.1477   XZ=              0.3816   YZ=             -3.1845
 Traceless Quadrupole moment (field-independent basis, Debye-Ang):
   XX=             14.5926   YY=             -8.8194   ZZ=             -5.7732
   XY=              0.1477   XZ=              0.3816   YZ=             -3.1845
 Octapole moment (field-independent basis, Debye-Ang**2):
  XXX=            -52.1866  YYY=              6.3031  ZZZ=              3.8044  XYY=             -2.1672
  XXY=             -6.1816  XXZ=              3.4309  XZZ=              5.6505  YZZ=             -6.6829
  YYZ=              1.6687  XYZ=             -1.4557
 Hexadecapole moment (field-independent basis, Debye-Ang**3):
 XXXX=          -1663.0422 YYYY=          -1143.5249 ZZZZ=           -687.2156 XXXY=             92.9129
 XXXZ=             -3.0526 YYYX=            -24.0957 YYYZ=            -53.2027 ZZZX=              0.6839
 ZZZY=             -8.3276 XXYY=           -457.3215 XXZZ=           -457.6934 YYZZ=           -290.0406
 XXYZ=            -17.8657 YYXZ=             12.4759 ZZXY=            -25.9367
 N-N= 3.658273747826D+02 E-N=-3.461071540606D+03  KE= 1.133231298573D+03
                          Isotropic Fermi Contact Couplings
        Atom                 a.u.       MegaHertz       Gauss      10(-4) cm-1
     1  Na(23)             0.00221       2.61864       0.93440       0.87348
     2  Na(23)             0.16219     191.87942      68.46735      64.00409
     3  Na(23)             0.22929     271.25272      96.78972      90.48017
     4  Na(23)             0.09028     106.80654      38.11123      35.62683
     5  Na(23)             0.23407     276.90711      98.80734      92.36627
     6  Na(23)            -0.00302      -3.57043      -1.27402      -1.19097
     7  Na(23)             0.00239       2.82441       1.00782       0.94212
 --------------------------------------------------------
       Center         ----  Spin Dipole Couplings  ----
                      3XX-RR        3YY-RR        3ZZ-RR
 --------------------------------------------------------
     1   Atom       -0.035918     -0.032158      0.068075
     2   Atom        0.003708     -0.001329     -0.002378
     3   Atom       -0.006104      0.014567     -0.008462
     4   Atom       -0.018809     -0.008356      0.027166
     5   Atom       -0.017221      0.025630     -0.008409
     6   Atom       -0.009349     -0.008943      0.018292
     7   Atom       -0.002412     -0.003345      0.005757
 --------------------------------------------------------
                        XY            XZ            YZ
 --------------------------------------------------------
     1   Atom       -0.002462      0.015563     -0.002793
     2   Atom       -0.020263     -0.021629      0.025169
     3   Atom        0.008973      0.001339     -0.012082
     4   Atom       -0.003676     -0.005704      0.021094
     5   Atom        0.004008      0.001155     -0.021823
     6   Atom       -0.002201      0.012875      0.004838
     7   Atom        0.000214     -0.001266     -0.002554
 --------------------------------------------------------


 ---------------------------------------------------------------------------------
              Anisotropic Spin Dipole Couplings in Principal Axis System
 ---------------------------------------------------------------------------------

       Atom             a.u.   MegaHertz   Gauss  10(-4) cm-1        Axes

              Baa    -0.0388    -5.483    -1.956    -1.829  0.9466  0.2950 -0.1301
     1 Na(23) Bbb    -0.0316    -4.466    -1.594    -1.490 -0.2878  0.9550  0.0717
              Bcc     0.0704     9.948     3.550     3.318  0.1454 -0.0304  0.9889
 
              Baa    -0.0271    -3.834    -1.368    -1.279  0.0940 -0.6561  0.7488
     2 Na(23) Bbb    -0.0176    -2.480    -0.885    -0.827  0.8051  0.4925  0.3305
              Bcc     0.0447     6.314     2.253     2.106  0.5856 -0.5718 -0.5746
 
              Baa    -0.0163    -2.301    -0.821    -0.768 -0.4846  0.4374  0.7575
     3 Na(23) Bbb    -0.0056    -0.794    -0.283    -0.265  0.8316 -0.0380  0.5541
              Bcc     0.0219     3.095     1.104     1.032  0.2712  0.8984 -0.3453
 
              Baa    -0.0201    -2.832    -1.011    -0.945  0.8925  0.4420 -0.0896
     4 Na(23) Bbb    -0.0177    -2.503    -0.893    -0.835 -0.4353  0.7922 -0.4276
              Bcc     0.0378     5.335     1.904     1.780 -0.1180  0.4207  0.8995
 
              Baa    -0.0211    -2.986    -1.065    -0.996 -0.5967  0.3807  0.7064
     5 Na(23) Bbb    -0.0153    -2.163    -0.772    -0.722  0.8004  0.2191  0.5580
              Bcc     0.0365     5.149     1.837     1.718  0.0577  0.8984 -0.4354
 
              Baa    -0.0165    -2.323    -0.829    -0.775  0.8044  0.4699 -0.3635
     6 Na(23) Bbb    -0.0073    -1.035    -0.369    -0.345 -0.4776  0.8754  0.0747
              Bcc     0.0238     3.358     1.198     1.120  0.3533  0.1135  0.9286
 
              Baa    -0.0040    -0.568    -0.203    -0.189  0.0773  0.9622  0.2613
     7 Na(23) Bbb    -0.0026    -0.365    -0.130    -0.122  0.9871 -0.1108  0.1159
              Bcc     0.0066     0.933     0.333     0.311 -0.1404 -0.2490  0.9583
 

 ---------------------------------------------------------------------------------

 No NMR shielding tensors so no spin-rotation constants.
 Leave Link  601 at Mon Nov 13 15:57:59 2023, MaxMem=  1879048192 cpu:               2.6 elap:               0.2
 (Enter /home/sekinelabo/g16/l701.exe)
 ... and contract with generalized density number  0.
 Compute integral first derivatives.
 Leave Link  701 at Mon Nov 13 15:57:59 2023, MaxMem=  1879048192 cpu:               1.7 elap:               0.1
 (Enter /home/sekinelabo/g16/l702.exe)
 L702 exits ... SP integral derivatives will be done elsewhere.
 Leave Link  702 at Mon Nov 13 15:58:00 2023, MaxMem=  1879048192 cpu:               0.5 elap:               0.0
 (Enter /home/sekinelabo/g16/l703.exe)
 Integral derivatives from FoFJK, PRISM(SPDF).
 Compute integral first derivatives, UseDBF=F ICtDFT=           0.
 Calling FoFJK, ICntrl=      2127 FMM=F ISym2X=0 I1Cent= 0 IOpClX= 1 NMat=1 NMatS=1 NMatT=0.
 FoFJK:  IHMeth= 1 ICntrl=    2127 DoSepK=F KAlg= 0 I1Cent=           0 FoldK=F
 IRaf=         0 NMat=       1 IRICut=       1 DoRegI=T DoRafI=F ISym2E= 0 IDoP0=0 IntGTp=1.
 FoFCou: FMM=F IPFlag=           0 FMFlag=      100000 FMFlg1=         800
         NFxFlg=           0 DoJE=F BraDBF=F KetDBF=F FulRan=T
         wScrn=  0.000000 ICntrl=      2127 IOpCl=  1 I1Cent=           0 NGrid=           0
         NMat0=    1 NMatS0=      1 NMatT0=    0 NMatD0=    1 NMtDS0=    0 NMtDT0=    0
 Symmetry not used in FoFCou.
 Leave Link  703 at Mon Nov 13 15:58:02 2023, MaxMem=  1879048192 cpu:              36.2 elap:               2.3
 (Enter /home/sekinelabo/g16/l716.exe)
 Dipole        =-4.13748426D-01-1.03723797D-02 6.55300552D-02
 ***** Axes restored to original set *****
 -------------------------------------------------------------------
 Center     Atomic                   Forces (Hartrees/Bohr)
 Number     Number              X              Y              Z
 -------------------------------------------------------------------
      1       11          -0.003609584   -0.011040537   -0.006450807
      2       11           0.004868738   -0.011161930    0.008225409
      3       11           0.005089637   -0.004964363   -0.010302250
      4       11           0.001754839    0.008430712   -0.001057035
      5       11           0.000417772    0.008664137    0.012156868
      6       11          -0.001050886    0.014219424   -0.003169221
      7       11          -0.007470516   -0.004147443    0.000597036
 -------------------------------------------------------------------
 Cartesian Forces:  Max     0.014219424 RMS     0.007349063
 Z-matrix is all fixed cartesians, so copy forces.
 Force constants in Cartesian coordinates: 
                1             2             3             4             5 
      1  0.187332D+00
      2  0.376273D-02  0.181785D+00
      3  0.496086D-02  0.145230D-01  0.166993D+00
      4 -0.351173D-01  0.179465D-01 -0.156493D-01  0.710191D-01
      5 -0.106670D-01 -0.286905D-01 -0.564418D-02 -0.169473D-01  0.103726D+00
      6 -0.681915D-02  0.149709D-01 -0.412988D-01  0.804847D-02 -0.254864D-01
      7 -0.453160D-01  0.617479D-02  0.218140D-01 -0.113502D-01  0.634269D-02
      8 -0.126124D-01 -0.397634D-01  0.500302D-02 -0.621250D-02 -0.204106D-01
      9 -0.110135D-01 -0.387516D-02 -0.347744D-01  0.161851D-01 -0.728690D-02
     10 -0.513810D-02 -0.124020D-01  0.107327D-02 -0.892444D-03  0.499712D-02
     11 -0.380107D-02 -0.451045D-04  0.272717D-02 -0.114662D-01 -0.127001D-01
     12 -0.481240D-02 -0.206991D-02  0.680675D-02  0.428728D-02  0.141398D-01
     13 -0.347937D-01 -0.859274D-02 -0.689488D-02 -0.252705D-01  0.105964D-01
     14 -0.105808D-02 -0.340413D-01 -0.211858D-01  0.886259D-02 -0.476779D-01
     15  0.581289D-02 -0.121424D-01 -0.402316D-01 -0.795197D-02  0.190542D-01
     16 -0.256929D-01  0.142386D-02 -0.561320D-02  0.194204D-02  0.542653D-02
     17  0.673055D-02 -0.496595D-01  0.437748D-02  0.601966D-02  0.351175D-02
     18  0.192978D-02 -0.129645D-01 -0.180292D-01  0.154662D-03  0.541333D-02
     19 -0.412736D-01 -0.831321D-02  0.309216D-03 -0.330682D-03  0.251645D-03
     20  0.176453D-01 -0.295852D-01  0.199328D-03  0.179723D-02  0.224156D-02
     21  0.994155D-02  0.155802D-02 -0.394656D-01 -0.507425D-02 -0.189862D-03
                6             7             8             9            10 
      6  0.103067D+00
      7 -0.525049D-02  0.796510D-01
      8  0.260395D-01 -0.218268D-02  0.928540D-01
      9 -0.483840D-01 -0.223707D-01  0.150650D-01  0.116107D+00
     10 -0.633540D-02 -0.167716D-01  0.323766D-02  0.120185D-01  0.566200D-01
     11  0.495685D-02 -0.159132D-01 -0.377243D-01  0.168889D-02  0.209628D-01
     12 -0.186483D-02 -0.321821D-02 -0.273345D-01 -0.253836D-01 -0.151351D-01
     13  0.921908D-02 -0.435485D-02  0.957148D-02  0.625688D-02 -0.303803D-01
     14 -0.242709D-01  0.382072D-02 -0.390170D-02 -0.576686D-02 -0.149414D-01
     15 -0.246396D-01  0.171473D-02 -0.120689D-01 -0.200524D-01  0.467679D-02
     16  0.598269D-03 -0.208765D-02  0.759750D-02 -0.176213D-02 -0.341599D-02
     17  0.500360D-02  0.234596D-02  0.238944D-02  0.162014D-02 -0.170652D-02
     18  0.679458D-02  0.422608D-02 -0.470627D-02  0.420715D-02  0.372205D-02
     19  0.539211D-03  0.229310D-03  0.600956D-03  0.685865D-03 -0.215107D-04
     20 -0.121350D-02 -0.588337D-03  0.655655D-02 -0.144508D-02 -0.147695D-03
     21  0.632554D-02  0.308458D-02 -0.199776D-02  0.828021D-02 -0.200897D-04
               11            12            13            14            15 
     11  0.738811D-01
     12  0.294618D-02  0.511689D-01
     13  0.850735D-02  0.223639D-01  0.124354D+00
     14 -0.244865D-01  0.141474D-01 -0.635006D-02  0.133738D+00
     15 -0.105648D-01 -0.344074D-01 -0.215974D-02  0.242860D-01  0.153872D+00
     16  0.171454D-02 -0.345003D-02 -0.261217D-01  0.137206D-01 -0.328564D-02
     17  0.857063D-03 -0.171852D-02 -0.997454D-02 -0.292112D-01 -0.880208D-02
     18 -0.183746D-02  0.371144D-02 -0.209255D-01  0.162550D-01 -0.379992D-01
     19 -0.423747D-05 -0.354244D-04 -0.343312D-02 -0.405437D-02  0.119293D-02
     20  0.217837D-03 -0.110436D-03 -0.375785D-02  0.558024D-02  0.237970D-03
     21  0.831505D-04 -0.312054D-04 -0.785980D-02 -0.346475D-02  0.345845D-02
               16            17            18            19            20 
     16  0.759553D-01
     17 -0.247380D-02  0.106704D+00
     18  0.132001D-01 -0.662593D-02  0.448896D-01
     19 -0.205791D-01 -0.941323D-03 -0.230721D-02  0.654088D-01
     20 -0.274092D-01 -0.345920D-01  0.446581D-02  0.124605D-01  0.495810D-01
     21  0.312597D-03  0.614530D-02 -0.357439D-02 -0.384584D-03 -0.213409D-02
               21 
     21  0.250069D-01
 Leave Link  716 at Mon Nov 13 15:58:02 2023, MaxMem=  1879048192 cpu:               0.5 elap:               0.0
 (Enter /home/sekinelabo/g16/l103.exe)

 GradGradGradGradGradGradGradGradGradGradGradGradGradGradGradGradGradGrad
 Berny optimization.
 Search for a local minimum.
 Step number   1 out of a maximum of    2
 All quantities printed in internal units (Hartrees-Bohrs-Radians)
 Second derivative matrix not updated -- first step.
 ITU=  0
     Eigenvalues ---    0.03016   0.03902   0.05207   0.07517   0.09560
     Eigenvalues ---    0.11105   0.11490   0.13713   0.15393   0.16905
     Eigenvalues ---    0.18423   0.19122   0.21540   0.23440   0.24769
 Quadratic step=3.206D-01 exceeds max=3.000D-01 adjusted using Lamda=-5.229D-03.
 Angle between NR and scaled steps=   1.65 degrees.
 Angle between quadratic step and forces=  24.72 degrees.
 Linear search not attempted -- first point.
 B after Tr=     0.000000    0.000000    0.000000
         Rot=    1.000000    0.000000   -0.000000    0.000000 Ang=   0.00 deg.
 Variable       Old X    -DE/DX   Delta X   Delta X   Delta X     New X
                                 (Linear)    (Quad)   (Total)
    X1        5.58774  -0.00361   0.00000  -0.02902  -0.02902   5.55871
    Y1        1.59270  -0.01104   0.00000  -0.06539  -0.06539   1.52731
    Z1        1.95404  -0.00645   0.00000  -0.02103  -0.02103   1.93301
    X2        9.84278   0.00487   0.00000   0.07039   0.07039   9.91316
    Y2        0.00000  -0.01116   0.00000  -0.10228  -0.10228  -0.10228
    Z2        5.31794   0.00823   0.00000   0.05700   0.05700   5.37495
    X3       10.91702   0.00509   0.00000   0.07789   0.07789  10.99490
    Y3        1.65074  -0.00496   0.00000  -0.05905  -0.05905   1.59168
    Z3        0.00000  -0.01030   0.00000  -0.06267  -0.06267  -0.06267
    X4       12.06721   0.00175   0.00000   0.04334   0.04334  12.11055
    Y4        6.75763   0.00843   0.00000   0.09561   0.09561   6.85324
    Z4        2.20248  -0.00106   0.00000  -0.01790  -0.01790   2.18458
    X5        7.79898   0.00042   0.00000   0.01958   0.01958   7.81856
    Y5        5.28708   0.00866   0.00000   0.04415   0.04415   5.33123
    Z5        5.64603   0.01216   0.00000   0.07518   0.07518   5.72120
    X6        3.43056  -0.00105   0.00000  -0.04627  -0.04627   3.38428
    Y6        6.80680   0.01422   0.00000   0.10760   0.10760   6.91440
    Z6        2.36446  -0.00317   0.00000  -0.01750  -0.01750   2.34696
    X7        0.00000  -0.00747   0.00000  -0.13591  -0.13591  -0.13591
    Y7        2.30585  -0.00415   0.00000  -0.02064  -0.02064   2.28521
    Z7        2.53530   0.00060   0.00000  -0.01308  -0.01308   2.52222
         Item               Value     Threshold  Converged?
 Maximum Force            0.014219     0.000450     NO 
 RMS     Force            0.007349     0.000300     NO 
 Maximum Displacement     0.135907     0.001800     NO 
 RMS     Displacement     0.065510     0.001200     NO 
 Predicted change in Energy=-4.827390D-03
 GradGradGradGradGradGradGradGradGradGradGradGradGradGradGradGradGradGrad

 Leave Link  103 at Mon Nov 13 15:58:02 2023, MaxMem=  1879048192 cpu:               0.3 elap:               0.0
 (Enter /home/sekinelabo/g16/l9999.exe)
 1\1\GINC-SEKINELABO-XA7R-R37\Force\UB3LYP\6-311+G(d)\Na7(2)\SEKINELABO
 \13-Nov-2023\0\\#P B3LYP/6-311+g(d) force\\Gaussian input prepared by 
 ASE\\0,2\Na,2.9569020846,0.8428182908,1.0340350827\Na,5.208572568,0.,2
 .8141339677\Na,5.7770369711,0.8735329928,0.\Na,6.3856928871,3.57598220
 98,1.1655018075\Na,4.1270424629,2.7978014343,2.9877494137\Na,1.8153716
 196,3.6020050185,1.2512172969\Na,0.,1.2202006545,1.3416252602\\Version
 =ES64L-G16RevB.01\State=2-A\HF=-1136.0999736\S2=0.763681\S2-1=0.\S2A=0
 .750097\RMSD=7.203e-09\RMSF=7.349e-03\Dipole=-0.4137484,-0.0103724,0.0
 655301\Quadrupole=10.8492752,-6.5570166,-4.2922585,0.1097964,0.2837211
 ,-2.3676329\PG=C01 [X(Na7)]\\@


 IT CANNOT BE MY BEAUTY, FOR I HAVE NONE; AND IT CANNOT BE MY WIT,
 FOR HE HAS NOT ENOUGH TO KNOW THAT I HAVE ANY.
 -- CATHARINE SEDLEY, PUZZLED ABOUT WHY SHE WAS MISTRESS TO JAMES II
 Job cpu time:       0 days  0 hours  4 minutes 25.4 seconds.
 Elapsed time:       0 days  0 hours  0 minutes 21.6 seconds.
 File lengths (MBytes):  RWF=     32 Int=      0 D2E=      0 Chk=      5 Scr=      1
 Normal termination of Gaussian 16 at Mon Nov 13 15:58:02 2023.
