 Entering Gaussian System, Link 0=g16
 Initial command:
 /home/sekinelabo/g16/l1.exe "/home/sekinelabo/g16temp/Gau-4182135.inp" -scrdir="/home/sekinelabo/g16temp/"
 Entering Link 1 = /home/sekinelabo/g16/l1.exe PID=   4182137.
  
 Copyright (c) 1988-2017, Gaussian, Inc.  All Rights Reserved.
  
 This is part of the Gaussian(R) 16 program.  It is based on
 the Gaussian(R) 09 system (copyright 2009, Gaussian, Inc.),
 the Gaussian(R) 03 system (copyright 2003, Gaussian, Inc.),
 the Gaussian(R) 98 system (copyright 1998, Gaussian, Inc.),
 the Gaussian(R) 94 system (copyright 1995, Gaussian, Inc.),
 the Gaussian 92(TM) system (copyright 1992, Gaussian, Inc.),
 the Gaussian 90(TM) system (copyright 1990, Gaussian, Inc.),
 the Gaussian 88(TM) system (copyright 1988, Gaussian, Inc.),
 the Gaussian 86(TM) system (copyright 1986, Carnegie Mellon
 University), and the Gaussian 82(TM) system (copyright 1983,
 Carnegie Mellon University). Gaussian is a federally registered
 trademark of Gaussian, Inc.
  
 This software contains proprietary and confidential information,
 including trade secrets, belonging to Gaussian, Inc.
  
 This software is provided under written license and may be
 used, copied, transmitted, or stored only in accord with that
 written license.
  
 The following legend is applicable only to US Government
 contracts under FAR:
  
                    RESTRICTED RIGHTS LEGEND
  
 Use, reproduction and disclosure by the US Government is
 subject to restrictions as set forth in subparagraphs (a)
 and (c) of the Commercial Computer Software - Restricted
 Rights clause in FAR 52.227-19.
  
 Gaussian, Inc.
 340 Quinnipiac St., Bldg. 40, Wallingford CT 06492
  
  
 ---------------------------------------------------------------
 Warning -- This program may not be used in any manner that
 competes with the business of Gaussian, Inc. or will provide
 assistance to any competitor of Gaussian, Inc.  The licensee
 of this program is prohibited from giving any competitor of
 Gaussian, Inc. access to this program.  By using this program,
 the user acknowledges that Gaussian, Inc. is engaged in the
 business of creating and licensing software in the field of
 computational chemistry and represents and warrants to the
 licensee that it is not a competitor of Gaussian, Inc. and that
 it will not use this program in any manner prohibited above.
 ---------------------------------------------------------------
  

 Cite this work as:
 Gaussian 16, Revision B.01,
 M. J. Frisch, G. W. Trucks, H. B. Schlegel, G. E. Scuseria, 
 M. A. Robb, J. R. Cheeseman, G. Scalmani, V. Barone, 
 G. A. Petersson, H. Nakatsuji, X. Li, M. Caricato, A. V. Marenich, 
 J. Bloino, B. G. Janesko, R. Gomperts, B. Mennucci, H. P. Hratchian, 
 J. V. Ortiz, A. F. Izmaylov, J. L. Sonnenberg, D. Williams-Young, 
 F. Ding, F. Lipparini, F. Egidi, J. Goings, B. Peng, A. Petrone, 
 T. Henderson, D. Ranasinghe, V. G. Zakrzewski, J. Gao, N. Rega, 
 G. Zheng, W. Liang, M. Hada, M. Ehara, K. Toyota, R. Fukuda, 
 J. Hasegawa, M. Ishida, T. Nakajima, Y. Honda, O. Kitao, H. Nakai, 
 T. Vreven, K. Throssell, J. A. Montgomery, Jr., J. E. Peralta, 
 F. Ogliaro, M. J. Bearpark, J. J. Heyd, E. N. Brothers, K. N. Kudin, 
 V. N. Staroverov, T. A. Keith, R. Kobayashi, J. Normand, 
 K. Raghavachari, A. P. Rendell, J. C. Burant, S. S. Iyengar, 
 J. Tomasi, M. Cossi, J. M. Millam, M. Klene, C. Adamo, R. Cammi, 
 J. W. Ochterski, R. L. Martin, K. Morokuma, O. Farkas, 
 J. B. Foresman, and D. J. Fox, Gaussian, Inc., Wallingford CT, 2016.
 
 ******************************************
 Gaussian 16:  ES64L-G16RevB.01 20-Dec-2017
                13-Nov-2023 
 ******************************************
 %mem=14GB
 %chk=checkpoint.chk
 %nprocshared=16
 Will use up to   16 processors via shared memory.
 -------------------------
 #P B3LYP/6-311+g(d) force
 -------------------------
 1/10=7,30=1,38=1/1,3;
 2/12=2,17=6,18=5,40=1/2;
 3/5=4,6=6,7=11,11=2,25=1,30=1,71=1,74=-5/1,2,3;
 4//1;
 5/5=2,38=5/2;
 6/7=2,8=2,9=2,10=2,28=1/1;
 7/29=1/1,2,3,16;
 1/10=7,30=1/3;
 99//99;
 Leave Link    1 at Mon Nov 13 20:22:10 2023, MaxMem=  1879048192 cpu:               0.3 elap:               0.0
 (Enter /home/sekinelabo/g16/l101.exe)
 ------------------------------
 Gaussian input prepared by ASE
 ------------------------------
 Symbolic Z-matrix:
 Charge =  0 Multiplicity = 2
 Na                    1.95868   1.88918   2.68217 
 Na                    3.92331   0.        2.26424 
 Na                    0.        0.55605   0.96908 
 Na                    2.51688   1.68398   0. 
 Na                    5.23245   1.28349   0.20829 
 Na                    4.37146   3.09198   2.10536 
 Na                    1.94018   4.33657   1.0843 
 
 ITRead=  0  0  0  0  0  0  0
 MicOpt= -1 -1 -1 -1 -1 -1 -1
 NAtoms=      7 NQM=        7 NQMF=       0 NMMI=      0 NMMIF=      0
                NMic=       0 NMicF=      0.
                    Isotopes and Nuclear Properties:
 (Nuclear quadrupole moments (NQMom) in fm**2, nuclear magnetic moments (NMagM)
  in nuclear magnetons)

  Atom         1           2           3           4           5           6           7
 IAtWgt=          23          23          23          23          23          23          23
 AtmWgt=  22.9897697  22.9897697  22.9897697  22.9897697  22.9897697  22.9897697  22.9897697
 NucSpn=           3           3           3           3           3           3           3
 AtZEff=  -0.0000000  -0.0000000  -0.0000000  -0.0000000  -0.0000000  -0.0000000  -0.0000000
 NQMom=   10.4000000  10.4000000  10.4000000  10.4000000  10.4000000  10.4000000  10.4000000
 NMagM=    2.2175200   2.2175200   2.2175200   2.2175200   2.2175200   2.2175200   2.2175200
 AtZNuc=  11.0000000  11.0000000  11.0000000  11.0000000  11.0000000  11.0000000  11.0000000
 Leave Link  101 at Mon Nov 13 20:22:10 2023, MaxMem=  1879048192 cpu:               2.6 elap:               0.2
 (Enter /home/sekinelabo/g16/l103.exe)

 GradGradGradGradGradGradGradGradGradGradGradGradGradGradGradGradGradGrad
 Berny optimization.
 Initialization pass.
 Trust Radius=3.00D-01 FncErr=1.00D-07 GrdErr=1.00D-07 EigMax=2.50D+02 EigMin=1.00D-04
 Number of steps in this run=      2 maximum allowed number of steps=      2.
 GradGradGradGradGradGradGradGradGradGradGradGradGradGradGradGradGradGrad

 Leave Link  103 at Mon Nov 13 20:22:10 2023, MaxMem=  1879048192 cpu:               0.2 elap:               0.0
 (Enter /home/sekinelabo/g16/l202.exe)
                          Input orientation:                          
 ---------------------------------------------------------------------
 Center     Atomic      Atomic             Coordinates (Angstroms)
 Number     Number       Type             X           Y           Z
 ---------------------------------------------------------------------
      1         11           0        1.958684    1.889182    2.682172
      2         11           0        3.923311    0.000000    2.264242
      3         11           0        0.000000    0.556049    0.969081
      4         11           0        2.516877    1.683978    0.000000
      5         11           0        5.232452    1.283485    0.208294
      6         11           0        4.371462    3.091979    2.105355
      7         11           0        1.940179    4.336571    1.084302
 ---------------------------------------------------------------------
                    Distance matrix (angstroms):
                    1          2          3          4          5
     1  Na   0.000000
     2  Na   2.757432   0.000000
     3  Na   2.923759   4.168813   0.000000
     4  Na   2.747314   3.152877   2.923356   0.000000
     5  Na   4.147830   2.754652   5.337275   2.752840   0.000000
     6  Na   2.756979   3.128325   5.179936   3.139184   2.758767
     7  Na   2.922883   4.912323   4.250872   2.923105   4.574690
                    6          7
     6  Na   0.000000
     7  Na   2.915938   0.000000
 Stoichiometry    Na7(2)
 Framework group  C1[X(Na7)]
 Deg. of freedom    15
 Full point group                 C1      NOp   1
 Largest Abelian subgroup         C1      NOp   1
 Largest concise Abelian subgroup C1      NOp   1
                         Standard orientation:                         
 ---------------------------------------------------------------------
 Center     Atomic      Atomic             Coordinates (Angstroms)
 Number     Number       Type             X           Y           Z
 ---------------------------------------------------------------------
      1         11           0        0.890310    0.054718   -1.351680
      2         11           0       -1.074316   -1.834463   -0.933750
      3         11           0        2.848995   -1.278414    0.361411
      4         11           0        0.332118   -0.150486    1.330492
      5         11           0       -2.383457   -0.550978    1.122199
      6         11           0       -1.522467    1.257515   -0.774863
      7         11           0        0.908816    2.502108    0.246190
 ---------------------------------------------------------------------
 Rotational constants (GHZ):           1.1163979           0.8614378           0.6833464
 Leave Link  202 at Mon Nov 13 20:22:10 2023, MaxMem=  1879048192 cpu:               0.0 elap:               0.0
 (Enter /home/sekinelabo/g16/l301.exe)
 Standard basis: 6-311+G(d) (5D, 7F)
 Ernie: Thresh=  0.10000D-02 Tol=  0.10000D-05 Strict=F.
 There are   217 symmetry adapted cartesian basis functions of A   symmetry.
 There are   210 symmetry adapted basis functions of A   symmetry.
   210 basis functions,   350 primitive gaussians,   217 cartesian basis functions
    39 alpha electrons       38 beta electrons
       nuclear repulsion energy       407.4624531997 Hartrees.
 IExCor=  402 DFT=T Ex+Corr=B3LYP ExCW=0 ScaHFX=  0.200000
 ScaDFX=  0.800000  0.720000  1.000000  0.810000 ScalE2=  1.000000  1.000000
 IRadAn=      5 IRanWt=     -1 IRanGd=            0 ICorTp=0 IEmpDi=  4
 NAtoms=    7 NActive=    7 NUniq=    7 SFac= 1.00D+00 NAtFMM=   60 NAOKFM=F Big=F
 Integral buffers will be    131072 words long.
 Raffenetti 2 integral format.
 Two-electron integral symmetry is turned on.
 Leave Link  301 at Mon Nov 13 20:22:10 2023, MaxMem=  1879048192 cpu:               0.6 elap:               0.0
 (Enter /home/sekinelabo/g16/l302.exe)
 NPDir=0 NMtPBC=     1 NCelOv=     1 NCel=       1 NClECP=     1 NCelD=      1
         NCelK=      1 NCelE2=     1 NClLst=     1 CellRange=     0.0.
 One-electron integrals computed using PRISM.
 One-electron integral symmetry used in STVInt
 NBasis=   210 RedAO= T EigKep=  1.04D-06  NBF=   210
 NBsUse=   210 1.00D-06 EigRej= -1.00D+00 NBFU=   210
 Precomputing XC quadrature grid using
 IXCGrd= 4 IRadAn=           5 IRanWt=          -1 IRanGd=           0 AccXCQ= 0.00D+00.
 Generated NRdTot=       0 NPtTot=           0 NUsed=           0 NTot=          32
 NSgBfM=   211   211   211   211   211 MxSgAt=     7 MxSgA2=     7.
 Leave Link  302 at Mon Nov 13 20:22:10 2023, MaxMem=  1879048192 cpu:               2.1 elap:               0.1
 (Enter /home/sekinelabo/g16/l303.exe)
 DipDrv:  MaxL=1.
 Leave Link  303 at Mon Nov 13 20:22:10 2023, MaxMem=  1879048192 cpu:               0.6 elap:               0.0
 (Enter /home/sekinelabo/g16/l401.exe)
 ExpMin= 7.60D-03 ExpMax= 3.62D+04 ExpMxC= 1.21D+03 IAcc=3 IRadAn=         5 AccDes= 0.00D+00
 Harris functional with IExCor=  402 and IRadAn=       5 diagonalized for initial guess.
 HarFok:  IExCor=  402 AccDes= 0.00D+00 IRadAn=         5 IDoV= 1 UseB2=F ITyADJ=14
 ICtDFT=  3500011 ScaDFX=  1.000000  1.000000  1.000000  1.000000
 FoFCou: FMM=F IPFlag=           0 FMFlag=      100000 FMFlg1=           0
         NFxFlg=           0 DoJE=T BraDBF=F KetDBF=T FulRan=T
         wScrn=  0.000000 ICntrl=       500 IOpCl=  0 I1Cent=   200000004 NGrid=           0
         NMat0=    1 NMatS0=      1 NMatT0=    0 NMatD0=    1 NMtDS0=    0 NMtDT0=    0
 Petite list used in FoFCou.
 Harris En= -1135.85158052318    
 JPrj=0 DoOrth=F DoCkMO=F.
 Initial guess <Sx>= 0.0000 <Sy>= 0.0000 <Sz>= 0.5000 <S**2>= 0.7500 S= 0.5000
 Leave Link  401 at Mon Nov 13 20:22:11 2023, MaxMem=  1879048192 cpu:               4.8 elap:               0.3
 (Enter /home/sekinelabo/g16/l502.exe)
 Keep R1 and R2 ints in memory in canonical form, NReq=507620388.
 FoFCou: FMM=F IPFlag=           0 FMFlag=           0 FMFlg1=           0
         NFxFlg=           0 DoJE=F BraDBF=F KetDBF=F FulRan=T
         wScrn=  0.000000 ICntrl=       600 IOpCl=  0 I1Cent=           0 NGrid=           0
         NMat0=    1 NMatS0=  22155 NMatT0=    0 NMatD0=    1 NMtDS0=    0 NMtDT0=    0
 Symmetry not used in FoFCou.
 Two-electron integral symmetry not used.
 UHF open shell SCF:
 Using DIIS extrapolation, IDIIS=  1040.
 NGot=  1879048192 LenX=  1388082348 LenY=  1388034818
 Requested convergence on RMS density matrix=1.00D-08 within 128 cycles.
 Requested convergence on MAX density matrix=1.00D-06.
 Requested convergence on             energy=1.00D-06.
 No special actions if energy rises.

 Cycle   1  Pass 1  IDiag  1:
 E= -1136.02642267867    
 DIIS: error= 1.61D-02 at cycle   1 NSaved=   1.
 NSaved= 1 IEnMin= 1 EnMin= -1136.02642267867     IErMin= 1 ErrMin= 1.61D-02
 ErrMax= 1.61D-02  0.00D+00 EMaxC= 1.00D-01 BMatC= 2.16D-01 BMatP= 2.16D-01
 IDIUse=3 WtCom= 8.39D-01 WtEn= 1.61D-01
 Coeff-Com:  0.100D+01
 Coeff-En:   0.100D+01
 Coeff:      0.100D+01
 Gap=     0.058 Goal=   None    Shift=    0.000
 Gap=     0.042 Goal=   None    Shift=    0.000
 GapD=    0.042 DampG=0.250 DampE=0.500 DampFc=0.2500 IDamp=-1.
 Damping current iteration by 2.50D-01
 RMSDP=1.03D-01 MaxDP=9.00D+00              OVMax= 2.77D-01

 Cycle   2  Pass 1  IDiag  1:
 E= -1136.04439938411     Delta-E=       -0.017976705447 Rises=F Damp=T
 DIIS: error= 7.48D-03 at cycle   2 NSaved=   2.
 NSaved= 2 IEnMin= 2 EnMin= -1136.04439938411     IErMin= 2 ErrMin= 7.48D-03
 ErrMax= 7.48D-03  0.00D+00 EMaxC= 1.00D-01 BMatC= 8.05D-02 BMatP= 2.16D-01
 IDIUse=3 WtCom= 9.25D-01 WtEn= 7.48D-02
 Coeff-Com: -0.123D+01 0.223D+01
 Coeff-En:   0.000D+00 0.100D+01
 Coeff:     -0.114D+01 0.214D+01
 Gap=     0.071 Goal=   None    Shift=    0.000
 Gap=     0.047 Goal=   None    Shift=    0.000
 RMSDP=4.03D-02 MaxDP=3.49D+00 DE=-1.80D-02 OVMax= 1.94D-01

 Cycle   3  Pass 1  IDiag  1:
 E= -1136.07299254222     Delta-E=       -0.028593158105 Rises=F Damp=F
 DIIS: error= 4.66D-03 at cycle   3 NSaved=   3.
 NSaved= 3 IEnMin= 3 EnMin= -1136.07299254222     IErMin= 3 ErrMin= 4.66D-03
 ErrMax= 4.66D-03  0.00D+00 EMaxC= 1.00D-01 BMatC= 6.55D-03 BMatP= 8.05D-02
 IDIUse=3 WtCom= 9.53D-01 WtEn= 4.66D-02
 Coeff-Com: -0.364D+00 0.651D+00 0.714D+00
 Coeff-En:   0.000D+00 0.000D+00 0.100D+01
 Coeff:     -0.347D+00 0.620D+00 0.727D+00
 Gap=     0.065 Goal=   None    Shift=    0.000
 Gap=     0.045 Goal=   None    Shift=    0.000
 RMSDP=2.35D-02 MaxDP=1.73D+00 DE=-2.86D-02 OVMax= 6.46D-02

 Cycle   4  Pass 1  IDiag  1:
 E= -1136.07494328457     Delta-E=       -0.001950742352 Rises=F Damp=F
 DIIS: error= 3.17D-03 at cycle   4 NSaved=   4.
 NSaved= 4 IEnMin= 4 EnMin= -1136.07494328457     IErMin= 4 ErrMin= 3.17D-03
 ErrMax= 3.17D-03  0.00D+00 EMaxC= 1.00D-01 BMatC= 3.12D-03 BMatP= 6.55D-03
 IDIUse=3 WtCom= 9.68D-01 WtEn= 3.17D-02
 Coeff-Com: -0.123D-01 0.171D-01 0.407D+00 0.588D+00
 Coeff-En:   0.000D+00 0.000D+00 0.335D+00 0.665D+00
 Coeff:     -0.119D-01 0.166D-01 0.405D+00 0.590D+00
 Gap=     0.067 Goal=   None    Shift=    0.000
 Gap=     0.046 Goal=   None    Shift=    0.000
 RMSDP=6.66D-03 MaxDP=5.39D-01 DE=-1.95D-03 OVMax= 2.99D-02

 Cycle   5  Pass 1  IDiag  1:
 E= -1136.07658898314     Delta-E=       -0.001645698565 Rises=F Damp=F
 DIIS: error= 4.04D-04 at cycle   5 NSaved=   5.
 NSaved= 5 IEnMin= 5 EnMin= -1136.07658898314     IErMin= 5 ErrMin= 4.04D-04
 ErrMax= 4.04D-04  0.00D+00 EMaxC= 1.00D-01 BMatC= 4.69D-05 BMatP= 3.12D-03
 IDIUse=3 WtCom= 9.96D-01 WtEn= 4.04D-03
 Coeff-Com: -0.705D-02 0.908D-02 0.222D+00 0.326D+00 0.450D+00
 Coeff-En:   0.000D+00 0.000D+00 0.000D+00 0.000D+00 0.100D+01
 Coeff:     -0.703D-02 0.905D-02 0.221D+00 0.325D+00 0.452D+00
 Gap=     0.067 Goal=   None    Shift=    0.000
 Gap=     0.046 Goal=   None    Shift=    0.000
 RMSDP=1.11D-03 MaxDP=7.03D-02 DE=-1.65D-03 OVMax= 7.15D-03

 Cycle   6  Pass 1  IDiag  1:
 E= -1136.07663222901     Delta-E=       -0.000043245872 Rises=F Damp=F
 DIIS: error= 1.35D-04 at cycle   6 NSaved=   6.
 NSaved= 6 IEnMin= 6 EnMin= -1136.07663222901     IErMin= 6 ErrMin= 1.35D-04
 ErrMax= 1.35D-04  0.00D+00 EMaxC= 1.00D-01 BMatC= 4.89D-06 BMatP= 4.69D-05
 IDIUse=3 WtCom= 9.99D-01 WtEn= 1.35D-03
 Coeff-Com: -0.515D-03 0.303D-03-0.300D-01-0.447D-01 0.213D+00 0.862D+00
 Coeff-En:   0.000D+00 0.000D+00 0.000D+00 0.000D+00 0.624D-01 0.938D+00
 Coeff:     -0.515D-03 0.302D-03-0.299D-01-0.447D-01 0.213D+00 0.862D+00
 Gap=     0.067 Goal=   None    Shift=    0.000
 Gap=     0.046 Goal=   None    Shift=    0.000
 RMSDP=6.02D-04 MaxDP=5.77D-02 DE=-4.32D-05 OVMax= 3.15D-03

 Cycle   7  Pass 1  IDiag  1:
 E= -1136.07663831066     Delta-E=       -0.000006081655 Rises=F Damp=F
 DIIS: error= 6.53D-05 at cycle   7 NSaved=   7.
 NSaved= 7 IEnMin= 7 EnMin= -1136.07663831066     IErMin= 7 ErrMin= 6.53D-05
 ErrMax= 6.53D-05  0.00D+00 EMaxC= 1.00D-01 BMatC= 7.17D-07 BMatP= 4.89D-06
 IDIUse=1 WtCom= 1.00D+00 WtEn= 0.00D+00
 Coeff-Com:  0.216D-03-0.483D-03-0.288D-01-0.419D-01 0.790D-01 0.419D+00
 Coeff-Com:  0.573D+00
 Coeff:      0.216D-03-0.483D-03-0.288D-01-0.419D-01 0.790D-01 0.419D+00
 Coeff:      0.573D+00
 Gap=     0.067 Goal=   None    Shift=    0.000
 Gap=     0.046 Goal=   None    Shift=    0.000
 RMSDP=2.08D-04 MaxDP=2.26D-02 DE=-6.08D-06 OVMax= 1.41D-03

 Cycle   8  Pass 1  IDiag  1:
 E= -1136.07663906765     Delta-E=       -0.000000756987 Rises=F Damp=F
 DIIS: error= 4.07D-05 at cycle   8 NSaved=   8.
 NSaved= 8 IEnMin= 8 EnMin= -1136.07663906765     IErMin= 8 ErrMin= 4.07D-05
 ErrMax= 4.07D-05  0.00D+00 EMaxC= 1.00D-01 BMatC= 2.51D-07 BMatP= 7.17D-07
 IDIUse=1 WtCom= 1.00D+00 WtEn= 0.00D+00
 Coeff-Com:  0.595D-03-0.764D-03-0.420D-02-0.461D-02-0.480D-01-0.145D+00
 Coeff-Com:  0.377D+00 0.825D+00
 Coeff:      0.595D-03-0.764D-03-0.420D-02-0.461D-02-0.480D-01-0.145D+00
 Coeff:      0.377D+00 0.825D+00
 Gap=     0.067 Goal=   None    Shift=    0.000
 Gap=     0.046 Goal=   None    Shift=    0.000
 RMSDP=1.52D-04 MaxDP=1.31D-02 DE=-7.57D-07 OVMax= 1.02D-03

 Cycle   9  Pass 1  IDiag  1:
 E= -1136.07663949243     Delta-E=       -0.000000424785 Rises=F Damp=F
 DIIS: error= 7.54D-06 at cycle   9 NSaved=   9.
 NSaved= 9 IEnMin= 9 EnMin= -1136.07663949243     IErMin= 9 ErrMin= 7.54D-06
 ErrMax= 7.54D-06  0.00D+00 EMaxC= 1.00D-01 BMatC= 9.64D-09 BMatP= 2.51D-07
 IDIUse=1 WtCom= 1.00D+00 WtEn= 0.00D+00
 Coeff-Com:  0.168D-03-0.204D-03 0.175D-02 0.282D-02-0.150D-01-0.552D-01
 Coeff-Com: -0.425D-02 0.112D+00 0.958D+00
 Coeff:      0.168D-03-0.204D-03 0.175D-02 0.282D-02-0.150D-01-0.552D-01
 Coeff:     -0.425D-02 0.112D+00 0.958D+00
 Gap=     0.067 Goal=   None    Shift=    0.000
 Gap=     0.046 Goal=   None    Shift=    0.000
 RMSDP=6.15D-05 MaxDP=4.93D-03 DE=-4.25D-07 OVMax= 2.95D-04

 Cycle  10  Pass 1  IDiag  1:
 E= -1136.07663952921     Delta-E=       -0.000000036780 Rises=F Damp=F
 DIIS: error= 2.99D-06 at cycle  10 NSaved=  10.
 NSaved=10 IEnMin=10 EnMin= -1136.07663952921     IErMin=10 ErrMin= 2.99D-06
 ErrMax= 2.99D-06  0.00D+00 EMaxC= 1.00D-01 BMatC= 2.98D-09 BMatP= 9.64D-09
 IDIUse=1 WtCom= 1.00D+00 WtEn= 0.00D+00
 Coeff-Com: -0.481D-04 0.720D-04 0.137D-02 0.173D-02 0.120D-02 0.447D-03
 Coeff-Com: -0.577D-01-0.826D-01 0.313D+00 0.823D+00
 Coeff:     -0.481D-04 0.720D-04 0.137D-02 0.173D-02 0.120D-02 0.447D-03
 Coeff:     -0.577D-01-0.826D-01 0.313D+00 0.823D+00
 Gap=     0.067 Goal=   None    Shift=    0.000
 Gap=     0.046 Goal=   None    Shift=    0.000
 RMSDP=3.24D-05 MaxDP=3.04D-03 DE=-3.68D-08 OVMax= 1.55D-04

 Cycle  11  Pass 1  IDiag  1:
 E= -1136.07663953810     Delta-E=       -0.000000008883 Rises=F Damp=F
 DIIS: error= 1.65D-06 at cycle  11 NSaved=  11.
 NSaved=11 IEnMin=11 EnMin= -1136.07663953810     IErMin=11 ErrMin= 1.65D-06
 ErrMax= 1.65D-06  0.00D+00 EMaxC= 1.00D-01 BMatC= 7.24D-10 BMatP= 2.98D-09
 IDIUse=1 WtCom= 1.00D+00 WtEn= 0.00D+00
 Coeff-Com: -0.731D-04 0.951D-04 0.625D-04-0.823D-04 0.421D-02 0.143D-01
 Coeff-Com: -0.205D-01-0.582D-01-0.132D+00 0.231D+00 0.962D+00
 Coeff:     -0.731D-04 0.951D-04 0.625D-04-0.823D-04 0.421D-02 0.143D-01
 Coeff:     -0.205D-01-0.582D-01-0.132D+00 0.231D+00 0.962D+00
 Gap=     0.067 Goal=   None    Shift=    0.000
 Gap=     0.046 Goal=   None    Shift=    0.000
 RMSDP=2.07D-05 MaxDP=2.56D-03 DE=-8.88D-09 OVMax= 1.36D-04

 Cycle  12  Pass 1  IDiag  1:
 E= -1136.07663954093     Delta-E=       -0.000000002829 Rises=F Damp=F
 DIIS: error= 1.15D-06 at cycle  12 NSaved=  12.
 NSaved=12 IEnMin=12 EnMin= -1136.07663954093     IErMin=12 ErrMin= 1.15D-06
 ErrMax= 1.15D-06  0.00D+00 EMaxC= 1.00D-01 BMatC= 4.76D-10 BMatP= 7.24D-10
 IDIUse=1 WtCom= 1.00D+00 WtEn= 0.00D+00
 Coeff-Com: -0.352D-04 0.435D-04-0.218D-03-0.374D-03 0.246D-02 0.913D-02
 Coeff-Com: -0.168D-02-0.205D-01-0.149D+00-0.317D-01 0.631D+00 0.561D+00
 Coeff:     -0.352D-04 0.435D-04-0.218D-03-0.374D-03 0.246D-02 0.913D-02
 Coeff:     -0.168D-02-0.205D-01-0.149D+00-0.317D-01 0.631D+00 0.561D+00
 Gap=     0.067 Goal=   None    Shift=    0.000
 Gap=     0.046 Goal=   None    Shift=    0.000
 RMSDP=7.31D-06 MaxDP=7.26D-04 DE=-2.83D-09 OVMax= 5.50D-05

 Cycle  13  Pass 1  IDiag  1:
 E= -1136.07663954180     Delta-E=       -0.000000000873 Rises=F Damp=F
 DIIS: error= 3.64D-07 at cycle  13 NSaved=  13.
 NSaved=13 IEnMin=13 EnMin= -1136.07663954180     IErMin=13 ErrMin= 3.64D-07
 ErrMax= 3.64D-07  0.00D+00 EMaxC= 1.00D-01 BMatC= 3.53D-11 BMatP= 4.76D-10
 IDIUse=1 WtCom= 1.00D+00 WtEn= 0.00D+00
 Coeff-Com:  0.234D-04-0.311D-04-0.207D-04 0.909D-05-0.103D-02-0.335D-02
 Coeff-Com:  0.657D-02 0.161D-01 0.129D-01-0.657D-01-0.190D+00 0.347D-01
 Coeff-Com:  0.119D+01
 Coeff:      0.234D-04-0.311D-04-0.207D-04 0.909D-05-0.103D-02-0.335D-02
 Coeff:      0.657D-02 0.161D-01 0.129D-01-0.657D-01-0.190D+00 0.347D-01
 Coeff:      0.119D+01
 Gap=     0.067 Goal=   None    Shift=    0.000
 Gap=     0.046 Goal=   None    Shift=    0.000
 RMSDP=6.79D-06 MaxDP=5.76D-04 DE=-8.73D-10 OVMax= 5.27D-05

 Cycle  14  Pass 1  IDiag  1:
 E= -1136.07663954206     Delta-E=       -0.000000000265 Rises=F Damp=F
 DIIS: error= 1.88D-07 at cycle  14 NSaved=  14.
 NSaved=14 IEnMin=14 EnMin= -1136.07663954206     IErMin=14 ErrMin= 1.88D-07
 ErrMax= 1.88D-07  0.00D+00 EMaxC= 1.00D-01 BMatC= 6.14D-12 BMatP= 3.53D-11
 IDIUse=1 WtCom= 1.00D+00 WtEn= 0.00D+00
 Coeff-Com:  0.505D-05-0.612D-05 0.105D-04 0.329D-04-0.480D-03-0.154D-02
 Coeff-Com:  0.876D-03 0.410D-02 0.259D-01 0.294D-02-0.104D+00-0.112D+00
 Coeff-Com: -0.559D-01 0.124D+01
 Coeff:      0.505D-05-0.612D-05 0.105D-04 0.329D-04-0.480D-03-0.154D-02
 Coeff:      0.876D-03 0.410D-02 0.259D-01 0.294D-02-0.104D+00-0.112D+00
 Coeff:     -0.559D-01 0.124D+01
 Gap=     0.067 Goal=   None    Shift=    0.000
 Gap=     0.046 Goal=   None    Shift=    0.000
 RMSDP=3.42D-06 MaxDP=3.27D-04 DE=-2.65D-10 OVMax= 2.98D-05

 Cycle  15  Pass 1  IDiag  1:
 E= -1136.07663954209     Delta-E=       -0.000000000028 Rises=F Damp=F
 DIIS: error= 8.31D-08 at cycle  15 NSaved=  15.
 NSaved=15 IEnMin=15 EnMin= -1136.07663954209     IErMin=15 ErrMin= 8.31D-08
 ErrMax= 8.31D-08  0.00D+00 EMaxC= 1.00D-01 BMatC= 9.86D-13 BMatP= 6.14D-12
 IDIUse=1 WtCom= 1.00D+00 WtEn= 0.00D+00
 Coeff-Com: -0.398D-05 0.532D-05 0.363D-05-0.230D-05 0.168D-03 0.508D-03
 Coeff-Com: -0.911D-03-0.250D-02-0.367D-02 0.121D-01 0.339D-01-0.340D-02
 Coeff-Com: -0.192D+00-0.366D-01 0.119D+01
 Coeff:     -0.398D-05 0.532D-05 0.363D-05-0.230D-05 0.168D-03 0.508D-03
 Coeff:     -0.911D-03-0.250D-02-0.367D-02 0.121D-01 0.339D-01-0.340D-02
 Coeff:     -0.192D+00-0.366D-01 0.119D+01
 Gap=     0.067 Goal=   None    Shift=    0.000
 Gap=     0.046 Goal=   None    Shift=    0.000
 RMSDP=1.46D-06 MaxDP=1.30D-04 DE=-2.75D-11 OVMax= 1.28D-05

 Cycle  16  Pass 1  IDiag  1:
 E= -1136.07663954211     Delta-E=       -0.000000000017 Rises=F Damp=F
 DIIS: error= 3.59D-08 at cycle  16 NSaved=  16.
 NSaved=16 IEnMin=16 EnMin= -1136.07663954211     IErMin=16 ErrMin= 3.59D-08
 ErrMax= 3.59D-08  0.00D+00 EMaxC= 1.00D-01 BMatC= 2.71D-13 BMatP= 9.86D-13
 IDIUse=1 WtCom= 1.00D+00 WtEn= 0.00D+00
 Coeff-Com: -0.550D-06 0.643D-06 0.186D-05-0.315D-05 0.740D-04 0.231D-03
 Coeff-Com: -0.996D-04-0.469D-03-0.583D-02-0.118D-02 0.208D-01 0.237D-01
 Coeff-Com:  0.103D-01-0.248D+00 0.380D-01 0.116D+01
 Coeff:     -0.550D-06 0.643D-06 0.186D-05-0.315D-05 0.740D-04 0.231D-03
 Coeff:     -0.996D-04-0.469D-03-0.583D-02-0.118D-02 0.208D-01 0.237D-01
 Coeff:      0.103D-01-0.248D+00 0.380D-01 0.116D+01
 Gap=     0.067 Goal=   None    Shift=    0.000
 Gap=     0.046 Goal=   None    Shift=    0.000
 RMSDP=6.16D-07 MaxDP=4.44D-05 DE=-1.71D-11 OVMax= 5.83D-06

 Cycle  17  Pass 1  IDiag  1:
 E= -1136.07663954211     Delta-E=       -0.000000000000 Rises=F Damp=F
 DIIS: error= 1.42D-08 at cycle  17 NSaved=  17.
 NSaved=17 IEnMin=17 EnMin= -1136.07663954211     IErMin=17 ErrMin= 1.42D-08
 ErrMax= 1.42D-08  0.00D+00 EMaxC= 1.00D-01 BMatC= 6.73D-14 BMatP= 2.71D-13
 IDIUse=1 WtCom= 1.00D+00 WtEn= 0.00D+00
 Coeff-Com:  0.731D-06-0.102D-05-0.204D-06 0.560D-06-0.161D-04-0.194D-04
 Coeff-Com:  0.131D-03 0.290D-03-0.231D-03-0.314D-02-0.242D-02 0.525D-02
 Coeff-Com:  0.479D-01-0.413D-01-0.329D+00 0.308D+00 0.101D+01
 Coeff:      0.731D-06-0.102D-05-0.204D-06 0.560D-06-0.161D-04-0.194D-04
 Coeff:      0.131D-03 0.290D-03-0.231D-03-0.314D-02-0.242D-02 0.525D-02
 Coeff:      0.479D-01-0.413D-01-0.329D+00 0.308D+00 0.101D+01
 Gap=     0.067 Goal=   None    Shift=    0.000
 Gap=     0.046 Goal=   None    Shift=    0.000
 RMSDP=2.98D-07 MaxDP=2.33D-05 DE=-4.55D-13 OVMax= 2.79D-06

 Cycle  18  Pass 1  IDiag  1:
 E= -1136.07663954213     Delta-E=       -0.000000000020 Rises=F Damp=F
 DIIS: error= 4.78D-09 at cycle  18 NSaved=  18.
 NSaved=18 IEnMin=18 EnMin= -1136.07663954213     IErMin=18 ErrMin= 4.78D-09
 ErrMax= 4.78D-09  0.00D+00 EMaxC= 1.00D-01 BMatC= 6.48D-15 BMatP= 6.73D-14
 IDIUse=1 WtCom= 1.00D+00 WtEn= 0.00D+00
 Coeff-Com: -0.121D-07 0.354D-07-0.873D-06 0.236D-06-0.123D-04-0.438D-04
 Coeff-Com:  0.307D-04 0.950D-04 0.952D-03 0.299D-03-0.338D-02-0.337D-02
 Coeff-Com: -0.396D-02 0.445D-01 0.442D-02-0.196D+00-0.387D-01 0.120D+01
 Coeff:     -0.121D-07 0.354D-07-0.873D-06 0.236D-06-0.123D-04-0.438D-04
 Coeff:      0.307D-04 0.950D-04 0.952D-03 0.299D-03-0.338D-02-0.337D-02
 Coeff:     -0.396D-02 0.445D-01 0.442D-02-0.196D+00-0.387D-01 0.120D+01
 Gap=     0.067 Goal=   None    Shift=    0.000
 Gap=     0.046 Goal=   None    Shift=    0.000
 RMSDP=1.07D-07 MaxDP=1.18D-05 DE=-1.96D-11 OVMax= 7.04D-07

 Cycle  19  Pass 1  IDiag  1:
 E= -1136.07663954213     Delta-E=       -0.000000000002 Rises=F Damp=F
 DIIS: error= 1.45D-09 at cycle  19 NSaved=  19.
 NSaved=19 IEnMin=19 EnMin= -1136.07663954213     IErMin=19 ErrMin= 1.45D-09
 ErrMax= 1.45D-09  0.00D+00 EMaxC= 1.00D-01 BMatC= 7.00D-16 BMatP= 6.48D-15
 IDIUse=1 WtCom= 1.00D+00 WtEn= 0.00D+00
 Large coefficients: NSaved= 19 BigCof=    0.00 CofMax=   10.00 Det=-1.07D-15
 Inversion failed.  Reducing to 18 matrices.
 Large coefficients: NSaved= 18 BigCof=    0.00 CofMax=   10.00 Det=-1.07D-15
 Inversion failed.  Reducing to 17 matrices.
 Large coefficients: NSaved= 17 BigCof=    0.00 CofMax=   10.00 Det=-1.09D-15
 Inversion failed.  Reducing to 16 matrices.
 Large coefficients: NSaved= 16 BigCof=    0.00 CofMax=   10.00 Det=-1.14D-15
 Inversion failed.  Reducing to 15 matrices.
 Coeff-Com: -0.138D-05-0.398D-05-0.375D-05 0.120D-05 0.359D-04 0.291D-03
 Coeff-Com: -0.288D-03-0.872D-03-0.261D-02 0.407D-02 0.239D-01-0.333D-01
 Coeff-Com: -0.724D-01-0.473D-01 0.113D+01
 Coeff:     -0.138D-05-0.398D-05-0.375D-05 0.120D-05 0.359D-04 0.291D-03
 Coeff:     -0.288D-03-0.872D-03-0.261D-02 0.407D-02 0.239D-01-0.333D-01
 Coeff:     -0.724D-01-0.473D-01 0.113D+01
 Gap=     0.067 Goal=   None    Shift=    0.000
 Gap=     0.046 Goal=   None    Shift=    0.000
 RMSDP=2.88D-08 MaxDP=2.91D-06 DE=-2.27D-12 OVMax= 2.40D-07

 Cycle  20  Pass 1  IDiag  1:
 E= -1136.07663954212     Delta-E=        0.000000000011 Rises=F Damp=F
 DIIS: error= 5.15D-10 at cycle  20 NSaved=  16.
 NSaved=16 IEnMin=15 EnMin= -1136.07663954213     IErMin=16 ErrMin= 5.15D-10
 ErrMax= 5.15D-10  0.00D+00 EMaxC= 1.00D-01 BMatC= 1.08D-16 BMatP= 7.00D-16
 IDIUse=1 WtCom= 1.00D+00 WtEn= 0.00D+00
 Large coefficients: NSaved= 16 BigCof=    0.00 CofMax=   10.00 Det=-1.68D-16
 Inversion failed.  Reducing to 15 matrices.
 Coeff-Com:  0.709D-06 0.287D-05 0.120D-05-0.183D-04-0.943D-04 0.218D-03
 Coeff-Com:  0.195D-03-0.157D-03-0.637D-03-0.156D-02 0.108D-01 0.388D-02
 Coeff-Com: -0.536D-01-0.201D+00 0.124D+01
 Coeff:      0.709D-06 0.287D-05 0.120D-05-0.183D-04-0.943D-04 0.218D-03
 Coeff:      0.195D-03-0.157D-03-0.637D-03-0.156D-02 0.108D-01 0.388D-02
 Coeff:     -0.536D-01-0.201D+00 0.124D+01
 Gap=     0.067 Goal=   None    Shift=    0.000
 Gap=     0.046 Goal=   None    Shift=    0.000
 RMSDP=2.89D-08 MaxDP=2.28D-06 DE= 1.11D-11 OVMax= 4.34D-08

 Cycle  21  Pass 1  IDiag  1:
 E= -1136.07663954214     Delta-E=       -0.000000000018 Rises=F Damp=F
 DIIS: error= 2.50D-10 at cycle  21 NSaved=  16.
 NSaved=16 IEnMin=16 EnMin= -1136.07663954214     IErMin=16 ErrMin= 2.50D-10
 ErrMax= 2.50D-10  0.00D+00 EMaxC= 1.00D-01 BMatC= 3.15D-17 BMatP= 1.08D-16
 IDIUse=1 WtCom= 1.00D+00 WtEn= 0.00D+00
 Large coefficients: NSaved= 16 BigCof=    0.00 CofMax=   10.00 Det=-5.82D-17
 Inversion failed.  Reducing to 15 matrices.
 Coeff-Com:  0.120D-05 0.362D-05-0.217D-04-0.600D-04 0.988D-04 0.216D-03
 Coeff-Com:  0.450D-03-0.158D-02-0.380D-02 0.106D-01 0.138D-01-0.304D-01
 Coeff-Com: -0.232D+00 0.360D+00 0.883D+00
 Coeff:      0.120D-05 0.362D-05-0.217D-04-0.600D-04 0.988D-04 0.216D-03
 Coeff:      0.450D-03-0.158D-02-0.380D-02 0.106D-01 0.138D-01-0.304D-01
 Coeff:     -0.232D+00 0.360D+00 0.883D+00
 Gap=     0.067 Goal=   None    Shift=    0.000
 Gap=     0.046 Goal=   None    Shift=    0.000
 RMSDP=1.51D-08 MaxDP=1.13D-06 DE=-1.84D-11 OVMax= 2.74D-08

 Cycle  22  Pass 1  IDiag  1:
 E= -1136.07663954213     Delta-E=        0.000000000010 Rises=F Damp=F
 DIIS: error= 8.96D-11 at cycle  22 NSaved=  16.
 NSaved=16 IEnMin=15 EnMin= -1136.07663954214     IErMin=16 ErrMin= 8.96D-11
 ErrMax= 8.96D-11  0.00D+00 EMaxC= 1.00D-01 BMatC= 3.58D-18 BMatP= 3.15D-17
 IDIUse=1 WtCom= 1.00D+00 WtEn= 0.00D+00
 Large coefficients: NSaved= 16 BigCof=    0.00 CofMax=   10.00 Det=-1.25D-17
 Inversion failed.  Reducing to 15 matrices.
 Coeff-Com:  0.267D-06 0.294D-05-0.446D-05-0.260D-04 0.923D-05 0.194D-03
 Coeff-Com: -0.111D-03-0.134D-02 0.472D-03 0.434D-02 0.502D-02-0.399D-01
 Coeff-Com: -0.473D-01 0.187D+00 0.892D+00
 Coeff:      0.267D-06 0.294D-05-0.446D-05-0.260D-04 0.923D-05 0.194D-03
 Coeff:     -0.111D-03-0.134D-02 0.472D-03 0.434D-02 0.502D-02-0.399D-01
 Coeff:     -0.473D-01 0.187D+00 0.892D+00
 Gap=     0.067 Goal=   None    Shift=    0.000
 Gap=     0.046 Goal=   None    Shift=    0.000
 RMSDP=1.12D-08 MaxDP=8.97D-07 DE= 1.05D-11 OVMax= 6.86D-09

 Cycle  23  Pass 1  IDiag  1:
 E= -1136.07663954212     Delta-E=        0.000000000013 Rises=F Damp=F
 DIIS: error= 7.64D-11 at cycle  23 NSaved=  16.
 NSaved=16 IEnMin=14 EnMin= -1136.07663954214     IErMin=16 ErrMin= 7.64D-11
 ErrMax= 7.64D-11  0.00D+00 EMaxC= 1.00D-01 BMatC= 1.10D-18 BMatP= 3.58D-18
 IDIUse=1 WtCom= 1.00D+00 WtEn= 0.00D+00
 Large coefficients: NSaved= 16 BigCof=    0.00 CofMax=   10.00 Det=-2.69D-18
 Inversion failed.  Reducing to 15 matrices.
 Coeff-Com:  0.332D-05 0.516D-05-0.189D-04-0.234D-04-0.236D-04 0.208D-03
 Coeff-Com:  0.360D-03-0.162D-02-0.138D-02 0.840D-02 0.172D-01-0.684D-01
 Coeff-Com: -0.797D-01 0.280D+00 0.845D+00
 Coeff:      0.332D-05 0.516D-05-0.189D-04-0.234D-04-0.236D-04 0.208D-03
 Coeff:      0.360D-03-0.162D-02-0.138D-02 0.840D-02 0.172D-01-0.684D-01
 Coeff:     -0.797D-01 0.280D+00 0.845D+00
 Gap=     0.067 Goal=   None    Shift=    0.000
 Gap=     0.046 Goal=   None    Shift=    0.000
 RMSDP=1.51D-08 MaxDP=1.71D-06 DE= 1.25D-11 OVMax= 3.11D-09

 Cycle  24  Pass 1  IDiag  1:
 E= -1136.07663954212     Delta-E=       -0.000000000007 Rises=F Damp=F
 DIIS: error= 4.02D-11 at cycle  24 NSaved=  16.
 NSaved=16 IEnMin=13 EnMin= -1136.07663954214     IErMin=16 ErrMin= 4.02D-11
 ErrMax= 4.02D-11  0.00D+00 EMaxC= 1.00D-01 BMatC= 3.35D-19 BMatP= 1.10D-18
 IDIUse=1 WtCom= 1.00D+00 WtEn= 0.00D+00
 Large coefficients: NSaved= 16 BigCof=    0.00 CofMax=   10.00 Det=-9.54D-19
 Inversion failed.  Reducing to 15 matrices.
 Coeff-Com:  0.162D-05-0.124D-05-0.762D-05-0.192D-04 0.650D-04 0.229D-03
 Coeff-Com: -0.531D-03-0.958D-03 0.189D-02 0.155D-01-0.212D-01-0.698D-01
 Coeff-Com: -0.240D-01 0.324D+00 0.775D+00
 Coeff:      0.162D-05-0.124D-05-0.762D-05-0.192D-04 0.650D-04 0.229D-03
 Coeff:     -0.531D-03-0.958D-03 0.189D-02 0.155D-01-0.212D-01-0.698D-01
 Coeff:     -0.240D-01 0.324D+00 0.775D+00
 Gap=     0.067 Goal=   None    Shift=    0.000
 Gap=     0.046 Goal=   None    Shift=    0.000
 RMSDP=5.23D-09 MaxDP=6.08D-07 DE=-6.59D-12 OVMax= 1.60D-09

 SCF Done:  E(UB3LYP) =  -1136.07663954     A.U. after   24 cycles
            NFock= 24  Conv=0.52D-08     -V/T= 2.0023
 <Sx>= 0.0000 <Sy>= 0.0000 <Sz>= 0.5000 <S**2>= 0.7602 S= 0.5051
 <L.S>= 0.000000000000E+00
 KE= 1.133507258892D+03 PE=-3.544483646349D+03 EE= 8.674372947150D+02
 Annihilation of the first spin contaminant:
 S**2 before annihilation     0.7602,   after     0.7501
 Leave Link  502 at Mon Nov 13 20:22:31 2023, MaxMem=  1879048192 cpu:             232.6 elap:              20.1
 (Enter /home/sekinelabo/g16/l601.exe)
 Copying SCF densities to generalized density rwf, IOpCl= 1 IROHF=0.

 **********************************************************************

            Population analysis using the SCF Density.

 **********************************************************************

 Orbital symmetries:
 Alpha Orbitals:
       Occupied  (A) (A) (A) (A) (A) (A) (A) (A) (A) (A) (A) (A)
                 (A) (A) (A) (A) (A) (A) (A) (A) (A) (A) (A) (A)
                 (A) (A) (A) (A) (A) (A) (A) (A) (A) (A) (A) (A)
                 (A) (A) (A)
       Virtual   (A) (A) (A) (A) (A) (A) (A) (A) (A) (A) (A) (A)
                 (A) (A) (A) (A) (A) (A) (A) (A) (A) (A) (A) (A)
                 (A) (A) (A) (A) (A) (A) (A) (A) (A) (A) (A) (A)
                 (A) (A) (A) (A) (A) (A) (A) (A) (A) (A) (A) (A)
                 (A) (A) (A) (A) (A) (A) (A) (A) (A) (A) (A) (A)
                 (A) (A) (A) (A) (A) (A) (A) (A) (A) (A) (A) (A)
                 (A) (A) (A) (A) (A) (A) (A) (A) (A) (A) (A) (A)
                 (A) (A) (A) (A) (A) (A) (A) (A) (A) (A) (A) (A)
                 (A) (A) (A) (A) (A) (A) (A) (A) (A) (A) (A) (A)
                 (A) (A) (A) (A) (A) (A) (A) (A) (A) (A) (A) (A)
                 (A) (A) (A) (A) (A) (A) (A) (A) (A) (A) (A) (A)
                 (A) (A) (A) (A) (A) (A) (A) (A) (A) (A) (A) (A)
                 (A) (A) (A) (A) (A) (A) (A) (A) (A) (A) (A) (A)
                 (A) (A) (A) (A) (A) (A) (A) (A) (A) (A) (A) (A)
                 (A) (A) (A)
 Beta  Orbitals:
       Occupied  (A) (A) (A) (A) (A) (A) (A) (A) (A) (A) (A) (A)
                 (A) (A) (A) (A) (A) (A) (A) (A) (A) (A) (A) (A)
                 (A) (A) (A) (A) (A) (A) (A) (A) (A) (A) (A) (A)
                 (A) (A)
       Virtual   (A) (A) (A) (A) (A) (A) (A) (A) (A) (A) (A) (A)
                 (A) (A) (A) (A) (A) (A) (A) (A) (A) (A) (A) (A)
                 (A) (A) (A) (A) (A) (A) (A) (A) (A) (A) (A) (A)
                 (A) (A) (A) (A) (A) (A) (A) (A) (A) (A) (A) (A)
                 (A) (A) (A) (A) (A) (A) (A) (A) (A) (A) (A) (A)
                 (A) (A) (A) (A) (A) (A) (A) (A) (A) (A) (A) (A)
                 (A) (A) (A) (A) (A) (A) (A) (A) (A) (A) (A) (A)
                 (A) (A) (A) (A) (A) (A) (A) (A) (A) (A) (A) (A)
                 (A) (A) (A) (A) (A) (A) (A) (A) (A) (A) (A) (A)
                 (A) (A) (A) (A) (A) (A) (A) (A) (A) (A) (A) (A)
                 (A) (A) (A) (A) (A) (A) (A) (A) (A) (A) (A) (A)
                 (A) (A) (A) (A) (A) (A) (A) (A) (A) (A) (A) (A)
                 (A) (A) (A) (A) (A) (A) (A) (A) (A) (A) (A) (A)
                 (A) (A) (A) (A) (A) (A) (A) (A) (A) (A) (A) (A)
                 (A) (A) (A) (A)
 The electronic state is 2-A.
 Alpha  occ. eigenvalues --  -38.44534 -38.44011 -38.43813 -38.43780 -38.43621
 Alpha  occ. eigenvalues --  -38.43459 -38.43225  -2.20646  -2.20179  -2.19975
 Alpha  occ. eigenvalues --   -2.19927  -2.19896  -2.19689  -2.19248  -1.14541
 Alpha  occ. eigenvalues --   -1.14351  -1.14307  -1.14216  -1.14033  -1.13954
 Alpha  occ. eigenvalues --   -1.13724  -1.13591  -1.13582  -1.13517  -1.13513
 Alpha  occ. eigenvalues --   -1.13498  -1.13471  -1.13446  -1.13423  -1.13318
 Alpha  occ. eigenvalues --   -1.13293  -1.13272  -1.12919  -1.12874  -1.12813
 Alpha  occ. eigenvalues --   -0.21195  -0.13796  -0.12550  -0.12085
 Alpha virt. eigenvalues --   -0.05373  -0.04449  -0.03729  -0.03489  -0.02821
 Alpha virt. eigenvalues --   -0.02705  -0.01264  -0.00715  -0.00213   0.00338
 Alpha virt. eigenvalues --    0.00713   0.00830   0.00926   0.01051   0.01069
 Alpha virt. eigenvalues --    0.01177   0.01275   0.01343   0.01414   0.01466
 Alpha virt. eigenvalues --    0.01600   0.01646   0.01914   0.01937   0.02025
 Alpha virt. eigenvalues --    0.02674   0.02727   0.02874   0.02901   0.02994
 Alpha virt. eigenvalues --    0.03031   0.03067   0.03103   0.03206   0.03240
 Alpha virt. eigenvalues --    0.03294   0.03330   0.03451   0.03835   0.03985
 Alpha virt. eigenvalues --    0.04488   0.04661   0.04881   0.05052   0.05207
 Alpha virt. eigenvalues --    0.05473   0.05610   0.05784   0.06195   0.06343
 Alpha virt. eigenvalues --    0.06645   0.06825   0.07233   0.07703   0.07775
 Alpha virt. eigenvalues --    0.08023   0.08316   0.08796   0.09066   0.09220
 Alpha virt. eigenvalues --    0.09781   0.10129   0.11486   0.11870   0.12581
 Alpha virt. eigenvalues --    0.13382   0.13414   0.13692   0.13804   0.14403
 Alpha virt. eigenvalues --    0.14615   0.14706   0.14894   0.15406   0.16070
 Alpha virt. eigenvalues --    0.16317   0.16870   0.16972   0.17773   0.19942
 Alpha virt. eigenvalues --    0.24682   0.25564   0.26866   0.27627   0.29192
 Alpha virt. eigenvalues --    0.31217   0.31742   0.32174   0.33261   0.34692
 Alpha virt. eigenvalues --    0.34969   0.36953   0.37575   0.38374   0.39613
 Alpha virt. eigenvalues --    0.40313   0.41064   0.41521   0.42496   0.43935
 Alpha virt. eigenvalues --    0.44452   0.44842   0.45215   0.45838   0.46452
 Alpha virt. eigenvalues --    0.47081   0.47845   0.48076   0.48831   0.49291
 Alpha virt. eigenvalues --    0.50431   0.50555   0.51260   0.51781   0.52494
 Alpha virt. eigenvalues --    0.52613   0.54208   0.54737   0.55732   0.56553
 Alpha virt. eigenvalues --    0.57558   0.59788   0.61772   0.63117   0.64400
 Alpha virt. eigenvalues --    0.69156   0.72655   0.72971   0.76052   0.76855
 Alpha virt. eigenvalues --    0.78391   0.80732   0.82533   0.84692   0.85557
 Alpha virt. eigenvalues --    0.89232   2.13493   2.21034   2.22841   2.24406
 Alpha virt. eigenvalues --    2.30899   2.33823   2.43180   4.41676   4.41866
 Alpha virt. eigenvalues --    4.42444   4.43329   4.43449   4.45984   4.46794
 Alpha virt. eigenvalues --    4.47457   4.48632   4.49043   4.55703   4.60882
 Alpha virt. eigenvalues --    4.66524   4.69878   4.70374   4.77707   4.78939
 Alpha virt. eigenvalues --    4.83630   4.84338   4.87950   4.94952  96.35458
 Alpha virt. eigenvalues --   96.45514  96.50314  96.51250  96.60552  96.65280
 Alpha virt. eigenvalues --   96.76850
  Beta  occ. eigenvalues --  -38.44495 -38.44007 -38.43744 -38.43742 -38.43553
  Beta  occ. eigenvalues --  -38.43427 -38.43219  -2.20579  -2.20062  -2.19923
  Beta  occ. eigenvalues --   -2.19852  -2.19834  -2.19638  -2.19241  -1.14497
  Beta  occ. eigenvalues --   -1.14277  -1.14258  -1.14144  -1.13935  -1.13881
  Beta  occ. eigenvalues --   -1.13675  -1.13557  -1.13518  -1.13499  -1.13462
  Beta  occ. eigenvalues --   -1.13447  -1.13385  -1.13376  -1.13363  -1.13281
  Beta  occ. eigenvalues --   -1.13261  -1.13179  -1.12911  -1.12839  -1.12809
  Beta  occ. eigenvalues --   -0.20367  -0.13560  -0.12289
  Beta virt. eigenvalues --   -0.07691  -0.05324  -0.04403  -0.03488  -0.02938
  Beta virt. eigenvalues --   -0.02082  -0.01551  -0.01150  -0.00686   0.00022
  Beta virt. eigenvalues --    0.00372   0.00717   0.00879   0.00924   0.01090
  Beta virt. eigenvalues --    0.01140   0.01259   0.01327   0.01445   0.01559
  Beta virt. eigenvalues --    0.01573   0.01671   0.01754   0.01960   0.01993
  Beta virt. eigenvalues --    0.02188   0.02689   0.02723   0.02861   0.02954
  Beta virt. eigenvalues --    0.03020   0.03045   0.03107   0.03158   0.03257
  Beta virt. eigenvalues --    0.03325   0.03334   0.03476   0.03630   0.03934
  Beta virt. eigenvalues --    0.04136   0.04576   0.04789   0.05035   0.05194
  Beta virt. eigenvalues --    0.05400   0.05571   0.05762   0.06040   0.06195
  Beta virt. eigenvalues --    0.06510   0.06705   0.06858   0.07385   0.07781
  Beta virt. eigenvalues --    0.07863   0.08132   0.08428   0.08901   0.09224
  Beta virt. eigenvalues --    0.09399   0.09943   0.10420   0.11827   0.12242
  Beta virt. eigenvalues --    0.12918   0.13496   0.13552   0.13849   0.14009
  Beta virt. eigenvalues --    0.14707   0.14857   0.14968   0.15099   0.15589
  Beta virt. eigenvalues --    0.16337   0.16626   0.17139   0.17271   0.18211
  Beta virt. eigenvalues --    0.20205   0.25136   0.25689   0.27004   0.27968
  Beta virt. eigenvalues --    0.29657   0.31743   0.32177   0.32423   0.33589
  Beta virt. eigenvalues --    0.34944   0.35238   0.37218   0.37947   0.38726
  Beta virt. eigenvalues --    0.39754   0.40700   0.41276   0.41634   0.42755
  Beta virt. eigenvalues --    0.44106   0.44580   0.45050   0.45377   0.46104
  Beta virt. eigenvalues --    0.46663   0.47206   0.47986   0.48239   0.49030
  Beta virt. eigenvalues --    0.49568   0.50666   0.50718   0.51379   0.51952
  Beta virt. eigenvalues --    0.52779   0.52844   0.54353   0.54906   0.56133
  Beta virt. eigenvalues --    0.56848   0.57963   0.60077   0.61990   0.63525
  Beta virt. eigenvalues --    0.64594   0.69338   0.72775   0.73235   0.76405
  Beta virt. eigenvalues --    0.77077   0.78632   0.80863   0.82723   0.84862
  Beta virt. eigenvalues --    0.85824   0.89419   2.13532   2.21074   2.22989
  Beta virt. eigenvalues --    2.24476   2.30982   2.34142   2.43402   4.41753
  Beta virt. eigenvalues --    4.41917   4.42563   4.43414   4.43516   4.46016
  Beta virt. eigenvalues --    4.46813   4.47517   4.48679   4.49110   4.55788
  Beta virt. eigenvalues --    4.60977   4.66607   4.69910   4.70401   4.77777
  Beta virt. eigenvalues --    4.79027   4.83711   4.84395   4.88012   4.95033
  Beta virt. eigenvalues --   96.35477  96.45531  96.50353  96.51288  96.60588
  Beta virt. eigenvalues --   96.65370  96.76934
          Condensed to atoms (all electrons):
               1          2          3          4          5          6
     1  Na  15.517925  -0.604033  -0.240384  -2.128490   0.167460  -2.307603
     2  Na  -0.604033  12.923765  -0.100224  -0.431080   0.022848   0.423723
     3  Na  -0.240384  -0.100224  12.798428   0.325780  -1.065842  -0.806115
     4  Na  -2.128490  -0.431080   0.325780  18.059179  -4.117164   0.820384
     5  Na   0.167460   0.022848  -1.065842  -4.117164  19.001334  -0.861857
     6  Na  -2.307603   0.423723  -0.806115   0.820384  -0.861857  15.177332
     7  Na   1.005680  -0.915041  -0.006928  -0.639354  -3.477583  -1.418884
               7
     1  Na   1.005680
     2  Na  -0.915041
     3  Na  -0.006928
     4  Na  -0.639354
     5  Na  -3.477583
     6  Na  -1.418884
     7  Na  16.231449
          Atomic-Atomic Spin Densities.
               1          2          3          4          5          6
     1  Na   1.021771   0.118122  -0.308056  -1.552198   0.094178   0.127707
     2  Na   0.118122   0.027291   0.221480  -0.233681  -0.265672  -0.080582
     3  Na  -0.308056   0.221480   0.171370  -0.155142  -0.263867   0.603773
     4  Na  -1.552198  -0.233681  -0.155142   3.639016  -0.750536   0.626181
     5  Na   0.094178  -0.265672  -0.263867  -0.750536   1.659653  -0.533352
     6  Na   0.127707  -0.080582   0.603773   0.626181  -0.533352  -0.764896
     7  Na   0.463837   0.448856  -0.214337  -1.163560  -0.008007   0.393054
               7
     1  Na   0.463837
     2  Na   0.448856
     3  Na  -0.214337
     4  Na  -1.163560
     5  Na  -0.008007
     6  Na   0.393054
     7  Na   0.109400
 Mulliken charges and spin densities:
               1          2
     1  Na  -0.410556  -0.034639
     2  Na  -0.319959   0.235814
     3  Na   0.095285   0.055221
     4  Na  -0.889255   0.410080
     5  Na   1.330805  -0.067602
     6  Na  -0.026980   0.371884
     7  Na   0.220660   0.029242
 Sum of Mulliken charges =  -0.00000   1.00000
 Mulliken charges and spin densities with hydrogens summed into heavy atoms:
               1          2
     1  Na  -0.410556  -0.034639
     2  Na  -0.319959   0.235814
     3  Na   0.095285   0.055221
     4  Na  -0.889255   0.410080
     5  Na   1.330805  -0.067602
     6  Na  -0.026980   0.371884
     7  Na   0.220660   0.029242
 Electronic spatial extent (au):  <R**2>=           1664.2803
 Charge=             -0.0000 electrons
 Dipole moment (field-independent basis, Debye):
    X=              0.2554    Y=             -0.1534    Z=              0.2402  Tot=              0.3827
 Quadrupole moment (field-independent basis, Debye-Ang):
   XX=            -58.1028   YY=            -67.3548   ZZ=            -68.8919
   XY=              0.1909   XZ=              0.3288   YZ=              0.8432
 Traceless Quadrupole moment (field-independent basis, Debye-Ang):
   XX=              6.6804   YY=             -2.5716   ZZ=             -4.1088
   XY=              0.1909   XZ=              0.3288   YZ=              0.8432
 Octapole moment (field-independent basis, Debye-Ang**2):
  XXX=             12.1774  YYY=              8.4411  ZZZ=              1.7848  XYY=              7.0606
  XXY=            -10.5054  XXZ=              9.2670  XZZ=             -2.5860  YZZ=             -2.9968
  YYZ=             -2.7993  XYZ=              0.8461
 Hexadecapole moment (field-independent basis, Debye-Ang**3):
 XXXX=          -1171.8466 YYYY=          -1000.0406 ZZZZ=           -662.4866 XXXY=            -59.8348
 XXXZ=            -10.4878 YYYX=             42.8274 YYYZ=             33.7384 ZZZX=             -8.5282
 ZZZY=              1.8449 XXYY=           -356.9877 XXZZ=           -315.5356 YYZZ=           -291.4316
 XXYZ=            -20.1420 YYXZ=             27.8827 ZZXY=              6.9269
 N-N= 4.074624531997D+02 E-N=-3.544483646350D+03  KE= 1.133507258892D+03
                          Isotropic Fermi Contact Couplings
        Atom                 a.u.       MegaHertz       Gauss      10(-4) cm-1
     1  Na(23)             0.22260     263.34155      93.96681      87.84129
     2  Na(23)             0.08856     104.76442      37.38255      34.94565
     3  Na(23)            -0.00234      -2.76550      -0.98680      -0.92247
     4  Na(23)             0.23876     282.46523     100.79062      94.22026
     5  Na(23)             0.12806     151.50255      54.05988      50.53581
     6  Na(23)             0.04664      55.17535      19.68794      18.40451
     7  Na(23)            -0.01529     -18.08370      -6.45271      -6.03207
 --------------------------------------------------------
       Center         ----  Spin Dipole Couplings  ----
                      3XX-RR        3YY-RR        3ZZ-RR
 --------------------------------------------------------
     1   Atom        0.014627     -0.016206      0.001578
     2   Atom       -0.025181     -0.005015      0.030196
     3   Atom       -0.006586     -0.008155      0.014741
     4   Atom        0.004084     -0.011999      0.007914
     5   Atom        0.003961     -0.012192      0.008232
     6   Atom       -0.024202     -0.027864      0.052067
     7   Atom       -0.016651     -0.012849      0.029499
 --------------------------------------------------------
                        XY            XZ            YZ
 --------------------------------------------------------
     1   Atom        0.006720      0.040067      0.006744
     2   Atom        0.013508     -0.016751     -0.040747
     3   Atom       -0.002146     -0.006215      0.006818
     4   Atom       -0.001916     -0.017756      0.004496
     5   Atom        0.006737      0.027785      0.007192
     6   Atom       -0.014750     -0.034467      0.032424
     7   Atom        0.001476      0.000638     -0.008510
 --------------------------------------------------------


 ---------------------------------------------------------------------------------
              Anisotropic Spin Dipole Couplings in Principal Axis System
 ---------------------------------------------------------------------------------

       Atom             a.u.   MegaHertz   Gauss  10(-4) cm-1        Axes

              Baa    -0.0325    -4.594    -1.639    -1.532 -0.6423 -0.0514  0.7647
     1 Na(23) Bbb    -0.0175    -2.475    -0.883    -0.825 -0.1414  0.9886 -0.0523
              Bcc     0.0501     7.069     2.522     2.358  0.7532  0.1418  0.6423
 
              Baa    -0.0333    -4.696    -1.676    -1.566 -0.5673  0.7529  0.3337
     2 Na(23) Bbb    -0.0290    -4.091    -1.460    -1.365  0.7883  0.3793  0.4844
              Bcc     0.0622     8.788     3.136     2.931 -0.2381 -0.5379  0.8087
 
              Baa    -0.0101    -1.429    -0.510    -0.477  0.2128  0.9546 -0.2086
     3 Na(23) Bbb    -0.0082    -1.161    -0.414    -0.387  0.9434 -0.1451  0.2984
              Bcc     0.0183     2.591     0.924     0.864 -0.2546  0.2602  0.9314
 
              Baa    -0.0138    -1.953    -0.697    -0.651 -0.3993  0.7770 -0.4867
     4 Na(23) Bbb    -0.0106    -1.499    -0.535    -0.500  0.6377  0.6168  0.4614
              Bcc     0.0244     3.452     1.232     1.152 -0.6587  0.1261  0.7418
 
              Baa    -0.0218    -3.074    -1.097    -1.026  0.7345 -0.0072 -0.6785
     5 Na(23) Bbb    -0.0142    -2.006    -0.716    -0.669 -0.1308  0.9797 -0.1520
              Bcc     0.0360     5.081     1.813     1.695  0.6658  0.2004  0.7187
 
              Baa    -0.0410    -5.792    -2.067    -1.932  0.5589  0.8253 -0.0805
     6 Na(23) Bbb    -0.0363    -5.132    -1.831    -1.712  0.7537 -0.4650  0.4644
              Bcc     0.0774    10.924     3.898     3.644 -0.3458  0.3203  0.8820
 
              Baa    -0.0175    -2.468    -0.881    -0.823  0.8850 -0.4559 -0.0946
     7 Na(23) Bbb    -0.0137    -1.930    -0.689    -0.644  0.4656  0.8696  0.1645
              Bcc     0.0311     4.399     1.569     1.467  0.0072 -0.1897  0.9818
 

 ---------------------------------------------------------------------------------

 No NMR shielding tensors so no spin-rotation constants.
 Leave Link  601 at Mon Nov 13 20:22:31 2023, MaxMem=  1879048192 cpu:               2.7 elap:               0.2
 (Enter /home/sekinelabo/g16/l701.exe)
 ... and contract with generalized density number  0.
 Compute integral first derivatives.
 Leave Link  701 at Mon Nov 13 20:22:31 2023, MaxMem=  1879048192 cpu:               1.7 elap:               0.1
 (Enter /home/sekinelabo/g16/l702.exe)
 L702 exits ... SP integral derivatives will be done elsewhere.
 Leave Link  702 at Mon Nov 13 20:22:31 2023, MaxMem=  1879048192 cpu:               0.4 elap:               0.0
 (Enter /home/sekinelabo/g16/l703.exe)
 Integral derivatives from FoFJK, PRISM(SPDF).
 Compute integral first derivatives, UseDBF=F ICtDFT=           0.
 Calling FoFJK, ICntrl=      2127 FMM=F ISym2X=0 I1Cent= 0 IOpClX= 1 NMat=1 NMatS=1 NMatT=0.
 FoFJK:  IHMeth= 1 ICntrl=    2127 DoSepK=F KAlg= 0 I1Cent=           0 FoldK=F
 IRaf=         0 NMat=       1 IRICut=       1 DoRegI=T DoRafI=F ISym2E= 0 IDoP0=0 IntGTp=1.
 FoFCou: FMM=F IPFlag=           0 FMFlag=      100000 FMFlg1=         800
         NFxFlg=           0 DoJE=F BraDBF=F KetDBF=F FulRan=T
         wScrn=  0.000000 ICntrl=      2127 IOpCl=  1 I1Cent=           0 NGrid=           0
         NMat0=    1 NMatS0=      1 NMatT0=    0 NMatD0=    1 NMtDS0=    0 NMtDT0=    0
 Symmetry not used in FoFCou.
 Leave Link  703 at Mon Nov 13 20:22:34 2023, MaxMem=  1879048192 cpu:              37.9 elap:               2.4
 (Enter /home/sekinelabo/g16/l716.exe)
 Dipole        = 1.00470367D-01-6.03696353D-02 9.44835406D-02
 ***** Axes restored to original set *****
 -------------------------------------------------------------------
 Center     Atomic                   Forces (Hartrees/Bohr)
 Number     Number              X              Y              Z
 -------------------------------------------------------------------
      1       11          -0.016350822    0.001171284    0.023960919
      2       11           0.002074217   -0.022602433    0.009921781
      3       11          -0.009615293   -0.006799941   -0.001405827
      4       11          -0.005823079   -0.003297752   -0.022530303
      5       11           0.021611966   -0.004053459   -0.017105003
      6       11           0.016440921    0.017781039    0.011539913
      7       11          -0.008337911    0.017801261   -0.004381482
 -------------------------------------------------------------------
 Cartesian Forces:  Max     0.023960919 RMS     0.013888774
 Z-matrix is all fixed cartesians, so copy forces.
 Force constants in Cartesian coordinates: 
                1             2             3             4             5 
      1  0.214381D+00
      2 -0.398820D-02  0.202932D+00
      3 -0.293657D-01 -0.525281D-02  0.245462D+00
      4 -0.539646D-01  0.268308D-01 -0.667140D-02  0.119684D+00
      5 -0.292351D-02 -0.573291D-01  0.132498D-01 -0.804583D-02  0.166847D+00
      6  0.239675D-01 -0.282891D-01 -0.404223D-01 -0.444451D-02 -0.307481D-01
      7 -0.314504D-01  0.435858D-02  0.649660D-02 -0.775662D-02 -0.519790D-02
      8 -0.243430D-02 -0.408474D-01  0.335157D-02  0.102893D-01  0.706030D-02
      9 -0.280301D-01 -0.145388D-01 -0.445801D-01 -0.531821D-02 -0.308429D-02
     10 -0.318964D-01  0.369775D-02  0.227113D-01 -0.194773D-01 -0.905847D-02
     11  0.299054D-03 -0.276851D-01  0.591537D-03  0.156187D-01 -0.275612D-01
     12 -0.532227D-02 -0.576233D-02 -0.828795D-01 -0.107319D-01 -0.930342D-02
     13 -0.961008D-03  0.315416D-02  0.137079D-01 -0.320857D-01  0.627493D-02
     14  0.280688D-02  0.163922D-01 -0.180858D-02 -0.254851D-01 -0.352565D-01
     15  0.161479D-01 -0.415423D-02  0.527935D-02  0.273197D-01  0.274048D-02
     16 -0.681778D-01 -0.184099D-01 -0.149356D-01 -0.184711D-01  0.867172D-02
     17 -0.240094D-02 -0.549382D-01 -0.946465D-02 -0.286159D-01 -0.505355D-01
     18  0.337491D-01  0.222095D-01 -0.407987D-01 -0.358695D-03  0.207146D-01
     19 -0.279307D-01 -0.156431D-01  0.805685D-02  0.120712D-01  0.102791D-01
     20  0.864102D-02 -0.385246D-01 -0.666863D-03  0.940810D-02 -0.322487D-02
     21 -0.111466D-01  0.357877D-01 -0.420611D-01  0.204962D-03  0.643085D-02
                6             7             8             9            10 
      6  0.125535D+00
      7 -0.303870D-02  0.765415D-01
      8  0.469053D-02  0.117421D-01  0.641909D-01
      9  0.103506D-02  0.549146D-02  0.189130D-02  0.630709D-01
     10 -0.132565D-01 -0.412641D-01  0.979202D-03  0.298331D-01  0.227271D+00
     11  0.351080D-01  0.235258D-03 -0.441653D-01  0.164821D-01  0.959181D-03
     12 -0.401973D-01 -0.896654D-02 -0.396471D-02 -0.471952D-01  0.155118D-01
     13  0.587269D-02 -0.148094D-02  0.191963D-02  0.405280D-04 -0.694229D-01
     14  0.317249D-01 -0.436616D-02  0.991296D-02  0.141730D-02 -0.188820D-02
     15 -0.485528D-01  0.221908D-02 -0.816927D-04  0.755659D-02 -0.348690D-01
     16 -0.880642D-02  0.152942D-02 -0.866462D-02 -0.310318D-02 -0.291584D-01
     17 -0.193904D-01 -0.820002D-02  0.102227D-01 -0.322075D-02 -0.526382D-02
     18 -0.124404D-01 -0.275255D-02 -0.254267D-02  0.153625D-01 -0.275542D-01
     19 -0.294115D-03  0.388119D-02 -0.138313D-01  0.108638D-02 -0.360524D-01
     20  0.690409D-02  0.142817D-02 -0.637411D-02  0.105305D-02  0.105744D-01
     21  0.150423D-01  0.550644D-03 -0.334432D-02  0.475024D-02  0.762338D-02
               11            12            13            14            15 
     11  0.225492D+00
     12  0.978223D-02  0.293046D+00
     13  0.317558D-02  0.204744D-01  0.134732D+00
     14 -0.526031D-01 -0.471991D-02 -0.709353D-02  0.106678D+00
     15  0.580432D-02 -0.445668D-01 -0.324806D-01  0.526588D-02  0.124651D+00
     16 -0.137328D-01 -0.302237D-02 -0.311892D-01  0.247427D-01  0.211205D-01
     17 -0.254762D-01  0.513639D-02 -0.115625D-01 -0.469774D-01 -0.108440D-01
     18 -0.266766D-01 -0.430309D-01 -0.127516D-01 -0.268998D-01 -0.527916D-01
     19 -0.655496D-02 -0.794317D-02  0.407284D-03  0.112834D-01  0.542329D-03
     20 -0.480015D-01  0.883176D-02  0.413171D-02  0.185379D-02  0.126922D-02
     21 -0.410917D-01 -0.351763D-01  0.513667D-02 -0.497975D-02  0.842387D-02
               16            17            18            19            20 
     16  0.194505D+00
     17  0.246561D-01  0.196413D+00
     18  0.253269D-01  0.255394D-01  0.165063D+00
     19 -0.490380D-01  0.313870D-01 -0.156590D-01  0.966615D-01
     20 -0.172632D-01 -0.287081D-01 -0.123446D-01 -0.169201D-01  0.122979D+00
     21 -0.165799D-01  0.122439D-01 -0.313642D-01  0.142108D-01 -0.504671D-02
               21 
     21  0.803853D-01
 Leave Link  716 at Mon Nov 13 20:22:34 2023, MaxMem=  1879048192 cpu:               0.4 elap:               0.0
 (Enter /home/sekinelabo/g16/l103.exe)

 GradGradGradGradGradGradGradGradGradGradGradGradGradGradGradGradGradGrad
 Berny optimization.
 Search for a local minimum.
 Step number   1 out of a maximum of    2
 All quantities printed in internal units (Hartrees-Bohrs-Radians)
 Second derivative matrix not updated -- first step.
 ITU=  0
     Eigenvalues ---    0.07942   0.08904   0.09819   0.12244   0.14847
     Eigenvalues ---    0.19752   0.20817   0.22282   0.23569   0.26929
     Eigenvalues ---    0.27521   0.29127   0.30356   0.31887   0.37046
 Quadratic step=4.107D-01 exceeds max=3.000D-01 adjusted using Lamda=-4.726D-02.
 Angle between NR and scaled steps=   5.71 degrees.
 Angle between quadratic step and forces=  18.60 degrees.
 Linear search not attempted -- first point.
 B after Tr=     0.000000    0.000000    0.000000
         Rot=    1.000000   -0.000000   -0.000000    0.000000 Ang=   0.00 deg.
 Variable       Old X    -DE/DX   Delta X   Delta X   Delta X     New X
                                 (Linear)    (Quad)   (Total)
    X1        3.70138  -0.01635   0.00000  -0.06046  -0.06046   3.64092
    Y1        3.57004   0.00117   0.00000   0.00687   0.00687   3.57690
    Z1        5.06857   0.02396   0.00000   0.07772   0.07772   5.14629
    X2        7.41398   0.00207   0.00000   0.03127   0.03127   7.44526
    Y2        0.00000  -0.02260   0.00000  -0.10134  -0.10134  -0.10134
    Z2        4.27880   0.00992   0.00000   0.04430   0.04430   4.32309
    X3        0.00000  -0.00962   0.00000  -0.09753  -0.09753  -0.09753
    Y3        1.05078  -0.00680   0.00000  -0.05445  -0.05445   0.99633
    Z3        1.83130  -0.00141   0.00000  -0.01068  -0.01068   1.82062
    X4        4.75621  -0.00582   0.00000  -0.01891  -0.01891   4.73729
    Y4        3.18226  -0.00330   0.00000  -0.00881  -0.00881   3.17345
    Z4        0.00000  -0.02253   0.00000  -0.06638  -0.06638  -0.06638
    X5        9.88790   0.02161   0.00000   0.12334   0.12334  10.01124
    Y5        2.42544  -0.00405   0.00000  -0.02999  -0.02999   2.39544
    Z5        0.39362  -0.01711   0.00000  -0.07279  -0.07279   0.32083
    X6        8.26087   0.01644   0.00000   0.07047   0.07047   8.33134
    Y6        5.84299   0.01778   0.00000   0.06826   0.06826   5.91125
    Z6        3.97855   0.01154   0.00000   0.04272   0.04272   4.02127
    X7        3.66641  -0.00834   0.00000  -0.04819  -0.04819   3.61822
    Y7        8.19493   0.01780   0.00000   0.11947   0.11947   8.31440
    Z7        2.04903  -0.00438   0.00000  -0.01490  -0.01490   2.03414
         Item               Value     Threshold  Converged?
 Maximum Force            0.023961     0.000450     NO 
 RMS     Force            0.013889     0.000300     NO 
 Maximum Displacement     0.123339     0.001800     NO 
 RMS     Displacement     0.065488     0.001200     NO 
 Predicted change in Energy=-1.117953D-02
 GradGradGradGradGradGradGradGradGradGradGradGradGradGradGradGradGradGrad

 Leave Link  103 at Mon Nov 13 20:22:34 2023, MaxMem=  1879048192 cpu:               0.2 elap:               0.0
 (Enter /home/sekinelabo/g16/l9999.exe)
 1\1\GINC-SEKINELABO-XA7R-R37\Force\UB3LYP\6-311+G(d)\Na7(2)\SEKINELABO
 \13-Nov-2023\0\\#P B3LYP/6-311+g(d) force\\Gaussian input prepared by 
 ASE\\0,2\Na,1.9586844564,1.8891818354,2.6821718993\Na,3.9233112813,0.,
 2.2642420026\Na,0.,0.5560494714,0.9690814519\Na,2.5168766127,1.6839778
 565,0.\Na,5.2324515027,1.2834851033,0.2082937745\Na,4.3714617649,3.091
 9789203,2.1053553596\Na,1.9401786263,4.3365710381,1.0843022464\\Versio
 n=ES64L-G16RevB.01\State=2-A\HF=-1136.0766395\S2=0.760174\S2-1=0.\S2A=
 0.750059\RMSD=5.229e-09\RMSF=1.389e-02\Dipole=-0.1004704,-0.0603696,-0
 .0944835\Quadrupole=4.9667066,-1.911924,-3.0547825,-0.141903,0.2444448
 ,-0.6268839\PG=C01 [X(Na7)]\\@


  THE LARGE PRINT GIVETH,
  AND THE SMALL PRINT TAKETH AWAY.

                     -- TOM WAITS
 Job cpu time:       0 days  0 hours  4 minutes 48.0 seconds.
 Elapsed time:       0 days  0 hours  0 minutes 23.7 seconds.
 File lengths (MBytes):  RWF=     32 Int=      0 D2E=      0 Chk=      6 Scr=      1
 Normal termination of Gaussian 16 at Mon Nov 13 20:22:34 2023.
