 Entering Gaussian System, Link 0=g16
 Initial command:
 /home/sekinelabo/g16/l1.exe "/home/sekinelabo/g16temp/Gau-4084986.inp" -scrdir="/home/sekinelabo/g16temp/"
 Entering Link 1 = /home/sekinelabo/g16/l1.exe PID=   4084988.
  
 Copyright (c) 1988-2017, Gaussian, Inc.  All Rights Reserved.
  
 This is part of the Gaussian(R) 16 program.  It is based on
 the Gaussian(R) 09 system (copyright 2009, Gaussian, Inc.),
 the Gaussian(R) 03 system (copyright 2003, Gaussian, Inc.),
 the Gaussian(R) 98 system (copyright 1998, Gaussian, Inc.),
 the Gaussian(R) 94 system (copyright 1995, Gaussian, Inc.),
 the Gaussian 92(TM) system (copyright 1992, Gaussian, Inc.),
 the Gaussian 90(TM) system (copyright 1990, Gaussian, Inc.),
 the Gaussian 88(TM) system (copyright 1988, Gaussian, Inc.),
 the Gaussian 86(TM) system (copyright 1986, Carnegie Mellon
 University), and the Gaussian 82(TM) system (copyright 1983,
 Carnegie Mellon University). Gaussian is a federally registered
 trademark of Gaussian, Inc.
  
 This software contains proprietary and confidential information,
 including trade secrets, belonging to Gaussian, Inc.
  
 This software is provided under written license and may be
 used, copied, transmitted, or stored only in accord with that
 written license.
  
 The following legend is applicable only to US Government
 contracts under FAR:
  
                    RESTRICTED RIGHTS LEGEND
  
 Use, reproduction and disclosure by the US Government is
 subject to restrictions as set forth in subparagraphs (a)
 and (c) of the Commercial Computer Software - Restricted
 Rights clause in FAR 52.227-19.
  
 Gaussian, Inc.
 340 Quinnipiac St., Bldg. 40, Wallingford CT 06492
  
  
 ---------------------------------------------------------------
 Warning -- This program may not be used in any manner that
 competes with the business of Gaussian, Inc. or will provide
 assistance to any competitor of Gaussian, Inc.  The licensee
 of this program is prohibited from giving any competitor of
 Gaussian, Inc. access to this program.  By using this program,
 the user acknowledges that Gaussian, Inc. is engaged in the
 business of creating and licensing software in the field of
 computational chemistry and represents and warrants to the
 licensee that it is not a competitor of Gaussian, Inc. and that
 it will not use this program in any manner prohibited above.
 ---------------------------------------------------------------
  

 Cite this work as:
 Gaussian 16, Revision B.01,
 M. J. Frisch, G. W. Trucks, H. B. Schlegel, G. E. Scuseria, 
 M. A. Robb, J. R. Cheeseman, G. Scalmani, V. Barone, 
 G. A. Petersson, H. Nakatsuji, X. Li, M. Caricato, A. V. Marenich, 
 J. Bloino, B. G. Janesko, R. Gomperts, B. Mennucci, H. P. Hratchian, 
 J. V. Ortiz, A. F. Izmaylov, J. L. Sonnenberg, D. Williams-Young, 
 F. Ding, F. Lipparini, F. Egidi, J. Goings, B. Peng, A. Petrone, 
 T. Henderson, D. Ranasinghe, V. G. Zakrzewski, J. Gao, N. Rega, 
 G. Zheng, W. Liang, M. Hada, M. Ehara, K. Toyota, R. Fukuda, 
 J. Hasegawa, M. Ishida, T. Nakajima, Y. Honda, O. Kitao, H. Nakai, 
 T. Vreven, K. Throssell, J. A. Montgomery, Jr., J. E. Peralta, 
 F. Ogliaro, M. J. Bearpark, J. J. Heyd, E. N. Brothers, K. N. Kudin, 
 V. N. Staroverov, T. A. Keith, R. Kobayashi, J. Normand, 
 K. Raghavachari, A. P. Rendell, J. C. Burant, S. S. Iyengar, 
 J. Tomasi, M. Cossi, J. M. Millam, M. Klene, C. Adamo, R. Cammi, 
 J. W. Ochterski, R. L. Martin, K. Morokuma, O. Farkas, 
 J. B. Foresman, and D. J. Fox, Gaussian, Inc., Wallingford CT, 2016.
 
 ******************************************
 Gaussian 16:  ES64L-G16RevB.01 20-Dec-2017
                13-Nov-2023 
 ******************************************
 %mem=14GB
 %chk=checkpoint.chk
 %nprocshared=16
 Will use up to   16 processors via shared memory.
 -------------------------
 #P B3LYP/6-311+g(d) force
 -------------------------
 1/10=7,30=1,38=1/1,3;
 2/12=2,17=6,18=5,40=1/2;
 3/5=4,6=6,7=11,11=2,25=1,30=1,71=1,74=-5/1,2,3;
 4//1;
 5/5=2,38=5/2;
 6/7=2,8=2,9=2,10=2,28=1/1;
 7/29=1/1,2,3,16;
 1/10=7,30=1/3;
 99//99;
 Leave Link    1 at Mon Nov 13 17:34:32 2023, MaxMem=  1879048192 cpu:               0.3 elap:               0.0
 (Enter /home/sekinelabo/g16/l101.exe)
 ------------------------------
 Gaussian input prepared by ASE
 ------------------------------
 Symbolic Z-matrix:
 Charge =  0 Multiplicity = 2
 Na                    3.6567    4.62959   1.115 
 Na                    0.        1.4181    0.10066 
 Na                    0.42412   0.        2.70761 
 Na                    1.66438   2.69224   2.24662 
 Na                    4.5992    2.07523   2.37031 
 Na                    5.1398    0.31363   0. 
 Na                    7.33335   0.91062   1.95688 
 
 ITRead=  0  0  0  0  0  0  0
 MicOpt= -1 -1 -1 -1 -1 -1 -1
 NAtoms=      7 NQM=        7 NQMF=       0 NMMI=      0 NMMIF=      0
                NMic=       0 NMicF=      0.
                    Isotopes and Nuclear Properties:
 (Nuclear quadrupole moments (NQMom) in fm**2, nuclear magnetic moments (NMagM)
  in nuclear magnetons)

  Atom         1           2           3           4           5           6           7
 IAtWgt=          23          23          23          23          23          23          23
 AtmWgt=  22.9897697  22.9897697  22.9897697  22.9897697  22.9897697  22.9897697  22.9897697
 NucSpn=           3           3           3           3           3           3           3
 AtZEff=  -0.0000000  -0.0000000  -0.0000000  -0.0000000  -0.0000000  -0.0000000  -0.0000000
 NQMom=   10.4000000  10.4000000  10.4000000  10.4000000  10.4000000  10.4000000  10.4000000
 NMagM=    2.2175200   2.2175200   2.2175200   2.2175200   2.2175200   2.2175200   2.2175200
 AtZNuc=  11.0000000  11.0000000  11.0000000  11.0000000  11.0000000  11.0000000  11.0000000
 Leave Link  101 at Mon Nov 13 17:34:32 2023, MaxMem=  1879048192 cpu:               2.5 elap:               0.2
 (Enter /home/sekinelabo/g16/l103.exe)

 GradGradGradGradGradGradGradGradGradGradGradGradGradGradGradGradGradGrad
 Berny optimization.
 Initialization pass.
 Trust Radius=3.00D-01 FncErr=1.00D-07 GrdErr=1.00D-07 EigMax=2.50D+02 EigMin=1.00D-04
 Number of steps in this run=      2 maximum allowed number of steps=      2.
 GradGradGradGradGradGradGradGradGradGradGradGradGradGradGradGradGradGrad

 Leave Link  103 at Mon Nov 13 17:34:32 2023, MaxMem=  1879048192 cpu:               0.2 elap:               0.0
 (Enter /home/sekinelabo/g16/l202.exe)
                          Input orientation:                          
 ---------------------------------------------------------------------
 Center     Atomic      Atomic             Coordinates (Angstroms)
 Number     Number       Type             X           Y           Z
 ---------------------------------------------------------------------
      1         11           0        3.656703    4.629588    1.115001
      2         11           0        0.000000    1.418096    0.100663
      3         11           0        0.424116    0.000000    2.707610
      4         11           0        1.664380    2.692240    2.246618
      5         11           0        4.599197    2.075229    2.370307
      6         11           0        5.139802    0.313631    0.000000
      7         11           0        7.333349    0.910624    1.956883
 ---------------------------------------------------------------------
                    Distance matrix (angstroms):
                    1          2          3          4          5
     1  Na   0.000000
     2  Na   4.971322   0.000000
     3  Na   5.866781   2.997840   0.000000
     4  Na   3.000538   2.999787   2.999821   0.000000
     5  Na   2.998139   5.170659   4.674574   3.001525   0.000000
     6  Na   4.697904   5.258093   5.446762   4.773221   3.002305
     7  Na   5.296903   7.581628   7.009303   5.949396   3.000469
                    6          7
     6  Na   0.000000
     7  Na   2.999573   0.000000
 Stoichiometry    Na7(2)
 Framework group  C1[X(Na7)]
 Deg. of freedom    15
 Full point group                 C1      NOp   1
 Largest Abelian subgroup         C1      NOp   1
 Largest concise Abelian subgroup C1      NOp   1
                         Standard orientation:                         
 ---------------------------------------------------------------------
 Center     Atomic      Atomic             Coordinates (Angstroms)
 Number     Number       Type             X           Y           Z
 ---------------------------------------------------------------------
      1         11           0       -0.397054    2.909673    0.384582
      2         11           0        3.259650   -0.301819    1.398920
      3         11           0        2.835533   -1.719916   -1.208027
      4         11           0        1.595270    0.972324   -0.747035
      5         11           0       -1.339547    0.355314   -0.870724
      6         11           0       -1.880153   -1.406285    1.499583
      7         11           0       -4.073699   -0.809291   -0.457300
 ---------------------------------------------------------------------
 Rotational constants (GHZ):           0.9745022           0.4341780           0.3756960
 Leave Link  202 at Mon Nov 13 17:34:32 2023, MaxMem=  1879048192 cpu:               0.1 elap:               0.0
 (Enter /home/sekinelabo/g16/l301.exe)
 Standard basis: 6-311+G(d) (5D, 7F)
 Ernie: Thresh=  0.10000D-02 Tol=  0.10000D-05 Strict=F.
 There are   217 symmetry adapted cartesian basis functions of A   symmetry.
 There are   210 symmetry adapted basis functions of A   symmetry.
   210 basis functions,   350 primitive gaussians,   217 cartesian basis functions
    39 alpha electrons       38 beta electrons
       nuclear repulsion energy       333.3750510354 Hartrees.
 IExCor=  402 DFT=T Ex+Corr=B3LYP ExCW=0 ScaHFX=  0.200000
 ScaDFX=  0.800000  0.720000  1.000000  0.810000 ScalE2=  1.000000  1.000000
 IRadAn=      5 IRanWt=     -1 IRanGd=            0 ICorTp=0 IEmpDi=  4
 NAtoms=    7 NActive=    7 NUniq=    7 SFac= 1.00D+00 NAtFMM=   60 NAOKFM=F Big=F
 Integral buffers will be    131072 words long.
 Raffenetti 2 integral format.
 Two-electron integral symmetry is turned on.
 Leave Link  301 at Mon Nov 13 17:34:32 2023, MaxMem=  1879048192 cpu:               0.5 elap:               0.0
 (Enter /home/sekinelabo/g16/l302.exe)
 NPDir=0 NMtPBC=     1 NCelOv=     1 NCel=       1 NClECP=     1 NCelD=      1
         NCelK=      1 NCelE2=     1 NClLst=     1 CellRange=     0.0.
 One-electron integrals computed using PRISM.
 One-electron integral symmetry used in STVInt
 NBasis=   210 RedAO= T EigKep=  1.36D-06  NBF=   210
 NBsUse=   210 1.00D-06 EigRej= -1.00D+00 NBFU=   210
 Precomputing XC quadrature grid using
 IXCGrd= 4 IRadAn=           5 IRanWt=          -1 IRanGd=           0 AccXCQ= 0.00D+00.
 Generated NRdTot=       0 NPtTot=           0 NUsed=           0 NTot=          32
 NSgBfM=   208   208   208   208   208 MxSgAt=     7 MxSgA2=     7.
 Leave Link  302 at Mon Nov 13 17:34:32 2023, MaxMem=  1879048192 cpu:               2.3 elap:               0.2
 (Enter /home/sekinelabo/g16/l303.exe)
 DipDrv:  MaxL=1.
 Leave Link  303 at Mon Nov 13 17:34:32 2023, MaxMem=  1879048192 cpu:               0.6 elap:               0.0
 (Enter /home/sekinelabo/g16/l401.exe)
 ExpMin= 7.60D-03 ExpMax= 3.62D+04 ExpMxC= 1.21D+03 IAcc=3 IRadAn=         5 AccDes= 0.00D+00
 Harris functional with IExCor=  402 and IRadAn=       5 diagonalized for initial guess.
 HarFok:  IExCor=  402 AccDes= 0.00D+00 IRadAn=         5 IDoV= 1 UseB2=F ITyADJ=14
 ICtDFT=  3500011 ScaDFX=  1.000000  1.000000  1.000000  1.000000
 FoFCou: FMM=F IPFlag=           0 FMFlag=      100000 FMFlg1=           0
         NFxFlg=           0 DoJE=T BraDBF=F KetDBF=T FulRan=T
         wScrn=  0.000000 ICntrl=       500 IOpCl=  0 I1Cent=   200000004 NGrid=           0
         NMat0=    1 NMatS0=      1 NMatT0=    0 NMatD0=    1 NMtDS0=    0 NMtDT0=    0
 Petite list used in FoFCou.
 Harris En= -1135.87243978574    
 JPrj=0 DoOrth=F DoCkMO=F.
 Initial guess <Sx>= 0.0000 <Sy>= 0.0000 <Sz>= 0.5000 <S**2>= 0.7500 S= 0.5000
 Leave Link  401 at Mon Nov 13 17:34:33 2023, MaxMem=  1879048192 cpu:               4.6 elap:               0.3
 (Enter /home/sekinelabo/g16/l502.exe)
 Keep R1 and R2 ints in memory in canonical form, NReq=507620360.
 FoFCou: FMM=F IPFlag=           0 FMFlag=           0 FMFlg1=           0
         NFxFlg=           0 DoJE=F BraDBF=F KetDBF=F FulRan=T
         wScrn=  0.000000 ICntrl=       600 IOpCl=  0 I1Cent=           0 NGrid=           0
         NMat0=    1 NMatS0=  22155 NMatT0=    0 NMatD0=    1 NMtDS0=    0 NMtDT0=    0
 Symmetry not used in FoFCou.
 Two-electron integral symmetry not used.
 UHF open shell SCF:
 Using DIIS extrapolation, IDIIS=  1040.
 NGot=  1879048192 LenX=  1388082376 LenY=  1388034846
 Requested convergence on RMS density matrix=1.00D-08 within 128 cycles.
 Requested convergence on MAX density matrix=1.00D-06.
 Requested convergence on             energy=1.00D-06.
 No special actions if energy rises.

 Cycle   1  Pass 1  IDiag  1:
 E= -1136.06611756778    
 DIIS: error= 1.15D-02 at cycle   1 NSaved=   1.
 NSaved= 1 IEnMin= 1 EnMin= -1136.06611756778     IErMin= 1 ErrMin= 1.15D-02
 ErrMax= 1.15D-02  0.00D+00 EMaxC= 1.00D-01 BMatC= 1.90D-01 BMatP= 1.90D-01
 IDIUse=3 WtCom= 8.85D-01 WtEn= 1.15D-01
 Coeff-Com:  0.100D+01
 Coeff-En:   0.100D+01
 Coeff:      0.100D+01
 Gap=     0.027 Goal=   None    Shift=    0.000
 Gap=     0.051 Goal=   None    Shift=    0.000
 GapD=    0.027 DampG=0.250 DampE=0.500 DampFc=0.2500 IDamp=-1.
 Damping current iteration by 2.50D-01
 RMSDP=3.57D-02 MaxDP=3.65D+00              OVMax= 2.54D-01

 Cycle   2  Pass 1  IDiag  1:
 E= -1136.07783462909     Delta-E=       -0.011717061307 Rises=F Damp=T
 DIIS: error= 8.09D-03 at cycle   2 NSaved=   2.
 NSaved= 2 IEnMin= 2 EnMin= -1136.07783462909     IErMin= 2 ErrMin= 8.09D-03
 ErrMax= 8.09D-03  0.00D+00 EMaxC= 1.00D-01 BMatC= 7.32D-02 BMatP= 1.90D-01
 IDIUse=3 WtCom= 9.19D-01 WtEn= 8.09D-02
 Coeff-Com: -0.129D+01 0.229D+01
 Coeff-En:   0.000D+00 0.100D+01
 Coeff:     -0.118D+01 0.218D+01
 Gap=     0.034 Goal=   None    Shift=    0.000
 Gap=     0.062 Goal=   None    Shift=    0.000
 RMSDP=2.07D-02 MaxDP=2.49D+00 DE=-1.17D-02 OVMax= 2.13D-01

 Cycle   3  Pass 1  IDiag  1:
 E= -1136.09713093184     Delta-E=       -0.019296302744 Rises=F Damp=F
 DIIS: error= 2.43D-03 at cycle   3 NSaved=   3.
 NSaved= 3 IEnMin= 3 EnMin= -1136.09713093184     IErMin= 3 ErrMin= 2.43D-03
 ErrMax= 2.43D-03  0.00D+00 EMaxC= 1.00D-01 BMatC= 3.51D-03 BMatP= 7.32D-02
 IDIUse=3 WtCom= 9.76D-01 WtEn= 2.43D-02
 Coeff-Com: -0.273D+00 0.474D+00 0.799D+00
 Coeff-En:   0.000D+00 0.000D+00 0.100D+01
 Coeff:     -0.266D+00 0.462D+00 0.804D+00
 Gap=     0.028 Goal=   None    Shift=    0.000
 Gap=     0.053 Goal=   None    Shift=    0.000
 RMSDP=6.13D-03 MaxDP=3.28D-01 DE=-1.93D-02 OVMax= 1.25D-01

 Cycle   4  Pass 1  IDiag  1:
 E= -1136.09706800537     Delta-E=        0.000062926464 Rises=F Damp=F
 DIIS: error= 2.26D-03 at cycle   4 NSaved=   4.
 NSaved= 4 IEnMin= 3 EnMin= -1136.09713093184     IErMin= 4 ErrMin= 2.26D-03
 ErrMax= 2.26D-03  0.00D+00 EMaxC= 1.00D-01 BMatC= 3.41D-03 BMatP= 3.51D-03
 IDIUse=3 WtCom= 9.77D-01 WtEn= 2.26D-02
 Coeff-Com: -0.133D-01 0.189D-01 0.495D+00 0.499D+00
 Coeff-En:   0.000D+00 0.000D+00 0.504D+00 0.496D+00
 Coeff:     -0.130D-01 0.185D-01 0.496D+00 0.499D+00
 Gap=     0.032 Goal=   None    Shift=    0.000
 Gap=     0.054 Goal=   None    Shift=    0.000
 RMSDP=3.60D-03 MaxDP=2.34D-01 DE= 6.29D-05 OVMax= 8.61D-02

 Cycle   5  Pass 1  IDiag  1:
 E= -1136.10023534133     Delta-E=       -0.003167335960 Rises=F Damp=F
 DIIS: error= 4.75D-04 at cycle   5 NSaved=   5.
 NSaved= 5 IEnMin= 5 EnMin= -1136.10023534133     IErMin= 5 ErrMin= 4.75D-04
 ErrMax= 4.75D-04  0.00D+00 EMaxC= 1.00D-01 BMatC= 8.42D-05 BMatP= 3.41D-03
 IDIUse=3 WtCom= 9.95D-01 WtEn= 4.75D-03
 Coeff-Com: -0.638D-02 0.799D-02 0.279D+00 0.294D+00 0.425D+00
 Coeff-En:   0.000D+00 0.000D+00 0.000D+00 0.000D+00 0.100D+01
 Coeff:     -0.635D-02 0.795D-02 0.278D+00 0.293D+00 0.428D+00
 Gap=     0.031 Goal=   None    Shift=    0.000
 Gap=     0.052 Goal=   None    Shift=    0.000
 RMSDP=8.96D-04 MaxDP=1.16D-01 DE=-3.17D-03 OVMax= 1.86D-02

 Cycle   6  Pass 1  IDiag  1:
 E= -1136.10034051573     Delta-E=       -0.000105174400 Rises=F Damp=F
 DIIS: error= 1.13D-04 at cycle   6 NSaved=   6.
 NSaved= 6 IEnMin= 6 EnMin= -1136.10034051573     IErMin= 6 ErrMin= 1.13D-04
 ErrMax= 1.13D-04  0.00D+00 EMaxC= 1.00D-01 BMatC= 5.49D-06 BMatP= 8.42D-05
 IDIUse=3 WtCom= 9.99D-01 WtEn= 1.13D-03
 Coeff-Com: -0.150D-02 0.153D-02-0.174D-01-0.991D-02 0.173D+00 0.854D+00
 Coeff-En:   0.000D+00 0.000D+00 0.000D+00 0.000D+00 0.000D+00 0.100D+01
 Coeff:     -0.150D-02 0.153D-02-0.174D-01-0.990D-02 0.173D+00 0.854D+00
 Gap=     0.032 Goal=   None    Shift=    0.000
 Gap=     0.052 Goal=   None    Shift=    0.000
 RMSDP=5.07D-04 MaxDP=3.47D-02 DE=-1.05D-04 OVMax= 6.70D-03

 Cycle   7  Pass 1  IDiag  1:
 E= -1136.10034989179     Delta-E=       -0.000009376054 Rises=F Damp=F
 DIIS: error= 6.59D-05 at cycle   7 NSaved=   7.
 NSaved= 7 IEnMin= 7 EnMin= -1136.10034989179     IErMin= 7 ErrMin= 6.59D-05
 ErrMax= 6.59D-05  0.00D+00 EMaxC= 1.00D-01 BMatC= 9.90D-07 BMatP= 5.49D-06
 IDIUse=1 WtCom= 1.00D+00 WtEn= 0.00D+00
 Coeff-Com: -0.537D-03 0.511D-03-0.318D-01-0.289D-01 0.406D-01 0.381D+00
 Coeff-Com:  0.639D+00
 Coeff:     -0.537D-03 0.511D-03-0.318D-01-0.289D-01 0.406D-01 0.381D+00
 Coeff:      0.639D+00
 Gap=     0.032 Goal=   None    Shift=    0.000
 Gap=     0.052 Goal=   None    Shift=    0.000
 RMSDP=2.33D-04 MaxDP=1.90D-02 DE=-9.38D-06 OVMax= 1.71D-03

 Cycle   8  Pass 1  IDiag  1:
 E= -1136.10035154348     Delta-E=       -0.000001651699 Rises=F Damp=F
 DIIS: error= 2.63D-05 at cycle   8 NSaved=   8.
 NSaved= 8 IEnMin= 8 EnMin= -1136.10035154348     IErMin= 8 ErrMin= 2.63D-05
 ErrMax= 2.63D-05  0.00D+00 EMaxC= 1.00D-01 BMatC= 1.93D-07 BMatP= 9.90D-07
 IDIUse=1 WtCom= 1.00D+00 WtEn= 0.00D+00
 Coeff-Com:  0.193D-03-0.224D-03-0.102D-01-0.103D-01-0.337D-01-0.732D-01
 Coeff-Com:  0.239D+00 0.889D+00
 Coeff:      0.193D-03-0.224D-03-0.102D-01-0.103D-01-0.337D-01-0.732D-01
 Coeff:      0.239D+00 0.889D+00
 Gap=     0.032 Goal=   None    Shift=    0.000
 Gap=     0.052 Goal=   None    Shift=    0.000
 RMSDP=1.47D-04 MaxDP=1.52D-02 DE=-1.65D-06 OVMax= 1.63D-03

 Cycle   9  Pass 1  IDiag  1:
 E= -1136.10035225604     Delta-E=       -0.000000712558 Rises=F Damp=F
 DIIS: error= 1.42D-05 at cycle   9 NSaved=   9.
 NSaved= 9 IEnMin= 9 EnMin= -1136.10035225604     IErMin= 9 ErrMin= 1.42D-05
 ErrMax= 1.42D-05  0.00D+00 EMaxC= 1.00D-01 BMatC= 3.75D-08 BMatP= 1.93D-07
 IDIUse=1 WtCom= 1.00D+00 WtEn= 0.00D+00
 Coeff-Com:  0.517D-03-0.652D-03 0.323D-02 0.267D-02-0.186D-01-0.806D-01
 Coeff-Com: -0.806D-01 0.198D+00 0.976D+00
 Coeff:      0.517D-03-0.652D-03 0.323D-02 0.267D-02-0.186D-01-0.806D-01
 Coeff:     -0.806D-01 0.198D+00 0.976D+00
 Gap=     0.032 Goal=   None    Shift=    0.000
 Gap=     0.052 Goal=   None    Shift=    0.000
 RMSDP=6.99D-05 MaxDP=5.56D-03 DE=-7.13D-07 OVMax= 9.97D-04

 Cycle  10  Pass 1  IDiag  1:
 E= -1136.10035246587     Delta-E=       -0.000000209828 Rises=F Damp=F
 DIIS: error= 6.43D-06 at cycle  10 NSaved=  10.
 NSaved=10 IEnMin=10 EnMin= -1136.10035246587     IErMin=10 ErrMin= 6.43D-06
 ErrMax= 6.43D-06  0.00D+00 EMaxC= 1.00D-01 BMatC= 7.28D-09 BMatP= 3.75D-08
 IDIUse=1 WtCom= 1.00D+00 WtEn= 0.00D+00
 Coeff-Com: -0.317D-04 0.487D-04 0.224D-02 0.189D-02 0.524D-02 0.774D-02
 Coeff-Com: -0.480D-01-0.170D+00 0.518D-01 0.115D+01
 Coeff:     -0.317D-04 0.487D-04 0.224D-02 0.189D-02 0.524D-02 0.774D-02
 Coeff:     -0.480D-01-0.170D+00 0.518D-01 0.115D+01
 Gap=     0.032 Goal=   None    Shift=    0.000
 Gap=     0.052 Goal=   None    Shift=    0.000
 RMSDP=3.37D-05 MaxDP=1.82D-03 DE=-2.10D-07 OVMax= 6.30D-04

 Cycle  11  Pass 1  IDiag  1:
 E= -1136.10035253082     Delta-E=       -0.000000064947 Rises=F Damp=F
 DIIS: error= 3.44D-06 at cycle  11 NSaved=  11.
 NSaved=11 IEnMin=11 EnMin= -1136.10035253082     IErMin=11 ErrMin= 3.44D-06
 ErrMax= 3.44D-06  0.00D+00 EMaxC= 1.00D-01 BMatC= 2.21D-09 BMatP= 7.28D-09
 IDIUse=1 WtCom= 1.00D+00 WtEn= 0.00D+00
 Coeff-Com: -0.122D-03 0.158D-03 0.789D-04 0.407D-04 0.625D-02 0.195D-01
 Coeff-Com: -0.584D-02-0.987D-01-0.149D+00 0.317D+00 0.911D+00
 Coeff:     -0.122D-03 0.158D-03 0.789D-04 0.407D-04 0.625D-02 0.195D-01
 Coeff:     -0.584D-02-0.987D-01-0.149D+00 0.317D+00 0.911D+00
 Gap=     0.032 Goal=   None    Shift=    0.000
 Gap=     0.052 Goal=   None    Shift=    0.000
 RMSDP=1.47D-05 MaxDP=8.32D-04 DE=-6.49D-08 OVMax= 3.33D-04

 Cycle  12  Pass 1  IDiag  1:
 E= -1136.10035254692     Delta-E=       -0.000000016104 Rises=F Damp=F
 DIIS: error= 1.95D-06 at cycle  12 NSaved=  12.
 NSaved=12 IEnMin=12 EnMin= -1136.10035254692     IErMin=12 ErrMin= 1.95D-06
 ErrMax= 1.95D-06  0.00D+00 EMaxC= 1.00D-01 BMatC= 9.13D-10 BMatP= 2.21D-09
 IDIUse=1 WtCom= 1.00D+00 WtEn= 0.00D+00
 Coeff-Com: -0.518D-04 0.656D-04-0.623D-03-0.572D-03 0.152D-02 0.490D-02
 Coeff-Com:  0.144D-01 0.148D-01-0.853D-01-0.231D+00 0.357D+00 0.925D+00
 Coeff:     -0.518D-04 0.656D-04-0.623D-03-0.572D-03 0.152D-02 0.490D-02
 Coeff:      0.144D-01 0.148D-01-0.853D-01-0.231D+00 0.357D+00 0.925D+00
 Gap=     0.032 Goal=   None    Shift=    0.000
 Gap=     0.052 Goal=   None    Shift=    0.000
 RMSDP=1.13D-05 MaxDP=7.28D-04 DE=-1.61D-08 OVMax= 1.96D-04

 Cycle  13  Pass 1  IDiag  1:
 E= -1136.10035255299     Delta-E=       -0.000000006069 Rises=F Damp=F
 DIIS: error= 7.86D-07 at cycle  13 NSaved=  13.
 NSaved=13 IEnMin=13 EnMin= -1136.10035255299     IErMin=13 ErrMin= 7.86D-07
 ErrMax= 7.86D-07  0.00D+00 EMaxC= 1.00D-01 BMatC= 2.36D-10 BMatP= 9.13D-10
 IDIUse=1 WtCom= 1.00D+00 WtEn= 0.00D+00
 Coeff-Com:  0.354D-04-0.470D-04-0.281D-03-0.267D-03-0.126D-02-0.490D-02
 Coeff-Com:  0.712D-02 0.378D-01 0.195D-01-0.183D+00-0.177D+00 0.301D+00
 Coeff-Com:  0.100D+01
 Coeff:      0.354D-04-0.470D-04-0.281D-03-0.267D-03-0.126D-02-0.490D-02
 Coeff:      0.712D-02 0.378D-01 0.195D-01-0.183D+00-0.177D+00 0.301D+00
 Coeff:      0.100D+01
 Gap=     0.032 Goal=   None    Shift=    0.000
 Gap=     0.052 Goal=   None    Shift=    0.000
 RMSDP=4.91D-06 MaxDP=2.70D-04 DE=-6.07D-09 OVMax= 1.21D-04

 Cycle  14  Pass 1  IDiag  1:
 E= -1136.10035255484     Delta-E=       -0.000000001851 Rises=F Damp=F
 DIIS: error= 3.37D-07 at cycle  14 NSaved=  14.
 NSaved=14 IEnMin=14 EnMin= -1136.10035255484     IErMin=14 ErrMin= 3.37D-07
 ErrMax= 3.37D-07  0.00D+00 EMaxC= 1.00D-01 BMatC= 5.73D-11 BMatP= 2.36D-10
 IDIUse=1 WtCom= 1.00D+00 WtEn= 0.00D+00
 Coeff-Com:  0.293D-04-0.383D-04 0.724D-04 0.554D-04-0.539D-03-0.222D-02
 Coeff-Com: -0.242D-02 0.327D-02 0.262D-01 0.259D-01-0.133D+00-0.215D+00
 Coeff-Com:  0.314D+00 0.985D+00
 Coeff:      0.293D-04-0.383D-04 0.724D-04 0.554D-04-0.539D-03-0.222D-02
 Coeff:     -0.242D-02 0.327D-02 0.262D-01 0.259D-01-0.133D+00-0.215D+00
 Coeff:      0.314D+00 0.985D+00
 Gap=     0.032 Goal=   None    Shift=    0.000
 Gap=     0.052 Goal=   None    Shift=    0.000
 RMSDP=2.98D-06 MaxDP=2.69D-04 DE=-1.85D-09 OVMax= 6.27D-05

 Cycle  15  Pass 1  IDiag  1:
 E= -1136.10035255520     Delta-E=       -0.000000000357 Rises=F Damp=F
 DIIS: error= 1.53D-07 at cycle  15 NSaved=  15.
 NSaved=15 IEnMin=15 EnMin= -1136.10035255520     IErMin=15 ErrMin= 1.53D-07
 ErrMax= 1.53D-07  0.00D+00 EMaxC= 1.00D-01 BMatC= 8.49D-12 BMatP= 5.73D-11
 IDIUse=1 WtCom= 1.00D+00 WtEn= 0.00D+00
 Coeff-Com: -0.688D-05 0.933D-05 0.627D-04 0.436D-04 0.314D-03 0.859D-03
 Coeff-Com: -0.163D-02-0.833D-02-0.265D-02 0.431D-01 0.280D-01-0.929D-01
 Coeff-Com: -0.182D+00 0.161D+00 0.105D+01
 Coeff:     -0.688D-05 0.933D-05 0.627D-04 0.436D-04 0.314D-03 0.859D-03
 Coeff:     -0.163D-02-0.833D-02-0.265D-02 0.431D-01 0.280D-01-0.929D-01
 Coeff:     -0.182D+00 0.161D+00 0.105D+01
 Gap=     0.032 Goal=   None    Shift=    0.000
 Gap=     0.052 Goal=   None    Shift=    0.000
 RMSDP=1.05D-06 MaxDP=1.00D-04 DE=-3.57D-10 OVMax= 2.99D-05

 Cycle  16  Pass 1  IDiag  1:
 E= -1136.10035255526     Delta-E=       -0.000000000062 Rises=F Damp=F
 DIIS: error= 8.62D-08 at cycle  16 NSaved=  16.
 NSaved=16 IEnMin=16 EnMin= -1136.10035255526     IErMin=16 ErrMin= 8.62D-08
 ErrMax= 8.62D-08  0.00D+00 EMaxC= 1.00D-01 BMatC= 1.45D-12 BMatP= 8.49D-12
 IDIUse=1 WtCom= 1.00D+00 WtEn= 0.00D+00
 Coeff-Com: -0.558D-05 0.728D-05-0.821D-05-0.844D-05 0.183D-03 0.460D-03
 Coeff-Com:  0.198D-03-0.739D-03-0.498D-02-0.199D-02 0.239D-01 0.266D-01
 Coeff-Com: -0.531D-01-0.137D+00-0.298D-01 0.118D+01
 Coeff:     -0.558D-05 0.728D-05-0.821D-05-0.844D-05 0.183D-03 0.460D-03
 Coeff:      0.198D-03-0.739D-03-0.498D-02-0.199D-02 0.239D-01 0.266D-01
 Coeff:     -0.531D-01-0.137D+00-0.298D-01 0.118D+01
 Gap=     0.032 Goal=   None    Shift=    0.000
 Gap=     0.052 Goal=   None    Shift=    0.000
 RMSDP=4.67D-07 MaxDP=2.86D-05 DE=-6.23D-11 OVMax= 1.55D-05

 Cycle  17  Pass 1  IDiag  1:
 E= -1136.10035255527     Delta-E=       -0.000000000008 Rises=F Damp=F
 DIIS: error= 5.31D-08 at cycle  17 NSaved=  17.
 NSaved=17 IEnMin=17 EnMin= -1136.10035255527     IErMin=17 ErrMin= 5.31D-08
 ErrMax= 5.31D-08  0.00D+00 EMaxC= 1.00D-01 BMatC= 3.25D-13 BMatP= 1.45D-12
 IDIUse=1 WtCom= 1.00D+00 WtEn= 0.00D+00
 Coeff-Com:  0.199D-05-0.266D-05-0.951D-05-0.822D-05-0.416D-04-0.152D-03
 Coeff-Com:  0.281D-03 0.109D-02 0.656D-03-0.516D-02-0.613D-02 0.652D-02
 Coeff-Com:  0.402D-01-0.166D-01-0.185D+00-0.868D-01 0.125D+01
 Coeff:      0.199D-05-0.266D-05-0.951D-05-0.822D-05-0.416D-04-0.152D-03
 Coeff:      0.281D-03 0.109D-02 0.656D-03-0.516D-02-0.613D-02 0.652D-02
 Coeff:      0.402D-01-0.166D-01-0.185D+00-0.868D-01 0.125D+01
 Gap=     0.032 Goal=   None    Shift=    0.000
 Gap=     0.052 Goal=   None    Shift=    0.000
 RMSDP=3.74D-07 MaxDP=3.03D-05 DE=-8.41D-12 OVMax= 9.71D-06

 Cycle  18  Pass 1  IDiag  1:
 E= -1136.10035255528     Delta-E=       -0.000000000009 Rises=F Damp=F
 DIIS: error= 2.96D-08 at cycle  18 NSaved=  18.
 NSaved=18 IEnMin=18 EnMin= -1136.10035255528     IErMin=18 ErrMin= 2.96D-08
 ErrMax= 2.96D-08  0.00D+00 EMaxC= 1.00D-01 BMatC= 1.05D-13 BMatP= 3.25D-13
 IDIUse=1 WtCom= 1.00D+00 WtEn= 0.00D+00
 Coeff-Com:  0.171D-05-0.222D-05 0.170D-05-0.397D-06-0.407D-04-0.114D-03
 Coeff-Com: -0.698D-04 0.118D-03 0.124D-02 0.504D-03-0.539D-02-0.692D-02
 Coeff-Com:  0.112D-01 0.386D-01 0.333D-01-0.382D+00 0.500D-01 0.126D+01
 Coeff:      0.171D-05-0.222D-05 0.170D-05-0.397D-06-0.407D-04-0.114D-03
 Coeff:     -0.698D-04 0.118D-03 0.124D-02 0.504D-03-0.539D-02-0.692D-02
 Coeff:      0.112D-01 0.386D-01 0.333D-01-0.382D+00 0.500D-01 0.126D+01
 Gap=     0.032 Goal=   None    Shift=    0.000
 Gap=     0.052 Goal=   None    Shift=    0.000
 RMSDP=2.07D-07 MaxDP=1.87D-05 DE=-9.09D-12 OVMax= 6.34D-06

 Cycle  19  Pass 1  IDiag  1:
 E= -1136.10035255528     Delta-E=       -0.000000000005 Rises=F Damp=F
 DIIS: error= 1.43D-08 at cycle  19 NSaved=  19.
 NSaved=19 IEnMin=19 EnMin= -1136.10035255528     IErMin=19 ErrMin= 1.43D-08
 ErrMax= 1.43D-08  0.00D+00 EMaxC= 1.00D-01 BMatC= 3.08D-14 BMatP= 1.05D-13
 IDIUse=1 WtCom= 1.00D+00 WtEn= 0.00D+00
 Coeff-Com: -0.674D-06 0.911D-06 0.293D-05 0.184D-05 0.245D-04 0.723D-04
 Coeff-Com: -0.125D-03-0.521D-03-0.411D-03 0.297D-02 0.232D-02-0.642D-02
 Coeff-Com: -0.132D-01 0.156D-01 0.735D-01-0.495D-01-0.388D+00 0.200D+00
 Coeff-Com:  0.116D+01
 Coeff:     -0.674D-06 0.911D-06 0.293D-05 0.184D-05 0.245D-04 0.723D-04
 Coeff:     -0.125D-03-0.521D-03-0.411D-03 0.297D-02 0.232D-02-0.642D-02
 Coeff:     -0.132D-01 0.156D-01 0.735D-01-0.495D-01-0.388D+00 0.200D+00
 Coeff:      0.116D+01
 Gap=     0.032 Goal=   None    Shift=    0.000
 Gap=     0.052 Goal=   None    Shift=    0.000
 RMSDP=1.08D-07 MaxDP=9.89D-06 DE=-5.46D-12 OVMax= 3.63D-06

 Cycle  20  Pass 1  IDiag  1:
 E= -1136.10035255527     Delta-E=        0.000000000011 Rises=F Damp=F
 DIIS: error= 5.02D-09 at cycle  20 NSaved=  20.
 NSaved=20 IEnMin=19 EnMin= -1136.10035255528     IErMin=20 ErrMin= 5.02D-09
 ErrMax= 5.02D-09  0.00D+00 EMaxC= 1.00D-01 BMatC= 5.30D-15 BMatP= 3.08D-14
 IDIUse=1 WtCom= 1.00D+00 WtEn= 0.00D+00
 Large coefficients: NSaved= 20 BigCof=    0.00 CofMax=   10.00 Det=-4.79D-15
 Inversion failed.  Reducing to 19 matrices.
 Large coefficients: NSaved= 19 BigCof=    0.00 CofMax=   10.00 Det=-5.44D-15
 Inversion failed.  Reducing to 18 matrices.
 Large coefficients: NSaved= 18 BigCof=    0.00 CofMax=   10.00 Det=-5.45D-15
 Inversion failed.  Reducing to 17 matrices.
 Large coefficients: NSaved= 17 BigCof=    0.00 CofMax=   10.00 Det=-5.58D-15
 Inversion failed.  Reducing to 16 matrices.
 Large coefficients: NSaved= 16 BigCof=    0.00 CofMax=   10.00 Det=-6.28D-15
 Inversion failed.  Reducing to 15 matrices.
 Coeff-Com: -0.156D-04 0.272D-04 0.871D-04 0.614D-04-0.524D-03 0.817D-04
 Coeff-Com:  0.121D-02 0.966D-03-0.646D-02-0.150D-01 0.447D-01 0.657D-01
 Coeff-Com: -0.248D+00-0.161D+00 0.132D+01
 Coeff:     -0.156D-04 0.272D-04 0.871D-04 0.614D-04-0.524D-03 0.817D-04
 Coeff:      0.121D-02 0.966D-03-0.646D-02-0.150D-01 0.447D-01 0.657D-01
 Coeff:     -0.248D+00-0.161D+00 0.132D+01
 Gap=     0.032 Goal=   None    Shift=    0.000
 Gap=     0.052 Goal=   None    Shift=    0.000
 RMSDP=4.34D-08 MaxDP=6.27D-06 DE= 1.09D-11 OVMax= 1.54D-06

 Cycle  21  Pass 1  IDiag  1:
 E= -1136.10035255527     Delta-E=        0.000000000002 Rises=F Damp=F
 DIIS: error= 1.10D-09 at cycle  21 NSaved=  16.
 NSaved=16 IEnMin=14 EnMin= -1136.10035255528     IErMin=16 ErrMin= 1.10D-09
 ErrMax= 1.10D-09  0.00D+00 EMaxC= 1.00D-01 BMatC= 7.83D-16 BMatP= 5.30D-15
 IDIUse=1 WtCom= 1.00D+00 WtEn= 0.00D+00
 Large coefficients: NSaved= 16 BigCof=    0.00 CofMax=   10.00 Det=-1.02D-15
 Inversion failed.  Reducing to 15 matrices.
 Coeff-Com:  0.147D-04 0.322D-04-0.449D-04-0.275D-03 0.255D-04 0.105D-02
 Coeff-Com:  0.977D-03-0.353D-02-0.958D-02 0.215D-01 0.532D-01-0.529D-01
 Coeff-Com: -0.208D+00 0.116D+00 0.108D+01
 Coeff:      0.147D-04 0.322D-04-0.449D-04-0.275D-03 0.255D-04 0.105D-02
 Coeff:      0.977D-03-0.353D-02-0.958D-02 0.215D-01 0.532D-01-0.529D-01
 Coeff:     -0.208D+00 0.116D+00 0.108D+01
 Gap=     0.032 Goal=   None    Shift=    0.000
 Gap=     0.052 Goal=   None    Shift=    0.000
 RMSDP=1.25D-08 MaxDP=1.35D-06 DE= 2.27D-12 OVMax= 2.89D-07

 Cycle  22  Pass 1  IDiag  1:
 E= -1136.10035255528     Delta-E=       -0.000000000006 Rises=F Damp=F
 DIIS: error= 5.13D-10 at cycle  22 NSaved=  16.
 NSaved=16 IEnMin=13 EnMin= -1136.10035255528     IErMin=16 ErrMin= 5.13D-10
 ErrMax= 5.13D-10  0.00D+00 EMaxC= 1.00D-01 BMatC= 1.26D-16 BMatP= 7.83D-16
 IDIUse=1 WtCom= 1.00D+00 WtEn= 0.00D+00
 Large coefficients: NSaved= 16 BigCof=    0.00 CofMax=   10.00 Det=-2.68D-16
 Inversion failed.  Reducing to 15 matrices.
 Coeff-Com: -0.757D-06-0.113D-04-0.106D-04 0.339D-04 0.561D-04-0.502D-04
 Coeff-Com:  0.454D-04 0.146D-02-0.301D-02-0.781D-03 0.282D-01-0.957D-02
 Coeff-Com: -0.164D+00 0.136D+00 0.101D+01
 Coeff:     -0.757D-06-0.113D-04-0.106D-04 0.339D-04 0.561D-04-0.502D-04
 Coeff:      0.454D-04 0.146D-02-0.301D-02-0.781D-03 0.282D-01-0.957D-02
 Coeff:     -0.164D+00 0.136D+00 0.101D+01
 Gap=     0.032 Goal=   None    Shift=    0.000
 Gap=     0.052 Goal=   None    Shift=    0.000
 RMSDP=8.33D-09 MaxDP=1.10D-06 DE=-5.91D-12 OVMax= 6.00D-08

 Cycle  23  Pass 1  IDiag  1:
 E= -1136.10035255528     Delta-E=       -0.000000000002 Rises=F Damp=F
 DIIS: error= 4.43D-10 at cycle  23 NSaved=  16.
 NSaved=16 IEnMin=12 EnMin= -1136.10035255528     IErMin=16 ErrMin= 4.43D-10
 ErrMax= 4.43D-10  0.00D+00 EMaxC= 1.00D-01 BMatC= 6.63D-17 BMatP= 1.26D-16
 IDIUse=1 WtCom= 1.00D+00 WtEn= 0.00D+00
 Large coefficients: NSaved= 16 BigCof=    0.00 CofMax=   10.00 Det=-1.05D-16
 Inversion failed.  Reducing to 15 matrices.
 Coeff-Com: -0.121D-06 0.101D-04-0.186D-04-0.886D-04-0.319D-04 0.472D-03
 Coeff-Com:  0.122D-02-0.504D-02-0.787D-02 0.246D-01 0.207D-01-0.124D+00
 Coeff-Com: -0.763D-01 0.415D+00 0.751D+00
 Coeff:     -0.121D-06 0.101D-04-0.186D-04-0.886D-04-0.319D-04 0.472D-03
 Coeff:      0.122D-02-0.504D-02-0.787D-02 0.246D-01 0.207D-01-0.124D+00
 Coeff:     -0.763D-01 0.415D+00 0.751D+00
 Gap=     0.032 Goal=   None    Shift=    0.000
 Gap=     0.052 Goal=   None    Shift=    0.000
 RMSDP=2.98D-09 MaxDP=3.33D-07 DE=-2.05D-12 OVMax= 8.54D-08

 SCF Done:  E(UB3LYP) =  -1136.10035256     A.U. after   23 cycles
            NFock= 23  Conv=0.30D-08     -V/T= 2.0026
 <Sx>= 0.0000 <Sy>= 0.0000 <Sz>= 0.5000 <S**2>= 0.7589 S= 0.5044
 <L.S>= 0.000000000000E+00
 KE= 1.133146569129D+03 PE=-3.396144155257D+03 EE= 7.935221825373D+02
 Annihilation of the first spin contaminant:
 S**2 before annihilation     0.7589,   after     0.7500
 Leave Link  502 at Mon Nov 13 17:34:52 2023, MaxMem=  1879048192 cpu:             224.1 elap:              19.4
 (Enter /home/sekinelabo/g16/l601.exe)
 Copying SCF densities to generalized density rwf, IOpCl= 1 IROHF=0.

 **********************************************************************

            Population analysis using the SCF Density.

 **********************************************************************

 Orbital symmetries:
 Alpha Orbitals:
       Occupied  (A) (A) (A) (A) (A) (A) (A) (A) (A) (A) (A) (A)
                 (A) (A) (A) (A) (A) (A) (A) (A) (A) (A) (A) (A)
                 (A) (A) (A) (A) (A) (A) (A) (A) (A) (A) (A) (A)
                 (A) (A) (A)
       Virtual   (A) (A) (A) (A) (A) (A) (A) (A) (A) (A) (A) (A)
                 (A) (A) (A) (A) (A) (A) (A) (A) (A) (A) (A) (A)
                 (A) (A) (A) (A) (A) (A) (A) (A) (A) (A) (A) (A)
                 (A) (A) (A) (A) (A) (A) (A) (A) (A) (A) (A) (A)
                 (A) (A) (A) (A) (A) (A) (A) (A) (A) (A) (A) (A)
                 (A) (A) (A) (A) (A) (A) (A) (A) (A) (A) (A) (A)
                 (A) (A) (A) (A) (A) (A) (A) (A) (A) (A) (A) (A)
                 (A) (A) (A) (A) (A) (A) (A) (A) (A) (A) (A) (A)
                 (A) (A) (A) (A) (A) (A) (A) (A) (A) (A) (A) (A)
                 (A) (A) (A) (A) (A) (A) (A) (A) (A) (A) (A) (A)
                 (A) (A) (A) (A) (A) (A) (A) (A) (A) (A) (A) (A)
                 (A) (A) (A) (A) (A) (A) (A) (A) (A) (A) (A) (A)
                 (A) (A) (A) (A) (A) (A) (A) (A) (A) (A) (A) (A)
                 (A) (A) (A) (A) (A) (A) (A) (A) (A) (A) (A) (A)
                 (A) (A) (A)
 Beta  Orbitals:
       Occupied  (A) (A) (A) (A) (A) (A) (A) (A) (A) (A) (A) (A)
                 (A) (A) (A) (A) (A) (A) (A) (A) (A) (A) (A) (A)
                 (A) (A) (A) (A) (A) (A) (A) (A) (A) (A) (A) (A)
                 (A) (A)
       Virtual   (A) (A) (A) (A) (A) (A) (A) (A) (A) (A) (A) (A)
                 (A) (A) (A) (A) (A) (A) (A) (A) (A) (A) (A) (A)
                 (A) (A) (A) (A) (A) (A) (A) (A) (A) (A) (A) (A)
                 (A) (A) (A) (A) (A) (A) (A) (A) (A) (A) (A) (A)
                 (A) (A) (A) (A) (A) (A) (A) (A) (A) (A) (A) (A)
                 (A) (A) (A) (A) (A) (A) (A) (A) (A) (A) (A) (A)
                 (A) (A) (A) (A) (A) (A) (A) (A) (A) (A) (A) (A)
                 (A) (A) (A) (A) (A) (A) (A) (A) (A) (A) (A) (A)
                 (A) (A) (A) (A) (A) (A) (A) (A) (A) (A) (A) (A)
                 (A) (A) (A) (A) (A) (A) (A) (A) (A) (A) (A) (A)
                 (A) (A) (A) (A) (A) (A) (A) (A) (A) (A) (A) (A)
                 (A) (A) (A) (A) (A) (A) (A) (A) (A) (A) (A) (A)
                 (A) (A) (A) (A) (A) (A) (A) (A) (A) (A) (A) (A)
                 (A) (A) (A) (A) (A) (A) (A) (A) (A) (A) (A) (A)
                 (A) (A) (A) (A)
 The electronic state is 2-A.
 Alpha  occ. eigenvalues --  -38.45045 -38.44971 -38.44162 -38.43750 -38.43408
 Alpha  occ. eigenvalues --  -38.43061 -38.42925  -2.20933  -2.20858  -2.20065
 Alpha  occ. eigenvalues --   -2.19662  -2.19499  -2.19163  -2.18832  -1.14701
 Alpha  occ. eigenvalues --   -1.14623  -1.14558  -1.14550  -1.14480  -1.14408
 Alpha  occ. eigenvalues --   -1.13800  -1.13729  -1.13682  -1.13376  -1.13289
 Alpha  occ. eigenvalues --   -1.13271  -1.13251  -1.13161  -1.13148  -1.12853
 Alpha  occ. eigenvalues --   -1.12818  -1.12793  -1.12488  -1.12462  -1.12443
 Alpha  occ. eigenvalues --   -0.18279  -0.14956  -0.11928  -0.09922
 Alpha virt. eigenvalues --   -0.06754  -0.05088  -0.04861  -0.03370  -0.02844
 Alpha virt. eigenvalues --   -0.02356  -0.01804  -0.01029  -0.00723  -0.00188
 Alpha virt. eigenvalues --    0.00102   0.00222   0.00285   0.00658   0.00749
 Alpha virt. eigenvalues --    0.00817   0.00966   0.01058   0.01195   0.01333
 Alpha virt. eigenvalues --    0.01417   0.01591   0.01654   0.01754   0.01934
 Alpha virt. eigenvalues --    0.02162   0.02221   0.02516   0.02553   0.02576
 Alpha virt. eigenvalues --    0.02675   0.02734   0.02849   0.02961   0.03075
 Alpha virt. eigenvalues --    0.03187   0.03246   0.03464   0.03624   0.03756
 Alpha virt. eigenvalues --    0.03852   0.03998   0.04294   0.04582   0.04680
 Alpha virt. eigenvalues --    0.04962   0.05361   0.05594   0.05816   0.06297
 Alpha virt. eigenvalues --    0.06363   0.06885   0.06980   0.07127   0.07497
 Alpha virt. eigenvalues --    0.07649   0.08079   0.08213   0.08639   0.08826
 Alpha virt. eigenvalues --    0.08927   0.09183   0.09907   0.10171   0.10450
 Alpha virt. eigenvalues --    0.11481   0.11761   0.12281   0.13016   0.13138
 Alpha virt. eigenvalues --    0.13861   0.14096   0.14646   0.15038   0.15213
 Alpha virt. eigenvalues --    0.15565   0.16190   0.17454   0.18300   0.19575
 Alpha virt. eigenvalues --    0.25100   0.26704   0.27584   0.28439   0.29617
 Alpha virt. eigenvalues --    0.29957   0.30410   0.30566   0.32055   0.32388
 Alpha virt. eigenvalues --    0.33654   0.34204   0.34594   0.37106   0.37367
 Alpha virt. eigenvalues --    0.37596   0.38975   0.39632   0.41694   0.42281
 Alpha virt. eigenvalues --    0.42727   0.43154   0.43517   0.43692   0.44225
 Alpha virt. eigenvalues --    0.44461   0.44919   0.45222   0.45725   0.46656
 Alpha virt. eigenvalues --    0.46671   0.46927   0.47175   0.48029   0.48827
 Alpha virt. eigenvalues --    0.49341   0.49712   0.50429   0.50699   0.51206
 Alpha virt. eigenvalues --    0.52099   0.53553   0.53929   0.55115   0.56440
 Alpha virt. eigenvalues --    0.57462   0.58829   0.64945   0.67113   0.68225
 Alpha virt. eigenvalues --    0.71177   0.72022   0.73382   0.77360   0.79552
 Alpha virt. eigenvalues --    0.82194   2.10209   2.11644   2.15110   2.18026
 Alpha virt. eigenvalues --    2.18983   2.25241   2.33583   4.40113   4.41157
 Alpha virt. eigenvalues --    4.42302   4.42628   4.43348   4.44006   4.44430
 Alpha virt. eigenvalues --    4.44981   4.45877   4.46790   4.47518   4.47833
 Alpha virt. eigenvalues --    4.54232   4.55273   4.59751   4.63122   4.64961
 Alpha virt. eigenvalues --    4.69631   4.70497   4.75653   4.78278  96.31222
 Alpha virt. eigenvalues --   96.33151  96.37946  96.42333  96.43433  96.51365
 Alpha virt. eigenvalues --   96.61957
  Beta  occ. eigenvalues --  -38.45015 -38.44971 -38.44127 -38.43719 -38.43380
  Beta  occ. eigenvalues --  -38.43034 -38.42919  -2.20879  -2.20856  -2.19999
  Beta  occ. eigenvalues --   -2.19606  -2.19451  -2.19122  -2.18822  -1.14677
  Beta  occ. eigenvalues --   -1.14588  -1.14542  -1.14519  -1.14476  -1.14387
  Beta  occ. eigenvalues --   -1.13760  -1.13679  -1.13631  -1.13333  -1.13251
  Beta  occ. eigenvalues --   -1.13222  -1.13219  -1.13122  -1.13096  -1.12804
  Beta  occ. eigenvalues --   -1.12784  -1.12744  -1.12482  -1.12451  -1.12424
  Beta  occ. eigenvalues --   -0.17708  -0.14706  -0.11806
  Beta virt. eigenvalues --   -0.06563  -0.06237  -0.04740  -0.04412  -0.03230
  Beta virt. eigenvalues --   -0.02599  -0.01951  -0.01200  -0.00969  -0.00279
  Beta virt. eigenvalues --   -0.00161   0.00181   0.00394   0.00442   0.00783
  Beta virt. eigenvalues --    0.00865   0.00889   0.01072   0.01150   0.01292
  Beta virt. eigenvalues --    0.01422   0.01530   0.01716   0.01778   0.01862
  Beta virt. eigenvalues --    0.02079   0.02222   0.02301   0.02584   0.02643
  Beta virt. eigenvalues --    0.02680   0.02747   0.02828   0.02956   0.03080
  Beta virt. eigenvalues --    0.03119   0.03250   0.03353   0.03586   0.03701
  Beta virt. eigenvalues --    0.03791   0.03911   0.04069   0.04452   0.04642
  Beta virt. eigenvalues --    0.04865   0.05067   0.05411   0.05706   0.05979
  Beta virt. eigenvalues --    0.06329   0.06431   0.06931   0.07093   0.07314
  Beta virt. eigenvalues --    0.07643   0.07757   0.08115   0.08317   0.08781
  Beta virt. eigenvalues --    0.09029   0.09147   0.09386   0.10057   0.10295
  Beta virt. eigenvalues --    0.10718   0.11713   0.12055   0.12544   0.13259
  Beta virt. eigenvalues --    0.13418   0.13961   0.14307   0.14850   0.15155
  Beta virt. eigenvalues --    0.15443   0.15687   0.16339   0.17602   0.18467
  Beta virt. eigenvalues --    0.19806   0.25348   0.26969   0.27819   0.28634
  Beta virt. eigenvalues --    0.29781   0.30133   0.30532   0.30795   0.32199
  Beta virt. eigenvalues --    0.32574   0.33930   0.34389   0.34932   0.37324
  Beta virt. eigenvalues --    0.37679   0.37853   0.39173   0.40003   0.41894
  Beta virt. eigenvalues --    0.42474   0.42978   0.43271   0.43694   0.43830
  Beta virt. eigenvalues --    0.44431   0.44639   0.45060   0.45406   0.45828
  Beta virt. eigenvalues --    0.46788   0.46862   0.47037   0.47382   0.48161
  Beta virt. eigenvalues --    0.49001   0.49515   0.49888   0.50600   0.50893
  Beta virt. eigenvalues --    0.51333   0.52278   0.53707   0.54087   0.55288
  Beta virt. eigenvalues --    0.56614   0.57551   0.58986   0.65028   0.67294
  Beta virt. eigenvalues --    0.68362   0.71291   0.72201   0.73412   0.77429
  Beta virt. eigenvalues --    0.79621   0.82275   2.10275   2.11751   2.15164
  Beta virt. eigenvalues --    2.18120   2.19121   2.25322   2.33676   4.40143
  Beta virt. eigenvalues --    4.41182   4.42346   4.42698   4.43365   4.44061
  Beta virt. eigenvalues --    4.44472   4.45022   4.45904   4.46848   4.47554
  Beta virt. eigenvalues --    4.47861   4.54276   4.55310   4.59823   4.63145
  Beta virt. eigenvalues --    4.64992   4.69650   4.70532   4.75672   4.78304
  Beta virt. eigenvalues --   96.31246  96.33189  96.37962  96.42360  96.43474
  Beta virt. eigenvalues --   96.51390  96.61990
          Condensed to atoms (all electrons):
               1          2          3          4          5          6
     1  Na  11.563846   0.523470  -1.031310   0.699866  -0.892896   0.434237
     2  Na   0.523470  13.284292  -1.014247  -1.198495   1.085379   0.181564
     3  Na  -1.031310  -1.014247  12.440568  -1.469261   1.221384  -0.605591
     4  Na   0.699866  -1.198495  -1.469261  15.779046  -4.035103   1.505328
     5  Na  -0.892896   1.085379   1.221384  -4.035103  15.866902  -0.968589
     6  Na   0.434237   0.181564  -0.605591   1.505328  -0.968589  12.067917
     7  Na  -0.279864  -1.097272   0.877959  -0.949460  -0.272017  -1.243479
               7
     1  Na  -0.279864
     2  Na  -1.097272
     3  Na   0.877959
     4  Na  -0.949460
     5  Na  -0.272017
     6  Na  -1.243479
     7  Na  13.054221
          Atomic-Atomic Spin Densities.
               1          2          3          4          5          6
     1  Na  -0.016903   0.048627  -0.086253   0.289907  -0.095847   0.121180
     2  Na   0.048627   0.003366  -0.697438   1.451869  -0.985533   0.458225
     3  Na  -0.086253  -0.697438   0.496858   0.171252  -0.047577  -0.211324
     4  Na   0.289907   1.451869   0.171252  -2.048276   1.444109  -0.149050
     5  Na  -0.095847  -0.985533  -0.047577   1.444109  -0.732289   0.183381
     6  Na   0.121180   0.458225  -0.211324  -0.149050   0.183381   0.423897
     7  Na  -0.092470  -0.387870   0.258324  -0.075968  -0.039798  -0.571993
               7
     1  Na  -0.092470
     2  Na  -0.387870
     3  Na   0.258324
     4  Na  -0.075968
     5  Na  -0.039798
     6  Na  -0.571993
     7  Na   0.901843
 Mulliken charges and spin densities:
               1          2
     1  Na  -0.017350   0.168240
     2  Na  -0.764691  -0.108755
     3  Na   0.580499  -0.116158
     4  Na   0.668079   1.083842
     5  Na  -1.005061  -0.273554
     6  Na  -0.371387   0.254317
     7  Na   0.909912  -0.007932
 Sum of Mulliken charges =  -0.00000   1.00000
 Mulliken charges and spin densities with hydrogens summed into heavy atoms:
               1          2
     1  Na  -0.017350   0.168240
     2  Na  -0.764691  -0.108755
     3  Na   0.580499  -0.116158
     4  Na   0.668079   1.083842
     5  Na  -1.005061  -0.273554
     6  Na  -0.371387   0.254317
     7  Na   0.909912  -0.007932
 Electronic spatial extent (au):  <R**2>=           2731.7139
 Charge=              0.0000 electrons
 Dipole moment (field-independent basis, Debye):
    X=             -1.4673    Y=             -0.5529    Z=              0.4914  Tot=              1.6433
 Quadrupole moment (field-independent basis, Debye-Ang):
   XX=            -55.0177   YY=            -67.9304   ZZ=            -72.0759
   XY=             -1.3601   XZ=              2.5043   YZ=              1.4538
 Traceless Quadrupole moment (field-independent basis, Debye-Ang):
   XX=              9.9903   YY=             -2.9224   ZZ=             -7.0679
   XY=             -1.3601   XZ=              2.5043   YZ=              1.4538
 Octapole moment (field-independent basis, Debye-Ang**2):
  XXX=            -63.1158  YYY=             10.6098  ZZZ=              6.3075  XYY=              1.7684
  XXY=             -2.7215  XXZ=            -14.8109  XZZ=              0.2730  YZZ=             -8.2490
  YYZ=              3.4673  XYZ=              2.7792
 Hexadecapole moment (field-independent basis, Debye-Ang**3):
 XXXX=          -2389.3938 YYYY=          -1132.9100 ZZZZ=           -800.4933 XXXY=             19.6357
 XXXZ=            136.1104 YYYX=            -49.1679 YYYZ=             37.4168 ZZZX=              2.5709
 ZZZY=             -3.5237 XXYY=           -659.4166 XXZZ=           -555.0077 YYZZ=           -327.8591
 XXYZ=             31.9525 YYXZ=            -34.0711 ZZXY=             -2.9132
 N-N= 3.333750510354D+02 E-N=-3.396144155305D+03  KE= 1.133146569129D+03
                          Isotropic Fermi Contact Couplings
        Atom                 a.u.       MegaHertz       Gauss      10(-4) cm-1
     1  Na(23)             0.00600       7.09661       2.53225       2.36717
     2  Na(23)             0.14218     168.20457      60.01957      56.10701
     3  Na(23)             0.11112     131.45734      46.90725      43.84945
     4  Na(23)             0.01976      23.37880       8.34214       7.79833
     5  Na(23)             0.07810      92.39838      32.97004      30.82078
     6  Na(23)             0.12355     146.16058      52.15373      48.75392
     7  Na(23)            -0.02036     -24.08147      -8.59287      -8.03272
 --------------------------------------------------------
       Center         ----  Spin Dipole Couplings  ----
                      3XX-RR        3YY-RR        3ZZ-RR
 --------------------------------------------------------
     1   Atom       -0.004645     -0.006708      0.011352
     2   Atom       -0.000131      0.000070      0.000061
     3   Atom       -0.000079     -0.007834      0.007913
     4   Atom       -0.033664     -0.017454      0.051118
     5   Atom       -0.013952     -0.017623      0.031574
     6   Atom       -0.003966     -0.002792      0.006758
     7   Atom       -0.005010     -0.006820      0.011829
 --------------------------------------------------------
                        XY            XZ            YZ
 --------------------------------------------------------
     1   Atom       -0.001647      0.006963     -0.002412
     2   Atom       -0.004452     -0.006613      0.005075
     3   Atom       -0.007530      0.011948     -0.012175
     4   Atom        0.011450      0.018930      0.041970
     5   Atom       -0.003684     -0.009174      0.004272
     6   Atom        0.001574      0.000177      0.004255
     7   Atom        0.001529     -0.004357     -0.005435
 --------------------------------------------------------


 ---------------------------------------------------------------------------------
              Anisotropic Spin Dipole Couplings in Principal Axis System
 ---------------------------------------------------------------------------------

       Atom             a.u.   MegaHertz   Gauss  10(-4) cm-1        Axes

              Baa    -0.0079    -1.111    -0.396    -0.371  0.7297  0.6592 -0.1817
     1 Na(23) Bbb    -0.0065    -0.914    -0.326    -0.305 -0.5865  0.7400  0.3292
              Bcc     0.0143     2.025     0.723     0.676  0.3514 -0.1337  0.9266
 
              Baa    -0.0067    -0.945    -0.337    -0.315  0.6647 -0.1161  0.7380
     2 Na(23) Bbb    -0.0041    -0.581    -0.207    -0.194  0.4635  0.8389 -0.2855
              Bcc     0.0108     1.527     0.545     0.509 -0.5859  0.5318  0.6115
 
              Baa    -0.0146    -2.057    -0.734    -0.686  0.1169  0.8980  0.4242
     3 Na(23) Bbb    -0.0085    -1.207    -0.431    -0.403  0.8463  0.1334 -0.5157
              Bcc     0.0231     3.264     1.165     1.089  0.5197 -0.4193  0.7444
 
              Baa    -0.0400    -5.642    -2.013    -1.882  0.7492 -0.6469  0.1424
     4 Na(23) Bbb    -0.0355    -5.015    -1.790    -1.673  0.6322  0.6341 -0.4453
              Bcc     0.0755    10.657     3.803     3.555  0.1978  0.4236  0.8840
 
              Baa    -0.0199    -2.816    -1.005    -0.939  0.5572  0.8298  0.0304
     5 Na(23) Bbb    -0.0139    -1.960    -0.699    -0.654  0.8072 -0.5499  0.2146
              Bcc     0.0338     4.776     1.704     1.593 -0.1948  0.0950  0.9762
 
              Baa    -0.0056    -0.795    -0.284    -0.265 -0.6539  0.7184 -0.2374
     6 Na(23) Bbb    -0.0028    -0.394    -0.141    -0.131  0.7543  0.5944 -0.2788
              Bcc     0.0084     1.189     0.424     0.397  0.0592  0.3614  0.9305
 
              Baa    -0.0083    -1.177    -0.420    -0.393 -0.1433  0.9629  0.2286
     7 Na(23) Bbb    -0.0061    -0.855    -0.305    -0.285  0.9623  0.0817  0.2593
              Bcc     0.0144     2.032     0.725     0.678 -0.2310 -0.2571  0.9384
 

 ---------------------------------------------------------------------------------

 No NMR shielding tensors so no spin-rotation constants.
 Leave Link  601 at Mon Nov 13 17:34:53 2023, MaxMem=  1879048192 cpu:               2.6 elap:               0.2
 (Enter /home/sekinelabo/g16/l701.exe)
 ... and contract with generalized density number  0.
 Compute integral first derivatives.
 Leave Link  701 at Mon Nov 13 17:34:53 2023, MaxMem=  1879048192 cpu:               2.1 elap:               0.1
 (Enter /home/sekinelabo/g16/l702.exe)
 L702 exits ... SP integral derivatives will be done elsewhere.
 Leave Link  702 at Mon Nov 13 17:34:53 2023, MaxMem=  1879048192 cpu:               0.5 elap:               0.0
 (Enter /home/sekinelabo/g16/l703.exe)
 Integral derivatives from FoFJK, PRISM(SPDF).
 Compute integral first derivatives, UseDBF=F ICtDFT=           0.
 Calling FoFJK, ICntrl=      2127 FMM=F ISym2X=0 I1Cent= 0 IOpClX= 1 NMat=1 NMatS=1 NMatT=0.
 FoFJK:  IHMeth= 1 ICntrl=    2127 DoSepK=F KAlg= 0 I1Cent=           0 FoldK=F
 IRaf=         0 NMat=       1 IRICut=       1 DoRegI=T DoRafI=F ISym2E= 0 IDoP0=0 IntGTp=1.
 FoFCou: FMM=F IPFlag=           0 FMFlag=      100000 FMFlg1=         800
         NFxFlg=           0 DoJE=F BraDBF=F KetDBF=F FulRan=T
         wScrn=  0.000000 ICntrl=      2127 IOpCl=  1 I1Cent=           0 NGrid=           0
         NMat0=    1 NMatS0=      1 NMatT0=    0 NMatD0=    1 NMtDS0=    0 NMtDT0=    0
 Symmetry not used in FoFCou.
 Leave Link  703 at Mon Nov 13 17:34:55 2023, MaxMem=  1879048192 cpu:              33.9 elap:               2.2
 (Enter /home/sekinelabo/g16/l716.exe)
 Dipole        =-5.77293828D-01-2.17544990D-01 1.93335427D-01
 ***** Axes restored to original set *****
 -------------------------------------------------------------------
 Center     Atomic                   Forces (Hartrees/Bohr)
 Number     Number              X              Y              Z
 -------------------------------------------------------------------
      1       11           0.001244154    0.008376370   -0.005002748
      2       11          -0.002229624   -0.000444992   -0.010048466
      3       11          -0.000945062   -0.008247401    0.006359109
      4       11          -0.002870215    0.006166348    0.005726442
      5       11          -0.000557053    0.000862304    0.009791705
      6       11          -0.003198620   -0.003814617   -0.008511489
      7       11           0.008556420   -0.002898013    0.001685446
 -------------------------------------------------------------------
 Cartesian Forces:  Max     0.010048466 RMS     0.005647991
 Z-matrix is all fixed cartesians, so copy forces.
 Force constants in Cartesian coordinates: 
                1             2             3             4             5 
      1  0.411800D-01
      2  0.347200D-02  0.590366D-01
      3 -0.782141D-02 -0.190641D-01  0.334998D-01
      4 -0.100537D-02 -0.126995D-02 -0.394423D-02  0.238631D-01
      5 -0.156162D-02 -0.506304D-03 -0.361618D-02  0.906023D-02  0.288345D-01
      6  0.170695D-02  0.128557D-02  0.520618D-02  0.176672D-01 -0.746355D-02
      7  0.327358D-02 -0.479257D-02 -0.244150D-02 -0.238057D-02  0.385835D-02
      8 -0.184905D-02  0.293202D-02  0.176425D-02 -0.359693D-02 -0.128680D-01
      9 -0.199131D-02  0.422928D-02  0.373471D-02 -0.234392D-02  0.248435D-01
     10 -0.275320D-01  0.191748D-02  0.103799D-01 -0.199115D-01 -0.117712D-01
     11 -0.185088D-01 -0.281886D-01  0.893587D-02 -0.444200D-03 -0.179933D-01
     12  0.138776D-01  0.448382D-03 -0.251337D-01 -0.609751D-02 -0.165709D-01
     13 -0.174319D-01 -0.531372D-03  0.251451D-02 -0.552593D-03  0.467808D-03
     14  0.123534D-01 -0.316397D-01  0.198804D-01 -0.369760D-02  0.274500D-02
     15 -0.120349D-02  0.109990D-01 -0.250137D-01 -0.533353D-02  0.259330D-02
     16 -0.197564D-03  0.854162D-03  0.188642D-02 -0.308329D-05 -0.126774D-04
     17  0.632927D-03 -0.241691D-02 -0.539326D-02 -0.128867D-04 -0.529856D-04
     18 -0.515447D-03  0.199105D-02  0.443849D-02  0.887413D-05  0.364872D-04
     19  0.171333D-02  0.350247D-03 -0.573682D-03 -0.994573D-05 -0.408933D-04
     20  0.546114D-02  0.782971D-03 -0.250704D-02 -0.386607D-04 -0.158959D-03
     21 -0.405288D-02  0.110729D-03  0.326825D-02  0.431308D-04  0.177339D-03
                6             7             8             9            10 
      6  0.621895D-01
      7 -0.108821D-01  0.223213D-01
      8  0.807401D-02  0.978955D-02  0.506543D-01
      9 -0.330507D-01  0.299186D-02 -0.203073D-01  0.436252D-01
     10 -0.868476D-02 -0.216956D-01 -0.502020D-02  0.147764D-02  0.109046D+00
     11 -0.329986D-02 -0.182085D-02 -0.438873D-01 -0.834609D-02  0.923006D-02
     12 -0.367746D-01  0.938841D-02  0.107163D-01 -0.154032D-01 -0.102028D-01
     13  0.150828D-03 -0.151833D-02  0.666016D-03 -0.195362D-03 -0.411717D-01
     14  0.123800D-02 -0.703313D-02  0.312684D-02 -0.661048D-03  0.405902D-02
     15  0.259687D-02  0.941977D-03 -0.204868D-03  0.133786D-02  0.705327D-02
     16  0.991846D-05  0.000000D+00  0.251269D-05  0.144564D-04  0.669788D-03
     17  0.414546D-04  0.000000D+00  0.105019D-04  0.604211D-04  0.171175D-03
     18 -0.285467D-04  0.000000D+00 -0.723186D-05 -0.416075D-04  0.255450D-04
     19  0.319939D-04  0.000000D+00  0.810515D-05  0.466318D-04  0.594770D-03
     20  0.124365D-03 -0.101574D-05  0.315061D-04  0.181266D-03  0.141366D-02
     21 -0.138745D-03  0.113318D-05 -0.351489D-04 -0.202224D-03 -0.487800D-04
               11            12            13            14            15 
     11  0.122237D+00
     12  0.119666D-01  0.102899D+00
     13  0.399286D-02 -0.146282D-01  0.116377D+00
     14 -0.397057D-01 -0.655998D-02 -0.133152D-01  0.111504D+00
     15 -0.110623D-01 -0.351470D-01  0.247065D-02  0.636537D-02  0.119760D+00
     16  0.442353D-02  0.617404D-02 -0.151974D-01  0.667298D-02  0.157721D-02
     17  0.650466D-03 -0.816750D-03  0.303157D-03 -0.191435D-01 -0.113210D-01
     18  0.525471D-03  0.201514D-02 -0.606235D-02 -0.146828D-01 -0.378579D-01
     19  0.312740D-02  0.148843D-02 -0.405054D-01  0.960484D-03 -0.550609D-02
     20  0.688774D-02  0.816317D-03  0.841669D-02 -0.268868D-01  0.263046D-02
     21  0.128030D-02  0.754407D-02  0.157499D-01 -0.557998D-02 -0.256759D-01
               16            17            18            19            20 
     16  0.399787D-01
     17 -0.255045D-02  0.238615D-01
     18  0.171176D-01  0.225368D-01  0.511709D-01
     19 -0.252504D-01  0.145641D-02 -0.105744D-01  0.634579D-01
     20 -0.939006D-02 -0.290900D-02 -0.103998D-01 -0.586176D-02  0.222525D-01
     21 -0.267796D-01 -0.510765D-02 -0.196965D-01  0.150872D-01  0.915442D-02
               21 
     21  0.349010D-01
 Leave Link  716 at Mon Nov 13 17:34:55 2023, MaxMem=  1879048192 cpu:               0.5 elap:               0.0
 (Enter /home/sekinelabo/g16/l103.exe)

 GradGradGradGradGradGradGradGradGradGradGradGradGradGradGradGradGradGrad
 Berny optimization.
 Search for a local minimum.
 Step number   1 out of a maximum of    2
 All quantities printed in internal units (Hartrees-Bohrs-Radians)
 Second derivative matrix not updated -- first step.
 ITU=  0
     Eigenvalues ---    0.00684   0.00813   0.01302   0.03338   0.03663
     Eigenvalues ---    0.04098   0.05229   0.09886   0.10389   0.10819
     Eigenvalues ---    0.11579   0.13559   0.16195   0.17373   0.19169
 Quadratic step=4.176D-01 exceeds max=3.000D-01 adjusted using Lamda=-1.157D-02.
 Angle between NR and scaled steps=  15.91 degrees.
 Angle between quadratic step and forces=  28.85 degrees.
 Linear search not attempted -- first point.
 B after Tr=     0.000000   -0.000000    0.000000
         Rot=    1.000000    0.000000    0.000000    0.000000 Ang=   0.00 deg.
 Variable       Old X    -DE/DX   Delta X   Delta X   Delta X     New X
                                 (Linear)    (Quad)   (Total)
    X1        6.91017   0.00124   0.00000   0.00724   0.00724   6.91741
    Y1        8.74865   0.00838   0.00000   0.15028   0.15028   8.89893
    Z1        2.10705  -0.00500   0.00000  -0.01180  -0.01180   2.09524
    X2        0.00000  -0.00223   0.00000  -0.00618  -0.00618  -0.00618
    Y2        2.67981  -0.00044   0.00000  -0.06863  -0.06863   2.61118
    Z2        0.19022  -0.01005   0.00000  -0.09552  -0.09552   0.09471
    X3        0.80146  -0.00095   0.00000  -0.04950  -0.04950   0.75196
    Y3        0.00000  -0.00825   0.00000  -0.07320  -0.07320  -0.07320
    Z3        5.11664   0.00636   0.00000   0.07602   0.07602   5.19266
    X4        3.14522  -0.00287   0.00000  -0.05122  -0.05122   3.09401
    Y4        5.08760   0.00617   0.00000   0.06819   0.06819   5.15579
    Z4        4.24549   0.00573   0.00000   0.03899   0.03899   4.28448
    X5        8.69122  -0.00056   0.00000   0.01773   0.01773   8.70895
    Y5        3.92161   0.00086   0.00000   0.04042   0.04042   3.96204
    Z5        4.47923   0.00979   0.00000   0.06246   0.06246   4.54169
    X6        9.71282  -0.00320   0.00000  -0.01695  -0.01695   9.69587
    Y6        0.59268  -0.00381   0.00000  -0.02231  -0.02231   0.57036
    Z6        0.00000  -0.00851   0.00000  -0.07615  -0.07615  -0.07615
    X7       13.85802   0.00856   0.00000   0.09888   0.09888  13.95690
    Y7        1.72083  -0.00290   0.00000  -0.09475  -0.09475   1.62608
    Z7        3.69797   0.00169   0.00000   0.00600   0.00600   3.70398
         Item               Value     Threshold  Converged?
 Maximum Force            0.010048     0.000450     NO 
 RMS     Force            0.005648     0.000300     NO 
 Maximum Displacement     0.150277     0.001800     NO 
 RMS     Displacement     0.065556     0.001200     NO 
 Predicted change in Energy=-3.927456D-03
 GradGradGradGradGradGradGradGradGradGradGradGradGradGradGradGradGradGrad

 Leave Link  103 at Mon Nov 13 17:34:55 2023, MaxMem=  1879048192 cpu:               0.3 elap:               0.0
 (Enter /home/sekinelabo/g16/l9999.exe)
 1\1\GINC-SEKINELABO-XA7R-R37\Force\UB3LYP\6-311+G(d)\Na7(2)\SEKINELABO
 \13-Nov-2023\0\\#P B3LYP/6-311+g(d) force\\Gaussian input prepared by 
 ASE\\0,2\Na,3.6567034272,4.6295883703,1.1150007006\Na,0.,1.4180963888,
 0.1006625748\Na,0.4241161014,0.,2.7076099939\Na,1.66437982,2.692240036
 7,2.2466175096\Na,4.5991965392,2.0752291006,2.3703065781\Na,5.13980241
 3,0.3136306373,0.\Na,7.3333488623,0.9106244962,1.956882871\\Version=ES
 64L-G16RevB.01\State=2-A\HF=-1136.1003526\S2=0.758879\S2-1=0.\S2A=0.75
 0047\RMSD=2.983e-09\RMSF=5.648e-03\Dipole=0.5772938,-0.217545,-0.19333
 54\Quadrupole=7.4275744,-2.1727671,-5.2548073,1.0112292,1.8618852,-1.0
 808615\PG=C01 [X(Na7)]\\@


 BOOKS ARE LIGHTHOUSES ERECTED IN THE GREAT SEA OF TIME.
     -- E.P.WHIPPLE
 Job cpu time:       0 days  0 hours  4 minutes 36.5 seconds.
 Elapsed time:       0 days  0 hours  0 minutes 22.8 seconds.
 File lengths (MBytes):  RWF=     32 Int=      0 D2E=      0 Chk=      5 Scr=      1
 Normal termination of Gaussian 16 at Mon Nov 13 17:34:55 2023.
