 Entering Gaussian System, Link 0=g16
 Initial command:
 /home/sekinelabo/g16/l1.exe "/home/sekinelabo/g16temp/Gau-4000897.inp" -scrdir="/home/sekinelabo/g16temp/"
 Entering Link 1 = /home/sekinelabo/g16/l1.exe PID=   4000899.
  
 Copyright (c) 1988-2017, Gaussian, Inc.  All Rights Reserved.
  
 This is part of the Gaussian(R) 16 program.  It is based on
 the Gaussian(R) 09 system (copyright 2009, Gaussian, Inc.),
 the Gaussian(R) 03 system (copyright 2003, Gaussian, Inc.),
 the Gaussian(R) 98 system (copyright 1998, Gaussian, Inc.),
 the Gaussian(R) 94 system (copyright 1995, Gaussian, Inc.),
 the Gaussian 92(TM) system (copyright 1992, Gaussian, Inc.),
 the Gaussian 90(TM) system (copyright 1990, Gaussian, Inc.),
 the Gaussian 88(TM) system (copyright 1988, Gaussian, Inc.),
 the Gaussian 86(TM) system (copyright 1986, Carnegie Mellon
 University), and the Gaussian 82(TM) system (copyright 1983,
 Carnegie Mellon University). Gaussian is a federally registered
 trademark of Gaussian, Inc.
  
 This software contains proprietary and confidential information,
 including trade secrets, belonging to Gaussian, Inc.
  
 This software is provided under written license and may be
 used, copied, transmitted, or stored only in accord with that
 written license.
  
 The following legend is applicable only to US Government
 contracts under FAR:
  
                    RESTRICTED RIGHTS LEGEND
  
 Use, reproduction and disclosure by the US Government is
 subject to restrictions as set forth in subparagraphs (a)
 and (c) of the Commercial Computer Software - Restricted
 Rights clause in FAR 52.227-19.
  
 Gaussian, Inc.
 340 Quinnipiac St., Bldg. 40, Wallingford CT 06492
  
  
 ---------------------------------------------------------------
 Warning -- This program may not be used in any manner that
 competes with the business of Gaussian, Inc. or will provide
 assistance to any competitor of Gaussian, Inc.  The licensee
 of this program is prohibited from giving any competitor of
 Gaussian, Inc. access to this program.  By using this program,
 the user acknowledges that Gaussian, Inc. is engaged in the
 business of creating and licensing software in the field of
 computational chemistry and represents and warrants to the
 licensee that it is not a competitor of Gaussian, Inc. and that
 it will not use this program in any manner prohibited above.
 ---------------------------------------------------------------
  

 Cite this work as:
 Gaussian 16, Revision B.01,
 M. J. Frisch, G. W. Trucks, H. B. Schlegel, G. E. Scuseria, 
 M. A. Robb, J. R. Cheeseman, G. Scalmani, V. Barone, 
 G. A. Petersson, H. Nakatsuji, X. Li, M. Caricato, A. V. Marenich, 
 J. Bloino, B. G. Janesko, R. Gomperts, B. Mennucci, H. P. Hratchian, 
 J. V. Ortiz, A. F. Izmaylov, J. L. Sonnenberg, D. Williams-Young, 
 F. Ding, F. Lipparini, F. Egidi, J. Goings, B. Peng, A. Petrone, 
 T. Henderson, D. Ranasinghe, V. G. Zakrzewski, J. Gao, N. Rega, 
 G. Zheng, W. Liang, M. Hada, M. Ehara, K. Toyota, R. Fukuda, 
 J. Hasegawa, M. Ishida, T. Nakajima, Y. Honda, O. Kitao, H. Nakai, 
 T. Vreven, K. Throssell, J. A. Montgomery, Jr., J. E. Peralta, 
 F. Ogliaro, M. J. Bearpark, J. J. Heyd, E. N. Brothers, K. N. Kudin, 
 V. N. Staroverov, T. A. Keith, R. Kobayashi, J. Normand, 
 K. Raghavachari, A. P. Rendell, J. C. Burant, S. S. Iyengar, 
 J. Tomasi, M. Cossi, J. M. Millam, M. Klene, C. Adamo, R. Cammi, 
 J. W. Ochterski, R. L. Martin, K. Morokuma, O. Farkas, 
 J. B. Foresman, and D. J. Fox, Gaussian, Inc., Wallingford CT, 2016.
 
 ******************************************
 Gaussian 16:  ES64L-G16RevB.01 20-Dec-2017
                13-Nov-2023 
 ******************************************
 %mem=14GB
 %chk=checkpoint.chk
 %nprocshared=16
 Will use up to   16 processors via shared memory.
 -------------------------
 #P B3LYP/6-311+g(d) force
 -------------------------
 1/10=7,30=1,38=1/1,3;
 2/12=2,17=6,18=5,40=1/2;
 3/5=4,6=6,7=11,11=2,25=1,30=1,71=1,74=-5/1,2,3;
 4//1;
 5/5=2,38=5/2;
 6/7=2,8=2,9=2,10=2,28=1/1;
 7/29=1/1,2,3,16;
 1/10=7,30=1/3;
 99//99;
 Leave Link    1 at Mon Nov 13 15:01:00 2023, MaxMem=  1879048192 cpu:               0.3 elap:               0.0
 (Enter /home/sekinelabo/g16/l101.exe)
 ------------------------------
 Gaussian input prepared by ASE
 ------------------------------
 Symbolic Z-matrix:
 Charge =  0 Multiplicity = 2
 Na                    9.69982   1.39722   1.09724 
 Na                    7.06342   0.        0.87127 
 Na                    8.1034    5.45069   1.12024 
 Na                    7.20173   2.74765   2.07146 
 Na                    4.30111   3.40589   1.66536 
 Na                    1.82153   3.145     0. 
 Na                    0.        1.79529   1.96423 
 
 ITRead=  0  0  0  0  0  0  0
 MicOpt= -1 -1 -1 -1 -1 -1 -1
 NAtoms=      7 NQM=        7 NQMF=       0 NMMI=      0 NMMIF=      0
                NMic=       0 NMicF=      0.
                    Isotopes and Nuclear Properties:
 (Nuclear quadrupole moments (NQMom) in fm**2, nuclear magnetic moments (NMagM)
  in nuclear magnetons)

  Atom         1           2           3           4           5           6           7
 IAtWgt=          23          23          23          23          23          23          23
 AtmWgt=  22.9897697  22.9897697  22.9897697  22.9897697  22.9897697  22.9897697  22.9897697
 NucSpn=           3           3           3           3           3           3           3
 AtZEff=  -0.0000000  -0.0000000  -0.0000000  -0.0000000  -0.0000000  -0.0000000  -0.0000000
 NQMom=   10.4000000  10.4000000  10.4000000  10.4000000  10.4000000  10.4000000  10.4000000
 NMagM=    2.2175200   2.2175200   2.2175200   2.2175200   2.2175200   2.2175200   2.2175200
 AtZNuc=  11.0000000  11.0000000  11.0000000  11.0000000  11.0000000  11.0000000  11.0000000
 Leave Link  101 at Mon Nov 13 15:01:00 2023, MaxMem=  1879048192 cpu:               2.6 elap:               0.2
 (Enter /home/sekinelabo/g16/l103.exe)

 GradGradGradGradGradGradGradGradGradGradGradGradGradGradGradGradGradGrad
 Berny optimization.
 Initialization pass.
 Trust Radius=3.00D-01 FncErr=1.00D-07 GrdErr=1.00D-07 EigMax=2.50D+02 EigMin=1.00D-04
 Number of steps in this run=      2 maximum allowed number of steps=      2.
 GradGradGradGradGradGradGradGradGradGradGradGradGradGradGradGradGradGrad

 Leave Link  103 at Mon Nov 13 15:01:00 2023, MaxMem=  1879048192 cpu:               0.2 elap:               0.0
 (Enter /home/sekinelabo/g16/l202.exe)
                          Input orientation:                          
 ---------------------------------------------------------------------
 Center     Atomic      Atomic             Coordinates (Angstroms)
 Number     Number       Type             X           Y           Z
 ---------------------------------------------------------------------
      1         11           0        9.699819    1.397225    1.097236
      2         11           0        7.063417    0.000000    0.871272
      3         11           0        8.103398    5.450694    1.120237
      4         11           0        7.201726    2.747645    2.071456
      5         11           0        4.301109    3.405890    1.665355
      6         11           0        1.821532    3.145000    0.000000
      7         11           0        0.000000    1.795287    1.964228
 ---------------------------------------------------------------------
                    Distance matrix (angstroms):
                    1          2          3          4          5
     1  Na   0.000000
     2  Na   2.992308   0.000000
     3  Na   4.356570   5.554603   0.000000
     4  Na   3.002200   3.001520   3.004048   0.000000
     5  Na   5.788226   4.456569   4.351526   3.001963   0.000000
     6  Na   8.144081   6.174748   6.784762   5.778868   2.998295
     7  Na   9.746620   7.369496   8.929691   7.265214   4.602489
                    6          7
     6  Na   0.000000
     7  Na   2.999650   0.000000
 Stoichiometry    Na7(2)
 Framework group  C1[X(Na7)]
 Deg. of freedom    15
 Full point group                 C1      NOp   1
 Largest Abelian subgroup         C1      NOp   1
 Largest concise Abelian subgroup C1      NOp   1
                         Standard orientation:                         
 ---------------------------------------------------------------------
 Center     Atomic      Atomic             Coordinates (Angstroms)
 Number     Number       Type             X           Y           Z
 ---------------------------------------------------------------------
      1         11           0       -4.243961   -1.165881    0.158447
      2         11           0       -1.607560   -2.563106    0.384411
      3         11           0       -2.647541    2.887588    0.135447
      4         11           0       -1.745869    0.184539   -0.815773
      5         11           0        1.154748    0.842784   -0.409671
      6         11           0        3.634325    0.581895    1.255684
      7         11           0        5.455857   -0.767819   -0.708545
 ---------------------------------------------------------------------
 Rotational constants (GHZ):           1.0446717           0.2815978           0.2366269
 Leave Link  202 at Mon Nov 13 15:01:00 2023, MaxMem=  1879048192 cpu:               0.1 elap:               0.0
 (Enter /home/sekinelabo/g16/l301.exe)
 Standard basis: 6-311+G(d) (5D, 7F)
 Ernie: Thresh=  0.10000D-02 Tol=  0.10000D-05 Strict=F.
 There are   217 symmetry adapted cartesian basis functions of A   symmetry.
 There are   210 symmetry adapted basis functions of A   symmetry.
   210 basis functions,   350 primitive gaussians,   217 cartesian basis functions
    39 alpha electrons       38 beta electrons
       nuclear repulsion energy       299.6773430109 Hartrees.
 IExCor=  402 DFT=T Ex+Corr=B3LYP ExCW=0 ScaHFX=  0.200000
 ScaDFX=  0.800000  0.720000  1.000000  0.810000 ScalE2=  1.000000  1.000000
 IRadAn=      5 IRanWt=     -1 IRanGd=            0 ICorTp=0 IEmpDi=  4
 NAtoms=    7 NActive=    7 NUniq=    7 SFac= 1.00D+00 NAtFMM=   60 NAOKFM=F Big=F
 Integral buffers will be    131072 words long.
 Raffenetti 2 integral format.
 Two-electron integral symmetry is turned on.
 Leave Link  301 at Mon Nov 13 15:01:00 2023, MaxMem=  1879048192 cpu:               0.5 elap:               0.0
 (Enter /home/sekinelabo/g16/l302.exe)
 NPDir=0 NMtPBC=     1 NCelOv=     1 NCel=       1 NClECP=     1 NCelD=      1
         NCelK=      1 NCelE2=     1 NClLst=     1 CellRange=     0.0.
 One-electron integrals computed using PRISM.
 One-electron integral symmetry used in STVInt
 NBasis=   210 RedAO= T EigKep=  1.84D-06  NBF=   210
 NBsUse=   210 1.00D-06 EigRej= -1.00D+00 NBFU=   210
 Precomputing XC quadrature grid using
 IXCGrd= 4 IRadAn=           5 IRanWt=          -1 IRanGd=           0 AccXCQ= 0.00D+00.
 Generated NRdTot=       0 NPtTot=           0 NUsed=           0 NTot=          32
 NSgBfM=   207   207   207   207   207 MxSgAt=     7 MxSgA2=     7.
 Leave Link  302 at Mon Nov 13 15:01:00 2023, MaxMem=  1879048192 cpu:               2.1 elap:               0.1
 (Enter /home/sekinelabo/g16/l303.exe)
 DipDrv:  MaxL=1.
 Leave Link  303 at Mon Nov 13 15:01:00 2023, MaxMem=  1879048192 cpu:               0.5 elap:               0.0
 (Enter /home/sekinelabo/g16/l401.exe)
 ExpMin= 7.60D-03 ExpMax= 3.62D+04 ExpMxC= 1.21D+03 IAcc=3 IRadAn=         5 AccDes= 0.00D+00
 Harris functional with IExCor=  402 and IRadAn=       5 diagonalized for initial guess.
 HarFok:  IExCor=  402 AccDes= 0.00D+00 IRadAn=         5 IDoV= 1 UseB2=F ITyADJ=14
 ICtDFT=  3500011 ScaDFX=  1.000000  1.000000  1.000000  1.000000
 FoFCou: FMM=F IPFlag=           0 FMFlag=      100000 FMFlg1=           0
         NFxFlg=           0 DoJE=T BraDBF=F KetDBF=T FulRan=T
         wScrn=  0.000000 ICntrl=       500 IOpCl=  0 I1Cent=   200000004 NGrid=           0
         NMat0=    1 NMatS0=      1 NMatT0=    0 NMatD0=    1 NMtDS0=    0 NMtDT0=    0
 Petite list used in FoFCou.
 Harris En= -1135.87398218751    
 JPrj=0 DoOrth=F DoCkMO=F.
 Initial guess <Sx>= 0.0000 <Sy>= 0.0000 <Sz>= 0.5000 <S**2>= 0.7500 S= 0.5000
 Leave Link  401 at Mon Nov 13 15:01:01 2023, MaxMem=  1879048192 cpu:               4.6 elap:               0.3
 (Enter /home/sekinelabo/g16/l502.exe)
 Keep R1 and R2 ints in memory in canonical form, NReq=507620360.
 FoFCou: FMM=F IPFlag=           0 FMFlag=           0 FMFlg1=           0
         NFxFlg=           0 DoJE=F BraDBF=F KetDBF=F FulRan=T
         wScrn=  0.000000 ICntrl=       600 IOpCl=  0 I1Cent=           0 NGrid=           0
         NMat0=    1 NMatS0=  22155 NMatT0=    0 NMatD0=    1 NMtDS0=    0 NMtDT0=    0
 Symmetry not used in FoFCou.
 Two-electron integral symmetry not used.
 UHF open shell SCF:
 Using DIIS extrapolation, IDIIS=  1040.
 NGot=  1879048192 LenX=  1388082376 LenY=  1388034846
 Requested convergence on RMS density matrix=1.00D-08 within 128 cycles.
 Requested convergence on MAX density matrix=1.00D-06.
 Requested convergence on             energy=1.00D-06.
 No special actions if energy rises.

 Cycle   1  Pass 1  IDiag  1:
 E= -1136.07138293597    
 DIIS: error= 1.07D-02 at cycle   1 NSaved=   1.
 NSaved= 1 IEnMin= 1 EnMin= -1136.07138293597     IErMin= 1 ErrMin= 1.07D-02
 ErrMax= 1.07D-02  0.00D+00 EMaxC= 1.00D-01 BMatC= 1.86D-01 BMatP= 1.86D-01
 IDIUse=3 WtCom= 8.93D-01 WtEn= 1.07D-01
 Coeff-Com:  0.100D+01
 Coeff-En:   0.100D+01
 Coeff:      0.100D+01
 Gap=     0.035 Goal=   None    Shift=    0.000
 Gap=     0.031 Goal=   None    Shift=    0.000
 GapD=    0.031 DampG=0.250 DampE=0.500 DampFc=0.2500 IDamp=-1.
 Damping current iteration by 2.50D-01
 RMSDP=1.40D-02 MaxDP=9.73D-01              OVMax= 2.95D-01

 Cycle   2  Pass 1  IDiag  1:
 E= -1136.08150230218     Delta-E=       -0.010119366210 Rises=F Damp=T
 DIIS: error= 7.64D-03 at cycle   2 NSaved=   2.
 NSaved= 2 IEnMin= 2 EnMin= -1136.08150230218     IErMin= 2 ErrMin= 7.64D-03
 ErrMax= 7.64D-03  0.00D+00 EMaxC= 1.00D-01 BMatC= 7.19D-02 BMatP= 1.86D-01
 IDIUse=3 WtCom= 9.24D-01 WtEn= 7.64D-02
 Coeff-Com: -0.128D+01 0.228D+01
 Coeff-En:   0.000D+00 0.100D+01
 Coeff:     -0.118D+01 0.218D+01
 Gap=     0.058 Goal=   None    Shift=    0.000
 Gap=     0.046 Goal=   None    Shift=    0.000
 RMSDP=8.00D-03 MaxDP=7.61D-01 DE=-1.01D-02 OVMax= 3.45D-01

 Cycle   3  Pass 1  IDiag  1:
 E= -1136.09443076044     Delta-E=       -0.012928458259 Rises=F Damp=F
 DIIS: error= 3.60D-03 at cycle   3 NSaved=   3.
 NSaved= 3 IEnMin= 3 EnMin= -1136.09443076044     IErMin= 3 ErrMin= 3.60D-03
 ErrMax= 3.60D-03  0.00D+00 EMaxC= 1.00D-01 BMatC= 5.70D-03 BMatP= 7.19D-02
 IDIUse=3 WtCom= 9.64D-01 WtEn= 3.60D-02
 Coeff-Com: -0.383D+00 0.655D+00 0.728D+00
 Coeff-En:   0.000D+00 0.000D+00 0.100D+01
 Coeff:     -0.369D+00 0.631D+00 0.737D+00
 Gap=     0.046 Goal=   None    Shift=    0.000
 Gap=     0.038 Goal=   None    Shift=    0.000
 RMSDP=4.20D-03 MaxDP=1.79D-01 DE=-1.29D-02 OVMax= 2.30D-01

 Cycle   4  Pass 1  IDiag  1:
 E= -1136.09394424400     Delta-E=        0.000486516447 Rises=F Damp=F
 DIIS: error= 3.85D-03 at cycle   4 NSaved=   4.
 NSaved= 4 IEnMin= 3 EnMin= -1136.09443076044     IErMin= 3 ErrMin= 3.60D-03
 ErrMax= 3.85D-03  0.00D+00 EMaxC= 1.00D-01 BMatC= 6.17D-03 BMatP= 5.70D-03
 IDIUse=3 WtCom= 9.61D-01 WtEn= 3.85D-02
 Coeff-Com: -0.350D-01 0.518D-01 0.507D+00 0.476D+00
 Coeff-En:   0.000D+00 0.000D+00 0.512D+00 0.488D+00
 Coeff:     -0.336D-01 0.498D-01 0.507D+00 0.477D+00
 Gap=     0.047 Goal=   None    Shift=    0.000
 Gap=     0.038 Goal=   None    Shift=    0.000
 RMSDP=2.16D-03 MaxDP=1.10D-01 DE= 4.87D-04 OVMax= 1.54D-01

 Cycle   5  Pass 1  IDiag  1:
 E= -1136.10221431089     Delta-E=       -0.008270066898 Rises=F Damp=F
 DIIS: error= 4.18D-04 at cycle   5 NSaved=   5.
 NSaved= 5 IEnMin= 5 EnMin= -1136.10221431089     IErMin= 5 ErrMin= 4.18D-04
 ErrMax= 4.18D-04  0.00D+00 EMaxC= 1.00D-01 BMatC= 1.18D-04 BMatP= 5.70D-03
 IDIUse=3 WtCom= 9.96D-01 WtEn= 4.18D-03
 Coeff-Com: -0.113D-01 0.142D-01 0.184D+00 0.184D+00 0.629D+00
 Coeff-En:   0.000D+00 0.000D+00 0.000D+00 0.000D+00 0.100D+01
 Coeff:     -0.112D-01 0.142D-01 0.183D+00 0.183D+00 0.631D+00
 Gap=     0.043 Goal=   None    Shift=    0.000
 Gap=     0.037 Goal=   None    Shift=    0.000
 RMSDP=4.94D-04 MaxDP=2.32D-02 DE=-8.27D-03 OVMax= 2.00D-02

 Cycle   6  Pass 1  IDiag  1:
 E= -1136.10232716947     Delta-E=       -0.000112858572 Rises=F Damp=F
 DIIS: error= 3.76D-04 at cycle   6 NSaved=   6.
 NSaved= 6 IEnMin= 6 EnMin= -1136.10232716947     IErMin= 6 ErrMin= 3.76D-04
 ErrMax= 3.76D-04  0.00D+00 EMaxC= 1.00D-01 BMatC= 4.82D-05 BMatP= 1.18D-04
 IDIUse=3 WtCom= 9.96D-01 WtEn= 3.76D-03
 Coeff-Com: -0.152D-02 0.124D-02-0.442D-01-0.400D-01 0.382D+00 0.702D+00
 Coeff-En:   0.000D+00 0.000D+00 0.000D+00 0.000D+00 0.201D+00 0.799D+00
 Coeff:     -0.152D-02 0.123D-02-0.440D-01-0.398D-01 0.381D+00 0.703D+00
 Gap=     0.044 Goal=   None    Shift=    0.000
 Gap=     0.038 Goal=   None    Shift=    0.000
 RMSDP=3.08D-04 MaxDP=1.77D-02 DE=-1.13D-04 OVMax= 1.27D-02

 Cycle   7  Pass 1  IDiag  1:
 E= -1136.10240154906     Delta-E=       -0.000074379589 Rises=F Damp=F
 DIIS: error= 7.14D-05 at cycle   7 NSaved=   7.
 NSaved= 7 IEnMin= 7 EnMin= -1136.10240154906     IErMin= 7 ErrMin= 7.14D-05
 ErrMax= 7.14D-05  0.00D+00 EMaxC= 1.00D-01 BMatC= 1.76D-06 BMatP= 4.82D-05
 IDIUse=1 WtCom= 1.00D+00 WtEn= 0.00D+00
 Coeff-Com: -0.619D-03 0.821D-03-0.191D-01-0.186D-01-0.200D-01 0.619D-01
 Coeff-Com:  0.996D+00
 Coeff:     -0.619D-03 0.821D-03-0.191D-01-0.186D-01-0.200D-01 0.619D-01
 Coeff:      0.996D+00
 Gap=     0.044 Goal=   None    Shift=    0.000
 Gap=     0.038 Goal=   None    Shift=    0.000
 RMSDP=1.62D-04 MaxDP=1.09D-02 DE=-7.44D-05 OVMax= 6.25D-03

 Cycle   8  Pass 1  IDiag  1:
 E= -1136.10241127917     Delta-E=       -0.000009730115 Rises=F Damp=F
 DIIS: error= 2.97D-05 at cycle   8 NSaved=   8.
 NSaved= 8 IEnMin= 8 EnMin= -1136.10241127917     IErMin= 8 ErrMin= 2.97D-05
 ErrMax= 2.97D-05  0.00D+00 EMaxC= 1.00D-01 BMatC= 4.39D-07 BMatP= 1.76D-06
 IDIUse=1 WtCom= 1.00D+00 WtEn= 0.00D+00
 Coeff-Com:  0.159D-02-0.209D-02 0.367D-02 0.425D-02-0.576D-01-0.100D+00
 Coeff-Com: -0.130D+00 0.128D+01
 Coeff:      0.159D-02-0.209D-02 0.367D-02 0.425D-02-0.576D-01-0.100D+00
 Coeff:     -0.130D+00 0.128D+01
 Gap=     0.044 Goal=   None    Shift=    0.000
 Gap=     0.038 Goal=   None    Shift=    0.000
 RMSDP=1.11D-04 MaxDP=6.75D-03 DE=-9.73D-06 OVMax= 5.06D-03

 Cycle   9  Pass 1  IDiag  1:
 E= -1136.10241513542     Delta-E=       -0.000003856251 Rises=F Damp=F
 DIIS: error= 1.65D-05 at cycle   9 NSaved=   9.
 NSaved= 9 IEnMin= 9 EnMin= -1136.10241513542     IErMin= 9 ErrMin= 1.65D-05
 ErrMax= 1.65D-05  0.00D+00 EMaxC= 1.00D-01 BMatC= 1.56D-07 BMatP= 4.39D-07
 IDIUse=1 WtCom= 1.00D+00 WtEn= 0.00D+00
 Coeff-Com:  0.612D-03-0.799D-03 0.449D-02 0.402D-02-0.108D-01-0.380D-01
 Coeff-Com: -0.257D+00 0.498D+00 0.800D+00
 Coeff:      0.612D-03-0.799D-03 0.449D-02 0.402D-02-0.108D-01-0.380D-01
 Coeff:     -0.257D+00 0.498D+00 0.800D+00
 Gap=     0.044 Goal=   None    Shift=    0.000
 Gap=     0.038 Goal=   None    Shift=    0.000
 RMSDP=4.97D-05 MaxDP=4.35D-03 DE=-3.86D-06 OVMax= 1.94D-03

 Cycle  10  Pass 1  IDiag  1:
 E= -1136.10241592782     Delta-E=       -0.000000792400 Rises=F Damp=F
 DIIS: error= 1.25D-05 at cycle  10 NSaved=  10.
 NSaved=10 IEnMin=10 EnMin= -1136.10241592782     IErMin=10 ErrMin= 1.25D-05
 ErrMax= 1.25D-05  0.00D+00 EMaxC= 1.00D-01 BMatC= 5.02D-08 BMatP= 1.56D-07
 IDIUse=1 WtCom= 1.00D+00 WtEn= 0.00D+00
 Coeff-Com: -0.468D-03 0.625D-03 0.428D-03-0.528D-03 0.240D-01 0.310D-01
 Coeff-Com: -0.576D-01-0.266D+00 0.249D+00 0.102D+01
 Coeff:     -0.468D-03 0.625D-03 0.428D-03-0.528D-03 0.240D-01 0.310D-01
 Coeff:     -0.576D-01-0.266D+00 0.249D+00 0.102D+01
 Gap=     0.044 Goal=   None    Shift=    0.000
 Gap=     0.039 Goal=   None    Shift=    0.000
 RMSDP=4.62D-05 MaxDP=3.33D-03 DE=-7.92D-07 OVMax= 1.47D-03

 Cycle  11  Pass 1  IDiag  1:
 E= -1136.10241625691     Delta-E=       -0.000000329093 Rises=F Damp=F
 DIIS: error= 4.35D-06 at cycle  11 NSaved=  11.
 NSaved=11 IEnMin=11 EnMin= -1136.10241625691     IErMin=11 ErrMin= 4.35D-06
 ErrMax= 4.35D-06  0.00D+00 EMaxC= 1.00D-01 BMatC= 1.40D-08 BMatP= 5.02D-08
 IDIUse=1 WtCom= 1.00D+00 WtEn= 0.00D+00
 Coeff-Com: -0.346D-03 0.456D-03-0.106D-02-0.157D-02 0.166D-01 0.286D-01
 Coeff-Com:  0.402D-01-0.291D+00-0.120D+00 0.505D+00 0.823D+00
 Coeff:     -0.346D-03 0.456D-03-0.106D-02-0.157D-02 0.166D-01 0.286D-01
 Coeff:      0.402D-01-0.291D+00-0.120D+00 0.505D+00 0.823D+00
 Gap=     0.044 Goal=   None    Shift=    0.000
 Gap=     0.039 Goal=   None    Shift=    0.000
 RMSDP=2.73D-05 MaxDP=1.91D-03 DE=-3.29D-07 OVMax= 8.80D-04

 Cycle  12  Pass 1  IDiag  1:
 E= -1136.10241634973     Delta-E=       -0.000000092813 Rises=F Damp=F
 DIIS: error= 2.35D-06 at cycle  12 NSaved=  12.
 NSaved=12 IEnMin=12 EnMin= -1136.10241634973     IErMin=12 ErrMin= 2.35D-06
 ErrMax= 2.35D-06  0.00D+00 EMaxC= 1.00D-01 BMatC= 1.78D-09 BMatP= 1.40D-08
 IDIUse=1 WtCom= 1.00D+00 WtEn= 0.00D+00
 Coeff-Com:  0.335D-04-0.455D-04-0.438D-03-0.370D-03-0.129D-02 0.193D-02
 Coeff-Com:  0.245D-01-0.318D-01-0.633D-01-0.943D-01 0.109D+00 0.106D+01
 Coeff:      0.335D-04-0.455D-04-0.438D-03-0.370D-03-0.129D-02 0.193D-02
 Coeff:      0.245D-01-0.318D-01-0.633D-01-0.943D-01 0.109D+00 0.106D+01
 Gap=     0.044 Goal=   None    Shift=    0.000
 Gap=     0.039 Goal=   None    Shift=    0.000
 RMSDP=1.56D-05 MaxDP=1.06D-03 DE=-9.28D-08 OVMax= 4.59D-04

 Cycle  13  Pass 1  IDiag  1:
 E= -1136.10241636475     Delta-E=       -0.000000015020 Rises=F Damp=F
 DIIS: error= 8.56D-07 at cycle  13 NSaved=  13.
 NSaved=13 IEnMin=13 EnMin= -1136.10241636475     IErMin=13 ErrMin= 8.56D-07
 ErrMax= 8.56D-07  0.00D+00 EMaxC= 1.00D-01 BMatC= 3.54D-10 BMatP= 1.78D-09
 IDIUse=1 WtCom= 1.00D+00 WtEn= 0.00D+00
 Coeff-Com:  0.596D-04-0.779D-04-0.318D-04 0.130D-03-0.323D-02-0.370D-02
 Coeff-Com: -0.215D-02 0.425D-01 0.131D-01-0.112D+00-0.119D+00 0.233D+00
 Coeff-Com:  0.951D+00
 Coeff:      0.596D-04-0.779D-04-0.318D-04 0.130D-03-0.323D-02-0.370D-02
 Coeff:     -0.215D-02 0.425D-01 0.131D-01-0.112D+00-0.119D+00 0.233D+00
 Coeff:      0.951D+00
 Gap=     0.044 Goal=   None    Shift=    0.000
 Gap=     0.039 Goal=   None    Shift=    0.000
 RMSDP=5.52D-06 MaxDP=3.64D-04 DE=-1.50D-08 OVMax= 1.13D-04

 Cycle  14  Pass 1  IDiag  1:
 E= -1136.10241636638     Delta-E=       -0.000000001634 Rises=F Damp=F
 DIIS: error= 4.45D-07 at cycle  14 NSaved=  14.
 NSaved=14 IEnMin=14 EnMin= -1136.10241636638     IErMin=14 ErrMin= 4.45D-07
 ErrMax= 4.45D-07  0.00D+00 EMaxC= 1.00D-01 BMatC= 4.04D-11 BMatP= 3.54D-10
 IDIUse=1 WtCom= 1.00D+00 WtEn= 0.00D+00
 Coeff-Com: -0.105D-04 0.143D-04 0.576D-04 0.498D-04 0.193D-03-0.266D-03
 Coeff-Com: -0.276D-02 0.500D-02 0.386D-02 0.161D-01-0.677D-03-0.156D+00
 Coeff-Com: -0.695D-01 0.120D+01
 Coeff:     -0.105D-04 0.143D-04 0.576D-04 0.498D-04 0.193D-03-0.266D-03
 Coeff:     -0.276D-02 0.500D-02 0.386D-02 0.161D-01-0.677D-03-0.156D+00
 Coeff:     -0.695D-01 0.120D+01
 Gap=     0.044 Goal=   None    Shift=    0.000
 Gap=     0.039 Goal=   None    Shift=    0.000
 RMSDP=2.48D-06 MaxDP=1.71D-04 DE=-1.63D-09 OVMax= 4.78D-05

 Cycle  15  Pass 1  IDiag  1:
 E= -1136.10241636667     Delta-E=       -0.000000000287 Rises=F Damp=F
 DIIS: error= 2.05D-07 at cycle  15 NSaved=  15.
 NSaved=15 IEnMin=15 EnMin= -1136.10241636667     IErMin=15 ErrMin= 2.05D-07
 ErrMax= 2.05D-07  0.00D+00 EMaxC= 1.00D-01 BMatC= 1.02D-11 BMatP= 4.04D-11
 IDIUse=1 WtCom= 1.00D+00 WtEn= 0.00D+00
 Coeff-Com: -0.985D-05 0.130D-04 0.230D-04 0.532D-06 0.473D-03 0.415D-03
 Coeff-Com: -0.148D-03-0.450D-02-0.605D-03 0.161D-01 0.119D-01-0.586D-01
 Coeff-Com: -0.129D+00 0.255D+00 0.909D+00
 Coeff:     -0.985D-05 0.130D-04 0.230D-04 0.532D-06 0.473D-03 0.415D-03
 Coeff:     -0.148D-03-0.450D-02-0.605D-03 0.161D-01 0.119D-01-0.586D-01
 Coeff:     -0.129D+00 0.255D+00 0.909D+00
 Gap=     0.044 Goal=   None    Shift=    0.000
 Gap=     0.039 Goal=   None    Shift=    0.000
 RMSDP=8.95D-07 MaxDP=6.19D-05 DE=-2.87D-10 OVMax= 1.78D-05

 Cycle  16  Pass 1  IDiag  1:
 E= -1136.10241636673     Delta-E=       -0.000000000058 Rises=F Damp=F
 DIIS: error= 1.16D-07 at cycle  16 NSaved=  16.
 NSaved=16 IEnMin=16 EnMin= -1136.10241636673     IErMin=16 ErrMin= 1.16D-07
 ErrMax= 1.16D-07  0.00D+00 EMaxC= 1.00D-01 BMatC= 3.68D-12 BMatP= 1.02D-11
 IDIUse=1 WtCom= 1.00D+00 WtEn= 0.00D+00
 Coeff-Com: -0.197D-06 0.831D-07-0.118D-04-0.130D-04 0.115D-03 0.245D-03
 Coeff-Com:  0.736D-03-0.313D-02-0.147D-02 0.149D-02 0.544D-02 0.238D-01
 Coeff-Com: -0.394D-01-0.250D+00 0.364D+00 0.898D+00
 Coeff:     -0.197D-06 0.831D-07-0.118D-04-0.130D-04 0.115D-03 0.245D-03
 Coeff:      0.736D-03-0.313D-02-0.147D-02 0.149D-02 0.544D-02 0.238D-01
 Coeff:     -0.394D-01-0.250D+00 0.364D+00 0.898D+00
 Gap=     0.044 Goal=   None    Shift=    0.000
 Gap=     0.039 Goal=   None    Shift=    0.000
 RMSDP=5.19D-07 MaxDP=3.59D-05 DE=-5.75D-11 OVMax= 1.11D-05

 Cycle  17  Pass 1  IDiag  1:
 E= -1136.10241636674     Delta-E=       -0.000000000015 Rises=F Damp=F
 DIIS: error= 3.64D-08 at cycle  17 NSaved=  17.
 NSaved=17 IEnMin=17 EnMin= -1136.10241636674     IErMin=17 ErrMin= 3.64D-08
 ErrMax= 3.64D-08  0.00D+00 EMaxC= 1.00D-01 BMatC= 5.83D-13 BMatP= 3.68D-12
 IDIUse=1 WtCom= 1.00D+00 WtEn= 0.00D+00
 Coeff-Com:  0.842D-06-0.116D-05-0.100D-04-0.372D-05-0.516D-04 0.337D-04
 Coeff-Com:  0.184D-03-0.223D-03-0.442D-04-0.191D-02-0.992D-03 0.163D-01
 Coeff-Com:  0.161D-01-0.112D+00-0.727D-01 0.177D+00 0.979D+00
 Coeff:      0.842D-06-0.116D-05-0.100D-04-0.372D-05-0.516D-04 0.337D-04
 Coeff:      0.184D-03-0.223D-03-0.442D-04-0.191D-02-0.992D-03 0.163D-01
 Coeff:      0.161D-01-0.112D+00-0.727D-01 0.177D+00 0.979D+00
 Gap=     0.044 Goal=   None    Shift=    0.000
 Gap=     0.039 Goal=   None    Shift=    0.000
 RMSDP=1.57D-07 MaxDP=1.08D-05 DE=-1.52D-11 OVMax= 3.73D-06

 Cycle  18  Pass 1  IDiag  1:
 E= -1136.10241636675     Delta-E=       -0.000000000007 Rises=F Damp=F
 DIIS: error= 8.14D-09 at cycle  18 NSaved=  18.
 NSaved=18 IEnMin=18 EnMin= -1136.10241636675     IErMin=18 ErrMin= 8.14D-09
 ErrMax= 8.14D-09  0.00D+00 EMaxC= 1.00D-01 BMatC= 6.06D-14 BMatP= 5.83D-13
 IDIUse=1 WtCom= 1.00D+00 WtEn= 0.00D+00
 Coeff-Com:  0.484D-06-0.631D-06-0.854D-06 0.782D-06-0.374D-04-0.418D-04
 Coeff-Com: -0.581D-04 0.505D-03 0.610D-04-0.834D-03-0.874D-03 0.102D-02
 Coeff-Com:  0.744D-02 0.156D-01-0.703D-01-0.100D+00 0.194D+00 0.954D+00
 Coeff:      0.484D-06-0.631D-06-0.854D-06 0.782D-06-0.374D-04-0.418D-04
 Coeff:     -0.581D-04 0.505D-03 0.610D-04-0.834D-03-0.874D-03 0.102D-02
 Coeff:      0.744D-02 0.156D-01-0.703D-01-0.100D+00 0.194D+00 0.954D+00
 Gap=     0.044 Goal=   None    Shift=    0.000
 Gap=     0.039 Goal=   None    Shift=    0.000
 RMSDP=4.56D-08 MaxDP=3.13D-06 DE=-7.28D-12 OVMax= 1.61D-06

 Cycle  19  Pass 1  IDiag  1:
 E= -1136.10241636675     Delta-E=        0.000000000003 Rises=F Damp=F
 DIIS: error= 3.16D-09 at cycle  19 NSaved=  19.
 NSaved=19 IEnMin=18 EnMin= -1136.10241636675     IErMin=19 ErrMin= 3.16D-09
 ErrMax= 3.16D-09  0.00D+00 EMaxC= 1.00D-01 BMatC= 7.86D-15 BMatP= 6.06D-14
 IDIUse=1 WtCom= 1.00D+00 WtEn= 0.00D+00
 Coeff-Com: -0.144D-06 0.192D-06 0.103D-05 0.479D-06 0.817D-05-0.286D-05
 Coeff-Com: -0.535D-05-0.109D-04-0.592D-04 0.255D-03 0.338D-03-0.203D-02
 Coeff-Com: -0.358D-02 0.159D-01 0.110D-01-0.275D-01-0.132D+00 0.456D-01
 Coeff-Com:  0.109D+01
 Coeff:     -0.144D-06 0.192D-06 0.103D-05 0.479D-06 0.817D-05-0.286D-05
 Coeff:     -0.535D-05-0.109D-04-0.592D-04 0.255D-03 0.338D-03-0.203D-02
 Coeff:     -0.358D-02 0.159D-01 0.110D-01-0.275D-01-0.132D+00 0.456D-01
 Coeff:      0.109D+01
 Gap=     0.044 Goal=   None    Shift=    0.000
 Gap=     0.039 Goal=   None    Shift=    0.000
 RMSDP=1.90D-08 MaxDP=1.17D-06 DE= 2.73D-12 OVMax= 5.64D-07

 Cycle  20  Pass 1  IDiag  1:
 E= -1136.10241636674     Delta-E=        0.000000000010 Rises=F Damp=F
 DIIS: error= 1.53D-09 at cycle  20 NSaved=  20.
 NSaved=20 IEnMin=18 EnMin= -1136.10241636675     IErMin=20 ErrMin= 1.53D-09
 ErrMax= 1.53D-09  0.00D+00 EMaxC= 1.00D-01 BMatC= 1.11D-15 BMatP= 7.86D-15
 IDIUse=1 WtCom= 1.00D+00 WtEn= 0.00D+00
 Large coefficients: NSaved= 20 BigCof=    0.00 CofMax=   10.00 Det=-1.98D-15
 Inversion failed.  Reducing to 19 matrices.
 Large coefficients: NSaved= 19 BigCof=    0.00 CofMax=   10.00 Det=-2.03D-15
 Inversion failed.  Reducing to 18 matrices.
 Large coefficients: NSaved= 18 BigCof=    0.00 CofMax=   10.00 Det=-2.04D-15
 Inversion failed.  Reducing to 17 matrices.
 Large coefficients: NSaved= 17 BigCof=    0.00 CofMax=   10.00 Det=-2.15D-15
 Inversion failed.  Reducing to 16 matrices.
 Large coefficients: NSaved= 16 BigCof=    0.00 CofMax=   10.00 Det=-2.37D-15
 Inversion failed.  Reducing to 15 matrices.
 Coeff-Com:  0.237D-05 0.112D-04-0.303D-04 0.104D-04-0.494D-04 0.720D-04
 Coeff-Com:  0.236D-03-0.284D-04-0.326D-02 0.384D-02 0.127D-01-0.741D-02
 Coeff-Com: -0.934D-01-0.630D-01 0.115D+01
 Coeff:      0.237D-05 0.112D-04-0.303D-04 0.104D-04-0.494D-04 0.720D-04
 Coeff:      0.236D-03-0.284D-04-0.326D-02 0.384D-02 0.127D-01-0.741D-02
 Coeff:     -0.934D-01-0.630D-01 0.115D+01
 Gap=     0.044 Goal=   None    Shift=    0.000
 Gap=     0.039 Goal=   None    Shift=    0.000
 RMSDP=5.18D-09 MaxDP=2.34D-07 DE= 9.78D-12 OVMax= 2.04D-07

 SCF Done:  E(UB3LYP) =  -1136.10241637     A.U. after   20 cycles
            NFock= 20  Conv=0.52D-08     -V/T= 2.0027
 <Sx>= 0.0000 <Sy>= 0.0000 <Sz>= 0.5000 <S**2>= 0.7818 S= 0.5158
 <L.S>= 0.000000000000E+00
 KE= 1.133058048572D+03 PE=-3.328694161130D+03 EE= 7.598563531803D+02
 Annihilation of the first spin contaminant:
 S**2 before annihilation     0.7818,   after     0.7504
 Leave Link  502 at Mon Nov 13 15:01:17 2023, MaxMem=  1879048192 cpu:             187.6 elap:              16.1
 (Enter /home/sekinelabo/g16/l601.exe)
 Copying SCF densities to generalized density rwf, IOpCl= 1 IROHF=0.

 **********************************************************************

            Population analysis using the SCF Density.

 **********************************************************************

 Orbital symmetries:
 Alpha Orbitals:
       Occupied  (A) (A) (A) (A) (A) (A) (A) (A) (A) (A) (A) (A)
                 (A) (A) (A) (A) (A) (A) (A) (A) (A) (A) (A) (A)
                 (A) (A) (A) (A) (A) (A) (A) (A) (A) (A) (A) (A)
                 (A) (A) (A)
       Virtual   (A) (A) (A) (A) (A) (A) (A) (A) (A) (A) (A) (A)
                 (A) (A) (A) (A) (A) (A) (A) (A) (A) (A) (A) (A)
                 (A) (A) (A) (A) (A) (A) (A) (A) (A) (A) (A) (A)
                 (A) (A) (A) (A) (A) (A) (A) (A) (A) (A) (A) (A)
                 (A) (A) (A) (A) (A) (A) (A) (A) (A) (A) (A) (A)
                 (A) (A) (A) (A) (A) (A) (A) (A) (A) (A) (A) (A)
                 (A) (A) (A) (A) (A) (A) (A) (A) (A) (A) (A) (A)
                 (A) (A) (A) (A) (A) (A) (A) (A) (A) (A) (A) (A)
                 (A) (A) (A) (A) (A) (A) (A) (A) (A) (A) (A) (A)
                 (A) (A) (A) (A) (A) (A) (A) (A) (A) (A) (A) (A)
                 (A) (A) (A) (A) (A) (A) (A) (A) (A) (A) (A) (A)
                 (A) (A) (A) (A) (A) (A) (A) (A) (A) (A) (A) (A)
                 (A) (A) (A) (A) (A) (A) (A) (A) (A) (A) (A) (A)
                 (A) (A) (A) (A) (A) (A) (A) (A) (A) (A) (A) (A)
                 (A) (A) (A)
 Beta  Orbitals:
       Occupied  (A) (A) (A) (A) (A) (A) (A) (A) (A) (A) (A) (A)
                 (A) (A) (A) (A) (A) (A) (A) (A) (A) (A) (A) (A)
                 (A) (A) (A) (A) (A) (A) (A) (A) (A) (A) (A) (A)
                 (A) (A)
       Virtual   (A) (A) (A) (A) (A) (A) (A) (A) (A) (A) (A) (A)
                 (A) (A) (A) (A) (A) (A) (A) (A) (A) (A) (A) (A)
                 (A) (A) (A) (A) (A) (A) (A) (A) (A) (A) (A) (A)
                 (A) (A) (A) (A) (A) (A) (A) (A) (A) (A) (A) (A)
                 (A) (A) (A) (A) (A) (A) (A) (A) (A) (A) (A) (A)
                 (A) (A) (A) (A) (A) (A) (A) (A) (A) (A) (A) (A)
                 (A) (A) (A) (A) (A) (A) (A) (A) (A) (A) (A) (A)
                 (A) (A) (A) (A) (A) (A) (A) (A) (A) (A) (A) (A)
                 (A) (A) (A) (A) (A) (A) (A) (A) (A) (A) (A) (A)
                 (A) (A) (A) (A) (A) (A) (A) (A) (A) (A) (A) (A)
                 (A) (A) (A) (A) (A) (A) (A) (A) (A) (A) (A) (A)
                 (A) (A) (A) (A) (A) (A) (A) (A) (A) (A) (A) (A)
                 (A) (A) (A) (A) (A) (A) (A) (A) (A) (A) (A) (A)
                 (A) (A) (A) (A) (A) (A) (A) (A) (A) (A) (A) (A)
                 (A) (A) (A) (A)
 The electronic state is 2-A.
 Alpha  occ. eigenvalues --  -38.44854 -38.44721 -38.44053 -38.43730 -38.43677
 Alpha  occ. eigenvalues --  -38.43592 -38.43089  -2.20677  -2.20595  -2.19956
 Alpha  occ. eigenvalues --   -2.19632  -2.19584  -2.19420  -2.19187  -1.14437
 Alpha  occ. eigenvalues --   -1.14322  -1.14314  -1.14293  -1.14227  -1.14163
 Alpha  occ. eigenvalues --   -1.13707  -1.13619  -1.13579  -1.13376  -1.13311
 Alpha  occ. eigenvalues --   -1.13280  -1.13218  -1.13210  -1.13177  -1.13157
 Alpha  occ. eigenvalues --   -1.13066  -1.13024  -1.12876  -1.12828  -1.12755
 Alpha  occ. eigenvalues --   -0.17343  -0.14892  -0.11544  -0.10884
 Alpha virt. eigenvalues --   -0.06448  -0.05090  -0.04054  -0.03667  -0.03398
 Alpha virt. eigenvalues --   -0.02310  -0.01502  -0.01200  -0.01074  -0.00404
 Alpha virt. eigenvalues --   -0.00319   0.00105   0.00495   0.00571   0.00672
 Alpha virt. eigenvalues --    0.00834   0.00910   0.01002   0.01204   0.01236
 Alpha virt. eigenvalues --    0.01337   0.01504   0.01765   0.01799   0.02024
 Alpha virt. eigenvalues --    0.02073   0.02178   0.02249   0.02279   0.02559
 Alpha virt. eigenvalues --    0.02606   0.02765   0.02866   0.02910   0.02983
 Alpha virt. eigenvalues --    0.03122   0.03227   0.03469   0.03564   0.03633
 Alpha virt. eigenvalues --    0.03812   0.03870   0.04183   0.04368   0.04526
 Alpha virt. eigenvalues --    0.04781   0.05073   0.05332   0.05513   0.05772
 Alpha virt. eigenvalues --    0.05952   0.06878   0.06956   0.07116   0.07180
 Alpha virt. eigenvalues --    0.07655   0.07911   0.08186   0.08425   0.08801
 Alpha virt. eigenvalues --    0.08935   0.09185   0.09245   0.09725   0.10264
 Alpha virt. eigenvalues --    0.10567   0.10859   0.11514   0.11911   0.12113
 Alpha virt. eigenvalues --    0.12444   0.12984   0.13311   0.14593   0.15130
 Alpha virt. eigenvalues --    0.15300   0.15674   0.16838   0.17162   0.19408
 Alpha virt. eigenvalues --    0.24933   0.26456   0.28994   0.29060   0.29796
 Alpha virt. eigenvalues --    0.30964   0.31415   0.32043   0.33175   0.33673
 Alpha virt. eigenvalues --    0.34109   0.34686   0.35235   0.35796   0.36046
 Alpha virt. eigenvalues --    0.36897   0.37395   0.38289   0.39181   0.39716
 Alpha virt. eigenvalues --    0.41060   0.41662   0.42350   0.42921   0.43271
 Alpha virt. eigenvalues --    0.43809   0.43900   0.44080   0.44800   0.45095
 Alpha virt. eigenvalues --    0.45342   0.45398   0.46064   0.46221   0.46792
 Alpha virt. eigenvalues --    0.47571   0.48098   0.48515   0.48689   0.48815
 Alpha virt. eigenvalues --    0.49462   0.50034   0.50631   0.51743   0.52639
 Alpha virt. eigenvalues --    0.54838   0.56557   0.58055   0.60040   0.67461
 Alpha virt. eigenvalues --    0.69725   0.71128   0.72417   0.74723   0.76118
 Alpha virt. eigenvalues --    0.81809   2.06265   2.09805   2.12725   2.14365
 Alpha virt. eigenvalues --    2.18070   2.19714   2.28720   4.40384   4.41297
 Alpha virt. eigenvalues --    4.42027   4.42843   4.43388   4.44340   4.45126
 Alpha virt. eigenvalues --    4.45573   4.45975   4.46269   4.46597   4.46836
 Alpha virt. eigenvalues --    4.48116   4.49512   4.52832   4.58324   4.64498
 Alpha virt. eigenvalues --    4.65845   4.69064   4.73160   4.74601  96.26380
 Alpha virt. eigenvalues --   96.31050  96.34654  96.36920  96.42339  96.44047
 Alpha virt. eigenvalues --   96.55634
  Beta  occ. eigenvalues --  -38.44799 -38.44726 -38.44033 -38.43682 -38.43653
  Beta  occ. eigenvalues --  -38.43544 -38.43070  -2.20612  -2.20571  -2.19920
  Beta  occ. eigenvalues --   -2.19544  -2.19541  -2.19330  -2.19162  -1.14391
  Beta  occ. eigenvalues --   -1.14308  -1.14257  -1.14231  -1.14225  -1.14132
  Beta  occ. eigenvalues --   -1.13687  -1.13591  -1.13544  -1.13322  -1.13278
  Beta  occ. eigenvalues --   -1.13213  -1.13190  -1.13156  -1.13140  -1.13098
  Beta  occ. eigenvalues --   -1.13007  -1.12957  -1.12822  -1.12792  -1.12731
  Beta  occ. eigenvalues --   -0.16629  -0.14474  -0.11293
  Beta virt. eigenvalues --   -0.07440  -0.05911  -0.04672  -0.03926  -0.03360
  Beta virt. eigenvalues --   -0.03030  -0.02089  -0.01358  -0.00881  -0.00587
  Beta virt. eigenvalues --   -0.00267  -0.00103   0.00227   0.00595   0.00636
  Beta virt. eigenvalues --    0.00727   0.00901   0.00964   0.01061   0.01251
  Beta virt. eigenvalues --    0.01281   0.01465   0.01610   0.01826   0.01879
  Beta virt. eigenvalues --    0.02149   0.02167   0.02259   0.02294   0.02313
  Beta virt. eigenvalues --    0.02607   0.02698   0.02825   0.02892   0.02973
  Beta virt. eigenvalues --    0.03028   0.03153   0.03240   0.03537   0.03613
  Beta virt. eigenvalues --    0.03720   0.03854   0.03927   0.04284   0.04418
  Beta virt. eigenvalues --    0.04682   0.04884   0.05138   0.05403   0.05525
  Beta virt. eigenvalues --    0.05821   0.06069   0.06957   0.07105   0.07172
  Beta virt. eigenvalues --    0.07356   0.07692   0.07984   0.08269   0.08576
  Beta virt. eigenvalues --    0.08988   0.09020   0.09349   0.09440   0.09871
  Beta virt. eigenvalues --    0.10432   0.10884   0.11131   0.11714   0.11970
  Beta virt. eigenvalues --    0.12251   0.12685   0.13234   0.13431   0.14791
  Beta virt. eigenvalues --    0.15191   0.15446   0.15734   0.16992   0.17278
  Beta virt. eigenvalues --    0.19546   0.25302   0.26625   0.29228   0.29303
  Beta virt. eigenvalues --    0.29980   0.31223   0.31662   0.32310   0.33383
  Beta virt. eigenvalues --    0.33889   0.34395   0.35009   0.35564   0.36308
  Beta virt. eigenvalues --    0.36515   0.37333   0.37765   0.38737   0.39534
  Beta virt. eigenvalues --    0.40015   0.41252   0.41784   0.42515   0.43228
  Beta virt. eigenvalues --    0.43495   0.43937   0.44009   0.44182   0.44950
  Beta virt. eigenvalues --    0.45219   0.45371   0.45482   0.46179   0.46398
  Beta virt. eigenvalues --    0.46944   0.47726   0.48203   0.48642   0.48822
  Beta virt. eigenvalues --    0.48967   0.49605   0.50204   0.50779   0.51922
  Beta virt. eigenvalues --    0.52762   0.54856   0.56731   0.58176   0.60197
  Beta virt. eigenvalues --    0.67559   0.69829   0.71257   0.72516   0.74688
  Beta virt. eigenvalues --    0.76214   0.81858   2.06394   2.10006   2.12864
  Beta virt. eigenvalues --    2.14459   2.18164   2.19804   2.28762   4.40410
  Beta virt. eigenvalues --    4.41341   4.42071   4.42898   4.43429   4.44387
  Beta virt. eigenvalues --    4.45184   4.45653   4.46013   4.46316   4.46666
  Beta virt. eigenvalues --    4.46867   4.48176   4.49589   4.52887   4.58356
  Beta virt. eigenvalues --    4.64533   4.65899   4.69092   4.73228   4.74609
  Beta virt. eigenvalues --   96.26424  96.31116  96.34701  96.36959  96.42369
  Beta virt. eigenvalues --   96.44076  96.55657
          Condensed to atoms (all electrons):
               1          2          3          4          5          6
     1  Na  11.766111  -0.369576   0.086350   0.026699  -0.424137  -0.898198
     2  Na  -0.369576  10.993966   0.172339  -0.109441   0.081236   0.194847
     3  Na   0.086350   0.172339  10.877985  -0.438370   0.120519  -0.098009
     4  Na   0.026699  -0.109441  -0.438370  13.072573   0.222755  -0.590716
     5  Na  -0.424137   0.081236   0.120519   0.222755  12.347012  -0.587669
     6  Na  -0.898198   0.194847  -0.098009  -0.590716  -0.587669  12.155140
     7  Na  -0.007068  -0.021668  -0.023868   0.014794  -0.032034   0.263732
               7
     1  Na  -0.007068
     2  Na  -0.021668
     3  Na  -0.023868
     4  Na   0.014794
     5  Na  -0.032034
     6  Na   0.263732
     7  Na  10.622179
          Atomic-Atomic Spin Densities.
               1          2          3          4          5          6
     1  Na   0.007193   0.035744  -0.030949   0.103587  -0.054901  -0.008715
     2  Na   0.035744   0.107370   0.044894  -0.038147   0.037138  -0.025656
     3  Na  -0.030949   0.044894   0.261768   0.063790   0.069846   0.002165
     4  Na   0.103587  -0.038147   0.063790   0.101122  -0.017195  -0.173859
     5  Na  -0.054901   0.037138   0.069846  -0.017195  -0.120372   0.155807
     6  Na  -0.008715  -0.025656   0.002165  -0.173859   0.155807   0.072435
     7  Na  -0.002283  -0.009491  -0.021027  -0.044729  -0.101687   0.161204
               7
     1  Na  -0.002283
     2  Na  -0.009491
     3  Na  -0.021027
     4  Na  -0.044729
     5  Na  -0.101687
     6  Na   0.161204
     7  Na   0.279413
 Mulliken charges and spin densities:
               1          2
     1  Na   0.819819   0.049676
     2  Na   0.058298   0.151851
     3  Na   0.303053   0.390486
     4  Na  -1.198294  -0.005430
     5  Na  -0.727682  -0.031364
     6  Na   0.560873   0.183380
     7  Na   0.183934   0.261401
 Sum of Mulliken charges =  -0.00000   1.00000
 Mulliken charges and spin densities with hydrogens summed into heavy atoms:
               1          2
     1  Na   0.819819   0.049676
     2  Na   0.058298   0.151851
     3  Na   0.303053   0.390486
     4  Na  -1.198294  -0.005430
     5  Na  -0.727682  -0.031364
     6  Na   0.560873   0.183380
     7  Na   0.183934   0.261401
 Electronic spatial extent (au):  <R**2>=           3916.8351
 Charge=              0.0000 electrons
 Dipole moment (field-independent basis, Debye):
    X=              0.9610    Y=             -0.5296    Z=              0.5070  Tot=              1.2087
 Quadrupole moment (field-independent basis, Debye-Ang):
   XX=            -59.7988   YY=            -69.7943   ZZ=            -66.2947
   XY=             -3.4430   XZ=             -3.4425   YZ=              3.5156
 Traceless Quadrupole moment (field-independent basis, Debye-Ang):
   XX=              5.4971   YY=             -4.4984   ZZ=             -0.9988
   XY=             -3.4430   XZ=             -3.4425   YZ=              3.5156
 Octapole moment (field-independent basis, Debye-Ang**2):
  XXX=            -14.8333  YYY=              4.9607  ZZZ=              5.3659  XYY=              7.6220
  XXY=            -13.7033  XXZ=            -17.3360  XZZ=             19.7931  YZZ=             -0.3650
  YYZ=             11.0112  XYZ=              9.8248
 Hexadecapole moment (field-independent basis, Debye-Ang**3):
 XXXX=          -4395.9813 YYYY=          -1333.6093 ZZZZ=           -404.1820 XXXY=            -75.8791
 XXXZ=           -211.1517 YYYX=            -85.7825 YYYZ=             23.3546 ZZZX=             11.4184
 ZZZY=             23.1251 XXYY=          -1040.2029 XXZZ=           -811.6565 YYZZ=           -310.1589
 XXYZ=             80.2735 YYXZ=            -21.4927 ZZXY=              7.4001
 N-N= 2.996773430109D+02 E-N=-3.328694161276D+03  KE= 1.133058048572D+03
                          Isotropic Fermi Contact Couplings
        Atom                 a.u.       MegaHertz       Gauss      10(-4) cm-1
     1  Na(23)             0.06739      79.72150      28.44661      26.59223
     2  Na(23)             0.08680     102.68762      36.64150      34.25290
     3  Na(23)             0.19989     236.47638      84.38065      78.88003
     4  Na(23)            -0.04159     -49.19788     -17.55503     -16.41065
     5  Na(23)             0.21439     253.63464      90.50315      84.60341
     6  Na(23)            -0.07418     -87.76201     -31.31567     -29.27425
     7  Na(23)             0.24103     285.15058     101.74882      95.11599
 --------------------------------------------------------
       Center         ----  Spin Dipole Couplings  ----
                      3XX-RR        3YY-RR        3ZZ-RR
 --------------------------------------------------------
     1   Atom       -0.009064      0.016743     -0.007679
     2   Atom        0.008261     -0.003698     -0.004563
     3   Atom        0.002832      0.001619     -0.004452
     4   Atom        0.069186     -0.021786     -0.047400
     5   Atom       -0.018130      0.016218      0.001913
     6   Atom        0.038993     -0.017594     -0.021399
     7   Atom       -0.002582      0.000144      0.002438
 --------------------------------------------------------
                        XY            XZ            YZ
 --------------------------------------------------------
     1   Atom       -0.003872      0.000176     -0.001735
     2   Atom        0.010235     -0.005574     -0.002240
     3   Atom        0.014016      0.004798     -0.000522
     4   Atom       -0.069306     -0.003714      0.003268
     5   Atom        0.015096     -0.009142     -0.001970
     6   Atom       -0.013563     -0.005839      0.002041
     7   Atom        0.003777      0.005431     -0.000244
 --------------------------------------------------------


 ---------------------------------------------------------------------------------
              Anisotropic Spin Dipole Couplings in Principal Axis System
 ---------------------------------------------------------------------------------

       Atom             a.u.   MegaHertz   Gauss  10(-4) cm-1        Axes

              Baa    -0.0096    -1.361    -0.486    -0.454  0.9881  0.1478  0.0420
     1 Na(23) Bbb    -0.0078    -1.101    -0.393    -0.367 -0.0517  0.0623  0.9967
              Bcc     0.0174     2.462     0.878     0.821 -0.1447  0.9870 -0.0692
 
              Baa    -0.0098    -1.378    -0.492    -0.460 -0.5321  0.8180 -0.2182
     2 Na(23) Bbb    -0.0061    -0.863    -0.308    -0.288  0.1264  0.3316  0.9349
              Bcc     0.0159     2.241     0.800     0.748  0.8372  0.4699 -0.2799
 
              Baa    -0.0134    -1.891    -0.675    -0.631  0.6649 -0.6346 -0.3940
     3 Na(23) Bbb    -0.0033    -0.470    -0.168    -0.157  0.1698 -0.3852  0.9071
              Bcc     0.0167     2.361     0.843     0.788  0.7274  0.6700  0.1483
 
              Baa    -0.0593    -8.375    -2.988    -2.793  0.4705  0.8774 -0.0941
     4 Na(23) Bbb    -0.0474    -6.700    -2.391    -2.235  0.0721  0.0680  0.9951
              Bcc     0.1067    15.075     5.379     5.028  0.8794 -0.4750 -0.0313
 
              Baa    -0.0261    -3.682    -1.314    -1.228  0.9094 -0.3118  0.2752
     5 Na(23) Bbb     0.0029     0.406     0.145     0.135 -0.1687  0.3281  0.9294
              Bcc     0.0232     3.276     1.169     1.093  0.3801  0.8917 -0.2458
 
              Baa    -0.0223    -3.147    -1.123    -1.050 -0.0025 -0.4049  0.9144
     6 Na(23) Bbb    -0.0204    -2.878    -1.027    -0.960  0.2413  0.8871  0.3935
              Bcc     0.0427     6.025     2.150     2.010  0.9704 -0.2217 -0.0955
 
              Baa    -0.0075    -1.064    -0.380    -0.355  0.7980 -0.4067 -0.4446
     7 Na(23) Bbb     0.0010     0.143     0.051     0.048  0.1661  0.8578 -0.4864
              Bcc     0.0065     0.921     0.329     0.307  0.5792  0.3143  0.7521
 

 ---------------------------------------------------------------------------------

 No NMR shielding tensors so no spin-rotation constants.
 Leave Link  601 at Mon Nov 13 15:01:17 2023, MaxMem=  1879048192 cpu:               2.6 elap:               0.2
 (Enter /home/sekinelabo/g16/l701.exe)
 ... and contract with generalized density number  0.
 Compute integral first derivatives.
 Leave Link  701 at Mon Nov 13 15:01:17 2023, MaxMem=  1879048192 cpu:               1.7 elap:               0.1
 (Enter /home/sekinelabo/g16/l702.exe)
 L702 exits ... SP integral derivatives will be done elsewhere.
 Leave Link  702 at Mon Nov 13 15:01:18 2023, MaxMem=  1879048192 cpu:               0.5 elap:               0.0
 (Enter /home/sekinelabo/g16/l703.exe)
 Integral derivatives from FoFJK, PRISM(SPDF).
 Compute integral first derivatives, UseDBF=F ICtDFT=           0.
 Calling FoFJK, ICntrl=      2127 FMM=F ISym2X=0 I1Cent= 0 IOpClX= 1 NMat=1 NMatS=1 NMatT=0.
 FoFJK:  IHMeth= 1 ICntrl=    2127 DoSepK=F KAlg= 0 I1Cent=           0 FoldK=F
 IRaf=         0 NMat=       1 IRICut=       1 DoRegI=T DoRafI=F ISym2E= 0 IDoP0=0 IntGTp=1.
 FoFCou: FMM=F IPFlag=           0 FMFlag=      100000 FMFlg1=         800
         NFxFlg=           0 DoJE=F BraDBF=F KetDBF=F FulRan=T
         wScrn=  0.000000 ICntrl=      2127 IOpCl=  1 I1Cent=           0 NGrid=           0
         NMat0=    1 NMatS0=      1 NMatT0=    0 NMatD0=    1 NMtDS0=    0 NMtDT0=    0
 Symmetry not used in FoFCou.
 Leave Link  703 at Mon Nov 13 15:01:20 2023, MaxMem=  1879048192 cpu:              30.8 elap:               2.0
 (Enter /home/sekinelabo/g16/l716.exe)
 Dipole        = 3.78079114D-01-2.08355597D-01 1.99483204D-01
 ***** Axes restored to original set *****
 -------------------------------------------------------------------
 Center     Atomic                   Forces (Hartrees/Bohr)
 Number     Number              X              Y              Z
 -------------------------------------------------------------------
      1       11           0.008982748   -0.000290207   -0.001743849
      2       11          -0.004606529   -0.008697305   -0.002565827
      3       11          -0.000659150    0.003322546   -0.000628328
      4       11          -0.000311220    0.003303859    0.005844908
      5       11           0.001116037    0.002887305    0.002568592
      6       11          -0.002973362    0.000486065   -0.005345994
      7       11          -0.001548523   -0.001012264    0.001870498
 -------------------------------------------------------------------
 Cartesian Forces:  Max     0.008982748 RMS     0.003811408
 Z-matrix is all fixed cartesians, so copy forces.
 Force constants in Cartesian coordinates: 
                1             2             3             4             5 
      1  0.692294D-01
      2  0.579706D-02  0.327955D-01
      3 -0.639495D-02  0.100265D-01  0.140969D-01
      4 -0.349384D-01 -0.248424D-01 -0.595636D-02  0.493087D-01
      5 -0.670780D-02 -0.130843D-01 -0.525515D-02  0.177165D-01  0.504755D-01
      6  0.257645D-02 -0.227587D-02 -0.358953D-03  0.648367D-03  0.159795D-01
      7  0.228372D-02  0.582416D-02 -0.221728D-02  0.806240D-03  0.579879D-03
      8 -0.100577D-02 -0.278749D-02  0.128490D-02 -0.118208D-02 -0.113305D-02
      9 -0.693293D-03 -0.240032D-02  0.154948D-02 -0.259485D-02 -0.267007D-02
     10 -0.365482D-01  0.130131D-01  0.149254D-01 -0.162884D-01 -0.115118D-01
     11 -0.147887D-03 -0.187816D-01 -0.877433D-02  0.146089D-02 -0.354199D-01
     12  0.975392D-03 -0.687528D-02 -0.222416D-01  0.474616D-02 -0.724426D-02
     13 -0.875955D-05  0.265824D-03 -0.390935D-03  0.111949D-02 -0.631533D-04
     14  0.212125D-02  0.204148D-02  0.260950D-02  0.687132D-02 -0.794767D-03
     15  0.350088D-02  0.141033D-02  0.702200D-02  0.314157D-02 -0.837151D-03
     16 -0.178762D-04 -0.577047D-04  0.341496D-04 -0.760237D-05 -0.136627D-04
     17 -0.568572D-04 -0.183536D-03  0.108616D-03 -0.241802D-04 -0.434558D-04
     18  0.355233D-04  0.114670D-03 -0.678615D-04  0.151073D-04  0.271503D-04
     19  0.000000D+00  0.000000D+00  0.000000D+00  0.000000D+00  0.000000D+00
     20  0.000000D+00  0.000000D+00  0.000000D+00  0.000000D+00  0.000000D+00
     21  0.000000D+00  0.000000D+00  0.000000D+00  0.000000D+00  0.000000D+00
                6             7             8             9            10 
      6  0.156737D-01
      7 -0.142046D-02  0.165551D-01
      8  0.273017D-02  0.464388D-02  0.329590D-01
      9  0.641177D-02 -0.608269D-02 -0.677871D-02  0.118648D-01
     10 -0.185208D-02 -0.177637D-01 -0.296760D-02  0.970044D-02  0.105179D+00
     11 -0.175637D-01 -0.430859D-02 -0.309557D-01  0.127891D-01 -0.100840D-02
     12 -0.232171D-01  0.720672D-02  0.330985D-02 -0.206567D-01 -0.938811D-02
     13  0.155705D-04 -0.188317D-02  0.523915D-03 -0.296287D-03 -0.346783D-01
     14  0.102765D-02 -0.674526D-02  0.195656D-02 -0.834010D-03  0.214918D-02
     15  0.155450D-02  0.251742D-02 -0.570744D-03  0.764422D-03 -0.131868D-01
     16  0.321549D-04  0.186301D-05 -0.123468D-04 -0.333194D-04  0.112324D-03
     17  0.102272D-03  0.592549D-05 -0.392702D-04 -0.105976D-03  0.288183D-03
     18 -0.638977D-04 -0.370213D-05  0.245353D-04  0.662118D-04 -0.212387D-03
     19  0.000000D+00  0.000000D+00  0.000000D+00  0.000000D+00 -0.130204D-04
     20  0.000000D+00  0.000000D+00  0.000000D+00  0.000000D+00  0.372845D-04
     21  0.000000D+00  0.000000D+00  0.000000D+00  0.000000D+00  0.135454D-04
               11            12            13            14            15 
     11  0.108043D+00
     12  0.192458D-01  0.915180D-01
     13  0.571970D-02 -0.498745D-04  0.647090D-01
     14 -0.262633D-01 -0.115866D-01 -0.389676D-02  0.311252D-01
     15 -0.772221D-02 -0.301058D-01  0.121899D-01  0.126081D-01  0.450741D-01
     16 -0.167431D-02 -0.351616D-02 -0.266231D-01  0.193903D-02 -0.124686D-01
     17  0.325933D-02  0.322463D-02 -0.244988D-02 -0.783248D-02 -0.507318D-02
     18  0.198232D-02  0.473011D-02 -0.895619D-02 -0.140311D-02 -0.284290D-01
     19 -0.414128D-04  0.258739D-04 -0.263515D-02 -0.243877D-02  0.430557D-02
     20  0.118587D-03 -0.740910D-04 -0.996486D-04 -0.232754D-03  0.184831D-03
     21  0.430827D-04 -0.269172D-04 -0.251219D-02 -0.242154D-02  0.411979D-02
               16            17            18            19            20 
     16  0.417482D-01
     17  0.992438D-02  0.123152D-01
     18  0.255332D-02 -0.115176D-01  0.474209D-01
     19 -0.152138D-01 -0.768756D-02  0.656833D-02  0.178619D-01
     20 -0.101054D-01 -0.747574D-02  0.107721D-01  0.101677D-01  0.758990D-02
     21  0.133984D-01  0.132613D-01 -0.236565D-01 -0.108998D-01 -0.108828D-01
               21 
     21  0.195636D-01
 Leave Link  716 at Mon Nov 13 15:01:20 2023, MaxMem=  1879048192 cpu:               0.5 elap:               0.0
 (Enter /home/sekinelabo/g16/l103.exe)

 GradGradGradGradGradGradGradGradGradGradGradGradGradGradGradGradGradGrad
 Berny optimization.
 Search for a local minimum.
 Step number   1 out of a maximum of    2
 All quantities printed in internal units (Hartrees-Bohrs-Radians)
 Second derivative matrix not updated -- first step.
 ITU=  0
     Eigenvalues ---    0.00022   0.00151   0.00819   0.00995   0.01137
     Eigenvalues ---    0.03057   0.03323   0.04469   0.04852   0.07700
     Eigenvalues ---    0.08398   0.10649   0.11531   0.15126   0.16187
 Quadratic step=1.331D+00 exceeds max=3.000D-01 adjusted using Lamda=-4.901D-03.
 Angle between NR and scaled steps=  63.12 degrees.
 Angle between quadratic step and forces=  37.37 degrees.
 Linear search not attempted -- first point.
 B after Tr=     0.000000    0.000000    0.000000
         Rot=    1.000000    0.000000   -0.000000    0.000000 Ang=   0.00 deg.
 Variable       Old X    -DE/DX   Delta X   Delta X   Delta X     New X
                                 (Linear)    (Quad)   (Total)
    X1       18.33000   0.00898   0.00000   0.14354   0.14354  18.47355
    Y1        2.64037  -0.00029   0.00000  -0.04227  -0.04227   2.59810
    Z1        2.07348  -0.00174   0.00000  -0.04986  -0.04986   2.02362
    X2       13.34792  -0.00461   0.00000   0.03055   0.03055  13.37848
    Y2        0.00000  -0.00870   0.00000  -0.13901  -0.13901  -0.13901
    Z2        1.64647  -0.00257   0.00000   0.00454   0.00454   1.65101
    X3       15.31320  -0.00066   0.00000  -0.00922  -0.00922  15.30398
    Y3       10.30032   0.00332   0.00000   0.09354   0.09354  10.39386
    Z3        2.11694  -0.00063   0.00000   0.01838   0.01838   2.13533
    X4       13.60929  -0.00031   0.00000   0.04819   0.04819  13.65748
    Y4        5.19230   0.00330   0.00000   0.00801   0.00801   5.20031
    Z4        3.91449   0.00584   0.00000   0.05334   0.05334   3.96783
    X5        8.12792   0.00112   0.00000  -0.01171  -0.01171   8.11621
    Y5        6.43620   0.00289   0.00000   0.07198   0.07198   6.50818
    Z5        3.14706   0.00257   0.00000   0.02218   0.02218   3.16925
    X6        3.44220  -0.00297   0.00000  -0.09963  -0.09963   3.34256
    Y6        5.94319   0.00049   0.00000   0.00736   0.00736   5.95055
    Z6        0.00000  -0.00535   0.00000  -0.06736  -0.06736  -0.06736
    X7        0.00000  -0.00155   0.00000  -0.10172  -0.10172  -0.10172
    Y7        3.39260  -0.00101   0.00000   0.00038   0.00038   3.39298
    Z7        3.71185   0.00187   0.00000   0.01877   0.01877   3.73062
         Item               Value     Threshold  Converged?
 Maximum Force            0.008983     0.000450     NO 
 RMS     Force            0.003811     0.000300     NO 
 Maximum Displacement     0.143545     0.001800     NO 
 RMS     Displacement     0.065678     0.001200     NO 
 Predicted change in Energy=-2.310833D-03
 GradGradGradGradGradGradGradGradGradGradGradGradGradGradGradGradGradGrad

 Leave Link  103 at Mon Nov 13 15:01:20 2023, MaxMem=  1879048192 cpu:               0.3 elap:               0.0
 (Enter /home/sekinelabo/g16/l9999.exe)
 1\1\GINC-SEKINELABO-XA7R-R37\Force\UB3LYP\6-311+G(d)\Na7(2)\SEKINELABO
 \13-Nov-2023\0\\#P B3LYP/6-311+g(d) force\\Gaussian input prepared by 
 ASE\\0,2\Na,9.6998185779,1.3972245041,1.0972364248\Na,7.0634174681,0.,
 0.87127227\Na,8.1033979718,5.4506944107,1.1202367351\Na,7.2017259786,2
 .747645173,2.0714562596\Na,4.3011088415,3.4058903331,1.6653550044\Na,1
 .8215318728,3.1450004648,0.\Na,0.,1.7952868213,1.9642282034\\Version=E
 S64L-G16RevB.01\State=2-A\HF=-1136.1024164\S2=0.781846\S2-1=0.\S2A=0.7
 50428\RMSD=5.182e-09\RMSF=3.811e-03\Dipole=-0.3780791,-0.2083556,-0.19
 94832\Quadrupole=4.0869865,-3.344436,-0.7425505,2.5598028,-2.5594249,-
 2.6137635\PG=C01 [X(Na7)]\\@


 IN THE WOODS WE RETURN TO REASON AND FAITH.

                                 -- EMERSON
 Job cpu time:       0 days  0 hours  3 minutes 55.9 seconds.
 Elapsed time:       0 days  0 hours  0 minutes 19.2 seconds.
 File lengths (MBytes):  RWF=     32 Int=      0 D2E=      0 Chk=      5 Scr=      1
 Normal termination of Gaussian 16 at Mon Nov 13 15:01:20 2023.
