 Entering Gaussian System, Link 0=g16
 Initial command:
 /home/sekinelabo/g16/l1.exe "/home/sekinelabo/g16temp/Gau-4154893.inp" -scrdir="/home/sekinelabo/g16temp/"
 Entering Link 1 = /home/sekinelabo/g16/l1.exe PID=   4154895.
  
 Copyright (c) 1988-2017, Gaussian, Inc.  All Rights Reserved.
  
 This is part of the Gaussian(R) 16 program.  It is based on
 the Gaussian(R) 09 system (copyright 2009, Gaussian, Inc.),
 the Gaussian(R) 03 system (copyright 2003, Gaussian, Inc.),
 the Gaussian(R) 98 system (copyright 1998, Gaussian, Inc.),
 the Gaussian(R) 94 system (copyright 1995, Gaussian, Inc.),
 the Gaussian 92(TM) system (copyright 1992, Gaussian, Inc.),
 the Gaussian 90(TM) system (copyright 1990, Gaussian, Inc.),
 the Gaussian 88(TM) system (copyright 1988, Gaussian, Inc.),
 the Gaussian 86(TM) system (copyright 1986, Carnegie Mellon
 University), and the Gaussian 82(TM) system (copyright 1983,
 Carnegie Mellon University). Gaussian is a federally registered
 trademark of Gaussian, Inc.
  
 This software contains proprietary and confidential information,
 including trade secrets, belonging to Gaussian, Inc.
  
 This software is provided under written license and may be
 used, copied, transmitted, or stored only in accord with that
 written license.
  
 The following legend is applicable only to US Government
 contracts under FAR:
  
                    RESTRICTED RIGHTS LEGEND
  
 Use, reproduction and disclosure by the US Government is
 subject to restrictions as set forth in subparagraphs (a)
 and (c) of the Commercial Computer Software - Restricted
 Rights clause in FAR 52.227-19.
  
 Gaussian, Inc.
 340 Quinnipiac St., Bldg. 40, Wallingford CT 06492
  
  
 ---------------------------------------------------------------
 Warning -- This program may not be used in any manner that
 competes with the business of Gaussian, Inc. or will provide
 assistance to any competitor of Gaussian, Inc.  The licensee
 of this program is prohibited from giving any competitor of
 Gaussian, Inc. access to this program.  By using this program,
 the user acknowledges that Gaussian, Inc. is engaged in the
 business of creating and licensing software in the field of
 computational chemistry and represents and warrants to the
 licensee that it is not a competitor of Gaussian, Inc. and that
 it will not use this program in any manner prohibited above.
 ---------------------------------------------------------------
  

 Cite this work as:
 Gaussian 16, Revision B.01,
 M. J. Frisch, G. W. Trucks, H. B. Schlegel, G. E. Scuseria, 
 M. A. Robb, J. R. Cheeseman, G. Scalmani, V. Barone, 
 G. A. Petersson, H. Nakatsuji, X. Li, M. Caricato, A. V. Marenich, 
 J. Bloino, B. G. Janesko, R. Gomperts, B. Mennucci, H. P. Hratchian, 
 J. V. Ortiz, A. F. Izmaylov, J. L. Sonnenberg, D. Williams-Young, 
 F. Ding, F. Lipparini, F. Egidi, J. Goings, B. Peng, A. Petrone, 
 T. Henderson, D. Ranasinghe, V. G. Zakrzewski, J. Gao, N. Rega, 
 G. Zheng, W. Liang, M. Hada, M. Ehara, K. Toyota, R. Fukuda, 
 J. Hasegawa, M. Ishida, T. Nakajima, Y. Honda, O. Kitao, H. Nakai, 
 T. Vreven, K. Throssell, J. A. Montgomery, Jr., J. E. Peralta, 
 F. Ogliaro, M. J. Bearpark, J. J. Heyd, E. N. Brothers, K. N. Kudin, 
 V. N. Staroverov, T. A. Keith, R. Kobayashi, J. Normand, 
 K. Raghavachari, A. P. Rendell, J. C. Burant, S. S. Iyengar, 
 J. Tomasi, M. Cossi, J. M. Millam, M. Klene, C. Adamo, R. Cammi, 
 J. W. Ochterski, R. L. Martin, K. Morokuma, O. Farkas, 
 J. B. Foresman, and D. J. Fox, Gaussian, Inc., Wallingford CT, 2016.
 
 ******************************************
 Gaussian 16:  ES64L-G16RevB.01 20-Dec-2017
                13-Nov-2023 
 ******************************************
 %mem=14GB
 %chk=checkpoint.chk
 %nprocshared=16
 Will use up to   16 processors via shared memory.
 -------------------------
 #P B3LYP/6-311+g(d) force
 -------------------------
 1/10=7,30=1,38=1/1,3;
 2/12=2,17=6,18=5,40=1/2;
 3/5=4,6=6,7=11,11=2,25=1,30=1,71=1,74=-5/1,2,3;
 4//1;
 5/5=2,38=5/2;
 6/7=2,8=2,9=2,10=2,28=1/1;
 7/29=1/1,2,3,16;
 1/10=7,30=1/3;
 99//99;
 Leave Link    1 at Mon Nov 13 19:38:53 2023, MaxMem=  1879048192 cpu:               0.3 elap:               0.0
 (Enter /home/sekinelabo/g16/l101.exe)
 ------------------------------
 Gaussian input prepared by ASE
 ------------------------------
 Symbolic Z-matrix:
 Charge =  0 Multiplicity = 2
 Na                    4.37937   1.51367   0. 
 Na                    5.36754   2.18706   2.88252 
 Na                    6.57569   0.07679   1.26841 
 Na                    3.83554   0.        2.23558 
 Na                    4.18114   3.99266   1.18192 
 Na                    2.29395   2.27456   2.20654 
 Na                    0.        0.67466   1.36659 
 
 ITRead=  0  0  0  0  0  0  0
 MicOpt= -1 -1 -1 -1 -1 -1 -1
 NAtoms=      7 NQM=        7 NQMF=       0 NMMI=      0 NMMIF=      0
                NMic=       0 NMicF=      0.
                    Isotopes and Nuclear Properties:
 (Nuclear quadrupole moments (NQMom) in fm**2, nuclear magnetic moments (NMagM)
  in nuclear magnetons)

  Atom         1           2           3           4           5           6           7
 IAtWgt=          23          23          23          23          23          23          23
 AtmWgt=  22.9897697  22.9897697  22.9897697  22.9897697  22.9897697  22.9897697  22.9897697
 NucSpn=           3           3           3           3           3           3           3
 AtZEff=  -0.0000000  -0.0000000  -0.0000000  -0.0000000  -0.0000000  -0.0000000  -0.0000000
 NQMom=   10.4000000  10.4000000  10.4000000  10.4000000  10.4000000  10.4000000  10.4000000
 NMagM=    2.2175200   2.2175200   2.2175200   2.2175200   2.2175200   2.2175200   2.2175200
 AtZNuc=  11.0000000  11.0000000  11.0000000  11.0000000  11.0000000  11.0000000  11.0000000
 Leave Link  101 at Mon Nov 13 19:38:53 2023, MaxMem=  1879048192 cpu:               2.6 elap:               0.2
 (Enter /home/sekinelabo/g16/l103.exe)

 GradGradGradGradGradGradGradGradGradGradGradGradGradGradGradGradGradGrad
 Berny optimization.
 Initialization pass.
 Trust Radius=3.00D-01 FncErr=1.00D-07 GrdErr=1.00D-07 EigMax=2.50D+02 EigMin=1.00D-04
 Number of steps in this run=      2 maximum allowed number of steps=      2.
 GradGradGradGradGradGradGradGradGradGradGradGradGradGradGradGradGradGrad

 Leave Link  103 at Mon Nov 13 19:38:53 2023, MaxMem=  1879048192 cpu:               0.2 elap:               0.0
 (Enter /home/sekinelabo/g16/l202.exe)
                          Input orientation:                          
 ---------------------------------------------------------------------
 Center     Atomic      Atomic             Coordinates (Angstroms)
 Number     Number       Type             X           Y           Z
 ---------------------------------------------------------------------
      1         11           0        4.379369    1.513665    0.000000
      2         11           0        5.367545    2.187062    2.882519
      3         11           0        6.575689    0.076791    1.268407
      4         11           0        3.835535    0.000000    2.235584
      5         11           0        4.181141    3.992661    1.181922
      6         11           0        2.293950    2.274555    2.206541
      7         11           0        0.000000    0.674664    1.366592
 ---------------------------------------------------------------------
                    Distance matrix (angstroms):
                    1          2          3          4          5
     1  Na   0.000000
     2  Na   3.120716   0.000000
     3  Na   2.915010   2.918598   0.000000
     4  Na   2.754047   2.747511   2.906849   0.000000
     5  Na   2.753480   2.749504   4.590793   4.143789   0.000000
     6  Na   3.129976   3.148267   4.903423   2.747896   2.750131
     7  Na   4.663729   5.778920   6.603543   3.990194   5.340893
                    6          7
     6  Na   0.000000
     7  Na   2.920166   0.000000
 Stoichiometry    Na7(2)
 Framework group  C1[X(Na7)]
 Deg. of freedom    15
 Full point group                 C1      NOp   1
 Largest Abelian subgroup         C1      NOp   1
 Largest concise Abelian subgroup C1      NOp   1
                         Standard orientation:                         
 ---------------------------------------------------------------------
 Center     Atomic      Atomic             Coordinates (Angstroms)
 Number     Number       Type             X           Y           Z
 ---------------------------------------------------------------------
      1         11           0       -0.574622   -0.017678    1.591652
      2         11           0       -1.562798    0.655720   -1.290867
      3         11           0       -2.770942   -1.454552    0.323245
      4         11           0       -0.030788   -1.531343   -0.643932
      5         11           0       -0.376394    2.461318    0.409730
      6         11           0        1.510797    0.743212   -0.614889
      7         11           0        3.804747   -0.856678    0.225060
 ---------------------------------------------------------------------
 Rotational constants (GHZ):           1.2525222           0.6729287           0.5552996
 Leave Link  202 at Mon Nov 13 19:38:53 2023, MaxMem=  1879048192 cpu:               0.0 elap:               0.0
 (Enter /home/sekinelabo/g16/l301.exe)
 Standard basis: 6-311+G(d) (5D, 7F)
 Ernie: Thresh=  0.10000D-02 Tol=  0.10000D-05 Strict=F.
 There are   217 symmetry adapted cartesian basis functions of A   symmetry.
 There are   210 symmetry adapted basis functions of A   symmetry.
   210 basis functions,   350 primitive gaussians,   217 cartesian basis functions
    39 alpha electrons       38 beta electrons
       nuclear repulsion energy       393.8530034421 Hartrees.
 IExCor=  402 DFT=T Ex+Corr=B3LYP ExCW=0 ScaHFX=  0.200000
 ScaDFX=  0.800000  0.720000  1.000000  0.810000 ScalE2=  1.000000  1.000000
 IRadAn=      5 IRanWt=     -1 IRanGd=            0 ICorTp=0 IEmpDi=  4
 NAtoms=    7 NActive=    7 NUniq=    7 SFac= 1.00D+00 NAtFMM=   60 NAOKFM=F Big=F
 Integral buffers will be    131072 words long.
 Raffenetti 2 integral format.
 Two-electron integral symmetry is turned on.
 Leave Link  301 at Mon Nov 13 19:38:53 2023, MaxMem=  1879048192 cpu:               0.5 elap:               0.0
 (Enter /home/sekinelabo/g16/l302.exe)
 NPDir=0 NMtPBC=     1 NCelOv=     1 NCel=       1 NClECP=     1 NCelD=      1
         NCelK=      1 NCelE2=     1 NClLst=     1 CellRange=     0.0.
 One-electron integrals computed using PRISM.
 One-electron integral symmetry used in STVInt
 NBasis=   210 RedAO= T EigKep=  1.05D-06  NBF=   210
 NBsUse=   210 1.00D-06 EigRej= -1.00D+00 NBFU=   210
 Precomputing XC quadrature grid using
 IXCGrd= 4 IRadAn=           5 IRanWt=          -1 IRanGd=           0 AccXCQ= 0.00D+00.
 Generated NRdTot=       0 NPtTot=           0 NUsed=           0 NTot=          32
 NSgBfM=   210   210   210   210   210 MxSgAt=     7 MxSgA2=     7.
 Leave Link  302 at Mon Nov 13 19:38:53 2023, MaxMem=  1879048192 cpu:               2.1 elap:               0.1
 (Enter /home/sekinelabo/g16/l303.exe)
 DipDrv:  MaxL=1.
 Leave Link  303 at Mon Nov 13 19:38:53 2023, MaxMem=  1879048192 cpu:               1.2 elap:               0.1
 (Enter /home/sekinelabo/g16/l401.exe)
 ExpMin= 7.60D-03 ExpMax= 3.62D+04 ExpMxC= 1.21D+03 IAcc=3 IRadAn=         5 AccDes= 0.00D+00
 Harris functional with IExCor=  402 and IRadAn=       5 diagonalized for initial guess.
 HarFok:  IExCor=  402 AccDes= 0.00D+00 IRadAn=         5 IDoV= 1 UseB2=F ITyADJ=14
 ICtDFT=  3500011 ScaDFX=  1.000000  1.000000  1.000000  1.000000
 FoFCou: FMM=F IPFlag=           0 FMFlag=      100000 FMFlg1=           0
         NFxFlg=           0 DoJE=T BraDBF=F KetDBF=T FulRan=T
         wScrn=  0.000000 ICntrl=       500 IOpCl=  0 I1Cent=   200000004 NGrid=           0
         NMat0=    1 NMatS0=      1 NMatT0=    0 NMatD0=    1 NMtDS0=    0 NMtDT0=    0
 Petite list used in FoFCou.
 Harris En= -1135.84610118858    
 JPrj=0 DoOrth=F DoCkMO=F.
 Initial guess <Sx>= 0.0000 <Sy>= 0.0000 <Sz>= 0.5000 <S**2>= 0.7500 S= 0.5000
 Leave Link  401 at Mon Nov 13 19:38:54 2023, MaxMem=  1879048192 cpu:               4.7 elap:               0.3
 (Enter /home/sekinelabo/g16/l502.exe)
 Keep R1 and R2 ints in memory in canonical form, NReq=507620374.
 FoFCou: FMM=F IPFlag=           0 FMFlag=           0 FMFlg1=           0
         NFxFlg=           0 DoJE=F BraDBF=F KetDBF=F FulRan=T
         wScrn=  0.000000 ICntrl=       600 IOpCl=  0 I1Cent=           0 NGrid=           0
         NMat0=    1 NMatS0=  22155 NMatT0=    0 NMatD0=    1 NMtDS0=    0 NMtDT0=    0
 Symmetry not used in FoFCou.
 Two-electron integral symmetry not used.
 UHF open shell SCF:
 Using DIIS extrapolation, IDIIS=  1040.
 NGot=  1879048192 LenX=  1388082362 LenY=  1388034832
 Requested convergence on RMS density matrix=1.00D-08 within 128 cycles.
 Requested convergence on MAX density matrix=1.00D-06.
 Requested convergence on             energy=1.00D-06.
 No special actions if energy rises.

 Cycle   1  Pass 1  IDiag  1:
 E= -1136.02317756778    
 DIIS: error= 1.51D-02 at cycle   1 NSaved=   1.
 NSaved= 1 IEnMin= 1 EnMin= -1136.02317756778     IErMin= 1 ErrMin= 1.51D-02
 ErrMax= 1.51D-02  0.00D+00 EMaxC= 1.00D-01 BMatC= 2.12D-01 BMatP= 2.12D-01
 IDIUse=3 WtCom= 8.49D-01 WtEn= 1.51D-01
 Coeff-Com:  0.100D+01
 Coeff-En:   0.100D+01
 Coeff:      0.100D+01
 Gap=     0.030 Goal=   None    Shift=    0.000
 Gap=     0.053 Goal=   None    Shift=    0.000
 GapD=    0.030 DampG=0.250 DampE=0.500 DampFc=0.2500 IDamp=-1.
 Damping current iteration by 2.50D-01
 RMSDP=8.41D-02 MaxDP=7.72D+00              OVMax= 3.34D-01

 Cycle   2  Pass 1  IDiag  1:
 E= -1136.04057558093     Delta-E=       -0.017398013155 Rises=F Damp=T
 DIIS: error= 7.95D-03 at cycle   2 NSaved=   2.
 NSaved= 2 IEnMin= 2 EnMin= -1136.04057558093     IErMin= 2 ErrMin= 7.95D-03
 ErrMax= 7.95D-03  0.00D+00 EMaxC= 1.00D-01 BMatC= 7.86D-02 BMatP= 2.12D-01
 IDIUse=3 WtCom= 9.20D-01 WtEn= 7.95D-02
 Coeff-Com: -0.119D+01 0.219D+01
 Coeff-En:   0.000D+00 0.100D+01
 Coeff:     -0.109D+01 0.209D+01
 Gap=     0.054 Goal=   None    Shift=    0.000
 Gap=     0.061 Goal=   None    Shift=    0.000
 RMSDP=3.65D-02 MaxDP=2.97D+00 DE=-1.74D-02 OVMax= 3.00D-01

 Cycle   3  Pass 1  IDiag  1:
 E= -1136.06250829071     Delta-E=       -0.021932709774 Rises=F Damp=F
 DIIS: error= 6.34D-03 at cycle   3 NSaved=   3.
 NSaved= 3 IEnMin= 3 EnMin= -1136.06250829071     IErMin= 3 ErrMin= 6.34D-03
 ErrMax= 6.34D-03  0.00D+00 EMaxC= 1.00D-01 BMatC= 1.24D-02 BMatP= 7.86D-02
 IDIUse=3 WtCom= 9.37D-01 WtEn= 6.34D-02
 Coeff-Com: -0.502D+00 0.889D+00 0.613D+00
 Coeff-En:   0.000D+00 0.000D+00 0.100D+01
 Coeff:     -0.470D+00 0.833D+00 0.637D+00
 Gap=     0.043 Goal=   None    Shift=    0.000
 Gap=     0.052 Goal=   None    Shift=    0.000
 RMSDP=2.32D-02 MaxDP=2.11D+00 DE=-2.19D-02 OVMax= 1.62D-01

 Cycle   4  Pass 1  IDiag  1:
 E= -1136.06734104090     Delta-E=       -0.004832750195 Rises=F Damp=F
 DIIS: error= 3.60D-03 at cycle   4 NSaved=   4.
 NSaved= 4 IEnMin= 4 EnMin= -1136.06734104090     IErMin= 4 ErrMin= 3.60D-03
 ErrMax= 3.60D-03  0.00D+00 EMaxC= 1.00D-01 BMatC= 5.57D-03 BMatP= 1.24D-02
 IDIUse=3 WtCom= 9.64D-01 WtEn= 3.60D-02
 Coeff-Com: -0.372D-01 0.587D-01 0.397D+00 0.582D+00
 Coeff-En:   0.000D+00 0.000D+00 0.361D+00 0.639D+00
 Coeff:     -0.358D-01 0.566D-01 0.395D+00 0.584D+00
 Gap=     0.048 Goal=   None    Shift=    0.000
 Gap=     0.050 Goal=   None    Shift=    0.000
 RMSDP=1.20D-02 MaxDP=9.05D-01 DE=-4.83D-03 OVMax= 7.67D-02

 Cycle   5  Pass 1  IDiag  1:
 E= -1136.07153228125     Delta-E=       -0.004191240350 Rises=F Damp=F
 DIIS: error= 1.05D-03 at cycle   5 NSaved=   5.
 NSaved= 5 IEnMin= 5 EnMin= -1136.07153228125     IErMin= 5 ErrMin= 1.05D-03
 ErrMax= 1.05D-03  0.00D+00 EMaxC= 1.00D-01 BMatC= 5.47D-04 BMatP= 5.57D-03
 IDIUse=3 WtCom= 9.89D-01 WtEn= 1.05D-02
 Coeff-Com: -0.114D-01 0.141D-01 0.234D+00 0.372D+00 0.391D+00
 Coeff-En:   0.000D+00 0.000D+00 0.000D+00 0.665D-01 0.934D+00
 Coeff:     -0.112D-01 0.140D-01 0.232D+00 0.369D+00 0.396D+00
 Gap=     0.048 Goal=   None    Shift=    0.000
 Gap=     0.050 Goal=   None    Shift=    0.000
 RMSDP=4.82D-03 MaxDP=3.75D-01 DE=-4.19D-03 OVMax= 2.32D-02

 Cycle   6  Pass 1  IDiag  1:
 E= -1136.07208308381     Delta-E=       -0.000550802556 Rises=F Damp=F
 DIIS: error= 1.31D-04 at cycle   6 NSaved=   6.
 NSaved= 6 IEnMin= 6 EnMin= -1136.07208308381     IErMin= 6 ErrMin= 1.31D-04
 ErrMax= 1.31D-04  0.00D+00 EMaxC= 1.00D-01 BMatC= 7.25D-06 BMatP= 5.47D-04
 IDIUse=3 WtCom= 9.99D-01 WtEn= 1.31D-03
 Coeff-Com:  0.135D-02-0.225D-02-0.190D-01-0.388D-01 0.551D-01 0.100D+01
 Coeff-En:   0.000D+00 0.000D+00 0.000D+00 0.000D+00 0.000D+00 0.100D+01
 Coeff:      0.135D-02-0.225D-02-0.190D-01-0.388D-01 0.551D-01 0.100D+01
 Gap=     0.048 Goal=   None    Shift=    0.000
 Gap=     0.050 Goal=   None    Shift=    0.000
 RMSDP=9.12D-04 MaxDP=7.94D-02 DE=-5.51D-04 OVMax= 4.58D-03

 Cycle   7  Pass 1  IDiag  1:
 E= -1136.07209529944     Delta-E=       -0.000012215631 Rises=F Damp=F
 DIIS: error= 4.82D-05 at cycle   7 NSaved=   7.
 NSaved= 7 IEnMin= 7 EnMin= -1136.07209529944     IErMin= 7 ErrMin= 4.82D-05
 ErrMax= 4.82D-05  0.00D+00 EMaxC= 1.00D-01 BMatC= 9.66D-07 BMatP= 7.25D-06
 IDIUse=1 WtCom= 1.00D+00 WtEn= 0.00D+00
 Coeff-Com:  0.562D-03-0.904D-03-0.149D-01-0.255D-01 0.503D-02 0.348D+00
 Coeff-Com:  0.688D+00
 Coeff:      0.562D-03-0.904D-03-0.149D-01-0.255D-01 0.503D-02 0.348D+00
 Coeff:      0.688D+00
 Gap=     0.048 Goal=   None    Shift=    0.000
 Gap=     0.050 Goal=   None    Shift=    0.000
 RMSDP=3.20D-04 MaxDP=3.43D-02 DE=-1.22D-05 OVMax= 2.14D-03

 Cycle   8  Pass 1  IDiag  1:
 E= -1136.07209699415     Delta-E=       -0.000001694711 Rises=F Damp=F
 DIIS: error= 4.48D-05 at cycle   8 NSaved=   8.
 NSaved= 8 IEnMin= 8 EnMin= -1136.07209699415     IErMin= 8 ErrMin= 4.48D-05
 ErrMax= 4.48D-05  0.00D+00 EMaxC= 1.00D-01 BMatC= 5.04D-07 BMatP= 9.66D-07
 IDIUse=1 WtCom= 1.00D+00 WtEn= 0.00D+00
 Coeff-Com: -0.124D-03 0.190D-03-0.265D-02-0.133D-02-0.144D-01-0.129D+00
 Coeff-Com:  0.410D+00 0.737D+00
 Coeff:     -0.124D-03 0.190D-03-0.265D-02-0.133D-02-0.144D-01-0.129D+00
 Coeff:      0.410D+00 0.737D+00
 Gap=     0.048 Goal=   None    Shift=    0.000
 Gap=     0.050 Goal=   None    Shift=    0.000
 RMSDP=2.74D-04 MaxDP=1.67D-02 DE=-1.69D-06 OVMax= 1.45D-03

 Cycle   9  Pass 1  IDiag  1:
 E= -1136.07209826454     Delta-E=       -0.000001270390 Rises=F Damp=F
 DIIS: error= 1.60D-05 at cycle   9 NSaved=   9.
 NSaved= 9 IEnMin= 9 EnMin= -1136.07209826454     IErMin= 9 ErrMin= 1.60D-05
 ErrMax= 1.60D-05  0.00D+00 EMaxC= 1.00D-01 BMatC= 5.85D-08 BMatP= 5.04D-07
 IDIUse=1 WtCom= 1.00D+00 WtEn= 0.00D+00
 Coeff-Com:  0.976D-04-0.110D-03 0.185D-02 0.374D-02-0.290D-02-0.781D-01
 Coeff-Com: -0.106D+00 0.104D-01 0.117D+01
 Coeff:      0.976D-04-0.110D-03 0.185D-02 0.374D-02-0.290D-02-0.781D-01
 Coeff:     -0.106D+00 0.104D-01 0.117D+01
 Gap=     0.048 Goal=   None    Shift=    0.000
 Gap=     0.050 Goal=   None    Shift=    0.000
 RMSDP=2.59D-04 MaxDP=1.61D-02 DE=-1.27D-06 OVMax= 1.33D-03

 Cycle  10  Pass 1  IDiag  1:
 E= -1136.07209877468     Delta-E=       -0.000000510136 Rises=F Damp=F
 DIIS: error= 1.10D-05 at cycle  10 NSaved=  10.
 NSaved=10 IEnMin=10 EnMin= -1136.07209877468     IErMin=10 ErrMin= 1.10D-05
 ErrMax= 1.10D-05  0.00D+00 EMaxC= 1.00D-01 BMatC= 2.39D-08 BMatP= 5.85D-08
 IDIUse=1 WtCom= 1.00D+00 WtEn= 0.00D+00
 Coeff-Com: -0.235D-04 0.467D-04 0.185D-02 0.224D-02 0.271D-02 0.650D-03
 Coeff-Com: -0.154D+00-0.212D+00 0.461D+00 0.898D+00
 Coeff:     -0.235D-04 0.467D-04 0.185D-02 0.224D-02 0.271D-02 0.650D-03
 Coeff:     -0.154D+00-0.212D+00 0.461D+00 0.898D+00
 Gap=     0.048 Goal=   None    Shift=    0.000
 Gap=     0.050 Goal=   None    Shift=    0.000
 RMSDP=1.54D-04 MaxDP=9.10D-03 DE=-5.10D-07 OVMax= 8.05D-04

 Cycle  11  Pass 1  IDiag  1:
 E= -1136.07209893682     Delta-E=       -0.000000162148 Rises=F Damp=F
 DIIS: error= 5.54D-06 at cycle  11 NSaved=  11.
 NSaved=11 IEnMin=11 EnMin= -1136.07209893682     IErMin=11 ErrMin= 5.54D-06
 ErrMax= 5.54D-06  0.00D+00 EMaxC= 1.00D-01 BMatC= 5.37D-09 BMatP= 2.39D-08
 IDIUse=1 WtCom= 1.00D+00 WtEn= 0.00D+00
 Coeff-Com: -0.101D-03 0.130D-03-0.889D-04-0.397D-03 0.222D-02 0.290D-01
 Coeff-Com: -0.709D-02-0.508D-01-0.222D+00 0.694D-01 0.118D+01
 Coeff:     -0.101D-03 0.130D-03-0.889D-04-0.397D-03 0.222D-02 0.290D-01
 Coeff:     -0.709D-02-0.508D-01-0.222D+00 0.694D-01 0.118D+01
 Gap=     0.048 Goal=   None    Shift=    0.000
 Gap=     0.050 Goal=   None    Shift=    0.000
 RMSDP=9.51D-05 MaxDP=6.09D-03 DE=-1.62D-07 OVMax= 5.52D-04

 Cycle  12  Pass 1  IDiag  1:
 E= -1136.07209898724     Delta-E=       -0.000000050412 Rises=F Damp=F
 DIIS: error= 2.53D-06 at cycle  12 NSaved=  12.
 NSaved=12 IEnMin=12 EnMin= -1136.07209898724     IErMin=12 ErrMin= 2.53D-06
 ErrMax= 2.53D-06  0.00D+00 EMaxC= 1.00D-01 BMatC= 3.27D-09 BMatP= 5.37D-09
 IDIUse=1 WtCom= 1.00D+00 WtEn= 0.00D+00
 Coeff-Com: -0.479D-04 0.571D-04-0.491D-03-0.761D-03 0.699D-03 0.173D-01
 Coeff-Com:  0.322D-01 0.206D-01-0.243D+00-0.177D+00 0.728D+00 0.621D+00
 Coeff:     -0.479D-04 0.571D-04-0.491D-03-0.761D-03 0.699D-03 0.173D-01
 Coeff:      0.322D-01 0.206D-01-0.243D+00-0.177D+00 0.728D+00 0.621D+00
 Gap=     0.048 Goal=   None    Shift=    0.000
 Gap=     0.050 Goal=   None    Shift=    0.000
 RMSDP=3.38D-05 MaxDP=2.62D-03 DE=-5.04D-08 OVMax= 2.16D-04

 Cycle  13  Pass 1  IDiag  1:
 E= -1136.07209899919     Delta-E=       -0.000000011954 Rises=F Damp=F
 DIIS: error= 1.30D-06 at cycle  13 NSaved=  13.
 NSaved=13 IEnMin=13 EnMin= -1136.07209899919     IErMin=13 ErrMin= 1.30D-06
 ErrMax= 1.30D-06  0.00D+00 EMaxC= 1.00D-01 BMatC= 6.24D-10 BMatP= 3.27D-09
 IDIUse=1 WtCom= 1.00D+00 WtEn= 0.00D+00
 Coeff-Com:  0.350D-04-0.462D-04-0.971D-04-0.530D-04-0.815D-03-0.751D-02
 Coeff-Com:  0.177D-01 0.349D-01-0.117D-01-0.832D-01-0.212D+00 0.190D+00
 Coeff-Com:  0.107D+01
 Coeff:      0.350D-04-0.462D-04-0.971D-04-0.530D-04-0.815D-03-0.751D-02
 Coeff:      0.177D-01 0.349D-01-0.117D-01-0.832D-01-0.212D+00 0.190D+00
 Coeff:      0.107D+01
 Gap=     0.048 Goal=   None    Shift=    0.000
 Gap=     0.050 Goal=   None    Shift=    0.000
 RMSDP=1.87D-05 MaxDP=1.21D-03 DE=-1.20D-08 OVMax= 1.57D-04

 Cycle  14  Pass 1  IDiag  1:
 E= -1136.07209900457     Delta-E=       -0.000000005381 Rises=F Damp=F
 DIIS: error= 7.89D-07 at cycle  14 NSaved=  14.
 NSaved=14 IEnMin=14 EnMin= -1136.07209900457     IErMin=14 ErrMin= 7.89D-07
 ErrMax= 7.89D-07  0.00D+00 EMaxC= 1.00D-01 BMatC= 1.39D-10 BMatP= 6.24D-10
 IDIUse=1 WtCom= 1.00D+00 WtEn= 0.00D+00
 Coeff-Com:  0.152D-04-0.185D-04 0.350D-04 0.537D-04-0.203D-03-0.325D-02
 Coeff-Com: -0.108D-01-0.503D-02 0.686D-01 0.622D-01-0.238D+00-0.189D+00
 Coeff-Com: -0.115D-01 0.133D+01
 Coeff:      0.152D-04-0.185D-04 0.350D-04 0.537D-04-0.203D-03-0.325D-02
 Coeff:     -0.108D-01-0.503D-02 0.686D-01 0.622D-01-0.238D+00-0.189D+00
 Coeff:     -0.115D-01 0.133D+01
 Gap=     0.048 Goal=   None    Shift=    0.000
 Gap=     0.050 Goal=   None    Shift=    0.000
 RMSDP=9.81D-06 MaxDP=7.29D-04 DE=-5.38D-09 OVMax= 1.17D-04

 Cycle  15  Pass 1  IDiag  1:
 E= -1136.07209900629     Delta-E=       -0.000000001718 Rises=F Damp=F
 DIIS: error= 2.61D-07 at cycle  15 NSaved=  15.
 NSaved=15 IEnMin=15 EnMin= -1136.07209900629     IErMin=15 ErrMin= 2.61D-07
 ErrMax= 2.61D-07  0.00D+00 EMaxC= 1.00D-01 BMatC= 1.95D-11 BMatP= 1.39D-10
 IDIUse=1 WtCom= 1.00D+00 WtEn= 0.00D+00
 Coeff-Com: -0.744D-05 0.998D-05 0.385D-04 0.311D-04 0.162D-03 0.141D-02
 Coeff-Com: -0.343D-02-0.529D-02 0.568D-04 0.754D-02 0.550D-01-0.294D-01
 Coeff-Com: -0.194D+00-0.804D-01 0.125D+01
 Coeff:     -0.744D-05 0.998D-05 0.385D-04 0.311D-04 0.162D-03 0.141D-02
 Coeff:     -0.343D-02-0.529D-02 0.568D-04 0.754D-02 0.550D-01-0.294D-01
 Coeff:     -0.194D+00-0.804D-01 0.125D+01
 Gap=     0.048 Goal=   None    Shift=    0.000
 Gap=     0.050 Goal=   None    Shift=    0.000
 RMSDP=3.31D-06 MaxDP=2.48D-04 DE=-1.72D-09 OVMax= 4.63D-05

 Cycle  16  Pass 1  IDiag  1:
 E= -1136.07209900648     Delta-E=       -0.000000000193 Rises=F Damp=F
 DIIS: error= 8.88D-08 at cycle  16 NSaved=  16.
 NSaved=16 IEnMin=16 EnMin= -1136.07209900648     IErMin=16 ErrMin= 8.88D-08
 ErrMax= 8.88D-08  0.00D+00 EMaxC= 1.00D-01 BMatC= 3.07D-12 BMatP= 1.95D-11
 IDIUse=1 WtCom= 1.00D+00 WtEn= 0.00D+00
 Coeff-Com: -0.200D-05 0.244D-05 0.567D-05 0.149D-06 0.535D-04 0.600D-03
 Coeff-Com:  0.850D-03 0.142D-03-0.874D-02-0.882D-02 0.407D-01 0.196D-01
 Coeff-Com: -0.179D-01-0.199D+00 0.161D+00 0.101D+01
 Coeff:     -0.200D-05 0.244D-05 0.567D-05 0.149D-06 0.535D-04 0.600D-03
 Coeff:      0.850D-03 0.142D-03-0.874D-02-0.882D-02 0.407D-01 0.196D-01
 Coeff:     -0.179D-01-0.199D+00 0.161D+00 0.101D+01
 Gap=     0.048 Goal=   None    Shift=    0.000
 Gap=     0.050 Goal=   None    Shift=    0.000
 RMSDP=9.03D-07 MaxDP=6.95D-05 DE=-1.93D-10 OVMax= 1.30D-05

 Cycle  17  Pass 1  IDiag  1:
 E= -1136.07209900651     Delta-E=       -0.000000000031 Rises=F Damp=F
 DIIS: error= 4.22D-08 at cycle  17 NSaved=  17.
 NSaved=17 IEnMin=17 EnMin= -1136.07209900651     IErMin=17 ErrMin= 4.22D-08
 ErrMax= 4.22D-08  0.00D+00 EMaxC= 1.00D-01 BMatC= 7.16D-13 BMatP= 3.07D-12
 IDIUse=1 WtCom= 1.00D+00 WtEn= 0.00D+00
 Coeff-Com:  0.437D-06-0.629D-06-0.861D-05-0.732D-05-0.242D-04-0.842D-04
 Coeff-Com:  0.736D-03 0.922D-03-0.178D-02-0.182D-02-0.371D-02 0.754D-02
 Coeff-Com:  0.262D-01 0.324D-02-0.226D+00 0.184D+00 0.101D+01
 Coeff:      0.437D-06-0.629D-06-0.861D-05-0.732D-05-0.242D-04-0.842D-04
 Coeff:      0.736D-03 0.922D-03-0.178D-02-0.182D-02-0.371D-02 0.754D-02
 Coeff:      0.262D-01 0.324D-02-0.226D+00 0.184D+00 0.101D+01
 Gap=     0.048 Goal=   None    Shift=    0.000
 Gap=     0.050 Goal=   None    Shift=    0.000
 RMSDP=2.88D-07 MaxDP=2.17D-05 DE=-3.09D-11 OVMax= 6.48D-06

 Cycle  18  Pass 1  IDiag  1:
 E= -1136.07209900653     Delta-E=       -0.000000000013 Rises=F Damp=F
 DIIS: error= 2.23D-08 at cycle  18 NSaved=  18.
 NSaved=18 IEnMin=18 EnMin= -1136.07209900653     IErMin=18 ErrMin= 2.23D-08
 ErrMax= 2.23D-08  0.00D+00 EMaxC= 1.00D-01 BMatC= 1.25D-13 BMatP= 7.16D-13
 IDIUse=1 WtCom= 1.00D+00 WtEn= 0.00D+00
 Coeff-Com:  0.602D-06-0.743D-06 0.125D-05 0.276D-05-0.955D-05-0.168D-03
 Coeff-Com: -0.343D-03-0.151D-03 0.223D-02 0.259D-02-0.867D-02-0.582D-02
 Coeff-Com:  0.276D-02 0.359D-01 0.570D-02-0.233D+00-0.152D+00 0.135D+01
 Coeff:      0.602D-06-0.743D-06 0.125D-05 0.276D-05-0.955D-05-0.168D-03
 Coeff:     -0.343D-03-0.151D-03 0.223D-02 0.259D-02-0.867D-02-0.582D-02
 Coeff:      0.276D-02 0.359D-01 0.570D-02-0.233D+00-0.152D+00 0.135D+01
 Gap=     0.048 Goal=   None    Shift=    0.000
 Gap=     0.050 Goal=   None    Shift=    0.000
 RMSDP=1.94D-07 MaxDP=1.87D-05 DE=-1.32D-11 OVMax= 3.74D-06

 Cycle  19  Pass 1  IDiag  1:
 E= -1136.07209900651     Delta-E=        0.000000000016 Rises=F Damp=F
 DIIS: error= 9.51D-09 at cycle  19 NSaved=  19.
 NSaved=19 IEnMin=18 EnMin= -1136.07209900653     IErMin=19 ErrMin= 9.51D-09
 ErrMax= 9.51D-09  0.00D+00 EMaxC= 1.00D-01 BMatC= 2.22D-14 BMatP= 1.25D-13
 IDIUse=1 WtCom= 1.00D+00 WtEn= 0.00D+00
 Coeff-Com: -0.341D-06 0.454D-06 0.741D-06-0.189D-06 0.806D-05 0.703D-04
 Coeff-Com: -0.775D-04-0.189D-03-0.631D-04-0.261D-03 0.265D-02-0.504D-03
 Coeff-Com: -0.632D-02-0.608D-02 0.443D-01 0.316D-02-0.209D+00-0.129D+00
 Coeff-Com:  0.130D+01
 Coeff:     -0.341D-06 0.454D-06 0.741D-06-0.189D-06 0.806D-05 0.703D-04
 Coeff:     -0.775D-04-0.189D-03-0.631D-04-0.261D-03 0.265D-02-0.504D-03
 Coeff:     -0.632D-02-0.608D-02 0.443D-01 0.316D-02-0.209D+00-0.129D+00
 Coeff:      0.130D+01
 Gap=     0.048 Goal=   None    Shift=    0.000
 Gap=     0.050 Goal=   None    Shift=    0.000
 RMSDP=1.14D-07 MaxDP=1.42D-05 DE= 1.59D-11 OVMax= 1.75D-06

 Cycle  20  Pass 1  IDiag  1:
 E= -1136.07209900651     Delta-E=       -0.000000000003 Rises=F Damp=F
 DIIS: error= 2.69D-09 at cycle  20 NSaved=  20.
 NSaved=20 IEnMin=18 EnMin= -1136.07209900653     IErMin=20 ErrMin= 2.69D-09
 ErrMax= 2.69D-09  0.00D+00 EMaxC= 1.00D-01 BMatC= 3.67D-15 BMatP= 2.22D-14
 IDIUse=1 WtCom= 1.00D+00 WtEn= 0.00D+00
 Large coefficients: NSaved= 20 BigCof=    0.00 CofMax=   10.00 Det=-6.85D-15
 Inversion failed.  Reducing to 19 matrices.
 Large coefficients: NSaved= 19 BigCof=    0.00 CofMax=   10.00 Det=-7.62D-15
 Inversion failed.  Reducing to 18 matrices.
 Large coefficients: NSaved= 18 BigCof=    0.00 CofMax=   10.00 Det=-7.86D-15
 Inversion failed.  Reducing to 17 matrices.
 Large coefficients: NSaved= 17 BigCof=    0.00 CofMax=   10.00 Det=-7.88D-15
 Inversion failed.  Reducing to 16 matrices.
 Large coefficients: NSaved= 16 BigCof=    0.00 CofMax=   10.00 Det=-8.51D-15
 Inversion failed.  Reducing to 15 matrices.
 Coeff-Com:  0.375D-05 0.553D-04 0.383D-04-0.167D-03-0.398D-03 0.751D-03
 Coeff-Com:  0.793D-03-0.135D-03-0.388D-02-0.220D-02 0.338D-01 0.796D-02
 Coeff-Com: -0.227D+00 0.137D+00 0.105D+01
 Coeff:      0.375D-05 0.553D-04 0.383D-04-0.167D-03-0.398D-03 0.751D-03
 Coeff:      0.793D-03-0.135D-03-0.388D-02-0.220D-02 0.338D-01 0.796D-02
 Coeff:     -0.227D+00 0.137D+00 0.105D+01
 Gap=     0.048 Goal=   None    Shift=    0.000
 Gap=     0.050 Goal=   None    Shift=    0.000
 RMSDP=4.12D-08 MaxDP=5.41D-06 DE=-2.73D-12 OVMax= 5.26D-07

 Cycle  21  Pass 1  IDiag  1:
 E= -1136.07209900650     Delta-E=        0.000000000010 Rises=F Damp=F
 DIIS: error= 1.34D-09 at cycle  21 NSaved=  16.
 NSaved=16 IEnMin=13 EnMin= -1136.07209900653     IErMin=16 ErrMin= 1.34D-09
 ErrMax= 1.34D-09  0.00D+00 EMaxC= 1.00D-01 BMatC= 4.97D-16 BMatP= 3.67D-15
 IDIUse=1 WtCom= 1.00D+00 WtEn= 0.00D+00
 Large coefficients: NSaved= 16 BigCof=    0.00 CofMax=   10.00 Det=-1.84D-15
 Inversion failed.  Reducing to 15 matrices.
 Coeff-Com:  0.327D-05 0.384D-05-0.247D-04 0.970D-05 0.903D-05 0.910D-04
 Coeff-Com:  0.129D-03-0.208D-03-0.269D-02 0.624D-02 0.203D-01-0.450D-01
 Coeff-Com: -0.104D+00 0.240D+00 0.885D+00
 Coeff:      0.327D-05 0.384D-05-0.247D-04 0.970D-05 0.903D-05 0.910D-04
 Coeff:      0.129D-03-0.208D-03-0.269D-02 0.624D-02 0.203D-01-0.450D-01
 Coeff:     -0.104D+00 0.240D+00 0.885D+00
 Gap=     0.048 Goal=   None    Shift=    0.000
 Gap=     0.050 Goal=   None    Shift=    0.000
 RMSDP=3.06D-08 MaxDP=2.83D-06 DE= 9.55D-12 OVMax= 1.03D-07

 Cycle  22  Pass 1  IDiag  1:
 E= -1136.07209900651     Delta-E=       -0.000000000010 Rises=F Damp=F
 DIIS: error= 3.92D-10 at cycle  22 NSaved=  16.
 NSaved=16 IEnMin=12 EnMin= -1136.07209900653     IErMin=16 ErrMin= 3.92D-10
 ErrMax= 3.92D-10  0.00D+00 EMaxC= 1.00D-01 BMatC= 6.99D-17 BMatP= 4.97D-16
 IDIUse=1 WtCom= 1.00D+00 WtEn= 0.00D+00
 Large coefficients: NSaved= 16 BigCof=    0.00 CofMax=   10.00 Det=-2.82D-16
 Inversion failed.  Reducing to 15 matrices.
 Coeff-Com:  0.198D-05-0.511D-05 0.182D-04-0.707D-04 0.318D-04 0.200D-03
 Coeff-Com:  0.659D-04-0.106D-02-0.664D-03 0.626D-02 0.139D-01-0.385D-01
 Coeff-Com: -0.745D-01 0.181D+00 0.913D+00
 Coeff:      0.198D-05-0.511D-05 0.182D-04-0.707D-04 0.318D-04 0.200D-03
 Coeff:      0.659D-04-0.106D-02-0.664D-03 0.626D-02 0.139D-01-0.385D-01
 Coeff:     -0.745D-01 0.181D+00 0.913D+00
 Gap=     0.048 Goal=   None    Shift=    0.000
 Gap=     0.050 Goal=   None    Shift=    0.000
 RMSDP=1.80D-08 MaxDP=1.67D-06 DE=-1.05D-11 OVMax= 2.29D-08

 Cycle  23  Pass 1  IDiag  1:
 E= -1136.07209900652     Delta-E=       -0.000000000007 Rises=F Damp=F
 DIIS: error= 1.74D-10 at cycle  23 NSaved=  16.
 NSaved=16 IEnMin=11 EnMin= -1136.07209900653     IErMin=16 ErrMin= 1.74D-10
 ErrMax= 1.74D-10  0.00D+00 EMaxC= 1.00D-01 BMatC= 1.10D-17 BMatP= 6.99D-17
 IDIUse=1 WtCom= 1.00D+00 WtEn= 0.00D+00
 Large coefficients: NSaved= 16 BigCof=    0.00 CofMax=   10.00 Det=-3.17D-17
 Inversion failed.  Reducing to 15 matrices.
 Coeff-Com: -0.757D-06 0.416D-06 0.450D-05-0.116D-04-0.259D-04 0.522D-04
 Coeff-Com:  0.285D-03-0.110D-02-0.236D-02 0.924D-02 0.900D-02-0.482D-01
 Coeff-Com: -0.998D-01 0.961D-01 0.104D+01
 Coeff:     -0.757D-06 0.416D-06 0.450D-05-0.116D-04-0.259D-04 0.522D-04
 Coeff:      0.285D-03-0.110D-02-0.236D-02 0.924D-02 0.900D-02-0.482D-01
 Coeff:     -0.998D-01 0.961D-01 0.104D+01
 Gap=     0.048 Goal=   None    Shift=    0.000
 Gap=     0.050 Goal=   None    Shift=    0.000
 RMSDP=1.28D-08 MaxDP=9.76D-07 DE=-7.05D-12 OVMax= 1.39D-08

 Cycle  24  Pass 1  IDiag  1:
 E= -1136.07209900652     Delta-E=        0.000000000000 Rises=F Damp=F
 DIIS: error= 9.24D-11 at cycle  24 NSaved=  16.
 NSaved=16 IEnMin=10 EnMin= -1136.07209900653     IErMin=16 ErrMin= 9.24D-11
 ErrMax= 9.24D-11  0.00D+00 EMaxC= 1.00D-01 BMatC= 3.83D-18 BMatP= 1.10D-17
 IDIUse=1 WtCom= 1.00D+00 WtEn= 0.00D+00
 Large coefficients: NSaved= 16 BigCof=    0.00 CofMax=   10.00 Det=-8.07D-18
 Inversion failed.  Reducing to 15 matrices.
 Coeff-Com: -0.501D-05 0.171D-04-0.845D-05-0.460D-04-0.296D-04 0.398D-03
 Coeff-Com: -0.122D-03-0.231D-02 0.303D-03 0.111D-01-0.429D-02-0.771D-01
 Coeff-Com: -0.105D+00 0.381D+00 0.797D+00
 Coeff:     -0.501D-05 0.171D-04-0.845D-05-0.460D-04-0.296D-04 0.398D-03
 Coeff:     -0.122D-03-0.231D-02 0.303D-03 0.111D-01-0.429D-02-0.771D-01
 Coeff:     -0.105D+00 0.381D+00 0.797D+00
 Gap=     0.048 Goal=   None    Shift=    0.000
 Gap=     0.050 Goal=   None    Shift=    0.000
 RMSDP=1.35D-08 MaxDP=7.53D-07 DE= 2.27D-13 OVMax= 6.87D-09

 Cycle  25  Pass 1  IDiag  1:
 E= -1136.07209900651     Delta-E=        0.000000000008 Rises=F Damp=F
 DIIS: error= 7.70D-11 at cycle  25 NSaved=  16.
 NSaved=16 IEnMin= 9 EnMin= -1136.07209900653     IErMin=16 ErrMin= 7.70D-11
 ErrMax= 7.70D-11  0.00D+00 EMaxC= 1.00D-01 BMatC= 1.78D-18 BMatP= 3.83D-18
 IDIUse=1 WtCom= 1.00D+00 WtEn= 0.00D+00
 Large coefficients: NSaved= 16 BigCof=    0.00 CofMax=   10.00 Det=-4.04D-18
 Inversion failed.  Reducing to 15 matrices.
 Coeff-Com:  0.489D-05-0.597D-05-0.196D-04-0.877D-06 0.135D-03-0.592D-04
 Coeff-Com: -0.855D-03-0.574D-03 0.384D-02 0.500D-02-0.239D-01-0.744D-01
 Coeff-Com:  0.581D-01 0.402D+00 0.630D+00
 Coeff:      0.489D-05-0.597D-05-0.196D-04-0.877D-06 0.135D-03-0.592D-04
 Coeff:     -0.855D-03-0.574D-03 0.384D-02 0.500D-02-0.239D-01-0.744D-01
 Coeff:      0.581D-01 0.402D+00 0.630D+00
 Gap=     0.048 Goal=   None    Shift=    0.000
 Gap=     0.050 Goal=   None    Shift=    0.000
 RMSDP=1.33D-08 MaxDP=9.93D-07 DE= 8.19D-12 OVMax= 2.85D-09

 Cycle  26  Pass 1  IDiag  1:
 E= -1136.07209900652     Delta-E=       -0.000000000008 Rises=F Damp=F
 DIIS: error= 3.85D-11 at cycle  26 NSaved=  16.
 NSaved=16 IEnMin= 8 EnMin= -1136.07209900653     IErMin=16 ErrMin= 3.85D-11
 ErrMax= 3.85D-11  0.00D+00 EMaxC= 1.00D-01 BMatC= 5.42D-19 BMatP= 1.78D-18
 IDIUse=1 WtCom= 1.00D+00 WtEn= 0.00D+00
 Large coefficients: NSaved= 16 BigCof=    0.00 CofMax=   10.00 Det=-1.90D-18
 Inversion failed.  Reducing to 15 matrices.
 Coeff-Com:  0.508D-06-0.118D-05-0.140D-05-0.238D-04 0.129D-03 0.284D-03
 Coeff-Com: -0.143D-02-0.905D-03 0.812D-02 0.105D-01-0.358D-01-0.119D+00
 Coeff-Com:  0.444D-01 0.273D+00 0.821D+00
 Coeff:      0.508D-06-0.118D-05-0.140D-05-0.238D-04 0.129D-03 0.284D-03
 Coeff:     -0.143D-02-0.905D-03 0.812D-02 0.105D-01-0.358D-01-0.119D+00
 Coeff:      0.444D-01 0.273D+00 0.821D+00
 Gap=     0.048 Goal=   None    Shift=    0.000
 Gap=     0.050 Goal=   None    Shift=    0.000
 RMSDP=7.26D-09 MaxDP=7.02D-07 DE=-7.73D-12 OVMax= 3.25D-09

 SCF Done:  E(UB3LYP) =  -1136.07209901     A.U. after   26 cycles
            NFock= 26  Conv=0.73D-08     -V/T= 2.0023
 <Sx>= 0.0000 <Sy>= 0.0000 <Sz>= 0.5000 <S**2>= 0.7605 S= 0.5052
 <L.S>= 0.000000000000E+00
 KE= 1.133464236610D+03 PE=-3.517089966635D+03 EE= 8.537006275764D+02
 Annihilation of the first spin contaminant:
 S**2 before annihilation     0.7605,   after     0.7501
 Leave Link  502 at Mon Nov 13 19:39:15 2023, MaxMem=  1879048192 cpu:             245.6 elap:              21.1
 (Enter /home/sekinelabo/g16/l601.exe)
 Copying SCF densities to generalized density rwf, IOpCl= 1 IROHF=0.

 **********************************************************************

            Population analysis using the SCF Density.

 **********************************************************************

 Orbital symmetries:
 Alpha Orbitals:
       Occupied  (A) (A) (A) (A) (A) (A) (A) (A) (A) (A) (A) (A)
                 (A) (A) (A) (A) (A) (A) (A) (A) (A) (A) (A) (A)
                 (A) (A) (A) (A) (A) (A) (A) (A) (A) (A) (A) (A)
                 (A) (A) (A)
       Virtual   (A) (A) (A) (A) (A) (A) (A) (A) (A) (A) (A) (A)
                 (A) (A) (A) (A) (A) (A) (A) (A) (A) (A) (A) (A)
                 (A) (A) (A) (A) (A) (A) (A) (A) (A) (A) (A) (A)
                 (A) (A) (A) (A) (A) (A) (A) (A) (A) (A) (A) (A)
                 (A) (A) (A) (A) (A) (A) (A) (A) (A) (A) (A) (A)
                 (A) (A) (A) (A) (A) (A) (A) (A) (A) (A) (A) (A)
                 (A) (A) (A) (A) (A) (A) (A) (A) (A) (A) (A) (A)
                 (A) (A) (A) (A) (A) (A) (A) (A) (A) (A) (A) (A)
                 (A) (A) (A) (A) (A) (A) (A) (A) (A) (A) (A) (A)
                 (A) (A) (A) (A) (A) (A) (A) (A) (A) (A) (A) (A)
                 (A) (A) (A) (A) (A) (A) (A) (A) (A) (A) (A) (A)
                 (A) (A) (A) (A) (A) (A) (A) (A) (A) (A) (A) (A)
                 (A) (A) (A) (A) (A) (A) (A) (A) (A) (A) (A) (A)
                 (A) (A) (A) (A) (A) (A) (A) (A) (A) (A) (A) (A)
                 (A) (A) (A)
 Beta  Orbitals:
       Occupied  (A) (A) (A) (A) (A) (A) (A) (A) (A) (A) (A) (A)
                 (A) (A) (A) (A) (A) (A) (A) (A) (A) (A) (A) (A)
                 (A) (A) (A) (A) (A) (A) (A) (A) (A) (A) (A) (A)
                 (A) (A)
       Virtual   (A) (A) (A) (A) (A) (A) (A) (A) (A) (A) (A) (A)
                 (A) (A) (A) (A) (A) (A) (A) (A) (A) (A) (A) (A)
                 (A) (A) (A) (A) (A) (A) (A) (A) (A) (A) (A) (A)
                 (A) (A) (A) (A) (A) (A) (A) (A) (A) (A) (A) (A)
                 (A) (A) (A) (A) (A) (A) (A) (A) (A) (A) (A) (A)
                 (A) (A) (A) (A) (A) (A) (A) (A) (A) (A) (A) (A)
                 (A) (A) (A) (A) (A) (A) (A) (A) (A) (A) (A) (A)
                 (A) (A) (A) (A) (A) (A) (A) (A) (A) (A) (A) (A)
                 (A) (A) (A) (A) (A) (A) (A) (A) (A) (A) (A) (A)
                 (A) (A) (A) (A) (A) (A) (A) (A) (A) (A) (A) (A)
                 (A) (A) (A) (A) (A) (A) (A) (A) (A) (A) (A) (A)
                 (A) (A) (A) (A) (A) (A) (A) (A) (A) (A) (A) (A)
                 (A) (A) (A) (A) (A) (A) (A) (A) (A) (A) (A) (A)
                 (A) (A) (A) (A) (A) (A) (A) (A) (A) (A) (A) (A)
                 (A) (A) (A) (A)
 The electronic state is 2-A.
 Alpha  occ. eigenvalues --  -38.44897 -38.44255 -38.44181 -38.44058 -38.43913
 Alpha  occ. eigenvalues --  -38.43343 -38.43343  -2.20709  -2.20485  -2.20410
 Alpha  occ. eigenvalues --   -2.20171  -2.20083  -2.19580  -2.19454  -1.14569
 Alpha  occ. eigenvalues --   -1.14445  -1.14349  -1.14329  -1.14308  -1.14241
 Alpha  occ. eigenvalues --   -1.14177  -1.14052  -1.13929  -1.13901  -1.13839
 Alpha  occ. eigenvalues --   -1.13733  -1.13689  -1.13664  -1.13614  -1.13431
 Alpha  occ. eigenvalues --   -1.13258  -1.13153  -1.13062  -1.13024  -1.12902
 Alpha  occ. eigenvalues --   -0.21035  -0.13972  -0.12458  -0.11548
 Alpha virt. eigenvalues --   -0.06704  -0.04345  -0.03535  -0.03401  -0.02594
 Alpha virt. eigenvalues --   -0.02321  -0.02072  -0.00956  -0.00237   0.00157
 Alpha virt. eigenvalues --    0.00352   0.00541   0.00828   0.00897   0.00956
 Alpha virt. eigenvalues --    0.01175   0.01262   0.01292   0.01378   0.01495
 Alpha virt. eigenvalues --    0.01590   0.01824   0.01865   0.01948   0.02103
 Alpha virt. eigenvalues --    0.02334   0.02455   0.02778   0.02848   0.02888
 Alpha virt. eigenvalues --    0.03014   0.03124   0.03168   0.03211   0.03310
 Alpha virt. eigenvalues --    0.03371   0.03472   0.03647   0.03801   0.03929
 Alpha virt. eigenvalues --    0.04026   0.04454   0.04789   0.04992   0.05074
 Alpha virt. eigenvalues --    0.05297   0.05483   0.05771   0.05977   0.06211
 Alpha virt. eigenvalues --    0.06664   0.06743   0.06973   0.07189   0.07844
 Alpha virt. eigenvalues --    0.08061   0.08305   0.08817   0.09007   0.09435
 Alpha virt. eigenvalues --    0.09620   0.09853   0.10485   0.11585   0.12091
 Alpha virt. eigenvalues --    0.12301   0.12764   0.13243   0.13908   0.14187
 Alpha virt. eigenvalues --    0.14224   0.14594   0.14741   0.14858   0.15959
 Alpha virt. eigenvalues --    0.16151   0.16758   0.17255   0.18648   0.18736
 Alpha virt. eigenvalues --    0.23495   0.25675   0.26360   0.28778   0.29613
 Alpha virt. eigenvalues --    0.30998   0.31667   0.32361   0.33298   0.34520
 Alpha virt. eigenvalues --    0.35543   0.36634   0.36707   0.37369   0.38380
 Alpha virt. eigenvalues --    0.39317   0.40232   0.41348   0.42254   0.43049
 Alpha virt. eigenvalues --    0.44139   0.44259   0.44784   0.44904   0.45435
 Alpha virt. eigenvalues --    0.45937   0.46409   0.46775   0.47519   0.48060
 Alpha virt. eigenvalues --    0.48786   0.49235   0.50348   0.50534   0.51419
 Alpha virt. eigenvalues --    0.51707   0.53023   0.53338   0.55336   0.55792
 Alpha virt. eigenvalues --    0.56914   0.58366   0.59392   0.62807   0.64087
 Alpha virt. eigenvalues --    0.64977   0.71432   0.73130   0.73481   0.75622
 Alpha virt. eigenvalues --    0.78143   0.80309   0.81250   0.85025   0.85464
 Alpha virt. eigenvalues --    0.89844   2.11020   2.18697   2.23892   2.25841
 Alpha virt. eigenvalues --    2.29304   2.30902   2.33581   4.41195   4.41758
 Alpha virt. eigenvalues --    4.42533   4.43164   4.43621   4.44915   4.45136
 Alpha virt. eigenvalues --    4.46357   4.46859   4.48164   4.52221   4.60894
 Alpha virt. eigenvalues --    4.62370   4.64286   4.70245   4.76644   4.79515
 Alpha virt. eigenvalues --    4.81191   4.85255   4.86793   4.94352  96.32568
 Alpha virt. eigenvalues --   96.42218  96.50694  96.54617  96.58516  96.60743
 Alpha virt. eigenvalues --   96.63694
  Beta  occ. eigenvalues --  -38.44904 -38.44215 -38.44096 -38.44046 -38.43847
  Beta  occ. eigenvalues --  -38.43326 -38.43317  -2.20723  -2.20412  -2.20267
  Beta  occ. eigenvalues --   -2.20075  -2.20048  -2.19540  -2.19429  -1.14516
  Beta  occ. eigenvalues --   -1.14456  -1.14355  -1.14339  -1.14218  -1.14168
  Beta  occ. eigenvalues --   -1.14086  -1.13960  -1.13868  -1.13807  -1.13766
  Beta  occ. eigenvalues --   -1.13671  -1.13635  -1.13621  -1.13557  -1.13412
  Beta  occ. eigenvalues --   -1.13228  -1.13071  -1.13034  -1.12968  -1.12884
  Beta  occ. eigenvalues --   -0.20172  -0.13775  -0.12178
  Beta virt. eigenvalues --   -0.07195  -0.06559  -0.04360  -0.03493  -0.02705
  Beta virt. eigenvalues --   -0.02135  -0.01839  -0.01147  -0.00837   0.00016
  Beta virt. eigenvalues --    0.00199   0.00340   0.00608   0.00926   0.00936
  Beta virt. eigenvalues --    0.01026   0.01194   0.01330   0.01423   0.01486
  Beta virt. eigenvalues --    0.01607   0.01689   0.01891   0.01956   0.02015
  Beta virt. eigenvalues --    0.02283   0.02381   0.02456   0.02794   0.02869
  Beta virt. eigenvalues --    0.02968   0.03057   0.03166   0.03206   0.03247
  Beta virt. eigenvalues --    0.03342   0.03460   0.03549   0.03754   0.03916
  Beta virt. eigenvalues --    0.04038   0.04217   0.04600   0.04984   0.05149
  Beta virt. eigenvalues --    0.05168   0.05423   0.05610   0.05970   0.06198
  Beta virt. eigenvalues --    0.06313   0.06698   0.06830   0.07088   0.07433
  Beta virt. eigenvalues --    0.07936   0.08149   0.08395   0.08880   0.09089
  Beta virt. eigenvalues --    0.09535   0.09822   0.10141   0.10782   0.11951
  Beta virt. eigenvalues --    0.12487   0.12514   0.13035   0.13503   0.14074
  Beta virt. eigenvalues --    0.14397   0.14407   0.14803   0.14933   0.15196
  Beta virt. eigenvalues --    0.16075   0.16600   0.17091   0.17498   0.18803
  Beta virt. eigenvalues --    0.18972   0.23821   0.26299   0.26457   0.29185
  Beta virt. eigenvalues --    0.30043   0.31471   0.32191   0.32471   0.33535
  Beta virt. eigenvalues --    0.34778   0.35789   0.36706   0.37044   0.37470
  Beta virt. eigenvalues --    0.38492   0.39503   0.40452   0.41476   0.42579
  Beta virt. eigenvalues --    0.43315   0.44233   0.44319   0.44942   0.45131
  Beta virt. eigenvalues --    0.45469   0.46169   0.46591   0.47100   0.47742
  Beta virt. eigenvalues --    0.48281   0.49089   0.49408   0.50617   0.50678
  Beta virt. eigenvalues --    0.51690   0.51845   0.53308   0.53519   0.55617
  Beta virt. eigenvalues --    0.56115   0.57221   0.58666   0.59700   0.63156
  Beta virt. eigenvalues --    0.64543   0.65381   0.71550   0.73426   0.73558
  Beta virt. eigenvalues --    0.75852   0.78291   0.80482   0.81277   0.85278
  Beta virt. eigenvalues --    0.85570   0.90033   2.10995   2.18777   2.23927
  Beta virt. eigenvalues --    2.25987   2.29430   2.31242   2.33733   4.41268
  Beta virt. eigenvalues --    4.41856   4.42619   4.43216   4.43682   4.44975
  Beta virt. eigenvalues --    4.45171   4.46377   4.46904   4.48214   4.52328
  Beta virt. eigenvalues --    4.60967   4.62467   4.64356   4.70269   4.76744
  Beta virt. eigenvalues --    4.79615   4.81238   4.85289   4.86843   4.94425
  Beta virt. eigenvalues --   96.32562  96.42252  96.50714  96.54661  96.58560
  Beta virt. eigenvalues --   96.60849  96.63750
          Condensed to atoms (all electrons):
               1          2          3          4          5          6
     1  Na  18.630672   0.617467  -0.948924  -3.485107  -4.017189   1.134901
     2  Na   0.617467  15.222077   0.723662  -1.916552  -1.672283  -1.717415
     3  Na  -0.948924   0.723662  17.294415  -1.477646  -1.516230  -2.546429
     4  Na  -3.485107  -1.916552  -1.477646  15.372232   0.799121   0.978039
     5  Na  -4.017189  -1.672283  -1.516230   0.799121  19.970796  -2.576130
     6  Na   1.134901  -1.717415  -2.546429   0.978039  -2.576130  15.689538
     7  Na  -0.634134  -0.332685  -0.947901   1.040289  -0.202431   0.458086
               7
     1  Na  -0.634134
     2  Na  -0.332685
     3  Na  -0.947901
     4  Na   1.040289
     5  Na  -0.202431
     6  Na   0.458086
     7  Na  11.299253
          Atomic-Atomic Spin Densities.
               1          2          3          4          5          6
     1  Na   4.555773  -0.655070  -0.445330  -2.063525  -0.908497   0.385098
     2  Na  -0.655070   0.238725   0.064664   0.260848  -0.111566   0.320150
     3  Na  -0.445330   0.064664   0.005943   0.065881  -0.334975   0.687030
     4  Na  -2.063525   0.260848   0.065881   1.103480   1.051240  -0.370371
     5  Na  -0.908497  -0.111566  -0.334975   1.051240  -0.443014   0.339762
     6  Na   0.385098   0.320150   0.687030  -0.370371   0.339762  -0.857529
     7  Na  -0.368268   0.056932  -0.089365   0.226475   0.319929  -0.202626
               7
     1  Na  -0.368268
     2  Na   0.056932
     3  Na  -0.089365
     4  Na   0.226475
     5  Na   0.319929
     6  Na  -0.202626
     7  Na  -0.060211
 Mulliken charges and spin densities:
               1          2
     1  Na  -0.297686   0.500182
     2  Na   0.075730   0.174683
     3  Na   0.419053  -0.046151
     4  Na  -0.310376   0.274028
     5  Na   0.214346  -0.087121
     6  Na  -0.420590   0.301513
     7  Na   0.319523  -0.117133
 Sum of Mulliken charges =  -0.00000   1.00000
 Mulliken charges and spin densities with hydrogens summed into heavy atoms:
               1          2
     1  Na  -0.297686   0.500182
     2  Na   0.075730   0.174683
     3  Na   0.419053  -0.046151
     4  Na  -0.310376   0.274028
     5  Na   0.214346  -0.087121
     6  Na  -0.420590   0.301513
     7  Na   0.319523  -0.117133
 Electronic spatial extent (au):  <R**2>=           1906.9792
 Charge=             -0.0000 electrons
 Dipole moment (field-independent basis, Debye):
    X=              0.2747    Y=             -0.1698    Z=              0.3401  Tot=              0.4689
 Quadrupole moment (field-independent basis, Debye-Ang):
   XX=            -50.8414   YY=            -69.7602   ZZ=            -71.9062
   XY=             -0.6456   XZ=              1.7247   YZ=             -0.6869
 Traceless Quadrupole moment (field-independent basis, Debye-Ang):
   XX=             13.3279   YY=             -5.5909   ZZ=             -7.7370
   XY=             -0.6456   XZ=              1.7247   YZ=             -0.6869
 Octapole moment (field-independent basis, Debye-Ang**2):
  XXX=             32.1685  YYY=              8.1988  ZZZ=              4.4848  XYY=             -1.6336
  XXY=            -22.7812  XXZ=              5.1231  XZZ=             -2.7102  YZZ=              1.0442
  YYZ=              0.8681  XYZ=              1.3726
 Hexadecapole moment (field-independent basis, Debye-Ang**3):
 XXXX=          -1347.1478 YYYY=           -986.1709 ZZZZ=           -612.4655 XXXY=            -24.6511
 XXXZ=             39.0445 YYYX=              0.3938 YYYZ=             20.9682 ZZZX=             12.3556
 ZZZY=             -9.6064 XXYY=           -439.0799 XXZZ=           -405.3371 YYZZ=           -284.2905
 XXYZ=            -32.6934 YYXZ=             -2.5794 ZZXY=             -6.3126
 N-N= 3.938530034421D+02 E-N=-3.517089966633D+03  KE= 1.133464236610D+03
                          Isotropic Fermi Contact Couplings
        Atom                 a.u.       MegaHertz       Gauss      10(-4) cm-1
     1  Na(23)             0.33778     399.60848     142.59024     133.29504
     2  Na(23)             0.22444     265.51922      94.74386      88.56768
     3  Na(23)            -0.00615      -7.27171      -2.59473      -2.42558
     4  Na(23)             0.06449      76.29063      27.22240      25.44782
     5  Na(23)             0.00021       0.24299       0.08670       0.08105
     6  Na(23)             0.03009      35.59551      12.70136      11.87339
     7  Na(23)            -0.03881     -45.91053     -16.38202     -15.31410
 --------------------------------------------------------
       Center         ----  Spin Dipole Couplings  ----
                      3XX-RR        3YY-RR        3ZZ-RR
 --------------------------------------------------------
     1   Atom        0.003321      0.007569     -0.010890
     2   Atom        0.003482     -0.011283      0.007802
     3   Atom       -0.019490     -0.022103      0.041593
     4   Atom       -0.038933     -0.024248      0.063182
     5   Atom       -0.026750     -0.023609      0.050359
     6   Atom       -0.022103     -0.029217      0.051320
     7   Atom        0.001231     -0.004185      0.002954
 --------------------------------------------------------
                        XY            XZ            YZ
 --------------------------------------------------------
     1   Atom        0.001722     -0.005310      0.005728
     2   Atom       -0.013778     -0.033771      0.019569
     3   Atom        0.001157      0.011658      0.006326
     4   Atom       -0.002111      0.015569     -0.044338
     5   Atom       -0.001187      0.001253     -0.018939
     6   Atom        0.009670      0.038061      0.009349
     7   Atom       -0.000500     -0.001475      0.001456
 --------------------------------------------------------


 ---------------------------------------------------------------------------------
              Anisotropic Spin Dipole Couplings in Principal Axis System
 ---------------------------------------------------------------------------------

       Atom             a.u.   MegaHertz   Gauss  10(-4) cm-1        Axes

              Baa    -0.0143    -2.018    -0.720    -0.673  0.3020 -0.2638  0.9161
     1 Na(23) Bbb     0.0051     0.717     0.256     0.239  0.9522  0.0382 -0.3029
              Bcc     0.0092     1.301     0.464     0.434  0.0449  0.9638  0.2628
 
              Baa    -0.0293    -4.141    -1.478    -1.381  0.6118 -0.3183  0.7242
     2 Na(23) Bbb    -0.0195    -2.756    -0.983    -0.919  0.4854  0.8739 -0.0260
              Bcc     0.0488     6.898     2.461     2.301 -0.6246  0.3674  0.6891
 
              Baa    -0.0227    -3.209    -1.145    -1.070 -0.0092  0.9953 -0.0962
     3 Na(23) Bbb    -0.0216    -3.056    -1.090    -1.019  0.9835 -0.0084 -0.1805
              Bcc     0.0444     6.265     2.235     2.090  0.1805  0.0963  0.9789
 
              Baa    -0.0460    -6.490    -2.316    -2.165 -0.6124  0.6981  0.3710
     4 Na(23) Bbb    -0.0377    -5.317    -1.897    -1.774  0.7809  0.6073  0.1464
              Bcc     0.0836    11.807     4.213     3.938  0.1230 -0.3794  0.9170
 
              Baa    -0.0286    -4.037    -1.440    -1.346  0.4293  0.8798  0.2042
     5 Na(23) Bbb    -0.0264    -3.724    -1.329    -1.242  0.9030 -0.4135 -0.1168
              Bcc     0.0550     7.760     2.769     2.589  0.0183 -0.2346  0.9719
 
              Baa    -0.0409    -5.781    -2.063    -1.928  0.8395 -0.4528 -0.3004
     6 Na(23) Bbb    -0.0281    -3.970    -1.417    -1.324  0.3747  0.8827 -0.2835
              Bcc     0.0691     9.751     3.480     3.253  0.3936  0.1254  0.9107
 
              Baa    -0.0045    -0.633    -0.226    -0.211  0.0382  0.9820 -0.1848
     7 Na(23) Bbb     0.0004     0.057     0.020     0.019  0.8779  0.0553  0.4756
              Bcc     0.0041     0.576     0.206     0.192 -0.4773  0.1805  0.8600
 

 ---------------------------------------------------------------------------------

 No NMR shielding tensors so no spin-rotation constants.
 Leave Link  601 at Mon Nov 13 19:39:15 2023, MaxMem=  1879048192 cpu:               2.6 elap:               0.2
 (Enter /home/sekinelabo/g16/l701.exe)
 ... and contract with generalized density number  0.
 Compute integral first derivatives.
 Leave Link  701 at Mon Nov 13 19:39:15 2023, MaxMem=  1879048192 cpu:               1.7 elap:               0.1
 (Enter /home/sekinelabo/g16/l702.exe)
 L702 exits ... SP integral derivatives will be done elsewhere.
 Leave Link  702 at Mon Nov 13 19:39:15 2023, MaxMem=  1879048192 cpu:               0.5 elap:               0.0
 (Enter /home/sekinelabo/g16/l703.exe)
 Integral derivatives from FoFJK, PRISM(SPDF).
 Compute integral first derivatives, UseDBF=F ICtDFT=           0.
 Calling FoFJK, ICntrl=      2127 FMM=F ISym2X=0 I1Cent= 0 IOpClX= 1 NMat=1 NMatS=1 NMatT=0.
 FoFJK:  IHMeth= 1 ICntrl=    2127 DoSepK=F KAlg= 0 I1Cent=           0 FoldK=F
 IRaf=         0 NMat=       1 IRICut=       1 DoRegI=T DoRafI=F ISym2E= 0 IDoP0=0 IntGTp=1.
 FoFCou: FMM=F IPFlag=           0 FMFlag=      100000 FMFlg1=         800
         NFxFlg=           0 DoJE=F BraDBF=F KetDBF=F FulRan=T
         wScrn=  0.000000 ICntrl=      2127 IOpCl=  1 I1Cent=           0 NGrid=           0
         NMat0=    1 NMatS0=      1 NMatT0=    0 NMatD0=    1 NMtDS0=    0 NMtDT0=    0
 Symmetry not used in FoFCou.
 Leave Link  703 at Mon Nov 13 19:39:18 2023, MaxMem=  1879048192 cpu:              37.2 elap:               2.4
 (Enter /home/sekinelabo/g16/l716.exe)
 Dipole        = 1.08059858D-01-6.67995866D-02 1.33791387D-01
 ***** Axes restored to original set *****
 -------------------------------------------------------------------
 Center     Atomic                   Forces (Hartrees/Bohr)
 Number     Number              X              Y              Z
 -------------------------------------------------------------------
      1       11          -0.002751662   -0.002661979   -0.026068321
      2       11           0.013743899    0.009185667    0.020957420
      3       11           0.016844338   -0.011531765   -0.004228014
      4       11          -0.012470910   -0.027881013    0.009545724
      5       11           0.002492732    0.029589272   -0.007532391
      6       11          -0.016772075    0.008571562    0.009553736
      7       11          -0.001086322   -0.005271745   -0.002228154
 -------------------------------------------------------------------
 Cartesian Forces:  Max     0.029589272 RMS     0.014282431
 Z-matrix is all fixed cartesians, so copy forces.
 Force constants in Cartesian coordinates: 
                1             2             3             4             5 
      1  0.172278D+00
      2 -0.996956D-02  0.165548D+00
      3  0.112355D-01  0.102643D-01  0.251819D+00
      4 -0.124021D-01 -0.116458D-02  0.185450D-02  0.193484D+00
      5 -0.533004D-02 -0.103974D-01 -0.443365D-02  0.230184D-02  0.183829D+00
      6 -0.322581D-01 -0.168012D-01 -0.523549D-01  0.388202D-01  0.289991D-01
      7 -0.403799D-01  0.110618D-01  0.866498D-02 -0.264043D-01 -0.101003D-01
      8  0.845947D-02 -0.293244D-01 -0.966620D-02  0.244823D-01 -0.382176D-01
      9 -0.419036D-01  0.187085D-01 -0.417748D-01  0.239525D-01 -0.249998D-01
     10 -0.453468D-01 -0.612061D-03 -0.411611D-02 -0.609419D-01 -0.264355D-01
     11  0.129486D-02 -0.462974D-01 -0.568420D-02  0.544537D-03 -0.717821D-01
     12  0.142398D-01  0.508009D-01 -0.687475D-01 -0.167853D-01 -0.372028D-01
     13 -0.429298D-01  0.236212D-02 -0.397337D-02 -0.445867D-01  0.299425D-01
     14 -0.117263D-02 -0.641870D-01  0.129552D-01 -0.863563D-02 -0.470319D-01
     15 -0.350867D-02 -0.504680D-01 -0.480761D-01 -0.418521D-02  0.383162D-01
     16 -0.252868D-01  0.745927D-03 -0.105816D-01 -0.495737D-01  0.144815D-01
     17  0.685171D-02 -0.168912D-01 -0.455015D-02 -0.115133D-01 -0.289688D-01
     18  0.389077D-01 -0.158767D-01 -0.461940D-01 -0.385701D-01 -0.152624D-02
     19 -0.593221D-02 -0.242370D-02 -0.308394D-02  0.424412D-03 -0.485999D-02
     20 -0.133811D-03  0.154948D-02  0.111472D-02 -0.601518D-02  0.125688D-01
     21  0.132873D-01  0.337218D-02  0.532812D-02 -0.508660D-02  0.847195D-03
                6             7             8             9            10 
      6  0.219254D+00
      7 -0.185825D-01  0.119638D+00
      8 -0.937080D-02 -0.282649D-01  0.986708D-01
      9 -0.457497D-01 -0.366003D-03  0.717789D-02  0.975570D-01
     10  0.105782D-01 -0.534759D-01 -0.351545D-01  0.158458D-01  0.221123D+00
     11  0.166903D-01  0.153365D-01 -0.409105D-01 -0.358277D-02  0.123695D-01
     12 -0.438312D-01 -0.150769D-02  0.168856D-01 -0.515321D-01 -0.949384D-02
     13 -0.148823D-01  0.444427D-02  0.191687D-01 -0.183645D-02  0.108072D-01
     14 -0.850405D-02  0.268593D-02 -0.404843D-02  0.295922D-02 -0.252836D-02
     15 -0.625526D-01  0.214797D-02 -0.287421D-02  0.124611D-01  0.161407D-02
     16  0.211285D-01 -0.304120D-02  0.104822D-01  0.638303D-02 -0.612738D-01
     17 -0.110042D-01  0.942949D-02  0.986472D-02 -0.112831D-03  0.284627D-01
     18 -0.254088D-01  0.640856D-02 -0.141519D-02  0.200428D-01 -0.853797D-02
     19 -0.480395D-02 -0.780762D-03  0.826663D-03 -0.207522D-02 -0.108918D-01
     20 -0.917811D-05 -0.148533D-03  0.396546D-02 -0.150195D-03  0.238982D-01
     21  0.106432D-01  0.323467D-02 -0.737106D-03  0.899566D-02 -0.589010D-02
               11            12            13            14            15 
     11  0.276704D+00
     12 -0.342431D-01  0.237170D+00
     13 -0.497694D-02  0.115967D-02  0.131958D+00
     14 -0.186766D-01  0.108686D-01 -0.563201D-04  0.183840D+00
     15  0.122644D-01  0.132703D-01  0.196148D-02 -0.136543D-01  0.132656D+00
     16 -0.149569D-01  0.105087D-01 -0.614490D-01  0.138246D-01  0.383639D-02
     17 -0.800226D-01 -0.177916D-01 -0.353957D-01 -0.546976D-01  0.200233D-01
     18  0.132246D-01 -0.560553D-01  0.135743D-01 -0.753444D-02 -0.587764D-01
     19 -0.961146D-02  0.187867D-02  0.175580D-02 -0.411756D-02 -0.186602D-02
     20 -0.190146D-01  0.106824D-01 -0.110444D-01  0.480110D-02 -0.360742D-02
     21  0.133084D-02 -0.302742D-01  0.399668D-02  0.290972D-02  0.110178D-01
               16            17            18            19            20 
     16  0.238392D+00
     17 -0.121770D-01  0.225817D+00
     18 -0.206885D-01  0.256980D-01  0.213968D+00
     19 -0.377679D-01  0.143420D-01  0.890589D-02  0.531924D-01
     20 -0.124003D-01 -0.551014D-01 -0.125699D-01  0.584401D-02  0.512311D-01
     21 -0.105865D-01 -0.122625D-01 -0.475762D-01  0.104456D-02  0.453966D-02
               21 
     21  0.418656D-01
 Leave Link  716 at Mon Nov 13 19:39:18 2023, MaxMem=  1879048192 cpu:               0.5 elap:               0.0
 (Enter /home/sekinelabo/g16/l103.exe)

 GradGradGradGradGradGradGradGradGradGradGradGradGradGradGradGradGradGrad
 Berny optimization.
 Search for a local minimum.
 Step number   1 out of a maximum of    2
 All quantities printed in internal units (Hartrees-Bohrs-Radians)
 Second derivative matrix not updated -- first step.
 ITU=  0
     Eigenvalues ---    0.05309   0.07914   0.11184   0.13769   0.17790
     Eigenvalues ---    0.22112   0.24123   0.25077   0.25889   0.27378
     Eigenvalues ---    0.30227   0.31619   0.32944   0.34815   0.37674
 Quadratic step=3.842D-01 exceeds max=3.000D-01 adjusted using Lamda=-3.660D-02.
 Angle between NR and scaled steps=   6.64 degrees.
 Angle between quadratic step and forces=  19.87 degrees.
 Linear search not attempted -- first point.
 B after Tr=    -0.000000   -0.000000    0.000000
         Rot=    1.000000    0.000000   -0.000000    0.000000 Ang=   0.00 deg.
 Variable       Old X    -DE/DX   Delta X   Delta X   Delta X     New X
                                 (Linear)    (Quad)   (Total)
    X1        8.27581  -0.00275   0.00000   0.00202   0.00202   8.27783
    Y1        2.86041  -0.00266   0.00000   0.00205   0.00205   2.86246
    Z1        0.00000  -0.02607   0.00000  -0.08912  -0.08912  -0.08912
    X2       10.14319   0.01374   0.00000   0.06058   0.06058  10.20377
    Y2        4.13295   0.00919   0.00000   0.03606   0.03606   4.16901
    Z2        5.44717   0.02096   0.00000   0.07464   0.07464   5.52181
    X3       12.42625   0.01684   0.00000   0.10351   0.10351  12.52976
    Y3        0.14511  -0.01153   0.00000  -0.09816  -0.09816   0.04695
    Z3        2.39694  -0.00423   0.00000  -0.01916  -0.01916   2.37778
    X4        7.24811  -0.01247   0.00000  -0.03963  -0.03963   7.20848
    Y4        0.00000  -0.02788   0.00000  -0.08780  -0.08780  -0.08780
    Z4        4.22464   0.00955   0.00000   0.03267   0.03267   4.25731
    X5        7.90121   0.00249   0.00000   0.01228   0.01228   7.91349
    Y5        7.54504   0.02959   0.00000   0.15582   0.15582   7.70086
    Z5        2.23351  -0.00753   0.00000  -0.02648  -0.02648   2.20703
    X6        4.33494  -0.01677   0.00000  -0.08118  -0.08118   4.25375
    Y6        4.29829   0.00857   0.00000   0.04238   0.04238   4.34067
    Z6        4.16976   0.00955   0.00000   0.03272   0.03272   4.20248
    X7        0.00000  -0.00109   0.00000  -0.05758  -0.05758  -0.05758
    Y7        1.27493  -0.00527   0.00000  -0.05035  -0.05035   1.22458
    Z7        2.58249  -0.00223   0.00000  -0.00528  -0.00528   2.57721
         Item               Value     Threshold  Converged?
 Maximum Force            0.029589     0.000450     NO 
 RMS     Force            0.014282     0.000300     NO 
 Maximum Displacement     0.155821     0.001800     NO 
 RMS     Displacement     0.065474     0.001200     NO 
 Predicted change in Energy=-1.088160D-02
 GradGradGradGradGradGradGradGradGradGradGradGradGradGradGradGradGradGrad

 Leave Link  103 at Mon Nov 13 19:39:18 2023, MaxMem=  1879048192 cpu:               0.3 elap:               0.0
 (Enter /home/sekinelabo/g16/l9999.exe)
 1\1\GINC-SEKINELABO-XA7R-R37\Force\UB3LYP\6-311+G(d)\Na7(2)\SEKINELABO
 \13-Nov-2023\0\\#P B3LYP/6-311+g(d) force\\Gaussian input prepared by 
 ASE\\0,2\Na,4.3793691854,1.5136650584,0.\Na,5.3675447888,2.1870621177,
 2.8825188831\Na,6.5756889552,0.0767909934,1.2684067663\Na,3.8355353153
 ,0.,2.2355838955\Na,4.1811407096,3.9926607859,1.181921804\Na,2.2939497
 746,2.2745550282,2.2065407885\Na,0.,0.6746640827,1.3665923612\\Version
 =ES64L-G16RevB.01\State=2-A\HF=-1136.072099\S2=0.760519\S2-1=0.\S2A=0.
 750078\RMSD=7.264e-09\RMSF=1.428e-02\Dipole=-0.1080599,-0.0667996,-0.1
 337914\Quadrupole=9.9089629,-4.1567126,-5.7522503,0.4799792,1.2822541,
 0.510664\PG=C01 [X(Na7)]\\@


 IN-LAWS ARE LIKE SEEDS. YOU DON'T NEED THEM
 BUT THEY COME WITH THE TOMATO.
 Job cpu time:       0 days  0 hours  5 minutes  1.0 seconds.
 Elapsed time:       0 days  0 hours  0 minutes 24.6 seconds.
 File lengths (MBytes):  RWF=     32 Int=      0 D2E=      0 Chk=      6 Scr=      1
 Normal termination of Gaussian 16 at Mon Nov 13 19:39:18 2023.
