 Entering Gaussian System, Link 0=g16
 Initial command:
 /home/sekinelabo/g16/l1.exe "/home/sekinelabo/g16temp/Gau-5226.inp" -scrdir="/home/sekinelabo/g16temp/"
 Entering Link 1 = /home/sekinelabo/g16/l1.exe PID=      5228.
  
 Copyright (c) 1988-2017, Gaussian, Inc.  All Rights Reserved.
  
 This is part of the Gaussian(R) 16 program.  It is based on
 the Gaussian(R) 09 system (copyright 2009, Gaussian, Inc.),
 the Gaussian(R) 03 system (copyright 2003, Gaussian, Inc.),
 the Gaussian(R) 98 system (copyright 1998, Gaussian, Inc.),
 the Gaussian(R) 94 system (copyright 1995, Gaussian, Inc.),
 the Gaussian 92(TM) system (copyright 1992, Gaussian, Inc.),
 the Gaussian 90(TM) system (copyright 1990, Gaussian, Inc.),
 the Gaussian 88(TM) system (copyright 1988, Gaussian, Inc.),
 the Gaussian 86(TM) system (copyright 1986, Carnegie Mellon
 University), and the Gaussian 82(TM) system (copyright 1983,
 Carnegie Mellon University). Gaussian is a federally registered
 trademark of Gaussian, Inc.
  
 This software contains proprietary and confidential information,
 including trade secrets, belonging to Gaussian, Inc.
  
 This software is provided under written license and may be
 used, copied, transmitted, or stored only in accord with that
 written license.
  
 The following legend is applicable only to US Government
 contracts under FAR:
  
                    RESTRICTED RIGHTS LEGEND
  
 Use, reproduction and disclosure by the US Government is
 subject to restrictions as set forth in subparagraphs (a)
 and (c) of the Commercial Computer Software - Restricted
 Rights clause in FAR 52.227-19.
  
 Gaussian, Inc.
 340 Quinnipiac St., Bldg. 40, Wallingford CT 06492
  
  
 ---------------------------------------------------------------
 Warning -- This program may not be used in any manner that
 competes with the business of Gaussian, Inc. or will provide
 assistance to any competitor of Gaussian, Inc.  The licensee
 of this program is prohibited from giving any competitor of
 Gaussian, Inc. access to this program.  By using this program,
 the user acknowledges that Gaussian, Inc. is engaged in the
 business of creating and licensing software in the field of
 computational chemistry and represents and warrants to the
 licensee that it is not a competitor of Gaussian, Inc. and that
 it will not use this program in any manner prohibited above.
 ---------------------------------------------------------------
  

 Cite this work as:
 Gaussian 16, Revision B.01,
 M. J. Frisch, G. W. Trucks, H. B. Schlegel, G. E. Scuseria, 
 M. A. Robb, J. R. Cheeseman, G. Scalmani, V. Barone, 
 G. A. Petersson, H. Nakatsuji, X. Li, M. Caricato, A. V. Marenich, 
 J. Bloino, B. G. Janesko, R. Gomperts, B. Mennucci, H. P. Hratchian, 
 J. V. Ortiz, A. F. Izmaylov, J. L. Sonnenberg, D. Williams-Young, 
 F. Ding, F. Lipparini, F. Egidi, J. Goings, B. Peng, A. Petrone, 
 T. Henderson, D. Ranasinghe, V. G. Zakrzewski, J. Gao, N. Rega, 
 G. Zheng, W. Liang, M. Hada, M. Ehara, K. Toyota, R. Fukuda, 
 J. Hasegawa, M. Ishida, T. Nakajima, Y. Honda, O. Kitao, H. Nakai, 
 T. Vreven, K. Throssell, J. A. Montgomery, Jr., J. E. Peralta, 
 F. Ogliaro, M. J. Bearpark, J. J. Heyd, E. N. Brothers, K. N. Kudin, 
 V. N. Staroverov, T. A. Keith, R. Kobayashi, J. Normand, 
 K. Raghavachari, A. P. Rendell, J. C. Burant, S. S. Iyengar, 
 J. Tomasi, M. Cossi, J. M. Millam, M. Klene, C. Adamo, R. Cammi, 
 J. W. Ochterski, R. L. Martin, K. Morokuma, O. Farkas, 
 J. B. Foresman, and D. J. Fox, Gaussian, Inc., Wallingford CT, 2016.
 
 ******************************************
 Gaussian 16:  ES64L-G16RevB.01 20-Dec-2017
                13-Nov-2023 
 ******************************************
 %mem=14GB
 %chk=checkpoint.chk
 %nprocshared=16
 Will use up to   16 processors via shared memory.
 -------------------------
 #P B3LYP/6-311+g(d) force
 -------------------------
 1/10=7,30=1,38=1/1,3;
 2/12=2,17=6,18=5,40=1/2;
 3/5=4,6=6,7=11,11=2,25=1,30=1,71=1,74=-5/1,2,3;
 4//1;
 5/5=2,38=5/2;
 6/7=2,8=2,9=2,10=2,28=1/1;
 7/29=1/1,2,3,16;
 1/10=7,30=1/3;
 99//99;
 Leave Link    1 at Mon Nov 13 20:48:48 2023, MaxMem=  1879048192 cpu:               0.3 elap:               0.0
 (Enter /home/sekinelabo/g16/l101.exe)
 ------------------------------
 Gaussian input prepared by ASE
 ------------------------------
 Symbolic Z-matrix:
 Charge =  0 Multiplicity = 2
 Na                    2.53644   0.        1.87652 
 Na                    2.53926   3.08491   1.90759 
 Na                    4.61578   1.53895   1.99049 
 Na                    1.5548    1.56262   0. 
 Na                    0.00295   2.85829   2.1567 
 Na                    1.90968   1.52196   3.97416 
 Na                    0.        0.22209   2.13131 
 
 ITRead=  0  0  0  0  0  0  0
 MicOpt= -1 -1 -1 -1 -1 -1 -1
 NAtoms=      7 NQM=        7 NQMF=       0 NMMI=      0 NMMIF=      0
                NMic=       0 NMicF=      0.
                    Isotopes and Nuclear Properties:
 (Nuclear quadrupole moments (NQMom) in fm**2, nuclear magnetic moments (NMagM)
  in nuclear magnetons)

  Atom         1           2           3           4           5           6           7
 IAtWgt=          23          23          23          23          23          23          23
 AtmWgt=  22.9897697  22.9897697  22.9897697  22.9897697  22.9897697  22.9897697  22.9897697
 NucSpn=           3           3           3           3           3           3           3
 AtZEff=  -0.0000000  -0.0000000  -0.0000000  -0.0000000  -0.0000000  -0.0000000  -0.0000000
 NQMom=   10.4000000  10.4000000  10.4000000  10.4000000  10.4000000  10.4000000  10.4000000
 NMagM=    2.2175200   2.2175200   2.2175200   2.2175200   2.2175200   2.2175200   2.2175200
 AtZNuc=  11.0000000  11.0000000  11.0000000  11.0000000  11.0000000  11.0000000  11.0000000
 Leave Link  101 at Mon Nov 13 20:48:49 2023, MaxMem=  1879048192 cpu:               2.6 elap:               0.2
 (Enter /home/sekinelabo/g16/l103.exe)

 GradGradGradGradGradGradGradGradGradGradGradGradGradGradGradGradGradGrad
 Berny optimization.
 Initialization pass.
 Trust Radius=3.00D-01 FncErr=1.00D-07 GrdErr=1.00D-07 EigMax=2.50D+02 EigMin=1.00D-04
 Number of steps in this run=      2 maximum allowed number of steps=      2.
 GradGradGradGradGradGradGradGradGradGradGradGradGradGradGradGradGradGrad

 Leave Link  103 at Mon Nov 13 20:48:49 2023, MaxMem=  1879048192 cpu:               0.2 elap:               0.0
 (Enter /home/sekinelabo/g16/l202.exe)
                          Input orientation:                          
 ---------------------------------------------------------------------
 Center     Atomic      Atomic             Coordinates (Angstroms)
 Number     Number       Type             X           Y           Z
 ---------------------------------------------------------------------
      1         11           0        2.536440    0.000000    1.876523
      2         11           0        2.539261    3.084910    1.907587
      3         11           0        4.615777    1.538951    1.990486
      4         11           0        1.554798    1.562622    0.000000
      5         11           0        0.002954    2.858286    2.156696
      6         11           0        1.909678    1.521957    3.974159
      7         11           0        0.000000    0.222094    2.131311
 ---------------------------------------------------------------------
                    Distance matrix (angstroms):
                    1          2          3          4          5
     1  Na   0.000000
     2  Na   3.085068   0.000000
     3  Na   2.589401   2.590132   0.000000
     4  Na   2.631872   2.631619   3.651326   0.000000
     5  Na   3.829732   2.558567   4.800667   2.956062   0.000000
     6  Na   2.666320   2.666442   3.355327   3.990179   2.953733
     7  Na   2.558861   3.833225   4.802014   2.959206   2.636316
                    6          7
     6  Na   0.000000
     7  Na   2.955098   0.000000
 Stoichiometry    Na7(2)
 Framework group  C1[X(Na7)]
 Deg. of freedom    15
 Full point group                 C1      NOp   1
 Largest Abelian subgroup         C1      NOp   1
 Largest concise Abelian subgroup C1      NOp   1
                         Standard orientation:                         
 ---------------------------------------------------------------------
 Center     Atomic      Atomic             Coordinates (Angstroms)
 Number     Number       Type             X           Y           Z
 ---------------------------------------------------------------------
      1         11           0       -0.656596   -1.541260    0.128729
      2         11           0       -0.659417    1.543650    0.097664
      3         11           0       -2.735933   -0.002309    0.014766
      4         11           0        0.325046    0.021362    2.005252
      5         11           0        1.876890    1.317026   -0.151444
      6         11           0       -0.029834   -0.019302   -1.968907
      7         11           0        1.879844   -1.319166   -0.126060
 ---------------------------------------------------------------------
 Rotational constants (GHZ):           1.3572371           0.9363485           0.9256577
 Leave Link  202 at Mon Nov 13 20:48:49 2023, MaxMem=  1879048192 cpu:               0.1 elap:               0.0
 (Enter /home/sekinelabo/g16/l301.exe)
 Standard basis: 6-311+G(d) (5D, 7F)
 Ernie: Thresh=  0.10000D-02 Tol=  0.10000D-05 Strict=F.
 There are   217 symmetry adapted cartesian basis functions of A   symmetry.
 There are   210 symmetry adapted basis functions of A   symmetry.
   210 basis functions,   350 primitive gaussians,   217 cartesian basis functions
    39 alpha electrons       38 beta electrons
       nuclear repulsion energy       440.6343385835 Hartrees.
 IExCor=  402 DFT=T Ex+Corr=B3LYP ExCW=0 ScaHFX=  0.200000
 ScaDFX=  0.800000  0.720000  1.000000  0.810000 ScalE2=  1.000000  1.000000
 IRadAn=      5 IRanWt=     -1 IRanGd=            0 ICorTp=0 IEmpDi=  4
 NAtoms=    7 NActive=    7 NUniq=    7 SFac= 1.00D+00 NAtFMM=   60 NAOKFM=F Big=F
 Integral buffers will be    131072 words long.
 Raffenetti 2 integral format.
 Two-electron integral symmetry is turned on.
 Leave Link  301 at Mon Nov 13 20:48:49 2023, MaxMem=  1879048192 cpu:               0.5 elap:               0.0
 (Enter /home/sekinelabo/g16/l302.exe)
 NPDir=0 NMtPBC=     1 NCelOv=     1 NCel=       1 NClECP=     1 NCelD=      1
         NCelK=      1 NCelE2=     1 NClLst=     1 CellRange=     0.0.
 One-electron integrals computed using PRISM.
 One-electron integral symmetry used in STVInt
 NBasis=   210 RedAO= T EigKep=  1.17D-06  NBF=   210
 NBsUse=   209 1.00D-06 EigRej=  5.67D-07 NBFU=   209
 Precomputing XC quadrature grid using
 IXCGrd= 4 IRadAn=           5 IRanWt=          -1 IRanGd=           0 AccXCQ= 0.00D+00.
 Generated NRdTot=       0 NPtTot=           0 NUsed=           0 NTot=          32
 NSgBfM=   211   211   211   211   211 MxSgAt=     7 MxSgA2=     7.
 Leave Link  302 at Mon Nov 13 20:48:49 2023, MaxMem=  1879048192 cpu:               2.1 elap:               0.1
 (Enter /home/sekinelabo/g16/l303.exe)
 DipDrv:  MaxL=1.
 Leave Link  303 at Mon Nov 13 20:48:49 2023, MaxMem=  1879048192 cpu:               0.6 elap:               0.0
 (Enter /home/sekinelabo/g16/l401.exe)
 ExpMin= 7.60D-03 ExpMax= 3.62D+04 ExpMxC= 1.21D+03 IAcc=3 IRadAn=         5 AccDes= 0.00D+00
 Harris functional with IExCor=  402 and IRadAn=       5 diagonalized for initial guess.
 HarFok:  IExCor=  402 AccDes= 0.00D+00 IRadAn=         5 IDoV= 1 UseB2=F ITyADJ=14
 ICtDFT=  3500011 ScaDFX=  1.000000  1.000000  1.000000  1.000000
 FoFCou: FMM=F IPFlag=           0 FMFlag=      100000 FMFlg1=           0
         NFxFlg=           0 DoJE=T BraDBF=F KetDBF=T FulRan=T
         wScrn=  0.000000 ICntrl=       500 IOpCl=  0 I1Cent=   200000004 NGrid=           0
         NMat0=    1 NMatS0=      1 NMatT0=    0 NMatD0=    1 NMtDS0=    0 NMtDT0=    0
 Petite list used in FoFCou.
 Harris En= -1135.79996154118    
 JPrj=0 DoOrth=F DoCkMO=F.
 Initial guess <Sx>= 0.0000 <Sy>= 0.0000 <Sz>= 0.5000 <S**2>= 0.7500 S= 0.5000
 Leave Link  401 at Mon Nov 13 20:48:49 2023, MaxMem=  1879048192 cpu:               5.4 elap:               0.4
 (Enter /home/sekinelabo/g16/l502.exe)
 Keep R1 and R2 ints in memory in canonical form, NReq=507620374.
 FoFCou: FMM=F IPFlag=           0 FMFlag=           0 FMFlg1=           0
         NFxFlg=           0 DoJE=F BraDBF=F KetDBF=F FulRan=T
         wScrn=  0.000000 ICntrl=       600 IOpCl=  0 I1Cent=           0 NGrid=           0
         NMat0=    1 NMatS0=  22155 NMatT0=    0 NMatD0=    1 NMtDS0=    0 NMtDT0=    0
 Symmetry not used in FoFCou.
 Two-electron integral symmetry not used.
 UHF open shell SCF:
 Using DIIS extrapolation, IDIIS=  1040.
 NGot=  1879048192 LenX=  1388082362 LenY=  1388034832
 Requested convergence on RMS density matrix=1.00D-08 within 128 cycles.
 Requested convergence on MAX density matrix=1.00D-06.
 Requested convergence on             energy=1.00D-06.
 No special actions if energy rises.

 Cycle   1  Pass 1  IDiag  1:
 E= -1135.97280270085    
 DIIS: error= 1.77D-02 at cycle   1 NSaved=   1.
 NSaved= 1 IEnMin= 1 EnMin= -1135.97280270085     IErMin= 1 ErrMin= 1.77D-02
 ErrMax= 1.77D-02  0.00D+00 EMaxC= 1.00D-01 BMatC= 2.27D-01 BMatP= 2.27D-01
 IDIUse=3 WtCom= 8.23D-01 WtEn= 1.77D-01
 Coeff-Com:  0.100D+01
 Coeff-En:   0.100D+01
 Coeff:      0.100D+01
 Gap=     0.079 Goal=   None    Shift=    0.000
 Gap=     0.022 Goal=   None    Shift=    0.000
 GapD=    0.022 DampG=0.250 DampE=0.500 DampFc=0.2500 IDamp=-1.
 Damping current iteration by 2.50D-01
 RMSDP=1.30D-01 MaxDP=7.88D+00              OVMax= 2.72D-01

 Cycle   2  Pass 1  IDiag  1:
 E= -1135.99079788642     Delta-E=       -0.017995185574 Rises=F Damp=T
 DIIS: error= 8.59D-03 at cycle   2 NSaved=   2.
 NSaved= 2 IEnMin= 2 EnMin= -1135.99079788642     IErMin= 2 ErrMin= 8.59D-03
 ErrMax= 8.59D-03  0.00D+00 EMaxC= 1.00D-01 BMatC= 8.49D-02 BMatP= 2.27D-01
 IDIUse=3 WtCom= 9.14D-01 WtEn= 8.59D-02
 Coeff-Com: -0.126D+01 0.226D+01
 Coeff-En:   0.000D+00 0.100D+01
 Coeff:     -0.116D+01 0.216D+01
 Gap=     0.073 Goal=   None    Shift=    0.000
 Gap=     0.028 Goal=   None    Shift=    0.000
 RMSDP=4.71D-02 MaxDP=2.84D+00 DE=-1.80D-02 OVMax= 1.78D-01

 Cycle   3  Pass 1  IDiag  1:
 E= -1136.02107671846     Delta-E=       -0.030278832039 Rises=F Damp=F
 DIIS: error= 4.18D-03 at cycle   3 NSaved=   3.
 NSaved= 3 IEnMin= 3 EnMin= -1136.02107671846     IErMin= 3 ErrMin= 4.18D-03
 ErrMax= 4.18D-03  0.00D+00 EMaxC= 1.00D-01 BMatC= 4.87D-03 BMatP= 8.49D-02
 IDIUse=3 WtCom= 9.58D-01 WtEn= 4.18D-02
 Coeff-Com: -0.270D+00 0.501D+00 0.769D+00
 Coeff-En:   0.000D+00 0.000D+00 0.100D+01
 Coeff:     -0.258D+00 0.480D+00 0.778D+00
 Gap=     0.068 Goal=   None    Shift=    0.000
 Gap=     0.028 Goal=   None    Shift=    0.000
 RMSDP=2.86D-02 MaxDP=1.65D+00 DE=-3.03D-02 OVMax= 5.44D-02

 Cycle   4  Pass 1  IDiag  1:
 E= -1136.02169026796     Delta-E=       -0.000613549503 Rises=F Damp=F
 DIIS: error= 3.43D-03 at cycle   4 NSaved=   4.
 NSaved= 4 IEnMin= 4 EnMin= -1136.02169026796     IErMin= 4 ErrMin= 3.43D-03
 ErrMax= 3.43D-03  0.00D+00 EMaxC= 1.00D-01 BMatC= 3.18D-03 BMatP= 4.87D-03
 IDIUse=3 WtCom= 9.66D-01 WtEn= 3.43D-02
 Coeff-Com:  0.983D-02-0.109D-01 0.447D+00 0.554D+00
 Coeff-En:   0.000D+00 0.000D+00 0.433D+00 0.567D+00
 Coeff:      0.949D-02-0.105D-01 0.447D+00 0.554D+00
 Gap=     0.069 Goal=   None    Shift=    0.000
 Gap=     0.029 Goal=   None    Shift=    0.000
 RMSDP=1.00D-02 MaxDP=6.86D-01 DE=-6.14D-04 OVMax= 3.25D-02

 Cycle   5  Pass 1  IDiag  1:
 E= -1136.02330397938     Delta-E=       -0.001613711414 Rises=F Damp=F
 DIIS: error= 8.07D-04 at cycle   5 NSaved=   5.
 NSaved= 5 IEnMin= 5 EnMin= -1136.02330397938     IErMin= 5 ErrMin= 8.07D-04
 ErrMax= 8.07D-04  0.00D+00 EMaxC= 1.00D-01 BMatC= 1.19D-04 BMatP= 3.18D-03
 IDIUse=3 WtCom= 9.92D-01 WtEn= 8.07D-03
 Coeff-Com:  0.638D-02-0.828D-02 0.280D+00 0.354D+00 0.368D+00
 Coeff-En:   0.000D+00 0.000D+00 0.000D+00 0.000D+00 0.100D+01
 Coeff:      0.633D-02-0.821D-02 0.278D+00 0.351D+00 0.373D+00
 Gap=     0.069 Goal=   None    Shift=    0.000
 Gap=     0.029 Goal=   None    Shift=    0.000
 RMSDP=1.08D-03 MaxDP=8.70D-02 DE=-1.61D-03 OVMax= 1.08D-02

 Cycle   6  Pass 1  IDiag  1:
 E= -1136.02341892076     Delta-E=       -0.000114941386 Rises=F Damp=F
 DIIS: error= 1.51D-04 at cycle   6 NSaved=   6.
 NSaved= 6 IEnMin= 6 EnMin= -1136.02341892076     IErMin= 6 ErrMin= 1.51D-04
 ErrMax= 1.51D-04  0.00D+00 EMaxC= 1.00D-01 BMatC= 3.30D-06 BMatP= 1.19D-04
 IDIUse=3 WtCom= 9.98D-01 WtEn= 1.51D-03
 Coeff-Com: -0.254D-02 0.289D-02-0.417D-01-0.576D-01 0.916D-01 0.101D+01
 Coeff-En:   0.000D+00 0.000D+00 0.000D+00 0.000D+00 0.000D+00 0.100D+01
 Coeff:     -0.254D-02 0.289D-02-0.416D-01-0.575D-01 0.914D-01 0.101D+01
 Gap=     0.069 Goal=   None    Shift=    0.000
 Gap=     0.029 Goal=   None    Shift=    0.000
 RMSDP=4.74D-04 MaxDP=3.77D-02 DE=-1.15D-04 OVMax= 3.03D-03

 Cycle   7  Pass 1  IDiag  1:
 E= -1136.02342410438     Delta-E=       -0.000005183619 Rises=F Damp=F
 DIIS: error= 2.86D-05 at cycle   7 NSaved=   7.
 NSaved= 7 IEnMin= 7 EnMin= -1136.02342410438     IErMin= 7 ErrMin= 2.86D-05
 ErrMax= 2.86D-05  0.00D+00 EMaxC= 1.00D-01 BMatC= 1.39D-07 BMatP= 3.30D-06
 IDIUse=1 WtCom= 1.00D+00 WtEn= 0.00D+00
 Coeff-Com:  0.228D-03-0.299D-03-0.164D-01-0.183D-01-0.327D-01-0.155D+00
 Coeff-Com:  0.122D+01
 Coeff:      0.228D-03-0.299D-03-0.164D-01-0.183D-01-0.327D-01-0.155D+00
 Coeff:      0.122D+01
 Gap=     0.069 Goal=   None    Shift=    0.000
 Gap=     0.029 Goal=   None    Shift=    0.000
 RMSDP=1.55D-04 MaxDP=1.59D-02 DE=-5.18D-06 OVMax= 1.23D-03

 Cycle   8  Pass 1  IDiag  1:
 E= -1136.02342461052     Delta-E=       -0.000000506143 Rises=F Damp=F
 DIIS: error= 1.24D-05 at cycle   8 NSaved=   8.
 NSaved= 8 IEnMin= 8 EnMin= -1136.02342461052     IErMin= 8 ErrMin= 1.24D-05
 ErrMax= 1.24D-05  0.00D+00 EMaxC= 1.00D-01 BMatC= 4.06D-08 BMatP= 1.39D-07
 IDIUse=1 WtCom= 1.00D+00 WtEn= 0.00D+00
 Coeff-Com:  0.378D-03-0.472D-03-0.314D-02-0.215D-02-0.210D-01-0.136D+00
 Coeff-Com:  0.470D+00 0.693D+00
 Coeff:      0.378D-03-0.472D-03-0.314D-02-0.215D-02-0.210D-01-0.136D+00
 Coeff:      0.470D+00 0.693D+00
 Gap=     0.069 Goal=   None    Shift=    0.000
 Gap=     0.029 Goal=   None    Shift=    0.000
 RMSDP=2.89D-05 MaxDP=3.56D-03 DE=-5.06D-07 OVMax= 3.68D-04

 Cycle   9  Pass 1  IDiag  1:
 E= -1136.02342466934     Delta-E=       -0.000000058818 Rises=F Damp=F
 DIIS: error= 9.20D-06 at cycle   9 NSaved=   9.
 NSaved= 9 IEnMin= 9 EnMin= -1136.02342466934     IErMin= 9 ErrMin= 9.20D-06
 ErrMax= 9.20D-06  0.00D+00 EMaxC= 1.00D-01 BMatC= 1.67D-08 BMatP= 4.06D-08
 IDIUse=1 WtCom= 1.00D+00 WtEn= 0.00D+00
 Coeff-Com:  0.168D-03-0.204D-03 0.205D-02 0.314D-02-0.491D-02-0.406D-01
 Coeff-Com: -0.267D-01 0.415D+00 0.652D+00
 Coeff:      0.168D-03-0.204D-03 0.205D-02 0.314D-02-0.491D-02-0.406D-01
 Coeff:     -0.267D-01 0.415D+00 0.652D+00
 Gap=     0.069 Goal=   None    Shift=    0.000
 Gap=     0.029 Goal=   None    Shift=    0.000
 RMSDP=1.72D-05 MaxDP=1.85D-03 DE=-5.88D-08 OVMax= 3.28D-04

 Cycle  10  Pass 1  IDiag  1:
 E= -1136.02342470186     Delta-E=       -0.000000032518 Rises=F Damp=F
 DIIS: error= 2.72D-06 at cycle  10 NSaved=  10.
 NSaved=10 IEnMin=10 EnMin= -1136.02342470186     IErMin=10 ErrMin= 2.72D-06
 ErrMax= 2.72D-06  0.00D+00 EMaxC= 1.00D-01 BMatC= 2.35D-09 BMatP= 1.67D-08
 IDIUse=1 WtCom= 1.00D+00 WtEn= 0.00D+00
 Coeff-Com: -0.399D-04 0.575D-04 0.999D-03 0.106D-02 0.177D-02 0.938D-02
 Coeff-Com: -0.846D-01 0.153D-01 0.200D+00 0.856D+00
 Coeff:     -0.399D-04 0.575D-04 0.999D-03 0.106D-02 0.177D-02 0.938D-02
 Coeff:     -0.846D-01 0.153D-01 0.200D+00 0.856D+00
 Gap=     0.069 Goal=   None    Shift=    0.000
 Gap=     0.029 Goal=   None    Shift=    0.000
 RMSDP=1.35D-05 MaxDP=1.11D-03 DE=-3.25D-08 OVMax= 3.56D-04

 Cycle  11  Pass 1  IDiag  1:
 E= -1136.02342471578     Delta-E=       -0.000000013922 Rises=F Damp=F
 DIIS: error= 2.76D-06 at cycle  11 NSaved=  11.
 NSaved=11 IEnMin=11 EnMin= -1136.02342471578     IErMin=10 ErrMin= 2.72D-06
 ErrMax= 2.76D-06  0.00D+00 EMaxC= 1.00D-01 BMatC= 1.15D-09 BMatP= 2.35D-09
 IDIUse=1 WtCom= 1.00D+00 WtEn= 0.00D+00
 Coeff-Com: -0.571D-04 0.716D-04-0.106D-03-0.364D-03 0.194D-02 0.135D-01
 Coeff-Com: -0.225D-01-0.110D+00-0.120D+00 0.258D+00 0.979D+00
 Coeff:     -0.571D-04 0.716D-04-0.106D-03-0.364D-03 0.194D-02 0.135D-01
 Coeff:     -0.225D-01-0.110D+00-0.120D+00 0.258D+00 0.979D+00
 Gap=     0.069 Goal=   None    Shift=    0.000
 Gap=     0.029 Goal=   None    Shift=    0.000
 RMSDP=6.76D-06 MaxDP=5.35D-04 DE=-1.39D-08 OVMax= 4.54D-04

 Cycle  12  Pass 1  IDiag  1:
 E= -1136.02342472917     Delta-E=       -0.000000013385 Rises=F Damp=F
 DIIS: error= 2.81D-06 at cycle  12 NSaved=  12.
 NSaved=12 IEnMin=12 EnMin= -1136.02342472917     IErMin=10 ErrMin= 2.72D-06
 ErrMax= 2.81D-06  0.00D+00 EMaxC= 1.00D-01 BMatC= 8.80D-10 BMatP= 1.15D-09
 IDIUse=1 WtCom= 1.00D+00 WtEn= 0.00D+00
 Coeff-Com: -0.650D-05 0.666D-05-0.993D-04-0.184D-03 0.354D-03 0.295D-02
 Coeff-Com:  0.176D-02-0.339D-01-0.512D-01 0.886D-03 0.260D+00 0.820D+00
 Coeff:     -0.650D-05 0.666D-05-0.993D-04-0.184D-03 0.354D-03 0.295D-02
 Coeff:      0.176D-02-0.339D-01-0.512D-01 0.886D-03 0.260D+00 0.820D+00
 Gap=     0.069 Goal=   None    Shift=    0.000
 Gap=     0.029 Goal=   None    Shift=    0.000
 RMSDP=4.86D-06 MaxDP=4.43D-04 DE=-1.34D-08 OVMax= 3.39D-04

 Cycle  13  Pass 1  IDiag  1:
 E= -1136.02342473835     Delta-E=       -0.000000009181 Rises=F Damp=F
 DIIS: error= 2.84D-06 at cycle  13 NSaved=  13.
 NSaved=13 IEnMin=13 EnMin= -1136.02342473835     IErMin=10 ErrMin= 2.72D-06
 ErrMax= 2.84D-06  0.00D+00 EMaxC= 1.00D-01 BMatC= 8.97D-10 BMatP= 8.80D-10
 IDIUse=1 WtCom= 1.00D+00 WtEn= 0.00D+00
 Coeff-Com:  0.109D-04-0.149D-04-0.574D-04-0.576D-04-0.238D-03-0.126D-02
 Coeff-Com:  0.780D-02 0.187D-02-0.940D-02-0.677D-01-0.535D-01 0.656D+00
 Coeff-Com:  0.466D+00
 Coeff:      0.109D-04-0.149D-04-0.574D-04-0.576D-04-0.238D-03-0.126D-02
 Coeff:      0.780D-02 0.187D-02-0.940D-02-0.677D-01-0.535D-01 0.656D+00
 Coeff:      0.466D+00
 Gap=     0.069 Goal=   None    Shift=    0.000
 Gap=     0.029 Goal=   None    Shift=    0.000
 RMSDP=3.11D-06 MaxDP=2.20D-04 DE=-9.18D-09 OVMax= 2.62D-04

 Cycle  14  Pass 1  IDiag  1:
 E= -1136.02342474548     Delta-E=       -0.000000007132 Rises=F Damp=F
 DIIS: error= 2.87D-06 at cycle  14 NSaved=  14.
 NSaved=14 IEnMin=14 EnMin= -1136.02342474548     IErMin=10 ErrMin= 2.72D-06
 ErrMax= 2.87D-06  0.00D+00 EMaxC= 1.00D-01 BMatC= 8.57D-10 BMatP= 8.80D-10
 IDIUse=1 WtCom= 1.00D+00 WtEn= 0.00D+00
 Coeff-Com:  0.266D-04-0.361D-04-0.875D-04-0.688D-04-0.633D-03-0.352D-02
 Coeff-Com:  0.167D-01 0.127D-01-0.812D-02-0.153D+00-0.190D+00 0.131D+01
 Coeff-Com:  0.104D+01-0.102D+01
 Coeff:      0.266D-04-0.361D-04-0.875D-04-0.688D-04-0.633D-03-0.352D-02
 Coeff:      0.167D-01 0.127D-01-0.812D-02-0.153D+00-0.190D+00 0.131D+01
 Coeff:      0.104D+01-0.102D+01
 Gap=     0.069 Goal=   None    Shift=    0.000
 Gap=     0.029 Goal=   None    Shift=    0.000
 RMSDP=3.67D-06 MaxDP=2.87D-04 DE=-7.13D-09 OVMax= 3.21D-04

 Cycle  15  Pass 1  IDiag  1:
 E= -1136.02342473686     Delta-E=        0.000000008618 Rises=F Damp=F
 DIIS: error= 2.84D-06 at cycle  15 NSaved=  15.
 NSaved=15 IEnMin=14 EnMin= -1136.02342474548     IErMin=10 ErrMin= 2.72D-06
 ErrMax= 2.84D-06  0.00D+00 EMaxC= 1.00D-01 BMatC= 8.41D-10 BMatP= 8.57D-10
 IDIUse=1 WtCom= 1.00D+00 WtEn= 0.00D+00
 Large coefficients: NSaved= 15 BigCof=   22.96 CofMax=   10.00 Det=-3.61D-13
 Inversion failed.  Reducing to 14 matrices.
 Large coefficients: NSaved= 14 BigCof=   22.49 CofMax=   10.00 Det=-3.83D-13
 Inversion failed.  Reducing to 13 matrices.
 Large coefficients: NSaved= 13 BigCof=   21.98 CofMax=   10.00 Det=-3.96D-13
 Inversion failed.  Reducing to 12 matrices.
 Large coefficients: NSaved= 12 BigCof=   21.38 CofMax=   10.00 Det=-4.12D-13
 Inversion failed.  Reducing to 11 matrices.
 Large coefficients: NSaved= 11 BigCof=   10.79 CofMax=   10.00 Det=-7.46D-13
 Inversion failed.  Reducing to 10 matrices.
 Coeff-Com: -0.824D-03-0.588D-03 0.133D-01 0.724D-02-0.873D-01-0.126D+00
 Coeff-Com:  0.206D+00 0.102D+01-0.985D+01 0.982D+01
 Coeff:     -0.824D-03-0.588D-03 0.133D-01 0.724D-02-0.873D-01-0.126D+00
 Coeff:      0.206D+00 0.102D+01-0.985D+01 0.982D+01
 Gap=     0.069 Goal=   None    Shift=    0.000
 Gap=     0.029 Goal=   None    Shift=    0.000
 RMSDP=3.01D-05 MaxDP=2.28D-03 DE= 8.62D-09 OVMax= 2.68D-03

 Cycle  16  Pass 1  IDiag  1:
 E= -1136.02342466908     Delta-E=        0.000000067780 Rises=F Damp=F
 DIIS: error= 2.54D-06 at cycle  16 NSaved=  11.
 NSaved=11 IEnMin= 9 EnMin= -1136.02342474548     IErMin=11 ErrMin= 2.54D-06
 ErrMax= 2.54D-06  0.00D+00 EMaxC= 1.00D-01 BMatC= 7.47D-10 BMatP= 8.41D-10
 IDIUse=1 WtCom= 1.00D+00 WtEn= 0.00D+00
 Large coefficients: NSaved= 11 BigCof=   22.71 CofMax=   10.00 Det=-6.10D-13
 Inversion failed.  Reducing to 10 matrices.
 Large coefficients: NSaved= 10 BigCof=   22.57 CofMax=   10.00 Det=-6.18D-13
 Inversion failed.  Reducing to  9 matrices.
 Large coefficients: NSaved=  9 BigCof=   21.01 CofMax=   10.00 Det=-6.63D-13
 Inversion failed.  Reducing to  8 matrices.
 Large coefficients: NSaved=  8 BigCof=   16.20 CofMax=   10.00 Det=-7.64D-13
 Inversion failed.  Reducing to  7 matrices.
 Large coefficients: NSaved=  7 BigCof=   15.89 CofMax=   10.00 Det=-7.64D-13
 Inversion failed.  Reducing to  6 matrices.
 Large coefficients: NSaved=  6 BigCof=   15.88 CofMax=   10.00 Det=-7.87D-13
 Inversion failed.  Reducing to  5 matrices.
 Large coefficients: NSaved=  5 BigCof=   15.76 CofMax=   10.00 Det=-8.00D-13
 Inversion failed.  Reducing to  4 matrices.
 Large coefficients: NSaved=  4 BigCof=   11.89 CofMax=   10.00 Det=-8.59D-13
 Inversion failed.  Reducing to  3 matrices.
 Coeff-Com: -0.930D+01 0.889D+01 0.141D+01
 Coeff:     -0.930D+01 0.889D+01 0.141D+01
 Gap=     0.069 Goal=   None    Shift=    0.000
 Gap=     0.029 Goal=   None    Shift=    0.000
 RMSDP=4.26D-05 MaxDP=3.16D-03 DE= 6.78D-08 OVMax= 3.82D-03

 Cycle  17  Pass 1  IDiag  1:
 E= -1136.02342458489     Delta-E=        0.000000084194 Rises=F Damp=F
 DIIS: error= 2.13D-06 at cycle  17 NSaved=   4.
 NSaved= 4 IEnMin= 1 EnMin= -1136.02342474548     IErMin= 4 ErrMin= 2.13D-06
 ErrMax= 2.13D-06  0.00D+00 EMaxC= 1.00D-01 BMatC= 6.73D-10 BMatP= 7.47D-10
 IDIUse=1 WtCom= 1.00D+00 WtEn= 0.00D+00
 Large coefficients: NSaved=  4 BigCof=   10.03 CofMax=   10.00 Det=-1.20D-12
 Inversion failed.  Reducing to  3 matrices.
 Coeff-Com: -0.130D+01 0.134D+01 0.967D+00
 Coeff:     -0.130D+01 0.134D+01 0.967D+00
 Gap=     0.069 Goal=   None    Shift=    0.000
 Gap=     0.029 Goal=   None    Shift=    0.000
 RMSDP=4.09D-05 MaxDP=3.15D-03 DE= 8.42D-08 OVMax= 3.56D-03

 Cycle  18  Pass 1  IDiag  1:
 E= -1136.02342451985     Delta-E=        0.000000065036 Rises=F Damp=F
 DIIS: error= 1.74D-06 at cycle  18 NSaved=   4.
 NSaved= 4 IEnMin= 1 EnMin= -1136.02342474548     IErMin= 4 ErrMin= 1.74D-06
 ErrMax= 1.74D-06  0.00D+00 EMaxC= 1.00D-01 BMatC= 8.87D-10 BMatP= 6.73D-10
 IDIUse=1 WtCom= 1.00D+00 WtEn= 0.00D+00
 Coeff-Com: -0.235D+01 0.135D+01 0.131D+01 0.688D+00
 Coeff:     -0.235D+01 0.135D+01 0.131D+01 0.688D+00
 Gap=     0.069 Goal=   None    Shift=    0.000
 Gap=     0.029 Goal=   None    Shift=    0.000
 RMSDP=1.07D-04 MaxDP=7.71D-03 DE= 6.50D-08 OVMax= 9.63D-03

 Cycle  19  Pass 1  IDiag  1:
 E= -1136.02342440935     Delta-E=        0.000000110503 Rises=F Damp=F
 DIIS: error= 9.32D-07 at cycle  19 NSaved=   5.
 NSaved= 5 IEnMin= 1 EnMin= -1136.02342474548     IErMin= 5 ErrMin= 9.32D-07
 ErrMax= 9.32D-07  0.00D+00 EMaxC= 1.00D-01 BMatC= 3.49D-10 BMatP= 6.73D-10
 IDIUse=1 WtCom= 1.00D+00 WtEn= 0.00D+00
 Coeff-Com: -0.187D+01 0.104D+01 0.105D+01 0.575D+00 0.204D+00
 Coeff:     -0.187D+01 0.104D+01 0.105D+01 0.575D+00 0.204D+00
 Gap=     0.069 Goal=   None    Shift=    0.000
 Gap=     0.029 Goal=   None    Shift=    0.000
 RMSDP=2.80D-06 MaxDP=2.24D-04 DE= 1.11D-07 OVMax= 2.42D-04

 Cycle  20  Pass 1  IDiag  1:
 E= -1136.02342440798     Delta-E=        0.000000001371 Rises=F Damp=F
 DIIS: error= 7.58D-07 at cycle  20 NSaved=   6.
 NSaved= 6 IEnMin= 1 EnMin= -1136.02342474548     IErMin= 6 ErrMin= 7.58D-07
 ErrMax= 7.58D-07  0.00D+00 EMaxC= 1.00D-01 BMatC= 2.38D-10 BMatP= 3.49D-10
 IDIUse=1 WtCom= 1.00D+00 WtEn= 0.00D+00
 Coeff-Com:  0.319D+00-0.404D+00-0.185D+00-0.216D-01-0.342D+01 0.471D+01
 Coeff:      0.319D+00-0.404D+00-0.185D+00-0.216D-01-0.342D+01 0.471D+01
 Gap=     0.069 Goal=   None    Shift=    0.000
 Gap=     0.029 Goal=   None    Shift=    0.000
 RMSDP=4.52D-05 MaxDP=3.33D-03 DE= 1.37D-09 OVMax= 4.01D-03

 Cycle  21  Pass 1  IDiag  1:
 E= -1136.02342439135     Delta-E=        0.000000016633 Rises=F Damp=F
 DIIS: error= 2.35D-07 at cycle  21 NSaved=   7.
 NSaved= 7 IEnMin= 1 EnMin= -1136.02342474548     IErMin= 7 ErrMin= 2.35D-07
 ErrMax= 2.35D-07  0.00D+00 EMaxC= 1.00D-01 BMatC= 4.68D-11 BMatP= 2.38D-10
 IDIUse=1 WtCom= 1.00D+00 WtEn= 0.00D+00
 Coeff-Com:  0.455D+00-0.393D+00-0.243D+00-0.997D-01-0.186D+01 0.226D+01
 Coeff-Com:  0.883D+00
 Coeff:      0.455D+00-0.393D+00-0.243D+00-0.997D-01-0.186D+01 0.226D+01
 Coeff:      0.883D+00
 Gap=     0.069 Goal=   None    Shift=    0.000
 Gap=     0.029 Goal=   None    Shift=    0.000
 RMSDP=2.03D-05 MaxDP=1.50D-03 DE= 1.66D-08 OVMax= 1.80D-03

 Cycle  22  Pass 1  IDiag  1:
 E= -1136.02342438905     Delta-E=        0.000000002299 Rises=F Damp=F
 DIIS: error= 1.71D-07 at cycle  22 NSaved=   8.
 NSaved= 8 IEnMin= 1 EnMin= -1136.02342474548     IErMin= 8 ErrMin= 1.71D-07
 ErrMax= 1.71D-07  0.00D+00 EMaxC= 1.00D-01 BMatC= 4.78D-12 BMatP= 4.68D-11
 IDIUse=1 WtCom= 1.00D+00 WtEn= 0.00D+00
 Coeff-Com: -0.876D-02 0.486D-02 0.371D-02 0.123D-02-0.424D-01-0.620D-01
 Coeff-Com:  0.192D+00 0.912D+00
 Coeff:     -0.876D-02 0.486D-02 0.371D-02 0.123D-02-0.424D-01-0.620D-01
 Coeff:      0.192D+00 0.912D+00
 Gap=     0.069 Goal=   None    Shift=    0.000
 Gap=     0.029 Goal=   None    Shift=    0.000
 RMSDP=3.30D-06 MaxDP=2.45D-04 DE= 2.30D-09 OVMax= 2.96D-04

 Cycle  23  Pass 1  IDiag  1:
 E= -1136.02342438898     Delta-E=        0.000000000065 Rises=F Damp=F
 DIIS: error= 2.23D-07 at cycle  23 NSaved=   9.
 NSaved= 9 IEnMin= 1 EnMin= -1136.02342474548     IErMin= 8 ErrMin= 1.71D-07
 ErrMax= 2.23D-07  0.00D+00 EMaxC= 1.00D-01 BMatC= 7.83D-12 BMatP= 4.78D-12
 IDIUse=1 WtCom= 1.00D+00 WtEn= 0.00D+00
 Coeff-Com: -0.767D-01 0.777D-01 0.358D-01 0.135D-01 0.331D+00-0.492D+00
 Coeff-Com: -0.447D-01 0.710D+00 0.444D+00
 Coeff:     -0.767D-01 0.777D-01 0.358D-01 0.135D-01 0.331D+00-0.492D+00
 Coeff:     -0.447D-01 0.710D+00 0.444D+00
 Gap=     0.069 Goal=   None    Shift=    0.000
 Gap=     0.029 Goal=   None    Shift=    0.000
 RMSDP=9.55D-07 MaxDP=7.63D-05 DE= 6.53D-11 OVMax= 7.61D-05

 Cycle  24  Pass 1  IDiag  1:
 E= -1136.02342438899     Delta-E=       -0.000000000007 Rises=F Damp=F
 DIIS: error= 1.65D-08 at cycle  24 NSaved=  10.
 NSaved=10 IEnMin= 1 EnMin= -1136.02342474548     IErMin=10 ErrMin= 1.65D-08
 ErrMax= 1.65D-08  0.00D+00 EMaxC= 1.00D-01 BMatC= 5.92D-14 BMatP= 4.78D-12
 IDIUse=1 WtCom= 1.00D+00 WtEn= 0.00D+00
 Coeff-Com:  0.198D-01-0.173D-01-0.115D-01-0.499D-02-0.682D-01 0.109D+00
 Coeff-Com:  0.161D-01-0.224D+00-0.114D+00 0.130D+01
 Coeff:      0.198D-01-0.173D-01-0.115D-01-0.499D-02-0.682D-01 0.109D+00
 Coeff:      0.161D-01-0.224D+00-0.114D+00 0.130D+01
 Gap=     0.069 Goal=   None    Shift=    0.000
 Gap=     0.029 Goal=   None    Shift=    0.000
 RMSDP=1.16D-07 MaxDP=8.32D-06 DE=-6.82D-12 OVMax= 7.63D-06

 Cycle  25  Pass 1  IDiag  1:
 E= -1136.02342438900     Delta-E=       -0.000000000009 Rises=F Damp=F
 DIIS: error= 9.92D-09 at cycle  25 NSaved=  11.
 NSaved=11 IEnMin= 1 EnMin= -1136.02342474548     IErMin=11 ErrMin= 9.92D-09
 ErrMax= 9.92D-09  0.00D+00 EMaxC= 1.00D-01 BMatC= 1.82D-14 BMatP= 5.92D-14
 IDIUse=1 WtCom= 1.00D+00 WtEn= 0.00D+00
 Coeff-Com:  0.231D-01-0.195D-01-0.114D-01-0.478D-02-0.619D-01 0.960D-01
 Coeff-Com:  0.506D-02-0.143D+00-0.726D-01 0.236D+00 0.954D+00
 Coeff:      0.231D-01-0.195D-01-0.114D-01-0.478D-02-0.619D-01 0.960D-01
 Coeff:      0.506D-02-0.143D+00-0.726D-01 0.236D+00 0.954D+00
 Gap=     0.069 Goal=   None    Shift=    0.000
 Gap=     0.029 Goal=   None    Shift=    0.000
 RMSDP=4.72D-08 MaxDP=3.22D-06 DE=-9.09D-12 OVMax= 1.12D-06

 Cycle  26  Pass 1  IDiag  1:
 E= -1136.02342438900     Delta-E=        0.000000000001 Rises=F Damp=F
 DIIS: error= 6.69D-09 at cycle  26 NSaved=  12.
 NSaved=12 IEnMin= 1 EnMin= -1136.02342474548     IErMin=12 ErrMin= 6.69D-09
 ErrMax= 6.69D-09  0.00D+00 EMaxC= 1.00D-01 BMatC= 1.07D-14 BMatP= 1.82D-14
 IDIUse=1 WtCom= 1.00D+00 WtEn= 0.00D+00
 Coeff-Com:  0.485D-02-0.447D-02-0.146D-02-0.284D-03 0.598D-02-0.319D-02
 Coeff-Com: -0.624D-02 0.192D-01 0.987D-02-0.378D+00 0.452D+00 0.902D+00
 Coeff:      0.485D-02-0.447D-02-0.146D-02-0.284D-03 0.598D-02-0.319D-02
 Coeff:     -0.624D-02 0.192D-01 0.987D-02-0.378D+00 0.452D+00 0.902D+00
 Gap=     0.069 Goal=   None    Shift=    0.000
 Gap=     0.029 Goal=   None    Shift=    0.000
 RMSDP=2.66D-08 MaxDP=2.08D-06 DE= 9.09D-13 OVMax= 8.29D-07

 Cycle  27  Pass 1  IDiag  1:
 E= -1136.02342438900     Delta-E=        0.000000000001 Rises=F Damp=F
 DIIS: error= 3.54D-09 at cycle  27 NSaved=  13.
 NSaved=13 IEnMin= 1 EnMin= -1136.02342474548     IErMin=13 ErrMin= 3.54D-09
 ErrMax= 3.54D-09  0.00D+00 EMaxC= 1.00D-01 BMatC= 2.44D-15 BMatP= 1.07D-14
 IDIUse=1 WtCom= 1.00D+00 WtEn= 0.00D+00
 Coeff-Com: -0.325D-04-0.215D-03 0.424D-03 0.413D-03 0.137D-01-0.159D-01
 Coeff-Com: -0.414D-02 0.291D-01 0.139D-01-0.244D+00 0.132D+00 0.489D+00
 Coeff-Com:  0.585D+00
 Coeff:     -0.325D-04-0.215D-03 0.424D-03 0.413D-03 0.137D-01-0.159D-01
 Coeff:     -0.414D-02 0.291D-01 0.139D-01-0.244D+00 0.132D+00 0.489D+00
 Coeff:      0.585D+00
 Gap=     0.069 Goal=   None    Shift=    0.000
 Gap=     0.029 Goal=   None    Shift=    0.000
 RMSDP=1.16D-08 MaxDP=1.29D-06 DE= 1.36D-12 OVMax= 5.26D-07

 Cycle  28  Pass 1  IDiag  1:
 E= -1136.02342438899     Delta-E=        0.000000000005 Rises=F Damp=F
 DIIS: error= 1.16D-09 at cycle  28 NSaved=  14.
 NSaved=14 IEnMin= 1 EnMin= -1136.02342474548     IErMin=14 ErrMin= 1.16D-09
 ErrMax= 1.16D-09  0.00D+00 EMaxC= 1.00D-01 BMatC= 2.40D-16 BMatP= 2.44D-15
 IDIUse=1 WtCom= 1.00D+00 WtEn= 0.00D+00
 Coeff-Com: -0.935D-03 0.100D-02 0.213D-03 0.417D-04 0.362D-02-0.507D-02
 Coeff-Com:  0.662D-03 0.468D-02 0.209D-02 0.213D-01-0.781D-01-0.111D+00
 Coeff-Com:  0.220D+00 0.941D+00
 Coeff:     -0.935D-03 0.100D-02 0.213D-03 0.417D-04 0.362D-02-0.507D-02
 Coeff:      0.662D-03 0.468D-02 0.209D-02 0.213D-01-0.781D-01-0.111D+00
 Coeff:      0.220D+00 0.941D+00
 Gap=     0.069 Goal=   None    Shift=    0.000
 Gap=     0.029 Goal=   None    Shift=    0.000
 RMSDP=1.41D-08 MaxDP=1.33D-06 DE= 4.77D-12 OVMax= 7.86D-07

 Cycle  29  Pass 1  IDiag  1:
 E= -1136.02342438898     Delta-E=        0.000000000013 Rises=F Damp=F
 DIIS: error= 2.37D-10 at cycle  29 NSaved=  15.
 NSaved=15 IEnMin= 1 EnMin= -1136.02342474548     IErMin=15 ErrMin= 2.37D-10
 ErrMax= 2.37D-10  0.00D+00 EMaxC= 1.00D-01 BMatC= 2.21D-17 BMatP= 2.40D-16
 IDIUse=1 WtCom= 1.00D+00 WtEn= 0.00D+00
 Coeff-Com: -0.230D-03 0.194D-03 0.956D-04 0.164D-04-0.104D-02 0.878D-03
 Coeff-Com:  0.575D-03-0.180D-02-0.758D-03 0.220D-01-0.254D-01-0.437D-01
 Coeff-Com: -0.203D-02 0.112D+00 0.939D+00
 Coeff:     -0.230D-03 0.194D-03 0.956D-04 0.164D-04-0.104D-02 0.878D-03
 Coeff:      0.575D-03-0.180D-02-0.758D-03 0.220D-01-0.254D-01-0.437D-01
 Coeff:     -0.203D-02 0.112D+00 0.939D+00
 Gap=     0.069 Goal=   None    Shift=    0.000
 Gap=     0.029 Goal=   None    Shift=    0.000
 RMSDP=8.17D-09 MaxDP=8.98D-07 DE= 1.30D-11 OVMax= 9.64D-08

 SCF Done:  E(UB3LYP) =  -1136.02342439     A.U. after   29 cycles
            NFock= 29  Conv=0.82D-08     -V/T= 2.0020
 <Sx>= 0.0000 <Sy>= 0.0000 <Sz>= 0.5000 <S**2>= 0.7608 S= 0.5054
 <L.S>= 0.000000000000E+00
 KE= 1.133777829273D+03 PE=-3.610278721427D+03 EE= 8.998431291816D+02
 Annihilation of the first spin contaminant:
 S**2 before annihilation     0.7608,   after     0.7501
 Leave Link  502 at Mon Nov 13 20:49:13 2023, MaxMem=  1879048192 cpu:             275.1 elap:              23.7
 (Enter /home/sekinelabo/g16/l601.exe)
 Copying SCF densities to generalized density rwf, IOpCl= 1 IROHF=0.

 **********************************************************************

            Population analysis using the SCF Density.

 **********************************************************************

 Orbital symmetries:
 Alpha Orbitals:
       Occupied  (A) (A) (A) (A) (A) (A) (A) (A) (A) (A) (A) (A)
                 (A) (A) (A) (A) (A) (A) (A) (A) (A) (A) (A) (A)
                 (A) (A) (A) (A) (A) (A) (A) (A) (A) (A) (A) (A)
                 (A) (A) (A)
       Virtual   (A) (A) (A) (A) (A) (A) (A) (A) (A) (A) (A) (A)
                 (A) (A) (A) (A) (A) (A) (A) (A) (A) (A) (A) (A)
                 (A) (A) (A) (A) (A) (A) (A) (A) (A) (A) (A) (A)
                 (A) (A) (A) (A) (A) (A) (A) (A) (A) (A) (A) (A)
                 (A) (A) (A) (A) (A) (A) (A) (A) (A) (A) (A) (A)
                 (A) (A) (A) (A) (A) (A) (A) (A) (A) (A) (A) (A)
                 (A) (A) (A) (A) (A) (A) (A) (A) (A) (A) (A) (A)
                 (A) (A) (A) (A) (A) (A) (A) (A) (A) (A) (A) (A)
                 (A) (A) (A) (A) (A) (A) (A) (A) (A) (A) (A) (A)
                 (A) (A) (A) (A) (A) (A) (A) (A) (A) (A) (A) (A)
                 (A) (A) (A) (A) (A) (A) (A) (A) (A) (A) (A) (A)
                 (A) (A) (A) (A) (A) (A) (A) (A) (A) (A) (A) (A)
                 (A) (A) (A) (A) (A) (A) (A) (A) (A) (A) (A) (A)
                 (A) (A) (A) (A) (A) (A) (A) (A) (A) (A) (A) (A)
                 (A) (A)
 Beta  Orbitals:
       Occupied  (A) (A) (A) (A) (A) (A) (A) (A) (A) (A) (A) (A)
                 (A) (A) (A) (A) (A) (A) (A) (A) (A) (A) (A) (A)
                 (A) (A) (A) (A) (A) (A) (A) (A) (A) (A) (A) (A)
                 (A) (A)
       Virtual   (A) (A) (A) (A) (A) (A) (A) (A) (A) (A) (A) (A)
                 (A) (A) (A) (A) (A) (A) (A) (A) (A) (A) (A) (A)
                 (A) (A) (A) (A) (A) (A) (A) (A) (A) (A) (A) (A)
                 (A) (A) (A) (A) (A) (A) (A) (A) (A) (A) (A) (A)
                 (A) (A) (A) (A) (A) (A) (A) (A) (A) (A) (A) (A)
                 (A) (A) (A) (A) (A) (A) (A) (A) (A) (A) (A) (A)
                 (A) (A) (A) (A) (A) (A) (A) (A) (A) (A) (A) (A)
                 (A) (A) (A) (A) (A) (A) (A) (A) (A) (A) (A) (A)
                 (A) (A) (A) (A) (A) (A) (A) (A) (A) (A) (A) (A)
                 (A) (A) (A) (A) (A) (A) (A) (A) (A) (A) (A) (A)
                 (A) (A) (A) (A) (A) (A) (A) (A) (A) (A) (A) (A)
                 (A) (A) (A) (A) (A) (A) (A) (A) (A) (A) (A) (A)
                 (A) (A) (A) (A) (A) (A) (A) (A) (A) (A) (A) (A)
                 (A) (A) (A) (A) (A) (A) (A) (A) (A) (A) (A) (A)
                 (A) (A) (A)
 The electronic state is 2-A.
 Alpha  occ. eigenvalues --  -38.45603 -38.45594 -38.45062 -38.45055 -38.44736
 Alpha  occ. eigenvalues --  -38.43080 -38.42907  -2.22113  -2.22084  -2.21356
 Alpha  occ. eigenvalues --   -2.21263  -2.20832  -2.19323  -2.19163  -1.16241
 Alpha  occ. eigenvalues --   -1.16169  -1.16009  -1.15734  -1.15688  -1.15659
 Alpha  occ. eigenvalues --   -1.15386  -1.14973  -1.14895  -1.14854  -1.14738
 Alpha  occ. eigenvalues --   -1.14623  -1.14454  -1.14437  -1.14295  -1.13065
 Alpha  occ. eigenvalues --   -1.12993  -1.12919  -1.12834  -1.12816  -1.12663
 Alpha  occ. eigenvalues --   -0.22518  -0.14104  -0.13596  -0.12321
 Alpha virt. eigenvalues --   -0.05435  -0.04297  -0.04241  -0.03499  -0.03215
 Alpha virt. eigenvalues --   -0.02636  -0.01102  -0.00357  -0.00154   0.00287
 Alpha virt. eigenvalues --    0.00822   0.00925   0.01077   0.01161   0.01345
 Alpha virt. eigenvalues --    0.01370   0.01432   0.01460   0.01491   0.01679
 Alpha virt. eigenvalues --    0.01683   0.01770   0.01882   0.01936   0.01982
 Alpha virt. eigenvalues --    0.02692   0.02709   0.02973   0.03025   0.03071
 Alpha virt. eigenvalues --    0.03072   0.03174   0.03329   0.03333   0.03462
 Alpha virt. eigenvalues --    0.03736   0.03786   0.03930   0.04005   0.04099
 Alpha virt. eigenvalues --    0.04750   0.05116   0.05141   0.05383   0.05520
 Alpha virt. eigenvalues --    0.05623   0.05668   0.06023   0.06165   0.06443
 Alpha virt. eigenvalues --    0.06837   0.07004   0.07049   0.07627   0.08096
 Alpha virt. eigenvalues --    0.08975   0.09309   0.09370   0.09868   0.10148
 Alpha virt. eigenvalues --    0.10264   0.11277   0.11998   0.13002   0.13317
 Alpha virt. eigenvalues --    0.13691   0.13987   0.14128   0.14354   0.14496
 Alpha virt. eigenvalues --    0.14698   0.15383   0.16218   0.16250   0.17454
 Alpha virt. eigenvalues --    0.17757   0.18815   0.19498   0.19915   0.22679
 Alpha virt. eigenvalues --    0.25092   0.25903   0.26147   0.26785   0.31017
 Alpha virt. eigenvalues --    0.32512   0.33496   0.34253   0.34973   0.35666
 Alpha virt. eigenvalues --    0.36689   0.38176   0.38860   0.39994   0.40765
 Alpha virt. eigenvalues --    0.41011   0.43579   0.44209   0.44299   0.44869
 Alpha virt. eigenvalues --    0.45620   0.45875   0.46743   0.46838   0.48043
 Alpha virt. eigenvalues --    0.48068   0.49250   0.49472   0.50123   0.50943
 Alpha virt. eigenvalues --    0.51226   0.51983   0.52199   0.52830   0.54137
 Alpha virt. eigenvalues --    0.55217   0.57493   0.57532   0.58214   0.59228
 Alpha virt. eigenvalues --    0.59813   0.60076   0.69494   0.70935   0.71341
 Alpha virt. eigenvalues --    0.76185   0.79852   0.82460   0.84836   0.86473
 Alpha virt. eigenvalues --    0.88478   0.90156   0.91429   0.92662   0.93272
 Alpha virt. eigenvalues --    2.14275   2.20667   2.25825   2.29800   2.31525
 Alpha virt. eigenvalues --    2.35985   2.36810   4.41372   4.41966   4.43759
 Alpha virt. eigenvalues --    4.44807   4.46323   4.46773   4.49159   4.50120
 Alpha virt. eigenvalues --    4.54254   4.56946   4.61996   4.71014   4.72314
 Alpha virt. eigenvalues --    4.76478   4.81024   4.85572   4.87848   4.88612
 Alpha virt. eigenvalues --    4.94040   4.96908   4.97231  96.38735  96.49783
 Alpha virt. eigenvalues --   96.52719  96.58981  96.61908  96.69144  96.69666
  Beta  occ. eigenvalues --  -38.45515 -38.45506 -38.45007 -38.45000 -38.44730
  Beta  occ. eigenvalues --  -38.43064 -38.42890  -2.21960  -2.21929  -2.21261
  Beta  occ. eigenvalues --   -2.21168  -2.20823  -2.19303  -2.19141  -1.16111
  Beta  occ. eigenvalues --   -1.16036  -1.15921  -1.15624  -1.15578  -1.15554
  Beta  occ. eigenvalues --   -1.15323  -1.14890  -1.14809  -1.14792  -1.14674
  Beta  occ. eigenvalues --   -1.14555  -1.14416  -1.14404  -1.14296  -1.13060
  Beta  occ. eigenvalues --   -1.12914  -1.12908  -1.12812  -1.12747  -1.12659
  Beta  occ. eigenvalues --   -0.21720  -0.13922  -0.11923
  Beta virt. eigenvalues --   -0.09036  -0.05396  -0.03502  -0.03475  -0.03340
  Beta virt. eigenvalues --   -0.02257  -0.02156  -0.01096  -0.00137  -0.00107
  Beta virt. eigenvalues --    0.00313   0.00877   0.01097   0.01131   0.01229
  Beta virt. eigenvalues --    0.01336   0.01453   0.01474   0.01556   0.01587
  Beta virt. eigenvalues --    0.01721   0.01782   0.01882   0.01910   0.02002
  Beta virt. eigenvalues --    0.02010   0.02736   0.02868   0.03026   0.03041
  Beta virt. eigenvalues --    0.03096   0.03100   0.03221   0.03319   0.03358
  Beta virt. eigenvalues --    0.03580   0.03886   0.03950   0.04040   0.04198
  Beta virt. eigenvalues --    0.04272   0.04811   0.05189   0.05268   0.05522
  Beta virt. eigenvalues --    0.05566   0.05684   0.05873   0.06075   0.06450
  Beta virt. eigenvalues --    0.06566   0.06947   0.06997   0.07065   0.07822
  Beta virt. eigenvalues --    0.08189   0.09146   0.09317   0.09520   0.10376
  Beta virt. eigenvalues --    0.10524   0.10534   0.11404   0.12394   0.13009
  Beta virt. eigenvalues --    0.13466   0.13989   0.14149   0.14362   0.14580
  Beta virt. eigenvalues --    0.14704   0.14774   0.15637   0.16586   0.16649
  Beta virt. eigenvalues --    0.17431   0.17776   0.19239   0.19745   0.20289
  Beta virt. eigenvalues --    0.23005   0.25940   0.26017   0.26944   0.27055
  Beta virt. eigenvalues --    0.31521   0.32957   0.33838   0.34280   0.35771
  Beta virt. eigenvalues --    0.35905   0.37058   0.38482   0.39119   0.40285
  Beta virt. eigenvalues --    0.41154   0.41350   0.43743   0.44371   0.44626
  Beta virt. eigenvalues --    0.45012   0.45838   0.45900   0.46933   0.46943
  Beta virt. eigenvalues --    0.48192   0.48583   0.49377   0.49747   0.50190
  Beta virt. eigenvalues --    0.51256   0.51336   0.52131   0.52313   0.52966
  Beta virt. eigenvalues --    0.54409   0.55594   0.57668   0.58000   0.58643
  Beta virt. eigenvalues --    0.59653   0.60104   0.60606   0.69943   0.70952
  Beta virt. eigenvalues --    0.71527   0.76279   0.80103   0.82852   0.85058
  Beta virt. eigenvalues --    0.86478   0.88761   0.90370   0.91685   0.93026
  Beta virt. eigenvalues --    0.93500   2.14311   2.20886   2.25879   2.29809
  Beta virt. eigenvalues --    2.31636   2.36360   2.37100   4.41419   4.42084
  Beta virt. eigenvalues --    4.43793   4.44846   4.46448   4.46907   4.49231
  Beta virt. eigenvalues --    4.50158   4.54348   4.57059   4.62033   4.71053
  Beta virt. eigenvalues --    4.72446   4.76513   4.81129   4.85697   4.87953
  Beta virt. eigenvalues --    4.88687   4.94115   4.96996   4.97280  96.38753
  Beta virt. eigenvalues --   96.49861  96.52749  96.58994  96.61974  96.69259
  Beta virt. eigenvalues --   96.69759
          Condensed to atoms (all electrons):
               1          2          3          4          5          6
     1  Na  13.708166   1.085705   1.804264   0.011079  -1.990490   0.136756
     2  Na   1.085705  13.730774   1.827432   0.001144  -3.009636   0.137897
     3  Na   1.804264   1.827432  17.273576  -1.146923  -4.039469  -0.911569
     4  Na   0.011079   0.001144  -1.146923  11.992956  -0.016875  -0.249866
     5  Na  -1.990490  -3.009636  -4.039469  -0.016875  17.449834  -0.271441
     6  Na   0.136756   0.137897  -0.911569  -0.249866  -0.271441  12.087587
     7  Na  -2.973068  -1.984440  -3.998372  -0.026557   2.572403  -0.268159
               7
     1  Na  -2.973068
     2  Na  -1.984440
     3  Na  -3.998372
     4  Na  -0.026557
     5  Na   2.572403
     6  Na  -0.268159
     7  Na  17.377476
          Atomic-Atomic Spin Densities.
               1          2          3          4          5          6
     1  Na   0.511691  -0.110197   0.094146   0.089197  -0.495881   0.090661
     2  Na  -0.110197   0.503422   0.084519   0.090675   0.180635   0.091910
     3  Na   0.094146   0.084519  -0.074789   0.089030  -0.214473   0.229875
     4  Na   0.089197   0.090675   0.089030   0.014136  -0.009799  -0.097016
     5  Na  -0.495881   0.180635  -0.214473  -0.009799   0.952233  -0.020325
     6  Na   0.090661   0.091910   0.229875  -0.097016  -0.020325  -0.102464
     7  Na   0.180024  -0.483406  -0.194255  -0.024808  -0.426542  -0.013875
               7
     1  Na   0.180024
     2  Na  -0.483406
     3  Na  -0.194255
     4  Na  -0.024808
     5  Na  -0.426542
     6  Na  -0.013875
     7  Na   0.935580
 Mulliken charges and spin densities:
               1          2
     1  Na  -0.782411   0.359641
     2  Na  -0.788876   0.357559
     3  Na   0.191061   0.014053
     4  Na   0.435043   0.151415
     5  Na   0.305672  -0.034152
     6  Na   0.338795   0.178766
     7  Na   0.300716  -0.027282
 Sum of Mulliken charges =  -0.00000   1.00000
 Mulliken charges and spin densities with hydrogens summed into heavy atoms:
               1          2
     1  Na  -0.782411   0.359641
     2  Na  -0.788876   0.357559
     3  Na   0.191061   0.014053
     4  Na   0.435043   0.151415
     5  Na   0.305672  -0.034152
     6  Na   0.338795   0.178766
     7  Na   0.300716  -0.027282
 Electronic spatial extent (au):  <R**2>=           1393.2864
 Charge=             -0.0000 electrons
 Dipole moment (field-independent basis, Debye):
    X=             -0.0099    Y=             -0.0022    Z=             -0.0338  Tot=              0.0353
 Quadrupole moment (field-independent basis, Debye-Ang):
   XX=            -59.2818   YY=            -63.4281   ZZ=            -75.8460
   XY=             -0.0029   XZ=             -0.0455   YZ=              0.1367
 Traceless Quadrupole moment (field-independent basis, Debye-Ang):
   XX=              6.9035   YY=              2.7572   ZZ=             -9.6607
   XY=             -0.0029   XZ=             -0.0455   YZ=              0.1367
 Octapole moment (field-independent basis, Debye-Ang**2):
  XXX=            -12.7654  YYY=             -0.0073  ZZZ=              0.2326  XYY=              6.7077
  XXY=             -0.0655  XXZ=             -1.0591  XZZ=              0.5291  YZZ=              0.0096
  YYZ=             -0.0840  XYZ=             -0.0130
 Hexadecapole moment (field-independent basis, Debye-Ang**3):
 XXXX=           -947.8227 YYYY=           -676.0120 ZZZZ=           -766.3388 XXXY=             -0.0998
 XXXZ=             -8.4061 YYYX=             -0.2261 YYYZ=              0.2016 ZZZX=             11.3811
 ZZZY=              2.2044 XXYY=           -270.0153 XXZZ=           -355.2076 YYZZ=           -275.0138
 XXYZ=             -0.1577 YYXZ=             -5.3168 ZZXY=              0.2169
 N-N= 4.406343385835D+02 E-N=-3.610278721448D+03  KE= 1.133777829273D+03
                          Isotropic Fermi Contact Couplings
        Atom                 a.u.       MegaHertz       Gauss      10(-4) cm-1
     1  Na(23)             0.32778     387.77678     138.36840     129.34841
     2  Na(23)             0.32955     389.86613     139.11393     130.04534
     3  Na(23)            -0.00468      -5.53950      -1.97663      -1.84778
     4  Na(23)            -0.02193     -25.94248      -9.25692      -8.65348
     5  Na(23)             0.17793     210.49249      75.10895      70.21274
     6  Na(23)            -0.01915     -22.65123      -8.08252      -7.55564
     7  Na(23)             0.17921     212.01052      75.65063      70.71910
 --------------------------------------------------------
       Center         ----  Spin Dipole Couplings  ----
                      3XX-RR        3YY-RR        3ZZ-RR
 --------------------------------------------------------
     1   Atom        0.019209     -0.013822     -0.005386
     2   Atom        0.019678     -0.013961     -0.005717
     3   Atom       -0.013632      0.032162     -0.018530
     4   Atom       -0.039486      0.077701     -0.038215
     5   Atom        0.021012     -0.004650     -0.016362
     6   Atom       -0.040179      0.078326     -0.038147
     7   Atom        0.021455     -0.004882     -0.016574
 --------------------------------------------------------
                        XY            XZ            YZ
 --------------------------------------------------------
     1   Atom       -0.027684     -0.004558      0.003693
     2   Atom        0.027659     -0.002687     -0.002241
     3   Atom       -0.000108     -0.000286      0.000497
     4   Atom       -0.000086      0.000663     -0.002084
     5   Atom       -0.040190     -0.004356      0.005003
     6   Atom       -0.000340     -0.000261     -0.001882
     7   Atom        0.040074     -0.002313     -0.003435
 --------------------------------------------------------


 ---------------------------------------------------------------------------------
              Anisotropic Spin Dipole Couplings in Principal Axis System
 ---------------------------------------------------------------------------------

       Atom             a.u.   MegaHertz   Gauss  10(-4) cm-1        Axes

              Baa    -0.0296    -4.177    -1.491    -1.393  0.4902  0.8707 -0.0405
     1 Na(23) Bbb    -0.0062    -0.870    -0.310    -0.290  0.1412 -0.0335  0.9894
              Bcc     0.0357     5.047     1.801     1.684  0.8601 -0.4908 -0.1394
 
              Baa    -0.0295    -4.170    -1.488    -1.391 -0.4887  0.8720  0.0269
     2 Na(23) Bbb    -0.0060    -0.845    -0.302    -0.282  0.0857  0.0172  0.9962
              Bcc     0.0355     5.015     1.790     1.673  0.8682  0.4891 -0.0832
 
              Baa    -0.0186    -2.620    -0.935    -0.874  0.0579 -0.0097  0.9983
     3 Na(23) Bbb    -0.0136    -1.923    -0.686    -0.641  0.9983  0.0030 -0.0579
              Bcc     0.0322     4.542     1.621     1.515 -0.0024  0.9999  0.0098
 
              Baa    -0.0398    -5.617    -2.004    -1.873  0.9170 -0.0064 -0.3988
     4 Na(23) Bbb    -0.0380    -5.361    -1.913    -1.788  0.3988  0.0168  0.9169
              Bcc     0.0777    10.978     3.917     3.662 -0.0008  0.9998 -0.0180
 
              Baa    -0.0341    -4.820    -1.720    -1.608  0.5825  0.8084 -0.0848
     5 Na(23) Bbb    -0.0169    -2.381    -0.849    -0.794  0.1272  0.0124  0.9918
              Bcc     0.0510     7.201     2.569     2.402  0.8028 -0.5885 -0.0956
 
              Baa    -0.0402    -5.679    -2.026    -1.894  0.9916  0.0049  0.1296
     6 Na(23) Bbb    -0.0381    -5.386    -1.922    -1.797 -0.1297  0.0156  0.9914
              Bcc     0.0784    11.065     3.948     3.691 -0.0028  0.9999 -0.0161
 
              Baa    -0.0340    -4.803    -1.714    -1.602 -0.5814  0.8095  0.0824
     7 Na(23) Bbb    -0.0167    -2.356    -0.841    -0.786  0.0950 -0.0330  0.9949
              Bcc     0.0507     7.159     2.554     2.388  0.8081  0.5862 -0.0577
 

 ---------------------------------------------------------------------------------

 No NMR shielding tensors so no spin-rotation constants.
 Leave Link  601 at Mon Nov 13 20:49:13 2023, MaxMem=  1879048192 cpu:               2.6 elap:               0.2
 (Enter /home/sekinelabo/g16/l701.exe)
 ... and contract with generalized density number  0.
 Compute integral first derivatives.
 Leave Link  701 at Mon Nov 13 20:49:13 2023, MaxMem=  1879048192 cpu:               1.7 elap:               0.1
 (Enter /home/sekinelabo/g16/l702.exe)
 L702 exits ... SP integral derivatives will be done elsewhere.
 Leave Link  702 at Mon Nov 13 20:49:14 2023, MaxMem=  1879048192 cpu:               0.4 elap:               0.0
 (Enter /home/sekinelabo/g16/l703.exe)
 Integral derivatives from FoFJK, PRISM(SPDF).
 Compute integral first derivatives, UseDBF=F ICtDFT=           0.
 Calling FoFJK, ICntrl=      2127 FMM=F ISym2X=0 I1Cent= 0 IOpClX= 1 NMat=1 NMatS=1 NMatT=0.
 FoFJK:  IHMeth= 1 ICntrl=    2127 DoSepK=F KAlg= 0 I1Cent=           0 FoldK=F
 IRaf=         0 NMat=       1 IRICut=       1 DoRegI=T DoRafI=F ISym2E= 0 IDoP0=0 IntGTp=1.
 FoFCou: FMM=F IPFlag=           0 FMFlag=      100000 FMFlg1=         800
         NFxFlg=           0 DoJE=F BraDBF=F KetDBF=F FulRan=T
         wScrn=  0.000000 ICntrl=      2127 IOpCl=  1 I1Cent=           0 NGrid=           0
         NMat0=    1 NMatS0=      1 NMatT0=    0 NMatD0=    1 NMtDS0=    0 NMtDT0=    0
 Symmetry not used in FoFCou.
 Leave Link  703 at Mon Nov 13 20:49:16 2023, MaxMem=  1879048192 cpu:              38.5 elap:               2.5
 (Enter /home/sekinelabo/g16/l716.exe)
 Dipole        =-3.90295924D-03-8.64872381D-04-1.32985436D-02
 ***** Axes restored to original set *****
 -------------------------------------------------------------------
 Center     Atomic                   Forces (Hartrees/Bohr)
 Number     Number              X              Y              Z
 -------------------------------------------------------------------
      1       11           0.014123964   -0.033487342   -0.003281887
      2       11           0.014231025    0.033522845   -0.002373914
      3       11           0.031199539   -0.000014552    0.000178829
      4       11          -0.003822390    0.000229751   -0.039056545
      5       11          -0.028693416    0.020328505    0.003319104
      6       11           0.001632087   -0.000255656    0.038486165
      7       11          -0.028670809   -0.020323550    0.002728247
 -------------------------------------------------------------------
 Cartesian Forces:  Max     0.039056545 RMS     0.020875041
 Z-matrix is all fixed cartesians, so copy forces.
 Force constants in Cartesian coordinates: 
                1             2             3             4             5 
      1  0.358544D+00
      2 -0.287784D-01  0.419102D+00
      3  0.100374D-02 -0.146730D-02  0.404183D+00
      4 -0.154562D-01  0.212580D-01 -0.170851D-02  0.358373D+00
      5 -0.213335D-01 -0.654160D-01  0.532080D-02  0.288884D-01  0.418799D+00
      6 -0.213258D-02 -0.627757D-02 -0.189325D-01  0.154154D-02  0.160592D-02
      7 -0.757860D-01  0.244871D-01  0.339421D-03 -0.755946D-01 -0.245394D-01
      8 -0.609086D-01 -0.966393D-01  0.499245D-02  0.609774D-01 -0.964267D-01
      9 -0.666058D-02  0.382716D-02 -0.120810D+00 -0.537939D-02 -0.321965D-02
     10 -0.810591D-01  0.188921D-02 -0.249255D-01 -0.810351D-01 -0.138630D-02
     11  0.986905D-02 -0.874955D-01  0.756382D-01 -0.101718D-01 -0.864179D-01
     12  0.135737D-01 -0.238160D-01 -0.772731D-01  0.133884D-01  0.236049D-01
     13 -0.370842D-02  0.118910D-01  0.186597D-02 -0.110557D+00  0.328583D-01
     14  0.379507D-01 -0.174196D-01 -0.595132D-02 -0.622009D-01 -0.741342D-01
     15  0.345419D-02 -0.332890D-02  0.212753D-01 -0.394316D-03 -0.106468D-01
     16 -0.720283D-01  0.199054D-02  0.252986D-01 -0.720286D-01 -0.250371D-02
     17  0.969285D-03 -0.777738D-01 -0.769655D-01 -0.784434D-03 -0.789382D-01
     18 -0.100741D-01  0.191134D-01 -0.764369D-01 -0.101312D-01 -0.191818D-01
     19 -0.110506D+00 -0.327375D-01 -0.187375D-02 -0.370174D-02 -0.119839D-01
     20  0.622314D-01 -0.743580D-01 -0.156733D-02 -0.379667D-01 -0.174664D-01
     21  0.835681D-03  0.119491D-01 -0.132006D+00  0.268344D-02  0.251670D-02
                6             7             8             9            10 
      6  0.403787D+00
      7 -0.117711D-03  0.224696D+00
      8 -0.440898D-02 -0.439245D-04  0.160554D+00
      9 -0.120668D+00  0.148512D-02 -0.492545D-03  0.202722D+00
     10 -0.251069D-01 -0.201730D-01  0.513462D-03 -0.485593D-01  0.241748D+00
     11 -0.757666D-01 -0.167852D-03 -0.711997D-03  0.315258D-03 -0.944313D-04
     12 -0.784117D-01  0.169173D-01  0.270230D-03 -0.265297D-01  0.934678D-02
     13 -0.119325D-02 -0.121481D-01  0.133285D-01  0.552940D-02 -0.447370D-01
     14  0.280336D-02  0.565957D-02  0.232303D-01  0.329149D-02  0.596368D-02
     15 -0.131993D+00  0.239754D-02  0.482943D-02  0.536130D-01  0.465302D-01
     16  0.253667D-01 -0.288289D-01 -0.468563D-03  0.482853D-01  0.298421D-01
     17  0.768433D-01  0.247348D-03 -0.134263D-01  0.246097D-03  0.391528D-04
     18 -0.753149D-01 -0.233302D-01  0.304714D-03 -0.419143D-01 -0.362091D-02
     19  0.164223D-02 -0.121650D-01 -0.133982D-01  0.529939D-02 -0.445862D-01
     20  0.520060D-02 -0.564288D-02  0.234198D-01 -0.396781D-02 -0.692478D-02
     21  0.215321D-01  0.230845D-02 -0.549530D-02  0.535872D-01  0.463356D-01
               11            12            13            14            15 
     11  0.239778D+00
     12 -0.107575D-02  0.344001D+00
     13  0.401665D-02 -0.232521D-01  0.262852D+00
     14 -0.434875D-01  0.149884D-01 -0.319885D-01  0.259760D+00
     15 -0.380776D-01 -0.601840D-01 -0.115050D-02  0.649368D-02  0.249383D+00
     16  0.665736D-04 -0.657365D-02 -0.496787D-01  0.421130D-02 -0.477008D-01
     17  0.220558D-01  0.656804D-03  0.102469D-01 -0.465720D-01  0.366127D-01
     18  0.637516D-03 -0.419882D-01  0.221176D-01 -0.170280D-01 -0.556737D-01
     19 -0.351821D-02 -0.234005D-01 -0.420229D-01  0.404041D-01 -0.313626D-02
     20 -0.437204D-01 -0.146286D-01 -0.403528D-01 -0.101377D+00  0.411751D-02
     21  0.383289D-01 -0.596145D-01 -0.391719D-02 -0.459758D-02 -0.764212D-01
               16            17            18            19            20 
     16  0.242328D+00
     17 -0.210352D-04  0.240718D+00
     18  0.309492D-02 -0.105299D-02  0.347389D+00
     19 -0.496058D-01 -0.106972D-01  0.219438D-01  0.262588D+00
     20 -0.327511D-02 -0.460630D-01  0.172071D-01  0.319308D-01  0.259566D+00
     21 -0.477710D-01 -0.363403D-01 -0.560612D-01 -0.474953D-03 -0.636153D-02
               21 
     21  0.248984D+00
 Leave Link  716 at Mon Nov 13 20:49:16 2023, MaxMem=  1879048192 cpu:               0.5 elap:               0.0
 (Enter /home/sekinelabo/g16/l103.exe)

 GradGradGradGradGradGradGradGradGradGradGradGradGradGradGradGradGradGrad
 Berny optimization.
 Search for a local minimum.
 Step number   1 out of a maximum of    2
 All quantities printed in internal units (Hartrees-Bohrs-Radians)
 Second derivative matrix not updated -- first step.
 ITU=  0
     Eigenvalues ---    0.20655   0.24708   0.28330   0.31140   0.34470
     Eigenvalues ---    0.35027   0.35616   0.40417   0.42493   0.46760
     Eigenvalues ---    0.47687   0.52450   0.53030   0.55907   0.56367
 Quadratic step=4.121D-01 exceeds max=3.000D-01 adjusted using Lamda=-8.257D-02.
 Angle between NR and scaled steps=   2.49 degrees.
 Angle between quadratic step and forces=  10.48 degrees.
 Linear search not attempted -- first point.
 B after Tr=     0.000000    0.000000    0.000000
         Rot=    1.000000    0.000000    0.000000   -0.000000 Ang=   0.00 deg.
 Variable       Old X    -DE/DX   Delta X   Delta X   Delta X     New X
                                 (Linear)    (Quad)   (Total)
    X1        4.79318   0.01412   0.00000   0.03702   0.03702   4.83020
    Y1        0.00000  -0.03349   0.00000  -0.08350  -0.08350  -0.08350
    Z1        3.54611  -0.00328   0.00000  -0.00787  -0.00787   3.53824
    X2        4.79851   0.01423   0.00000   0.03724   0.03724   4.83575
    Y2        5.82964   0.03352   0.00000   0.08361   0.08361   5.91325
    Z2        3.60482  -0.00237   0.00000  -0.00578  -0.00578   3.59903
    X3        8.72255   0.03120   0.00000   0.13671   0.13671   8.85926
    Y3        2.90820  -0.00001   0.00000  -0.00008  -0.00008   2.90811
    Z3        3.76147   0.00018   0.00000  -0.00064  -0.00064   3.76084
    X4        2.93814  -0.00382   0.00000  -0.01372  -0.01372   2.92443
    Y4        2.95293   0.00023   0.00000   0.00083   0.00083   2.95376
    Z4        0.00000  -0.03906   0.00000  -0.11316  -0.11316  -0.11316
    X5        0.00558  -0.02869   0.00000  -0.10060  -0.10060  -0.09502
    Y5        5.40138   0.02033   0.00000   0.06680   0.06680   5.46818
    Z5        4.07556   0.00332   0.00000   0.00947   0.00947   4.08503
    X6        3.60877   0.00163   0.00000   0.00405   0.00405   3.61282
    Y6        2.87608  -0.00026   0.00000  -0.00082  -0.00082   2.87527
    Z6        7.51007   0.03849   0.00000   0.11031   0.11031   7.62038
    X7        0.00000  -0.02867   0.00000  -0.10070  -0.10070  -0.10070
    Y7        0.41970  -0.02032   0.00000  -0.06685  -0.06685   0.35285
    Z7        4.02759   0.00273   0.00000   0.00768   0.00768   4.03528
         Item               Value     Threshold  Converged?
 Maximum Force            0.039057     0.000450     NO 
 RMS     Force            0.020875     0.000300     NO 
 Maximum Displacement     0.136708     0.001800     NO 
 RMS     Displacement     0.065475     0.001200     NO 
 Predicted change in Energy=-1.782873D-02
 GradGradGradGradGradGradGradGradGradGradGradGradGradGradGradGradGradGrad

 Leave Link  103 at Mon Nov 13 20:49:16 2023, MaxMem=  1879048192 cpu:               0.3 elap:               0.0
 (Enter /home/sekinelabo/g16/l9999.exe)
 1\1\GINC-SEKINELABO-XA7R-R37\Force\UB3LYP\6-311+G(d)\Na7(2)\SEKINELABO
 \13-Nov-2023\0\\#P B3LYP/6-311+g(d) force\\Gaussian input prepared by 
 ASE\\0,2\Na,2.5364402942,0.,1.8765230897\Na,2.5392605608,3.084909998,1
 .9075873625\Na,4.6157766794,1.5389506437,1.9904856805\Na,1.5547980536,
 1.5626219162,0.\Na,0.0029541047,2.8582856894,2.1566956744\Na,1.9096777
 96,1.5219574497,3.9741586476\Na,0.,0.2220935395,2.1313111998\\Version=
 ES64L-G16RevB.01\State=2-A\HF=-1136.0234244\S2=0.760808\S2-1=0.\S2A=0.
 750055\RMSD=8.171e-09\RMSF=2.088e-02\Dipole=0.003903,-0.0008649,0.0132
 985\Quadrupole=5.1325696,2.0499305,-7.1825001,0.0021642,-0.0338084,-0.
 1016272\PG=C01 [X(Na7)]\\@


 ALMOST ANYTHING IS EASIER TO GET INTO THAN OUT OF.

                         -- AGNES ALLEN'S LAW FROM
                PAUL DICKSON'S "THE OFFICIAL RULES"
 Job cpu time:       0 days  0 hours  5 minutes 31.8 seconds.
 Elapsed time:       0 days  0 hours  0 minutes 27.3 seconds.
 File lengths (MBytes):  RWF=     32 Int=      0 D2E=      0 Chk=      6 Scr=      1
 Normal termination of Gaussian 16 at Mon Nov 13 20:49:16 2023.
