 Entering Gaussian System, Link 0=g16
 Initial command:
 /home/sekinelabo/g16/l1.exe "/home/sekinelabo/g16temp/Gau-4095850.inp" -scrdir="/home/sekinelabo/g16temp/"
 Entering Link 1 = /home/sekinelabo/g16/l1.exe PID=   4095852.
  
 Copyright (c) 1988-2017, Gaussian, Inc.  All Rights Reserved.
  
 This is part of the Gaussian(R) 16 program.  It is based on
 the Gaussian(R) 09 system (copyright 2009, Gaussian, Inc.),
 the Gaussian(R) 03 system (copyright 2003, Gaussian, Inc.),
 the Gaussian(R) 98 system (copyright 1998, Gaussian, Inc.),
 the Gaussian(R) 94 system (copyright 1995, Gaussian, Inc.),
 the Gaussian 92(TM) system (copyright 1992, Gaussian, Inc.),
 the Gaussian 90(TM) system (copyright 1990, Gaussian, Inc.),
 the Gaussian 88(TM) system (copyright 1988, Gaussian, Inc.),
 the Gaussian 86(TM) system (copyright 1986, Carnegie Mellon
 University), and the Gaussian 82(TM) system (copyright 1983,
 Carnegie Mellon University). Gaussian is a federally registered
 trademark of Gaussian, Inc.
  
 This software contains proprietary and confidential information,
 including trade secrets, belonging to Gaussian, Inc.
  
 This software is provided under written license and may be
 used, copied, transmitted, or stored only in accord with that
 written license.
  
 The following legend is applicable only to US Government
 contracts under FAR:
  
                    RESTRICTED RIGHTS LEGEND
  
 Use, reproduction and disclosure by the US Government is
 subject to restrictions as set forth in subparagraphs (a)
 and (c) of the Commercial Computer Software - Restricted
 Rights clause in FAR 52.227-19.
  
 Gaussian, Inc.
 340 Quinnipiac St., Bldg. 40, Wallingford CT 06492
  
  
 ---------------------------------------------------------------
 Warning -- This program may not be used in any manner that
 competes with the business of Gaussian, Inc. or will provide
 assistance to any competitor of Gaussian, Inc.  The licensee
 of this program is prohibited from giving any competitor of
 Gaussian, Inc. access to this program.  By using this program,
 the user acknowledges that Gaussian, Inc. is engaged in the
 business of creating and licensing software in the field of
 computational chemistry and represents and warrants to the
 licensee that it is not a competitor of Gaussian, Inc. and that
 it will not use this program in any manner prohibited above.
 ---------------------------------------------------------------
  

 Cite this work as:
 Gaussian 16, Revision B.01,
 M. J. Frisch, G. W. Trucks, H. B. Schlegel, G. E. Scuseria, 
 M. A. Robb, J. R. Cheeseman, G. Scalmani, V. Barone, 
 G. A. Petersson, H. Nakatsuji, X. Li, M. Caricato, A. V. Marenich, 
 J. Bloino, B. G. Janesko, R. Gomperts, B. Mennucci, H. P. Hratchian, 
 J. V. Ortiz, A. F. Izmaylov, J. L. Sonnenberg, D. Williams-Young, 
 F. Ding, F. Lipparini, F. Egidi, J. Goings, B. Peng, A. Petrone, 
 T. Henderson, D. Ranasinghe, V. G. Zakrzewski, J. Gao, N. Rega, 
 G. Zheng, W. Liang, M. Hada, M. Ehara, K. Toyota, R. Fukuda, 
 J. Hasegawa, M. Ishida, T. Nakajima, Y. Honda, O. Kitao, H. Nakai, 
 T. Vreven, K. Throssell, J. A. Montgomery, Jr., J. E. Peralta, 
 F. Ogliaro, M. J. Bearpark, J. J. Heyd, E. N. Brothers, K. N. Kudin, 
 V. N. Staroverov, T. A. Keith, R. Kobayashi, J. Normand, 
 K. Raghavachari, A. P. Rendell, J. C. Burant, S. S. Iyengar, 
 J. Tomasi, M. Cossi, J. M. Millam, M. Klene, C. Adamo, R. Cammi, 
 J. W. Ochterski, R. L. Martin, K. Morokuma, O. Farkas, 
 J. B. Foresman, and D. J. Fox, Gaussian, Inc., Wallingford CT, 2016.
 
 ******************************************
 Gaussian 16:  ES64L-G16RevB.01 20-Dec-2017
                13-Nov-2023 
 ******************************************
 %mem=14GB
 %chk=checkpoint.chk
 %nprocshared=16
 Will use up to   16 processors via shared memory.
 -------------------------
 #P B3LYP/6-311+g(d) force
 -------------------------
 1/10=7,30=1,38=1/1,3;
 2/12=2,17=6,18=5,40=1/2;
 3/5=4,6=6,7=11,11=2,25=1,30=1,71=1,74=-5/1,2,3;
 4//1;
 5/5=2,38=5/2;
 6/7=2,8=2,9=2,10=2,28=1/1;
 7/29=1/1,2,3,16;
 1/10=7,30=1/3;
 99//99;
 Leave Link    1 at Mon Nov 13 17:59:25 2023, MaxMem=  1879048192 cpu:               0.3 elap:               0.0
 (Enter /home/sekinelabo/g16/l101.exe)
 ------------------------------
 Gaussian input prepared by ASE
 ------------------------------
 Symbolic Z-matrix:
 Charge =  0 Multiplicity = 2
 Na                    6.82654   2.5678    0. 
 Na                    1.43123   0.        0.44493 
 Na                    0.        1.91069   2.26589 
 Na                    1.72812   2.95238   0.04664 
 Na                    4.16618   1.24191   0.41875 
 Na                    5.53327   2.62502   2.70511 
 Na                    6.64269   0.05639   1.62775 
 
 ITRead=  0  0  0  0  0  0  0
 MicOpt= -1 -1 -1 -1 -1 -1 -1
 NAtoms=      7 NQM=        7 NQMF=       0 NMMI=      0 NMMIF=      0
                NMic=       0 NMicF=      0.
                    Isotopes and Nuclear Properties:
 (Nuclear quadrupole moments (NQMom) in fm**2, nuclear magnetic moments (NMagM)
  in nuclear magnetons)

  Atom         1           2           3           4           5           6           7
 IAtWgt=          23          23          23          23          23          23          23
 AtmWgt=  22.9897697  22.9897697  22.9897697  22.9897697  22.9897697  22.9897697  22.9897697
 NucSpn=           3           3           3           3           3           3           3
 AtZEff=  -0.0000000  -0.0000000  -0.0000000  -0.0000000  -0.0000000  -0.0000000  -0.0000000
 NQMom=   10.4000000  10.4000000  10.4000000  10.4000000  10.4000000  10.4000000  10.4000000
 NMagM=    2.2175200   2.2175200   2.2175200   2.2175200   2.2175200   2.2175200   2.2175200
 AtZNuc=  11.0000000  11.0000000  11.0000000  11.0000000  11.0000000  11.0000000  11.0000000
 Leave Link  101 at Mon Nov 13 17:59:25 2023, MaxMem=  1879048192 cpu:               2.7 elap:               0.2
 (Enter /home/sekinelabo/g16/l103.exe)

 GradGradGradGradGradGradGradGradGradGradGradGradGradGradGradGradGradGrad
 Berny optimization.
 Initialization pass.
 Trust Radius=3.00D-01 FncErr=1.00D-07 GrdErr=1.00D-07 EigMax=2.50D+02 EigMin=1.00D-04
 Number of steps in this run=      2 maximum allowed number of steps=      2.
 GradGradGradGradGradGradGradGradGradGradGradGradGradGradGradGradGradGrad

 Leave Link  103 at Mon Nov 13 17:59:25 2023, MaxMem=  1879048192 cpu:               0.2 elap:               0.0
 (Enter /home/sekinelabo/g16/l202.exe)
                          Input orientation:                          
 ---------------------------------------------------------------------
 Center     Atomic      Atomic             Coordinates (Angstroms)
 Number     Number       Type             X           Y           Z
 ---------------------------------------------------------------------
      1         11           0        6.826540    2.567800    0.000000
      2         11           0        1.431234    0.000000    0.444929
      3         11           0        0.000000    1.910691    2.265889
      4         11           0        1.728120    2.952379    0.046639
      5         11           0        4.166184    1.241907    0.418749
      6         11           0        5.533268    2.625016    2.705106
      7         11           0        6.642693    0.056391    1.627749
 ---------------------------------------------------------------------
                    Distance matrix (angstroms):
                    1          2          3          4          5
     1  Na   0.000000
     2  Na   5.991735   0.000000
     3  Na   7.222721   3.002510   0.000000
     4  Na   5.113116   2.993881   2.999431   0.000000
     5  Na   3.001805   3.003826   4.606114   3.001389   0.000000
     6  Na   2.998903   5.368966   5.596448   4.653360   3.001556
     7  Na   2.998423   5.344300   6.926111   5.919432   3.000038
                    6          7
     6  Na   0.000000
     7  Na   2.998225   0.000000
 Stoichiometry    Na7(2)
 Framework group  C1[X(Na7)]
 Deg. of freedom    15
 Full point group                 C1      NOp   1
 Largest Abelian subgroup         C1      NOp   1
 Largest concise Abelian subgroup C1      NOp   1
                         Standard orientation:                         
 ---------------------------------------------------------------------
 Center     Atomic      Atomic             Coordinates (Angstroms)
 Number     Number       Type             X           Y           Z
 ---------------------------------------------------------------------
      1         11           0       -3.065391   -0.945773   -1.072723
      2         11           0        2.329915    1.622026   -0.627794
      3         11           0        3.761148   -0.288665    1.193166
      4         11           0        2.033028   -1.330353   -1.026084
      5         11           0       -0.405035    0.380119   -0.653974
      6         11           0       -1.772120   -1.002990    1.632383
      7         11           0       -2.881544    1.565635    0.555026
 ---------------------------------------------------------------------
 Rotational constants (GHZ):           1.3402432           0.4216584           0.4094188
 Leave Link  202 at Mon Nov 13 17:59:25 2023, MaxMem=  1879048192 cpu:               0.5 elap:               0.0
 (Enter /home/sekinelabo/g16/l301.exe)
 Standard basis: 6-311+G(d) (5D, 7F)
 Ernie: Thresh=  0.10000D-02 Tol=  0.10000D-05 Strict=F.
 There are   217 symmetry adapted cartesian basis functions of A   symmetry.
 There are   210 symmetry adapted basis functions of A   symmetry.
   210 basis functions,   350 primitive gaussians,   217 cartesian basis functions
    39 alpha electrons       38 beta electrons
       nuclear repulsion energy       349.9243075254 Hartrees.
 IExCor=  402 DFT=T Ex+Corr=B3LYP ExCW=0 ScaHFX=  0.200000
 ScaDFX=  0.800000  0.720000  1.000000  0.810000 ScalE2=  1.000000  1.000000
 IRadAn=      5 IRanWt=     -1 IRanGd=            0 ICorTp=0 IEmpDi=  4
 NAtoms=    7 NActive=    7 NUniq=    7 SFac= 1.00D+00 NAtFMM=   60 NAOKFM=F Big=F
 Integral buffers will be    131072 words long.
 Raffenetti 2 integral format.
 Two-electron integral symmetry is turned on.
 Leave Link  301 at Mon Nov 13 17:59:25 2023, MaxMem=  1879048192 cpu:               0.5 elap:               0.0
 (Enter /home/sekinelabo/g16/l302.exe)
 NPDir=0 NMtPBC=     1 NCelOv=     1 NCel=       1 NClECP=     1 NCelD=      1
         NCelK=      1 NCelE2=     1 NClLst=     1 CellRange=     0.0.
 One-electron integrals computed using PRISM.
 One-electron integral symmetry used in STVInt
 NBasis=   210 RedAO= T EigKep=  1.23D-06  NBF=   210
 NBsUse=   210 1.00D-06 EigRej= -1.00D+00 NBFU=   210
 Precomputing XC quadrature grid using
 IXCGrd= 4 IRadAn=           5 IRanWt=          -1 IRanGd=           0 AccXCQ= 0.00D+00.
 Generated NRdTot=       0 NPtTot=           0 NUsed=           0 NTot=          32
 NSgBfM=   210   210   210   210   210 MxSgAt=     7 MxSgA2=     7.
 Leave Link  302 at Mon Nov 13 17:59:25 2023, MaxMem=  1879048192 cpu:               2.2 elap:               0.1
 (Enter /home/sekinelabo/g16/l303.exe)
 DipDrv:  MaxL=1.
 Leave Link  303 at Mon Nov 13 17:59:26 2023, MaxMem=  1879048192 cpu:               0.5 elap:               0.0
 (Enter /home/sekinelabo/g16/l401.exe)
 ExpMin= 7.60D-03 ExpMax= 3.62D+04 ExpMxC= 1.21D+03 IAcc=3 IRadAn=         5 AccDes= 0.00D+00
 Harris functional with IExCor=  402 and IRadAn=       5 diagonalized for initial guess.
 HarFok:  IExCor=  402 AccDes= 0.00D+00 IRadAn=         5 IDoV= 1 UseB2=F ITyADJ=14
 ICtDFT=  3500011 ScaDFX=  1.000000  1.000000  1.000000  1.000000
 FoFCou: FMM=F IPFlag=           0 FMFlag=      100000 FMFlg1=           0
         NFxFlg=           0 DoJE=T BraDBF=F KetDBF=T FulRan=T
         wScrn=  0.000000 ICntrl=       500 IOpCl=  0 I1Cent=   200000004 NGrid=           0
         NMat0=    1 NMatS0=      1 NMatT0=    0 NMatD0=    1 NMtDS0=    0 NMtDT0=    0
 Petite list used in FoFCou.
 Harris En= -1135.85027515384    
 JPrj=0 DoOrth=F DoCkMO=F.
 Initial guess <Sx>= 0.0000 <Sy>= 0.0000 <Sz>= 0.5000 <S**2>= 0.7500 S= 0.5000
 Leave Link  401 at Mon Nov 13 17:59:26 2023, MaxMem=  1879048192 cpu:               5.2 elap:               0.3
 (Enter /home/sekinelabo/g16/l502.exe)
 Keep R1 and R2 ints in memory in canonical form, NReq=507620374.
 FoFCou: FMM=F IPFlag=           0 FMFlag=           0 FMFlg1=           0
         NFxFlg=           0 DoJE=F BraDBF=F KetDBF=F FulRan=T
         wScrn=  0.000000 ICntrl=       600 IOpCl=  0 I1Cent=           0 NGrid=           0
         NMat0=    1 NMatS0=  22155 NMatT0=    0 NMatD0=    1 NMtDS0=    0 NMtDT0=    0
 Symmetry not used in FoFCou.
 Two-electron integral symmetry not used.
 UHF open shell SCF:
 Using DIIS extrapolation, IDIIS=  1040.
 NGot=  1879048192 LenX=  1388082362 LenY=  1388034832
 Requested convergence on RMS density matrix=1.00D-08 within 128 cycles.
 Requested convergence on MAX density matrix=1.00D-06.
 Requested convergence on             energy=1.00D-06.
 No special actions if energy rises.

 Cycle   1  Pass 1  IDiag  1:
 E= -1136.03930810166    
 DIIS: error= 1.04D-02 at cycle   1 NSaved=   1.
 NSaved= 1 IEnMin= 1 EnMin= -1136.03930810166     IErMin= 1 ErrMin= 1.04D-02
 ErrMax= 1.04D-02  0.00D+00 EMaxC= 1.00D-01 BMatC= 1.95D-01 BMatP= 1.95D-01
 IDIUse=3 WtCom= 8.96D-01 WtEn= 1.04D-01
 Coeff-Com:  0.100D+01
 Coeff-En:   0.100D+01
 Coeff:      0.100D+01
 Gap=     0.030 Goal=   None    Shift=    0.000
 Gap=     0.021 Goal=   None    Shift=    0.000
 GapD=    0.021 DampG=0.250 DampE=0.500 DampFc=0.2500 IDamp=-1.
 Damping current iteration by 2.50D-01
 RMSDP=6.91D-02 MaxDP=6.47D+00              OVMax= 3.88D-01

 Cycle   2  Pass 1  IDiag  1:
 E= -1136.05097309078     Delta-E=       -0.011664989119 Rises=F Damp=T
 DIIS: error= 7.24D-03 at cycle   2 NSaved=   2.
 NSaved= 2 IEnMin= 2 EnMin= -1136.05097309078     IErMin= 2 ErrMin= 7.24D-03
 ErrMax= 7.24D-03  0.00D+00 EMaxC= 1.00D-01 BMatC= 7.50D-02 BMatP= 1.95D-01
 IDIUse=3 WtCom= 9.28D-01 WtEn= 7.24D-02
 Coeff-Com: -0.122D+01 0.222D+01
 Coeff-En:   0.000D+00 0.100D+01
 Coeff:     -0.113D+01 0.213D+01
 Gap=     0.030 Goal=   None    Shift=    0.000
 Gap=     0.036 Goal=   None    Shift=    0.000
 RMSDP=5.03D-02 MaxDP=4.93D+00 DE=-1.17D-02 OVMax= 4.75D-01

 Cycle   3  Pass 1  IDiag  1:
 E= -1136.03159101994     Delta-E=        0.019382070838 Rises=F Damp=F
 DIIS: error= 1.10D-02 at cycle   3 NSaved=   3.
 NSaved= 3 IEnMin= 2 EnMin= -1136.05097309078     IErMin= 2 ErrMin= 7.24D-03
 ErrMax= 1.10D-02  0.00D+00 EMaxC= 1.00D-01 BMatC= 3.11D-02 BMatP= 7.50D-02
 IDIUse=3 WtCom= 8.90D-01 WtEn= 1.10D-01
 Coeff-Com: -0.738D+00 0.129D+01 0.450D+00
 Coeff-En:   0.000D+00 0.757D+00 0.243D+00
 Coeff:     -0.656D+00 0.123D+01 0.427D+00
 Gap=     0.022 Goal=   None    Shift=    0.000
 Gap=     0.029 Goal=   None    Shift=    0.000
 RMSDP=2.46D-02 MaxDP=1.68D+00 DE= 1.94D-02 OVMax= 4.73D-01

 Cycle   4  Pass 1  IDiag  1:
 E= -1136.04606273882     Delta-E=       -0.014471718878 Rises=F Damp=F
 DIIS: error= 8.43D-03 at cycle   4 NSaved=   4.
 NSaved= 4 IEnMin= 2 EnMin= -1136.05097309078     IErMin= 2 ErrMin= 7.24D-03
 ErrMax= 8.43D-03  0.00D+00 EMaxC= 1.00D-01 BMatC= 2.06D-02 BMatP= 3.11D-02
 IDIUse=3 WtCom= 9.16D-01 WtEn= 8.43D-02
 Coeff-Com: -0.647D-01 0.135D+00 0.426D+00 0.504D+00
 Coeff-En:   0.000D+00 0.000D+00 0.435D+00 0.565D+00
 Coeff:     -0.593D-01 0.123D+00 0.426D+00 0.510D+00
 Gap=     0.022 Goal=   None    Shift=    0.000
 Gap=     0.024 Goal=   None    Shift=    0.000
 RMSDP=1.86D-02 MaxDP=1.51D+00 DE=-1.45D-02 OVMax= 2.65D-01

 Cycle   5  Pass 1  IDiag  1:
 E= -1136.07503651051     Delta-E=       -0.028973771687 Rises=F Damp=F
 DIIS: error= 1.39D-03 at cycle   5 NSaved=   5.
 NSaved= 5 IEnMin= 5 EnMin= -1136.07503651051     IErMin= 5 ErrMin= 1.39D-03
 ErrMax= 1.39D-03  0.00D+00 EMaxC= 1.00D-01 BMatC= 8.94D-04 BMatP= 2.06D-02
 IDIUse=3 WtCom= 9.86D-01 WtEn= 1.39D-02
 Coeff-Com:  0.979D-02-0.123D-01 0.153D+00 0.238D+00 0.612D+00
 Coeff-En:   0.000D+00 0.000D+00 0.000D+00 0.000D+00 0.100D+01
 Coeff:      0.966D-02-0.121D-01 0.150D+00 0.235D+00 0.617D+00
 Gap=     0.025 Goal=   None    Shift=    0.000
 Gap=     0.025 Goal=   None    Shift=    0.000
 RMSDP=4.16D-03 MaxDP=3.57D-01 DE=-2.90D-02 OVMax= 5.26D-02

 Cycle   6  Pass 1  IDiag  1:
 E= -1136.07579588015     Delta-E=       -0.000759369639 Rises=F Damp=F
 DIIS: error= 6.79D-04 at cycle   6 NSaved=   6.
 NSaved= 6 IEnMin= 6 EnMin= -1136.07579588015     IErMin= 6 ErrMin= 6.79D-04
 ErrMax= 6.79D-04  0.00D+00 EMaxC= 1.00D-01 BMatC= 1.77D-04 BMatP= 8.94D-04
 IDIUse=3 WtCom= 9.93D-01 WtEn= 6.79D-03
 Coeff-Com: -0.960D-02 0.117D-01-0.128D-01-0.134D-01 0.300D+00 0.724D+00
 Coeff-En:   0.000D+00 0.000D+00 0.000D+00 0.000D+00 0.166D+00 0.834D+00
 Coeff:     -0.953D-02 0.117D-01-0.128D-01-0.133D-01 0.299D+00 0.725D+00
 Gap=     0.026 Goal=   None    Shift=    0.000
 Gap=     0.026 Goal=   None    Shift=    0.000
 RMSDP=2.66D-03 MaxDP=2.10D-01 DE=-7.59D-04 OVMax= 3.17D-02

 Cycle   7  Pass 1  IDiag  1:
 E= -1136.07603206031     Delta-E=       -0.000236180162 Rises=F Damp=F
 DIIS: error= 1.87D-04 at cycle   7 NSaved=   7.
 NSaved= 7 IEnMin= 7 EnMin= -1136.07603206031     IErMin= 7 ErrMin= 1.87D-04
 ErrMax= 1.87D-04  0.00D+00 EMaxC= 1.00D-01 BMatC= 5.67D-06 BMatP= 1.77D-04
 IDIUse=3 WtCom= 9.98D-01 WtEn= 1.87D-03
 Coeff-Com: -0.231D-02 0.289D-02-0.710D-02-0.870D-02 0.150D-01 0.106D+00
 Coeff-Com:  0.894D+00
 Coeff-En:   0.000D+00 0.000D+00 0.000D+00 0.000D+00 0.000D+00 0.000D+00
 Coeff-En:   0.100D+01
 Coeff:     -0.231D-02 0.288D-02-0.708D-02-0.868D-02 0.150D-01 0.106D+00
 Coeff:      0.894D+00
 Gap=     0.026 Goal=   None    Shift=    0.000
 Gap=     0.026 Goal=   None    Shift=    0.000
 RMSDP=1.05D-03 MaxDP=9.29D-02 DE=-2.36D-04 OVMax= 2.61D-02

 Cycle   8  Pass 1  IDiag  1:
 E= -1136.07609779485     Delta-E=       -0.000065734542 Rises=F Damp=F
 DIIS: error= 1.70D-04 at cycle   8 NSaved=   8.
 NSaved= 8 IEnMin= 8 EnMin= -1136.07609779485     IErMin= 8 ErrMin= 1.70D-04
 ErrMax= 1.70D-04  0.00D+00 EMaxC= 1.00D-01 BMatC= 5.81D-06 BMatP= 5.67D-06
 IDIUse=3 WtCom= 9.98D-01 WtEn= 1.70D-03
 Coeff-Com:  0.165D-03-0.199D-03-0.370D-02-0.333D-02-0.412D-01-0.413D-01
 Coeff-Com:  0.572D+00 0.518D+00
 Coeff-En:   0.000D+00 0.000D+00 0.000D+00 0.000D+00 0.000D+00 0.000D+00
 Coeff-En:   0.000D+00 0.100D+01
 Coeff:      0.164D-03-0.198D-03-0.369D-02-0.333D-02-0.411D-01-0.412D-01
 Coeff:      0.571D+00 0.518D+00
 Gap=     0.026 Goal=   None    Shift=    0.000
 Gap=     0.026 Goal=   None    Shift=    0.000
 RMSDP=7.80D-04 MaxDP=7.18D-02 DE=-6.57D-05 OVMax= 1.84D-02

 Cycle   9  Pass 1  IDiag  1:
 E= -1136.07615265685     Delta-E=       -0.000054861999 Rises=F Damp=F
 DIIS: error= 1.83D-04 at cycle   9 NSaved=   9.
 NSaved= 9 IEnMin= 9 EnMin= -1136.07615265685     IErMin= 8 ErrMin= 1.70D-04
 ErrMax= 1.83D-04  0.00D+00 EMaxC= 1.00D-01 BMatC= 4.46D-06 BMatP= 5.67D-06
 IDIUse=3 WtCom= 9.98D-01 WtEn= 1.70D-03
 Coeff-Com:  0.370D-03-0.497D-03-0.455D-02-0.411D-02-0.639D-01-0.785D-01
 Coeff-Com:  0.848D+00 0.846D+00-0.542D+00
 Coeff-En:   0.000D+00 0.000D+00 0.000D+00 0.000D+00 0.000D+00 0.000D+00
 Coeff-En:   0.000D+00 0.000D+00 0.100D+01
 Coeff:      0.369D-03-0.496D-03-0.454D-02-0.411D-02-0.638D-01-0.783D-01
 Coeff:      0.847D+00 0.844D+00-0.540D+00
 Gap=     0.026 Goal=   None    Shift=    0.000
 Gap=     0.026 Goal=   None    Shift=    0.000
 RMSDP=6.16D-04 MaxDP=6.45D-02 DE=-5.49D-05 OVMax= 1.49D-02

 Cycle  10  Pass 1  IDiag  1:
 E= -1136.07610830151     Delta-E=        0.000044355340 Rises=F Damp=F
 DIIS: error= 1.71D-04 at cycle  10 NSaved=  10.
 NSaved=10 IEnMin= 9 EnMin= -1136.07615265685     IErMin= 8 ErrMin= 1.70D-04
 ErrMax= 1.71D-04  0.00D+00 EMaxC= 1.00D-01 BMatC= 4.14D-06 BMatP= 4.46D-06
 IDIUse=3 WtCom= 9.98D-01 WtEn= 1.70D-03
 Rare condition: small coef for last iteration:  0.000D+00
 Coeff-Com:  0.138D-02-0.166D-02-0.483D-02-0.251D-03-0.795D-01-0.122D+00
 Coeff-Com:  0.455D+00 0.627D+00-0.282D+01 0.295D+01
 Coeff-En:   0.000D+00 0.000D+00 0.000D+00 0.000D+00 0.000D+00 0.000D+00
 Coeff-En:   0.000D+00 0.000D+00 0.000D+00 0.100D+01
 Coeff:      0.138D-02-0.166D-02-0.483D-02-0.251D-03-0.795D-01-0.122D+00
 Coeff:      0.455D+00 0.627D+00-0.282D+01 0.295D+01
 Gap=     0.026 Goal=   None    Shift=    0.000
 Gap=     0.026 Goal=   None    Shift=    0.000
 RMSDP=1.18D-03 MaxDP=1.16D-01 DE= 4.44D-05 OVMax= 2.68D-02

 Cycle  11  Pass 1  IDiag  1:
 E= -1136.07604867570     Delta-E=        0.000059625816 Rises=F Damp=F
 DIIS: error= 1.31D-04 at cycle  11 NSaved=  11.
 NSaved=11 IEnMin= 9 EnMin= -1136.07615265685     IErMin=11 ErrMin= 1.31D-04
 ErrMax= 1.31D-04  0.00D+00 EMaxC= 1.00D-01 BMatC= 2.72D-06 BMatP= 4.14D-06
 IDIUse=3 WtCom= 9.99D-01 WtEn= 1.31D-03
 Rare condition: small coef for last iteration:  0.000D+00
 Coeff-Com:  0.846D-03-0.921D-03-0.823D-03 0.220D-02-0.283D-01-0.503D-01
 Coeff-Com: -0.179D+00-0.998D-01-0.165D+01 0.151D+01 0.149D+01
 Coeff-En:   0.000D+00 0.000D+00 0.000D+00 0.000D+00 0.000D+00 0.000D+00
 Coeff-En:   0.000D+00 0.000D+00 0.000D+00 0.000D+00 0.100D+01
 Coeff:      0.846D-03-0.921D-03-0.823D-03 0.220D-02-0.283D-01-0.503D-01
 Coeff:     -0.179D+00-0.998D-01-0.165D+01 0.151D+01 0.149D+01
 Gap=     0.026 Goal=   None    Shift=    0.000
 Gap=     0.026 Goal=   None    Shift=    0.000
 RMSDP=9.69D-04 MaxDP=6.93D-02 DE= 5.96D-05 OVMax= 2.74D-02

 Cycle  12  Pass 1  IDiag  1:
 E= -1136.07603704418     Delta-E=        0.000011631516 Rises=F Damp=F
 DIIS: error= 9.45D-05 at cycle  12 NSaved=  12.
 NSaved=12 IEnMin= 9 EnMin= -1136.07615265685     IErMin=12 ErrMin= 9.45D-05
 ErrMax= 9.45D-05  0.00D+00 EMaxC= 1.00D-01 BMatC= 1.85D-06 BMatP= 2.72D-06
 IDIUse=1 WtCom= 1.00D+00 WtEn= 0.00D+00
 Coeff-Com: -0.122D-02 0.170D-02 0.206D-02-0.149D-02 0.461D-01 0.888D-01
 Coeff-Com: -0.287D+00-0.304D+00 0.170D+01-0.221D+01 0.602D+00 0.136D+01
 Coeff:     -0.122D-02 0.170D-02 0.206D-02-0.149D-02 0.461D-01 0.888D-01
 Coeff:     -0.287D+00-0.304D+00 0.170D+01-0.221D+01 0.602D+00 0.136D+01
 Gap=     0.026 Goal=   None    Shift=    0.000
 Gap=     0.026 Goal=   None    Shift=    0.000
 RMSDP=9.65D-04 MaxDP=8.11D-02 DE= 1.16D-05 OVMax= 2.62D-02

 Cycle  13  Pass 1  IDiag  1:
 E= -1136.07606689192     Delta-E=       -0.000029847737 Rises=F Damp=F
 DIIS: error= 8.50D-05 at cycle  13 NSaved=  13.
 NSaved=13 IEnMin= 9 EnMin= -1136.07615265685     IErMin=13 ErrMin= 8.50D-05
 ErrMax= 8.50D-05  0.00D+00 EMaxC= 1.00D-01 BMatC= 1.37D-06 BMatP= 1.85D-06
 IDIUse=1 WtCom= 1.00D+00 WtEn= 0.00D+00
 Coeff-Com: -0.834D-03 0.115D-02 0.658D-03-0.133D-02 0.291D-01 0.613D-01
 Coeff-Com: -0.720D-01-0.106D-01 0.125D+01-0.159D+01-0.174D+00 0.647D+00
 Coeff-Com:  0.866D+00
 Coeff:     -0.834D-03 0.115D-02 0.658D-03-0.133D-02 0.291D-01 0.613D-01
 Coeff:     -0.720D-01-0.106D-01 0.125D+01-0.159D+01-0.174D+00 0.647D+00
 Coeff:      0.866D+00
 Gap=     0.026 Goal=   None    Shift=    0.000
 Gap=     0.026 Goal=   None    Shift=    0.000
 RMSDP=7.04D-04 MaxDP=5.39D-02 DE=-2.98D-05 OVMax= 1.87D-02

 Cycle  14  Pass 1  IDiag  1:
 E= -1136.07608958255     Delta-E=       -0.000022690637 Rises=F Damp=F
 DIIS: error= 8.39D-05 at cycle  14 NSaved=  14.
 NSaved=14 IEnMin= 9 EnMin= -1136.07615265685     IErMin=14 ErrMin= 8.39D-05
 ErrMax= 8.39D-05  0.00D+00 EMaxC= 1.00D-01 BMatC= 1.11D-06 BMatP= 1.37D-06
 IDIUse=1 WtCom= 1.00D+00 WtEn= 0.00D+00
 Coeff-Com:  0.886D-03-0.117D-02-0.632D-03 0.125D-02-0.211D-01-0.394D-01
 Coeff-Com:  0.114D+00 0.261D+00-0.727D+00 0.804D+00-0.317D+00-0.767D+00
 Coeff-Com:  0.238D+00 0.145D+01
 Coeff:      0.886D-03-0.117D-02-0.632D-03 0.125D-02-0.211D-01-0.394D-01
 Coeff:      0.114D+00 0.261D+00-0.727D+00 0.804D+00-0.317D+00-0.767D+00
 Coeff:      0.238D+00 0.145D+01
 Gap=     0.026 Goal=   None    Shift=    0.000
 Gap=     0.026 Goal=   None    Shift=    0.000
 RMSDP=1.29D-03 MaxDP=1.05D-01 DE=-2.27D-05 OVMax= 3.31D-02

 Cycle  15  Pass 1  IDiag  1:
 E= -1136.07612646614     Delta-E=       -0.000036883583 Rises=F Damp=F
 DIIS: error= 7.55D-05 at cycle  15 NSaved=  15.
 NSaved=15 IEnMin= 9 EnMin= -1136.07615265685     IErMin=15 ErrMin= 7.55D-05
 ErrMax= 7.55D-05  0.00D+00 EMaxC= 1.00D-01 BMatC= 8.91D-07 BMatP= 1.11D-06
 IDIUse=1 WtCom= 1.00D+00 WtEn= 0.00D+00
 Coeff-Com:  0.749D-05 0.673D-04 0.179D-03-0.119D-02 0.815D-02 0.109D-01
 Coeff-Com: -0.712D-01 0.221D-01-0.642D+00 0.975D+00-0.799D-01-0.504D+00
 Coeff-Com: -0.611D+00 0.904D-01 0.180D+01
 Coeff:      0.749D-05 0.673D-04 0.179D-03-0.119D-02 0.815D-02 0.109D-01
 Coeff:     -0.712D-01 0.221D-01-0.642D+00 0.975D+00-0.799D-01-0.504D+00
 Coeff:     -0.611D+00 0.904D-01 0.180D+01
 Gap=     0.026 Goal=   None    Shift=    0.000
 Gap=     0.026 Goal=   None    Shift=    0.000
 RMSDP=2.13D-03 MaxDP=1.67D-01 DE=-3.69D-05 OVMax= 5.61D-02

 Cycle  16  Pass 1  IDiag  1:
 E= -1136.07617658535     Delta-E=       -0.000050119216 Rises=F Damp=F
 DIIS: error= 7.01D-05 at cycle  16 NSaved=  16.
 NSaved=16 IEnMin=16 EnMin= -1136.07617658535     IErMin=16 ErrMin= 7.01D-05
 ErrMax= 7.01D-05  0.00D+00 EMaxC= 1.00D-01 BMatC= 5.83D-07 BMatP= 8.91D-07
 IDIUse=1 WtCom= 1.00D+00 WtEn= 0.00D+00
 Coeff-Com: -0.732D-03 0.110D-02-0.422D-03-0.491D-03 0.194D-01 0.487D-01
 Coeff-Com: -0.229D-01 0.367D-01 0.666D+00-0.830D+00-0.342D+00 0.804D+00
 Coeff-Com:  0.848D+00-0.365D+00-0.203D+01 0.217D+01
 Coeff:     -0.732D-03 0.110D-02-0.422D-03-0.491D-03 0.194D-01 0.487D-01
 Coeff:     -0.229D-01 0.367D-01 0.666D+00-0.830D+00-0.342D+00 0.804D+00
 Coeff:      0.848D+00-0.365D+00-0.203D+01 0.217D+01
 Gap=     0.026 Goal=   None    Shift=    0.000
 Gap=     0.026 Goal=   None    Shift=    0.000
 RMSDP=8.17D-04 MaxDP=6.00D-02 DE=-5.01D-05 OVMax= 2.30D-02

 Cycle  17  Pass 1  IDiag  1:
 E= -1136.07619239613     Delta-E=       -0.000015810776 Rises=F Damp=F
 DIIS: error= 6.54D-05 at cycle  17 NSaved=  17.
 NSaved=17 IEnMin=17 EnMin= -1136.07619239613     IErMin=17 ErrMin= 6.54D-05
 ErrMax= 6.54D-05  0.00D+00 EMaxC= 1.00D-01 BMatC= 5.47D-07 BMatP= 5.83D-07
 IDIUse=1 WtCom= 1.00D+00 WtEn= 0.00D+00
 Coeff-Com: -0.373D-03 0.587D-03 0.560D-03-0.484D-03 0.168D-01 0.358D-01
 Coeff-Com: -0.112D+00-0.303D-01 0.869D+00-0.109D+01 0.118D-01 0.727D+00
 Coeff-Com:  0.485D+00-0.555D+00-0.143D+01 0.139D+01 0.682D+00
 Coeff:     -0.373D-03 0.587D-03 0.560D-03-0.484D-03 0.168D-01 0.358D-01
 Coeff:     -0.112D+00-0.303D-01 0.869D+00-0.109D+01 0.118D-01 0.727D+00
 Coeff:      0.485D+00-0.555D+00-0.143D+01 0.139D+01 0.682D+00
 Gap=     0.026 Goal=   None    Shift=    0.000
 Gap=     0.026 Goal=   None    Shift=    0.000
 RMSDP=1.08D-03 MaxDP=8.63D-02 DE=-1.58D-05 OVMax= 2.98D-02

 Cycle  18  Pass 1  IDiag  1:
 E= -1136.07621057678     Delta-E=       -0.000018180652 Rises=F Damp=F
 DIIS: error= 5.89D-05 at cycle  18 NSaved=  18.
 NSaved=18 IEnMin=18 EnMin= -1136.07621057678     IErMin=18 ErrMin= 5.89D-05
 ErrMax= 5.89D-05  0.00D+00 EMaxC= 1.00D-01 BMatC= 3.13D-07 BMatP= 5.47D-07
 IDIUse=1 WtCom= 1.00D+00 WtEn= 0.00D+00
 Coeff-Com: -0.354D-03 0.510D-03 0.311D-07 0.211D-03-0.299D-03 0.150D-02
 Coeff-Com:  0.949D-01 0.665D-01 0.621D+00-0.102D+01 0.480D-01 0.288D+00
 Coeff-Com:  0.350D+00-0.454D-01-0.389D+00-0.525D+00-0.533D+00 0.205D+01
 Coeff:     -0.354D-03 0.510D-03 0.311D-07 0.211D-03-0.299D-03 0.150D-02
 Coeff:      0.949D-01 0.665D-01 0.621D+00-0.102D+01 0.480D-01 0.288D+00
 Coeff:      0.350D+00-0.454D-01-0.389D+00-0.525D+00-0.533D+00 0.205D+01
 Gap=     0.026 Goal=   None    Shift=    0.000
 Gap=     0.026 Goal=   None    Shift=    0.000
 RMSDP=1.04D-03 MaxDP=7.73D-02 DE=-1.82D-05 OVMax= 2.98D-02

 Cycle  19  Pass 1  IDiag  1:
 E= -1136.07622637432     Delta-E=       -0.000015797537 Rises=F Damp=F
 DIIS: error= 5.04D-05 at cycle  19 NSaved=  19.
 NSaved=19 IEnMin=19 EnMin= -1136.07622637432     IErMin=19 ErrMin= 5.04D-05
 ErrMax= 5.04D-05  0.00D+00 EMaxC= 1.00D-01 BMatC= 2.96D-07 BMatP= 3.13D-07
 IDIUse=1 WtCom= 1.00D+00 WtEn= 0.00D+00
 Coeff-Com: -0.595D-03 0.836D-03-0.102D-02 0.182D-03-0.121D-01-0.195D-01
 Coeff-Com:  0.256D+00 0.134D+00 0.274D-01-0.393D+00 0.180D-01-0.322D+00
 Coeff-Com:  0.224D+00 0.343D+00 0.594D+00-0.132D+01-0.185D+01 0.158D+01
 Coeff-Com:  0.175D+01
 Coeff:     -0.595D-03 0.836D-03-0.102D-02 0.182D-03-0.121D-01-0.195D-01
 Coeff:      0.256D+00 0.134D+00 0.274D-01-0.393D+00 0.180D-01-0.322D+00
 Coeff:      0.224D+00 0.343D+00 0.594D+00-0.132D+01-0.185D+01 0.158D+01
 Coeff:      0.175D+01
 Gap=     0.026 Goal=   None    Shift=    0.000
 Gap=     0.026 Goal=   None    Shift=    0.000
 RMSDP=2.07D-03 MaxDP=1.59D-01 DE=-1.58D-05 OVMax= 5.78D-02

 Cycle  20  Pass 1  IDiag  1:
 E= -1136.07624908008     Delta-E=       -0.000022705762 Rises=F Damp=F
 DIIS: error= 3.31D-05 at cycle  20 NSaved=  20.
 NSaved=20 IEnMin=20 EnMin= -1136.07624908008     IErMin=20 ErrMin= 3.31D-05
 ErrMax= 3.31D-05  0.00D+00 EMaxC= 1.00D-01 BMatC= 1.30D-07 BMatP= 2.96D-07
 IDIUse=1 WtCom= 1.00D+00 WtEn= 0.00D+00
 Coeff-Com:  0.237D-03-0.300D-03-0.452D-04-0.105D-02-0.798D-02-0.841D-02
 Coeff-Com:  0.147D+00 0.201D+00 0.320D+00-0.617D+00-0.266D+00 0.150D+00
 Coeff-Com:  0.511D+00 0.244D+00-0.138D+01 0.987D+00 0.545D+00-0.813D+00
 Coeff-Com: -0.823D+00 0.181D+01
 Coeff:      0.237D-03-0.300D-03-0.452D-04-0.105D-02-0.798D-02-0.841D-02
 Coeff:      0.147D+00 0.201D+00 0.320D+00-0.617D+00-0.266D+00 0.150D+00
 Coeff:      0.511D+00 0.244D+00-0.138D+01 0.987D+00 0.545D+00-0.813D+00
 Coeff:     -0.823D+00 0.181D+01
 Gap=     0.026 Goal=   None    Shift=    0.000
 Gap=     0.026 Goal=   None    Shift=    0.000
 RMSDP=1.28D-03 MaxDP=9.61D-02 DE=-2.27D-05 OVMax= 3.38D-02

 Cycle  21  Pass 1  IDiag  1:
 E= -1136.07625770936     Delta-E=       -0.000008629278 Rises=F Damp=F
 DIIS: error= 2.27D-05 at cycle  21 NSaved=  20.
 NSaved=20 IEnMin=20 EnMin= -1136.07625770936     IErMin=20 ErrMin= 2.27D-05
 ErrMax= 2.27D-05  0.00D+00 EMaxC= 1.00D-01 BMatC= 6.98D-08 BMatP= 1.30D-07
 IDIUse=1 WtCom= 1.00D+00 WtEn= 0.00D+00
 Coeff-Com: -0.101D-04 0.279D-04-0.529D-03 0.398D-03 0.272D-02 0.135D-01
 Coeff-Com:  0.488D-01 0.292D+00-0.393D+00-0.107D+00 0.210D+00 0.308D+00
 Coeff-Com: -0.145D+00-0.813D+00 0.835D+00 0.559D+00-0.692D+00-0.753D+00
 Coeff-Com:  0.423D+00 0.121D+01
 Coeff:     -0.101D-04 0.279D-04-0.529D-03 0.398D-03 0.272D-02 0.135D-01
 Coeff:      0.488D-01 0.292D+00-0.393D+00-0.107D+00 0.210D+00 0.308D+00
 Coeff:     -0.145D+00-0.813D+00 0.835D+00 0.559D+00-0.692D+00-0.753D+00
 Coeff:      0.423D+00 0.121D+01
 Gap=     0.026 Goal=   None    Shift=    0.000
 Gap=     0.027 Goal=   None    Shift=    0.000
 RMSDP=1.12D-03 MaxDP=8.79D-02 DE=-8.63D-06 OVMax= 3.08D-02

 Cycle  22  Pass 1  IDiag  1:
 E= -1136.07626230392     Delta-E=       -0.000004594557 Rises=F Damp=F
 DIIS: error= 1.21D-05 at cycle  22 NSaved=  20.
 NSaved=20 IEnMin=20 EnMin= -1136.07626230392     IErMin=20 ErrMin= 1.21D-05
 ErrMax= 1.21D-05  0.00D+00 EMaxC= 1.00D-01 BMatC= 4.52D-08 BMatP= 6.98D-08
 IDIUse=1 WtCom= 1.00D+00 WtEn= 0.00D+00
 Coeff-Com: -0.229D-04 0.435D-03-0.157D-02-0.424D-02 0.378D-01-0.237D-01
 Coeff-Com:  0.155D+00-0.221D+00 0.469D-01-0.764D-02 0.300D-01 0.368D-01
 Coeff-Com:  0.147D+00-0.398D+00-0.962D-01 0.367D+00 0.419D+00-0.937D+00
 Coeff-Com:  0.181D+00 0.127D+01
 Coeff:     -0.229D-04 0.435D-03-0.157D-02-0.424D-02 0.378D-01-0.237D-01
 Coeff:      0.155D+00-0.221D+00 0.469D-01-0.764D-02 0.300D-01 0.368D-01
 Coeff:      0.147D+00-0.398D+00-0.962D-01 0.367D+00 0.419D+00-0.937D+00
 Coeff:      0.181D+00 0.127D+01
 Gap=     0.026 Goal=   None    Shift=    0.000
 Gap=     0.026 Goal=   None    Shift=    0.000
 RMSDP=3.42D-04 MaxDP=3.51D-02 DE=-4.59D-06 OVMax= 4.94D-03

 Cycle  23  Pass 1  IDiag  1:
 E= -1136.07626251779     Delta-E=       -0.000000213876 Rises=F Damp=F
 DIIS: error= 1.42D-05 at cycle  23 NSaved=  20.
 NSaved=20 IEnMin=20 EnMin= -1136.07626251779     IErMin=19 ErrMin= 1.21D-05
 ErrMax= 1.42D-05  0.00D+00 EMaxC= 1.00D-01 BMatC= 8.16D-08 BMatP= 4.52D-08
 IDIUse=1 WtCom= 1.00D+00 WtEn= 0.00D+00
 Coeff-Com: -0.433D-04 0.245D-02 0.661D-02 0.299D-01-0.355D-02 0.239D+00
 Coeff-Com: -0.342D+00 0.657D-02 0.134D+00 0.725D-01-0.222D-01-0.697D-01
 Coeff-Com: -0.135D+00-0.327D+00 0.353D+00 0.234D+00-0.140D+00-0.824D+00
 Coeff-Com:  0.942D+00 0.844D+00
 Coeff:     -0.433D-04 0.245D-02 0.661D-02 0.299D-01-0.355D-02 0.239D+00
 Coeff:     -0.342D+00 0.657D-02 0.134D+00 0.725D-01-0.222D-01-0.697D-01
 Coeff:     -0.135D+00-0.327D+00 0.353D+00 0.234D+00-0.140D+00-0.824D+00
 Coeff:      0.942D+00 0.844D+00
 Gap=     0.026 Goal=   None    Shift=    0.000
 Gap=     0.026 Goal=   None    Shift=    0.000
 RMSDP=7.02D-04 MaxDP=5.47D-02 DE=-2.14D-07 OVMax= 2.00D-02

 Cycle  24  Pass 1  IDiag  1:
 E= -1136.07626425702     Delta-E=       -0.000001739226 Rises=F Damp=F
 DIIS: error= 6.06D-06 at cycle  24 NSaved=  20.
 NSaved=20 IEnMin=20 EnMin= -1136.07626425702     IErMin=20 ErrMin= 6.06D-06
 ErrMax= 6.06D-06  0.00D+00 EMaxC= 1.00D-01 BMatC= 1.53D-08 BMatP= 4.52D-08
 IDIUse=1 WtCom= 1.00D+00 WtEn= 0.00D+00
 Coeff-Com: -0.937D-04 0.241D-02 0.337D-01 0.943D-02 0.897D-01-0.140D+00
 Coeff-Com: -0.167D-01 0.376D-01 0.398D-01 0.727D-01-0.113D+00 0.107D-01
 Coeff-Com: -0.349D+00 0.286D+00 0.153D+00 0.143D+00-0.713D+00 0.469D-01
 Coeff-Com:  0.909D-01 0.132D+01
 Coeff:     -0.937D-04 0.241D-02 0.337D-01 0.943D-02 0.897D-01-0.140D+00
 Coeff:     -0.167D-01 0.376D-01 0.398D-01 0.727D-01-0.113D+00 0.107D-01
 Coeff:     -0.349D+00 0.286D+00 0.153D+00 0.143D+00-0.713D+00 0.469D-01
 Coeff:      0.909D-01 0.132D+01
 Gap=     0.026 Goal=   None    Shift=    0.000
 Gap=     0.026 Goal=   None    Shift=    0.000
 RMSDP=2.96D-04 MaxDP=2.04D-02 DE=-1.74D-06 OVMax= 9.43D-03

 Cycle  25  Pass 1  IDiag  1:
 E= -1136.07626474638     Delta-E=       -0.000000489367 Rises=F Damp=F
 DIIS: error= 3.43D-06 at cycle  25 NSaved=  20.
 NSaved=20 IEnMin=20 EnMin= -1136.07626474638     IErMin=20 ErrMin= 3.43D-06
 ErrMax= 3.43D-06  0.00D+00 EMaxC= 1.00D-01 BMatC= 8.22D-09 BMatP= 1.53D-08
 IDIUse=1 WtCom= 1.00D+00 WtEn= 0.00D+00
 Coeff-Com: -0.472D-03 0.882D-03 0.151D-01 0.147D-01-0.634D-02-0.583D-01
 Coeff-Com:  0.700D-01 0.775D-01-0.199D-01-0.270D+00 0.311D+00-0.434D-02
 Coeff-Com: -0.106D+00-0.154D+00 0.193D+00 0.177D+00-0.349D+00-0.431D+00
 Coeff-Com:  0.320D-01 0.151D+01
 Coeff:     -0.472D-03 0.882D-03 0.151D-01 0.147D-01-0.634D-02-0.583D-01
 Coeff:      0.700D-01 0.775D-01-0.199D-01-0.270D+00 0.311D+00-0.434D-02
 Coeff:     -0.106D+00-0.154D+00 0.193D+00 0.177D+00-0.349D+00-0.431D+00
 Coeff:      0.320D-01 0.151D+01
 Gap=     0.026 Goal=   None    Shift=    0.000
 Gap=     0.026 Goal=   None    Shift=    0.000
 RMSDP=3.33D-04 MaxDP=2.33D-02 DE=-4.89D-07 OVMax= 1.04D-02

 Cycle  26  Pass 1  IDiag  1:
 E= -1136.07626491425     Delta-E=       -0.000000167862 Rises=F Damp=F
 DIIS: error= 1.35D-06 at cycle  26 NSaved=  20.
 NSaved=20 IEnMin=20 EnMin= -1136.07626491425     IErMin=20 ErrMin= 1.35D-06
 ErrMax= 1.35D-06  0.00D+00 EMaxC= 1.00D-01 BMatC= 9.95D-10 BMatP= 8.22D-09
 IDIUse=1 WtCom= 1.00D+00 WtEn= 0.00D+00
 Coeff-Com:  0.168D-03-0.171D-02-0.430D-02 0.841D-02-0.600D-02 0.147D-01
 Coeff-Com:  0.185D-01-0.110D-01-0.563D-01 0.716D-01 0.142D-01-0.562D-01
 Coeff-Com:  0.109D-01-0.340D-01 0.112D+00-0.691D-02 0.325D-01-0.370D+00
 Coeff-Com:  0.170D+00 0.109D+01
 Coeff:      0.168D-03-0.171D-02-0.430D-02 0.841D-02-0.600D-02 0.147D-01
 Coeff:      0.185D-01-0.110D-01-0.563D-01 0.716D-01 0.142D-01-0.562D-01
 Coeff:      0.109D-01-0.340D-01 0.112D+00-0.691D-02 0.325D-01-0.370D+00
 Coeff:      0.170D+00 0.109D+01
 Gap=     0.026 Goal=   None    Shift=    0.000
 Gap=     0.026 Goal=   None    Shift=    0.000
 RMSDP=6.45D-05 MaxDP=5.38D-03 DE=-1.68D-07 OVMax= 1.44D-03

 Cycle  27  Pass 1  IDiag  1:
 E= -1136.07626492079     Delta-E=       -0.000000006539 Rises=F Damp=F
 DIIS: error= 2.02D-06 at cycle  27 NSaved=  20.
 NSaved=20 IEnMin=20 EnMin= -1136.07626492079     IErMin=19 ErrMin= 1.35D-06
 ErrMax= 2.02D-06  0.00D+00 EMaxC= 1.00D-01 BMatC= 1.58D-09 BMatP= 9.95D-10
 IDIUse=1 WtCom= 1.00D+00 WtEn= 0.00D+00
 Coeff-Com: -0.282D-02-0.404D-02 0.249D-02 0.826D-02-0.621D-02-0.930D-02
 Coeff-Com: -0.404D-04 0.357D-01-0.316D-01-0.133D-01 0.195D-01 0.358D-01
 Coeff-Com: -0.645D-01 0.233D-02 0.127D+00-0.382D-02-0.838D-01-0.217D+00
 Coeff-Com:  0.338D+00 0.868D+00
 Coeff:     -0.282D-02-0.404D-02 0.249D-02 0.826D-02-0.621D-02-0.930D-02
 Coeff:     -0.404D-04 0.357D-01-0.316D-01-0.133D-01 0.195D-01 0.358D-01
 Coeff:     -0.645D-01 0.233D-02 0.127D+00-0.382D-02-0.838D-01-0.217D+00
 Coeff:      0.338D+00 0.868D+00
 Gap=     0.026 Goal=   None    Shift=    0.000
 Gap=     0.026 Goal=   None    Shift=    0.000
 RMSDP=2.76D-05 MaxDP=2.26D-03 DE=-6.54D-09 OVMax= 4.81D-04

 Cycle  28  Pass 1  IDiag  1:
 E= -1136.07626492380     Delta-E=       -0.000000003016 Rises=F Damp=F
 DIIS: error= 9.10D-07 at cycle  28 NSaved=  20.
 NSaved=20 IEnMin=20 EnMin= -1136.07626492380     IErMin=20 ErrMin= 9.10D-07
 ErrMax= 9.10D-07  0.00D+00 EMaxC= 1.00D-01 BMatC= 3.44D-10 BMatP= 9.95D-10
 IDIUse=1 WtCom= 1.00D+00 WtEn= 0.00D+00
 Coeff-Com: -0.867D-03-0.342D-02 0.185D-03 0.488D-02-0.776D-03 0.143D-02
 Coeff-Com:  0.840D-02-0.167D-01-0.146D-01 0.309D-01 0.116D-01-0.263D-01
 Coeff-Com: -0.360D-01 0.784D-01-0.363D-01 0.723D-01-0.125D+00-0.330D-01
 Coeff-Com:  0.272D+00 0.812D+00
 Coeff:     -0.867D-03-0.342D-02 0.185D-03 0.488D-02-0.776D-03 0.143D-02
 Coeff:      0.840D-02-0.167D-01-0.146D-01 0.309D-01 0.116D-01-0.263D-01
 Coeff:     -0.360D-01 0.784D-01-0.363D-01 0.723D-01-0.125D+00-0.330D-01
 Coeff:      0.272D+00 0.812D+00
 Gap=     0.026 Goal=   None    Shift=    0.000
 Gap=     0.026 Goal=   None    Shift=    0.000
 RMSDP=5.86D-06 MaxDP=4.11D-04 DE=-3.02D-09 OVMax= 1.27D-04

 Cycle  29  Pass 1  IDiag  1:
 E= -1136.07626492388     Delta-E=       -0.000000000075 Rises=F Damp=F
 DIIS: error= 7.73D-07 at cycle  29 NSaved=  20.
 NSaved=20 IEnMin=20 EnMin= -1136.07626492388     IErMin=20 ErrMin= 7.73D-07
 ErrMax= 7.73D-07  0.00D+00 EMaxC= 1.00D-01 BMatC= 2.18D-10 BMatP= 3.44D-10
 IDIUse=1 WtCom= 1.00D+00 WtEn= 0.00D+00
 Coeff-Com:  0.154D-04-0.151D-02 0.107D-02 0.130D-02 0.126D-02-0.329D-03
 Coeff-Com: -0.214D-02-0.115D-01 0.196D-01 0.888D-03-0.913D-02-0.666D-02
 Coeff-Com:  0.226D-01-0.486D-01 0.395D-01 0.110D-03-0.386D-01-0.272D-01
 Coeff-Com:  0.101D+00 0.958D+00
 Coeff:      0.154D-04-0.151D-02 0.107D-02 0.130D-02 0.126D-02-0.329D-03
 Coeff:     -0.214D-02-0.115D-01 0.196D-01 0.888D-03-0.913D-02-0.666D-02
 Coeff:      0.226D-01-0.486D-01 0.395D-01 0.110D-03-0.386D-01-0.272D-01
 Coeff:      0.101D+00 0.958D+00
 Gap=     0.026 Goal=   None    Shift=    0.000
 Gap=     0.026 Goal=   None    Shift=    0.000
 RMSDP=1.18D-05 MaxDP=9.33D-04 DE=-7.53D-11 OVMax= 2.55D-04

 Cycle  30  Pass 1  IDiag  1:
 E= -1136.07626492430     Delta-E=       -0.000000000426 Rises=F Damp=F
 DIIS: error= 2.81D-07 at cycle  30 NSaved=  20.
 NSaved=20 IEnMin=20 EnMin= -1136.07626492430     IErMin=20 ErrMin= 2.81D-07
 ErrMax= 2.81D-07  0.00D+00 EMaxC= 1.00D-01 BMatC= 3.18D-11 BMatP= 2.18D-10
 IDIUse=1 WtCom= 1.00D+00 WtEn= 0.00D+00
 Coeff-Com:  0.374D-04 0.109D-02-0.137D-02 0.816D-03 0.646D-03-0.111D-02
 Coeff-Com: -0.270D-02 0.493D-02-0.306D-03 0.579D-03-0.355D-02 0.977D-02
 Coeff-Com: -0.118D-01 0.364D-02-0.119D-01 0.611D-02-0.262D-02-0.308D-01
 Coeff-Com:  0.450D-01 0.994D+00
 Coeff:      0.374D-04 0.109D-02-0.137D-02 0.816D-03 0.646D-03-0.111D-02
 Coeff:     -0.270D-02 0.493D-02-0.306D-03 0.579D-03-0.355D-02 0.977D-02
 Coeff:     -0.118D-01 0.364D-02-0.119D-01 0.611D-02-0.262D-02-0.308D-01
 Coeff:      0.450D-01 0.994D+00
 Gap=     0.026 Goal=   None    Shift=    0.000
 Gap=     0.026 Goal=   None    Shift=    0.000
 RMSDP=2.93D-06 MaxDP=3.51D-04 DE=-4.26D-10 OVMax= 6.01D-05

 Cycle  31  Pass 1  IDiag  1:
 E= -1136.07626492433     Delta-E=       -0.000000000032 Rises=F Damp=F
 DIIS: error= 1.83D-07 at cycle  31 NSaved=  20.
 NSaved=20 IEnMin=20 EnMin= -1136.07626492433     IErMin=20 ErrMin= 1.83D-07
 ErrMax= 1.83D-07  0.00D+00 EMaxC= 1.00D-01 BMatC= 1.33D-11 BMatP= 3.18D-11
 IDIUse=1 WtCom= 1.00D+00 WtEn= 0.00D+00
 Coeff-Com:  0.680D-04 0.695D-03-0.824D-03-0.338D-03 0.132D-02 0.180D-02
 Coeff-Com: -0.174D-02-0.256D-02 0.383D-02-0.537D-02 0.750D-02-0.390D-02
 Coeff-Com:  0.104D-01-0.178D-01-0.330D-02 0.109D-01 0.436D-01-0.123D+00
 Coeff-Com: -0.124D-01 0.109D+01
 Coeff:      0.680D-04 0.695D-03-0.824D-03-0.338D-03 0.132D-02 0.180D-02
 Coeff:     -0.174D-02-0.256D-02 0.383D-02-0.537D-02 0.750D-02-0.390D-02
 Coeff:      0.104D-01-0.178D-01-0.330D-02 0.109D-01 0.436D-01-0.123D+00
 Coeff:     -0.124D-01 0.109D+01
 Gap=     0.026 Goal=   None    Shift=    0.000
 Gap=     0.026 Goal=   None    Shift=    0.000
 RMSDP=1.86D-06 MaxDP=2.62D-04 DE=-3.23D-11 OVMax= 2.60D-05

 Cycle  32  Pass 1  IDiag  1:
 E= -1136.07626492436     Delta-E=       -0.000000000027 Rises=F Damp=F
 DIIS: error= 5.35D-08 at cycle  32 NSaved=  20.
 NSaved=20 IEnMin=20 EnMin= -1136.07626492436     IErMin=20 ErrMin= 5.35D-08
 ErrMax= 5.35D-08  0.00D+00 EMaxC= 1.00D-01 BMatC= 1.28D-12 BMatP= 1.33D-11
 IDIUse=1 WtCom= 1.00D+00 WtEn= 0.00D+00
 Coeff-Com: -0.235D-04-0.115D-04 0.272D-03 0.172D-03-0.339D-03 0.631D-03
 Coeff-Com: -0.314D-03 0.106D-03-0.302D-02 0.252D-02-0.146D-02 0.609D-02
 Coeff-Com: -0.192D-02-0.134D-02-0.532D-02 0.446D-01-0.160D-02-0.167D+00
 Coeff-Com:  0.504D-01 0.108D+01
 Coeff:     -0.235D-04-0.115D-04 0.272D-03 0.172D-03-0.339D-03 0.631D-03
 Coeff:     -0.314D-03 0.106D-03-0.302D-02 0.252D-02-0.146D-02 0.609D-02
 Coeff:     -0.192D-02-0.134D-02-0.532D-02 0.446D-01-0.160D-02-0.167D+00
 Coeff:      0.504D-01 0.108D+01
 Gap=     0.026 Goal=   None    Shift=    0.000
 Gap=     0.026 Goal=   None    Shift=    0.000
 RMSDP=1.65D-06 MaxDP=1.21D-04 DE=-2.68D-11 OVMax= 5.19D-05

 Cycle  33  Pass 1  IDiag  1:
 E= -1136.07626492437     Delta-E=       -0.000000000008 Rises=F Damp=F
 DIIS: error= 4.87D-08 at cycle  33 NSaved=  20.
 NSaved=20 IEnMin=20 EnMin= -1136.07626492437     IErMin=20 ErrMin= 4.87D-08
 ErrMax= 4.87D-08  0.00D+00 EMaxC= 1.00D-01 BMatC= 1.03D-12 BMatP= 1.28D-12
 IDIUse=1 WtCom= 1.00D+00 WtEn= 0.00D+00
 Coeff-Com: -0.235D-04 0.461D-03-0.693D-03-0.676D-03 0.951D-03 0.109D-02
 Coeff-Com: -0.212D-02 0.879D-03 0.102D-02 0.575D-03-0.263D-02 0.910D-03
 Coeff-Com:  0.754D-02 0.343D-02-0.212D-02 0.170D-01-0.787D-01-0.377D+00
 Coeff-Com:  0.481D+00 0.949D+00
 Coeff:     -0.235D-04 0.461D-03-0.693D-03-0.676D-03 0.951D-03 0.109D-02
 Coeff:     -0.212D-02 0.879D-03 0.102D-02 0.575D-03-0.263D-02 0.910D-03
 Coeff:      0.754D-02 0.343D-02-0.212D-02 0.170D-01-0.787D-01-0.377D+00
 Coeff:      0.481D+00 0.949D+00
 Gap=     0.026 Goal=   None    Shift=    0.000
 Gap=     0.026 Goal=   None    Shift=    0.000
 RMSDP=1.32D-06 MaxDP=1.06D-04 DE=-7.96D-12 OVMax= 3.52D-05

 Cycle  34  Pass 1  IDiag  1:
 E= -1136.07626492437     Delta-E=       -0.000000000004 Rises=F Damp=F
 DIIS: error= 2.67D-08 at cycle  34 NSaved=  20.
 NSaved=20 IEnMin=20 EnMin= -1136.07626492437     IErMin=20 ErrMin= 2.67D-08
 ErrMax= 2.67D-08  0.00D+00 EMaxC= 1.00D-01 BMatC= 2.79D-13 BMatP= 1.03D-12
 IDIUse=1 WtCom= 1.00D+00 WtEn= 0.00D+00
 Coeff-Com: -0.551D-05-0.989D-04 0.425D-04 0.533D-04 0.216D-03-0.715D-03
 Coeff-Com:  0.131D-02 0.105D-03-0.756D-03-0.228D-02 0.575D-03 0.297D-02
 Coeff-Com:  0.175D-02-0.220D-01 0.445D-02 0.592D-01-0.125D+00-0.125D+00
 Coeff-Com:  0.718D-01 0.113D+01
 Coeff:     -0.551D-05-0.989D-04 0.425D-04 0.533D-04 0.216D-03-0.715D-03
 Coeff:      0.131D-02 0.105D-03-0.756D-03-0.228D-02 0.575D-03 0.297D-02
 Coeff:      0.175D-02-0.220D-01 0.445D-02 0.592D-01-0.125D+00-0.125D+00
 Coeff:      0.718D-01 0.113D+01
 Gap=     0.026 Goal=   None    Shift=    0.000
 Gap=     0.026 Goal=   None    Shift=    0.000
 RMSDP=4.45D-07 MaxDP=3.33D-05 DE=-3.87D-12 OVMax= 7.62D-06

 Cycle  35  Pass 1  IDiag  1:
 E= -1136.07626492438     Delta-E=       -0.000000000009 Rises=F Damp=F
 DIIS: error= 1.08D-08 at cycle  35 NSaved=  20.
 NSaved=20 IEnMin=20 EnMin= -1136.07626492438     IErMin=20 ErrMin= 1.08D-08
 ErrMax= 1.08D-08  0.00D+00 EMaxC= 1.00D-01 BMatC= 2.26D-14 BMatP= 2.79D-13
 IDIUse=1 WtCom= 1.00D+00 WtEn= 0.00D+00
 Coeff-Com:  0.500D-04 0.743D-04-0.123D-03-0.886D-04-0.221D-04 0.585D-03
 Coeff-Com: -0.761D-04-0.932D-03-0.265D-03-0.153D-03-0.503D-03-0.613D-04
 Coeff-Com: -0.813D-02 0.152D-01 0.438D-01 0.180D-01-0.149D+00-0.228D+00
 Coeff-Com:  0.415D+00 0.895D+00
 Coeff:      0.500D-04 0.743D-04-0.123D-03-0.886D-04-0.221D-04 0.585D-03
 Coeff:     -0.761D-04-0.932D-03-0.265D-03-0.153D-03-0.503D-03-0.613D-04
 Coeff:     -0.813D-02 0.152D-01 0.438D-01 0.180D-01-0.149D+00-0.228D+00
 Coeff:      0.415D+00 0.895D+00
 Gap=     0.026 Goal=   None    Shift=    0.000
 Gap=     0.026 Goal=   None    Shift=    0.000
 RMSDP=1.65D-07 MaxDP=2.35D-05 DE=-9.32D-12 OVMax= 4.68D-06

 Cycle  36  Pass 1  IDiag  1:
 E= -1136.07626492439     Delta-E=       -0.000000000007 Rises=F Damp=F
 DIIS: error= 5.25D-09 at cycle  36 NSaved=  20.
 NSaved=20 IEnMin=20 EnMin= -1136.07626492439     IErMin=20 ErrMin= 5.25D-09
 ErrMax= 5.25D-09  0.00D+00 EMaxC= 1.00D-01 BMatC= 1.22D-14 BMatP= 2.26D-14
 IDIUse=1 WtCom= 1.00D+00 WtEn= 0.00D+00
 Large coefficients: NSaved= 20 BigCof=    0.00 CofMax=   10.00 Det=-7.79D-15
 Inversion failed.  Reducing to 19 matrices.
 Large coefficients: NSaved= 19 BigCof=    0.00 CofMax=   10.00 Det=-7.95D-15
 Inversion failed.  Reducing to 18 matrices.
 Large coefficients: NSaved= 18 BigCof=    0.00 CofMax=   10.00 Det=-7.96D-15
 Inversion failed.  Reducing to 17 matrices.
 Large coefficients: NSaved= 17 BigCof=    0.00 CofMax=   10.00 Det=-8.23D-15
 Inversion failed.  Reducing to 16 matrices.
 Large coefficients: NSaved= 16 BigCof=    0.00 CofMax=   10.00 Det=-8.37D-15
 Inversion failed.  Reducing to 15 matrices.
 Coeff-Com: -0.209D-03 0.215D-03-0.335D-03 0.526D-03 0.201D-03-0.293D-02
 Coeff-Com: -0.110D-02 0.356D-02 0.184D-01 0.160D-02-0.246D-01-0.355D-01
 Coeff-Com: -0.182D+00 0.250D+00 0.972D+00
 Coeff:     -0.209D-03 0.215D-03-0.335D-03 0.526D-03 0.201D-03-0.293D-02
 Coeff:     -0.110D-02 0.356D-02 0.184D-01 0.160D-02-0.246D-01-0.355D-01
 Coeff:     -0.182D+00 0.250D+00 0.972D+00
 Gap=     0.026 Goal=   None    Shift=    0.000
 Gap=     0.026 Goal=   None    Shift=    0.000
 RMSDP=1.04D-07 MaxDP=7.30D-06 DE=-6.59D-12 OVMax= 3.04D-06

 Cycle  37  Pass 1  IDiag  1:
 E= -1136.07626492437     Delta-E=        0.000000000019 Rises=F Damp=F
 DIIS: error= 5.44D-09 at cycle  37 NSaved=  16.
 NSaved=16 IEnMin=15 EnMin= -1136.07626492439     IErMin=15 ErrMin= 5.25D-09
 ErrMax= 5.44D-09  0.00D+00 EMaxC= 1.00D-01 BMatC= 9.62D-15 BMatP= 1.22D-14
 IDIUse=1 WtCom= 1.00D+00 WtEn= 0.00D+00
 Large coefficients: NSaved= 16 BigCof=    0.00 CofMax=   10.00 Det=-2.24D-15
 Inversion failed.  Reducing to 15 matrices.
 Coeff-Com:  0.444D-03-0.660D-03 0.330D-03 0.944D-03-0.171D-02-0.302D-02
 Coeff-Com: -0.415D-02 0.193D-01 0.190D-03 0.863D-02 0.794D-01-0.205D+00
 Coeff-Com: -0.876D-01 0.306D+00 0.887D+00
 Coeff:      0.444D-03-0.660D-03 0.330D-03 0.944D-03-0.171D-02-0.302D-02
 Coeff:     -0.415D-02 0.193D-01 0.190D-03 0.863D-02 0.794D-01-0.205D+00
 Coeff:     -0.876D-01 0.306D+00 0.887D+00
 Gap=     0.026 Goal=   None    Shift=    0.000
 Gap=     0.026 Goal=   None    Shift=    0.000
 RMSDP=5.28D-08 MaxDP=7.02D-06 DE= 1.86D-11 OVMax= 1.18D-06

 Cycle  38  Pass 1  IDiag  1:
 E= -1136.07626492437     Delta-E=       -0.000000000002 Rises=F Damp=F
 DIIS: error= 5.10D-09 at cycle  38 NSaved=  16.
 NSaved=16 IEnMin=14 EnMin= -1136.07626492439     IErMin=16 ErrMin= 5.10D-09
 ErrMax= 5.10D-09  0.00D+00 EMaxC= 1.00D-01 BMatC= 7.43D-15 BMatP= 9.62D-15
 IDIUse=1 WtCom= 1.00D+00 WtEn= 0.00D+00
 Large coefficients: NSaved= 16 BigCof=    0.00 CofMax=   10.00 Det=-7.54D-16
 Inversion failed.  Reducing to 15 matrices.
 Coeff-Com: -0.106D-03 0.352D-03 0.626D-04-0.930D-03-0.301D-02-0.298D-04
 Coeff-Com:  0.387D-02-0.807D-02-0.486D-02 0.722D-01 0.844D-03-0.620D-01
 Coeff-Com: -0.242D+00 0.113D+00 0.113D+01
 Coeff:     -0.106D-03 0.352D-03 0.626D-04-0.930D-03-0.301D-02-0.298D-04
 Coeff:      0.387D-02-0.807D-02-0.486D-02 0.722D-01 0.844D-03-0.620D-01
 Coeff:     -0.242D+00 0.113D+00 0.113D+01
 Gap=     0.026 Goal=   None    Shift=    0.000
 Gap=     0.026 Goal=   None    Shift=    0.000
 RMSDP=4.05D-08 MaxDP=2.73D-06 DE=-1.59D-12 OVMax= 1.13D-06

 Cycle  39  Pass 1  IDiag  1:
 E= -1136.07626492438     Delta-E=       -0.000000000007 Rises=F Damp=F
 DIIS: error= 5.41D-09 at cycle  39 NSaved=  16.
 NSaved=16 IEnMin=13 EnMin= -1136.07626492439     IErMin=15 ErrMin= 5.10D-09
 ErrMax= 5.41D-09  0.00D+00 EMaxC= 1.00D-01 BMatC= 7.26D-15 BMatP= 7.43D-15
 IDIUse=1 WtCom= 1.00D+00 WtEn= 0.00D+00
 Large coefficients: NSaved= 16 BigCof=    0.00 CofMax=   10.00 Det=-2.55D-16
 Inversion failed.  Reducing to 15 matrices.
 Coeff-Com:  0.277D-03-0.472D-04-0.721D-03-0.223D-02-0.104D-02-0.482D-03
 Coeff-Com: -0.852D-02-0.375D-02 0.841D-01 0.294D-01-0.807D-01-0.365D+00
 Coeff-Com: -0.886D-01 0.863D+00 0.574D+00
 Coeff:      0.277D-03-0.472D-04-0.721D-03-0.223D-02-0.104D-02-0.482D-03
 Coeff:     -0.852D-02-0.375D-02 0.841D-01 0.294D-01-0.807D-01-0.365D+00
 Coeff:     -0.886D-01 0.863D+00 0.574D+00
 Gap=     0.026 Goal=   None    Shift=    0.000
 Gap=     0.026 Goal=   None    Shift=    0.000
 RMSDP=2.03D-08 MaxDP=1.43D-06 DE=-6.59D-12 OVMax= 5.60D-07

 Cycle  40  Pass 1  IDiag  1:
 E= -1136.07626492438     Delta-E=        0.000000000001 Rises=F Damp=F
 DIIS: error= 5.82D-09 at cycle  40 NSaved=  16.
 NSaved=16 IEnMin=12 EnMin= -1136.07626492439     IErMin=14 ErrMin= 5.10D-09
 ErrMax= 5.82D-09  0.00D+00 EMaxC= 1.00D-01 BMatC= 7.33D-15 BMatP= 7.26D-15
 IDIUse=1 WtCom= 1.00D+00 WtEn= 0.00D+00
 Large coefficients: NSaved= 16 BigCof=    0.00 CofMax=   10.00 Det=-1.57D-17
 Inversion failed.  Reducing to 15 matrices.
 Coeff-Com:  0.135D-03-0.442D-03-0.249D-02-0.204D-03 0.274D-02-0.113D-01
 Coeff-Com: -0.164D-01 0.690D-01 0.604D-01-0.516D-01-0.356D+00-0.142D+00
 Coeff-Com:  0.115D+01 0.132D+01-0.102D+01
 Coeff:      0.135D-03-0.442D-03-0.249D-02-0.204D-03 0.274D-02-0.113D-01
 Coeff:     -0.164D-01 0.690D-01 0.604D-01-0.516D-01-0.356D+00-0.142D+00
 Coeff:      0.115D+01 0.132D+01-0.102D+01
 Gap=     0.026 Goal=   None    Shift=    0.000
 Gap=     0.026 Goal=   None    Shift=    0.000
 RMSDP=3.41D-08 MaxDP=1.81D-06 DE= 1.36D-12 OVMax= 1.18D-06

 Cycle  41  Pass 1  IDiag  1:
 E= -1136.07626492439     Delta-E=       -0.000000000012 Rises=F Damp=F
 DIIS: error= 5.45D-09 at cycle  41 NSaved=  16.
 NSaved=16 IEnMin=16 EnMin= -1136.07626492439     IErMin=13 ErrMin= 5.10D-09
 ErrMax= 5.45D-09  0.00D+00 EMaxC= 1.00D-01 BMatC= 7.81D-15 BMatP= 7.26D-15
 IDIUse=1 WtCom= 1.00D+00 WtEn= 0.00D+00
 Large coefficients: NSaved= 16 BigCof=    0.00 CofMax=   10.00 Det=-1.15D-17
 Inversion failed.  Reducing to 15 matrices.
 Coeff-Com: -0.519D-03-0.332D-02 0.774D-03 0.417D-02-0.120D-01-0.225D-01
 Coeff-Com:  0.598D-01 0.880D-01-0.465D-01-0.397D+00-0.228D+00 0.117D+01
 Coeff-Com:  0.164D+01-0.181D+01 0.561D+00
 Coeff:     -0.519D-03-0.332D-02 0.774D-03 0.417D-02-0.120D-01-0.225D-01
 Coeff:      0.598D-01 0.880D-01-0.465D-01-0.397D+00-0.228D+00 0.117D+01
 Coeff:      0.164D+01-0.181D+01 0.561D+00
 Gap=     0.026 Goal=   None    Shift=    0.000
 Gap=     0.026 Goal=   None    Shift=    0.000
 RMSDP=7.66D-09 MaxDP=5.62D-07 DE=-1.23D-11 OVMax= 1.20D-07

 SCF Done:  E(UB3LYP) =  -1136.07626492     A.U. after   41 cycles
            NFock= 41  Conv=0.77D-08     -V/T= 2.0025
 <Sx>= 0.0000 <Sy>= 0.0000 <Sz>= 0.5000 <S**2>= 0.8245 S= 0.5366
 <L.S>= 0.000000000000E+00
 KE= 1.133204315626D+03 PE=-3.428868166883D+03 EE= 8.096632788080D+02
 Annihilation of the first spin contaminant:
 S**2 before annihilation     0.8245,   after     0.7515
 Leave Link  502 at Mon Nov 13 17:59:59 2023, MaxMem=  1879048192 cpu:             382.9 elap:              33.5
 (Enter /home/sekinelabo/g16/l601.exe)
 Copying SCF densities to generalized density rwf, IOpCl= 1 IROHF=0.

 **********************************************************************

            Population analysis using the SCF Density.

 **********************************************************************

 Orbital symmetries:
 Alpha Orbitals:
       Occupied  (A) (A) (A) (A) (A) (A) (A) (A) (A) (A) (A) (A)
                 (A) (A) (A) (A) (A) (A) (A) (A) (A) (A) (A) (A)
                 (A) (A) (A) (A) (A) (A) (A) (A) (A) (A) (A) (A)
                 (A) (A) (A)
       Virtual   (A) (A) (A) (A) (A) (A) (A) (A) (A) (A) (A) (A)
                 (A) (A) (A) (A) (A) (A) (A) (A) (A) (A) (A) (A)
                 (A) (A) (A) (A) (A) (A) (A) (A) (A) (A) (A) (A)
                 (A) (A) (A) (A) (A) (A) (A) (A) (A) (A) (A) (A)
                 (A) (A) (A) (A) (A) (A) (A) (A) (A) (A) (A) (A)
                 (A) (A) (A) (A) (A) (A) (A) (A) (A) (A) (A) (A)
                 (A) (A) (A) (A) (A) (A) (A) (A) (A) (A) (A) (A)
                 (A) (A) (A) (A) (A) (A) (A) (A) (A) (A) (A) (A)
                 (A) (A) (A) (A) (A) (A) (A) (A) (A) (A) (A) (A)
                 (A) (A) (A) (A) (A) (A) (A) (A) (A) (A) (A) (A)
                 (A) (A) (A) (A) (A) (A) (A) (A) (A) (A) (A) (A)
                 (A) (A) (A) (A) (A) (A) (A) (A) (A) (A) (A) (A)
                 (A) (A) (A) (A) (A) (A) (A) (A) (A) (A) (A) (A)
                 (A) (A) (A) (A) (A) (A) (A) (A) (A) (A) (A) (A)
                 (A) (A) (A)
 Beta  Orbitals:
       Occupied  (A) (A) (A) (A) (A) (A) (A) (A) (A) (A) (A) (A)
                 (A) (A) (A) (A) (A) (A) (A) (A) (A) (A) (A) (A)
                 (A) (A) (A) (A) (A) (A) (A) (A) (A) (A) (A) (A)
                 (A) (A)
       Virtual   (A) (A) (A) (A) (A) (A) (A) (A) (A) (A) (A) (A)
                 (A) (A) (A) (A) (A) (A) (A) (A) (A) (A) (A) (A)
                 (A) (A) (A) (A) (A) (A) (A) (A) (A) (A) (A) (A)
                 (A) (A) (A) (A) (A) (A) (A) (A) (A) (A) (A) (A)
                 (A) (A) (A) (A) (A) (A) (A) (A) (A) (A) (A) (A)
                 (A) (A) (A) (A) (A) (A) (A) (A) (A) (A) (A) (A)
                 (A) (A) (A) (A) (A) (A) (A) (A) (A) (A) (A) (A)
                 (A) (A) (A) (A) (A) (A) (A) (A) (A) (A) (A) (A)
                 (A) (A) (A) (A) (A) (A) (A) (A) (A) (A) (A) (A)
                 (A) (A) (A) (A) (A) (A) (A) (A) (A) (A) (A) (A)
                 (A) (A) (A) (A) (A) (A) (A) (A) (A) (A) (A) (A)
                 (A) (A) (A) (A) (A) (A) (A) (A) (A) (A) (A) (A)
                 (A) (A) (A) (A) (A) (A) (A) (A) (A) (A) (A) (A)
                 (A) (A) (A) (A) (A) (A) (A) (A) (A) (A) (A) (A)
                 (A) (A) (A) (A)
 The electronic state is 2-A.
 Alpha  occ. eigenvalues --  -38.46189 -38.44771 -38.44671 -38.44597 -38.44023
 Alpha  occ. eigenvalues --  -38.43916 -38.42489  -2.22158  -2.20755  -2.20646
 Alpha  occ. eigenvalues --   -2.20604  -2.19933  -2.19893  -2.18691  -1.15880
 Alpha  occ. eigenvalues --   -1.15817  -1.15781  -1.14488  -1.14449  -1.14439
 Alpha  occ. eigenvalues --   -1.14378  -1.14320  -1.14285  -1.14257  -1.14227
 Alpha  occ. eigenvalues --   -1.14128  -1.13709  -1.13602  -1.13577  -1.13552
 Alpha  occ. eigenvalues --   -1.13533  -1.13439  -1.12396  -1.12358  -1.12295
 Alpha  occ. eigenvalues --   -0.19479  -0.16072  -0.11098  -0.10071
 Alpha virt. eigenvalues --   -0.07511  -0.05843  -0.05223  -0.03102  -0.02776
 Alpha virt. eigenvalues --   -0.01810  -0.01672  -0.01324  -0.00756  -0.00462
 Alpha virt. eigenvalues --   -0.00040   0.00142   0.00273   0.00526   0.00606
 Alpha virt. eigenvalues --    0.00707   0.00844   0.00923   0.01064   0.01531
 Alpha virt. eigenvalues --    0.01563   0.01617   0.01867   0.01886   0.01993
 Alpha virt. eigenvalues --    0.02046   0.02140   0.02364   0.02541   0.02608
 Alpha virt. eigenvalues --    0.02623   0.02658   0.02703   0.02790   0.02995
 Alpha virt. eigenvalues --    0.03069   0.03239   0.03344   0.03661   0.04040
 Alpha virt. eigenvalues --    0.04142   0.04397   0.04527   0.04622   0.05004
 Alpha virt. eigenvalues --    0.05137   0.05280   0.05545   0.05665   0.05972
 Alpha virt. eigenvalues --    0.06128   0.06447   0.06677   0.06909   0.07130
 Alpha virt. eigenvalues --    0.07379   0.07624   0.07945   0.08431   0.08716
 Alpha virt. eigenvalues --    0.09161   0.09760   0.10270   0.11170   0.11244
 Alpha virt. eigenvalues --    0.11846   0.12160   0.12491   0.12593   0.13514
 Alpha virt. eigenvalues --    0.13691   0.14352   0.14617   0.14917   0.15112
 Alpha virt. eigenvalues --    0.15255   0.15969   0.16311   0.17858   0.19007
 Alpha virt. eigenvalues --    0.24134   0.25003   0.26153   0.27701   0.28430
 Alpha virt. eigenvalues --    0.29417   0.30338   0.31189   0.32263   0.32484
 Alpha virt. eigenvalues --    0.34515   0.35211   0.35539   0.37070   0.37657
 Alpha virt. eigenvalues --    0.39324   0.39842   0.41061   0.42270   0.42588
 Alpha virt. eigenvalues --    0.42878   0.43273   0.43531   0.44017   0.44571
 Alpha virt. eigenvalues --    0.44742   0.45019   0.45302   0.45486   0.45894
 Alpha virt. eigenvalues --    0.46332   0.47306   0.47915   0.48804   0.49484
 Alpha virt. eigenvalues --    0.49547   0.50298   0.50665   0.51668   0.52121
 Alpha virt. eigenvalues --    0.52230   0.54268   0.55677   0.56519   0.58887
 Alpha virt. eigenvalues --    0.63087   0.65926   0.68933   0.69334   0.70911
 Alpha virt. eigenvalues --    0.71480   0.72068   0.72792   0.73220   0.79132
 Alpha virt. eigenvalues --    0.83518   2.11518   2.13704   2.19583   2.20666
 Alpha virt. eigenvalues --    2.23076   2.23952   2.35920   4.39882   4.40609
 Alpha virt. eigenvalues --    4.40989   4.41825   4.41930   4.42113   4.43248
 Alpha virt. eigenvalues --    4.44688   4.45455   4.46839   4.51296   4.54845
 Alpha virt. eigenvalues --    4.55251   4.56726   4.60721   4.64446   4.70105
 Alpha virt. eigenvalues --    4.71663   4.73977   4.74236   4.80390  96.32610
 Alpha virt. eigenvalues --   96.35748  96.44402  96.46038  96.49262  96.50139
 Alpha virt. eigenvalues --   96.64988
  Beta  occ. eigenvalues --  -38.46165 -38.44750 -38.44646 -38.44531 -38.43995
  Beta  occ. eigenvalues --  -38.43921 -38.42447  -2.22120  -2.20718  -2.20606
  Beta  occ. eigenvalues --   -2.20481  -2.19909  -2.19875  -2.18624  -1.15863
  Beta  occ. eigenvalues --   -1.15751  -1.15743  -1.14470  -1.14406  -1.14380
  Beta  occ. eigenvalues --   -1.14360  -1.14269  -1.14238  -1.14182  -1.14147
  Beta  occ. eigenvalues --   -1.14044  -1.13684  -1.13597  -1.13559  -1.13539
  Beta  occ. eigenvalues --   -1.13506  -1.13423  -1.12362  -1.12298  -1.12196
  Beta  occ. eigenvalues --   -0.18740  -0.15732  -0.09921
  Beta virt. eigenvalues --   -0.07288  -0.07192  -0.05429  -0.04828  -0.02954
  Beta virt. eigenvalues --   -0.02497  -0.01360  -0.01176  -0.00793  -0.00655
  Beta virt. eigenvalues --   -0.00240   0.00048   0.00234   0.00356   0.00594
  Beta virt. eigenvalues --    0.00723   0.00762   0.00901   0.00937   0.01115
  Beta virt. eigenvalues --    0.01602   0.01687   0.01760   0.01907   0.01941
  Beta virt. eigenvalues --    0.02044   0.02135   0.02237   0.02413   0.02557
  Beta virt. eigenvalues --    0.02622   0.02671   0.02698   0.02758   0.02827
  Beta virt. eigenvalues --    0.03010   0.03142   0.03249   0.03396   0.03773
  Beta virt. eigenvalues --    0.04139   0.04252   0.04507   0.04620   0.04762
  Beta virt. eigenvalues --    0.05160   0.05202   0.05390   0.05579   0.05688
  Beta virt. eigenvalues --    0.06005   0.06238   0.06510   0.06831   0.07077
  Beta virt. eigenvalues --    0.07271   0.07495   0.07703   0.08164   0.08513
  Beta virt. eigenvalues --    0.08897   0.09258   0.09988   0.10533   0.11382
  Beta virt. eigenvalues --    0.11469   0.12166   0.12293   0.12628   0.12727
  Beta virt. eigenvalues --    0.13676   0.13982   0.14512   0.14766   0.15062
  Beta virt. eigenvalues --    0.15292   0.15473   0.16181   0.16487   0.18031
  Beta virt. eigenvalues --    0.19332   0.24408   0.25135   0.26454   0.27824
  Beta virt. eigenvalues --    0.28776   0.29754   0.30631   0.31511   0.32578
  Beta virt. eigenvalues --    0.32737   0.34784   0.35441   0.35826   0.37389
  Beta virt. eigenvalues --    0.37814   0.39636   0.40115   0.41324   0.42388
  Beta virt. eigenvalues --    0.42797   0.43176   0.43483   0.43855   0.44164
  Beta virt. eigenvalues --    0.44741   0.44822   0.45238   0.45413   0.45629
  Beta virt. eigenvalues --    0.45983   0.46429   0.47464   0.48139   0.48921
  Beta virt. eigenvalues --    0.49625   0.49704   0.50478   0.50802   0.51807
  Beta virt. eigenvalues --    0.52246   0.52359   0.54418   0.55812   0.56717
  Beta virt. eigenvalues --    0.59148   0.63251   0.66042   0.69211   0.69494
  Beta virt. eigenvalues --    0.70990   0.71565   0.72162   0.72862   0.73272
  Beta virt. eigenvalues --    0.79171   0.83670   2.11613   2.13822   2.19682
  Beta virt. eigenvalues --    2.20703   2.23249   2.24032   2.36038   4.39908
  Beta virt. eigenvalues --    4.40655   4.41040   4.41898   4.41996   4.42176
  Beta virt. eigenvalues --    4.43297   4.44738   4.45487   4.46888   4.51327
  Beta virt. eigenvalues --    4.54892   4.55353   4.56830   4.60745   4.64526
  Beta virt. eigenvalues --    4.70137   4.71677   4.73996   4.74290   4.80424
  Beta virt. eigenvalues --   96.32645  96.35790  96.44432  96.46055  96.49321
  Beta virt. eigenvalues --   96.50167  96.65032
          Condensed to atoms (all electrons):
               1          2          3          4          5          6
     1  Na  15.873811  -4.025393  -0.430771   1.691275  -3.632946   0.504847
     2  Na  -4.025393  17.671494   0.056395  -1.435111   0.542302   0.052543
     3  Na  -0.430771   0.056395  11.370992  -0.107787  -0.417453   0.265982
     4  Na   1.691275  -1.435111  -0.107787  12.127961  -1.384922   0.728512
     5  Na  -3.632946   0.542302  -0.417453  -1.384922  19.533852  -1.878073
     6  Na   0.504847   0.052543   0.265982   0.728512  -1.878073  13.035815
     7  Na  -0.211208  -1.778700   0.514082  -1.366977   0.082563  -1.570509
               7
     1  Na  -0.211208
     2  Na  -1.778700
     3  Na   0.514082
     4  Na  -1.366977
     5  Na   0.082563
     6  Na  -1.570509
     7  Na  14.988770
          Atomic-Atomic Spin Densities.
               1          2          3          4          5          6
     1  Na   0.447820   0.621037   0.079609   0.715994  -1.536930   1.022465
     2  Na   0.621037  -2.260003   0.105296  -0.054721   1.070698  -0.380615
     3  Na   0.079609   0.105296   0.144962  -0.275669  -0.161086   0.139533
     4  Na   0.715994  -0.054721  -0.275669   0.490351  -0.960539   0.516157
     5  Na  -1.536930   1.070698  -0.161086  -0.960539   2.575551  -1.806978
     6  Na   1.022465  -0.380615   0.139533   0.516157  -1.806978   1.296672
     7  Na  -1.411828   1.244031   0.139738  -0.742587   1.056141  -0.577652
               7
     1  Na  -1.411828
     2  Na   1.244031
     3  Na   0.139738
     4  Na  -0.742587
     5  Na   1.056141
     6  Na  -0.577652
     7  Na   0.700457
 Mulliken charges and spin densities:
               1          2
     1  Na   1.230384  -0.061832
     2  Na  -0.083530   0.345723
     3  Na  -0.251441   0.172384
     4  Na   0.747049  -0.311014
     5  Na  -1.845324   0.236857
     6  Na  -0.139117   0.209582
     7  Na   0.341980   0.408300
 Sum of Mulliken charges =  -0.00000   1.00000
 Mulliken charges and spin densities with hydrogens summed into heavy atoms:
               1          2
     1  Na   1.230384  -0.061832
     2  Na  -0.083530   0.345723
     3  Na  -0.251441   0.172384
     4  Na   0.747049  -0.311014
     5  Na  -1.845324   0.236857
     6  Na  -0.139117   0.209582
     7  Na   0.341980   0.408300
 Electronic spatial extent (au):  <R**2>=           2548.9110
 Charge=             -0.0000 electrons
 Dipole moment (field-independent basis, Debye):
    X=             -1.1230    Y=              0.0304    Z=             -0.5454  Tot=              1.2488
 Quadrupole moment (field-independent basis, Debye-Ang):
   XX=            -55.1790   YY=            -76.0304   ZZ=            -68.1681
   XY=              1.5227   XZ=              3.6258   YZ=              7.5947
 Traceless Quadrupole moment (field-independent basis, Debye-Ang):
   XX=             11.2802   YY=             -9.5713   ZZ=             -1.7089
   XY=              1.5227   XZ=              3.6258   YZ=              7.5947
 Octapole moment (field-independent basis, Debye-Ang**2):
  XXX=            -43.2412  YYY=             10.7951  ZZZ=             -2.1919  XYY=              5.9285
  XXY=             20.1695  XXZ=            -36.9382  XZZ=             -6.4867  YZZ=            -10.5677
  YYZ=             -7.7628  XYZ=             -7.5305
 Hexadecapole moment (field-independent basis, Debye-Ang**3):
 XXXX=          -2733.5942 YYYY=           -958.8956 ZZZZ=           -742.3532 XXXY=             31.4555
 XXXZ=            138.3760 YYYX=              9.5824 YYYZ=             61.6689 ZZZX=             15.1263
 ZZZY=             51.1166 XXYY=           -598.9843 XXZZ=           -539.0744 YYZZ=           -275.3837
 XXYZ=             66.7229 YYXZ=            -26.0172 ZZXY=             12.0042
 N-N= 3.499243075254D+02 E-N=-3.428868166853D+03  KE= 1.133204315626D+03
                          Isotropic Fermi Contact Couplings
        Atom                 a.u.       MegaHertz       Gauss      10(-4) cm-1
     1  Na(23)             0.02871      33.96815      12.12068      11.33055
     2  Na(23)            -0.05684     -67.24305     -23.99399     -22.42987
     3  Na(23)             0.12938     153.06162      54.61619      51.05586
     4  Na(23)             0.05190      61.40031      21.90916      20.48094
     5  Na(23)             0.08113      95.97960      34.24791      32.01535
     6  Na(23)             0.03412      40.36772      14.40421      13.46522
     7  Na(23)             0.28313     334.95391     119.51988     111.72860
 --------------------------------------------------------
       Center         ----  Spin Dipole Couplings  ----
                      3XX-RR        3YY-RR        3ZZ-RR
 --------------------------------------------------------
     1   Atom        0.009827      0.003835     -0.013662
     2   Atom        0.007491     -0.017437      0.009946
     3   Atom        0.000505      0.000840     -0.001345
     4   Atom        0.041270     -0.026230     -0.015040
     5   Atom       -0.044089      0.051960     -0.007871
     6   Atom       -0.012915      0.021467     -0.008552
     7   Atom       -0.003294     -0.002772      0.006066
 --------------------------------------------------------
                        XY            XZ            YZ
 --------------------------------------------------------
     1   Atom       -0.027741     -0.020284      0.002265
     2   Atom        0.010704      0.024304      0.007429
     3   Atom       -0.002078     -0.003432     -0.006954
     4   Atom        0.009999      0.015128      0.007437
     5   Atom       -0.029794     -0.013011      0.051520
     6   Atom       -0.019798     -0.018140      0.033861
     7   Atom        0.007221     -0.001283     -0.012394
 --------------------------------------------------------


 ---------------------------------------------------------------------------------
              Anisotropic Spin Dipole Couplings in Principal Axis System
 ---------------------------------------------------------------------------------

       Atom             a.u.   MegaHertz   Gauss  10(-4) cm-1        Axes

              Baa    -0.0314    -4.438    -1.584    -1.480  0.6178  0.4444  0.6487
     1 Na(23) Bbb    -0.0087    -1.224    -0.437    -0.408 -0.2468 -0.6738  0.6965
              Bcc     0.0401     5.662     2.020     1.889  0.7466 -0.5904 -0.3066
 
              Baa    -0.0216    -3.048    -1.088    -1.017 -0.4305  0.8944  0.1211
     2 Na(23) Bbb    -0.0145    -2.050    -0.732    -0.684 -0.5950 -0.3821  0.7071
              Bcc     0.0361     5.098     1.819     1.701  0.6787  0.2324  0.6967
 
              Baa    -0.0090    -1.264    -0.451    -0.422  0.3870  0.5870  0.7111
     3 Na(23) Bbb     0.0021     0.295     0.105     0.098  0.9139 -0.3470 -0.2108
              Bcc     0.0069     0.970     0.346     0.323  0.1230  0.7314 -0.6707
 
              Baa    -0.0300    -4.241    -1.513    -1.415 -0.0405  0.9108 -0.4109
     4 Na(23) Bbb    -0.0169    -2.382    -0.850    -0.795 -0.2937  0.3823  0.8761
              Bcc     0.0469     6.623     2.363     2.209  0.9550  0.1562  0.2520
 
              Baa    -0.0527    -7.443    -2.656    -2.483  0.9475  0.3093 -0.0805
     5 Na(23) Bbb    -0.0367    -5.187    -1.851    -1.730  0.2163 -0.4351  0.8740
              Bcc     0.0894    12.631     4.507     4.213 -0.2354  0.8456  0.4791
 
              Baa    -0.0325    -4.585    -1.636    -1.529  0.3894 -0.3830  0.8377
     6 Na(23) Bbb    -0.0215    -3.043    -1.086    -1.015  0.8439  0.5127 -0.1579
              Bcc     0.0540     7.627     2.722     2.544 -0.3690  0.7684  0.5228
 
              Baa    -0.0142    -2.003    -0.715    -0.668 -0.4587  0.7706  0.4425
     7 Na(23) Bbb    -0.0021    -0.293    -0.105    -0.098  0.8468  0.2281  0.4806
              Bcc     0.0163     2.297     0.820     0.766 -0.2694 -0.5951  0.7571
 

 ---------------------------------------------------------------------------------

 No NMR shielding tensors so no spin-rotation constants.
 Leave Link  601 at Mon Nov 13 18:00:00 2023, MaxMem=  1879048192 cpu:               3.8 elap:               0.3
 (Enter /home/sekinelabo/g16/l701.exe)
 ... and contract with generalized density number  0.
 Compute integral first derivatives.
 Leave Link  701 at Mon Nov 13 18:00:00 2023, MaxMem=  1879048192 cpu:               1.7 elap:               0.1
 (Enter /home/sekinelabo/g16/l702.exe)
 L702 exits ... SP integral derivatives will be done elsewhere.
 Leave Link  702 at Mon Nov 13 18:00:00 2023, MaxMem=  1879048192 cpu:               0.5 elap:               0.0
 (Enter /home/sekinelabo/g16/l703.exe)
 Integral derivatives from FoFJK, PRISM(SPDF).
 Compute integral first derivatives, UseDBF=F ICtDFT=           0.
 Calling FoFJK, ICntrl=      2127 FMM=F ISym2X=0 I1Cent= 0 IOpClX= 1 NMat=1 NMatS=1 NMatT=0.
 FoFJK:  IHMeth= 1 ICntrl=    2127 DoSepK=F KAlg= 0 I1Cent=           0 FoldK=F
 IRaf=         0 NMat=       1 IRICut=       1 DoRegI=T DoRafI=F ISym2E= 0 IDoP0=0 IntGTp=1.
 FoFCou: FMM=F IPFlag=           0 FMFlag=      100000 FMFlg1=         800
         NFxFlg=           0 DoJE=F BraDBF=F KetDBF=F FulRan=T
         wScrn=  0.000000 ICntrl=      2127 IOpCl=  1 I1Cent=           0 NGrid=           0
         NMat0=    1 NMatS0=      1 NMatT0=    0 NMatD0=    1 NMtDS0=    0 NMtDT0=    0
 Symmetry not used in FoFCou.
 Leave Link  703 at Mon Nov 13 18:00:02 2023, MaxMem=  1879048192 cpu:              35.7 elap:               2.3
 (Enter /home/sekinelabo/g16/l716.exe)
 Dipole        =-4.41818593D-01 1.19784955D-02-2.14563329D-01
 ***** Axes restored to original set *****
 -------------------------------------------------------------------
 Center     Atomic                   Forces (Hartrees/Bohr)
 Number     Number              X              Y              Z
 -------------------------------------------------------------------
      1       11           0.004586302    0.009642217   -0.007022845
      2       11           0.000547699   -0.014188730   -0.004411176
      3       11          -0.006095648    0.004211777    0.009708462
      4       11           0.001232989    0.011737252   -0.004633405
      5       11          -0.003944694   -0.007732035   -0.009299397
      6       11          -0.001418189    0.012406612    0.012364050
      7       11           0.005091540   -0.016077092    0.003294310
 -------------------------------------------------------------------
 Cartesian Forces:  Max     0.016077092 RMS     0.008338623
 Z-matrix is all fixed cartesians, so copy forces.
 Force constants in Cartesian coordinates: 
                1             2             3             4             5 
      1  0.645561D-01
      2  0.102280D-01  0.754790D-01
      3 -0.235220D-01 -0.208029D-01  0.785150D-01
      4  0.283027D-02 -0.594100D-02 -0.830062D-03  0.618848D-01
      5 -0.623309D-02  0.131559D-01  0.205635D-02  0.298440D-02  0.112467D+00
      6 -0.994923D-05  0.344133D-02  0.108331D-01 -0.136569D-01  0.168293D-01
      7  0.561459D-04 -0.114670D-03 -0.638152D-05 -0.141849D-01 -0.335574D-02
      8 -0.116660D-03  0.275881D-03  0.132377D-03  0.151626D-01 -0.259883D-01
      9  0.168874D-03 -0.358523D-03 -0.623223D-04  0.130114D-01 -0.749160D-02
     10 -0.217747D-02  0.413739D-02 -0.733419D-03 -0.864555D-02 -0.759954D-02
     11 -0.286275D-02  0.556471D-02 -0.567705D-03  0.220658D-03 -0.480797D-01
     12  0.110763D-02 -0.152894D-02  0.219580D-02  0.147221D-02 -0.312946D-02
     13 -0.454952D-01  0.839039D-03 -0.914265D-02 -0.416240D-01  0.138167D-01
     14 -0.379497D-02 -0.537038D-01 -0.707245D-02 -0.919706D-02 -0.585786D-01
     15  0.169236D-01  0.579416D-02 -0.344935D-01  0.102840D-04 -0.845143D-02
     16 -0.125971D-01  0.515261D-02  0.239791D-01  0.112661D-02 -0.260779D-02
     17 -0.839222D-02 -0.582358D-02  0.124984D-01 -0.625640D-03  0.134015D-02
     18  0.108389D-01 -0.156206D-01 -0.407706D-01 -0.295162D-03  0.748566D-03
     19 -0.717270D-02 -0.143014D-01  0.102554D-01 -0.138724D-02  0.299501D-02
     20  0.111716D-01 -0.349482D-01  0.137560D-01 -0.260399D-02  0.568366D-02
     21 -0.550695D-02  0.290755D-01 -0.162176D-01  0.288212D-03 -0.561692D-03
                6             7             8             9            10 
      6  0.491272D-01
      7  0.832814D-02  0.352115D-01
      8 -0.253184D-01 -0.390724D-02  0.368590D-01
      9 -0.183025D-01 -0.296317D-01  0.379499D-02  0.422461D-01
     10  0.394506D-02 -0.164060D-01 -0.123148D-01  0.178260D-01  0.591593D-01
     11  0.145153D-01  0.486346D-02 -0.161303D-01  0.361180D-02 -0.124276D-02
     12 -0.280433D-02  0.123778D-01  0.230164D-01 -0.264366D-01 -0.138599D-01
     13  0.102523D-01 -0.460042D-02  0.125640D-02 -0.123162D-02 -0.317543D-01
     14 -0.526805D-02  0.255892D-02  0.518571D-02  0.471101D-03  0.128108D-01
     15 -0.469922D-01  0.886076D-02 -0.170003D-02  0.242132D-02 -0.670706D-02
     16 -0.601227D-02 -0.237205D-04 -0.535447D-05 -0.515624D-04 -0.137904D-02
     17 -0.178570D-02  0.414845D-05 -0.730599D-04  0.358091D-04  0.186568D-02
     18  0.467517D-02  0.116737D-04  0.473985D-04  0.916840D-05 -0.304058D-03
     19 -0.284635D-02 -0.525725D-04 -0.750211D-04 -0.914136D-04  0.120303D-02
     20 -0.241373D-02 -0.488842D-04 -0.128911D-03 -0.635831D-04  0.234313D-02
     21  0.346361D-02  0.597546D-04  0.272659D-04  0.124903D-03 -0.166663D-03
               11            12            13            14            15 
     11  0.970705D-01
     12 -0.230808D-01  0.545052D-01
     13  0.825740D-03  0.604308D-02  0.189509D+00
     14 -0.460787D-01 -0.288197D-02 -0.140764D-01  0.214959D+00
     15  0.422267D-02 -0.365141D-01 -0.484985D-03  0.197982D-01  0.191187D+00
     16 -0.302845D-02 -0.488540D-02 -0.268378D-01 -0.845273D-02 -0.128513D-01
     17  0.347489D-02  0.374902D-02  0.274798D-02 -0.260917D-01 -0.148350D-01
     18 -0.291294D-03  0.653200D-03  0.476666D-02 -0.152570D-01 -0.400962D-01
     19  0.122410D-02 -0.225543D-02 -0.391969D-01  0.201514D-01 -0.575127D-02
     20  0.417865D-02  0.385576D-02 -0.540952D-02 -0.356922D-01 -0.482852D-02
     21  0.159003D-02  0.840087D-02 -0.102028D-01  0.102102D-01 -0.355125D-01
               16            17            18            19            20 
     16  0.499582D-01
     17 -0.818667D-02  0.643058D-01
     18 -0.121841D-01  0.287045D-01  0.880377D-01
     19 -0.102472D-01  0.125867D-01 -0.283391D-02  0.568535D-01
     20  0.171284D-01 -0.371325D-01  0.166841D-02 -0.225808D-01  0.980395D-01
     21  0.120055D-01 -0.283670D-01 -0.125084D-01  0.352295D-02 -0.119743D-01
               21 
     21  0.522492D-01
 Leave Link  716 at Mon Nov 13 18:00:02 2023, MaxMem=  1879048192 cpu:               0.5 elap:               0.0
 (Enter /home/sekinelabo/g16/l103.exe)

 GradGradGradGradGradGradGradGradGradGradGradGradGradGradGradGradGradGrad
 Berny optimization.
 Search for a local minimum.
 Step number   1 out of a maximum of    2
 All quantities printed in internal units (Hartrees-Bohrs-Radians)
 Second derivative matrix not updated -- first step.
 ITU=  0
     Eigenvalues ---    0.01143   0.01535   0.03812   0.05036   0.05520
     Eigenvalues ---    0.06682   0.10278   0.11078   0.12799   0.13648
     Eigenvalues ---    0.15279   0.15458   0.22473   0.23233   0.28957
 Quadratic step=3.358D-01 exceeds max=3.000D-01 adjusted using Lamda=-8.173D-03.
 Angle between NR and scaled steps=   4.08 degrees.
 Angle between quadratic step and forces=  26.16 degrees.
 Linear search not attempted -- first point.
 B after Tr=     0.000000    0.000000    0.000000
         Rot=    1.000000   -0.000000    0.000000    0.000000 Ang=   0.00 deg.
 Variable       Old X    -DE/DX   Delta X   Delta X   Delta X     New X
                                 (Linear)    (Quad)   (Total)
    X1       12.90029   0.00459   0.00000   0.07804   0.07804  12.97833
    Y1        4.85244   0.00964   0.00000   0.06707   0.06707   4.91950
    Z1        0.00000  -0.00702   0.00000  -0.02664  -0.02664  -0.02664
    X2        2.70464   0.00055   0.00000  -0.05379  -0.05379   2.65085
    Y2        0.00000  -0.01419   0.00000  -0.09985  -0.09985  -0.09985
    Z2        0.84079  -0.00441   0.00000  -0.06736  -0.06736   0.77344
    X3        0.00000  -0.00610   0.00000  -0.06775  -0.06775  -0.06775
    Y3        3.61068   0.00421   0.00000   0.04007   0.04007   3.65075
    Z3        4.28191   0.00971   0.00000   0.10701   0.10701   4.38892
    X4        3.26567   0.00123   0.00000  -0.04553  -0.04553   3.22015
    Y4        5.57919   0.01174   0.00000   0.05216   0.05216   5.63135
    Z4        0.08813  -0.00463   0.00000  -0.06167  -0.06167   0.02646
    X5        7.87295  -0.00394   0.00000  -0.00214  -0.00214   7.87081
    Y5        2.34686  -0.00773   0.00000  -0.03822  -0.03822   2.30864
    Z5        0.79132  -0.00930   0.00000  -0.05958  -0.05958   0.73174
    X6       10.45636  -0.00142   0.00000   0.02817   0.02817  10.48453
    Y6        4.96056   0.01241   0.00000   0.08423   0.08423   5.04479
    Z6        5.11191   0.01236   0.00000   0.07900   0.07900   5.19091
    X7       12.55287   0.00509   0.00000   0.06299   0.06299  12.61586
    Y7        0.10656  -0.01608   0.00000  -0.10546  -0.10546   0.00111
    Z7        3.07600   0.00329   0.00000   0.02924   0.02924   3.10524
         Item               Value     Threshold  Converged?
 Maximum Force            0.016077     0.000450     NO 
 RMS     Force            0.008339     0.000300     NO 
 Maximum Displacement     0.107014     0.001800     NO 
 RMS     Displacement     0.065478     0.001200     NO 
 Predicted change in Energy=-5.513453D-03
 GradGradGradGradGradGradGradGradGradGradGradGradGradGradGradGradGradGrad

 Leave Link  103 at Mon Nov 13 18:00:02 2023, MaxMem=  1879048192 cpu:               0.3 elap:               0.0
 (Enter /home/sekinelabo/g16/l9999.exe)
 1\1\GINC-SEKINELABO-XA7R-R37\Force\UB3LYP\6-311+G(d)\Na7(2)\SEKINELABO
 \13-Nov-2023\0\\#P B3LYP/6-311+g(d) force\\Gaussian input prepared by 
 ASE\\0,2\Na,6.8265399082,2.5677996159,0.\Na,1.4312339687,0.,0.44492860
 1\Na,0.,1.9106909136,2.2658892358\Na,1.7281204491,2.9523794237,0.04663
 86546\Na,4.1661839817,1.2419068347,0.418748652\Na,5.5332682882,2.62501
 5876,2.7051056864\Na,6.6426928317,0.0563907825,1.6277485995\\Version=E
 S64L-G16RevB.01\State=2-A\HF=-1136.0762649\S2=0.824454\S2-1=0.\S2A=0.7
 51459\RMSD=7.657e-09\RMSF=8.339e-03\Dipole=0.4418186,-0.0119785,-0.214
 5633\Quadrupole=8.3865311,-7.1160021,-1.270529,1.1321154,-2.6956942,-5
 .6464952\PG=C01 [X(Na7)]\\@


 NOBODY LOSES ALL THE TIME
 I HAD AN UNCLE NAMED
 SOL WHO WAS A BORN FAILURE AND
 NEARLY EVERYBODY SAID HE SHOULD HAVE GONE
 INTO VAUDEVILLE PERHAPS BECAUSE MY UNCLE SOL COULD
 SING MCCANN HE WAS A DIVER ON XMAS EVE LIKE HELL ITSELF WHICH
 MAY OR MAY NOT ACCOUNT FOR THE FACT THAT MY UNCLE
 SOL INDULGED IN THAT POSSIBLY MOST INEXCUSABLE
 OF ALL TO USE A HIGHFALOOTIN PHRASE
 LUXURIES THAT IS OR TO
 WIT FARMING AND BE
 IT NEEDLESSLY
 ADDED
 MY UNCLE SOL'S FARM     
 FAILED BECAUSE THE CHICKENS
 ATE THE VEGETABLES SO
 MY UNCLE SOL HAD A
 CHICKEN FARM TILL THE
 SKUNKS ATE THE CHICKENS WHEN 
 MY UNCLE SOL
 HAD A SKUNK FARM BUT
 THE SKUNKS CAUGHT COLD AND
 DIED AND SO
 MY UNCLE SOL IMITATED THE
 SKUNKS IN A SUBTLE MANNER
 OR BY DROWNING HIMSELF IN THE WATERTANK
 BUT SOMEBODY WHO'D GIVEN MY UNCLE SOL A VICTOR     
 VICTROLA AND RECORDS WHILE HE LIVED PRESENTED TO
 HIM UPON THE AUSPICIOUS OCCASION OF HIS DECEASE A
 SCRUMPTIOUS NOT TO MENTION SPLENDIFEROUS FUNERAL WITH
 TALL BOYS IN BLACK GLOVES AND FLOWERS AND EVERYTHING AND
 I REMEMBER WE ALL CRIED LIKE THE MISSOURI
 WHEN MY UNCLE SOL'S COFFIN LURCHED BECAUSE     
 SOMEBODY PRESSED A BUTTON
 (AND DOWN WENT
 MY UNCLE
 SOL
 AND STARTED A WORM FARM)
           E. E. CUMMINGS
 Job cpu time:       0 days  0 hours  7 minutes 18.4 seconds.
 Elapsed time:       0 days  0 hours  0 minutes 37.1 seconds.
 File lengths (MBytes):  RWF=     32 Int=      0 D2E=      0 Chk=      5 Scr=      1
 Normal termination of Gaussian 16 at Mon Nov 13 18:00:03 2023.
