 Entering Gaussian System, Link 0=g16
 Initial command:
 /home/sekinelabo/g16/l1.exe "/home/sekinelabo/g16temp/Gau-3998936.inp" -scrdir="/home/sekinelabo/g16temp/"
 Entering Link 1 = /home/sekinelabo/g16/l1.exe PID=   3998938.
  
 Copyright (c) 1988-2017, Gaussian, Inc.  All Rights Reserved.
  
 This is part of the Gaussian(R) 16 program.  It is based on
 the Gaussian(R) 09 system (copyright 2009, Gaussian, Inc.),
 the Gaussian(R) 03 system (copyright 2003, Gaussian, Inc.),
 the Gaussian(R) 98 system (copyright 1998, Gaussian, Inc.),
 the Gaussian(R) 94 system (copyright 1995, Gaussian, Inc.),
 the Gaussian 92(TM) system (copyright 1992, Gaussian, Inc.),
 the Gaussian 90(TM) system (copyright 1990, Gaussian, Inc.),
 the Gaussian 88(TM) system (copyright 1988, Gaussian, Inc.),
 the Gaussian 86(TM) system (copyright 1986, Carnegie Mellon
 University), and the Gaussian 82(TM) system (copyright 1983,
 Carnegie Mellon University). Gaussian is a federally registered
 trademark of Gaussian, Inc.
  
 This software contains proprietary and confidential information,
 including trade secrets, belonging to Gaussian, Inc.
  
 This software is provided under written license and may be
 used, copied, transmitted, or stored only in accord with that
 written license.
  
 The following legend is applicable only to US Government
 contracts under FAR:
  
                    RESTRICTED RIGHTS LEGEND
  
 Use, reproduction and disclosure by the US Government is
 subject to restrictions as set forth in subparagraphs (a)
 and (c) of the Commercial Computer Software - Restricted
 Rights clause in FAR 52.227-19.
  
 Gaussian, Inc.
 340 Quinnipiac St., Bldg. 40, Wallingford CT 06492
  
  
 ---------------------------------------------------------------
 Warning -- This program may not be used in any manner that
 competes with the business of Gaussian, Inc. or will provide
 assistance to any competitor of Gaussian, Inc.  The licensee
 of this program is prohibited from giving any competitor of
 Gaussian, Inc. access to this program.  By using this program,
 the user acknowledges that Gaussian, Inc. is engaged in the
 business of creating and licensing software in the field of
 computational chemistry and represents and warrants to the
 licensee that it is not a competitor of Gaussian, Inc. and that
 it will not use this program in any manner prohibited above.
 ---------------------------------------------------------------
  

 Cite this work as:
 Gaussian 16, Revision B.01,
 M. J. Frisch, G. W. Trucks, H. B. Schlegel, G. E. Scuseria, 
 M. A. Robb, J. R. Cheeseman, G. Scalmani, V. Barone, 
 G. A. Petersson, H. Nakatsuji, X. Li, M. Caricato, A. V. Marenich, 
 J. Bloino, B. G. Janesko, R. Gomperts, B. Mennucci, H. P. Hratchian, 
 J. V. Ortiz, A. F. Izmaylov, J. L. Sonnenberg, D. Williams-Young, 
 F. Ding, F. Lipparini, F. Egidi, J. Goings, B. Peng, A. Petrone, 
 T. Henderson, D. Ranasinghe, V. G. Zakrzewski, J. Gao, N. Rega, 
 G. Zheng, W. Liang, M. Hada, M. Ehara, K. Toyota, R. Fukuda, 
 J. Hasegawa, M. Ishida, T. Nakajima, Y. Honda, O. Kitao, H. Nakai, 
 T. Vreven, K. Throssell, J. A. Montgomery, Jr., J. E. Peralta, 
 F. Ogliaro, M. J. Bearpark, J. J. Heyd, E. N. Brothers, K. N. Kudin, 
 V. N. Staroverov, T. A. Keith, R. Kobayashi, J. Normand, 
 K. Raghavachari, A. P. Rendell, J. C. Burant, S. S. Iyengar, 
 J. Tomasi, M. Cossi, J. M. Millam, M. Klene, C. Adamo, R. Cammi, 
 J. W. Ochterski, R. L. Martin, K. Morokuma, O. Farkas, 
 J. B. Foresman, and D. J. Fox, Gaussian, Inc., Wallingford CT, 2016.
 
 ******************************************
 Gaussian 16:  ES64L-G16RevB.01 20-Dec-2017
                13-Nov-2023 
 ******************************************
 %mem=14GB
 %chk=checkpoint.chk
 %nprocshared=16
 Will use up to   16 processors via shared memory.
 -------------------------
 #P B3LYP/6-311+g(d) force
 -------------------------
 1/10=7,30=1,38=1/1,3;
 2/12=2,17=6,18=5,40=1/2;
 3/5=4,6=6,7=11,11=2,25=1,30=1,71=1,74=-5/1,2,3;
 4//1;
 5/5=2,38=5/2;
 6/7=2,8=2,9=2,10=2,28=1/1;
 7/29=1/1,2,3,16;
 1/10=7,30=1/3;
 99//99;
 Leave Link    1 at Mon Nov 13 14:57:58 2023, MaxMem=  1879048192 cpu:               0.3 elap:               0.0
 (Enter /home/sekinelabo/g16/l101.exe)
 ------------------------------
 Gaussian input prepared by ASE
 ------------------------------
 Symbolic Z-matrix:
 Charge =  0 Multiplicity = 2
 Na                    4.57139   2.61982   1.63073 
 Na                    0.        3.98271   0.23179 
 Na                    1.64823   2.56338   2.29714 
 Na                    2.91535   0.23016   0.89795 
 Na                    5.90415   0.        1.03338 
 Na                    7.08904   2.55576   0. 
 Na                    9.30111   3.88101   1.53556 
 
 ITRead=  0  0  0  0  0  0  0
 MicOpt= -1 -1 -1 -1 -1 -1 -1
 NAtoms=      7 NQM=        7 NQMF=       0 NMMI=      0 NMMIF=      0
                NMic=       0 NMicF=      0.
                    Isotopes and Nuclear Properties:
 (Nuclear quadrupole moments (NQMom) in fm**2, nuclear magnetic moments (NMagM)
  in nuclear magnetons)

  Atom         1           2           3           4           5           6           7
 IAtWgt=          23          23          23          23          23          23          23
 AtmWgt=  22.9897697  22.9897697  22.9897697  22.9897697  22.9897697  22.9897697  22.9897697
 NucSpn=           3           3           3           3           3           3           3
 AtZEff=  -0.0000000  -0.0000000  -0.0000000  -0.0000000  -0.0000000  -0.0000000  -0.0000000
 NQMom=   10.4000000  10.4000000  10.4000000  10.4000000  10.4000000  10.4000000  10.4000000
 NMagM=    2.2175200   2.2175200   2.2175200   2.2175200   2.2175200   2.2175200   2.2175200
 AtZNuc=  11.0000000  11.0000000  11.0000000  11.0000000  11.0000000  11.0000000  11.0000000
 Leave Link  101 at Mon Nov 13 14:57:58 2023, MaxMem=  1879048192 cpu:               2.6 elap:               0.2
 (Enter /home/sekinelabo/g16/l103.exe)

 GradGradGradGradGradGradGradGradGradGradGradGradGradGradGradGradGradGrad
 Berny optimization.
 Initialization pass.
 Trust Radius=3.00D-01 FncErr=1.00D-07 GrdErr=1.00D-07 EigMax=2.50D+02 EigMin=1.00D-04
 Number of steps in this run=      2 maximum allowed number of steps=      2.
 GradGradGradGradGradGradGradGradGradGradGradGradGradGradGradGradGradGrad

 Leave Link  103 at Mon Nov 13 14:57:58 2023, MaxMem=  1879048192 cpu:               0.2 elap:               0.0
 (Enter /home/sekinelabo/g16/l202.exe)
                          Input orientation:                          
 ---------------------------------------------------------------------
 Center     Atomic      Atomic             Coordinates (Angstroms)
 Number     Number       Type             X           Y           Z
 ---------------------------------------------------------------------
      1         11           0        4.571392    2.619816    1.630726
      2         11           0        0.000000    3.982711    0.231787
      3         11           0        1.648232    2.563382    2.297141
      4         11           0        2.915354    0.230160    0.897953
      5         11           0        5.904152    0.000000    1.033383
      6         11           0        7.089040    2.555758    0.000000
      7         11           0        9.301109    3.881008    1.535561
 ---------------------------------------------------------------------
                    Distance matrix (angstroms):
                    1          2          3          4          5
     1  Na   0.000000
     2  Na   4.971130   0.000000
     3  Na   2.998693   2.999476   0.000000
     4  Na   2.998311   4.798407   3.001208   0.000000
     5  Na   2.999417   7.166837   5.126487   3.000704   0.000000
     6  Na   3.000320   7.234943   5.905870   4.861520   3.000623
     7  Na   4.895905   9.392593   7.802734   7.383298   5.182057
                    6          7
     6  Na   0.000000
     7  Na   3.001247   0.000000
 Stoichiometry    Na7(2)
 Framework group  C1[X(Na7)]
 Deg. of freedom    15
 Full point group                 C1      NOp   1
 Largest Abelian subgroup         C1      NOp   1
 Largest concise Abelian subgroup C1      NOp   1
                         Standard orientation:                         
 ---------------------------------------------------------------------
 Center     Atomic      Atomic             Coordinates (Angstroms)
 Number     Number       Type             X           Y           Z
 ---------------------------------------------------------------------
      1         11           0       -0.081495   -0.357982    0.541218
      2         11           0        4.489897   -1.720877   -0.857721
      3         11           0        2.841665   -0.301549    1.207634
      4         11           0        1.574543    2.031673   -0.191554
      5         11           0       -1.414255    2.261833   -0.056125
      6         11           0       -2.599142   -0.293924   -1.089507
      7         11           0       -4.811212   -1.619174    0.446053
 ---------------------------------------------------------------------
 Rotational constants (GHZ):           1.1542534           0.3303878           0.2827160
 Leave Link  202 at Mon Nov 13 14:57:58 2023, MaxMem=  1879048192 cpu:               0.1 elap:               0.0
 (Enter /home/sekinelabo/g16/l301.exe)
 Standard basis: 6-311+G(d) (5D, 7F)
 Ernie: Thresh=  0.10000D-02 Tol=  0.10000D-05 Strict=F.
 There are   217 symmetry adapted cartesian basis functions of A   symmetry.
 There are   210 symmetry adapted basis functions of A   symmetry.
   210 basis functions,   350 primitive gaussians,   217 cartesian basis functions
    39 alpha electrons       38 beta electrons
       nuclear repulsion energy       321.7333401107 Hartrees.
 IExCor=  402 DFT=T Ex+Corr=B3LYP ExCW=0 ScaHFX=  0.200000
 ScaDFX=  0.800000  0.720000  1.000000  0.810000 ScalE2=  1.000000  1.000000
 IRadAn=      5 IRanWt=     -1 IRanGd=            0 ICorTp=0 IEmpDi=  4
 NAtoms=    7 NActive=    7 NUniq=    7 SFac= 1.00D+00 NAtFMM=   60 NAOKFM=F Big=F
 Integral buffers will be    131072 words long.
 Raffenetti 2 integral format.
 Two-electron integral symmetry is turned on.
 Leave Link  301 at Mon Nov 13 14:57:58 2023, MaxMem=  1879048192 cpu:               0.5 elap:               0.0
 (Enter /home/sekinelabo/g16/l302.exe)
 NPDir=0 NMtPBC=     1 NCelOv=     1 NCel=       1 NClECP=     1 NCelD=      1
         NCelK=      1 NCelE2=     1 NClLst=     1 CellRange=     0.0.
 One-electron integrals computed using PRISM.
 One-electron integral symmetry used in STVInt
 NBasis=   210 RedAO= T EigKep=  2.00D-06  NBF=   210
 NBsUse=   210 1.00D-06 EigRej= -1.00D+00 NBFU=   210
 Precomputing XC quadrature grid using
 IXCGrd= 4 IRadAn=           5 IRanWt=          -1 IRanGd=           0 AccXCQ= 0.00D+00.
 Generated NRdTot=       0 NPtTot=           0 NUsed=           0 NTot=          32
 NSgBfM=   209   209   209   209   209 MxSgAt=     7 MxSgA2=     7.
 Leave Link  302 at Mon Nov 13 14:57:58 2023, MaxMem=  1879048192 cpu:               2.5 elap:               0.2
 (Enter /home/sekinelabo/g16/l303.exe)
 DipDrv:  MaxL=1.
 Leave Link  303 at Mon Nov 13 14:57:58 2023, MaxMem=  1879048192 cpu:               0.6 elap:               0.0
 (Enter /home/sekinelabo/g16/l401.exe)
 ExpMin= 7.60D-03 ExpMax= 3.62D+04 ExpMxC= 1.21D+03 IAcc=3 IRadAn=         5 AccDes= 0.00D+00
 Harris functional with IExCor=  402 and IRadAn=       5 diagonalized for initial guess.
 HarFok:  IExCor=  402 AccDes= 0.00D+00 IRadAn=         5 IDoV= 1 UseB2=F ITyADJ=14
 ICtDFT=  3500011 ScaDFX=  1.000000  1.000000  1.000000  1.000000
 FoFCou: FMM=F IPFlag=           0 FMFlag=      100000 FMFlg1=           0
         NFxFlg=           0 DoJE=T BraDBF=F KetDBF=T FulRan=T
         wScrn=  0.000000 ICntrl=       500 IOpCl=  0 I1Cent=   200000004 NGrid=           0
         NMat0=    1 NMatS0=      1 NMatT0=    0 NMatD0=    1 NMtDS0=    0 NMtDT0=    0
 Petite list used in FoFCou.
 Harris En= -1135.86333267033    
 JPrj=0 DoOrth=F DoCkMO=F.
 Initial guess <Sx>= 0.0000 <Sy>= 0.0000 <Sz>= 0.5000 <S**2>= 0.7500 S= 0.5000
 Leave Link  401 at Mon Nov 13 14:57:58 2023, MaxMem=  1879048192 cpu:               4.8 elap:               0.3
 (Enter /home/sekinelabo/g16/l502.exe)
 Keep R1 and R2 ints in memory in canonical form, NReq=507620360.
 FoFCou: FMM=F IPFlag=           0 FMFlag=           0 FMFlg1=           0
         NFxFlg=           0 DoJE=F BraDBF=F KetDBF=F FulRan=T
         wScrn=  0.000000 ICntrl=       600 IOpCl=  0 I1Cent=           0 NGrid=           0
         NMat0=    1 NMatS0=  22155 NMatT0=    0 NMatD0=    1 NMtDS0=    0 NMtDT0=    0
 Symmetry not used in FoFCou.
 Two-electron integral symmetry not used.
 UHF open shell SCF:
 Using DIIS extrapolation, IDIIS=  1040.
 NGot=  1879048192 LenX=  1388082376 LenY=  1388034846
 Requested convergence on RMS density matrix=1.00D-08 within 128 cycles.
 Requested convergence on MAX density matrix=1.00D-06.
 Requested convergence on             energy=1.00D-06.
 No special actions if energy rises.

 Cycle   1  Pass 1  IDiag  1:
 E= -1136.06341562060    
 DIIS: error= 8.47D-03 at cycle   1 NSaved=   1.
 NSaved= 1 IEnMin= 1 EnMin= -1136.06341562060     IErMin= 1 ErrMin= 8.47D-03
 ErrMax= 8.47D-03  0.00D+00 EMaxC= 1.00D-01 BMatC= 1.87D-01 BMatP= 1.87D-01
 IDIUse=3 WtCom= 9.15D-01 WtEn= 8.47D-02
 Coeff-Com:  0.100D+01
 Coeff-En:   0.100D+01
 Coeff:      0.100D+01
 Gap=     0.018 Goal=   None    Shift=    0.000
 Gap=     0.058 Goal=   None    Shift=    0.000
 GapD=    0.018 DampG=0.250 DampE=1.000 DampFc=0.2500 IDamp=-1.
 Damping current iteration by 2.50D-01
 RMSDP=3.92D-02 MaxDP=4.13D+00              OVMax= 2.26D-01

 Cycle   2  Pass 1  IDiag  1:
 E= -1136.07319696394     Delta-E=       -0.009781343333 Rises=F Damp=T
 DIIS: error= 6.02D-03 at cycle   2 NSaved=   2.
 NSaved= 2 IEnMin= 2 EnMin= -1136.07319696394     IErMin= 2 ErrMin= 6.02D-03
 ErrMax= 6.02D-03  0.00D+00 EMaxC= 1.00D-01 BMatC= 7.23D-02 BMatP= 1.87D-01
 IDIUse=3 WtCom= 9.40D-01 WtEn= 6.02D-02
 Coeff-Com: -0.129D+01 0.229D+01
 Coeff-En:   0.000D+00 0.100D+01
 Coeff:     -0.121D+01 0.221D+01
 Gap=     0.028 Goal=   None    Shift=    0.000
 Gap=     0.051 Goal=   None    Shift=    0.000
 RMSDP=1.71D-02 MaxDP=2.20D+00 DE=-9.78D-03 OVMax= 2.70D-01

 Cycle   3  Pass 1  IDiag  1:
 E= -1136.08426337756     Delta-E=       -0.011066413624 Rises=F Damp=F
 DIIS: error= 3.80D-03 at cycle   3 NSaved=   3.
 NSaved= 3 IEnMin= 3 EnMin= -1136.08426337756     IErMin= 3 ErrMin= 3.80D-03
 ErrMax= 3.80D-03  0.00D+00 EMaxC= 1.00D-01 BMatC= 7.00D-03 BMatP= 7.23D-02
 IDIUse=3 WtCom= 9.62D-01 WtEn= 3.80D-02
 Coeff-Com: -0.438D+00 0.744D+00 0.694D+00
 Coeff-En:   0.000D+00 0.000D+00 0.100D+01
 Coeff:     -0.422D+00 0.716D+00 0.706D+00
 Gap=     0.022 Goal=   None    Shift=    0.000
 Gap=     0.048 Goal=   None    Shift=    0.000
 RMSDP=1.01D-02 MaxDP=8.76D-01 DE=-1.11D-02 OVMax= 2.04D-01

 Cycle   4  Pass 1  IDiag  1:
 E= -1136.08247851993     Delta-E=        0.001784857630 Rises=F Damp=F
 DIIS: error= 4.30D-03 at cycle   4 NSaved=   4.
 NSaved= 4 IEnMin= 3 EnMin= -1136.08426337756     IErMin= 3 ErrMin= 3.80D-03
 ErrMax= 4.30D-03  0.00D+00 EMaxC= 1.00D-01 BMatC= 8.40D-03 BMatP= 7.00D-03
 IDIUse=3 WtCom= 1.32D-01 WtEn= 8.68D-01
 Coeff-Com: -0.478D-01 0.690D-01 0.518D+00 0.460D+00
 Coeff-En:   0.000D+00 0.000D+00 0.535D+00 0.465D+00
 Coeff:     -0.633D-02 0.913D-02 0.532D+00 0.465D+00
 Gap=     0.026 Goal=   None    Shift=    0.000
 Gap=     0.048 Goal=   None    Shift=    0.000
 RMSDP=4.03D-03 MaxDP=4.27D-01 DE= 1.78D-03 OVMax= 1.22D-01

 Cycle   5  Pass 1  IDiag  1:
 E= -1136.09300342592     Delta-E=       -0.010524905989 Rises=F Damp=F
 DIIS: error= 4.16D-04 at cycle   5 NSaved=   5.
 NSaved= 5 IEnMin= 5 EnMin= -1136.09300342592     IErMin= 5 ErrMin= 4.16D-04
 ErrMax= 4.16D-04  0.00D+00 EMaxC= 1.00D-01 BMatC= 1.38D-04 BMatP= 7.00D-03
 IDIUse=3 WtCom= 9.96D-01 WtEn= 4.16D-03
 Coeff-Com:  0.168D-02-0.318D-02 0.221D+00 0.180D+00 0.600D+00
 Coeff-En:   0.000D+00 0.000D+00 0.000D+00 0.000D+00 0.100D+01
 Coeff:      0.167D-02-0.317D-02 0.220D+00 0.180D+00 0.602D+00
 Gap=     0.026 Goal=   None    Shift=    0.000
 Gap=     0.046 Goal=   None    Shift=    0.000
 RMSDP=1.27D-03 MaxDP=1.21D-01 DE=-1.05D-02 OVMax= 2.03D-02

 Cycle   6  Pass 1  IDiag  1:
 E= -1136.09310747546     Delta-E=       -0.000104049543 Rises=F Damp=F
 DIIS: error= 2.13D-04 at cycle   6 NSaved=   6.
 NSaved= 6 IEnMin= 6 EnMin= -1136.09310747546     IErMin= 6 ErrMin= 2.13D-04
 ErrMax= 2.13D-04  0.00D+00 EMaxC= 1.00D-01 BMatC= 3.43D-05 BMatP= 1.38D-04
 IDIUse=3 WtCom= 9.98D-01 WtEn= 2.13D-03
 Coeff-Com:  0.100D-01-0.145D-01-0.427D-02-0.217D-01 0.330D+00 0.701D+00
 Coeff-En:   0.000D+00 0.000D+00 0.000D+00 0.000D+00 0.146D+00 0.854D+00
 Coeff:      0.100D-01-0.144D-01-0.426D-02-0.216D-01 0.329D+00 0.701D+00
 Gap=     0.027 Goal=   None    Shift=    0.000
 Gap=     0.047 Goal=   None    Shift=    0.000
 RMSDP=6.93D-04 MaxDP=9.00D-02 DE=-1.04D-04 OVMax= 1.09D-02

 Cycle   7  Pass 1  IDiag  1:
 E= -1136.09315703343     Delta-E=       -0.000049557969 Rises=F Damp=F
 DIIS: error= 9.00D-05 at cycle   7 NSaved=   7.
 NSaved= 7 IEnMin= 7 EnMin= -1136.09315703343     IErMin= 7 ErrMin= 9.00D-05
 ErrMax= 9.00D-05  0.00D+00 EMaxC= 1.00D-01 BMatC= 2.18D-06 BMatP= 3.43D-05
 IDIUse=1 WtCom= 1.00D+00 WtEn= 0.00D+00
 Coeff-Com:  0.135D-02-0.203D-02-0.166D-01-0.185D-01 0.355D-01 0.185D+00
 Coeff-Com:  0.815D+00
 Coeff:      0.135D-02-0.203D-02-0.166D-01-0.185D-01 0.355D-01 0.185D+00
 Coeff:      0.815D+00
 Gap=     0.027 Goal=   None    Shift=    0.000
 Gap=     0.047 Goal=   None    Shift=    0.000
 RMSDP=2.74D-04 MaxDP=2.20D-02 DE=-4.96D-05 OVMax= 6.41D-03

 Cycle   8  Pass 1  IDiag  1:
 E= -1136.09316494216     Delta-E=       -0.000007908730 Rises=F Damp=F
 DIIS: error= 4.68D-05 at cycle   8 NSaved=   8.
 NSaved= 8 IEnMin= 8 EnMin= -1136.09316494216     IErMin= 8 ErrMin= 4.68D-05
 ErrMax= 4.68D-05  0.00D+00 EMaxC= 1.00D-01 BMatC= 1.04D-06 BMatP= 2.18D-06
 IDIUse=1 WtCom= 1.00D+00 WtEn= 0.00D+00
 Coeff-Com: -0.996D-03 0.137D-02-0.745D-02-0.386D-02-0.512D-01-0.577D-01
 Coeff-Com:  0.382D+00 0.738D+00
 Coeff:     -0.996D-03 0.137D-02-0.745D-02-0.386D-02-0.512D-01-0.577D-01
 Coeff:      0.382D+00 0.738D+00
 Gap=     0.027 Goal=   None    Shift=    0.000
 Gap=     0.047 Goal=   None    Shift=    0.000
 RMSDP=2.92D-04 MaxDP=2.58D-02 DE=-7.91D-06 OVMax= 3.79D-03

 Cycle   9  Pass 1  IDiag  1:
 E= -1136.09316967240     Delta-E=       -0.000004730234 Rises=F Damp=F
 DIIS: error= 4.21D-05 at cycle   9 NSaved=   9.
 NSaved= 9 IEnMin= 9 EnMin= -1136.09316967240     IErMin= 9 ErrMin= 4.21D-05
 ErrMax= 4.21D-05  0.00D+00 EMaxC= 1.00D-01 BMatC= 2.93D-07 BMatP= 1.04D-06
 IDIUse=1 WtCom= 1.00D+00 WtEn= 0.00D+00
 Coeff-Com:  0.159D-03-0.150D-03 0.223D-02 0.396D-02-0.186D-01-0.640D-01
 Coeff-Com: -0.234D+00 0.103D+00 0.121D+01
 Coeff:      0.159D-03-0.150D-03 0.223D-02 0.396D-02-0.186D-01-0.640D-01
 Coeff:     -0.234D+00 0.103D+00 0.121D+01
 Gap=     0.027 Goal=   None    Shift=    0.000
 Gap=     0.047 Goal=   None    Shift=    0.000
 RMSDP=2.83D-04 MaxDP=2.21D-02 DE=-4.73D-06 OVMax= 5.88D-03

 Cycle  10  Pass 1  IDiag  1:
 E= -1136.09317349409     Delta-E=       -0.000003821693 Rises=F Damp=F
 DIIS: error= 2.20D-05 at cycle  10 NSaved=  10.
 NSaved=10 IEnMin=10 EnMin= -1136.09317349409     IErMin=10 ErrMin= 2.20D-05
 ErrMax= 2.20D-05  0.00D+00 EMaxC= 1.00D-01 BMatC= 1.25D-07 BMatP= 2.93D-07
 IDIUse=1 WtCom= 1.00D+00 WtEn= 0.00D+00
 Coeff-Com:  0.128D-03-0.154D-03 0.305D-02 0.149D-02 0.158D-01 0.117D-01
 Coeff-Com: -0.131D+00-0.283D+00 0.176D+00 0.121D+01
 Coeff:      0.128D-03-0.154D-03 0.305D-02 0.149D-02 0.158D-01 0.117D-01
 Coeff:     -0.131D+00-0.283D+00 0.176D+00 0.121D+01
 Gap=     0.027 Goal=   None    Shift=    0.000
 Gap=     0.047 Goal=   None    Shift=    0.000
 RMSDP=2.11D-04 MaxDP=1.79D-02 DE=-3.82D-06 OVMax= 4.27D-03

 Cycle  11  Pass 1  IDiag  1:
 E= -1136.09317545920     Delta-E=       -0.000001965107 Rises=F Damp=F
 DIIS: error= 1.30D-05 at cycle  11 NSaved=  11.
 NSaved=11 IEnMin=11 EnMin= -1136.09317545920     IErMin=11 ErrMin= 1.30D-05
 ErrMax= 1.30D-05  0.00D+00 EMaxC= 1.00D-01 BMatC= 5.16D-08 BMatP= 1.25D-07
 IDIUse=1 WtCom= 1.00D+00 WtEn= 0.00D+00
 Coeff-Com:  0.956D-04-0.144D-03-0.850D-03-0.167D-02 0.189D-01 0.401D-01
 Coeff-Com:  0.779D-01-0.800D-01-0.520D+00 0.451D-01 0.142D+01
 Coeff:      0.956D-04-0.144D-03-0.850D-03-0.167D-02 0.189D-01 0.401D-01
 Coeff:      0.779D-01-0.800D-01-0.520D+00 0.451D-01 0.142D+01
 Gap=     0.027 Goal=   None    Shift=    0.000
 Gap=     0.047 Goal=   None    Shift=    0.000
 RMSDP=1.56D-04 MaxDP=9.58D-03 DE=-1.97D-06 OVMax= 4.12D-03

 Cycle  12  Pass 1  IDiag  1:
 E= -1136.09317661859     Delta-E=       -0.000001159396 Rises=F Damp=F
 DIIS: error= 9.68D-06 at cycle  12 NSaved=  12.
 NSaved=12 IEnMin=12 EnMin= -1136.09317661859     IErMin=12 ErrMin= 9.68D-06
 ErrMax= 9.68D-06  0.00D+00 EMaxC= 1.00D-01 BMatC= 2.29D-08 BMatP= 5.16D-08
 IDIUse=1 WtCom= 1.00D+00 WtEn= 0.00D+00
 Coeff-Com: -0.147D-04 0.135D-04-0.136D-02-0.927D-03 0.607D-03 0.846D-02
 Coeff-Com:  0.727D-01 0.784D-01-0.239D+00-0.403D+00 0.468D+00 0.102D+01
 Coeff:     -0.147D-04 0.135D-04-0.136D-02-0.927D-03 0.607D-03 0.846D-02
 Coeff:      0.727D-01 0.784D-01-0.239D+00-0.403D+00 0.468D+00 0.102D+01
 Gap=     0.027 Goal=   None    Shift=    0.000
 Gap=     0.047 Goal=   None    Shift=    0.000
 RMSDP=9.59D-05 MaxDP=7.13D-03 DE=-1.16D-06 OVMax= 2.26D-03

 Cycle  13  Pass 1  IDiag  1:
 E= -1136.09317710372     Delta-E=       -0.000000485126 Rises=F Damp=F
 DIIS: error= 7.67D-06 at cycle  13 NSaved=  13.
 NSaved=13 IEnMin=13 EnMin= -1136.09317710372     IErMin=13 ErrMin= 7.67D-06
 ErrMax= 7.67D-06  0.00D+00 EMaxC= 1.00D-01 BMatC= 1.36D-08 BMatP= 2.29D-08
 IDIUse=1 WtCom= 1.00D+00 WtEn= 0.00D+00
 Coeff-Com: -0.237D-04 0.430D-04-0.211D-03 0.290D-03-0.547D-02-0.131D-01
 Coeff-Com: -0.288D-01 0.323D-01 0.155D+00 0.326D-01-0.480D+00-0.159D+00
 Coeff-Com:  0.147D+01
 Coeff:     -0.237D-04 0.430D-04-0.211D-03 0.290D-03-0.547D-02-0.131D-01
 Coeff:     -0.288D-01 0.323D-01 0.155D+00 0.326D-01-0.480D+00-0.159D+00
 Coeff:      0.147D+01
 Gap=     0.027 Goal=   None    Shift=    0.000
 Gap=     0.047 Goal=   None    Shift=    0.000
 RMSDP=1.11D-04 MaxDP=9.15D-03 DE=-4.85D-07 OVMax= 2.50D-03

 Cycle  14  Pass 1  IDiag  1:
 E= -1136.09317749699     Delta-E=       -0.000000393268 Rises=F Damp=F
 DIIS: error= 6.68D-06 at cycle  14 NSaved=  14.
 NSaved=14 IEnMin=14 EnMin= -1136.09317749699     IErMin=14 ErrMin= 6.68D-06
 ErrMax= 6.68D-06  0.00D+00 EMaxC= 1.00D-01 BMatC= 1.02D-08 BMatP= 1.36D-08
 IDIUse=1 WtCom= 1.00D+00 WtEn= 0.00D+00
 Coeff-Com:  0.321D-04-0.368D-04 0.471D-03 0.426D-03 0.362D-02-0.158D-02
 Coeff-Com: -0.520D-01-0.436D-01 0.120D+00 0.300D+00-0.336D+00-0.702D+00
 Coeff-Com: -0.664D-01 0.178D+01
 Coeff:      0.321D-04-0.368D-04 0.471D-03 0.426D-03 0.362D-02-0.158D-02
 Coeff:     -0.520D-01-0.436D-01 0.120D+00 0.300D+00-0.336D+00-0.702D+00
 Coeff:     -0.664D-01 0.178D+01
 Gap=     0.027 Goal=   None    Shift=    0.000
 Gap=     0.047 Goal=   None    Shift=    0.000
 RMSDP=1.72D-04 MaxDP=1.56D-02 DE=-3.93D-07 OVMax= 4.15D-03

 Cycle  15  Pass 1  IDiag  1:
 E= -1136.09317796499     Delta-E=       -0.000000468003 Rises=F Damp=F
 DIIS: error= 5.38D-06 at cycle  15 NSaved=  15.
 NSaved=15 IEnMin=15 EnMin= -1136.09317796499     IErMin=15 ErrMin= 5.38D-06
 ErrMax= 5.38D-06  0.00D+00 EMaxC= 1.00D-01 BMatC= 6.72D-09 BMatP= 1.02D-08
 IDIUse=1 WtCom= 1.00D+00 WtEn= 0.00D+00
 Coeff-Com: -0.597D-05 0.397D-05 0.135D-03-0.251D-03 0.949D-02 0.157D-01
 Coeff-Com:  0.172D-01-0.390D-01-0.176D+00 0.880D-01 0.426D+00-0.161D+00
 Coeff-Com: -0.162D+01 0.109D+01 0.134D+01
 Coeff:     -0.597D-05 0.397D-05 0.135D-03-0.251D-03 0.949D-02 0.157D-01
 Coeff:      0.172D-01-0.390D-01-0.176D+00 0.880D-01 0.426D+00-0.161D+00
 Coeff:     -0.162D+01 0.109D+01 0.134D+01
 Gap=     0.027 Goal=   None    Shift=    0.000
 Gap=     0.047 Goal=   None    Shift=    0.000
 RMSDP=2.04D-04 MaxDP=1.93D-02 DE=-4.68D-07 OVMax= 5.02D-03

 Cycle  16  Pass 1  IDiag  1:
 E= -1136.09317833020     Delta-E=       -0.000000365208 Rises=F Damp=F
 DIIS: error= 3.44D-06 at cycle  16 NSaved=  16.
 NSaved=16 IEnMin=16 EnMin= -1136.09317833020     IErMin=16 ErrMin= 3.44D-06
 ErrMax= 3.44D-06  0.00D+00 EMaxC= 1.00D-01 BMatC= 2.56D-09 BMatP= 6.72D-09
 IDIUse=1 WtCom= 1.00D+00 WtEn= 0.00D+00
 Coeff-Com:  0.342D-04-0.456D-04-0.526D-03-0.367D-03 0.289D-04 0.482D-02
 Coeff-Com:  0.330D-01 0.421D-01-0.105D+00-0.259D+00 0.359D+00 0.495D+00
 Coeff-Com: -0.398D+00-0.805D+00 0.560D-01 0.158D+01
 Coeff:      0.342D-04-0.456D-04-0.526D-03-0.367D-03 0.289D-04 0.482D-02
 Coeff:      0.330D-01 0.421D-01-0.105D+00-0.259D+00 0.359D+00 0.495D+00
 Coeff:     -0.398D+00-0.805D+00 0.560D-01 0.158D+01
 Gap=     0.027 Goal=   None    Shift=    0.000
 Gap=     0.047 Goal=   None    Shift=    0.000
 RMSDP=1.75D-04 MaxDP=1.73D-02 DE=-3.65D-07 OVMax= 4.47D-03

 Cycle  17  Pass 1  IDiag  1:
 E= -1136.09317849122     Delta-E=       -0.000000161022 Rises=F Damp=F
 DIIS: error= 1.50D-06 at cycle  17 NSaved=  17.
 NSaved=17 IEnMin=17 EnMin= -1136.09317849122     IErMin=17 ErrMin= 1.50D-06
 ErrMax= 1.50D-06  0.00D+00 EMaxC= 1.00D-01 BMatC= 6.88D-10 BMatP= 2.56D-09
 IDIUse=1 WtCom= 1.00D+00 WtEn= 0.00D+00
 Coeff-Com:  0.572D-05-0.678D-05-0.237D-03-0.371D-04-0.222D-02-0.335D-02
 Coeff-Com: -0.158D-02 0.133D-01 0.356D-01-0.401D-01-0.982D-01 0.837D-01
 Coeff-Com:  0.376D+00-0.169D+00-0.487D+00-0.153D+00 0.145D+01
 Coeff:      0.572D-05-0.678D-05-0.237D-03-0.371D-04-0.222D-02-0.335D-02
 Coeff:     -0.158D-02 0.133D-01 0.356D-01-0.401D-01-0.982D-01 0.837D-01
 Coeff:      0.376D+00-0.169D+00-0.487D+00-0.153D+00 0.145D+01
 Gap=     0.027 Goal=   None    Shift=    0.000
 Gap=     0.047 Goal=   None    Shift=    0.000
 RMSDP=7.36D-05 MaxDP=7.49D-03 DE=-1.61D-07 OVMax= 1.95D-03

 Cycle  18  Pass 1  IDiag  1:
 E= -1136.09317851776     Delta-E=       -0.000000026538 Rises=F Damp=F
 DIIS: error= 5.07D-07 at cycle  18 NSaved=  18.
 NSaved=18 IEnMin=18 EnMin= -1136.09317851776     IErMin=18 ErrMin= 5.07D-07
 ErrMax= 5.07D-07  0.00D+00 EMaxC= 1.00D-01 BMatC= 1.39D-10 BMatP= 6.88D-10
 IDIUse=1 WtCom= 1.00D+00 WtEn= 0.00D+00
 Coeff-Com: -0.131D-04 0.182D-04 0.222D-04 0.589D-04-0.871D-03-0.222D-02
 Coeff-Com: -0.679D-02-0.346D-02 0.320D-01 0.392D-01-0.107D+00-0.794D-01
 Coeff-Com:  0.182D+00 0.182D+00-0.194D+00-0.400D+00 0.362D+00 0.997D+00
 Coeff:     -0.131D-04 0.182D-04 0.222D-04 0.589D-04-0.871D-03-0.222D-02
 Coeff:     -0.679D-02-0.346D-02 0.320D-01 0.392D-01-0.107D+00-0.794D-01
 Coeff:      0.182D+00 0.182D+00-0.194D+00-0.400D+00 0.362D+00 0.997D+00
 Gap=     0.027 Goal=   None    Shift=    0.000
 Gap=     0.047 Goal=   None    Shift=    0.000
 RMSDP=1.94D-05 MaxDP=2.01D-03 DE=-2.65D-08 OVMax= 5.41D-04

 Cycle  19  Pass 1  IDiag  1:
 E= -1136.09317852011     Delta-E=       -0.000000002353 Rises=F Damp=F
 DIIS: error= 1.63D-07 at cycle  19 NSaved=  19.
 NSaved=19 IEnMin=19 EnMin= -1136.09317852011     IErMin=19 ErrMin= 1.63D-07
 ErrMax= 1.63D-07  0.00D+00 EMaxC= 1.00D-01 BMatC= 1.72D-11 BMatP= 1.39D-10
 IDIUse=1 WtCom= 1.00D+00 WtEn= 0.00D+00
 Coeff-Com: -0.288D-06 0.344D-06 0.308D-04 0.188D-04 0.216D-03 0.104D-03
 Coeff-Com:  0.197D-03-0.659D-03-0.315D-02 0.134D-02 0.137D-01-0.105D-01
 Coeff-Com: -0.378D-01-0.637D-02 0.737D-01 0.627D-01-0.277D+00-0.194D-01
 Coeff-Com:  0.120D+01
 Coeff:     -0.288D-06 0.344D-06 0.308D-04 0.188D-04 0.216D-03 0.104D-03
 Coeff:      0.197D-03-0.659D-03-0.315D-02 0.134D-02 0.137D-01-0.105D-01
 Coeff:     -0.378D-01-0.637D-02 0.737D-01 0.627D-01-0.277D+00-0.194D-01
 Coeff:      0.120D+01
 Gap=     0.027 Goal=   None    Shift=    0.000
 Gap=     0.047 Goal=   None    Shift=    0.000
 RMSDP=5.51D-06 MaxDP=5.78D-04 DE=-2.35D-09 OVMax= 1.52D-04

 Cycle  20  Pass 1  IDiag  1:
 E= -1136.09317852028     Delta-E=       -0.000000000168 Rises=F Damp=F
 DIIS: error= 4.06D-08 at cycle  20 NSaved=  20.
 NSaved=20 IEnMin=20 EnMin= -1136.09317852028     IErMin=20 ErrMin= 4.06D-08
 ErrMax= 4.06D-08  0.00D+00 EMaxC= 1.00D-01 BMatC= 1.67D-12 BMatP= 1.72D-11
 IDIUse=1 WtCom= 1.00D+00 WtEn= 0.00D+00
 Coeff-Com:  0.196D-05-0.265D-05 0.709D-05-0.203D-05 0.172D-03 0.269D-03
 Coeff-Com:  0.259D-03-0.572D-03-0.212D-02-0.119D-02 0.857D-02 0.252D-02
 Coeff-Com: -0.184D-01-0.113D-01 0.240D-01 0.350D-01-0.509D-01-0.977D-01
 Coeff-Com:  0.111D+00 0.100D+01
 Coeff:      0.196D-05-0.265D-05 0.709D-05-0.203D-05 0.172D-03 0.269D-03
 Coeff:      0.259D-03-0.572D-03-0.212D-02-0.119D-02 0.857D-02 0.252D-02
 Coeff:     -0.184D-01-0.113D-01 0.240D-01 0.350D-01-0.509D-01-0.977D-01
 Coeff:      0.111D+00 0.100D+01
 Gap=     0.027 Goal=   None    Shift=    0.000
 Gap=     0.047 Goal=   None    Shift=    0.000
 RMSDP=5.50D-07 MaxDP=4.58D-05 DE=-1.68D-10 OVMax= 7.20D-06

 Cycle  21  Pass 1  IDiag  1:
 E= -1136.09317852030     Delta-E=       -0.000000000018 Rises=F Damp=F
 DIIS: error= 2.09D-08 at cycle  21 NSaved=  20.
 NSaved=20 IEnMin=20 EnMin= -1136.09317852030     IErMin=20 ErrMin= 2.09D-08
 ErrMax= 2.09D-08  0.00D+00 EMaxC= 1.00D-01 BMatC= 2.52D-13 BMatP= 1.67D-12
 IDIUse=1 WtCom= 1.00D+00 WtEn= 0.00D+00
 Coeff-Com:  0.153D-06-0.535D-06-0.415D-06-0.218D-04-0.308D-04-0.265D-03
 Coeff-Com: -0.660D-04 0.110D-02 0.683D-03-0.360D-02 0.243D-03 0.688D-02
 Coeff-Com:  0.445D-02-0.140D-01-0.985D-02 0.446D-01-0.344D-03-0.192D+00
 Coeff-Com:  0.642D-01 0.110D+01
 Coeff:      0.153D-06-0.535D-06-0.415D-06-0.218D-04-0.308D-04-0.265D-03
 Coeff:     -0.660D-04 0.110D-02 0.683D-03-0.360D-02 0.243D-03 0.688D-02
 Coeff:      0.445D-02-0.140D-01-0.985D-02 0.446D-01-0.344D-03-0.192D+00
 Coeff:      0.642D-01 0.110D+01
 Gap=     0.027 Goal=   None    Shift=    0.000
 Gap=     0.047 Goal=   None    Shift=    0.000
 RMSDP=3.72D-07 MaxDP=3.31D-05 DE=-1.77D-11 OVMax= 7.58D-06

 Cycle  22  Pass 1  IDiag  1:
 E= -1136.09317852030     Delta-E=       -0.000000000007 Rises=F Damp=F
 DIIS: error= 7.70D-09 at cycle  22 NSaved=  20.
 NSaved=20 IEnMin=20 EnMin= -1136.09317852030     IErMin=20 ErrMin= 7.70D-09
 ErrMax= 7.70D-09  0.00D+00 EMaxC= 1.00D-01 BMatC= 3.50D-14 BMatP= 2.52D-13
 IDIUse=1 WtCom= 1.00D+00 WtEn= 0.00D+00
 Coeff-Com: -0.163D-05-0.864D-06-0.319D-05 0.602D-05 0.163D-04 0.963D-05
 Coeff-Com: -0.206D-04-0.292D-04-0.106D-03 0.292D-03 0.881D-03-0.567D-03
 Coeff-Com: -0.147D-02-0.123D-02 0.665D-02 0.112D-02-0.231D-01-0.606D-01
 Coeff-Com:  0.152D+00 0.927D+00
 Coeff:     -0.163D-05-0.864D-06-0.319D-05 0.602D-05 0.163D-04 0.963D-05
 Coeff:     -0.206D-04-0.292D-04-0.106D-03 0.292D-03 0.881D-03-0.567D-03
 Coeff:     -0.147D-02-0.123D-02 0.665D-02 0.112D-02-0.231D-01-0.606D-01
 Coeff:      0.152D+00 0.927D+00
 Gap=     0.027 Goal=   None    Shift=    0.000
 Gap=     0.047 Goal=   None    Shift=    0.000
 RMSDP=1.21D-07 MaxDP=1.03D-05 DE=-7.28D-12 OVMax= 2.25D-06

 Cycle  23  Pass 1  IDiag  1:
 E= -1136.09317852029     Delta-E=        0.000000000008 Rises=F Damp=F
 DIIS: error= 3.35D-09 at cycle  23 NSaved=  20.
 NSaved=20 IEnMin=19 EnMin= -1136.09317852030     IErMin=20 ErrMin= 3.35D-09
 ErrMax= 3.35D-09  0.00D+00 EMaxC= 1.00D-01 BMatC= 7.42D-15 BMatP= 3.50D-14
 IDIUse=1 WtCom= 1.00D+00 WtEn= 0.00D+00
 Coeff-Com: -0.323D-06-0.500D-05-0.825D-05 0.395D-04 0.415D-04-0.991D-04
 Coeff-Com: -0.109D-03 0.289D-03-0.170D-03-0.291D-03-0.274D-03 0.115D-02
 Coeff-Com:  0.310D-03-0.487D-02 0.403D-02 0.219D-01-0.321D-01-0.171D+00
 Coeff-Com:  0.179D+00 0.100D+01
 Coeff:     -0.323D-06-0.500D-05-0.825D-05 0.395D-04 0.415D-04-0.991D-04
 Coeff:     -0.109D-03 0.289D-03-0.170D-03-0.291D-03-0.274D-03 0.115D-02
 Coeff:      0.310D-03-0.487D-02 0.403D-02 0.219D-01-0.321D-01-0.171D+00
 Coeff:      0.179D+00 0.100D+01
 Gap=     0.027 Goal=   None    Shift=    0.000
 Gap=     0.047 Goal=   None    Shift=    0.000
 RMSDP=2.75D-08 MaxDP=2.50D-06 DE= 8.19D-12 OVMax= 5.36D-07

 Cycle  24  Pass 1  IDiag  1:
 E= -1136.09317852030     Delta-E=       -0.000000000001 Rises=F Damp=F
 DIIS: error= 8.01D-10 at cycle  24 NSaved=  20.
 NSaved=20 IEnMin=18 EnMin= -1136.09317852030     IErMin=20 ErrMin= 8.01D-10
 ErrMax= 8.01D-10  0.00D+00 EMaxC= 1.00D-01 BMatC= 5.03D-16 BMatP= 7.42D-15
 IDIUse=1 WtCom= 1.00D+00 WtEn= 0.00D+00
 Large coefficients: NSaved= 20 BigCof=    0.00 CofMax=   10.00 Det=-1.91D-15
 Inversion failed.  Reducing to 19 matrices.
 Large coefficients: NSaved= 19 BigCof=    0.00 CofMax=   10.00 Det=-1.92D-15
 Inversion failed.  Reducing to 18 matrices.
 Large coefficients: NSaved= 18 BigCof=    0.00 CofMax=   10.00 Det=-1.92D-15
 Inversion failed.  Reducing to 17 matrices.
 Large coefficients: NSaved= 17 BigCof=    0.00 CofMax=   10.00 Det=-2.68D-15
 Inversion failed.  Reducing to 16 matrices.
 Large coefficients: NSaved= 16 BigCof=    0.00 CofMax=   10.00 Det=-2.81D-15
 Inversion failed.  Reducing to 15 matrices.
 Coeff-Com:  0.154D-04-0.108D-04-0.144D-04-0.113D-03 0.728D-04 0.186D-03
 Coeff-Com:  0.460D-04-0.500D-03-0.181D-03 0.236D-02 0.298D-02-0.132D-01
 Coeff-Com: -0.662D-01-0.160D-02 0.108D+01
 Coeff:      0.154D-04-0.108D-04-0.144D-04-0.113D-03 0.728D-04 0.186D-03
 Coeff:      0.460D-04-0.500D-03-0.181D-03 0.236D-02 0.298D-02-0.132D-01
 Coeff:     -0.662D-01-0.160D-02 0.108D+01
 Gap=     0.027 Goal=   None    Shift=    0.000
 Gap=     0.047 Goal=   None    Shift=    0.000
 RMSDP=1.26D-08 MaxDP=1.18D-06 DE=-9.09D-13 OVMax= 3.08D-07

 Cycle  25  Pass 1  IDiag  1:
 E= -1136.09317852030     Delta-E=       -0.000000000004 Rises=F Damp=F
 DIIS: error= 5.53D-10 at cycle  25 NSaved=  16.
 NSaved=16 IEnMin=13 EnMin= -1136.09317852030     IErMin=16 ErrMin= 5.53D-10
 ErrMax= 5.53D-10  0.00D+00 EMaxC= 1.00D-01 BMatC= 2.84D-16 BMatP= 5.03D-16
 IDIUse=1 WtCom= 1.00D+00 WtEn= 0.00D+00
 Large coefficients: NSaved= 16 BigCof=    0.00 CofMax=   10.00 Det=-5.86D-16
 Inversion failed.  Reducing to 15 matrices.
 Coeff-Com:  0.548D-06 0.114D-04-0.714D-04 0.179D-04 0.129D-03 0.193D-04
 Coeff-Com: -0.326D-03-0.156D-03 0.122D-02 0.359D-02-0.370D-02-0.604D-01
 Coeff-Com: -0.306D-01 0.489D+00 0.602D+00
 Coeff:      0.548D-06 0.114D-04-0.714D-04 0.179D-04 0.129D-03 0.193D-04
 Coeff:     -0.326D-03-0.156D-03 0.122D-02 0.359D-02-0.370D-02-0.604D-01
 Coeff:     -0.306D-01 0.489D+00 0.602D+00
 Gap=     0.027 Goal=   None    Shift=    0.000
 Gap=     0.047 Goal=   None    Shift=    0.000
 RMSDP=4.52D-09 MaxDP=5.43D-07 DE=-3.64D-12 OVMax= 8.74D-08

 SCF Done:  E(UB3LYP) =  -1136.09317852     A.U. after   25 cycles
            NFock= 25  Conv=0.45D-08     -V/T= 2.0026
 <Sx>= 0.0000 <Sy>= 0.0000 <Sz>= 0.5000 <S**2>= 0.7919 S= 0.5207
 <L.S>= 0.000000000000E+00
 KE= 1.133152665823D+03 PE=-3.372624289265D+03 EE= 7.816451048106D+02
 Annihilation of the first spin contaminant:
 S**2 before annihilation     0.7919,   after     0.7507
 Leave Link  502 at Mon Nov 13 14:58:18 2023, MaxMem=  1879048192 cpu:             227.1 elap:              19.7
 (Enter /home/sekinelabo/g16/l601.exe)
 Copying SCF densities to generalized density rwf, IOpCl= 1 IROHF=0.

 **********************************************************************

            Population analysis using the SCF Density.

 **********************************************************************

 Orbital symmetries:
 Alpha Orbitals:
       Occupied  (A) (A) (A) (A) (A) (A) (A) (A) (A) (A) (A) (A)
                 (A) (A) (A) (A) (A) (A) (A) (A) (A) (A) (A) (A)
                 (A) (A) (A) (A) (A) (A) (A) (A) (A) (A) (A) (A)
                 (A) (A) (A)
       Virtual   (A) (A) (A) (A) (A) (A) (A) (A) (A) (A) (A) (A)
                 (A) (A) (A) (A) (A) (A) (A) (A) (A) (A) (A) (A)
                 (A) (A) (A) (A) (A) (A) (A) (A) (A) (A) (A) (A)
                 (A) (A) (A) (A) (A) (A) (A) (A) (A) (A) (A) (A)
                 (A) (A) (A) (A) (A) (A) (A) (A) (A) (A) (A) (A)
                 (A) (A) (A) (A) (A) (A) (A) (A) (A) (A) (A) (A)
                 (A) (A) (A) (A) (A) (A) (A) (A) (A) (A) (A) (A)
                 (A) (A) (A) (A) (A) (A) (A) (A) (A) (A) (A) (A)
                 (A) (A) (A) (A) (A) (A) (A) (A) (A) (A) (A) (A)
                 (A) (A) (A) (A) (A) (A) (A) (A) (A) (A) (A) (A)
                 (A) (A) (A) (A) (A) (A) (A) (A) (A) (A) (A) (A)
                 (A) (A) (A) (A) (A) (A) (A) (A) (A) (A) (A) (A)
                 (A) (A) (A) (A) (A) (A) (A) (A) (A) (A) (A) (A)
                 (A) (A) (A) (A) (A) (A) (A) (A) (A) (A) (A) (A)
                 (A) (A) (A)
 Beta  Orbitals:
       Occupied  (A) (A) (A) (A) (A) (A) (A) (A) (A) (A) (A) (A)
                 (A) (A) (A) (A) (A) (A) (A) (A) (A) (A) (A) (A)
                 (A) (A) (A) (A) (A) (A) (A) (A) (A) (A) (A) (A)
                 (A) (A)
       Virtual   (A) (A) (A) (A) (A) (A) (A) (A) (A) (A) (A) (A)
                 (A) (A) (A) (A) (A) (A) (A) (A) (A) (A) (A) (A)
                 (A) (A) (A) (A) (A) (A) (A) (A) (A) (A) (A) (A)
                 (A) (A) (A) (A) (A) (A) (A) (A) (A) (A) (A) (A)
                 (A) (A) (A) (A) (A) (A) (A) (A) (A) (A) (A) (A)
                 (A) (A) (A) (A) (A) (A) (A) (A) (A) (A) (A) (A)
                 (A) (A) (A) (A) (A) (A) (A) (A) (A) (A) (A) (A)
                 (A) (A) (A) (A) (A) (A) (A) (A) (A) (A) (A) (A)
                 (A) (A) (A) (A) (A) (A) (A) (A) (A) (A) (A) (A)
                 (A) (A) (A) (A) (A) (A) (A) (A) (A) (A) (A) (A)
                 (A) (A) (A) (A) (A) (A) (A) (A) (A) (A) (A) (A)
                 (A) (A) (A) (A) (A) (A) (A) (A) (A) (A) (A) (A)
                 (A) (A) (A) (A) (A) (A) (A) (A) (A) (A) (A) (A)
                 (A) (A) (A) (A) (A) (A) (A) (A) (A) (A) (A) (A)
                 (A) (A) (A) (A)
 The electronic state is 2-A.
 Alpha  occ. eigenvalues --  -38.45278 -38.45035 -38.44516 -38.44278 -38.43634
 Alpha  occ. eigenvalues --  -38.43483 -38.43282  -2.21251  -2.20820  -2.20607
 Alpha  occ. eigenvalues --   -2.20255  -2.19636  -2.19331  -2.19286  -1.14983
 Alpha  occ. eigenvalues --   -1.14921  -1.14884  -1.14534  -1.14474  -1.14466
 Alpha  occ. eigenvalues --   -1.14374  -1.14250  -1.14225  -1.13933  -1.13919
 Alpha  occ. eigenvalues --   -1.13854  -1.13296  -1.13282  -1.13247  -1.13101
 Alpha  occ. eigenvalues --   -1.12977  -1.12967  -1.12945  -1.12935  -1.12826
 Alpha  occ. eigenvalues --   -0.18774  -0.14836  -0.12313  -0.10003
 Alpha virt. eigenvalues --   -0.07306  -0.05579  -0.04558  -0.03422  -0.03068
 Alpha virt. eigenvalues --   -0.02384  -0.01928  -0.01166  -0.00905  -0.00326
 Alpha virt. eigenvalues --   -0.00232   0.00293   0.00337   0.00441   0.00531
 Alpha virt. eigenvalues --    0.00697   0.00849   0.00983   0.01085   0.01420
 Alpha virt. eigenvalues --    0.01543   0.01637   0.01731   0.01846   0.01897
 Alpha virt. eigenvalues --    0.02076   0.02163   0.02281   0.02386   0.02529
 Alpha virt. eigenvalues --    0.02593   0.02632   0.02740   0.02822   0.02932
 Alpha virt. eigenvalues --    0.03121   0.03161   0.03267   0.03528   0.03593
 Alpha virt. eigenvalues --    0.03775   0.04067   0.04159   0.04461   0.04854
 Alpha virt. eigenvalues --    0.05011   0.05097   0.05502   0.05537   0.05953
 Alpha virt. eigenvalues --    0.06193   0.06591   0.06820   0.07322   0.07420
 Alpha virt. eigenvalues --    0.07603   0.07953   0.08006   0.08352   0.08696
 Alpha virt. eigenvalues --    0.08896   0.09405   0.09448   0.09994   0.10351
 Alpha virt. eigenvalues --    0.10584   0.11105   0.11772   0.12499   0.12774
 Alpha virt. eigenvalues --    0.13095   0.13733   0.13901   0.14219   0.14896
 Alpha virt. eigenvalues --    0.15248   0.15667   0.16692   0.17330   0.18542
 Alpha virt. eigenvalues --    0.25581   0.26567   0.27533   0.27742   0.29418
 Alpha virt. eigenvalues --    0.29699   0.30458   0.32026   0.32916   0.33171
 Alpha virt. eigenvalues --    0.34477   0.34816   0.35147   0.35532   0.37143
 Alpha virt. eigenvalues --    0.37682   0.38400   0.38847   0.39179   0.40782
 Alpha virt. eigenvalues --    0.41366   0.42248   0.42806   0.42976   0.43640
 Alpha virt. eigenvalues --    0.44110   0.44234   0.44288   0.44694   0.45048
 Alpha virt. eigenvalues --    0.45670   0.46151   0.46591   0.46972   0.47371
 Alpha virt. eigenvalues --    0.48143   0.48895   0.49341   0.50907   0.51397
 Alpha virt. eigenvalues --    0.52244   0.53196   0.53773   0.54168   0.54584
 Alpha virt. eigenvalues --    0.57349   0.59708   0.62469   0.66214   0.66740
 Alpha virt. eigenvalues --    0.70877   0.71793   0.72446   0.73327   0.80551
 Alpha virt. eigenvalues --    0.82668   2.07523   2.10296   2.12324   2.18540
 Alpha virt. eigenvalues --    2.20594   2.25422   2.29101   4.40098   4.40742
 Alpha virt. eigenvalues --    4.41373   4.41902   4.42934   4.43216   4.44558
 Alpha virt. eigenvalues --    4.45060   4.45543   4.46030   4.46074   4.46996
 Alpha virt. eigenvalues --    4.49013   4.55544   4.60057   4.60519   4.66231
 Alpha virt. eigenvalues --    4.67855   4.68677   4.76634   4.80953  96.27976
 Alpha virt. eigenvalues --   96.31678  96.34250  96.43035  96.45914  96.51908
 Alpha virt. eigenvalues --   96.56346
  Beta  occ. eigenvalues --  -38.45264 -38.45051 -38.44462 -38.44264 -38.43603
  Beta  occ. eigenvalues --  -38.43399 -38.43259  -2.21229  -2.20851  -2.20511
  Beta  occ. eigenvalues --   -2.20231  -2.19581  -2.19257  -2.19172  -1.14957
  Beta  occ. eigenvalues --   -1.14898  -1.14862  -1.14554  -1.14495  -1.14484
  Beta  occ. eigenvalues --   -1.14292  -1.14190  -1.14161  -1.13915  -1.13892
  Beta  occ. eigenvalues --   -1.13825  -1.13264  -1.13237  -1.13196  -1.13013
  Beta  occ. eigenvalues --   -1.12955  -1.12918  -1.12842  -1.12841  -1.12739
  Beta  occ. eigenvalues --   -0.18240  -0.14493  -0.11877
  Beta virt. eigenvalues --   -0.07205  -0.06376  -0.05370  -0.04146  -0.03099
  Beta virt. eigenvalues --   -0.02921  -0.01952  -0.01740  -0.00829  -0.00726
  Beta virt. eigenvalues --   -0.00063  -0.00027   0.00325   0.00543   0.00565
  Beta virt. eigenvalues --    0.00639   0.00820   0.00981   0.01060   0.01172
  Beta virt. eigenvalues --    0.01486   0.01623   0.01737   0.01824   0.01936
  Beta virt. eigenvalues --    0.02032   0.02188   0.02268   0.02330   0.02505
  Beta virt. eigenvalues --    0.02606   0.02713   0.02746   0.02834   0.02871
  Beta virt. eigenvalues --    0.02972   0.03218   0.03276   0.03330   0.03594
  Beta virt. eigenvalues --    0.03650   0.03912   0.04075   0.04298   0.04588
  Beta virt. eigenvalues --    0.04966   0.05100   0.05171   0.05562   0.05649
  Beta virt. eigenvalues --    0.06038   0.06256   0.06671   0.06888   0.07406
  Beta virt. eigenvalues --    0.07515   0.07769   0.07960   0.08092   0.08415
  Beta virt. eigenvalues --    0.08913   0.09094   0.09504   0.09748   0.10164
  Beta virt. eigenvalues --    0.10630   0.10708   0.11278   0.12048   0.12724
  Beta virt. eigenvalues --    0.12937   0.13365   0.13878   0.13989   0.14374
  Beta virt. eigenvalues --    0.15032   0.15566   0.15734   0.16985   0.17539
  Beta virt. eigenvalues --    0.18738   0.25946   0.26764   0.27651   0.28086
  Beta virt. eigenvalues --    0.29615   0.29851   0.30628   0.32512   0.33092
  Beta virt. eigenvalues --    0.33320   0.34761   0.34920   0.35254   0.36016
  Beta virt. eigenvalues --    0.37599   0.38043   0.38764   0.39117   0.39402
  Beta virt. eigenvalues --    0.40948   0.41645   0.42589   0.42839   0.43148
  Beta virt. eigenvalues --    0.43687   0.44256   0.44485   0.44555   0.44885
  Beta virt. eigenvalues --    0.45152   0.45868   0.46268   0.46818   0.47112
  Beta virt. eigenvalues --    0.47521   0.48301   0.49047   0.49508   0.50991
  Beta virt. eigenvalues --    0.51627   0.52432   0.53405   0.53858   0.54367
  Beta virt. eigenvalues --    0.54800   0.57496   0.59937   0.62610   0.66416
  Beta virt. eigenvalues --    0.66815   0.70973   0.71907   0.72664   0.73515
  Beta virt. eigenvalues --    0.80610   0.82866   2.07574   2.10412   2.12522
  Beta virt. eigenvalues --    2.18598   2.20740   2.25494   2.29269   4.40147
  Beta virt. eigenvalues --    4.40826   4.41406   4.41921   4.42985   4.43256
  Beta virt. eigenvalues --    4.44566   4.45080   4.45559   4.46086   4.46200
  Beta virt. eigenvalues --    4.47110   4.49066   4.55581   4.60081   4.60542
  Beta virt. eigenvalues --    4.66261   4.67926   4.68739   4.76676   4.81018
  Beta virt. eigenvalues --   96.27999  96.31715  96.34314  96.43056  96.45956
  Beta virt. eigenvalues --   96.51934  96.56401
          Condensed to atoms (all electrons):
               1          2          3          4          5          6
     1  Na  16.755808  -0.035194  -2.575982  -1.085809   1.666801  -3.176700
     2  Na  -0.035194  10.925189  -0.472558   0.173350   0.079323   0.469460
     3  Na  -2.575982  -0.472558  15.282555   0.357464  -1.357343  -0.893436
     4  Na  -1.085809   0.173350   0.357464  11.237248  -0.458012   0.528046
     5  Na   1.666801   0.079323  -1.357343  -0.458012  11.483880  -0.594418
     6  Na  -3.176700   0.469460  -0.893436   0.528046  -0.594418  15.000857
     7  Na   1.351967  -0.119063   0.065921  -0.347502   0.472329  -1.514676
               7
     1  Na   1.351967
     2  Na  -0.119063
     3  Na   0.065921
     4  Na  -0.347502
     5  Na   0.472329
     6  Na  -1.514676
     7  Na  11.246530
          Atomic-Atomic Spin Densities.
               1          2          3          4          5          6
     1  Na   1.142164  -0.055728  -1.316994   0.433024   0.116521   0.026006
     2  Na  -0.055728   0.392806   0.126125   0.002873  -0.040228   0.015560
     3  Na  -1.316994   0.126125   1.401222  -0.103665  -0.342078   0.299309
     4  Na   0.433024   0.002873  -0.103665   0.016736  -0.004057  -0.272444
     5  Na   0.116521  -0.040228  -0.342078  -0.004057   0.290691   0.164663
     6  Na   0.026006   0.015560   0.299309  -0.272444   0.164663  -0.287126
     7  Na  -0.233495  -0.004845  -0.059644   0.057466  -0.005162   0.320749
               7
     1  Na  -0.233495
     2  Na  -0.004845
     3  Na  -0.059644
     4  Na   0.057466
     5  Na  -0.005162
     6  Na   0.320749
     7  Na  -0.204405
 Mulliken charges and spin densities:
               1          2
     1  Na  -1.900892   0.111498
     2  Na  -0.020508   0.436564
     3  Na   0.593380   0.004275
     4  Na   0.595216   0.129933
     5  Na  -0.292559   0.180350
     6  Na   1.180869   0.266717
     7  Na  -0.155506  -0.129337
 Sum of Mulliken charges =  -0.00000   1.00000
 Mulliken charges and spin densities with hydrogens summed into heavy atoms:
               1          2
     1  Na  -1.900892   0.111498
     2  Na  -0.020508   0.436564
     3  Na   0.593380   0.004275
     4  Na   0.595216   0.129933
     5  Na  -0.292559   0.180350
     6  Na   1.180869   0.266717
     7  Na  -0.155506  -0.129337
 Electronic spatial extent (au):  <R**2>=           3359.5731
 Charge=             -0.0000 electrons
 Dipole moment (field-independent basis, Debye):
    X=             -1.7749    Y=              0.7183    Z=              0.4771  Tot=              1.9733
 Quadrupole moment (field-independent basis, Debye-Ang):
   XX=            -65.7204   YY=            -68.4930   ZZ=            -69.5519
   XY=              7.5142   XZ=             -2.9972   YZ=              1.8358
 Traceless Quadrupole moment (field-independent basis, Debye-Ang):
   XX=              2.2014   YY=             -0.5713   ZZ=             -1.6302
   XY=              7.5142   XZ=             -2.9972   YZ=              1.8358
 Octapole moment (field-independent basis, Debye-Ang**2):
  XXX=           -115.8908  YYY=             17.4169  ZZZ=              3.9387  XYY=              1.6264
  XXY=             -6.2887  XXZ=             26.8606  XZZ=             -3.0470  YZZ=             -1.6361
  YYZ=              7.1167  XYZ=              5.2993
 Hexadecapole moment (field-independent basis, Debye-Ang**3):
 XXXX=          -3980.5027 YYYY=          -1217.1414 ZZZZ=           -504.1984 XXXY=            231.8913
 XXXZ=           -118.3187 YYYX=             70.9220 YYYZ=             23.4608 ZZZX=             22.8256
 ZZZY=             12.3528 XXYY=           -802.4018 XXZZ=           -747.8068 YYZZ=           -295.2787
 XXYZ=            -17.5912 YYXZ=            -39.4293 ZZXY=             15.8426
 N-N= 3.217333401107D+02 E-N=-3.372624289178D+03  KE= 1.133152665823D+03
                          Isotropic Fermi Contact Couplings
        Atom                 a.u.       MegaHertz       Gauss      10(-4) cm-1
     1  Na(23)             0.18977     224.50320      80.10832      74.88621
     2  Na(23)             0.37074     438.59660     156.50217     146.30008
     3  Na(23)            -0.02098     -24.82326      -8.85755      -8.28015
     4  Na(23)             0.01980      23.42821       8.35977       7.81481
     5  Na(23)             0.10789     127.63158      45.54212      42.57331
     6  Na(23)             0.04261      50.40927      17.98728      16.81472
     7  Na(23)            -0.07408     -87.63726     -31.27115     -29.23264
 --------------------------------------------------------
       Center         ----  Spin Dipole Couplings  ----
                      3XX-RR        3YY-RR        3ZZ-RR
 --------------------------------------------------------
     1   Atom        0.008089     -0.018131      0.010042
     2   Atom        0.001202     -0.000092     -0.001111
     3   Atom        0.066161     -0.030740     -0.035420
     4   Atom       -0.032175      0.010896      0.021279
     5   Atom       -0.002777     -0.011014      0.013791
     6   Atom       -0.025064      0.026095     -0.001030
     7   Atom        0.002390      0.000151     -0.002541
 --------------------------------------------------------
                        XY            XZ            YZ
 --------------------------------------------------------
     1   Atom        0.009677      0.029616     -0.003308
     2   Atom        0.004738      0.004211     -0.004214
     3   Atom       -0.035600     -0.038476      0.015710
     4   Atom       -0.002550      0.006224     -0.033898
     5   Atom        0.008017      0.008934     -0.006806
     6   Atom       -0.013704      0.000291     -0.017397
     7   Atom        0.000066      0.000339     -0.001223
 --------------------------------------------------------


 ---------------------------------------------------------------------------------
              Anisotropic Spin Dipole Couplings in Principal Axis System
 ---------------------------------------------------------------------------------

       Atom             a.u.   MegaHertz   Gauss  10(-4) cm-1        Axes

              Baa    -0.0288    -4.068    -1.452    -1.357 -0.5660  0.6643  0.4881
     1 Na(23) Bbb    -0.0102    -1.445    -0.516    -0.482  0.4324  0.7434 -0.5104
              Bcc     0.0390     5.513     1.967     1.839  0.7019  0.0778  0.7080
 
              Baa    -0.0088    -1.245    -0.444    -0.415 -0.5334  0.5848  0.6112
     2 Na(23) Bbb     0.0034     0.483     0.172     0.161  0.2748 -0.5635  0.7790
              Bcc     0.0054     0.762     0.272     0.254  0.8000  0.5835  0.1399
 
              Baa    -0.0500    -7.061    -2.520    -2.355  0.1673 -0.4187  0.8926
     3 Na(23) Bbb    -0.0414    -5.845    -2.086    -1.950  0.4003  0.8562  0.3266
              Bcc     0.0914    12.906     4.605     4.305  0.9010 -0.3026 -0.3109
 
              Baa    -0.0330    -4.656    -1.661    -1.553  0.9870 -0.0583 -0.1497
     4 Na(23) Bbb    -0.0179    -2.528    -0.902    -0.843  0.1411  0.7597  0.6348
              Bcc     0.0509     7.184     2.563     2.396  0.0767 -0.6477  0.7580
 
              Baa    -0.0193    -2.725    -0.972    -0.909 -0.5449  0.7801  0.3076
     5 Na(23) Bbb     0.0012     0.175     0.062     0.058  0.7612  0.6140 -0.2088
              Bcc     0.0181     2.550     0.910     0.851  0.3517 -0.1203  0.9283
 
              Baa    -0.0292    -4.120    -1.470    -1.374  0.9433  0.2866  0.1674
     6 Na(23) Bbb    -0.0079    -1.120    -0.400    -0.374 -0.2661  0.3517  0.8975
              Bcc     0.0371     5.240     1.870     1.748 -0.1983  0.8912 -0.4080
 
              Baa    -0.0030    -0.429    -0.153    -0.143 -0.0625  0.3589  0.9313
     7 Na(23) Bbb     0.0006     0.088     0.031     0.029  0.0337  0.9333 -0.3574
              Bcc     0.0024     0.341     0.122     0.114  0.9975 -0.0090  0.0705
 

 ---------------------------------------------------------------------------------

 No NMR shielding tensors so no spin-rotation constants.
 Leave Link  601 at Mon Nov 13 14:58:19 2023, MaxMem=  1879048192 cpu:               2.6 elap:               0.2
 (Enter /home/sekinelabo/g16/l701.exe)
 ... and contract with generalized density number  0.
 Compute integral first derivatives.
 Leave Link  701 at Mon Nov 13 14:58:19 2023, MaxMem=  1879048192 cpu:               1.7 elap:               0.1
 (Enter /home/sekinelabo/g16/l702.exe)
 L702 exits ... SP integral derivatives will be done elsewhere.
 Leave Link  702 at Mon Nov 13 14:58:19 2023, MaxMem=  1879048192 cpu:               0.5 elap:               0.0
 (Enter /home/sekinelabo/g16/l703.exe)
 Integral derivatives from FoFJK, PRISM(SPDF).
 Compute integral first derivatives, UseDBF=F ICtDFT=           0.
 Calling FoFJK, ICntrl=      2127 FMM=F ISym2X=0 I1Cent= 0 IOpClX= 1 NMat=1 NMatS=1 NMatT=0.
 FoFJK:  IHMeth= 1 ICntrl=    2127 DoSepK=F KAlg= 0 I1Cent=           0 FoldK=F
 IRaf=         0 NMat=       1 IRICut=       1 DoRegI=T DoRafI=F ISym2E= 0 IDoP0=0 IntGTp=1.
 FoFCou: FMM=F IPFlag=           0 FMFlag=      100000 FMFlg1=         800
         NFxFlg=           0 DoJE=F BraDBF=F KetDBF=F FulRan=T
         wScrn=  0.000000 ICntrl=      2127 IOpCl=  1 I1Cent=           0 NGrid=           0
         NMat0=    1 NMatS0=      1 NMatT0=    0 NMatD0=    1 NMtDS0=    0 NMtDT0=    0
 Symmetry not used in FoFCou.
 Leave Link  703 at Mon Nov 13 14:58:21 2023, MaxMem=  1879048192 cpu:              32.2 elap:               2.1
 (Enter /home/sekinelabo/g16/l716.exe)
 Dipole        =-6.98288684D-01 2.82604142D-01 1.87704247D-01
 ***** Axes restored to original set *****
 -------------------------------------------------------------------
 Center     Atomic                   Forces (Hartrees/Bohr)
 Number     Number              X              Y              Z
 -------------------------------------------------------------------
      1       11           0.001399094    0.010823196    0.006681902
      2       11          -0.002844897    0.001344128   -0.003771392
      3       11          -0.006995783    0.004288119    0.008692911
      4       11          -0.004897272   -0.007356677   -0.005249355
      5       11           0.006844160   -0.013469669   -0.000029279
      6       11           0.005873147    0.002498617   -0.008412971
      7       11           0.000621550    0.001872285    0.002088183
 -------------------------------------------------------------------
 Cartesian Forces:  Max     0.013469669 RMS     0.006111926
 Z-matrix is all fixed cartesians, so copy forces.
 Force constants in Cartesian coordinates: 
                1             2             3             4             5 
      1  0.127943D+00
      2  0.996599D-02  0.128366D+00
      3 -0.115893D-01  0.254792D-01  0.955168D-01
      4 -0.131243D-02  0.343349D-02 -0.546607D-02  0.172967D-01
      5 -0.382731D-03  0.139549D-02 -0.156063D-02 -0.967525D-02  0.124403D-01
      6  0.784352D-03 -0.178106D-02  0.328965D-02  0.920263D-02 -0.926622D-02
      7 -0.417869D-01  0.523249D-02  0.129455D-01 -0.150437D-01  0.763933D-02
      8 -0.160633D-01 -0.261830D-01  0.608207D-02  0.569222D-02 -0.121695D-01
      9 -0.596054D-02  0.379753D-03 -0.326991D-01 -0.193419D-02  0.615222D-02
     10 -0.252712D-01 -0.919230D-02 -0.105811D-02 -0.949083D-03  0.238668D-02
     11 -0.162054D-01 -0.375337D-01 -0.133471D-01  0.539644D-03 -0.146835D-02
     12 -0.196482D-02 -0.110560D-01 -0.180647D-01 -0.175939D-02  0.460996D-02
     13 -0.238855D-01  0.276585D-02  0.105904D-02  0.744923D-05  0.226014D-04
     14  0.129948D-01 -0.455701D-01  0.264796D-03  0.348741D-04  0.169331D-04
     15  0.857235D-02 -0.118433D-01 -0.101186D-01 -0.456513D-04  0.417672D-04
     16 -0.332386D-01 -0.997423D-02  0.780170D-02  0.108933D-05  0.937315D-05
     17  0.893952D-02 -0.207708D-01 -0.180664D-01 -0.249785D-04 -0.214927D-03
     18  0.727888D-02 -0.413739D-02 -0.422528D-01  0.266300D-05  0.229138D-04
     19 -0.244863D-02 -0.223129D-02 -0.369274D-02  0.000000D+00  0.000000D+00
     20  0.751207D-03  0.295956D-03  0.114815D-02  0.000000D+00  0.000000D+00
     21  0.287908D-02  0.295888D-02  0.432873D-02  0.000000D+00  0.000000D+00
                6             7             8             9            10 
      6  0.234480D-01
      7 -0.123997D-01  0.747973D-01
      8  0.126310D-01 -0.138549D-01  0.586430D-01
      9 -0.313884D-01 -0.333354D-02  0.370670D-02  0.751458D-01
     10  0.239755D-02 -0.194802D-01  0.168692D-01  0.505346D-02  0.902857D-01
     11 -0.143972D-02 -0.479205D-02 -0.292960D-01 -0.124974D-01  0.827136D-02
     12  0.457206D-02 -0.377278D-02 -0.219322D-01 -0.232716D-01  0.464247D-02
     13  0.958708D-05  0.334381D-03  0.715681D-02  0.984549D-03 -0.423537D-01
     14 -0.161943D-04  0.572349D-02  0.603097D-02  0.182039D-02 -0.138414D-01
     15  0.651342D-04  0.473558D-02 -0.724575D-03  0.428640D-02 -0.864576D-02
     16  0.557197D-05  0.117670D-02  0.255077D-03  0.518440D-02 -0.224136D-02
     17 -0.127766D-03  0.603863D-04  0.277527D-02  0.459577D-03 -0.446003D-02
     18  0.136213D-04  0.182091D-02  0.329801D-03  0.791696D-02 -0.240434D-02
     19  0.000000D+00  0.239878D-05 -0.550043D-04  0.586409D-05  0.983847D-05
     20  0.000000D+00 -0.869068D-05  0.199278D-03 -0.212454D-04 -0.334962D-04
     21  0.000000D+00  0.404481D-05 -0.927481D-04  0.988802D-05  0.147356D-04
               11            12            13            14            15 
     11  0.863937D-01
     12  0.282980D-01  0.418365D-01
     13  0.185861D-01 -0.253517D-02  0.848852D-01
     14 -0.226158D-01 -0.331570D-02 -0.104260D-01  0.985176D-01
     15 -0.152476D-03 -0.948891D-02 -0.331733D-02 -0.610448D-02  0.271644D-01
     16 -0.636629D-02  0.543037D-02 -0.188712D-01  0.552499D-02 -0.113881D-02
     17  0.446374D-02  0.340558D-02 -0.144763D-01 -0.362156D-01  0.233499D-01
     18 -0.860666D-03  0.434972D-02  0.499224D-03  0.719412D-02 -0.160809D-01
     19 -0.333625D-04 -0.406758D-04 -0.116612D-03 -0.107794D-04 -0.160368D-03
     20  0.564111D-04 -0.959158D-05 -0.362917D-02 -0.164000D-03 -0.456685D-02
     21  0.000000D+00  0.668739D-04  0.330010D-02  0.157067D-03  0.417239D-02
               16            17            18            19            20 
     16  0.739616D-01
     17  0.189216D-01  0.622055D-01
     18 -0.107206D-02 -0.513883D-03  0.725297D-01
     19 -0.207882D-01 -0.896025D-02 -0.612528D-02  0.233412D-01
     20 -0.837053D-02 -0.122431D-01 -0.203490D-02  0.112907D-01  0.118555D-01
     21 -0.162112D-01 -0.850701D-02 -0.264763D-01  0.100132D-01  0.548443D-02
               21 
     21  0.178985D-01
 Leave Link  716 at Mon Nov 13 14:58:21 2023, MaxMem=  1879048192 cpu:               0.4 elap:               0.0
 (Enter /home/sekinelabo/g16/l103.exe)

 GradGradGradGradGradGradGradGradGradGradGradGradGradGradGradGradGradGrad
 Berny optimization.
 Search for a local minimum.
 Step number   1 out of a maximum of    2
 All quantities printed in internal units (Hartrees-Bohrs-Radians)
 Second derivative matrix not updated -- first step.
 ITU=  0
     Eigenvalues ---    0.00483   0.01171   0.01325   0.02639   0.02902
     Eigenvalues ---    0.04829   0.06884   0.09015   0.10409   0.11089
     Eigenvalues ---    0.13254   0.14123   0.15223   0.17696   0.18937
 Quadratic step=4.547D-01 exceeds max=3.000D-01 adjusted using Lamda=-1.508D-02.
 Angle between NR and scaled steps=  15.17 degrees.
 Angle between quadratic step and forces=  33.03 degrees.
 Linear search not attempted -- first point.
 B after Tr=     0.000000    0.000000    0.000000
         Rot=    1.000000    0.000000   -0.000000    0.000000 Ang=   0.00 deg.
 Variable       Old X    -DE/DX   Delta X   Delta X   Delta X     New X
                                 (Linear)    (Quad)   (Total)
    X1        8.63868   0.00140   0.00000   0.03264   0.03264   8.67132
    Y1        4.95073   0.01082   0.00000   0.02201   0.02201   4.97275
    Z1        3.08162   0.00668   0.00000   0.04013   0.04013   3.12175
    X2        0.00000  -0.00284   0.00000  -0.10717  -0.10717  -0.10717
    Y2        7.52623   0.00134   0.00000   0.03911   0.03911   7.56534
    Z2        0.43801  -0.00377   0.00000  -0.04168  -0.04168   0.39633
    X3        3.11471  -0.00700   0.00000  -0.09015  -0.09015   3.02456
    Y3        4.84409   0.00429   0.00000   0.06098   0.06098   4.90507
    Z3        4.34097   0.00869   0.00000   0.08316   0.08316   4.42413
    X4        5.50922  -0.00490   0.00000  -0.05652  -0.05652   5.45270
    Y4        0.43494  -0.00736   0.00000  -0.05581  -0.05581   0.37913
    Z4        1.69689  -0.00525   0.00000  -0.01191  -0.01191   1.68498
    X5       11.15723   0.00684   0.00000   0.06399   0.06399  11.22122
    Y5        0.00000  -0.01347   0.00000  -0.13067  -0.13067  -0.13067
    Z5        1.95281  -0.00003   0.00000  -0.03584  -0.03584   1.91697
    X6       13.39634   0.00587   0.00000   0.11268   0.11268  13.50902
    Y6        4.82968   0.00250   0.00000  -0.00440  -0.00440   4.82528
    Z6        0.00000  -0.00841   0.00000  -0.06592  -0.06592  -0.06592
    X7       17.57655   0.00062   0.00000   0.04453   0.04453  17.62108
    Y7        7.33404   0.00187   0.00000   0.06877   0.06877   7.40281
    Z7        2.90179   0.00209   0.00000   0.03206   0.03206   2.93384
         Item               Value     Threshold  Converged?
 Maximum Force            0.013470     0.000450     NO 
 RMS     Force            0.006112     0.000300     NO 
 Maximum Displacement     0.130669     0.001800     NO 
 RMS     Displacement     0.065603     0.001200     NO 
 Predicted change in Energy=-4.210955D-03
 GradGradGradGradGradGradGradGradGradGradGradGradGradGradGradGradGradGrad

 Leave Link  103 at Mon Nov 13 14:58:21 2023, MaxMem=  1879048192 cpu:               0.3 elap:               0.0
 (Enter /home/sekinelabo/g16/l9999.exe)
 1\1\GINC-SEKINELABO-XA7R-R37\Force\UB3LYP\6-311+G(d)\Na7(2)\SEKINELABO
 \13-Nov-2023\0\\#P B3LYP/6-311+g(d) force\\Gaussian input prepared by 
 ASE\\0,2\Na,4.5713920612,2.6198156897,1.630725528\Na,0.,3.9827107608,0
 .23178662\Na,1.6482322856,2.5633821663,2.2971414008\Na,2.9153543515,0.
 230160078,0.8979533212\Na,5.9041521472,0.,1.0333825144\Na,7.0890395083
 ,2.5557579342,0.\Na,9.3011089955,3.8810075896,1.5355605373\\Version=ES
 64L-G16RevB.01\State=2-A\HF=-1136.0931785\S2=0.791894\S2-1=0.\S2A=0.75
 0725\RMSD=4.518e-09\RMSF=6.112e-03\Dipole=0.6982887,-0.2826041,0.18770
 42\Quadrupole=1.6366988,-0.4247166,-1.2119822,5.586644,2.2283277,-1.36
 48754\PG=C01 [X(Na7)]\\@


 BLACK HOLES SUCK.
 Job cpu time:       0 days  0 hours  4 minutes 37.3 seconds.
 Elapsed time:       0 days  0 hours  0 minutes 22.9 seconds.
 File lengths (MBytes):  RWF=     32 Int=      0 D2E=      0 Chk=      5 Scr=      1
 Normal termination of Gaussian 16 at Mon Nov 13 14:58:21 2023.
