 Entering Gaussian System, Link 0=g16
 Initial command:
 /home/sekinelabo/g16/l1.exe "/home/sekinelabo/g16temp/Gau-4021180.inp" -scrdir="/home/sekinelabo/g16temp/"
 Entering Link 1 = /home/sekinelabo/g16/l1.exe PID=   4021182.
  
 Copyright (c) 1988-2017, Gaussian, Inc.  All Rights Reserved.
  
 This is part of the Gaussian(R) 16 program.  It is based on
 the Gaussian(R) 09 system (copyright 2009, Gaussian, Inc.),
 the Gaussian(R) 03 system (copyright 2003, Gaussian, Inc.),
 the Gaussian(R) 98 system (copyright 1998, Gaussian, Inc.),
 the Gaussian(R) 94 system (copyright 1995, Gaussian, Inc.),
 the Gaussian 92(TM) system (copyright 1992, Gaussian, Inc.),
 the Gaussian 90(TM) system (copyright 1990, Gaussian, Inc.),
 the Gaussian 88(TM) system (copyright 1988, Gaussian, Inc.),
 the Gaussian 86(TM) system (copyright 1986, Carnegie Mellon
 University), and the Gaussian 82(TM) system (copyright 1983,
 Carnegie Mellon University). Gaussian is a federally registered
 trademark of Gaussian, Inc.
  
 This software contains proprietary and confidential information,
 including trade secrets, belonging to Gaussian, Inc.
  
 This software is provided under written license and may be
 used, copied, transmitted, or stored only in accord with that
 written license.
  
 The following legend is applicable only to US Government
 contracts under FAR:
  
                    RESTRICTED RIGHTS LEGEND
  
 Use, reproduction and disclosure by the US Government is
 subject to restrictions as set forth in subparagraphs (a)
 and (c) of the Commercial Computer Software - Restricted
 Rights clause in FAR 52.227-19.
  
 Gaussian, Inc.
 340 Quinnipiac St., Bldg. 40, Wallingford CT 06492
  
  
 ---------------------------------------------------------------
 Warning -- This program may not be used in any manner that
 competes with the business of Gaussian, Inc. or will provide
 assistance to any competitor of Gaussian, Inc.  The licensee
 of this program is prohibited from giving any competitor of
 Gaussian, Inc. access to this program.  By using this program,
 the user acknowledges that Gaussian, Inc. is engaged in the
 business of creating and licensing software in the field of
 computational chemistry and represents and warrants to the
 licensee that it is not a competitor of Gaussian, Inc. and that
 it will not use this program in any manner prohibited above.
 ---------------------------------------------------------------
  

 Cite this work as:
 Gaussian 16, Revision B.01,
 M. J. Frisch, G. W. Trucks, H. B. Schlegel, G. E. Scuseria, 
 M. A. Robb, J. R. Cheeseman, G. Scalmani, V. Barone, 
 G. A. Petersson, H. Nakatsuji, X. Li, M. Caricato, A. V. Marenich, 
 J. Bloino, B. G. Janesko, R. Gomperts, B. Mennucci, H. P. Hratchian, 
 J. V. Ortiz, A. F. Izmaylov, J. L. Sonnenberg, D. Williams-Young, 
 F. Ding, F. Lipparini, F. Egidi, J. Goings, B. Peng, A. Petrone, 
 T. Henderson, D. Ranasinghe, V. G. Zakrzewski, J. Gao, N. Rega, 
 G. Zheng, W. Liang, M. Hada, M. Ehara, K. Toyota, R. Fukuda, 
 J. Hasegawa, M. Ishida, T. Nakajima, Y. Honda, O. Kitao, H. Nakai, 
 T. Vreven, K. Throssell, J. A. Montgomery, Jr., J. E. Peralta, 
 F. Ogliaro, M. J. Bearpark, J. J. Heyd, E. N. Brothers, K. N. Kudin, 
 V. N. Staroverov, T. A. Keith, R. Kobayashi, J. Normand, 
 K. Raghavachari, A. P. Rendell, J. C. Burant, S. S. Iyengar, 
 J. Tomasi, M. Cossi, J. M. Millam, M. Klene, C. Adamo, R. Cammi, 
 J. W. Ochterski, R. L. Martin, K. Morokuma, O. Farkas, 
 J. B. Foresman, and D. J. Fox, Gaussian, Inc., Wallingford CT, 2016.
 
 ******************************************
 Gaussian 16:  ES64L-G16RevB.01 20-Dec-2017
                13-Nov-2023 
 ******************************************
 %mem=14GB
 %chk=checkpoint.chk
 %nprocshared=16
 Will use up to   16 processors via shared memory.
 -------------------------
 #P B3LYP/6-311+g(d) force
 -------------------------
 1/10=7,30=1,38=1/1,3;
 2/12=2,17=6,18=5,40=1/2;
 3/5=4,6=6,7=11,11=2,25=1,30=1,71=1,74=-5/1,2,3;
 4//1;
 5/5=2,38=5/2;
 6/7=2,8=2,9=2,10=2,28=1/1;
 7/29=1/1,2,3,16;
 1/10=7,30=1/3;
 99//99;
 Leave Link    1 at Mon Nov 13 15:36:31 2023, MaxMem=  1879048192 cpu:               0.3 elap:               0.0
 (Enter /home/sekinelabo/g16/l101.exe)
 ------------------------------
 Gaussian input prepared by ASE
 ------------------------------
 Symbolic Z-matrix:
 Charge =  0 Multiplicity = 2
 Na                    3.00184   2.96575   1.09494 
 Na                    7.38652   3.01001   0. 
 Na                    8.19858   0.29665   0.98282 
 Na                    5.48733   1.38574   1.65931 
 Na                    3.0298    0.        0.64673 
 Na                    0.03829   0.00783   0.40666 
 Na                    0.        2.95242   0.99287 
 
 ITRead=  0  0  0  0  0  0  0
 MicOpt= -1 -1 -1 -1 -1 -1 -1
 NAtoms=      7 NQM=        7 NQMF=       0 NMMI=      0 NMMIF=      0
                NMic=       0 NMicF=      0.
                    Isotopes and Nuclear Properties:
 (Nuclear quadrupole moments (NQMom) in fm**2, nuclear magnetic moments (NMagM)
  in nuclear magnetons)

  Atom         1           2           3           4           5           6           7
 IAtWgt=          23          23          23          23          23          23          23
 AtmWgt=  22.9897697  22.9897697  22.9897697  22.9897697  22.9897697  22.9897697  22.9897697
 NucSpn=           3           3           3           3           3           3           3
 AtZEff=  -0.0000000  -0.0000000  -0.0000000  -0.0000000  -0.0000000  -0.0000000  -0.0000000
 NQMom=   10.4000000  10.4000000  10.4000000  10.4000000  10.4000000  10.4000000  10.4000000
 NMagM=    2.2175200   2.2175200   2.2175200   2.2175200   2.2175200   2.2175200   2.2175200
 AtZNuc=  11.0000000  11.0000000  11.0000000  11.0000000  11.0000000  11.0000000  11.0000000
 Leave Link  101 at Mon Nov 13 15:36:31 2023, MaxMem=  1879048192 cpu:               2.7 elap:               0.2
 (Enter /home/sekinelabo/g16/l103.exe)

 GradGradGradGradGradGradGradGradGradGradGradGradGradGradGradGradGradGrad
 Berny optimization.
 Initialization pass.
 Trust Radius=3.00D-01 FncErr=1.00D-07 GrdErr=1.00D-07 EigMax=2.50D+02 EigMin=1.00D-04
 Number of steps in this run=      2 maximum allowed number of steps=      2.
 GradGradGradGradGradGradGradGradGradGradGradGradGradGradGradGradGradGrad

 Leave Link  103 at Mon Nov 13 15:36:31 2023, MaxMem=  1879048192 cpu:               0.2 elap:               0.0
 (Enter /home/sekinelabo/g16/l202.exe)
                          Input orientation:                          
 ---------------------------------------------------------------------
 Center     Atomic      Atomic             Coordinates (Angstroms)
 Number     Number       Type             X           Y           Z
 ---------------------------------------------------------------------
      1         11           0        3.001842    2.965754    1.094945
      2         11           0        7.386521    3.010009    0.000000
      3         11           0        8.198576    0.296650    0.982816
      4         11           0        5.487334    1.385740    1.659309
      5         11           0        3.029795    0.000000    0.646731
      6         11           0        0.038289    0.007830    0.406659
      7         11           0        0.000000    2.952421    0.992874
 ---------------------------------------------------------------------
                    Distance matrix (angstroms):
                    1          2          3          4          5
     1  Na   0.000000
     2  Na   4.519544   0.000000
     3  Na   5.843178   2.997945   0.000000
     4  Na   2.998771   2.999744   2.999098   0.000000
     5  Na   2.999563   5.334742   5.188183   2.997513   0.000000
     6  Na   4.243312   7.948268   8.185698   5.758460   3.001134
     7  Na   3.003606   7.453174   8.617996   5.745386   4.244557
                    6          7
     6  Na   0.000000
     7  Na   3.002620   0.000000
 Stoichiometry    Na7(2)
 Framework group  C1[X(Na7)]
 Deg. of freedom    15
 Full point group                 C1      NOp   1
 Largest Abelian subgroup         C1      NOp   1
 Largest concise Abelian subgroup C1      NOp   1
                         Standard orientation:                         
 ---------------------------------------------------------------------
 Center     Atomic      Atomic             Coordinates (Angstroms)
 Number     Number       Type             X           Y           Z
 ---------------------------------------------------------------------
      1         11           0        0.875638    1.448840   -0.268754
      2         11           0       -3.509041    1.493094    0.826191
      3         11           0       -4.321096   -1.220265   -0.156626
      4         11           0       -1.609855   -0.131175   -0.833118
      5         11           0        0.847684   -1.516915    0.179459
      6         11           0        3.839191   -1.509085    0.419531
      7         11           0        3.877480    1.435506   -0.166683
 ---------------------------------------------------------------------
 Rotational constants (GHZ):           1.5499172           0.3303403           0.2843452
 Leave Link  202 at Mon Nov 13 15:36:31 2023, MaxMem=  1879048192 cpu:               0.1 elap:               0.0
 (Enter /home/sekinelabo/g16/l301.exe)
 Standard basis: 6-311+G(d) (5D, 7F)
 Ernie: Thresh=  0.10000D-02 Tol=  0.10000D-05 Strict=F.
 There are   217 symmetry adapted cartesian basis functions of A   symmetry.
 There are   210 symmetry adapted basis functions of A   symmetry.
   210 basis functions,   350 primitive gaussians,   217 cartesian basis functions
    39 alpha electrons       38 beta electrons
       nuclear repulsion energy       325.8992845055 Hartrees.
 IExCor=  402 DFT=T Ex+Corr=B3LYP ExCW=0 ScaHFX=  0.200000
 ScaDFX=  0.800000  0.720000  1.000000  0.810000 ScalE2=  1.000000  1.000000
 IRadAn=      5 IRanWt=     -1 IRanGd=            0 ICorTp=0 IEmpDi=  4
 NAtoms=    7 NActive=    7 NUniq=    7 SFac= 1.00D+00 NAtFMM=   60 NAOKFM=F Big=F
 Integral buffers will be    131072 words long.
 Raffenetti 2 integral format.
 Two-electron integral symmetry is turned on.
 Leave Link  301 at Mon Nov 13 15:36:31 2023, MaxMem=  1879048192 cpu:               0.5 elap:               0.0
 (Enter /home/sekinelabo/g16/l302.exe)
 NPDir=0 NMtPBC=     1 NCelOv=     1 NCel=       1 NClECP=     1 NCelD=      1
         NCelK=      1 NCelE2=     1 NClLst=     1 CellRange=     0.0.
 One-electron integrals computed using PRISM.
 One-electron integral symmetry used in STVInt
 NBasis=   210 RedAO= T EigKep=  1.40D-06  NBF=   210
 NBsUse=   210 1.00D-06 EigRej= -1.00D+00 NBFU=   210
 Precomputing XC quadrature grid using
 IXCGrd= 4 IRadAn=           5 IRanWt=          -1 IRanGd=           0 AccXCQ= 0.00D+00.
 Generated NRdTot=       0 NPtTot=           0 NUsed=           0 NTot=          32
 NSgBfM=   206   206   206   206   206 MxSgAt=     7 MxSgA2=     7.
 Leave Link  302 at Mon Nov 13 15:36:31 2023, MaxMem=  1879048192 cpu:               2.1 elap:               0.1
 (Enter /home/sekinelabo/g16/l303.exe)
 DipDrv:  MaxL=1.
 Leave Link  303 at Mon Nov 13 15:36:31 2023, MaxMem=  1879048192 cpu:               0.5 elap:               0.0
 (Enter /home/sekinelabo/g16/l401.exe)
 ExpMin= 7.60D-03 ExpMax= 3.62D+04 ExpMxC= 1.21D+03 IAcc=3 IRadAn=         5 AccDes= 0.00D+00
 Harris functional with IExCor=  402 and IRadAn=       5 diagonalized for initial guess.
 HarFok:  IExCor=  402 AccDes= 0.00D+00 IRadAn=         5 IDoV= 1 UseB2=F ITyADJ=14
 ICtDFT=  3500011 ScaDFX=  1.000000  1.000000  1.000000  1.000000
 FoFCou: FMM=F IPFlag=           0 FMFlag=      100000 FMFlg1=           0
         NFxFlg=           0 DoJE=T BraDBF=F KetDBF=T FulRan=T
         wScrn=  0.000000 ICntrl=       500 IOpCl=  0 I1Cent=   200000004 NGrid=           0
         NMat0=    1 NMatS0=      1 NMatT0=    0 NMatD0=    1 NMtDS0=    0 NMtDT0=    0
 Petite list used in FoFCou.
 Harris En= -1135.86799198128    
 JPrj=0 DoOrth=F DoCkMO=F.
 Initial guess <Sx>= 0.0000 <Sy>= 0.0000 <Sz>= 0.5000 <S**2>= 0.7500 S= 0.5000
 Leave Link  401 at Mon Nov 13 15:36:31 2023, MaxMem=  1879048192 cpu:               5.4 elap:               0.4
 (Enter /home/sekinelabo/g16/l502.exe)
 Keep R1 and R2 ints in memory in canonical form, NReq=507620360.
 FoFCou: FMM=F IPFlag=           0 FMFlag=           0 FMFlg1=           0
         NFxFlg=           0 DoJE=F BraDBF=F KetDBF=F FulRan=T
         wScrn=  0.000000 ICntrl=       600 IOpCl=  0 I1Cent=           0 NGrid=           0
         NMat0=    1 NMatS0=  22155 NMatT0=    0 NMatD0=    1 NMtDS0=    0 NMtDT0=    0
 Symmetry not used in FoFCou.
 Two-electron integral symmetry not used.
 UHF open shell SCF:
 Using DIIS extrapolation, IDIIS=  1040.
 NGot=  1879048192 LenX=  1388082376 LenY=  1388034846
 Requested convergence on RMS density matrix=1.00D-08 within 128 cycles.
 Requested convergence on MAX density matrix=1.00D-06.
 Requested convergence on             energy=1.00D-06.
 No special actions if energy rises.

 Cycle   1  Pass 1  IDiag  1:
 E= -1136.06512634428    
 DIIS: error= 1.06D-02 at cycle   1 NSaved=   1.
 NSaved= 1 IEnMin= 1 EnMin= -1136.06512634428     IErMin= 1 ErrMin= 1.06D-02
 ErrMax= 1.06D-02  0.00D+00 EMaxC= 1.00D-01 BMatC= 1.86D-01 BMatP= 1.86D-01
 IDIUse=3 WtCom= 8.94D-01 WtEn= 1.06D-01
 Coeff-Com:  0.100D+01
 Coeff-En:   0.100D+01
 Coeff:      0.100D+01
 Gap=     0.037 Goal=   None    Shift=    0.000
 Gap=     0.030 Goal=   None    Shift=    0.000
 GapD=    0.030 DampG=0.250 DampE=0.500 DampFc=0.2500 IDamp=-1.
 Damping current iteration by 2.50D-01
 RMSDP=1.82D-02 MaxDP=1.54D+00              OVMax= 2.06D-01

 Cycle   2  Pass 1  IDiag  1:
 E= -1136.07534041038     Delta-E=       -0.010214066105 Rises=F Damp=T
 DIIS: error= 7.45D-03 at cycle   2 NSaved=   2.
 NSaved= 2 IEnMin= 2 EnMin= -1136.07534041038     IErMin= 2 ErrMin= 7.45D-03
 ErrMax= 7.45D-03  0.00D+00 EMaxC= 1.00D-01 BMatC= 7.26D-02 BMatP= 1.86D-01
 IDIUse=3 WtCom= 9.26D-01 WtEn= 7.45D-02
 Coeff-Com: -0.133D+01 0.233D+01
 Coeff-En:   0.000D+00 0.100D+01
 Coeff:     -0.123D+01 0.223D+01
 Gap=     0.042 Goal=   None    Shift=    0.000
 Gap=     0.034 Goal=   None    Shift=    0.000
 RMSDP=1.13D-02 MaxDP=1.45D+00 DE=-1.02D-02 OVMax= 1.38D-01

 Cycle   3  Pass 1  IDiag  1:
 E= -1136.09486817415     Delta-E=       -0.019527763766 Rises=F Damp=F
 DIIS: error= 1.46D-03 at cycle   3 NSaved=   3.
 NSaved= 3 IEnMin= 3 EnMin= -1136.09486817415     IErMin= 3 ErrMin= 1.46D-03
 ErrMax= 1.46D-03  0.00D+00 EMaxC= 1.00D-01 BMatC= 1.05D-03 BMatP= 7.26D-02
 IDIUse=3 WtCom= 9.85D-01 WtEn= 1.46D-02
 Coeff-Com: -0.103D+00 0.180D+00 0.923D+00
 Coeff-En:   0.000D+00 0.000D+00 0.100D+01
 Coeff:     -0.101D+00 0.178D+00 0.924D+00
 Gap=     0.037 Goal=   None    Shift=    0.000
 Gap=     0.032 Goal=   None    Shift=    0.000
 RMSDP=3.43D-03 MaxDP=3.04D-01 DE=-1.95D-02 OVMax= 6.51D-02

 Cycle   4  Pass 1  IDiag  1:
 E= -1136.09474727276     Delta-E=        0.000120901389 Rises=F Damp=F
 DIIS: error= 1.58D-03 at cycle   4 NSaved=   4.
 NSaved= 4 IEnMin= 3 EnMin= -1136.09486817415     IErMin= 3 ErrMin= 1.46D-03
 ErrMax= 1.58D-03  0.00D+00 EMaxC= 1.00D-01 BMatC= 1.31D-03 BMatP= 1.05D-03
 IDIUse=3 WtCom= 2.01D-01 WtEn= 7.99D-01
 Coeff-Com: -0.651D-02 0.903D-02 0.527D+00 0.470D+00
 Coeff-En:   0.000D+00 0.000D+00 0.527D+00 0.473D+00
 Coeff:     -0.131D-02 0.182D-02 0.527D+00 0.472D+00
 Gap=     0.038 Goal=   None    Shift=    0.000
 Gap=     0.031 Goal=   None    Shift=    0.000
 RMSDP=1.94D-03 MaxDP=1.50D-01 DE= 1.21D-04 OVMax= 3.52D-02

 Cycle   5  Pass 1  IDiag  1:
 E= -1136.09585097551     Delta-E=       -0.001103702747 Rises=F Damp=F
 DIIS: error= 1.73D-04 at cycle   5 NSaved=   5.
 NSaved= 5 IEnMin= 5 EnMin= -1136.09585097551     IErMin= 5 ErrMin= 1.73D-04
 ErrMax= 1.73D-04  0.00D+00 EMaxC= 1.00D-01 BMatC= 1.10D-05 BMatP= 1.05D-03
 IDIUse=3 WtCom= 9.98D-01 WtEn= 1.73D-03
 Coeff-Com:  0.119D-02-0.217D-02 0.173D+00 0.160D+00 0.668D+00
 Coeff-En:   0.000D+00 0.000D+00 0.000D+00 0.000D+00 0.100D+01
 Coeff:      0.119D-02-0.216D-02 0.173D+00 0.160D+00 0.668D+00
 Gap=     0.038 Goal=   None    Shift=    0.000
 Gap=     0.031 Goal=   None    Shift=    0.000
 RMSDP=4.12D-04 MaxDP=3.68D-02 DE=-1.10D-03 OVMax= 8.92D-03

 Cycle   6  Pass 1  IDiag  1:
 E= -1136.09586251684     Delta-E=       -0.000011541330 Rises=F Damp=F
 DIIS: error= 1.84D-04 at cycle   6 NSaved=   6.
 NSaved= 6 IEnMin= 6 EnMin= -1136.09586251684     IErMin= 5 ErrMin= 1.73D-04
 ErrMax= 1.84D-04  0.00D+00 EMaxC= 1.00D-01 BMatC= 6.36D-06 BMatP= 1.10D-05
 IDIUse=3 WtCom= 9.98D-01 WtEn= 1.73D-03
 Coeff-Com:  0.199D-02-0.324D-02-0.355D-01-0.263D-01 0.428D+00 0.635D+00
 Coeff-En:   0.000D+00 0.000D+00 0.000D+00 0.000D+00 0.204D+00 0.796D+00
 Coeff:      0.198D-02-0.323D-02-0.354D-01-0.262D-01 0.428D+00 0.635D+00
 Gap=     0.038 Goal=   None    Shift=    0.000
 Gap=     0.031 Goal=   None    Shift=    0.000
 RMSDP=4.09D-04 MaxDP=3.87D-02 DE=-1.15D-05 OVMax= 7.59D-03

 Cycle   7  Pass 1  IDiag  1:
 E= -1136.09587425193     Delta-E=       -0.000011735094 Rises=F Damp=F
 DIIS: error= 5.39D-05 at cycle   7 NSaved=   7.
 NSaved= 7 IEnMin= 7 EnMin= -1136.09587425193     IErMin= 7 ErrMin= 5.39D-05
 ErrMax= 5.39D-05  0.00D+00 EMaxC= 1.00D-01 BMatC= 7.11D-07 BMatP= 6.36D-06
 IDIUse=1 WtCom= 1.00D+00 WtEn= 0.00D+00
 Coeff-Com: -0.350D-03 0.458D-03-0.554D-01-0.461D-01-0.702D-01 0.181D+00
 Coeff-Com:  0.991D+00
 Coeff:     -0.350D-03 0.458D-03-0.554D-01-0.461D-01-0.702D-01 0.181D+00
 Coeff:      0.991D+00
 Gap=     0.038 Goal=   None    Shift=    0.000
 Gap=     0.031 Goal=   None    Shift=    0.000
 RMSDP=2.12D-04 MaxDP=1.56D-02 DE=-1.17D-05 OVMax= 3.61D-03

 Cycle   8  Pass 1  IDiag  1:
 E= -1136.09587735794     Delta-E=       -0.000003106005 Rises=F Damp=F
 DIIS: error= 1.67D-05 at cycle   8 NSaved=   8.
 NSaved= 8 IEnMin= 8 EnMin= -1136.09587735794     IErMin= 8 ErrMin= 1.67D-05
 ErrMax= 1.67D-05  0.00D+00 EMaxC= 1.00D-01 BMatC= 1.09D-07 BMatP= 7.11D-07
 IDIUse=1 WtCom= 1.00D+00 WtEn= 0.00D+00
 Coeff-Com:  0.504D-03-0.613D-03-0.462D-02-0.436D-02-0.647D-01-0.480D-01
 Coeff-Com:  0.131D+00 0.991D+00
 Coeff:      0.504D-03-0.613D-03-0.462D-02-0.436D-02-0.647D-01-0.480D-01
 Coeff:      0.131D+00 0.991D+00
 Gap=     0.038 Goal=   None    Shift=    0.000
 Gap=     0.031 Goal=   None    Shift=    0.000
 RMSDP=1.25D-04 MaxDP=1.03D-02 DE=-3.11D-06 OVMax= 2.41D-03

 Cycle   9  Pass 1  IDiag  1:
 E= -1136.09587811897     Delta-E=       -0.000000761032 Rises=F Damp=F
 DIIS: error= 1.39D-05 at cycle   9 NSaved=   9.
 NSaved= 9 IEnMin= 9 EnMin= -1136.09587811897     IErMin= 9 ErrMin= 1.39D-05
 ErrMax= 1.39D-05  0.00D+00 EMaxC= 1.00D-01 BMatC= 8.65D-08 BMatP= 1.09D-07
 IDIUse=1 WtCom= 1.00D+00 WtEn= 0.00D+00
 Coeff-Com:  0.453D-03-0.560D-03 0.116D-01 0.893D-02-0.263D-01-0.778D-01
 Coeff-Com: -0.172D+00 0.616D+00 0.639D+00
 Coeff:      0.453D-03-0.560D-03 0.116D-01 0.893D-02-0.263D-01-0.778D-01
 Coeff:     -0.172D+00 0.616D+00 0.639D+00
 Gap=     0.038 Goal=   None    Shift=    0.000
 Gap=     0.031 Goal=   None    Shift=    0.000
 RMSDP=6.39D-05 MaxDP=5.88D-03 DE=-7.61D-07 OVMax= 1.54D-03

 Cycle  10  Pass 1  IDiag  1:
 E= -1136.09587848394     Delta-E=       -0.000000364971 Rises=F Damp=F
 DIIS: error= 1.00D-05 at cycle  10 NSaved=  10.
 NSaved=10 IEnMin=10 EnMin= -1136.09587848394     IErMin=10 ErrMin= 1.00D-05
 ErrMax= 1.00D-05  0.00D+00 EMaxC= 1.00D-01 BMatC= 2.10D-08 BMatP= 8.65D-08
 IDIUse=1 WtCom= 1.00D+00 WtEn= 0.00D+00
 Coeff-Com: -0.206D-03 0.268D-03 0.509D-02 0.412D-02 0.219D-01-0.197D-02
 Coeff-Com: -0.115D+00-0.216D+00 0.166D+00 0.114D+01
 Coeff:     -0.206D-03 0.268D-03 0.509D-02 0.412D-02 0.219D-01-0.197D-02
 Coeff:     -0.115D+00-0.216D+00 0.166D+00 0.114D+01
 Gap=     0.038 Goal=   None    Shift=    0.000
 Gap=     0.031 Goal=   None    Shift=    0.000
 RMSDP=7.86D-05 MaxDP=8.44D-03 DE=-3.65D-07 OVMax= 2.07D-03

 Cycle  11  Pass 1  IDiag  1:
 E= -1136.09587876434     Delta-E=       -0.000000280399 Rises=F Damp=F
 DIIS: error= 8.20D-06 at cycle  11 NSaved=  11.
 NSaved=11 IEnMin=11 EnMin= -1136.09587876434     IErMin=11 ErrMin= 8.20D-06
 ErrMax= 8.20D-06  0.00D+00 EMaxC= 1.00D-01 BMatC= 1.12D-08 BMatP= 2.10D-08
 IDIUse=1 WtCom= 1.00D+00 WtEn= 0.00D+00
 Coeff-Com: -0.228D-03 0.286D-03-0.974D-03-0.520D-03 0.216D-01 0.197D-01
 Coeff-Com: -0.111D-01-0.267D+00-0.127D+00 0.509D+00 0.857D+00
 Coeff:     -0.228D-03 0.286D-03-0.974D-03-0.520D-03 0.216D-01 0.197D-01
 Coeff:     -0.111D-01-0.267D+00-0.127D+00 0.509D+00 0.857D+00
 Gap=     0.038 Goal=   None    Shift=    0.000
 Gap=     0.031 Goal=   None    Shift=    0.000
 RMSDP=3.82D-05 MaxDP=3.99D-03 DE=-2.80D-07 OVMax= 1.43D-03

 Cycle  12  Pass 1  IDiag  1:
 E= -1136.09587891450     Delta-E=       -0.000000150157 Rises=F Damp=F
 DIIS: error= 6.47D-06 at cycle  12 NSaved=  12.
 NSaved=12 IEnMin=12 EnMin= -1136.09587891450     IErMin=12 ErrMin= 6.47D-06
 ErrMax= 6.47D-06  0.00D+00 EMaxC= 1.00D-01 BMatC= 6.37D-09 BMatP= 1.12D-08
 IDIUse=1 WtCom= 1.00D+00 WtEn= 0.00D+00
 Coeff-Com:  0.112D-03-0.148D-03-0.208D-02-0.165D-02-0.720D-02-0.290D-02
 Coeff-Com:  0.577D-01 0.916D-01-0.101D+00-0.538D+00 0.155D+00 0.135D+01
 Coeff:      0.112D-03-0.148D-03-0.208D-02-0.165D-02-0.720D-02-0.290D-02
 Coeff:      0.577D-01 0.916D-01-0.101D+00-0.538D+00 0.155D+00 0.135D+01
 Gap=     0.038 Goal=   None    Shift=    0.000
 Gap=     0.031 Goal=   None    Shift=    0.000
 RMSDP=4.03D-05 MaxDP=4.79D-03 DE=-1.50D-07 OVMax= 1.78D-03

 Cycle  13  Pass 1  IDiag  1:
 E= -1136.09587906903     Delta-E=       -0.000000154531 Rises=F Damp=F
 DIIS: error= 4.92D-06 at cycle  13 NSaved=  13.
 NSaved=13 IEnMin=13 EnMin= -1136.09587906903     IErMin=13 ErrMin= 4.92D-06
 ErrMax= 4.92D-06  0.00D+00 EMaxC= 1.00D-01 BMatC= 3.86D-09 BMatP= 6.37D-09
 IDIUse=1 WtCom= 1.00D+00 WtEn= 0.00D+00
 Coeff-Com:  0.169D-03-0.214D-03 0.319D-03-0.703D-04-0.119D-01-0.127D-01
 Coeff-Com:  0.108D-01 0.159D+00 0.508D-01-0.362D+00-0.402D+00 0.114D+00
 Coeff-Com:  0.145D+01
 Coeff:      0.169D-03-0.214D-03 0.319D-03-0.703D-04-0.119D-01-0.127D-01
 Coeff:      0.108D-01 0.159D+00 0.508D-01-0.362D+00-0.402D+00 0.114D+00
 Coeff:      0.145D+01
 Gap=     0.038 Goal=   None    Shift=    0.000
 Gap=     0.031 Goal=   None    Shift=    0.000
 RMSDP=3.92D-05 MaxDP=3.43D-03 DE=-1.55D-07 OVMax= 1.93D-03

 Cycle  14  Pass 1  IDiag  1:
 E= -1136.09587920436     Delta-E=       -0.000000135328 Rises=F Damp=F
 DIIS: error= 3.69D-06 at cycle  14 NSaved=  14.
 NSaved=14 IEnMin=14 EnMin= -1136.09587920436     IErMin=14 ErrMin= 3.69D-06
 ErrMax= 3.69D-06  0.00D+00 EMaxC= 1.00D-01 BMatC= 2.36D-09 BMatP= 3.86D-09
 IDIUse=1 WtCom= 1.00D+00 WtEn= 0.00D+00
 Coeff-Com: -0.925D-04 0.121D-03 0.185D-02 0.158D-02 0.937D-02 0.470D-02
 Coeff-Com: -0.617D-01-0.825D-01 0.744D-01 0.531D+00-0.135D+00-0.126D+01
 Coeff-Com: -0.104D+00 0.202D+01
 Coeff:     -0.925D-04 0.121D-03 0.185D-02 0.158D-02 0.937D-02 0.470D-02
 Coeff:     -0.617D-01-0.825D-01 0.744D-01 0.531D+00-0.135D+00-0.126D+01
 Coeff:     -0.104D+00 0.202D+01
 Gap=     0.038 Goal=   None    Shift=    0.000
 Gap=     0.031 Goal=   None    Shift=    0.000
 RMSDP=5.57D-05 MaxDP=4.14D-03 DE=-1.35D-07 OVMax= 2.78D-03

 Cycle  15  Pass 1  IDiag  1:
 E= -1136.09587933736     Delta-E=       -0.000000133009 Rises=F Damp=F
 DIIS: error= 2.27D-06 at cycle  15 NSaved=  15.
 NSaved=15 IEnMin=15 EnMin= -1136.09587933736     IErMin=15 ErrMin= 2.27D-06
 ErrMax= 2.27D-06  0.00D+00 EMaxC= 1.00D-01 BMatC= 9.01D-10 BMatP= 2.36D-09
 IDIUse=1 WtCom= 1.00D+00 WtEn= 0.00D+00
 Coeff-Com: -0.140D-03 0.181D-03-0.242D-03-0.279D-04 0.825D-02 0.101D-01
 Coeff-Com: -0.856D-02-0.933D-01-0.538D-01 0.212D+00 0.319D+00-0.375D-01
 Coeff-Com: -0.995D+00 0.821D-01 0.156D+01
 Coeff:     -0.140D-03 0.181D-03-0.242D-03-0.279D-04 0.825D-02 0.101D-01
 Coeff:     -0.856D-02-0.933D-01-0.538D-01 0.212D+00 0.319D+00-0.375D-01
 Coeff:     -0.995D+00 0.821D-01 0.156D+01
 Gap=     0.038 Goal=   None    Shift=    0.000
 Gap=     0.031 Goal=   None    Shift=    0.000
 RMSDP=3.75D-05 MaxDP=2.58D-03 DE=-1.33D-07 OVMax= 1.83D-03

 Cycle  16  Pass 1  IDiag  1:
 E= -1136.09587938285     Delta-E=       -0.000000045487 Rises=F Damp=F
 DIIS: error= 1.06D-06 at cycle  16 NSaved=  16.
 NSaved=16 IEnMin=16 EnMin= -1136.09587938285     IErMin=16 ErrMin= 1.06D-06
 ErrMax= 1.06D-06  0.00D+00 EMaxC= 1.00D-01 BMatC= 2.47D-10 BMatP= 9.01D-10
 IDIUse=1 WtCom= 1.00D+00 WtEn= 0.00D+00
 Coeff-Com:  0.705D-04-0.932D-04-0.648D-03-0.529D-03-0.459D-02-0.277D-02
 Coeff-Com:  0.232D-01 0.507D-01-0.375D-01-0.264D+00 0.811D-01 0.579D+00
 Coeff-Com: -0.674D-02-0.865D+00 0.107D+00 0.134D+01
 Coeff:      0.705D-04-0.932D-04-0.648D-03-0.529D-03-0.459D-02-0.277D-02
 Coeff:      0.232D-01 0.507D-01-0.375D-01-0.264D+00 0.811D-01 0.579D+00
 Coeff:     -0.674D-02-0.865D+00 0.107D+00 0.134D+01
 Gap=     0.038 Goal=   None    Shift=    0.000
 Gap=     0.031 Goal=   None    Shift=    0.000
 RMSDP=1.67D-05 MaxDP=9.39D-04 DE=-4.55D-08 OVMax= 8.15D-04

 Cycle  17  Pass 1  IDiag  1:
 E= -1136.09587939121     Delta-E=       -0.000000008354 Rises=F Damp=F
 DIIS: error= 4.98D-07 at cycle  17 NSaved=  17.
 NSaved=17 IEnMin=17 EnMin= -1136.09587939121     IErMin=17 ErrMin= 4.98D-07
 ErrMax= 4.98D-07  0.00D+00 EMaxC= 1.00D-01 BMatC= 4.25D-11 BMatP= 2.47D-10
 IDIUse=1 WtCom= 1.00D+00 WtEn= 0.00D+00
 Coeff-Com:  0.449D-04-0.583D-04-0.467D-04-0.413D-04-0.297D-02-0.238D-02
 Coeff-Com:  0.528D-02 0.311D-01 0.101D-01-0.886D-01-0.853D-01 0.113D+00
 Coeff-Com:  0.210D+00-0.127D+00-0.334D+00 0.151D+00 0.112D+01
 Coeff:      0.449D-04-0.583D-04-0.467D-04-0.413D-04-0.297D-02-0.238D-02
 Coeff:      0.528D-02 0.311D-01 0.101D-01-0.886D-01-0.853D-01 0.113D+00
 Coeff:      0.210D+00-0.127D+00-0.334D+00 0.151D+00 0.112D+01
 Gap=     0.038 Goal=   None    Shift=    0.000
 Gap=     0.031 Goal=   None    Shift=    0.000
 RMSDP=5.24D-06 MaxDP=2.83D-04 DE=-8.35D-09 OVMax= 2.52D-04

 Cycle  18  Pass 1  IDiag  1:
 E= -1136.09587939204     Delta-E=       -0.000000000832 Rises=F Damp=F
 DIIS: error= 1.62D-07 at cycle  18 NSaved=  18.
 NSaved=18 IEnMin=18 EnMin= -1136.09587939204     IErMin=18 ErrMin= 1.62D-07
 ErrMax= 1.62D-07  0.00D+00 EMaxC= 1.00D-01 BMatC= 6.88D-12 BMatP= 4.25D-11
 IDIUse=1 WtCom= 1.00D+00 WtEn= 0.00D+00
 Coeff-Com: -0.734D-05 0.989D-05 0.909D-04 0.754D-04 0.388D-03 0.244D-03
 Coeff-Com: -0.346D-02-0.499D-02 0.753D-02 0.354D-01-0.213D-01-0.979D-01
 Coeff-Com:  0.450D-01 0.134D+00-0.905D-01-0.174D+00 0.148D+00 0.102D+01
 Coeff:     -0.734D-05 0.989D-05 0.909D-04 0.754D-04 0.388D-03 0.244D-03
 Coeff:     -0.346D-02-0.499D-02 0.753D-02 0.354D-01-0.213D-01-0.979D-01
 Coeff:      0.450D-01 0.134D+00-0.905D-01-0.174D+00 0.148D+00 0.102D+01
 Gap=     0.038 Goal=   None    Shift=    0.000
 Gap=     0.031 Goal=   None    Shift=    0.000
 RMSDP=8.73D-07 MaxDP=6.31D-05 DE=-8.32D-10 OVMax= 3.91D-05

 Cycle  19  Pass 1  IDiag  1:
 E= -1136.09587939209     Delta-E=       -0.000000000056 Rises=F Damp=F
 DIIS: error= 8.54D-08 at cycle  19 NSaved=  19.
 NSaved=19 IEnMin=19 EnMin= -1136.09587939209     IErMin=19 ErrMin= 8.54D-08
 ErrMax= 8.54D-08  0.00D+00 EMaxC= 1.00D-01 BMatC= 1.90D-12 BMatP= 6.88D-12
 IDIUse=1 WtCom= 1.00D+00 WtEn= 0.00D+00
 Coeff-Com: -0.117D-04 0.154D-04 0.333D-04 0.249D-04 0.720D-03 0.569D-03
 Coeff-Com: -0.200D-02-0.789D-02 0.314D-03 0.273D-01 0.116D-01-0.461D-01
 Coeff-Com: -0.333D-01 0.615D-01 0.425D-01-0.722D-01-0.194D+00 0.241D+00
 Coeff-Com:  0.970D+00
 Coeff:     -0.117D-04 0.154D-04 0.333D-04 0.249D-04 0.720D-03 0.569D-03
 Coeff:     -0.200D-02-0.789D-02 0.314D-03 0.273D-01 0.116D-01-0.461D-01
 Coeff:     -0.333D-01 0.615D-01 0.425D-01-0.722D-01-0.194D+00 0.241D+00
 Coeff:      0.970D+00
 Gap=     0.038 Goal=   None    Shift=    0.000
 Gap=     0.031 Goal=   None    Shift=    0.000
 RMSDP=3.87D-07 MaxDP=3.15D-05 DE=-5.59D-11 OVMax= 1.20D-05

 Cycle  20  Pass 1  IDiag  1:
 E= -1136.09587939211     Delta-E=       -0.000000000011 Rises=F Damp=F
 DIIS: error= 4.46D-08 at cycle  20 NSaved=  20.
 NSaved=20 IEnMin=20 EnMin= -1136.09587939211     IErMin=20 ErrMin= 4.46D-08
 ErrMax= 4.46D-08  0.00D+00 EMaxC= 1.00D-01 BMatC= 4.80D-13 BMatP= 1.90D-12
 IDIUse=1 WtCom= 1.00D+00 WtEn= 0.00D+00
 Coeff-Com:  0.357D-05-0.477D-05-0.201D-04-0.164D-04-0.209D-03-0.111D-03
 Coeff-Com:  0.103D-02 0.189D-02-0.952D-03-0.113D-01 0.135D-02 0.260D-01
 Coeff-Com: -0.308D-02-0.374D-01 0.119D-01 0.520D-01 0.569D-02-0.313D+00
 Coeff-Com: -0.133D+00 0.140D+01
 Coeff:      0.357D-05-0.477D-05-0.201D-04-0.164D-04-0.209D-03-0.111D-03
 Coeff:      0.103D-02 0.189D-02-0.952D-03-0.113D-01 0.135D-02 0.260D-01
 Coeff:     -0.308D-02-0.374D-01 0.119D-01 0.520D-01 0.569D-02-0.313D+00
 Coeff:     -0.133D+00 0.140D+01
 Gap=     0.038 Goal=   None    Shift=    0.000
 Gap=     0.031 Goal=   None    Shift=    0.000
 RMSDP=3.19D-07 MaxDP=3.21D-05 DE=-1.14D-11 OVMax= 1.27D-05

 Cycle  21  Pass 1  IDiag  1:
 E= -1136.09587939212     Delta-E=       -0.000000000012 Rises=F Damp=F
 DIIS: error= 2.12D-08 at cycle  21 NSaved=  20.
 NSaved=20 IEnMin=20 EnMin= -1136.09587939212     IErMin=20 ErrMin= 2.12D-08
 ErrMax= 2.12D-08  0.00D+00 EMaxC= 1.00D-01 BMatC= 1.30D-13 BMatP= 4.80D-13
 IDIUse=1 WtCom= 1.00D+00 WtEn= 0.00D+00
 Coeff-Com:  0.132D-06 0.118D-05 0.404D-05-0.474D-04-0.196D-04-0.101D-03
 Coeff-Com:  0.333D-03 0.404D-03 0.616D-03-0.263D-02-0.407D-02 0.751D-02
 Coeff-Com:  0.549D-02-0.140D-01-0.691D-02 0.387D-01 0.514D-01-0.193D+00
 Coeff-Com: -0.359D+00 0.148D+01
 Coeff:      0.132D-06 0.118D-05 0.404D-05-0.474D-04-0.196D-04-0.101D-03
 Coeff:      0.333D-03 0.404D-03 0.616D-03-0.263D-02-0.407D-02 0.751D-02
 Coeff:      0.549D-02-0.140D-01-0.691D-02 0.387D-01 0.514D-01-0.193D+00
 Coeff:     -0.359D+00 0.148D+01
 Gap=     0.038 Goal=   None    Shift=    0.000
 Gap=     0.031 Goal=   None    Shift=    0.000
 RMSDP=1.70D-07 MaxDP=1.67D-05 DE=-1.18D-11 OVMax= 5.70D-06

 Cycle  22  Pass 1  IDiag  1:
 E= -1136.09587939211     Delta-E=        0.000000000003 Rises=F Damp=F
 DIIS: error= 1.03D-08 at cycle  22 NSaved=  20.
 NSaved=20 IEnMin=19 EnMin= -1136.09587939212     IErMin=20 ErrMin= 1.03D-08
 ErrMax= 1.03D-08  0.00D+00 EMaxC= 1.00D-01 BMatC= 3.86D-14 BMatP= 1.30D-13
 IDIUse=1 WtCom= 1.00D+00 WtEn= 0.00D+00
 Coeff-Com:  0.266D-05 0.291D-05-0.175D-04-0.277D-04-0.131D-03 0.200D-03
 Coeff-Com:  0.485D-03 0.867D-03-0.226D-02-0.389D-02 0.563D-02 0.669D-02
 Coeff-Com: -0.111D-01-0.873D-02 0.194D-01 0.766D-01-0.342D-01-0.450D+00
 Coeff-Com:  0.374D+00 0.103D+01
 Coeff:      0.266D-05 0.291D-05-0.175D-04-0.277D-04-0.131D-03 0.200D-03
 Coeff:      0.485D-03 0.867D-03-0.226D-02-0.389D-02 0.563D-02 0.669D-02
 Coeff:     -0.111D-01-0.873D-02 0.194D-01 0.766D-01-0.342D-01-0.450D+00
 Coeff:      0.374D+00 0.103D+01
 Gap=     0.038 Goal=   None    Shift=    0.000
 Gap=     0.031 Goal=   None    Shift=    0.000
 RMSDP=7.66D-08 MaxDP=3.99D-06 DE= 3.18D-12 OVMax= 3.43D-06

 Cycle  23  Pass 1  IDiag  1:
 E= -1136.09587939212     Delta-E=       -0.000000000001 Rises=F Damp=F
 DIIS: error= 5.03D-09 at cycle  23 NSaved=  20.
 NSaved=20 IEnMin=18 EnMin= -1136.09587939212     IErMin=20 ErrMin= 5.03D-09
 ErrMax= 5.03D-09  0.00D+00 EMaxC= 1.00D-01 BMatC= 7.97D-15 BMatP= 3.86D-14
 IDIUse=1 WtCom= 1.00D+00 WtEn= 0.00D+00
 Coeff-Com:  0.112D-05 0.580D-05 0.302D-05 0.660D-05-0.350D-04 0.345D-04
 Coeff-Com: -0.176D-03 0.296D-03 0.412D-03-0.117D-02-0.984D-03 0.271D-02
 Coeff-Com:  0.143D-02-0.424D-02-0.142D-01 0.267D-01 0.128D+00-0.379D+00
 Coeff-Com:  0.732D-02 0.123D+01
 Coeff:      0.112D-05 0.580D-05 0.302D-05 0.660D-05-0.350D-04 0.345D-04
 Coeff:     -0.176D-03 0.296D-03 0.412D-03-0.117D-02-0.984D-03 0.271D-02
 Coeff:      0.143D-02-0.424D-02-0.142D-01 0.267D-01 0.128D+00-0.379D+00
 Coeff:      0.732D-02 0.123D+01
 Gap=     0.038 Goal=   None    Shift=    0.000
 Gap=     0.031 Goal=   None    Shift=    0.000
 RMSDP=3.22D-08 MaxDP=1.79D-06 DE=-6.82D-13 OVMax= 1.25D-06

 Cycle  24  Pass 1  IDiag  1:
 E= -1136.09587939212     Delta-E=       -0.000000000009 Rises=F Damp=F
 DIIS: error= 2.28D-09 at cycle  24 NSaved=  20.
 NSaved=20 IEnMin=20 EnMin= -1136.09587939212     IErMin=20 ErrMin= 2.28D-09
 ErrMax= 2.28D-09  0.00D+00 EMaxC= 1.00D-01 BMatC= 2.31D-15 BMatP= 7.97D-15
 IDIUse=1 WtCom= 1.00D+00 WtEn= 0.00D+00
 Large coefficients: NSaved= 20 BigCof=    0.00 CofMax=   10.00 Det=-2.58D-15
 Inversion failed.  Reducing to 19 matrices.
 Large coefficients: NSaved= 19 BigCof=    0.00 CofMax=   10.00 Det=-2.60D-15
 Inversion failed.  Reducing to 18 matrices.
 Large coefficients: NSaved= 18 BigCof=    0.00 CofMax=   10.00 Det=-2.60D-15
 Inversion failed.  Reducing to 17 matrices.
 Large coefficients: NSaved= 17 BigCof=    0.00 CofMax=   10.00 Det=-2.80D-15
 Inversion failed.  Reducing to 16 matrices.
 Large coefficients: NSaved= 16 BigCof=    0.00 CofMax=   10.00 Det=-2.81D-15
 Inversion failed.  Reducing to 15 matrices.
 Coeff-Com:  0.161D-04 0.559D-04 0.942D-04-0.331D-03-0.813D-04 0.640D-03
 Coeff-Com:  0.234D-03-0.226D-02-0.971D-02 0.743D-02 0.712D-01-0.874D-01
 Coeff-Com: -0.198D+00 0.118D+00 0.110D+01
 Coeff:      0.161D-04 0.559D-04 0.942D-04-0.331D-03-0.813D-04 0.640D-03
 Coeff:      0.234D-03-0.226D-02-0.971D-02 0.743D-02 0.712D-01-0.874D-01
 Coeff:     -0.198D+00 0.118D+00 0.110D+01
 Gap=     0.038 Goal=   None    Shift=    0.000
 Gap=     0.031 Goal=   None    Shift=    0.000
 RMSDP=1.82D-08 MaxDP=1.07D-06 DE=-8.64D-12 OVMax= 8.74D-07

 Cycle  25  Pass 1  IDiag  1:
 E= -1136.09587939212     Delta-E=        0.000000000007 Rises=F Damp=F
 DIIS: error= 1.68D-09 at cycle  25 NSaved=  16.
 NSaved=16 IEnMin=15 EnMin= -1136.09587939212     IErMin=16 ErrMin= 1.68D-09
 ErrMax= 1.68D-09  0.00D+00 EMaxC= 1.00D-01 BMatC= 8.34D-16 BMatP= 2.31D-15
 IDIUse=1 WtCom= 1.00D+00 WtEn= 0.00D+00
 Large coefficients: NSaved= 16 BigCof=    0.00 CofMax=   10.00 Det=-1.26D-15
 Inversion failed.  Reducing to 15 matrices.
 Coeff-Com: -0.127D-04 0.449D-04-0.162D-03-0.147D-04 0.369D-03 0.228D-03
 Coeff-Com: -0.648D-03-0.650D-02-0.330D-03 0.339D-01 0.103D-01-0.139D+00
 Coeff-Com: -0.152D+00 0.438D+00 0.816D+00
 Coeff:     -0.127D-04 0.449D-04-0.162D-03-0.147D-04 0.369D-03 0.228D-03
 Coeff:     -0.648D-03-0.650D-02-0.330D-03 0.339D-01 0.103D-01-0.139D+00
 Coeff:     -0.152D+00 0.438D+00 0.816D+00
 Gap=     0.038 Goal=   None    Shift=    0.000
 Gap=     0.031 Goal=   None    Shift=    0.000
 RMSDP=7.53D-09 MaxDP=4.99D-07 DE= 7.05D-12 OVMax= 2.32D-07

 SCF Done:  E(UB3LYP) =  -1136.09587939     A.U. after   25 cycles
            NFock= 25  Conv=0.75D-08     -V/T= 2.0026
 <Sx>= 0.0000 <Sy>= 0.0000 <Sz>= 0.5000 <S**2>= 0.7650 S= 0.5075
 <L.S>= 0.000000000000E+00
 KE= 1.133188521561D+03 PE=-3.381268874055D+03 EE= 7.860851885958D+02
 Annihilation of the first spin contaminant:
 S**2 before annihilation     0.7650,   after     0.7501
 Leave Link  502 at Mon Nov 13 15:36:52 2023, MaxMem=  1879048192 cpu:             236.4 elap:              20.2
 (Enter /home/sekinelabo/g16/l601.exe)
 Copying SCF densities to generalized density rwf, IOpCl= 1 IROHF=0.

 **********************************************************************

            Population analysis using the SCF Density.

 **********************************************************************

 Orbital symmetries:
 Alpha Orbitals:
       Occupied  (A) (A) (A) (A) (A) (A) (A) (A) (A) (A) (A) (A)
                 (A) (A) (A) (A) (A) (A) (A) (A) (A) (A) (A) (A)
                 (A) (A) (A) (A) (A) (A) (A) (A) (A) (A) (A) (A)
                 (A) (A) (A)
       Virtual   (A) (A) (A) (A) (A) (A) (A) (A) (A) (A) (A) (A)
                 (A) (A) (A) (A) (A) (A) (A) (A) (A) (A) (A) (A)
                 (A) (A) (A) (A) (A) (A) (A) (A) (A) (A) (A) (A)
                 (A) (A) (A) (A) (A) (A) (A) (A) (A) (A) (A) (A)
                 (A) (A) (A) (A) (A) (A) (A) (A) (A) (A) (A) (A)
                 (A) (A) (A) (A) (A) (A) (A) (A) (A) (A) (A) (A)
                 (A) (A) (A) (A) (A) (A) (A) (A) (A) (A) (A) (A)
                 (A) (A) (A) (A) (A) (A) (A) (A) (A) (A) (A) (A)
                 (A) (A) (A) (A) (A) (A) (A) (A) (A) (A) (A) (A)
                 (A) (A) (A) (A) (A) (A) (A) (A) (A) (A) (A) (A)
                 (A) (A) (A) (A) (A) (A) (A) (A) (A) (A) (A) (A)
                 (A) (A) (A) (A) (A) (A) (A) (A) (A) (A) (A) (A)
                 (A) (A) (A) (A) (A) (A) (A) (A) (A) (A) (A) (A)
                 (A) (A) (A) (A) (A) (A) (A) (A) (A) (A) (A) (A)
                 (A) (A) (A)
 Beta  Orbitals:
       Occupied  (A) (A) (A) (A) (A) (A) (A) (A) (A) (A) (A) (A)
                 (A) (A) (A) (A) (A) (A) (A) (A) (A) (A) (A) (A)
                 (A) (A) (A) (A) (A) (A) (A) (A) (A) (A) (A) (A)
                 (A) (A)
       Virtual   (A) (A) (A) (A) (A) (A) (A) (A) (A) (A) (A) (A)
                 (A) (A) (A) (A) (A) (A) (A) (A) (A) (A) (A) (A)
                 (A) (A) (A) (A) (A) (A) (A) (A) (A) (A) (A) (A)
                 (A) (A) (A) (A) (A) (A) (A) (A) (A) (A) (A) (A)
                 (A) (A) (A) (A) (A) (A) (A) (A) (A) (A) (A) (A)
                 (A) (A) (A) (A) (A) (A) (A) (A) (A) (A) (A) (A)
                 (A) (A) (A) (A) (A) (A) (A) (A) (A) (A) (A) (A)
                 (A) (A) (A) (A) (A) (A) (A) (A) (A) (A) (A) (A)
                 (A) (A) (A) (A) (A) (A) (A) (A) (A) (A) (A) (A)
                 (A) (A) (A) (A) (A) (A) (A) (A) (A) (A) (A) (A)
                 (A) (A) (A) (A) (A) (A) (A) (A) (A) (A) (A) (A)
                 (A) (A) (A) (A) (A) (A) (A) (A) (A) (A) (A) (A)
                 (A) (A) (A) (A) (A) (A) (A) (A) (A) (A) (A) (A)
                 (A) (A) (A) (A) (A) (A) (A) (A) (A) (A) (A) (A)
                 (A) (A) (A) (A)
 The electronic state is 2-A.
 Alpha  occ. eigenvalues --  -38.45651 -38.44332 -38.43688 -38.43527 -38.43451
 Alpha  occ. eigenvalues --  -38.43129 -38.42990  -2.21536  -2.20229  -2.19598
 Alpha  occ. eigenvalues --   -2.19546  -2.19355  -2.19246  -2.19015  -1.15247
 Alpha  occ. eigenvalues --   -1.15184  -1.15153  -1.13947  -1.13867  -1.13848
 Alpha  occ. eigenvalues --   -1.13337  -1.13309  -1.13295  -1.13238  -1.13226
 Alpha  occ. eigenvalues --   -1.13176  -1.13001  -1.12983  -1.12970  -1.12944
 Alpha  occ. eigenvalues --   -1.12893  -1.12853  -1.12653  -1.12644  -1.12607
 Alpha  occ. eigenvalues --   -0.18203  -0.15515  -0.11385  -0.10860
 Alpha virt. eigenvalues --   -0.07064  -0.05104  -0.04198  -0.03575  -0.03059
 Alpha virt. eigenvalues --   -0.02522  -0.01658  -0.01005  -0.00589  -0.00295
 Alpha virt. eigenvalues --    0.00097   0.00127   0.00259   0.00543   0.00696
 Alpha virt. eigenvalues --    0.00753   0.01046   0.01107   0.01416   0.01452
 Alpha virt. eigenvalues --    0.01624   0.01694   0.01755   0.01941   0.02092
 Alpha virt. eigenvalues --    0.02126   0.02232   0.02358   0.02408   0.02491
 Alpha virt. eigenvalues --    0.02630   0.02711   0.02907   0.03094   0.03201
 Alpha virt. eigenvalues --    0.03397   0.03484   0.03550   0.03709   0.03757
 Alpha virt. eigenvalues --    0.03903   0.03998   0.04250   0.04478   0.04597
 Alpha virt. eigenvalues --    0.05007   0.05306   0.05483   0.05725   0.06187
 Alpha virt. eigenvalues --    0.06360   0.06514   0.06682   0.06985   0.07377
 Alpha virt. eigenvalues --    0.07723   0.08105   0.08326   0.08575   0.08960
 Alpha virt. eigenvalues --    0.09153   0.09614   0.09842   0.10007   0.10953
 Alpha virt. eigenvalues --    0.11291   0.11489   0.11718   0.12402   0.12581
 Alpha virt. eigenvalues --    0.13082   0.13934   0.14203   0.14703   0.14817
 Alpha virt. eigenvalues --    0.15263   0.15603   0.17379   0.17784   0.19730
 Alpha virt. eigenvalues --    0.24073   0.27091   0.28035   0.28958   0.29633
 Alpha virt. eigenvalues --    0.30184   0.30957   0.32263   0.32447   0.32505
 Alpha virt. eigenvalues --    0.33244   0.34208   0.34581   0.35310   0.36853
 Alpha virt. eigenvalues --    0.37491   0.37821   0.41083   0.41570   0.42064
 Alpha virt. eigenvalues --    0.42628   0.42913   0.43101   0.44054   0.44213
 Alpha virt. eigenvalues --    0.44624   0.44861   0.45269   0.45691   0.45845
 Alpha virt. eigenvalues --    0.46434   0.47179   0.47429   0.47565   0.48389
 Alpha virt. eigenvalues --    0.48681   0.49062   0.49468   0.49960   0.50688
 Alpha virt. eigenvalues --    0.51126   0.51696   0.53784   0.54485   0.55441
 Alpha virt. eigenvalues --    0.57396   0.58180   0.67564   0.68862   0.70510
 Alpha virt. eigenvalues --    0.71209   0.72349   0.72651   0.78036   0.79197
 Alpha virt. eigenvalues --    0.80800   2.07939   2.11281   2.16688   2.17282
 Alpha virt. eigenvalues --    2.18638   2.27697   2.30326   4.40155   4.40850
 Alpha virt. eigenvalues --    4.41804   4.42471   4.43217   4.44130   4.44224
 Alpha virt. eigenvalues --    4.44563   4.45729   4.45877   4.46839   4.48456
 Alpha virt. eigenvalues --    4.51277   4.56389   4.58647   4.64635   4.65551
 Alpha virt. eigenvalues --    4.69565   4.73182   4.74501   4.78301  96.28309
 Alpha virt. eigenvalues --   96.32805  96.40428  96.41249  96.42389  96.54935
 Alpha virt. eigenvalues --   96.57921
  Beta  occ. eigenvalues --  -38.45640 -38.44331 -38.43644 -38.43459 -38.43424
  Beta  occ. eigenvalues --  -38.43119 -38.42941  -2.21515  -2.20227  -2.19518
  Beta  occ. eigenvalues --   -2.19424  -2.19307  -2.19232  -2.18928  -1.15235
  Beta  occ. eigenvalues --   -1.15168  -1.15136  -1.13946  -1.13865  -1.13844
  Beta  occ. eigenvalues --   -1.13265  -1.13240  -1.13228  -1.13174  -1.13160
  Beta  occ. eigenvalues --   -1.13095  -1.12955  -1.12951  -1.12936  -1.12904
  Beta  occ. eigenvalues --   -1.12887  -1.12815  -1.12594  -1.12587  -1.12534
  Beta  occ. eigenvalues --   -0.17669  -0.15133  -0.10788
  Beta virt. eigenvalues --   -0.07676  -0.06285  -0.04904  -0.04012  -0.03239
  Beta virt. eigenvalues --   -0.02376  -0.02147  -0.01280  -0.00918  -0.00446
  Beta virt. eigenvalues --   -0.00065   0.00191   0.00254   0.00486   0.00585
  Beta virt. eigenvalues --    0.00797   0.00851   0.01121   0.01157   0.01504
  Beta virt. eigenvalues --    0.01527   0.01659   0.01808   0.01878   0.01991
  Beta virt. eigenvalues --    0.02189   0.02257   0.02285   0.02412   0.02494
  Beta virt. eigenvalues --    0.02545   0.02740   0.02796   0.02964   0.03120
  Beta virt. eigenvalues --    0.03230   0.03443   0.03543   0.03602   0.03865
  Beta virt. eigenvalues --    0.03904   0.03947   0.04129   0.04374   0.04567
  Beta virt. eigenvalues --    0.04681   0.05149   0.05392   0.05539   0.05757
  Beta virt. eigenvalues --    0.06252   0.06521   0.06606   0.06817   0.07042
  Beta virt. eigenvalues --    0.07425   0.07790   0.08157   0.08336   0.08850
  Beta virt. eigenvalues --    0.09094   0.09368   0.09767   0.10104   0.10145
  Beta virt. eigenvalues --    0.11134   0.11521   0.11692   0.12360   0.12507
  Beta virt. eigenvalues --    0.12747   0.13182   0.14022   0.14466   0.14812
  Beta virt. eigenvalues --    0.14943   0.15400   0.15966   0.17701   0.18044
  Beta virt. eigenvalues --    0.20094   0.24336   0.27334   0.28302   0.29151
  Beta virt. eigenvalues --    0.29928   0.30426   0.31318   0.32399   0.32585
  Beta virt. eigenvalues --    0.32743   0.33467   0.34494   0.35094   0.35689
  Beta virt. eigenvalues --    0.37044   0.37618   0.38258   0.41248   0.42073
  Beta virt. eigenvalues --    0.42213   0.42734   0.43009   0.43282   0.44194
  Beta virt. eigenvalues --    0.44280   0.44719   0.45018   0.45397   0.45817
  Beta virt. eigenvalues --    0.46057   0.46596   0.47333   0.47730   0.47813
  Beta virt. eigenvalues --    0.48560   0.48868   0.49119   0.49540   0.50136
  Beta virt. eigenvalues --    0.50831   0.51405   0.51935   0.54013   0.54733
  Beta virt. eigenvalues --    0.55737   0.57691   0.58484   0.67662   0.69013
  Beta virt. eigenvalues --    0.70678   0.71392   0.72457   0.72798   0.78227
  Beta virt. eigenvalues --    0.79309   0.81114   2.08049   2.11351   2.16783
  Beta virt. eigenvalues --    2.17439   2.18760   2.27931   2.30412   4.40185
  Beta virt. eigenvalues --    4.40899   4.41881   4.42507   4.43248   4.44189
  Beta virt. eigenvalues --    4.44257   4.44615   4.45791   4.45886   4.46907
  Beta virt. eigenvalues --    4.48516   4.51327   4.56429   4.58688   4.64691
  Beta virt. eigenvalues --    4.65612   4.69577   4.73264   4.74547   4.78332
  Beta virt. eigenvalues --   96.28349  96.32829  96.40481  96.41275  96.42433
  Beta virt. eigenvalues --   96.55007  96.57945
          Condensed to atoms (all electrons):
               1          2          3          4          5          6
     1  Na  13.605098   0.343482   0.080695  -2.436991   0.139270  -0.058513
     2  Na   0.343482  10.967925  -0.008592  -0.960839   0.481538   0.041266
     3  Na   0.080695  -0.008592  10.773742  -0.471649  -0.235727   0.015666
     4  Na  -2.436991  -0.960839  -0.471649  17.986023  -2.042596   0.402854
     5  Na   0.139270   0.481538  -0.235727  -2.042596  13.898814  -1.086509
     6  Na  -0.058513   0.041266   0.015666   0.402854  -1.086509  11.364080
     7  Na  -0.150300  -0.019987   0.191383  -0.873495   0.476141  -0.196124
               7
     1  Na  -0.150300
     2  Na  -0.019987
     3  Na   0.191383
     4  Na  -0.873495
     5  Na   0.476141
     6  Na  -0.196124
     7  Na  11.142369
          Atomic-Atomic Spin Densities.
               1          2          3          4          5          6
     1  Na   1.531337   0.272771  -0.104837  -1.263369  -0.051867  -0.137093
     2  Na   0.272771   0.298060   0.049041  -0.823297   0.158476  -0.002549
     3  Na  -0.104837   0.049041  -0.022699  -0.007784   0.005745   0.043759
     4  Na  -1.263369  -0.823297  -0.007784   3.322995  -0.610297   0.017103
     5  Na  -0.051867   0.158476   0.005745  -0.610297   0.395829   0.188890
     6  Na  -0.137093  -0.002549   0.043759   0.017103   0.188890   0.029708
     7  Na   0.179399   0.091762  -0.005190  -0.377314   0.037732  -0.013983
               7
     1  Na   0.179399
     2  Na   0.091762
     3  Na  -0.005190
     4  Na  -0.377314
     5  Na   0.037732
     6  Na  -0.013983
     7  Na   0.150571
 Mulliken charges and spin densities:
               1          2
     1  Na  -0.522742   0.426341
     2  Na   0.155206   0.044264
     3  Na   0.654482  -0.041964
     4  Na  -0.603306   0.258037
     5  Na  -0.630932   0.124509
     6  Na   0.517279   0.125835
     7  Na   0.430013   0.062978
 Sum of Mulliken charges =  -0.00000   1.00000
 Mulliken charges and spin densities with hydrogens summed into heavy atoms:
               1          2
     1  Na  -0.522742   0.426341
     2  Na   0.155206   0.044264
     3  Na   0.654482  -0.041964
     4  Na  -0.603306   0.258037
     5  Na  -0.630932   0.124509
     6  Na   0.517279   0.125835
     7  Na   0.430013   0.062978
 Electronic spatial extent (au):  <R**2>=           3255.8769
 Charge=             -0.0000 electrons
 Dipole moment (field-independent basis, Debye):
    X=             -1.7657    Y=              0.2981    Z=              0.3545  Tot=              1.8254
 Quadrupole moment (field-independent basis, Debye-Ang):
   XX=            -73.0818   YY=            -62.0543   ZZ=            -69.1090
   XY=              0.2589   XZ=             -0.9842   YZ=              3.0150
 Traceless Quadrupole moment (field-independent basis, Debye-Ang):
   XX=             -5.0001   YY=              6.0274   ZZ=             -1.0273
   XY=              0.2589   XZ=             -0.9842   YZ=              3.0150
 Octapole moment (field-independent basis, Debye-Ang**2):
  XXX=              1.1750  YYY=              6.3853  ZZZ=              0.3440  XYY=            -23.9522
  XXY=             -4.6782  XXZ=             -6.4587  XZZ=            -11.0870  YZZ=              3.5820
  YYZ=              6.4776  XYZ=            -18.0930
 Hexadecapole moment (field-independent basis, Debye-Ang**3):
 XXXX=          -4626.3547 YYYY=          -1005.3119 ZZZZ=           -345.3244 XXXY=             70.7871
 XXXZ=              2.0675 YYYX=            -21.7439 YYYZ=             27.0346 ZZZX=             -4.9818
 ZZZY=             18.1495 XXYY=           -704.1841 XXZZ=           -781.7432 YYZZ=           -219.3075
 XXYZ=             36.8703 YYXZ=            -18.1593 ZZXY=            -11.7880
 N-N= 3.258992845055D+02 E-N=-3.381268873769D+03  KE= 1.133188521561D+03
                          Isotropic Fermi Contact Couplings
        Atom                 a.u.       MegaHertz       Gauss      10(-4) cm-1
     1  Na(23)             0.17188     203.34468      72.55844      67.82848
     2  Na(23)             0.04374      51.73983      18.46206      17.25855
     3  Na(23)            -0.00229      -2.70607      -0.96559      -0.90265
     4  Na(23)            -0.00124      -1.46234      -0.52180      -0.48779
     5  Na(23)             0.26394     312.24327     111.41616     104.15314
     6  Na(23)             0.08325      98.48902      35.14333      32.85240
     7  Na(23)             0.16793     198.66179      70.88747      66.26644
 --------------------------------------------------------
       Center         ----  Spin Dipole Couplings  ----
                      3XX-RR        3YY-RR        3ZZ-RR
 --------------------------------------------------------
     1   Atom        0.005438      0.010226     -0.015664
     2   Atom        0.002783     -0.000637     -0.002146
     3   Atom        0.001564      0.001285     -0.002849
     4   Atom       -0.020456      0.037185     -0.016729
     5   Atom        0.006434      0.003984     -0.010418
     6   Atom        0.013633      0.000044     -0.013677
     7   Atom        0.011558     -0.002685     -0.008872
 --------------------------------------------------------
                        XY            XZ            YZ
 --------------------------------------------------------
     1   Atom        0.018701      0.000000     -0.001393
     2   Atom        0.003264     -0.001537     -0.001923
     3   Atom       -0.004272     -0.001016      0.001395
     4   Atom       -0.010744     -0.000415     -0.002626
     5   Atom       -0.011763      0.004761      0.000089
     6   Atom        0.022918     -0.001252      0.000333
     7   Atom       -0.018096      0.002668     -0.000614
 --------------------------------------------------------


 ---------------------------------------------------------------------------------
              Anisotropic Spin Dipole Couplings in Principal Axis System
 ---------------------------------------------------------------------------------

       Atom             a.u.   MegaHertz   Gauss  10(-4) cm-1        Axes

              Baa    -0.0159    -2.240    -0.799    -0.747 -0.1242  0.1415  0.9821
     1 Na(23) Bbb    -0.0108    -1.532    -0.547    -0.511  0.7409 -0.6452  0.1866
              Bcc     0.0267     3.772     1.346     1.258  0.6600  0.7508 -0.0247
 
              Baa    -0.0036    -0.502    -0.179    -0.167 -0.1663  0.6656  0.7275
     2 Na(23) Bbb    -0.0019    -0.270    -0.096    -0.090  0.5743 -0.5343  0.6202
              Bcc     0.0055     0.772     0.275     0.258  0.8015  0.5210 -0.2934
 
              Baa    -0.0033    -0.472    -0.169    -0.158 -0.2372 -0.4743  0.8478
     3 Na(23) Bbb    -0.0027    -0.378    -0.135    -0.126  0.6722  0.5498  0.4958
              Bcc     0.0060     0.851     0.304     0.284  0.7013 -0.6875 -0.1884
 
              Baa    -0.0225    -3.181    -1.135    -1.061  0.9716  0.1815  0.1517
     4 Na(23) Bbb    -0.0167    -2.359    -0.842    -0.787 -0.1573  0.0168  0.9874
              Bcc     0.0392     5.541     1.977     1.848 -0.1767  0.9833 -0.0448
 
              Baa    -0.0126    -1.779    -0.635    -0.593 -0.3945 -0.2846  0.8737
     5 Na(23) Bbb    -0.0049    -0.689    -0.246    -0.230  0.5335  0.7033  0.4699
              Bcc     0.0175     2.468     0.881     0.823  0.7482 -0.6515  0.1256
 
              Baa    -0.0173    -2.450    -0.874    -0.817 -0.5800  0.7694 -0.2675
     6 Na(23) Bbb    -0.0134    -1.894    -0.676    -0.632 -0.1460  0.2249  0.9634
              Bcc     0.0308     4.343     1.550     1.449  0.8014  0.5978 -0.0181
 
              Baa    -0.0152    -2.143    -0.765    -0.715  0.5643  0.8099 -0.1600
     7 Na(23) Bbb    -0.0089    -1.258    -0.449    -0.420  0.0270  0.1756  0.9841
              Bcc     0.0241     3.401     1.213     1.134  0.8251 -0.5596  0.0772
 

 ---------------------------------------------------------------------------------

 No NMR shielding tensors so no spin-rotation constants.
 Leave Link  601 at Mon Nov 13 15:36:52 2023, MaxMem=  1879048192 cpu:               2.6 elap:               0.2
 (Enter /home/sekinelabo/g16/l701.exe)
 ... and contract with generalized density number  0.
 Compute integral first derivatives.
 Leave Link  701 at Mon Nov 13 15:36:52 2023, MaxMem=  1879048192 cpu:               1.8 elap:               0.1
 (Enter /home/sekinelabo/g16/l702.exe)
 L702 exits ... SP integral derivatives will be done elsewhere.
 Leave Link  702 at Mon Nov 13 15:36:52 2023, MaxMem=  1879048192 cpu:               0.5 elap:               0.0
 (Enter /home/sekinelabo/g16/l703.exe)
 Integral derivatives from FoFJK, PRISM(SPDF).
 Compute integral first derivatives, UseDBF=F ICtDFT=           0.
 Calling FoFJK, ICntrl=      2127 FMM=F ISym2X=0 I1Cent= 0 IOpClX= 1 NMat=1 NMatS=1 NMatT=0.
 FoFJK:  IHMeth= 1 ICntrl=    2127 DoSepK=F KAlg= 0 I1Cent=           0 FoldK=F
 IRaf=         0 NMat=       1 IRICut=       1 DoRegI=T DoRafI=F ISym2E= 0 IDoP0=0 IntGTp=1.
 FoFCou: FMM=F IPFlag=           0 FMFlag=      100000 FMFlg1=         800
         NFxFlg=           0 DoJE=F BraDBF=F KetDBF=F FulRan=T
         wScrn=  0.000000 ICntrl=      2127 IOpCl=  1 I1Cent=           0 NGrid=           0
         NMat0=    1 NMatS0=      1 NMatT0=    0 NMatD0=    1 NMtDS0=    0 NMtDT0=    0
 Symmetry not used in FoFCou.
 Leave Link  703 at Mon Nov 13 15:36:54 2023, MaxMem=  1879048192 cpu:              33.2 elap:               2.1
 (Enter /home/sekinelabo/g16/l716.exe)
 Dipole        =-6.94677621D-01 1.17265314D-01 1.39472878D-01
 ***** Axes restored to original set *****
 -------------------------------------------------------------------
 Center     Atomic                   Forces (Hartrees/Bohr)
 Number     Number              X              Y              Z
 -------------------------------------------------------------------
      1       11           0.001513659    0.008392729    0.000275178
      2       11           0.003331044    0.005319760   -0.003827025
      3       11           0.010210073   -0.005436632   -0.001290647
      4       11          -0.000730619   -0.000565555    0.007935090
      5       11           0.000742975   -0.007386531   -0.001661257
      6       11          -0.007548476   -0.004158681   -0.001550045
      7       11          -0.007518657    0.003834909    0.000118706
 -------------------------------------------------------------------
 Cartesian Forces:  Max     0.010210073 RMS     0.005032913
 Z-matrix is all fixed cartesians, so copy forces.
 Force constants in Cartesian coordinates: 
                1             2             3             4             5 
      1  0.948199D-01
      2  0.247058D-02  0.102287D+00
      3  0.274005D-02 -0.651947D-02  0.301205D-01
      4 -0.309318D-02 -0.352380D-02  0.375718D-02  0.347479D-01
      5  0.253951D-02  0.307900D-02 -0.256408D-02 -0.829074D-03  0.547796D-01
      6 -0.105446D-02 -0.101923D-02  0.179040D-02 -0.781339D-02 -0.255895D-01
      7  0.155411D-03  0.485543D-03  0.674903D-03 -0.770663D-02  0.180242D-02
      8  0.184837D-02  0.175740D-02 -0.322025D-02  0.184498D-01 -0.352423D-01
      9 -0.235285D-02 -0.883298D-03  0.788918D-02 -0.542803D-02  0.173371D-01
     10 -0.340167D-01 -0.140614D-02 -0.501960D-02 -0.231851D-01 -0.307848D-02
     11  0.141973D-01 -0.363996D-01  0.198645D-01 -0.125470D-01 -0.221963D-01
     12  0.390504D-02  0.873871D-02 -0.275924D-01  0.547553D-02  0.907874D-02
     13 -0.211003D-01  0.205910D-02 -0.102458D-02 -0.754617D-03 -0.442833D-03
     14 -0.131406D-02 -0.422535D-01 -0.851410D-02 -0.150460D-02 -0.526012D-03
     15 -0.154749D-02 -0.195213D-02 -0.685593D-02  0.389055D-02  0.179462D-02
     16  0.175698D-03 -0.759539D-02 -0.161226D-02 -0.746544D-05  0.113586D-04
     17 -0.768951D-02 -0.447483D-04 -0.631457D-03 -0.534615D-04  0.813415D-04
     18 -0.138023D-02 -0.383290D-03  0.131170D-02  0.912822D-04 -0.138886D-03
     19 -0.369408D-01  0.751010D-02  0.484318D-03  0.000000D+00 -0.289656D-05
     20 -0.120522D-01 -0.284250D-01  0.158483D-02  0.811098D-05  0.247176D-04
     21 -0.310052D-03  0.201872D-02 -0.666353D-02  0.268938D-04  0.819570D-04
                6             7             8             9            10 
      6  0.258733D-01
      7  0.292506D-02  0.450628D-01
      8  0.941066D-02 -0.201986D-01  0.521524D-01
      9 -0.504140D-02 -0.509380D-02 -0.115518D-01  0.200014D-01
     10  0.724133D-02 -0.355109D-01  0.326884D-02  0.154703D-01  0.125948D+00
     11  0.193831D-01  0.155889D-01 -0.227650D-01 -0.761064D-02 -0.356320D-02
     12 -0.289115D-01 -0.363592D-03  0.245212D-02 -0.256097D-01 -0.550579D-02
     13 -0.129719D-02 -0.199624D-02 -0.336666D-02 -0.258049D-02 -0.335061D-01
     14 -0.223701D-02  0.227911D-02  0.396739D-02  0.274706D-02  0.427929D-02
     15  0.620971D-02  0.172587D-02  0.274146D-02  0.250345D-02 -0.731594D-02
     16  0.257410D-05  0.000000D+00  0.732431D-05 -0.106903D-04  0.222295D-03
     17  0.184337D-04  0.196751D-05  0.524509D-04 -0.765556D-04 -0.368240D-02
     18 -0.314744D-04 -0.335940D-05 -0.895567D-04  0.130714D-03 -0.288755D-02
     19 -0.392329D-05 -0.476825D-05 -0.909614D-05 -0.446623D-05  0.484078D-04
     20  0.334792D-04  0.406897D-04  0.776215D-04  0.381124D-04  0.418210D-02
     21  0.111008D-03  0.134916D-03  0.257372D-03  0.126370D-03 -0.198278D-02
               11            12            13            14            15 
     11  0.101680D+00
     12 -0.132406D-01  0.107034D+00
     13 -0.135291D-01 -0.318946D-02  0.945824D-01
     14 -0.311920D-01 -0.736066D-02 -0.439943D-02  0.961454D-01
     15 -0.186738D-01 -0.302655D-01  0.553926D-02  0.233213D-01  0.365516D-01
     16 -0.195818D-03 -0.266211D-03 -0.370573D-01 -0.695009D-02 -0.374590D-02
     17  0.496886D-02  0.216926D-02  0.119066D-01 -0.262433D-01 -0.701047D-02
     18  0.258044D-02  0.331608D-02  0.159183D-02 -0.827803D-02 -0.961353D-02
     19  0.489596D-04 -0.555095D-04 -0.167830D-03  0.760978D-02  0.145365D-02
     20  0.590419D-02 -0.183755D-02  0.777228D-02  0.102050D-03 -0.220945D-03
     21 -0.230304D-02  0.202945D-02  0.960633D-03  0.321445D-03  0.147023D-02
               16            17            18            19            20 
     16  0.521295D-01
     17  0.668329D-02  0.566978D-01
     18  0.486408D-02  0.130547D-01  0.703572D-02
     19 -0.154629D-01 -0.716652D-02 -0.227606D-02  0.525289D-01
     20  0.803933D-02 -0.355124D-01 -0.674540D-02 -0.799032D-02  0.578288D-01
     21  0.768408D-03 -0.752394D-02 -0.214922D-02  0.401986D-03  0.714748D-02
               21 
     21  0.507568D-02
 Leave Link  716 at Mon Nov 13 15:36:54 2023, MaxMem=  1879048192 cpu:               0.5 elap:               0.0
 (Enter /home/sekinelabo/g16/l103.exe)

 GradGradGradGradGradGradGradGradGradGradGradGradGradGradGradGradGradGrad
 Berny optimization.
 Search for a local minimum.
 Step number   1 out of a maximum of    2
 All quantities printed in internal units (Hartrees-Bohrs-Radians)
 Second derivative matrix not updated -- first step.
 ITU=  0
     Eigenvalues ---    0.00555   0.00976   0.01682   0.02360   0.02763
     Eigenvalues ---    0.05327   0.07600   0.08195   0.08319   0.10654
     Eigenvalues ---    0.12071   0.13822   0.15668   0.17190   0.17719
 Quadratic step=5.972D-01 exceeds max=3.000D-01 adjusted using Lamda=-2.635D-02.
 Angle between NR and scaled steps=  10.77 degrees.
 Angle between quadratic step and forces=  29.52 degrees.
 Linear search not attempted -- first point.
 B after Tr=     0.000000    0.000000    0.000000
         Rot=    1.000000   -0.000000   -0.000000    0.000000 Ang=   0.00 deg.
 Variable       Old X    -DE/DX   Delta X   Delta X   Delta X     New X
                                 (Linear)    (Quad)   (Total)
    X1        5.67266   0.00151   0.00000  -0.01862  -0.01862   5.65403
    Y1        5.60446   0.00839   0.00000   0.05646   0.05646   5.66092
    Z1        2.06915   0.00028   0.00000   0.02358   0.02358   2.09273
    X2       13.95850   0.00333   0.00000   0.09184   0.09184  14.05034
    Y2        5.68809   0.00532   0.00000   0.03516   0.03516   5.72325
    Z2        0.00000  -0.00383   0.00000  -0.02817  -0.02817  -0.02817
    X3       15.49306   0.01021   0.00000   0.16652   0.16652  15.65958
    Y3        0.56059  -0.00544   0.00000  -0.03481  -0.03481   0.52577
    Z3        1.85725  -0.00129   0.00000  -0.01550  -0.01550   1.84175
    X4       10.36956  -0.00073   0.00000   0.04509   0.04509  10.41465
    Y4        2.61867  -0.00057   0.00000  -0.00636  -0.00636   2.61231
    Z4        3.13564   0.00794   0.00000   0.04815   0.04815   3.18379
    X5        5.72548   0.00074   0.00000  -0.02379  -0.02379   5.70170
    Y5        0.00000  -0.00739   0.00000  -0.05268  -0.05268  -0.05268
    Z5        1.22214  -0.00166   0.00000   0.00700   0.00700   1.22915
    X6        0.07236  -0.00755   0.00000  -0.13084  -0.13084  -0.05849
    Y6        0.01480  -0.00416   0.00000  -0.04235  -0.04235  -0.02755
    Z6        0.76847  -0.00155   0.00000  -0.02251  -0.02251   0.74597
    X7        0.00000  -0.00752   0.00000  -0.13020  -0.13020  -0.13020
    Y7        5.57927   0.00383   0.00000   0.04458   0.04458   5.62384
    Z7        1.87626   0.00012   0.00000  -0.01256  -0.01256   1.86370
         Item               Value     Threshold  Converged?
 Maximum Force            0.010210     0.000450     NO 
 RMS     Force            0.005033     0.000300     NO 
 Maximum Displacement     0.166522     0.001800     NO 
 RMS     Displacement     0.065478     0.001200     NO 
 Predicted change in Energy=-4.197104D-03
 GradGradGradGradGradGradGradGradGradGradGradGradGradGradGradGradGradGrad

 Leave Link  103 at Mon Nov 13 15:36:55 2023, MaxMem=  1879048192 cpu:               0.3 elap:               0.0
 (Enter /home/sekinelabo/g16/l9999.exe)
 1\1\GINC-SEKINELABO-XA7R-R37\Force\UB3LYP\6-311+G(d)\Na7(2)\SEKINELABO
 \13-Nov-2023\0\\#P B3LYP/6-311+g(d) force\\Gaussian input prepared by 
 ASE\\0,2\Na,3.0018416763,2.9657543286,1.0949447021\Na,7.3865208746,3.0
 100086219,0.\Na,8.1985755601,0.296650155,0.9828161866\Na,5.4873342729,
 1.3857398032,1.6593088045\Na,3.0297953963,0.,0.6467312791\Na,0.0382887
 418,0.0078299777,0.4066593395\Na,0.,2.9524207586,0.9928737814\\Version
 =ES64L-G16RevB.01\State=2-A\HF=-1136.0958794\S2=0.765033\S2-1=0.\S2A=0
 .75009\RMSD=7.530e-09\RMSF=5.033e-03\Dipole=0.6946776,0.1172653,-0.139
 4729\Quadrupole=-3.7174545,4.4812169,-0.7637625,-0.1924574,-0.7317,-2.
 2415639\PG=C01 [X(Na7)]\\@


 REPARTEE - WHAT YOU THINK OF AFTER YOU BECOME A DEPARTEE.
 Job cpu time:       0 days  0 hours  4 minutes 48.0 seconds.
 Elapsed time:       0 days  0 hours  0 minutes 23.5 seconds.
 File lengths (MBytes):  RWF=     32 Int=      0 D2E=      0 Chk=      5 Scr=      1
 Normal termination of Gaussian 16 at Mon Nov 13 15:36:55 2023.
