 Entering Gaussian System, Link 0=g16
 Initial command:
 /home/sekinelabo/g16/l1.exe "/home/sekinelabo/g16temp/Gau-4175676.inp" -scrdir="/home/sekinelabo/g16temp/"
 Entering Link 1 = /home/sekinelabo/g16/l1.exe PID=   4175678.
  
 Copyright (c) 1988-2017, Gaussian, Inc.  All Rights Reserved.
  
 This is part of the Gaussian(R) 16 program.  It is based on
 the Gaussian(R) 09 system (copyright 2009, Gaussian, Inc.),
 the Gaussian(R) 03 system (copyright 2003, Gaussian, Inc.),
 the Gaussian(R) 98 system (copyright 1998, Gaussian, Inc.),
 the Gaussian(R) 94 system (copyright 1995, Gaussian, Inc.),
 the Gaussian 92(TM) system (copyright 1992, Gaussian, Inc.),
 the Gaussian 90(TM) system (copyright 1990, Gaussian, Inc.),
 the Gaussian 88(TM) system (copyright 1988, Gaussian, Inc.),
 the Gaussian 86(TM) system (copyright 1986, Carnegie Mellon
 University), and the Gaussian 82(TM) system (copyright 1983,
 Carnegie Mellon University). Gaussian is a federally registered
 trademark of Gaussian, Inc.
  
 This software contains proprietary and confidential information,
 including trade secrets, belonging to Gaussian, Inc.
  
 This software is provided under written license and may be
 used, copied, transmitted, or stored only in accord with that
 written license.
  
 The following legend is applicable only to US Government
 contracts under FAR:
  
                    RESTRICTED RIGHTS LEGEND
  
 Use, reproduction and disclosure by the US Government is
 subject to restrictions as set forth in subparagraphs (a)
 and (c) of the Commercial Computer Software - Restricted
 Rights clause in FAR 52.227-19.
  
 Gaussian, Inc.
 340 Quinnipiac St., Bldg. 40, Wallingford CT 06492
  
  
 ---------------------------------------------------------------
 Warning -- This program may not be used in any manner that
 competes with the business of Gaussian, Inc. or will provide
 assistance to any competitor of Gaussian, Inc.  The licensee
 of this program is prohibited from giving any competitor of
 Gaussian, Inc. access to this program.  By using this program,
 the user acknowledges that Gaussian, Inc. is engaged in the
 business of creating and licensing software in the field of
 computational chemistry and represents and warrants to the
 licensee that it is not a competitor of Gaussian, Inc. and that
 it will not use this program in any manner prohibited above.
 ---------------------------------------------------------------
  

 Cite this work as:
 Gaussian 16, Revision B.01,
 M. J. Frisch, G. W. Trucks, H. B. Schlegel, G. E. Scuseria, 
 M. A. Robb, J. R. Cheeseman, G. Scalmani, V. Barone, 
 G. A. Petersson, H. Nakatsuji, X. Li, M. Caricato, A. V. Marenich, 
 J. Bloino, B. G. Janesko, R. Gomperts, B. Mennucci, H. P. Hratchian, 
 J. V. Ortiz, A. F. Izmaylov, J. L. Sonnenberg, D. Williams-Young, 
 F. Ding, F. Lipparini, F. Egidi, J. Goings, B. Peng, A. Petrone, 
 T. Henderson, D. Ranasinghe, V. G. Zakrzewski, J. Gao, N. Rega, 
 G. Zheng, W. Liang, M. Hada, M. Ehara, K. Toyota, R. Fukuda, 
 J. Hasegawa, M. Ishida, T. Nakajima, Y. Honda, O. Kitao, H. Nakai, 
 T. Vreven, K. Throssell, J. A. Montgomery, Jr., J. E. Peralta, 
 F. Ogliaro, M. J. Bearpark, J. J. Heyd, E. N. Brothers, K. N. Kudin, 
 V. N. Staroverov, T. A. Keith, R. Kobayashi, J. Normand, 
 K. Raghavachari, A. P. Rendell, J. C. Burant, S. S. Iyengar, 
 J. Tomasi, M. Cossi, J. M. Millam, M. Klene, C. Adamo, R. Cammi, 
 J. W. Ochterski, R. L. Martin, K. Morokuma, O. Farkas, 
 J. B. Foresman, and D. J. Fox, Gaussian, Inc., Wallingford CT, 2016.
 
 ******************************************
 Gaussian 16:  ES64L-G16RevB.01 20-Dec-2017
                13-Nov-2023 
 ******************************************
 %mem=14GB
 %chk=checkpoint.chk
 %nprocshared=16
 Will use up to   16 processors via shared memory.
 -------------------------
 #P B3LYP/6-311+g(d) force
 -------------------------
 1/10=7,30=1,38=1/1,3;
 2/12=2,17=6,18=5,40=1/2;
 3/5=4,6=6,7=11,11=2,25=1,30=1,71=1,74=-5/1,2,3;
 4//1;
 5/5=2,38=5/2;
 6/7=2,8=2,9=2,10=2,28=1/1;
 7/29=1/1,2,3,16;
 1/10=7,30=1/3;
 99//99;
 Leave Link    1 at Mon Nov 13 20:11:45 2023, MaxMem=  1879048192 cpu:               0.3 elap:               0.0
 (Enter /home/sekinelabo/g16/l101.exe)
 ------------------------------
 Gaussian input prepared by ASE
 ------------------------------
 Symbolic Z-matrix:
 Charge =  0 Multiplicity = 2
 Na                    0.28734   2.47451   0.67199 
 Na                    2.73216   4.21398   0.80806 
 Na                    5.50621   1.14929   2.67815 
 Na                    2.56346   1.69477   2.44159 
 Na                    0.        2.69292   3.65136 
 Na                    0.08783   0.        2.35473 
 Na                    1.93523   0.05586   0. 
 
 ITRead=  0  0  0  0  0  0  0
 MicOpt= -1 -1 -1 -1 -1 -1 -1
 NAtoms=      7 NQM=        7 NQMF=       0 NMMI=      0 NMMIF=      0
                NMic=       0 NMicF=      0.
                    Isotopes and Nuclear Properties:
 (Nuclear quadrupole moments (NQMom) in fm**2, nuclear magnetic moments (NMagM)
  in nuclear magnetons)

  Atom         1           2           3           4           5           6           7
 IAtWgt=          23          23          23          23          23          23          23
 AtmWgt=  22.9897697  22.9897697  22.9897697  22.9897697  22.9897697  22.9897697  22.9897697
 NucSpn=           3           3           3           3           3           3           3
 AtZEff=  -0.0000000  -0.0000000  -0.0000000  -0.0000000  -0.0000000  -0.0000000  -0.0000000
 NQMom=   10.4000000  10.4000000  10.4000000  10.4000000  10.4000000  10.4000000  10.4000000
 NMagM=    2.2175200   2.2175200   2.2175200   2.2175200   2.2175200   2.2175200   2.2175200
 AtZNuc=  11.0000000  11.0000000  11.0000000  11.0000000  11.0000000  11.0000000  11.0000000
 Leave Link  101 at Mon Nov 13 20:11:46 2023, MaxMem=  1879048192 cpu:               2.5 elap:               0.2
 (Enter /home/sekinelabo/g16/l103.exe)

 GradGradGradGradGradGradGradGradGradGradGradGradGradGradGradGradGradGrad
 Berny optimization.
 Initialization pass.
 Trust Radius=3.00D-01 FncErr=1.00D-07 GrdErr=1.00D-07 EigMax=2.50D+02 EigMin=1.00D-04
 Number of steps in this run=      2 maximum allowed number of steps=      2.
 GradGradGradGradGradGradGradGradGradGradGradGradGradGradGradGradGradGrad

 Leave Link  103 at Mon Nov 13 20:11:46 2023, MaxMem=  1879048192 cpu:               0.2 elap:               0.0
 (Enter /home/sekinelabo/g16/l202.exe)
                          Input orientation:                          
 ---------------------------------------------------------------------
 Center     Atomic      Atomic             Coordinates (Angstroms)
 Number     Number       Type             X           Y           Z
 ---------------------------------------------------------------------
      1         11           0        0.287337    2.474511    0.671987
      2         11           0        2.732155    4.213979    0.808060
      3         11           0        5.506207    1.149285    2.678146
      4         11           0        2.563458    1.694772    2.441587
      5         11           0        0.000000    2.692918    3.651355
      6         11           0        0.087826    0.000000    2.354733
      7         11           0        1.935227    0.055856    0.000000
 ---------------------------------------------------------------------
                    Distance matrix (angstroms):
                    1          2          3          4          5
     1  Na   0.000000
     2  Na   3.003565   0.000000
     3  Na   5.746085   4.537062   0.000000
     4  Na   2.986671   3.007204   3.002213   0.000000
     5  Na   3.001150   4.226420   5.800711   3.005187   0.000000
     6  Na   2.999107   5.209827   5.548360   3.001424   2.990109
     7  Na   3.002831   4.310225   4.595645   3.007003   4.902203
                    6          7
     6  Na   0.000000
     7  Na   2.993456   0.000000
 Stoichiometry    Na7(2)
 Framework group  C1[X(Na7)]
 Deg. of freedom    15
 Full point group                 C1      NOp   1
 Largest Abelian subgroup         C1      NOp   1
 Largest concise Abelian subgroup C1      NOp   1
                         Standard orientation:                         
 ---------------------------------------------------------------------
 Center     Atomic      Atomic             Coordinates (Angstroms)
 Number     Number       Type             X           Y           Z
 ---------------------------------------------------------------------
      1         11           0        1.585836    0.720036    1.128852
      2         11           0       -0.858982    2.459505    0.992778
      3         11           0       -3.633034   -0.605189   -0.877308
      4         11           0       -0.690285   -0.059703   -0.640749
      5         11           0        1.873173    0.938443   -1.850517
      6         11           0        1.785347   -1.754475   -0.553895
      7         11           0       -0.062054   -1.698618    1.800838
 ---------------------------------------------------------------------
 Rotational constants (GHZ):           0.9085306           0.6457429           0.5876203
 Leave Link  202 at Mon Nov 13 20:11:46 2023, MaxMem=  1879048192 cpu:               0.1 elap:               0.0
 (Enter /home/sekinelabo/g16/l301.exe)
 Standard basis: 6-311+G(d) (5D, 7F)
 Ernie: Thresh=  0.10000D-02 Tol=  0.10000D-05 Strict=F.
 There are   217 symmetry adapted cartesian basis functions of A   symmetry.
 There are   210 symmetry adapted basis functions of A   symmetry.
   210 basis functions,   350 primitive gaussians,   217 cartesian basis functions
    39 alpha electrons       38 beta electrons
       nuclear repulsion energy       373.2485988925 Hartrees.
 IExCor=  402 DFT=T Ex+Corr=B3LYP ExCW=0 ScaHFX=  0.200000
 ScaDFX=  0.800000  0.720000  1.000000  0.810000 ScalE2=  1.000000  1.000000
 IRadAn=      5 IRanWt=     -1 IRanGd=            0 ICorTp=0 IEmpDi=  4
 NAtoms=    7 NActive=    7 NUniq=    7 SFac= 1.00D+00 NAtFMM=   60 NAOKFM=F Big=F
 Integral buffers will be    131072 words long.
 Raffenetti 2 integral format.
 Two-electron integral symmetry is turned on.
 Leave Link  301 at Mon Nov 13 20:11:46 2023, MaxMem=  1879048192 cpu:               0.5 elap:               0.0
 (Enter /home/sekinelabo/g16/l302.exe)
 NPDir=0 NMtPBC=     1 NCelOv=     1 NCel=       1 NClECP=     1 NCelD=      1
         NCelK=      1 NCelE2=     1 NClLst=     1 CellRange=     0.0.
 One-electron integrals computed using PRISM.
 One-electron integral symmetry used in STVInt
 NBasis=   210 RedAO= T EigKep=  2.30D-06  NBF=   210
 NBsUse=   209 1.00D-06 EigRej=  8.87D-07 NBFU=   209
 Precomputing XC quadrature grid using
 IXCGrd= 4 IRadAn=           5 IRanWt=          -1 IRanGd=           0 AccXCQ= 0.00D+00.
 Generated NRdTot=       0 NPtTot=           0 NUsed=           0 NTot=          32
 NSgBfM=   211   211   211   211   211 MxSgAt=     7 MxSgA2=     7.
 Leave Link  302 at Mon Nov 13 20:11:46 2023, MaxMem=  1879048192 cpu:               2.2 elap:               0.1
 (Enter /home/sekinelabo/g16/l303.exe)
 DipDrv:  MaxL=1.
 Leave Link  303 at Mon Nov 13 20:11:46 2023, MaxMem=  1879048192 cpu:               0.6 elap:               0.0
 (Enter /home/sekinelabo/g16/l401.exe)
 ExpMin= 7.60D-03 ExpMax= 3.62D+04 ExpMxC= 1.21D+03 IAcc=3 IRadAn=         5 AccDes= 0.00D+00
 Harris functional with IExCor=  402 and IRadAn=       5 diagonalized for initial guess.
 HarFok:  IExCor=  402 AccDes= 0.00D+00 IRadAn=         5 IDoV= 1 UseB2=F ITyADJ=14
 ICtDFT=  3500011 ScaDFX=  1.000000  1.000000  1.000000  1.000000
 FoFCou: FMM=F IPFlag=           0 FMFlag=      100000 FMFlg1=           0
         NFxFlg=           0 DoJE=T BraDBF=F KetDBF=T FulRan=T
         wScrn=  0.000000 ICntrl=       500 IOpCl=  0 I1Cent=   200000004 NGrid=           0
         NMat0=    1 NMatS0=      1 NMatT0=    0 NMatD0=    1 NMtDS0=    0 NMtDT0=    0
 Petite list used in FoFCou.
 Harris En= -1135.87384134981    
 JPrj=0 DoOrth=F DoCkMO=F.
 Initial guess <Sx>= 0.0000 <Sy>= 0.0000 <Sz>= 0.5000 <S**2>= 0.7500 S= 0.5000
 Leave Link  401 at Mon Nov 13 20:11:46 2023, MaxMem=  1879048192 cpu:               5.7 elap:               0.4
 (Enter /home/sekinelabo/g16/l502.exe)
 Keep R1 and R2 ints in memory in canonical form, NReq=507620388.
 FoFCou: FMM=F IPFlag=           0 FMFlag=           0 FMFlg1=           0
         NFxFlg=           0 DoJE=F BraDBF=F KetDBF=F FulRan=T
         wScrn=  0.000000 ICntrl=       600 IOpCl=  0 I1Cent=           0 NGrid=           0
         NMat0=    1 NMatS0=  22155 NMatT0=    0 NMatD0=    1 NMtDS0=    0 NMtDT0=    0
 Symmetry not used in FoFCou.
 Two-electron integral symmetry not used.
 UHF open shell SCF:
 Using DIIS extrapolation, IDIIS=  1040.
 NGot=  1879048192 LenX=  1388082348 LenY=  1388034818
 Requested convergence on RMS density matrix=1.00D-08 within 128 cycles.
 Requested convergence on MAX density matrix=1.00D-06.
 Requested convergence on             energy=1.00D-06.
 No special actions if energy rises.

 Cycle   1  Pass 1  IDiag  1:
 E= -1136.04928682972    
 DIIS: error= 1.46D-02 at cycle   1 NSaved=   1.
 NSaved= 1 IEnMin= 1 EnMin= -1136.04928682972     IErMin= 1 ErrMin= 1.46D-02
 ErrMax= 1.46D-02  0.00D+00 EMaxC= 1.00D-01 BMatC= 2.08D-01 BMatP= 2.08D-01
 IDIUse=3 WtCom= 8.54D-01 WtEn= 1.46D-01
 Coeff-Com:  0.100D+01
 Coeff-En:   0.100D+01
 Coeff:      0.100D+01
 Gap=     0.053 Goal=   None    Shift=    0.000
 Gap=     0.026 Goal=   None    Shift=    0.000
 GapD=    0.026 DampG=0.250 DampE=0.500 DampFc=0.2500 IDamp=-1.
 Damping current iteration by 2.50D-01
 RMSDP=7.06D-02 MaxDP=5.23D+00              OVMax= 3.92D-01

 Cycle   2  Pass 1  IDiag  1:
 E= -1136.06681785835     Delta-E=       -0.017531028636 Rises=F Damp=T
 DIIS: error= 7.70D-03 at cycle   2 NSaved=   2.
 NSaved= 2 IEnMin= 2 EnMin= -1136.06681785835     IErMin= 2 ErrMin= 7.70D-03
 ErrMax= 7.70D-03  0.00D+00 EMaxC= 1.00D-01 BMatC= 7.71D-02 BMatP= 2.08D-01
 IDIUse=3 WtCom= 9.23D-01 WtEn= 7.70D-02
 Coeff-Com: -0.118D+01 0.218D+01
 Coeff-En:   0.000D+00 0.100D+01
 Coeff:     -0.109D+01 0.209D+01
 Gap=     0.071 Goal=   None    Shift=    0.000
 Gap=     0.036 Goal=   None    Shift=    0.000
 RMSDP=3.84D-02 MaxDP=3.38D+00 DE=-1.75D-02 OVMax= 3.75D-01

 Cycle   3  Pass 1  IDiag  1:
 E= -1136.08433463419     Delta-E=       -0.017516775833 Rises=F Damp=F
 DIIS: error= 6.42D-03 at cycle   3 NSaved=   3.
 NSaved= 3 IEnMin= 3 EnMin= -1136.08433463419     IErMin= 3 ErrMin= 6.42D-03
 ErrMax= 6.42D-03  0.00D+00 EMaxC= 1.00D-01 BMatC= 1.53D-02 BMatP= 7.71D-02
 IDIUse=3 WtCom= 9.36D-01 WtEn= 6.42D-02
 Coeff-Com: -0.550D+00 0.972D+00 0.577D+00
 Coeff-En:   0.000D+00 0.000D+00 0.100D+01
 Coeff:     -0.514D+00 0.910D+00 0.604D+00
 Gap=     0.069 Goal=   None    Shift=    0.000
 Gap=     0.033 Goal=   None    Shift=    0.000
 RMSDP=1.40D-02 MaxDP=8.01D-01 DE=-1.75D-02 OVMax= 2.61D-01

 Cycle   4  Pass 1  IDiag  1:
 E= -1136.09020983817     Delta-E=       -0.005875203982 Rises=F Damp=F
 DIIS: error= 5.22D-03 at cycle   4 NSaved=   4.
 NSaved= 4 IEnMin= 4 EnMin= -1136.09020983817     IErMin= 4 ErrMin= 5.22D-03
 ErrMax= 5.22D-03  0.00D+00 EMaxC= 1.00D-01 BMatC= 8.23D-03 BMatP= 1.53D-02
 IDIUse=3 WtCom= 9.48D-01 WtEn= 5.22D-02
 Coeff-Com: -0.605D-01 0.986D-01 0.415D+00 0.547D+00
 Coeff-En:   0.000D+00 0.000D+00 0.402D+00 0.598D+00
 Coeff:     -0.573D-01 0.935D-01 0.414D+00 0.549D+00
 Gap=     0.063 Goal=   None    Shift=    0.000
 Gap=     0.033 Goal=   None    Shift=    0.000
 RMSDP=6.92D-03 MaxDP=4.11D-01 DE=-5.88D-03 OVMax= 1.28D-01

 Cycle   5  Pass 1  IDiag  1:
 E= -1136.09838220706     Delta-E=       -0.008172368892 Rises=F Damp=F
 DIIS: error= 1.18D-03 at cycle   5 NSaved=   5.
 NSaved= 5 IEnMin= 5 EnMin= -1136.09838220706     IErMin= 5 ErrMin= 1.18D-03
 ErrMax= 1.18D-03  0.00D+00 EMaxC= 1.00D-01 BMatC= 6.81D-04 BMatP= 8.23D-03
 IDIUse=3 WtCom= 9.88D-01 WtEn= 1.18D-02
 Coeff-Com: -0.131D-01 0.161D-01 0.214D+00 0.322D+00 0.461D+00
 Coeff-En:   0.000D+00 0.000D+00 0.000D+00 0.214D-01 0.979D+00
 Coeff:     -0.129D-01 0.159D-01 0.212D+00 0.319D+00 0.467D+00
 Gap=     0.062 Goal=   None    Shift=    0.000
 Gap=     0.033 Goal=   None    Shift=    0.000
 RMSDP=2.19D-03 MaxDP=1.56D-01 DE=-8.17D-03 OVMax= 3.14D-02

 Cycle   6  Pass 1  IDiag  1:
 E= -1136.09901473450     Delta-E=       -0.000632527442 Rises=F Damp=F
 DIIS: error= 3.14D-04 at cycle   6 NSaved=   6.
 NSaved= 6 IEnMin= 6 EnMin= -1136.09901473450     IErMin= 6 ErrMin= 3.14D-04
 ErrMax= 3.14D-04  0.00D+00 EMaxC= 1.00D-01 BMatC= 2.44D-05 BMatP= 6.81D-04
 IDIUse=3 WtCom= 9.97D-01 WtEn= 3.14D-03
 Coeff-Com:  0.163D-02-0.268D-02-0.333D-01-0.630D-01 0.851D-01 0.101D+01
 Coeff-En:   0.000D+00 0.000D+00 0.000D+00 0.000D+00 0.000D+00 0.100D+01
 Coeff:      0.163D-02-0.267D-02-0.332D-01-0.628D-01 0.849D-01 0.101D+01
 Gap=     0.062 Goal=   None    Shift=    0.000
 Gap=     0.034 Goal=   None    Shift=    0.000
 RMSDP=1.17D-03 MaxDP=7.77D-02 DE=-6.33D-04 OVMax= 8.71D-03

 Cycle   7  Pass 1  IDiag  1:
 E= -1136.09906186136     Delta-E=       -0.000047126853 Rises=F Damp=F
 DIIS: error= 7.63D-05 at cycle   7 NSaved=   7.
 NSaved= 7 IEnMin= 7 EnMin= -1136.09906186136     IErMin= 7 ErrMin= 7.63D-05
 ErrMax= 7.63D-05  0.00D+00 EMaxC= 1.00D-01 BMatC= 2.26D-06 BMatP= 2.44D-05
 IDIUse=1 WtCom= 1.00D+00 WtEn= 0.00D+00
 Coeff-Com:  0.141D-02-0.202D-02-0.189D-01-0.317D-01 0.211D-02 0.263D+00
 Coeff-Com:  0.786D+00
 Coeff:      0.141D-02-0.202D-02-0.189D-01-0.317D-01 0.211D-02 0.263D+00
 Coeff:      0.786D+00
 Gap=     0.062 Goal=   None    Shift=    0.000
 Gap=     0.034 Goal=   None    Shift=    0.000
 RMSDP=3.47D-04 MaxDP=3.72D-02 DE=-4.71D-05 OVMax= 4.72D-03

 Cycle   8  Pass 1  IDiag  1:
 E= -1136.09906745227     Delta-E=       -0.000005590913 Rises=F Damp=F
 DIIS: error= 7.01D-05 at cycle   8 NSaved=   8.
 NSaved= 8 IEnMin= 8 EnMin= -1136.09906745227     IErMin= 8 ErrMin= 7.01D-05
 ErrMax= 7.01D-05  0.00D+00 EMaxC= 1.00D-01 BMatC= 1.92D-06 BMatP= 2.26D-06
 IDIUse=1 WtCom= 1.00D+00 WtEn= 0.00D+00
 Coeff-Com:  0.381D-03-0.417D-03 0.308D-02 0.979D-02-0.458D-01-0.364D+00
 Coeff-Com:  0.631D+00 0.766D+00
 Coeff:      0.381D-03-0.417D-03 0.308D-02 0.979D-02-0.458D-01-0.364D+00
 Coeff:      0.631D+00 0.766D+00
 Gap=     0.062 Goal=   None    Shift=    0.000
 Gap=     0.034 Goal=   None    Shift=    0.000
 RMSDP=2.53D-04 MaxDP=2.59D-02 DE=-5.59D-06 OVMax= 4.04D-03

 Cycle   9  Pass 1  IDiag  1:
 E= -1136.09907236334     Delta-E=       -0.000004911073 Rises=F Damp=F
 DIIS: error= 1.33D-05 at cycle   9 NSaved=   9.
 NSaved= 9 IEnMin= 9 EnMin= -1136.09907236334     IErMin= 9 ErrMin= 1.33D-05
 ErrMax= 1.33D-05  0.00D+00 EMaxC= 1.00D-01 BMatC= 9.14D-08 BMatP= 1.92D-06
 IDIUse=1 WtCom= 1.00D+00 WtEn= 0.00D+00
 Coeff-Com: -0.871D-04 0.159D-03 0.187D-02 0.411D-02-0.881D-02-0.870D-01
 Coeff-Com:  0.423D-02 0.963D-01 0.989D+00
 Coeff:     -0.871D-04 0.159D-03 0.187D-02 0.411D-02-0.881D-02-0.870D-01
 Coeff:      0.423D-02 0.963D-01 0.989D+00
 Gap=     0.062 Goal=   None    Shift=    0.000
 Gap=     0.034 Goal=   None    Shift=    0.000
 RMSDP=7.55D-05 MaxDP=8.41D-03 DE=-4.91D-06 OVMax= 1.43D-03

 Cycle  10  Pass 1  IDiag  1:
 E= -1136.09907286742     Delta-E=       -0.000000504081 Rises=F Damp=F
 DIIS: error= 9.95D-06 at cycle  10 NSaved=  10.
 NSaved=10 IEnMin=10 EnMin= -1136.09907286742     IErMin=10 ErrMin= 9.95D-06
 ErrMax= 9.95D-06  0.00D+00 EMaxC= 1.00D-01 BMatC= 3.55D-08 BMatP= 9.14D-08
 IDIUse=1 WtCom= 1.00D+00 WtEn= 0.00D+00
 Coeff-Com: -0.829D-04 0.126D-03 0.817D-03 0.497D-03 0.361D-02 0.273D-01
 Coeff-Com: -0.116D+00-0.935D-01 0.388D+00 0.790D+00
 Coeff:     -0.829D-04 0.126D-03 0.817D-03 0.497D-03 0.361D-02 0.273D-01
 Coeff:     -0.116D+00-0.935D-01 0.388D+00 0.790D+00
 Gap=     0.062 Goal=   None    Shift=    0.000
 Gap=     0.034 Goal=   None    Shift=    0.000
 RMSDP=3.22D-05 MaxDP=2.31D-03 DE=-5.04D-07 OVMax= 6.37D-04

 Cycle  11  Pass 1  IDiag  1:
 E= -1136.09907298531     Delta-E=       -0.000000117890 Rises=F Damp=F
 DIIS: error= 5.14D-06 at cycle  11 NSaved=  11.
 NSaved=11 IEnMin=11 EnMin= -1136.09907298531     IErMin=11 ErrMin= 5.14D-06
 ErrMax= 5.14D-06  0.00D+00 EMaxC= 1.00D-01 BMatC= 1.13D-08 BMatP= 3.55D-08
 IDIUse=1 WtCom= 1.00D+00 WtEn= 0.00D+00
 Coeff-Com: -0.353D-04 0.494D-04 0.174D-03-0.394D-03 0.383D-02 0.328D-01
 Coeff-Com: -0.691D-01-0.689D-01 0.300D-01 0.384D+00 0.688D+00
 Coeff:     -0.353D-04 0.494D-04 0.174D-03-0.394D-03 0.383D-02 0.328D-01
 Coeff:     -0.691D-01-0.689D-01 0.300D-01 0.384D+00 0.688D+00
 Gap=     0.062 Goal=   None    Shift=    0.000
 Gap=     0.034 Goal=   None    Shift=    0.000
 RMSDP=1.88D-05 MaxDP=1.57D-03 DE=-1.18D-07 OVMax= 3.54D-04

 Cycle  12  Pass 1  IDiag  1:
 E= -1136.09907302233     Delta-E=       -0.000000037013 Rises=F Damp=F
 DIIS: error= 2.65D-06 at cycle  12 NSaved=  12.
 NSaved=12 IEnMin=12 EnMin= -1136.09907302233     IErMin=12 ErrMin= 2.65D-06
 ErrMax= 2.65D-06  0.00D+00 EMaxC= 1.00D-01 BMatC= 3.63D-09 BMatP= 1.13D-08
 IDIUse=1 WtCom= 1.00D+00 WtEn= 0.00D+00
 Coeff-Com: -0.165D-04 0.155D-04-0.339D-03-0.424D-03 0.105D-02 0.984D-02
 Coeff-Com:  0.388D-02-0.217D-02-0.120D+00-0.151D+00 0.322D+00 0.936D+00
 Coeff:     -0.165D-04 0.155D-04-0.339D-03-0.424D-03 0.105D-02 0.984D-02
 Coeff:      0.388D-02-0.217D-02-0.120D+00-0.151D+00 0.322D+00 0.936D+00
 Gap=     0.062 Goal=   None    Shift=    0.000
 Gap=     0.034 Goal=   None    Shift=    0.000
 RMSDP=1.51D-05 MaxDP=1.27D-03 DE=-3.70D-08 OVMax= 3.43D-04

 Cycle  13  Pass 1  IDiag  1:
 E= -1136.09907304262     Delta-E=       -0.000000020293 Rises=F Damp=F
 DIIS: error= 1.97D-06 at cycle  13 NSaved=  13.
 NSaved=13 IEnMin=13 EnMin= -1136.09907304262     IErMin=13 ErrMin= 1.97D-06
 ErrMax= 1.97D-06  0.00D+00 EMaxC= 1.00D-01 BMatC= 9.06D-10 BMatP= 3.63D-09
 IDIUse=1 WtCom= 1.00D+00 WtEn= 0.00D+00
 Coeff-Com: -0.273D-04 0.357D-04-0.164D-03 0.100D-03-0.862D-03-0.553D-02
 Coeff-Com:  0.104D-01 0.142D-01 0.767D-02-0.952D-01-0.194D+00 0.247D-01
 Coeff-Com:  0.124D+01
 Coeff:     -0.273D-04 0.357D-04-0.164D-03 0.100D-03-0.862D-03-0.553D-02
 Coeff:      0.104D-01 0.142D-01 0.767D-02-0.952D-01-0.194D+00 0.247D-01
 Coeff:      0.124D+01
 Gap=     0.062 Goal=   None    Shift=    0.000
 Gap=     0.034 Goal=   None    Shift=    0.000
 RMSDP=1.10D-05 MaxDP=9.25D-04 DE=-2.03D-08 OVMax= 2.41D-04

 Cycle  14  Pass 1  IDiag  1:
 E= -1136.09907304996     Delta-E=       -0.000000007340 Rises=F Damp=F
 DIIS: error= 9.28D-07 at cycle  14 NSaved=  14.
 NSaved=14 IEnMin=14 EnMin= -1136.09907304996     IErMin=14 ErrMin= 9.28D-07
 ErrMax= 9.28D-07  0.00D+00 EMaxC= 1.00D-01 BMatC= 1.86D-10 BMatP= 9.06D-10
 IDIUse=1 WtCom= 1.00D+00 WtEn= 0.00D+00
 Coeff-Com:  0.875D-05-0.101D-04 0.762D-04 0.606D-04-0.572D-04 0.384D-03
 Coeff-Com: -0.699D-02-0.430D-02 0.330D-01 0.841D-01-0.584D-01-0.317D+00
 Coeff-Com: -0.194D+00 0.146D+01
 Coeff:      0.875D-05-0.101D-04 0.762D-04 0.606D-04-0.572D-04 0.384D-03
 Coeff:     -0.699D-02-0.430D-02 0.330D-01 0.841D-01-0.584D-01-0.317D+00
 Coeff:     -0.194D+00 0.146D+01
 Gap=     0.062 Goal=   None    Shift=    0.000
 Gap=     0.034 Goal=   None    Shift=    0.000
 RMSDP=8.03D-06 MaxDP=7.82D-04 DE=-7.34D-09 OVMax= 2.00D-04

 Cycle  15  Pass 1  IDiag  1:
 E= -1136.09907305232     Delta-E=       -0.000000002362 Rises=F Damp=F
 DIIS: error= 4.79D-07 at cycle  15 NSaved=  15.
 NSaved=15 IEnMin=15 EnMin= -1136.09907305232     IErMin=15 ErrMin= 4.79D-07
 ErrMax= 4.79D-07  0.00D+00 EMaxC= 1.00D-01 BMatC= 4.00D-11 BMatP= 1.86D-10
 IDIUse=1 WtCom= 1.00D+00 WtEn= 0.00D+00
 Coeff-Com: -0.208D-05 0.272D-05 0.203D-04-0.157D-04 0.251D-03 0.180D-02
 Coeff-Com: -0.302D-02-0.296D-02-0.746D-03 0.781D-02 0.364D-01 0.449D-01
 Coeff-Com: -0.243D+00-0.117D+00 0.128D+01
 Coeff:     -0.208D-05 0.272D-05 0.203D-04-0.157D-04 0.251D-03 0.180D-02
 Coeff:     -0.302D-02-0.296D-02-0.746D-03 0.781D-02 0.364D-01 0.449D-01
 Coeff:     -0.243D+00-0.117D+00 0.128D+01
 Gap=     0.062 Goal=   None    Shift=    0.000
 Gap=     0.034 Goal=   None    Shift=    0.000
 RMSDP=3.17D-06 MaxDP=2.81D-04 DE=-2.36D-09 OVMax= 9.69D-05

 Cycle  16  Pass 1  IDiag  1:
 E= -1136.09907305278     Delta-E=       -0.000000000458 Rises=F Damp=F
 DIIS: error= 2.32D-07 at cycle  16 NSaved=  16.
 NSaved=16 IEnMin=16 EnMin= -1136.09907305278     IErMin=16 ErrMin= 2.32D-07
 ErrMax= 2.32D-07  0.00D+00 EMaxC= 1.00D-01 BMatC= 1.34D-11 BMatP= 4.00D-11
 IDIUse=1 WtCom= 1.00D+00 WtEn= 0.00D+00
 Coeff-Com: -0.482D-05 0.610D-05-0.228D-04-0.220D-04 0.670D-04 0.493D-03
 Coeff-Com:  0.518D-03 0.603D-03-0.732D-02-0.210D-01 0.170D-01 0.100D+00
 Coeff-Com:  0.661D-02-0.414D+00 0.295D+00 0.102D+01
 Coeff:     -0.482D-05 0.610D-05-0.228D-04-0.220D-04 0.670D-04 0.493D-03
 Coeff:      0.518D-03 0.603D-03-0.732D-02-0.210D-01 0.170D-01 0.100D+00
 Coeff:      0.661D-02-0.414D+00 0.295D+00 0.102D+01
 Gap=     0.062 Goal=   None    Shift=    0.000
 Gap=     0.034 Goal=   None    Shift=    0.000
 RMSDP=1.53D-06 MaxDP=1.32D-04 DE=-4.58D-10 OVMax= 5.01D-05

 Cycle  17  Pass 1  IDiag  1:
 E= -1136.09907305290     Delta-E=       -0.000000000115 Rises=F Damp=F
 DIIS: error= 1.20D-07 at cycle  17 NSaved=  17.
 NSaved=17 IEnMin=17 EnMin= -1136.09907305290     IErMin=17 ErrMin= 1.20D-07
 ErrMax= 1.20D-07  0.00D+00 EMaxC= 1.00D-01 BMatC= 4.13D-12 BMatP= 1.34D-11
 IDIUse=1 WtCom= 1.00D+00 WtEn= 0.00D+00
 Coeff-Com:  0.102D-05-0.137D-05-0.122D-04 0.619D-05-0.112D-03-0.715D-03
 Coeff-Com:  0.954D-03 0.120D-02 0.105D-02 0.524D-03-0.211D-01-0.255D-01
 Coeff-Com:  0.102D+00 0.712D-01-0.528D+00-0.804D-01 0.148D+01
 Coeff:      0.102D-05-0.137D-05-0.122D-04 0.619D-05-0.112D-03-0.715D-03
 Coeff:      0.954D-03 0.120D-02 0.105D-02 0.524D-03-0.211D-01-0.255D-01
 Coeff:      0.102D+00 0.712D-01-0.528D+00-0.804D-01 0.148D+01
 Gap=     0.062 Goal=   None    Shift=    0.000
 Gap=     0.034 Goal=   None    Shift=    0.000
 RMSDP=1.38D-06 MaxDP=9.65D-05 DE=-1.15D-10 OVMax= 4.78D-05

 Cycle  18  Pass 1  IDiag  1:
 E= -1136.09907305297     Delta-E=       -0.000000000074 Rises=F Damp=F
 DIIS: error= 7.46D-08 at cycle  18 NSaved=  18.
 NSaved=18 IEnMin=18 EnMin= -1136.09907305297     IErMin=18 ErrMin= 7.46D-08
 ErrMax= 7.46D-08  0.00D+00 EMaxC= 1.00D-01 BMatC= 1.07D-12 BMatP= 4.13D-12
 IDIUse=1 WtCom= 1.00D+00 WtEn= 0.00D+00
 Coeff-Com:  0.954D-06-0.118D-05 0.546D-05 0.179D-05 0.868D-07 0.612D-04
 Coeff-Com: -0.313D-03-0.228D-03 0.694D-03 0.548D-02-0.119D-02-0.141D-01
 Coeff-Com: -0.285D-01 0.880D-01 0.200D-01-0.241D+00-0.224D+00 0.140D+01
 Coeff:      0.954D-06-0.118D-05 0.546D-05 0.179D-05 0.868D-07 0.612D-04
 Coeff:     -0.313D-03-0.228D-03 0.694D-03 0.548D-02-0.119D-02-0.141D-01
 Coeff:     -0.285D-01 0.880D-01 0.200D-01-0.241D+00-0.224D+00 0.140D+01
 Gap=     0.062 Goal=   None    Shift=    0.000
 Gap=     0.034 Goal=   None    Shift=    0.000
 RMSDP=6.68D-07 MaxDP=4.43D-05 DE=-7.41D-11 OVMax= 2.46D-05

 Cycle  19  Pass 1  IDiag  1:
 E= -1136.09907305297     Delta-E=       -0.000000000004 Rises=F Damp=F
 DIIS: error= 4.00D-08 at cycle  19 NSaved=  19.
 NSaved=19 IEnMin=19 EnMin= -1136.09907305297     IErMin=19 ErrMin= 4.00D-08
 ErrMax= 4.00D-08  0.00D+00 EMaxC= 1.00D-01 BMatC= 3.31D-13 BMatP= 1.07D-12
 IDIUse=1 WtCom= 1.00D+00 WtEn= 0.00D+00
 Coeff-Com: -0.232D-06 0.288D-06 0.325D-05 0.625D-06 0.207D-04 0.795D-04
 Coeff-Com: -0.829D-04-0.189D-04-0.706D-03-0.119D-02 0.400D-02 0.108D-01
 Coeff-Com: -0.245D-01-0.188D-01 0.134D+00 0.288D-01-0.357D+00-0.267D+00
 Coeff-Com:  0.149D+01
 Coeff:     -0.232D-06 0.288D-06 0.325D-05 0.625D-06 0.207D-04 0.795D-04
 Coeff:     -0.829D-04-0.189D-04-0.706D-03-0.119D-02 0.400D-02 0.108D-01
 Coeff:     -0.245D-01-0.188D-01 0.134D+00 0.288D-01-0.357D+00-0.267D+00
 Coeff:      0.149D+01
 Gap=     0.062 Goal=   None    Shift=    0.000
 Gap=     0.034 Goal=   None    Shift=    0.000
 RMSDP=3.71D-07 MaxDP=2.80D-05 DE=-3.87D-12 OVMax= 1.35D-05

 Cycle  20  Pass 1  IDiag  1:
 E= -1136.09907305299     Delta-E=       -0.000000000016 Rises=F Damp=F
 DIIS: error= 1.62D-08 at cycle  20 NSaved=  20.
 NSaved=20 IEnMin=20 EnMin= -1136.09907305299     IErMin=20 ErrMin= 1.62D-08
 ErrMax= 1.62D-08  0.00D+00 EMaxC= 1.00D-01 BMatC= 5.83D-14 BMatP= 3.31D-13
 IDIUse=1 WtCom= 1.00D+00 WtEn= 0.00D+00
 Coeff-Com: -0.230D-06 0.289D-06-0.136D-05-0.840D-06-0.192D-05-0.101D-04
 Coeff-Com:  0.818D-04 0.503D-04-0.171D-03-0.785D-03-0.157D-03 0.247D-02
 Coeff-Com:  0.796D-02-0.186D-01-0.283D-01 0.584D-01 0.134D+00-0.240D+00
 Coeff-Com: -0.520D+00 0.161D+01
 Coeff:     -0.230D-06 0.289D-06-0.136D-05-0.840D-06-0.192D-05-0.101D-04
 Coeff:      0.818D-04 0.503D-04-0.171D-03-0.785D-03-0.157D-03 0.247D-02
 Coeff:      0.796D-02-0.186D-01-0.283D-01 0.584D-01 0.134D+00-0.240D+00
 Coeff:     -0.520D+00 0.161D+01
 Gap=     0.062 Goal=   None    Shift=    0.000
 Gap=     0.034 Goal=   None    Shift=    0.000
 RMSDP=1.55D-07 MaxDP=1.20D-05 DE=-1.64D-11 OVMax= 5.63D-06

 Cycle  21  Pass 1  IDiag  1:
 E= -1136.09907305299     Delta-E=       -0.000000000001 Rises=F Damp=F
 DIIS: error= 3.16D-09 at cycle  21 NSaved=  20.
 NSaved=20 IEnMin=20 EnMin= -1136.09907305299     IErMin=20 ErrMin= 3.16D-09
 ErrMax= 3.16D-09  0.00D+00 EMaxC= 1.00D-01 BMatC= 8.32D-15 BMatP= 5.83D-14
 IDIUse=1 WtCom= 1.00D+00 WtEn= 0.00D+00
 Large coefficients: NSaved= 20 BigCof=    0.00 CofMax=   10.00 Det=-8.31D-15
 Inversion failed.  Reducing to 19 matrices.
 Large coefficients: NSaved= 19 BigCof=    0.00 CofMax=   10.00 Det=-8.50D-15
 Inversion failed.  Reducing to 18 matrices.
 Large coefficients: NSaved= 18 BigCof=    0.00 CofMax=   10.00 Det=-8.84D-15
 Inversion failed.  Reducing to 17 matrices.
 Large coefficients: NSaved= 17 BigCof=    0.00 CofMax=   10.00 Det=-8.92D-15
 Inversion failed.  Reducing to 16 matrices.
 Large coefficients: NSaved= 16 BigCof=    0.00 CofMax=   10.00 Det=-8.97D-15
 Inversion failed.  Reducing to 15 matrices.
 Coeff-Com: -0.249D-05-0.242D-05-0.222D-04 0.587D-04-0.549D-04-0.140D-03
 Coeff-Com:  0.172D-02-0.234D-02-0.736D-02 0.203D-02 0.381D-01-0.718D-02
 Coeff-Com: -0.235D+00 0.207D+00 0.100D+01
 Coeff:     -0.249D-05-0.242D-05-0.222D-04 0.587D-04-0.549D-04-0.140D-03
 Coeff:      0.172D-02-0.234D-02-0.736D-02 0.203D-02 0.381D-01-0.718D-02
 Coeff:     -0.235D+00 0.207D+00 0.100D+01
 Gap=     0.062 Goal=   None    Shift=    0.000
 Gap=     0.034 Goal=   None    Shift=    0.000
 RMSDP=4.40D-08 MaxDP=3.40D-06 DE=-1.14D-12 OVMax= 1.63D-06

 Cycle  22  Pass 1  IDiag  1:
 E= -1136.09907305298     Delta-E=        0.000000000015 Rises=F Damp=F
 DIIS: error= 1.67D-09 at cycle  22 NSaved=  16.
 NSaved=16 IEnMin=15 EnMin= -1136.09907305299     IErMin=16 ErrMin= 1.67D-09
 ErrMax= 1.67D-09  0.00D+00 EMaxC= 1.00D-01 BMatC= 1.30D-15 BMatP= 8.32D-15
 IDIUse=1 WtCom= 1.00D+00 WtEn= 0.00D+00
 Large coefficients: NSaved= 16 BigCof=    0.00 CofMax=   10.00 Det=-3.91D-15
 Inversion failed.  Reducing to 15 matrices.
 Coeff-Com:  0.143D-05-0.127D-04 0.523D-04-0.531D-04-0.284D-03 0.782D-04
 Coeff-Com:  0.192D-02-0.164D-03-0.928D-02-0.250D-02 0.529D-01-0.271D-01
 Coeff-Com: -0.152D+00 0.221D+00 0.916D+00
 Coeff:      0.143D-05-0.127D-04 0.523D-04-0.531D-04-0.284D-03 0.782D-04
 Coeff:      0.192D-02-0.164D-03-0.928D-02-0.250D-02 0.529D-01-0.271D-01
 Coeff:     -0.152D+00 0.221D+00 0.916D+00
 Gap=     0.062 Goal=   None    Shift=    0.000
 Gap=     0.034 Goal=   None    Shift=    0.000
 RMSDP=1.11D-08 MaxDP=7.77D-07 DE= 1.50D-11 OVMax= 2.31D-07

 Cycle  23  Pass 1  IDiag  1:
 E= -1136.09907305300     Delta-E=       -0.000000000022 Rises=F Damp=F
 DIIS: error= 9.95D-10 at cycle  23 NSaved=  16.
 NSaved=16 IEnMin=16 EnMin= -1136.09907305300     IErMin=16 ErrMin= 9.95D-10
 ErrMax= 9.95D-10  0.00D+00 EMaxC= 1.00D-01 BMatC= 2.72D-16 BMatP= 1.30D-15
 IDIUse=1 WtCom= 1.00D+00 WtEn= 0.00D+00
 Large coefficients: NSaved= 16 BigCof=    0.00 CofMax=   10.00 Det=-7.22D-16
 Inversion failed.  Reducing to 15 matrices.
 Coeff-Com: -0.607D-05-0.114D-04 0.537D-04 0.947D-04-0.649D-03 0.398D-03
 Coeff-Com:  0.290D-02-0.210D-02-0.109D-01 0.105D-01 0.446D-01-0.683D-01
 Coeff-Com: -0.109D+00 0.231D+00 0.902D+00
 Coeff:     -0.607D-05-0.114D-04 0.537D-04 0.947D-04-0.649D-03 0.398D-03
 Coeff:      0.290D-02-0.210D-02-0.109D-01 0.105D-01 0.446D-01-0.683D-01
 Coeff:     -0.109D+00 0.231D+00 0.902D+00
 Gap=     0.062 Goal=   None    Shift=    0.000
 Gap=     0.034 Goal=   None    Shift=    0.000
 RMSDP=4.86D-09 MaxDP=3.94D-07 DE=-2.18D-11 OVMax= 5.79D-08

 SCF Done:  E(UB3LYP) =  -1136.09907305     A.U. after   23 cycles
            NFock= 23  Conv=0.49D-08     -V/T= 2.0025
 <Sx>= 0.0000 <Sy>= 0.0000 <Sz>= 0.5000 <S**2>= 0.7724 S= 0.5111
 <L.S>= 0.000000000000E+00
 KE= 1.133254765054D+03 PE=-3.476107238526D+03 EE= 8.335048015268D+02
 Annihilation of the first spin contaminant:
 S**2 before annihilation     0.7724,   after     0.7503
 Leave Link  502 at Mon Nov 13 20:12:06 2023, MaxMem=  1879048192 cpu:             228.9 elap:              19.7
 (Enter /home/sekinelabo/g16/l601.exe)
 Copying SCF densities to generalized density rwf, IOpCl= 1 IROHF=0.

 **********************************************************************

            Population analysis using the SCF Density.

 **********************************************************************

 Orbital symmetries:
 Alpha Orbitals:
       Occupied  (A) (A) (A) (A) (A) (A) (A) (A) (A) (A) (A) (A)
                 (A) (A) (A) (A) (A) (A) (A) (A) (A) (A) (A) (A)
                 (A) (A) (A) (A) (A) (A) (A) (A) (A) (A) (A) (A)
                 (A) (A) (A)
       Virtual   (A) (A) (A) (A) (A) (A) (A) (A) (A) (A) (A) (A)
                 (A) (A) (A) (A) (A) (A) (A) (A) (A) (A) (A) (A)
                 (A) (A) (A) (A) (A) (A) (A) (A) (A) (A) (A) (A)
                 (A) (A) (A) (A) (A) (A) (A) (A) (A) (A) (A) (A)
                 (A) (A) (A) (A) (A) (A) (A) (A) (A) (A) (A) (A)
                 (A) (A) (A) (A) (A) (A) (A) (A) (A) (A) (A) (A)
                 (A) (A) (A) (A) (A) (A) (A) (A) (A) (A) (A) (A)
                 (A) (A) (A) (A) (A) (A) (A) (A) (A) (A) (A) (A)
                 (A) (A) (A) (A) (A) (A) (A) (A) (A) (A) (A) (A)
                 (A) (A) (A) (A) (A) (A) (A) (A) (A) (A) (A) (A)
                 (A) (A) (A) (A) (A) (A) (A) (A) (A) (A) (A) (A)
                 (A) (A) (A) (A) (A) (A) (A) (A) (A) (A) (A) (A)
                 (A) (A) (A) (A) (A) (A) (A) (A) (A) (A) (A) (A)
                 (A) (A) (A) (A) (A) (A) (A) (A) (A) (A) (A) (A)
                 (A) (A)
 Beta  Orbitals:
       Occupied  (A) (A) (A) (A) (A) (A) (A) (A) (A) (A) (A) (A)
                 (A) (A) (A) (A) (A) (A) (A) (A) (A) (A) (A) (A)
                 (A) (A) (A) (A) (A) (A) (A) (A) (A) (A) (A) (A)
                 (A) (A)
       Virtual   (A) (A) (A) (A) (A) (A) (A) (A) (A) (A) (A) (A)
                 (A) (A) (A) (A) (A) (A) (A) (A) (A) (A) (A) (A)
                 (A) (A) (A) (A) (A) (A) (A) (A) (A) (A) (A) (A)
                 (A) (A) (A) (A) (A) (A) (A) (A) (A) (A) (A) (A)
                 (A) (A) (A) (A) (A) (A) (A) (A) (A) (A) (A) (A)
                 (A) (A) (A) (A) (A) (A) (A) (A) (A) (A) (A) (A)
                 (A) (A) (A) (A) (A) (A) (A) (A) (A) (A) (A) (A)
                 (A) (A) (A) (A) (A) (A) (A) (A) (A) (A) (A) (A)
                 (A) (A) (A) (A) (A) (A) (A) (A) (A) (A) (A) (A)
                 (A) (A) (A) (A) (A) (A) (A) (A) (A) (A) (A) (A)
                 (A) (A) (A) (A) (A) (A) (A) (A) (A) (A) (A) (A)
                 (A) (A) (A) (A) (A) (A) (A) (A) (A) (A) (A) (A)
                 (A) (A) (A) (A) (A) (A) (A) (A) (A) (A) (A) (A)
                 (A) (A) (A) (A) (A) (A) (A) (A) (A) (A) (A) (A)
                 (A) (A) (A)
 The electronic state is 2-A.
 Alpha  occ. eigenvalues --  -38.44681 -38.43902 -38.43746 -38.43669 -38.43439
 Alpha  occ. eigenvalues --  -38.43286 -38.42689  -2.20488  -2.19902  -2.19865
 Alpha  occ. eigenvalues --   -2.19645  -2.19435  -2.19367  -2.18972  -1.14191
 Alpha  occ. eigenvalues --   -1.14107  -1.14105  -1.13752  -1.13654  -1.13592
 Alpha  occ. eigenvalues --   -1.13576  -1.13509  -1.13411  -1.13337  -1.13281
 Alpha  occ. eigenvalues --   -1.13227  -1.13208  -1.13093  -1.13067  -1.13041
 Alpha  occ. eigenvalues --   -1.12978  -1.12898  -1.12672  -1.12605  -1.12545
 Alpha  occ. eigenvalues --   -0.20082  -0.13147  -0.12330  -0.11966
 Alpha virt. eigenvalues --   -0.05749  -0.04415  -0.03906  -0.03172  -0.02962
 Alpha virt. eigenvalues --   -0.02709  -0.01456  -0.00719  -0.00590   0.00255
 Alpha virt. eigenvalues --    0.00403   0.00635   0.00707   0.00929   0.01027
 Alpha virt. eigenvalues --    0.01047   0.01091   0.01195   0.01324   0.01366
 Alpha virt. eigenvalues --    0.01581   0.01607   0.01725   0.01770   0.01966
 Alpha virt. eigenvalues --    0.02478   0.02675   0.02685   0.02859   0.02871
 Alpha virt. eigenvalues --    0.02894   0.03032   0.03040   0.03114   0.03196
 Alpha virt. eigenvalues --    0.03248   0.03403   0.03577   0.03772   0.04092
 Alpha virt. eigenvalues --    0.04355   0.04770   0.04946   0.05202   0.05224
 Alpha virt. eigenvalues --    0.05301   0.05749   0.06085   0.06202   0.06253
 Alpha virt. eigenvalues --    0.06407   0.06992   0.07456   0.08060   0.08165
 Alpha virt. eigenvalues --    0.08377   0.08593   0.08846   0.09173   0.09773
 Alpha virt. eigenvalues --    0.10014   0.10392   0.10604   0.12345   0.12819
 Alpha virt. eigenvalues --    0.13249   0.13538   0.13808   0.14051   0.14308
 Alpha virt. eigenvalues --    0.14667   0.14895   0.15160   0.15640   0.16366
 Alpha virt. eigenvalues --    0.16962   0.17555   0.18560   0.20682   0.24153
 Alpha virt. eigenvalues --    0.25819   0.26854   0.28340   0.29115   0.31159
 Alpha virt. eigenvalues --    0.32479   0.33232   0.33668   0.33944   0.34541
 Alpha virt. eigenvalues --    0.35792   0.36577   0.38318   0.39185   0.39616
 Alpha virt. eigenvalues --    0.40646   0.40983   0.41630   0.42678   0.42903
 Alpha virt. eigenvalues --    0.43451   0.44121   0.44833   0.44961   0.45729
 Alpha virt. eigenvalues --    0.46352   0.46882   0.47136   0.47932   0.48387
 Alpha virt. eigenvalues --    0.48717   0.49201   0.50154   0.50364   0.50709
 Alpha virt. eigenvalues --    0.52697   0.53653   0.54396   0.55039   0.55383
 Alpha virt. eigenvalues --    0.55901   0.57817   0.59182   0.63258   0.64531
 Alpha virt. eigenvalues --    0.67606   0.69065   0.69799   0.71746   0.73334
 Alpha virt. eigenvalues --    0.74182   0.74853   0.76695   0.79819   0.82869
 Alpha virt. eigenvalues --    2.12976   2.13118   2.20178   2.24422   2.26962
 Alpha virt. eigenvalues --    2.34728   2.41530   4.41116   4.41491   4.42397
 Alpha virt. eigenvalues --    4.43448   4.44383   4.45260   4.45354   4.46834
 Alpha virt. eigenvalues --    4.47863   4.48282   4.49592   4.51954   4.57654
 Alpha virt. eigenvalues --    4.64460   4.65268   4.65603   4.66613   4.70001
 Alpha virt. eigenvalues --    4.79810   4.82203   4.84386  96.34559  96.35290
 Alpha virt. eigenvalues --   96.44130  96.50587  96.54371  96.64780  96.72887
  Beta  occ. eigenvalues --  -38.44639 -38.43855 -38.43716 -38.43618 -38.43399
  Beta  occ. eigenvalues --  -38.43269 -38.42661  -2.20411  -2.19818  -2.19779
  Beta  occ. eigenvalues --   -2.19594  -2.19369  -2.19339  -2.18928  -1.14133
  Beta  occ. eigenvalues --   -1.14058  -1.14054  -1.13701  -1.13581  -1.13521
  Beta  occ. eigenvalues --   -1.13512  -1.13445  -1.13339  -1.13305  -1.13223
  Beta  occ. eigenvalues --   -1.13198  -1.13175  -1.13050  -1.13021  -1.12981
  Beta  occ. eigenvalues --   -1.12960  -1.12852  -1.12606  -1.12554  -1.12529
  Beta  occ. eigenvalues --   -0.19295  -0.12650  -0.11754
  Beta virt. eigenvalues --   -0.08311  -0.05368  -0.04229  -0.03638  -0.02845
  Beta virt. eigenvalues --   -0.02457  -0.01791  -0.01265  -0.00632  -0.00337
  Beta virt. eigenvalues --    0.00314   0.00512   0.00719   0.00833   0.00946
  Beta virt. eigenvalues --    0.01047   0.01087   0.01189   0.01287   0.01379
  Beta virt. eigenvalues --    0.01488   0.01657   0.01712   0.01754   0.01825
  Beta virt. eigenvalues --    0.02071   0.02538   0.02728   0.02761   0.02862
  Beta virt. eigenvalues --    0.02896   0.02925   0.03058   0.03098   0.03134
  Beta virt. eigenvalues --    0.03274   0.03344   0.03453   0.03732   0.03930
  Beta virt. eigenvalues --    0.04187   0.04438   0.04904   0.05013   0.05317
  Beta virt. eigenvalues --    0.05366   0.05470   0.05887   0.06112   0.06269
  Beta virt. eigenvalues --    0.06361   0.06547   0.07079   0.07535   0.08166
  Beta virt. eigenvalues --    0.08239   0.08496   0.08763   0.08950   0.09345
  Beta virt. eigenvalues --    0.10070   0.10321   0.10543   0.10778   0.12620
  Beta virt. eigenvalues --    0.13151   0.13475   0.13752   0.13967   0.14166
  Beta virt. eigenvalues --    0.14466   0.14819   0.15108   0.15384   0.15773
  Beta virt. eigenvalues --    0.16551   0.17276   0.17784   0.18744   0.20933
  Beta virt. eigenvalues --    0.24650   0.26113   0.27055   0.28600   0.29595
  Beta virt. eigenvalues --    0.31517   0.32843   0.33555   0.34060   0.34396
  Beta virt. eigenvalues --    0.34878   0.36077   0.36897   0.38522   0.39431
  Beta virt. eigenvalues --    0.39834   0.41018   0.41292   0.41962   0.42920
  Beta virt. eigenvalues --    0.43252   0.43632   0.44290   0.44941   0.45086
  Beta virt. eigenvalues --    0.45890   0.46457   0.47063   0.47299   0.48125
  Beta virt. eigenvalues --    0.48563   0.48890   0.49333   0.50342   0.50507
  Beta virt. eigenvalues --    0.50938   0.52787   0.53836   0.54583   0.55244
  Beta virt. eigenvalues --    0.55548   0.56137   0.58050   0.59354   0.63360
  Beta virt. eigenvalues --    0.64757   0.67790   0.69266   0.69950   0.71865
  Beta virt. eigenvalues --    0.73578   0.74379   0.74982   0.76834   0.79898
  Beta virt. eigenvalues --    0.83018   2.13149   2.13258   2.20308   2.24587
  Beta virt. eigenvalues --    2.27014   2.34904   2.41605   4.41186   4.41554
  Beta virt. eigenvalues --    4.42495   4.43488   4.44444   4.45321   4.45412
  Beta virt. eigenvalues --    4.46906   4.47937   4.48343   4.49652   4.52000
  Beta virt. eigenvalues --    4.57726   4.64552   4.65315   4.65674   4.66655
  Beta virt. eigenvalues --    4.70065   4.79854   4.82244   4.84453  96.34608
  Beta virt. eigenvalues --   96.35348  96.44176  96.50645  96.54395  96.64841
  Beta virt. eigenvalues --   96.72920
          Condensed to atoms (all electrons):
               1          2          3          4          5          6
     1  Na  15.571517  -0.420296   0.437719  -0.525653  -2.921103  -1.284771
     2  Na  -0.420296  11.407815  -0.237553   0.252153   0.408038  -0.622690
     3  Na   0.437719  -0.237553  11.777895  -1.417430   0.537587   0.345445
     4  Na  -0.525653   0.252153  -1.417430  16.180839  -0.386588  -1.864734
     5  Na  -2.921103   0.408038   0.537587  -0.386588  13.427320   0.097152
     6  Na  -1.284771  -0.622690   0.345445  -1.864734   0.097152  14.085430
     7  Na   0.039719   0.248289  -0.849291  -0.004820  -0.604230   0.134923
               7
     1  Na   0.039719
     2  Na   0.248289
     3  Na  -0.849291
     4  Na  -0.004820
     5  Na  -0.604230
     6  Na   0.134923
     7  Na  11.825450
          Atomic-Atomic Spin Densities.
               1          2          3          4          5          6
     1  Na   0.380493  -0.319422   0.763952  -0.247222   0.524955   0.199142
     2  Na  -0.319422   0.204122  -0.149103  -0.075375   0.081784   0.159418
     3  Na   0.763952  -0.149103   0.557897  -0.443414  -0.196206  -0.132299
     4  Na  -0.247222  -0.075375  -0.443414   0.178491  -0.039532  -0.007165
     5  Na   0.524955   0.081784  -0.196206  -0.039532  -0.348058  -0.182096
     6  Na   0.199142   0.159418  -0.132299  -0.007165  -0.182096  -0.013339
     7  Na  -0.923034   0.270093  -0.325690   0.403747   0.331481   0.143911
               7
     1  Na  -0.923034
     2  Na   0.270093
     3  Na  -0.325690
     4  Na   0.403747
     5  Na   0.331481
     6  Na   0.143911
     7  Na   0.364542
 Mulliken charges and spin densities:
               1          2
     1  Na   0.102868   0.378864
     2  Na  -0.035756   0.171517
     3  Na   0.405628   0.075138
     4  Na  -1.233767  -0.230470
     5  Na   0.441823   0.172328
     6  Na   0.109245   0.167572
     7  Na   0.209959   0.265051
 Sum of Mulliken charges =  -0.00000   1.00000
 Mulliken charges and spin densities with hydrogens summed into heavy atoms:
               1          2
     1  Na   0.102868   0.378864
     2  Na  -0.035756   0.171517
     3  Na   0.405628   0.075138
     4  Na  -1.233767  -0.230470
     5  Na   0.441823   0.172328
     6  Na   0.109245   0.167572
     7  Na   0.209959   0.265051
 Electronic spatial extent (au):  <R**2>=           2021.4822
 Charge=             -0.0000 electrons
 Dipole moment (field-independent basis, Debye):
    X=             -0.3368    Y=              0.1228    Z=             -0.0168  Tot=              0.3589
 Quadrupole moment (field-independent basis, Debye-Ang):
   XX=            -58.6206   YY=            -69.5860   ZZ=            -63.9521
   XY=             -0.0667   XZ=             -1.0252   YZ=              1.5567
 Traceless Quadrupole moment (field-independent basis, Debye-Ang):
   XX=              5.4323   YY=             -5.5331   ZZ=              0.1008
   XY=             -0.0667   XZ=             -1.0252   YZ=              1.5567
 Octapole moment (field-independent basis, Debye-Ang**2):
  XXX=            -35.2372  YYY=              7.3207  ZZZ=              1.6889  XYY=             -2.8451
  XXY=             -6.7810  XXZ=            -15.9485  XZZ=              7.2562  YZZ=              1.4482
  YYZ=              6.7510  XYZ=             -2.9077
 Hexadecapole moment (field-independent basis, Debye-Ang**3):
 XXXX=          -1393.0884 YYYY=          -1102.7551 ZZZZ=           -836.9060 XXXY=             48.7425
 XXXZ=             57.5092 YYYX=            -57.2381 YYYZ=             32.9818 ZZZX=            -29.2678
 ZZZY=            -27.0529 XXYY=           -441.6692 XXZZ=           -387.2625 YYZZ=           -303.9932
 XXYZ=             25.6734 YYXZ=            -38.8880 ZZXY=             21.4193
 N-N= 3.732485988925D+02 E-N=-3.476107238514D+03  KE= 1.133254765054D+03
                          Isotropic Fermi Contact Couplings
        Atom                 a.u.       MegaHertz       Gauss      10(-4) cm-1
     1  Na(23)             0.14535     171.95766      61.35877      57.35890
     2  Na(23)             0.09737     115.19060      41.10287      38.42345
     3  Na(23)             0.17420     206.08376      73.53581      68.74214
     4  Na(23)             0.03565      42.18030      15.05098      14.06983
     5  Na(23)             0.18032     213.32021      76.11796      71.15596
     6  Na(23)             0.01317      15.57912       5.55902       5.19664
     7  Na(23)             0.13794     163.18152      58.22722      54.43150
 --------------------------------------------------------
       Center         ----  Spin Dipole Couplings  ----
                      3XX-RR        3YY-RR        3ZZ-RR
 --------------------------------------------------------
     1   Atom       -0.000453     -0.012015      0.012468
     2   Atom        0.002400     -0.004298      0.001898
     3   Atom        0.003296     -0.003034     -0.000262
     4   Atom       -0.021900     -0.039589      0.061489
     5   Atom       -0.002894      0.020055     -0.017161
     6   Atom       -0.027164     -0.018781      0.045945
     7   Atom       -0.003734      0.019078     -0.015344
 --------------------------------------------------------
                        XY            XZ            YZ
 --------------------------------------------------------
     1   Atom       -0.001386     -0.036308     -0.007590
     2   Atom       -0.014020      0.018003     -0.014092
     3   Atom       -0.000635     -0.007957     -0.001063
     4   Atom        0.005308      0.009984      0.024280
     5   Atom        0.013047      0.003764      0.008828
     6   Atom       -0.007149      0.006116     -0.026496
     7   Atom        0.018769      0.007769      0.012081
 --------------------------------------------------------


 ---------------------------------------------------------------------------------
              Anisotropic Spin Dipole Couplings in Principal Axis System
 ---------------------------------------------------------------------------------

       Atom             a.u.   MegaHertz   Gauss  10(-4) cm-1        Axes

              Baa    -0.0326    -4.605    -1.643    -1.536  0.7238  0.2810  0.6303
     1 Na(23) Bbb    -0.0107    -1.514    -0.540    -0.505 -0.2722  0.9555 -0.1134
              Bcc     0.0433     6.119     2.183     2.041 -0.6341 -0.0894  0.7680
 
              Baa    -0.0159    -2.247    -0.802    -0.749 -0.5594  0.2739  0.7823
     2 Na(23) Bbb    -0.0154    -2.168    -0.774    -0.723  0.5500  0.8288  0.1031
              Bcc     0.0313     4.415     1.575     1.473  0.6201 -0.4879  0.6143
 
              Baa    -0.0070    -0.991    -0.353    -0.330  0.5951  0.2946  0.7477
     3 Na(23) Bbb    -0.0027    -0.375    -0.134    -0.125 -0.1945  0.9555 -0.2217
              Bcc     0.0097     1.366     0.487     0.456  0.7797  0.0134 -0.6260
 
              Baa    -0.0455    -6.426    -2.293    -2.144 -0.1301  0.9695 -0.2079
     4 Na(23) Bbb    -0.0228    -3.224    -1.151    -1.076  0.9842  0.1008 -0.1456
              Bcc     0.0683     9.651     3.444     3.219  0.1202  0.2235  0.9673
 
              Baa    -0.0192    -2.712    -0.968    -0.905 -0.0678 -0.1974  0.9780
     5 Na(23) Bbb    -0.0088    -1.241    -0.443    -0.414  0.9131 -0.4072 -0.0189
              Bcc     0.0280     3.953     1.411     1.319  0.4020  0.8917  0.2078
 
              Baa    -0.0328    -4.626    -1.651    -1.543  0.6933  0.6976  0.1810
     6 Na(23) Bbb    -0.0234    -3.311    -1.182    -1.105  0.7140 -0.6308 -0.3038
              Bcc     0.0562     7.938     2.832     2.648  0.0978 -0.3398  0.9354
 
              Baa    -0.0196    -2.775    -0.990    -0.926 -0.2664 -0.1670  0.9493
     7 Na(23) Bbb    -0.0142    -2.001    -0.714    -0.667  0.8387 -0.5255  0.1430
              Bcc     0.0338     4.776     1.704     1.593  0.4749  0.8343  0.2801
 

 ---------------------------------------------------------------------------------

 No NMR shielding tensors so no spin-rotation constants.
 Leave Link  601 at Mon Nov 13 20:12:06 2023, MaxMem=  1879048192 cpu:               2.5 elap:               0.2
 (Enter /home/sekinelabo/g16/l701.exe)
 ... and contract with generalized density number  0.
 Compute integral first derivatives.
 Leave Link  701 at Mon Nov 13 20:12:07 2023, MaxMem=  1879048192 cpu:               1.7 elap:               0.1
 (Enter /home/sekinelabo/g16/l702.exe)
 L702 exits ... SP integral derivatives will be done elsewhere.
 Leave Link  702 at Mon Nov 13 20:12:07 2023, MaxMem=  1879048192 cpu:               0.4 elap:               0.0
 (Enter /home/sekinelabo/g16/l703.exe)
 Integral derivatives from FoFJK, PRISM(SPDF).
 Compute integral first derivatives, UseDBF=F ICtDFT=           0.
 Calling FoFJK, ICntrl=      2127 FMM=F ISym2X=0 I1Cent= 0 IOpClX= 1 NMat=1 NMatS=1 NMatT=0.
 FoFJK:  IHMeth= 1 ICntrl=    2127 DoSepK=F KAlg= 0 I1Cent=           0 FoldK=F
 IRaf=         0 NMat=       1 IRICut=       1 DoRegI=T DoRafI=F ISym2E= 0 IDoP0=0 IntGTp=1.
 FoFCou: FMM=F IPFlag=           0 FMFlag=      100000 FMFlg1=         800
         NFxFlg=           0 DoJE=F BraDBF=F KetDBF=F FulRan=T
         wScrn=  0.000000 ICntrl=      2127 IOpCl=  1 I1Cent=           0 NGrid=           0
         NMat0=    1 NMatS0=      1 NMatT0=    0 NMatD0=    1 NMtDS0=    0 NMtDT0=    0
 Symmetry not used in FoFCou.
 Leave Link  703 at Mon Nov 13 20:12:09 2023, MaxMem=  1879048192 cpu:              37.3 elap:               2.4
 (Enter /home/sekinelabo/g16/l716.exe)
 Dipole        =-1.32517510D-01 4.83080489D-02-6.61809634D-03
 ***** Axes restored to original set *****
 -------------------------------------------------------------------
 Center     Atomic                   Forces (Hartrees/Bohr)
 Number     Number              X              Y              Z
 -------------------------------------------------------------------
      1       11          -0.012026564    0.008514316   -0.010866109
      2       11           0.005471968    0.007454809   -0.000001078
      3       11           0.001851650   -0.000209002   -0.002260864
      4       11           0.010968305   -0.000595234    0.008234384
      5       11          -0.005436142    0.011514721    0.010373677
      6       11          -0.009248711   -0.016962672    0.004585374
      7       11           0.008419495   -0.009716939   -0.010065385
 -------------------------------------------------------------------
 Cartesian Forces:  Max     0.016962672 RMS     0.008586913
 Z-matrix is all fixed cartesians, so copy forces.
 Force constants in Cartesian coordinates: 
                1             2             3             4             5 
      1  0.150275D+00
      2 -0.197759D-01  0.138472D+00
      3  0.262447D-01 -0.221478D-01  0.158059D+00
      4 -0.401477D-01 -0.224322D-01  0.154334D-02  0.598241D-01
      5  0.463781D-02 -0.217061D-01  0.752733D-02  0.141493D-01  0.597431D-01
      6 -0.176972D-01 -0.782610D-02 -0.189137D-01  0.381658D-02 -0.139844D-01
      7  0.788457D-03  0.612805D-03 -0.744120D-03  0.154750D-02 -0.112538D-03
      8  0.174559D-02  0.338061D-02 -0.755643D-03  0.647556D-02 -0.934028D-04
      9 -0.578306D-02  0.172243D-03  0.751426D-02 -0.431851D-02  0.118457D-02
     10 -0.481031D-01  0.246923D-02 -0.972131D-02 -0.306913D-01 -0.913252D-02
     11  0.124029D-01 -0.279530D-01  0.907367D-02  0.116906D-01 -0.332389D-01
     12 -0.132240D-01  0.224412D-02 -0.482501D-01 -0.106246D-01  0.354472D-02
     13 -0.141619D-01  0.313423D-02 -0.177097D-01 -0.106679D-02  0.821671D-03
     14  0.271120D-02 -0.165488D-01  0.141650D-01 -0.613345D-02  0.284314D-02
     15  0.124813D-01 -0.160483D-01 -0.500086D-01  0.380542D-02 -0.126032D-02
     16 -0.201633D-01  0.146451D-01 -0.143885D-01  0.667772D-02 -0.485801D-02
     17 -0.167265D-01 -0.410604D-01  0.107025D-01 -0.504747D-02 -0.560434D-03
     18  0.851555D-02  0.280271D-01 -0.295266D-01  0.476301D-02  0.838528D-03
     19 -0.284877D-01  0.213468D-01  0.147756D-01  0.385650D-02 -0.550571D-02
     20  0.150049D-01 -0.345839D-01 -0.185652D-01  0.129763D-02 -0.698740D-02
     21 -0.105373D-01  0.155787D-01 -0.188747D-01  0.101478D-02  0.214953D-02
                6             7             8             9            10 
      6  0.396942D-01
      7 -0.137410D-04  0.364535D-01
      8  0.524697D-03 -0.253443D-02  0.235141D-01
      9  0.138085D-02  0.954802D-03  0.430350D-03  0.261149D-01
     10  0.410655D-02 -0.377062D-01  0.135830D-02  0.119164D-01  0.240736D+00
     11  0.191358D-01 -0.304814D-03 -0.400348D-01 -0.320604D-02 -0.570856D-02
     12 -0.313870D-01  0.559023D-03 -0.842271D-03 -0.458965D-01  0.165132D-01
     13  0.697499D-02  0.889202D-04  0.211300D-02  0.376626D-02 -0.467391D-01
     14  0.773085D-02  0.626142D-03  0.362943D-02  0.580102D-03 -0.104944D-02
     15 -0.128130D-02 -0.328194D-03  0.148283D-02  0.750196D-02 -0.160101D-01
     16  0.480364D-02 -0.903791D-03 -0.490040D-02 -0.569602D-04 -0.477558D-01
     17  0.101409D-02  0.133259D-02  0.717384D-02 -0.348660D-04  0.300706D-02
     18  0.668981D-02 -0.241589D-03 -0.304187D-03  0.230390D-02 -0.158841D-01
     19 -0.199081D-02 -0.268397D-03 -0.425761D-02 -0.647892D-02 -0.297401D-01
     20 -0.659499D-02  0.380249D-03  0.243021D-02  0.873642D-03  0.905593D-02
     21  0.381711D-02 -0.186182D-03 -0.535773D-03  0.108062D-02  0.907945D-02
               11            12            13            14            15 
     11  0.197542D+00
     12  0.195675D-02  0.225212D+00
     13  0.150132D-01  0.178706D-01  0.662746D-01
     14 -0.291304D-01 -0.932628D-02 -0.813186D-02  0.794270D-01
     15 -0.348345D-02 -0.334449D-01 -0.164230D-01  0.234309D-01  0.944298D-01
     16 -0.222400D-01  0.670997D-02 -0.112916D-01  0.784609D-02  0.112193D-01
     17 -0.418862D-01  0.966797D-02 -0.169326D-01 -0.456459D-01  0.368251D-02
     18 -0.705159D-02 -0.239699D-01  0.290406D-03 -0.285293D-01 -0.171758D-01
     19 -0.108533D-01 -0.178042D-01  0.689589D-02  0.413132D-02  0.525527D-02
     20 -0.252988D-01 -0.724501D-02  0.398236D-02  0.542554D-02 -0.780415D-02
     21 -0.164251D-01 -0.422641D-01  0.523043D-02 -0.805129D-02 -0.211716D-04
               16            17            18            19            20 
     16  0.972236D-01
     17  0.277447D-01  0.140740D+00
     18 -0.240561D-01 -0.103785D-01  0.937510D-01
     19 -0.237868D-01  0.662221D-02  0.266128D-01  0.715306D-01
     20 -0.182374D-01 -0.187613D-01  0.173979D-01 -0.114836D-01  0.777757D-01
     21  0.157686D-01 -0.146538D-01 -0.320724D-01 -0.203698D-01  0.219378D-01
               21 
     21  0.883346D-01
 Leave Link  716 at Mon Nov 13 20:12:09 2023, MaxMem=  1879048192 cpu:               0.5 elap:               0.0
 (Enter /home/sekinelabo/g16/l103.exe)

 GradGradGradGradGradGradGradGradGradGradGradGradGradGradGradGradGradGrad
 Berny optimization.
 Search for a local minimum.
 Step number   1 out of a maximum of    2
 All quantities printed in internal units (Hartrees-Bohrs-Radians)
 Second derivative matrix not updated -- first step.
 ITU=  0
     Eigenvalues ---    0.03687   0.03774   0.03853   0.05901   0.07292
     Eigenvalues ---    0.07639   0.12399   0.14048   0.15779   0.18572
     Eigenvalues ---    0.18946   0.22118   0.25056   0.26555   0.30167
 Quadratic step=3.287D-01 exceeds max=3.000D-01 adjusted using Lamda=-7.615D-03.
 Angle between NR and scaled steps=   2.83 degrees.
 Angle between quadratic step and forces=  25.39 degrees.
 Linear search not attempted -- first point.
 B after Tr=     0.000000   -0.000000    0.000000
         Rot=    1.000000    0.000000   -0.000000    0.000000 Ang=   0.00 deg.
 Variable       Old X    -DE/DX   Delta X   Delta X   Delta X     New X
                                 (Linear)    (Quad)   (Total)
    X1        0.54299  -0.01203   0.00000  -0.05844  -0.05844   0.48455
    Y1        4.67615   0.00851   0.00000   0.03323   0.03323   4.70937
    Z1        1.26987  -0.01087   0.00000  -0.05480  -0.05480   1.21507
    X2        5.16302   0.00547   0.00000   0.05813   0.05813   5.22115
    Y2        7.96327   0.00745   0.00000   0.10959   0.10959   8.07286
    Z2        1.52701  -0.00000   0.00000   0.01131   0.01131   1.53833
    X3       10.40522   0.00185   0.00000   0.07667   0.07667  10.48189
    Y3        2.17183  -0.00021   0.00000  -0.00580  -0.00580   2.16604
    Z3        5.06096  -0.00226   0.00000  -0.02980  -0.02980   5.03117
    X4        4.84423   0.01097   0.00000   0.04116   0.04116   4.88540
    Y4        3.20265  -0.00060   0.00000  -0.00591  -0.00591   3.19674
    Z4        4.61393   0.00823   0.00000   0.03293   0.03293   4.64686
    X5        0.00000  -0.00544   0.00000  -0.08367  -0.08367  -0.08367
    Y5        5.08888   0.01151   0.00000   0.08300   0.08300   5.17188
    Z5        6.90006   0.01037   0.00000   0.07955   0.07955   6.97961
    X6        0.16597  -0.00925   0.00000  -0.08403  -0.08403   0.08194
    Y6        0.00000  -0.01696   0.00000  -0.10184  -0.10184  -0.10184
    Z6        4.44980   0.00459   0.00000   0.02680   0.02680   4.47660
    X7        3.65705   0.00842   0.00000   0.05018   0.05018   3.70723
    Y7        0.10555  -0.00972   0.00000  -0.11227  -0.11227  -0.00671
    Z7        0.00000  -0.01007   0.00000  -0.06599  -0.06599  -0.06599
         Item               Value     Threshold  Converged?
 Maximum Force            0.016963     0.000450     NO 
 RMS     Force            0.008587     0.000300     NO 
 Maximum Displacement     0.112266     0.001800     NO 
 RMS     Displacement     0.065646     0.001200     NO 
 Predicted change in Energy=-5.691493D-03
 GradGradGradGradGradGradGradGradGradGradGradGradGradGradGradGradGradGrad

 Leave Link  103 at Mon Nov 13 20:12:09 2023, MaxMem=  1879048192 cpu:               0.4 elap:               0.0
 (Enter /home/sekinelabo/g16/l9999.exe)
 1\1\GINC-SEKINELABO-XA7R-R37\Force\UB3LYP\6-311+G(d)\Na7(2)\SEKINELABO
 \13-Nov-2023\0\\#P B3LYP/6-311+g(d) force\\Gaussian input prepared by 
 ASE\\0,2\Na,0.2873371244,2.474510571,0.6719866083\Na,2.7321550241,4.21
 39792258,0.8080602515\Na,5.5062065942,1.1492854955,2.6781458861\Na,2.5
 634579494,1.6947719413,2.4415872206\Na,0.,2.6929179901,3.6513553207\Na
 ,0.0878262923,0.,2.3547333996\Na,1.9352268617,0.0558563231,0.\\Version
 =ES64L-G16RevB.01\State=2-A\HF=-1136.0990731\S2=0.772356\S2-1=0.\S2A=0
 .750336\RMSD=4.855e-09\RMSF=8.587e-03\Dipole=0.1325175,0.048308,0.0066
 181\Quadrupole=4.0387931,-4.1137115,0.0749184,0.049584,-0.7622044,-1.1
 573479\PG=C01 [X(Na7)]\\@


 The number of Unix installations has grown to 10,
  with more expected.
                  -- The Unix Programmer's Manual,
                     2nd Edition, June, 1972.
 Job cpu time:       0 days  0 hours  4 minutes 44.7 seconds.
 Elapsed time:       0 days  0 hours  0 minutes 23.3 seconds.
 File lengths (MBytes):  RWF=     32 Int=      0 D2E=      0 Chk=      6 Scr=      1
 Normal termination of Gaussian 16 at Mon Nov 13 20:12:09 2023.
