 Entering Gaussian System, Link 0=g16
 Initial command:
 /home/sekinelabo/g16/l1.exe "/home/sekinelabo/g16temp/Gau-3999917.inp" -scrdir="/home/sekinelabo/g16temp/"
 Entering Link 1 = /home/sekinelabo/g16/l1.exe PID=   3999919.
  
 Copyright (c) 1988-2017, Gaussian, Inc.  All Rights Reserved.
  
 This is part of the Gaussian(R) 16 program.  It is based on
 the Gaussian(R) 09 system (copyright 2009, Gaussian, Inc.),
 the Gaussian(R) 03 system (copyright 2003, Gaussian, Inc.),
 the Gaussian(R) 98 system (copyright 1998, Gaussian, Inc.),
 the Gaussian(R) 94 system (copyright 1995, Gaussian, Inc.),
 the Gaussian 92(TM) system (copyright 1992, Gaussian, Inc.),
 the Gaussian 90(TM) system (copyright 1990, Gaussian, Inc.),
 the Gaussian 88(TM) system (copyright 1988, Gaussian, Inc.),
 the Gaussian 86(TM) system (copyright 1986, Carnegie Mellon
 University), and the Gaussian 82(TM) system (copyright 1983,
 Carnegie Mellon University). Gaussian is a federally registered
 trademark of Gaussian, Inc.
  
 This software contains proprietary and confidential information,
 including trade secrets, belonging to Gaussian, Inc.
  
 This software is provided under written license and may be
 used, copied, transmitted, or stored only in accord with that
 written license.
  
 The following legend is applicable only to US Government
 contracts under FAR:
  
                    RESTRICTED RIGHTS LEGEND
  
 Use, reproduction and disclosure by the US Government is
 subject to restrictions as set forth in subparagraphs (a)
 and (c) of the Commercial Computer Software - Restricted
 Rights clause in FAR 52.227-19.
  
 Gaussian, Inc.
 340 Quinnipiac St., Bldg. 40, Wallingford CT 06492
  
  
 ---------------------------------------------------------------
 Warning -- This program may not be used in any manner that
 competes with the business of Gaussian, Inc. or will provide
 assistance to any competitor of Gaussian, Inc.  The licensee
 of this program is prohibited from giving any competitor of
 Gaussian, Inc. access to this program.  By using this program,
 the user acknowledges that Gaussian, Inc. is engaged in the
 business of creating and licensing software in the field of
 computational chemistry and represents and warrants to the
 licensee that it is not a competitor of Gaussian, Inc. and that
 it will not use this program in any manner prohibited above.
 ---------------------------------------------------------------
  

 Cite this work as:
 Gaussian 16, Revision B.01,
 M. J. Frisch, G. W. Trucks, H. B. Schlegel, G. E. Scuseria, 
 M. A. Robb, J. R. Cheeseman, G. Scalmani, V. Barone, 
 G. A. Petersson, H. Nakatsuji, X. Li, M. Caricato, A. V. Marenich, 
 J. Bloino, B. G. Janesko, R. Gomperts, B. Mennucci, H. P. Hratchian, 
 J. V. Ortiz, A. F. Izmaylov, J. L. Sonnenberg, D. Williams-Young, 
 F. Ding, F. Lipparini, F. Egidi, J. Goings, B. Peng, A. Petrone, 
 T. Henderson, D. Ranasinghe, V. G. Zakrzewski, J. Gao, N. Rega, 
 G. Zheng, W. Liang, M. Hada, M. Ehara, K. Toyota, R. Fukuda, 
 J. Hasegawa, M. Ishida, T. Nakajima, Y. Honda, O. Kitao, H. Nakai, 
 T. Vreven, K. Throssell, J. A. Montgomery, Jr., J. E. Peralta, 
 F. Ogliaro, M. J. Bearpark, J. J. Heyd, E. N. Brothers, K. N. Kudin, 
 V. N. Staroverov, T. A. Keith, R. Kobayashi, J. Normand, 
 K. Raghavachari, A. P. Rendell, J. C. Burant, S. S. Iyengar, 
 J. Tomasi, M. Cossi, J. M. Millam, M. Klene, C. Adamo, R. Cammi, 
 J. W. Ochterski, R. L. Martin, K. Morokuma, O. Farkas, 
 J. B. Foresman, and D. J. Fox, Gaussian, Inc., Wallingford CT, 2016.
 
 ******************************************
 Gaussian 16:  ES64L-G16RevB.01 20-Dec-2017
                13-Nov-2023 
 ******************************************
 %mem=14GB
 %chk=checkpoint.chk
 %nprocshared=16
 Will use up to   16 processors via shared memory.
 -------------------------
 #P B3LYP/6-311+g(d) force
 -------------------------
 1/10=7,30=1,38=1/1,3;
 2/12=2,17=6,18=5,40=1/2;
 3/5=4,6=6,7=11,11=2,25=1,30=1,71=1,74=-5/1,2,3;
 4//1;
 5/5=2,38=5/2;
 6/7=2,8=2,9=2,10=2,28=1/1;
 7/29=1/1,2,3,16;
 1/10=7,30=1/3;
 99//99;
 Leave Link    1 at Mon Nov 13 14:59:25 2023, MaxMem=  1879048192 cpu:               0.3 elap:               0.0
 (Enter /home/sekinelabo/g16/l101.exe)
 ------------------------------
 Gaussian input prepared by ASE
 ------------------------------
 Symbolic Z-matrix:
 Charge =  0 Multiplicity = 2
 Na                    2.96975   1.85172   0.93656 
 Na                    5.36847   0.26964   0.0766 
 Na                    5.73393   2.87389   1.51516 
 Na                    3.33929   4.4229    2.43989 
 Na                    1.59609   4.34742   0. 
 Na                    0.        1.86033   0.50296 
 Na                    1.21116   0.        2.51906 
 
 ITRead=  0  0  0  0  0  0  0
 MicOpt= -1 -1 -1 -1 -1 -1 -1
 NAtoms=      7 NQM=        7 NQMF=       0 NMMI=      0 NMMIF=      0
                NMic=       0 NMicF=      0.
                    Isotopes and Nuclear Properties:
 (Nuclear quadrupole moments (NQMom) in fm**2, nuclear magnetic moments (NMagM)
  in nuclear magnetons)

  Atom         1           2           3           4           5           6           7
 IAtWgt=          23          23          23          23          23          23          23
 AtmWgt=  22.9897697  22.9897697  22.9897697  22.9897697  22.9897697  22.9897697  22.9897697
 NucSpn=           3           3           3           3           3           3           3
 AtZEff=  -0.0000000  -0.0000000  -0.0000000  -0.0000000  -0.0000000  -0.0000000  -0.0000000
 NQMom=   10.4000000  10.4000000  10.4000000  10.4000000  10.4000000  10.4000000  10.4000000
 NMagM=    2.2175200   2.2175200   2.2175200   2.2175200   2.2175200   2.2175200   2.2175200
 AtZNuc=  11.0000000  11.0000000  11.0000000  11.0000000  11.0000000  11.0000000  11.0000000
 Leave Link  101 at Mon Nov 13 14:59:26 2023, MaxMem=  1879048192 cpu:               2.6 elap:               0.2
 (Enter /home/sekinelabo/g16/l103.exe)

 GradGradGradGradGradGradGradGradGradGradGradGradGradGradGradGradGradGrad
 Berny optimization.
 Initialization pass.
 Trust Radius=3.00D-01 FncErr=1.00D-07 GrdErr=1.00D-07 EigMax=2.50D+02 EigMin=1.00D-04
 Number of steps in this run=      2 maximum allowed number of steps=      2.
 GradGradGradGradGradGradGradGradGradGradGradGradGradGradGradGradGradGrad

 Leave Link  103 at Mon Nov 13 14:59:26 2023, MaxMem=  1879048192 cpu:               0.3 elap:               0.0
 (Enter /home/sekinelabo/g16/l202.exe)
                          Input orientation:                          
 ---------------------------------------------------------------------
 Center     Atomic      Atomic             Coordinates (Angstroms)
 Number     Number       Type             X           Y           Z
 ---------------------------------------------------------------------
      1         11           0        2.969745    1.851719    0.936556
      2         11           0        5.368468    0.269643    0.076596
      3         11           0        5.733928    2.873888    1.515157
      4         11           0        3.339288    4.422900    2.439886
      5         11           0        1.596092    4.347422    0.000000
      6         11           0        0.000000    1.860328    0.502963
      7         11           0        1.211164    0.000000    2.519058
 ---------------------------------------------------------------------
                    Distance matrix (angstroms):
                    1          2          3          4          5
     1  Na   0.000000
     2  Na   2.999394   0.000000
     3  Na   3.003383   2.997518   0.000000
     4  Na   3.001255   5.191556   2.998143   0.000000
     5  Na   2.998766   5.555626   4.646363   2.999579   0.000000
     6  Na   3.001244   5.615382   5.910141   4.633496   2.997686
     7  Na   3.004295   4.829235   5.451830   4.908893   5.039237
                    6          7
     6  Na   0.000000
     7  Na   2.998729   0.000000
 Stoichiometry    Na7(2)
 Framework group  C1[X(Na7)]
 Deg. of freedom    15
 Full point group                 C1      NOp   1
 Largest Abelian subgroup         C1      NOp   1
 Largest concise Abelian subgroup C1      NOp   1
                         Standard orientation:                         
 ---------------------------------------------------------------------
 Center     Atomic      Atomic             Coordinates (Angstroms)
 Number     Number       Type             X           Y           Z
 ---------------------------------------------------------------------
      1         11           0        0.081362   -0.380552   -0.204904
      2         11           0        2.480084   -1.962629   -1.064864
      3         11           0        2.845544    0.641617    0.373698
      4         11           0        0.450905    2.190628    1.298426
      5         11           0       -1.292292    2.115151   -1.141459
      6         11           0       -2.888384   -0.371944   -0.638496
      7         11           0       -1.677220   -2.232272    1.377599
 ---------------------------------------------------------------------
 Rotational constants (GHZ):           0.8650427           0.6485823           0.4769925
 Leave Link  202 at Mon Nov 13 14:59:26 2023, MaxMem=  1879048192 cpu:               0.0 elap:               0.0
 (Enter /home/sekinelabo/g16/l301.exe)
 Standard basis: 6-311+G(d) (5D, 7F)
 Ernie: Thresh=  0.10000D-02 Tol=  0.10000D-05 Strict=F.
 There are   217 symmetry adapted cartesian basis functions of A   symmetry.
 There are   210 symmetry adapted basis functions of A   symmetry.
   210 basis functions,   350 primitive gaussians,   217 cartesian basis functions
    39 alpha electrons       38 beta electrons
       nuclear repulsion energy       359.2276902091 Hartrees.
 IExCor=  402 DFT=T Ex+Corr=B3LYP ExCW=0 ScaHFX=  0.200000
 ScaDFX=  0.800000  0.720000  1.000000  0.810000 ScalE2=  1.000000  1.000000
 IRadAn=      5 IRanWt=     -1 IRanGd=            0 ICorTp=0 IEmpDi=  4
 NAtoms=    7 NActive=    7 NUniq=    7 SFac= 1.00D+00 NAtFMM=   60 NAOKFM=F Big=F
 Integral buffers will be    131072 words long.
 Raffenetti 2 integral format.
 Two-electron integral symmetry is turned on.
 Leave Link  301 at Mon Nov 13 14:59:26 2023, MaxMem=  1879048192 cpu:               0.5 elap:               0.0
 (Enter /home/sekinelabo/g16/l302.exe)
 NPDir=0 NMtPBC=     1 NCelOv=     1 NCel=       1 NClECP=     1 NCelD=      1
         NCelK=      1 NCelE2=     1 NClLst=     1 CellRange=     0.0.
 One-electron integrals computed using PRISM.
 One-electron integral symmetry used in STVInt
 NBasis=   210 RedAO= T EigKep=  1.08D-06  NBF=   210
 NBsUse=   210 1.00D-06 EigRej= -1.00D+00 NBFU=   210
 Precomputing XC quadrature grid using
 IXCGrd= 4 IRadAn=           5 IRanWt=          -1 IRanGd=           0 AccXCQ= 0.00D+00.
 Generated NRdTot=       0 NPtTot=           0 NUsed=           0 NTot=          32
 NSgBfM=   212   212   212   212   212 MxSgAt=     7 MxSgA2=     7.
 Leave Link  302 at Mon Nov 13 14:59:26 2023, MaxMem=  1879048192 cpu:               2.1 elap:               0.1
 (Enter /home/sekinelabo/g16/l303.exe)
 DipDrv:  MaxL=1.
 Leave Link  303 at Mon Nov 13 14:59:26 2023, MaxMem=  1879048192 cpu:               0.6 elap:               0.0
 (Enter /home/sekinelabo/g16/l401.exe)
 ExpMin= 7.60D-03 ExpMax= 3.62D+04 ExpMxC= 1.21D+03 IAcc=3 IRadAn=         5 AccDes= 0.00D+00
 Harris functional with IExCor=  402 and IRadAn=       5 diagonalized for initial guess.
 HarFok:  IExCor=  402 AccDes= 0.00D+00 IRadAn=         5 IDoV= 1 UseB2=F ITyADJ=14
 ICtDFT=  3500011 ScaDFX=  1.000000  1.000000  1.000000  1.000000
 FoFCou: FMM=F IPFlag=           0 FMFlag=      100000 FMFlg1=           0
         NFxFlg=           0 DoJE=T BraDBF=F KetDBF=T FulRan=T
         wScrn=  0.000000 ICntrl=       500 IOpCl=  0 I1Cent=   200000004 NGrid=           0
         NMat0=    1 NMatS0=      1 NMatT0=    0 NMatD0=    1 NMtDS0=    0 NMtDT0=    0
 Petite list used in FoFCou.
 Harris En= -1135.87712495675    
 JPrj=0 DoOrth=F DoCkMO=F.
 Initial guess <Sx>= 0.0000 <Sy>= 0.0000 <Sz>= 0.5000 <S**2>= 0.7500 S= 0.5000
 Leave Link  401 at Mon Nov 13 14:59:26 2023, MaxMem=  1879048192 cpu:               5.4 elap:               0.3
 (Enter /home/sekinelabo/g16/l502.exe)
 Keep R1 and R2 ints in memory in canonical form, NReq=507620388.
 FoFCou: FMM=F IPFlag=           0 FMFlag=           0 FMFlg1=           0
         NFxFlg=           0 DoJE=F BraDBF=F KetDBF=F FulRan=T
         wScrn=  0.000000 ICntrl=       600 IOpCl=  0 I1Cent=           0 NGrid=           0
         NMat0=    1 NMatS0=  22155 NMatT0=    0 NMatD0=    1 NMtDS0=    0 NMtDT0=    0
 Symmetry not used in FoFCou.
 Two-electron integral symmetry not used.
 UHF open shell SCF:
 Using DIIS extrapolation, IDIIS=  1040.
 NGot=  1879048192 LenX=  1388082348 LenY=  1388034818
 Requested convergence on RMS density matrix=1.00D-08 within 128 cycles.
 Requested convergence on MAX density matrix=1.00D-06.
 Requested convergence on             energy=1.00D-06.
 No special actions if energy rises.

 Cycle   1  Pass 1  IDiag  1:
 E= -1136.06530009129    
 DIIS: error= 1.17D-02 at cycle   1 NSaved=   1.
 NSaved= 1 IEnMin= 1 EnMin= -1136.06530009129     IErMin= 1 ErrMin= 1.17D-02
 ErrMax= 1.17D-02  0.00D+00 EMaxC= 1.00D-01 BMatC= 1.97D-01 BMatP= 1.97D-01
 IDIUse=3 WtCom= 8.83D-01 WtEn= 1.17D-01
 Coeff-Com:  0.100D+01
 Coeff-En:   0.100D+01
 Coeff:      0.100D+01
 Gap=     0.042 Goal=   None    Shift=    0.000
 Gap=     0.048 Goal=   None    Shift=    0.000
 GapD=    0.042 DampG=0.250 DampE=0.500 DampFc=0.2500 IDamp=-1.
 Damping current iteration by 2.50D-01
 RMSDP=8.87D-02 MaxDP=6.56D+00              OVMax= 2.42D-01

 Cycle   2  Pass 1  IDiag  1:
 E= -1136.07940231865     Delta-E=       -0.014102227358 Rises=F Damp=T
 DIIS: error= 8.18D-03 at cycle   2 NSaved=   2.
 NSaved= 2 IEnMin= 2 EnMin= -1136.07940231865     IErMin= 2 ErrMin= 8.18D-03
 ErrMax= 8.18D-03  0.00D+00 EMaxC= 1.00D-01 BMatC= 7.45D-02 BMatP= 1.97D-01
 IDIUse=3 WtCom= 9.18D-01 WtEn= 8.18D-02
 Coeff-Com: -0.125D+01 0.225D+01
 Coeff-En:   0.000D+00 0.100D+01
 Coeff:     -0.115D+01 0.215D+01
 Gap=     0.052 Goal=   None    Shift=    0.000
 Gap=     0.052 Goal=   None    Shift=    0.000
 RMSDP=3.98D-02 MaxDP=2.92D+00 DE=-1.41D-02 OVMax= 1.72D-01

 Cycle   3  Pass 1  IDiag  1:
 E= -1136.10238838188     Delta-E=       -0.022986063232 Rises=F Damp=F
 DIIS: error= 3.59D-03 at cycle   3 NSaved=   3.
 NSaved= 3 IEnMin= 3 EnMin= -1136.10238838188     IErMin= 3 ErrMin= 3.59D-03
 ErrMax= 3.59D-03  0.00D+00 EMaxC= 1.00D-01 BMatC= 4.28D-03 BMatP= 7.45D-02
 IDIUse=3 WtCom= 9.64D-01 WtEn= 3.59D-02
 Coeff-Com: -0.291D+00 0.516D+00 0.775D+00
 Coeff-En:   0.000D+00 0.000D+00 0.100D+01
 Coeff:     -0.281D+00 0.498D+00 0.783D+00
 Gap=     0.049 Goal=   None    Shift=    0.000
 Gap=     0.050 Goal=   None    Shift=    0.000
 RMSDP=1.58D-02 MaxDP=1.09D+00 DE=-2.30D-02 OVMax= 6.60D-02

 Cycle   4  Pass 1  IDiag  1:
 E= -1136.10335697606     Delta-E=       -0.000968594181 Rises=F Damp=F
 DIIS: error= 3.12D-03 at cycle   4 NSaved=   4.
 NSaved= 4 IEnMin= 4 EnMin= -1136.10335697606     IErMin= 4 ErrMin= 3.12D-03
 ErrMax= 3.12D-03  0.00D+00 EMaxC= 1.00D-01 BMatC= 2.91D-03 BMatP= 4.28D-03
 IDIUse=3 WtCom= 9.69D-01 WtEn= 3.12D-02
 Coeff-Com: -0.731D-02 0.922D-02 0.451D+00 0.547D+00
 Coeff-En:   0.000D+00 0.000D+00 0.409D+00 0.591D+00
 Coeff:     -0.708D-02 0.893D-02 0.450D+00 0.548D+00
 Gap=     0.051 Goal=   None    Shift=    0.000
 Gap=     0.051 Goal=   None    Shift=    0.000
 RMSDP=5.36D-03 MaxDP=4.26D-01 DE=-9.69D-04 OVMax= 3.22D-02

 Cycle   5  Pass 1  IDiag  1:
 E= -1136.10522883006     Delta-E=       -0.001871853999 Rises=F Damp=F
 DIIS: error= 1.92D-04 at cycle   5 NSaved=   5.
 NSaved= 5 IEnMin= 5 EnMin= -1136.10522883006     IErMin= 5 ErrMin= 1.92D-04
 ErrMax= 1.92D-04  0.00D+00 EMaxC= 1.00D-01 BMatC= 7.02D-06 BMatP= 2.91D-03
 IDIUse=3 WtCom= 9.98D-01 WtEn= 1.92D-03
 Coeff-Com: -0.361D-02 0.418D-02 0.709D-01 0.935D-01 0.835D+00
 Coeff-En:   0.000D+00 0.000D+00 0.000D+00 0.000D+00 0.100D+01
 Coeff:     -0.360D-02 0.417D-02 0.707D-01 0.933D-01 0.835D+00
 Gap=     0.051 Goal=   None    Shift=    0.000
 Gap=     0.051 Goal=   None    Shift=    0.000
 RMSDP=6.34D-04 MaxDP=3.95D-02 DE=-1.87D-03 OVMax= 7.58D-03

 Cycle   6  Pass 1  IDiag  1:
 E= -1136.10523979597     Delta-E=       -0.000010965909 Rises=F Damp=F
 DIIS: error= 1.61D-04 at cycle   6 NSaved=   6.
 NSaved= 6 IEnMin= 6 EnMin= -1136.10523979597     IErMin= 6 ErrMin= 1.61D-04
 ErrMax= 1.61D-04  0.00D+00 EMaxC= 1.00D-01 BMatC= 6.62D-06 BMatP= 7.02D-06
 IDIUse=3 WtCom= 9.98D-01 WtEn= 1.61D-03
 Coeff-Com: -0.102D-02 0.104D-02-0.771D-01-0.876D-01 0.552D+00 0.612D+00
 Coeff-En:   0.000D+00 0.000D+00 0.000D+00 0.000D+00 0.000D+00 0.100D+01
 Coeff:     -0.102D-02 0.104D-02-0.770D-01-0.875D-01 0.551D+00 0.613D+00
 Gap=     0.051 Goal=   None    Shift=    0.000
 Gap=     0.051 Goal=   None    Shift=    0.000
 RMSDP=4.38D-04 MaxDP=4.15D-02 DE=-1.10D-05 OVMax= 5.58D-03

 Cycle   7  Pass 1  IDiag  1:
 E= -1136.10525148327     Delta-E=       -0.000011687300 Rises=F Damp=F
 DIIS: error= 5.52D-05 at cycle   7 NSaved=   7.
 NSaved= 7 IEnMin= 7 EnMin= -1136.10525148327     IErMin= 7 ErrMin= 5.52D-05
 ErrMax= 5.52D-05  0.00D+00 EMaxC= 1.00D-01 BMatC= 5.45D-07 BMatP= 6.62D-06
 IDIUse=1 WtCom= 1.00D+00 WtEn= 0.00D+00
 Coeff-Com:  0.181D-02-0.237D-02-0.234D-01-0.296D-01-0.187D+00 0.673D-01
 Coeff-Com:  0.117D+01
 Coeff:      0.181D-02-0.237D-02-0.234D-01-0.296D-01-0.187D+00 0.673D-01
 Coeff:      0.117D+01
 Gap=     0.051 Goal=   None    Shift=    0.000
 Gap=     0.052 Goal=   None    Shift=    0.000
 RMSDP=2.89D-04 MaxDP=2.27D-02 DE=-1.17D-05 OVMax= 3.46D-03

 Cycle   8  Pass 1  IDiag  1:
 E= -1136.10525442629     Delta-E=       -0.000002943018 Rises=F Damp=F
 DIIS: error= 2.20D-05 at cycle   8 NSaved=   8.
 NSaved= 8 IEnMin= 8 EnMin= -1136.10525442629     IErMin= 8 ErrMin= 2.20D-05
 ErrMax= 2.20D-05  0.00D+00 EMaxC= 1.00D-01 BMatC= 1.59D-07 BMatP= 5.45D-07
 IDIUse=1 WtCom= 1.00D+00 WtEn= 0.00D+00
 Coeff-Com:  0.145D-02-0.186D-02 0.103D-02-0.140D-02-0.153D+00-0.609D-01
 Coeff-Com:  0.461D+00 0.754D+00
 Coeff:      0.145D-02-0.186D-02 0.103D-02-0.140D-02-0.153D+00-0.609D-01
 Coeff:      0.461D+00 0.754D+00
 Gap=     0.051 Goal=   None    Shift=    0.000
 Gap=     0.052 Goal=   None    Shift=    0.000
 RMSDP=9.00D-05 MaxDP=5.44D-03 DE=-2.94D-06 OVMax= 1.36D-03

 Cycle   9  Pass 1  IDiag  1:
 E= -1136.10525487583     Delta-E=       -0.000000449544 Rises=F Damp=F
 DIIS: error= 1.36D-05 at cycle   9 NSaved=   9.
 NSaved= 9 IEnMin= 9 EnMin= -1136.10525487583     IErMin= 9 ErrMin= 1.36D-05
 ErrMax= 1.36D-05  0.00D+00 EMaxC= 1.00D-01 BMatC= 6.63D-08 BMatP= 1.59D-07
 IDIUse=1 WtCom= 1.00D+00 WtEn= 0.00D+00
 Coeff-Com:  0.543D-03-0.689D-03 0.712D-02 0.674D-02-0.464D-01-0.586D-01
 Coeff-Com: -0.198D-01 0.450D+00 0.661D+00
 Coeff:      0.543D-03-0.689D-03 0.712D-02 0.674D-02-0.464D-01-0.586D-01
 Coeff:     -0.198D-01 0.450D+00 0.661D+00
 Gap=     0.051 Goal=   None    Shift=    0.000
 Gap=     0.052 Goal=   None    Shift=    0.000
 RMSDP=5.00D-05 MaxDP=2.81D-03 DE=-4.50D-07 OVMax= 6.61D-04

 Cycle  10  Pass 1  IDiag  1:
 E= -1136.10525504036     Delta-E=       -0.000000164526 Rises=F Damp=F
 DIIS: error= 7.32D-06 at cycle  10 NSaved=  10.
 NSaved=10 IEnMin=10 EnMin= -1136.10525504036     IErMin=10 ErrMin= 7.32D-06
 ErrMax= 7.32D-06  0.00D+00 EMaxC= 1.00D-01 BMatC= 1.29D-08 BMatP= 6.63D-08
 IDIUse=1 WtCom= 1.00D+00 WtEn= 0.00D+00
 Coeff-Com: -0.253D-03 0.338D-03 0.312D-02 0.359D-02 0.258D-01-0.101D-01
 Coeff-Com: -0.144D+00-0.321D-01 0.281D+00 0.873D+00
 Coeff:     -0.253D-03 0.338D-03 0.312D-02 0.359D-02 0.258D-01-0.101D-01
 Coeff:     -0.144D+00-0.321D-01 0.281D+00 0.873D+00
 Gap=     0.051 Goal=   None    Shift=    0.000
 Gap=     0.052 Goal=   None    Shift=    0.000
 RMSDP=3.85D-05 MaxDP=3.33D-03 DE=-1.65D-07 OVMax= 4.89D-04

 Cycle  11  Pass 1  IDiag  1:
 E= -1136.10525508898     Delta-E=       -0.000000048624 Rises=F Damp=F
 DIIS: error= 3.55D-06 at cycle  11 NSaved=  11.
 NSaved=11 IEnMin=11 EnMin= -1136.10525508898     IErMin=11 ErrMin= 3.55D-06
 ErrMax= 3.55D-06  0.00D+00 EMaxC= 1.00D-01 BMatC= 5.78D-09 BMatP= 1.29D-08
 IDIUse=1 WtCom= 1.00D+00 WtEn= 0.00D+00
 Coeff-Com: -0.379D-03 0.493D-03-0.442D-03 0.263D-04 0.314D-01 0.130D-01
 Coeff-Com: -0.803D-01-0.173D+00-0.581D-01 0.551D+00 0.717D+00
 Coeff:     -0.379D-03 0.493D-03-0.442D-03 0.263D-04 0.314D-01 0.130D-01
 Coeff:     -0.803D-01-0.173D+00-0.581D-01 0.551D+00 0.717D+00
 Gap=     0.051 Goal=   None    Shift=    0.000
 Gap=     0.052 Goal=   None    Shift=    0.000
 RMSDP=2.10D-05 MaxDP=2.00D-03 DE=-4.86D-08 OVMax= 2.59D-04

 Cycle  12  Pass 1  IDiag  1:
 E= -1136.10525510453     Delta-E=       -0.000000015545 Rises=F Damp=F
 DIIS: error= 1.19D-06 at cycle  12 NSaved=  12.
 NSaved=12 IEnMin=12 EnMin= -1136.10525510453     IErMin=12 ErrMin= 1.19D-06
 ErrMax= 1.19D-06  0.00D+00 EMaxC= 1.00D-01 BMatC= 4.08D-10 BMatP= 5.78D-09
 IDIUse=1 WtCom= 1.00D+00 WtEn= 0.00D+00
 Coeff-Com: -0.314D-05 0.122D-05-0.361D-03-0.274D-03-0.201D-02 0.212D-02
 Coeff-Com:  0.186D-01-0.179D-01-0.624D-01-0.723D-01 0.101D+00 0.103D+01
 Coeff:     -0.314D-05 0.122D-05-0.361D-03-0.274D-03-0.201D-02 0.212D-02
 Coeff:      0.186D-01-0.179D-01-0.624D-01-0.723D-01 0.101D+00 0.103D+01
 Gap=     0.051 Goal=   None    Shift=    0.000
 Gap=     0.052 Goal=   None    Shift=    0.000
 RMSDP=7.97D-06 MaxDP=6.56D-04 DE=-1.55D-08 OVMax= 1.03D-04

 Cycle  13  Pass 1  IDiag  1:
 E= -1136.10525510680     Delta-E=       -0.000000002270 Rises=F Damp=F
 DIIS: error= 5.87D-07 at cycle  13 NSaved=  13.
 NSaved=13 IEnMin=13 EnMin= -1136.10525510680     IErMin=13 ErrMin= 5.87D-07
 ErrMax= 5.87D-07  0.00D+00 EMaxC= 1.00D-01 BMatC= 7.71D-11 BMatP= 4.08D-10
 IDIUse=1 WtCom= 1.00D+00 WtEn= 0.00D+00
 Coeff-Com:  0.624D-04-0.821D-04-0.630D-04-0.120D-03-0.527D-02-0.162D-02
 Coeff-Com:  0.172D-01 0.221D-01-0.197D-02-0.993D-01-0.110D+00 0.135D+00
 Coeff-Com:  0.104D+01
 Coeff:      0.624D-04-0.821D-04-0.630D-04-0.120D-03-0.527D-02-0.162D-02
 Coeff:      0.172D-01 0.221D-01-0.197D-02-0.993D-01-0.110D+00 0.135D+00
 Coeff:      0.104D+01
 Gap=     0.051 Goal=   None    Shift=    0.000
 Gap=     0.052 Goal=   None    Shift=    0.000
 RMSDP=3.26D-06 MaxDP=1.69D-04 DE=-2.27D-09 OVMax= 5.44D-05

 Cycle  14  Pass 1  IDiag  1:
 E= -1136.10525510725     Delta-E=       -0.000000000452 Rises=F Damp=F
 DIIS: error= 2.58D-07 at cycle  14 NSaved=  14.
 NSaved=14 IEnMin=14 EnMin= -1136.10525510725     IErMin=14 ErrMin= 2.58D-07
 ErrMax= 2.58D-07  0.00D+00 EMaxC= 1.00D-01 BMatC= 1.85D-11 BMatP= 7.71D-11
 IDIUse=1 WtCom= 1.00D+00 WtEn= 0.00D+00
 Coeff-Com:  0.192D-04-0.247D-04 0.398D-04-0.385D-05-0.920D-03-0.587D-03
 Coeff-Com: -0.318D-03 0.122D-01 0.127D-01-0.163D-01-0.500D-01-0.172D+00
 Coeff-Com:  0.267D+00 0.948D+00
 Coeff:      0.192D-04-0.247D-04 0.398D-04-0.385D-05-0.920D-03-0.587D-03
 Coeff:     -0.318D-03 0.122D-01 0.127D-01-0.163D-01-0.500D-01-0.172D+00
 Coeff:      0.267D+00 0.948D+00
 Gap=     0.051 Goal=   None    Shift=    0.000
 Gap=     0.052 Goal=   None    Shift=    0.000
 RMSDP=1.31D-06 MaxDP=7.71D-05 DE=-4.52D-10 OVMax= 1.91D-05

 Cycle  15  Pass 1  IDiag  1:
 E= -1136.10525510734     Delta-E=       -0.000000000089 Rises=F Damp=F
 DIIS: error= 8.77D-08 at cycle  15 NSaved=  15.
 NSaved=15 IEnMin=15 EnMin= -1136.10525510734     IErMin=15 ErrMin= 8.77D-08
 ErrMax= 8.77D-08  0.00D+00 EMaxC= 1.00D-01 BMatC= 2.32D-12 BMatP= 1.85D-11
 IDIUse=1 WtCom= 1.00D+00 WtEn= 0.00D+00
 Coeff-Com: -0.121D-04 0.160D-04 0.190D-04 0.256D-04 0.950D-03 0.122D-03
 Coeff-Com: -0.310D-02-0.335D-02 0.134D-02 0.189D-01 0.164D-01-0.396D-01
 Coeff-Com: -0.178D+00 0.900D-01 0.110D+01
 Coeff:     -0.121D-04 0.160D-04 0.190D-04 0.256D-04 0.950D-03 0.122D-03
 Coeff:     -0.310D-02-0.335D-02 0.134D-02 0.189D-01 0.164D-01-0.396D-01
 Coeff:     -0.178D+00 0.900D-01 0.110D+01
 Gap=     0.051 Goal=   None    Shift=    0.000
 Gap=     0.052 Goal=   None    Shift=    0.000
 RMSDP=5.61D-07 MaxDP=4.43D-05 DE=-8.91D-11 OVMax= 7.98D-06

 Cycle  16  Pass 1  IDiag  1:
 E= -1136.10525510735     Delta-E=       -0.000000000017 Rises=F Damp=F
 DIIS: error= 2.18D-08 at cycle  16 NSaved=  16.
 NSaved=16 IEnMin=16 EnMin= -1136.10525510735     IErMin=16 ErrMin= 2.18D-08
 ErrMax= 2.18D-08  0.00D+00 EMaxC= 1.00D-01 BMatC= 1.90D-13 BMatP= 2.32D-12
 IDIUse=1 WtCom= 1.00D+00 WtEn= 0.00D+00
 Coeff-Com: -0.193D-05 0.245D-05-0.923D-06 0.599D-05 0.564D-04-0.648D-06
 Coeff-Com:  0.125D-03-0.103D-02-0.131D-02 0.100D-02 0.413D-02 0.192D-01
 Coeff-Com: -0.258D-01-0.994D-01-0.158D-01 0.112D+01
 Coeff:     -0.193D-05 0.245D-05-0.923D-06 0.599D-05 0.564D-04-0.648D-06
 Coeff:      0.125D-03-0.103D-02-0.131D-02 0.100D-02 0.413D-02 0.192D-01
 Coeff:     -0.258D-01-0.994D-01-0.158D-01 0.112D+01
 Gap=     0.051 Goal=   None    Shift=    0.000
 Gap=     0.052 Goal=   None    Shift=    0.000
 RMSDP=1.88D-07 MaxDP=1.39D-05 DE=-1.73D-11 OVMax= 2.05D-06

 Cycle  17  Pass 1  IDiag  1:
 E= -1136.10525510735     Delta-E=        0.000000000007 Rises=F Damp=F
 DIIS: error= 1.19D-08 at cycle  17 NSaved=  17.
 NSaved=17 IEnMin=16 EnMin= -1136.10525510735     IErMin=17 ErrMin= 1.19D-08
 ErrMax= 1.19D-08  0.00D+00 EMaxC= 1.00D-01 BMatC= 2.67D-14 BMatP= 1.90D-13
 IDIUse=1 WtCom= 1.00D+00 WtEn= 0.00D+00
 Coeff-Com:  0.753D-06-0.102D-05-0.377D-05-0.324D-05-0.734D-04 0.146D-04
 Coeff-Com:  0.287D-03 0.124D-03-0.385D-03-0.151D-02-0.796D-03 0.629D-02
 Coeff-Com:  0.141D-01-0.207D-01-0.108D+00 0.134D+00 0.976D+00
 Coeff:      0.753D-06-0.102D-05-0.377D-05-0.324D-05-0.734D-04 0.146D-04
 Coeff:      0.287D-03 0.124D-03-0.385D-03-0.151D-02-0.796D-03 0.629D-02
 Coeff:      0.141D-01-0.207D-01-0.108D+00 0.134D+00 0.976D+00
 Gap=     0.051 Goal=   None    Shift=    0.000
 Gap=     0.052 Goal=   None    Shift=    0.000
 RMSDP=6.08D-08 MaxDP=7.15D-06 DE= 6.82D-12 OVMax= 6.90D-07

 Cycle  18  Pass 1  IDiag  1:
 E= -1136.10525510733     Delta-E=        0.000000000012 Rises=F Damp=F
 DIIS: error= 4.17D-09 at cycle  18 NSaved=  18.
 NSaved=18 IEnMin=16 EnMin= -1136.10525510735     IErMin=18 ErrMin= 4.17D-09
 ErrMax= 4.17D-09  0.00D+00 EMaxC= 1.00D-01 BMatC= 5.09D-15 BMatP= 2.67D-14
 IDIUse=1 WtCom= 1.00D+00 WtEn= 0.00D+00
 Coeff-Com:  0.456D-06-0.589D-06 0.461D-07-0.128D-05-0.131D-04-0.673D-05
 Coeff-Com:  0.230D-06 0.197D-03 0.208D-03-0.264D-03-0.822D-03-0.269D-02
 Coeff-Com:  0.463D-02 0.156D-01-0.207D-03-0.190D+00 0.868D-01 0.109D+01
 Coeff:      0.456D-06-0.589D-06 0.461D-07-0.128D-05-0.131D-04-0.673D-05
 Coeff:      0.230D-06 0.197D-03 0.208D-03-0.264D-03-0.822D-03-0.269D-02
 Coeff:      0.463D-02 0.156D-01-0.207D-03-0.190D+00 0.868D-01 0.109D+01
 Gap=     0.051 Goal=   None    Shift=    0.000
 Gap=     0.052 Goal=   None    Shift=    0.000
 RMSDP=4.09D-08 MaxDP=4.61D-06 DE= 1.23D-11 OVMax= 2.89D-07

 Cycle  19  Pass 1  IDiag  1:
 E= -1136.10525510734     Delta-E=       -0.000000000003 Rises=F Damp=F
 DIIS: error= 1.50D-09 at cycle  19 NSaved=  19.
 NSaved=19 IEnMin=16 EnMin= -1136.10525510735     IErMin=19 ErrMin= 1.50D-09
 ErrMax= 1.50D-09  0.00D+00 EMaxC= 1.00D-01 BMatC= 6.81D-16 BMatP= 5.09D-15
 IDIUse=1 WtCom= 1.00D+00 WtEn= 0.00D+00
 Large coefficients: NSaved= 19 BigCof=    0.00 CofMax=   10.00 Det=-1.79D-15
 Inversion failed.  Reducing to 18 matrices.
 Large coefficients: NSaved= 18 BigCof=    0.00 CofMax=   10.00 Det=-2.01D-15
 Inversion failed.  Reducing to 17 matrices.
 Large coefficients: NSaved= 17 BigCof=    0.00 CofMax=   10.00 Det=-2.04D-15
 Inversion failed.  Reducing to 16 matrices.
 Large coefficients: NSaved= 16 BigCof=    0.00 CofMax=   10.00 Det=-2.05D-15
 Inversion failed.  Reducing to 15 matrices.
 Coeff-Com: -0.101D-07-0.800D-06 0.438D-05-0.124D-04-0.114D-04 0.438D-04
 Coeff-Com:  0.478D-04-0.215D-03-0.528D-03 0.620D-03 0.460D-02-0.601D-02
 Coeff-Com: -0.120D+00 0.555D-01 0.107D+01
 Coeff:     -0.101D-07-0.800D-06 0.438D-05-0.124D-04-0.114D-04 0.438D-04
 Coeff:      0.478D-04-0.215D-03-0.528D-03 0.620D-03 0.460D-02-0.601D-02
 Coeff:     -0.120D+00 0.555D-01 0.107D+01
 Gap=     0.051 Goal=   None    Shift=    0.000
 Gap=     0.052 Goal=   None    Shift=    0.000
 RMSDP=2.55D-08 MaxDP=1.48D-06 DE=-3.18D-12 OVMax= 1.33D-07

 Cycle  20  Pass 1  IDiag  1:
 E= -1136.10525510734     Delta-E=       -0.000000000006 Rises=F Damp=F
 DIIS: error= 4.96D-10 at cycle  20 NSaved=  16.
 NSaved=16 IEnMin=12 EnMin= -1136.10525510735     IErMin=16 ErrMin= 4.96D-10
 ErrMax= 4.96D-10  0.00D+00 EMaxC= 1.00D-01 BMatC= 1.42D-16 BMatP= 6.81D-16
 IDIUse=1 WtCom= 1.00D+00 WtEn= 0.00D+00
 Large coefficients: NSaved= 16 BigCof=    0.00 CofMax=   10.00 Det=-4.09D-16
 Inversion failed.  Reducing to 15 matrices.
 Coeff-Com: -0.151D-06-0.266D-05 0.577D-06 0.111D-04 0.309D-04 0.190D-04
 Coeff-Com: -0.111D-03-0.557D-03-0.976D-04 0.401D-02 0.772D-02-0.374D-01
 Coeff-Com: -0.131D+00 0.224D+00 0.933D+00
 Coeff:     -0.151D-06-0.266D-05 0.577D-06 0.111D-04 0.309D-04 0.190D-04
 Coeff:     -0.111D-03-0.557D-03-0.976D-04 0.401D-02 0.772D-02-0.374D-01
 Coeff:     -0.131D+00 0.224D+00 0.933D+00
 Gap=     0.051 Goal=   None    Shift=    0.000
 Gap=     0.052 Goal=   None    Shift=    0.000
 RMSDP=1.37D-08 MaxDP=9.11D-07 DE=-5.91D-12 OVMax= 5.44D-08

 Cycle  21  Pass 1  IDiag  1:
 E= -1136.10525510736     Delta-E=       -0.000000000012 Rises=F Damp=F
 DIIS: error= 2.77D-10 at cycle  21 NSaved=  16.
 NSaved=16 IEnMin=16 EnMin= -1136.10525510736     IErMin=16 ErrMin= 2.77D-10
 ErrMax= 2.77D-10  0.00D+00 EMaxC= 1.00D-01 BMatC= 2.15D-17 BMatP= 1.42D-16
 IDIUse=1 WtCom= 1.00D+00 WtEn= 0.00D+00
 Large coefficients: NSaved= 16 BigCof=    0.00 CofMax=   10.00 Det=-5.20D-17
 Inversion failed.  Reducing to 15 matrices.
 Coeff-Com:  0.221D-05-0.434D-05-0.108D-04-0.136D-04 0.151D-04 0.197D-03
 Coeff-Com:  0.306D-04-0.702D-03-0.167D-02 0.698D-02 0.170D-01-0.173D-01
 Coeff-Com: -0.167D+00 0.222D-01 0.114D+01
 Coeff:      0.221D-05-0.434D-05-0.108D-04-0.136D-04 0.151D-04 0.197D-03
 Coeff:      0.306D-04-0.702D-03-0.167D-02 0.698D-02 0.170D-01-0.173D-01
 Coeff:     -0.167D+00 0.222D-01 0.114D+01
 Gap=     0.051 Goal=   None    Shift=    0.000
 Gap=     0.052 Goal=   None    Shift=    0.000
 RMSDP=1.61D-08 MaxDP=9.10D-07 DE=-1.18D-11 OVMax= 1.56D-08

 Cycle  22  Pass 1  IDiag  1:
 E= -1136.10525510733     Delta-E=        0.000000000029 Rises=F Damp=F
 DIIS: error= 9.09D-11 at cycle  22 NSaved=  16.
 NSaved=16 IEnMin=15 EnMin= -1136.10525510736     IErMin=16 ErrMin= 9.09D-11
 ErrMax= 9.09D-11  0.00D+00 EMaxC= 1.00D-01 BMatC= 1.66D-18 BMatP= 2.15D-17
 IDIUse=1 WtCom= 1.00D+00 WtEn= 0.00D+00
 Large coefficients: NSaved= 16 BigCof=    0.00 CofMax=   10.00 Det=-3.99D-18
 Inversion failed.  Reducing to 15 matrices.
 Coeff-Com: -0.452D-06-0.155D-05-0.288D-05 0.159D-05 0.322D-04 0.290D-04
 Coeff-Com: -0.846D-04-0.509D-03 0.905D-03 0.630D-02-0.152D-02-0.507D-01
 Coeff-Com: -0.132D-01 0.250D+00 0.809D+00
 Coeff:     -0.452D-06-0.155D-05-0.288D-05 0.159D-05 0.322D-04 0.290D-04
 Coeff:     -0.846D-04-0.509D-03 0.905D-03 0.630D-02-0.152D-02-0.507D-01
 Coeff:     -0.132D-01 0.250D+00 0.809D+00
 Gap=     0.051 Goal=   None    Shift=    0.000
 Gap=     0.052 Goal=   None    Shift=    0.000
 RMSDP=3.18D-08 MaxDP=2.63D-06 DE= 2.86D-11 OVMax= 2.74D-09

 Cycle  23  Pass 1  IDiag  1:
 E= -1136.10525510733     Delta-E=        0.000000000001 Rises=F Damp=F
 DIIS: error= 9.08D-11 at cycle  23 NSaved=  16.
 NSaved=16 IEnMin=14 EnMin= -1136.10525510736     IErMin=16 ErrMin= 9.08D-11
 ErrMax= 9.08D-11  0.00D+00 EMaxC= 1.00D-01 BMatC= 9.33D-19 BMatP= 1.66D-18
 IDIUse=1 WtCom= 1.00D+00 WtEn= 0.00D+00
 Large coefficients: NSaved= 16 BigCof=    0.00 CofMax=   10.00 Det=-2.89D-18
 Inversion failed.  Reducing to 15 matrices.
 Coeff-Com: -0.718D-08-0.966D-07-0.684D-08-0.227D-06 0.655D-05 0.179D-04
 Coeff-Com: -0.580D-04-0.434D-03 0.139D-02 0.453D-02-0.116D-01-0.257D-01
 Coeff-Com:  0.187D-01 0.412D+00 0.601D+00
 Coeff:     -0.718D-08-0.966D-07-0.684D-08-0.227D-06 0.655D-05 0.179D-04
 Coeff:     -0.580D-04-0.434D-03 0.139D-02 0.453D-02-0.116D-01-0.257D-01
 Coeff:      0.187D-01 0.412D+00 0.601D+00
 Gap=     0.051 Goal=   None    Shift=    0.000
 Gap=     0.052 Goal=   None    Shift=    0.000
 RMSDP=2.17D-08 MaxDP=1.53D-06 DE= 1.36D-12 OVMax= 1.42D-09

 Cycle  24  Pass 1  IDiag  1:
 E= -1136.10525510734     Delta-E=       -0.000000000015 Rises=F Damp=F
 DIIS: error= 6.42D-11 at cycle  24 NSaved=  16.
 NSaved=16 IEnMin=13 EnMin= -1136.10525510736     IErMin=16 ErrMin= 6.42D-11
 ErrMax= 6.42D-11  0.00D+00 EMaxC= 1.00D-01 BMatC= 3.04D-19 BMatP= 9.33D-19
 IDIUse=1 WtCom= 1.00D+00 WtEn= 0.00D+00
 Large coefficients: NSaved= 16 BigCof=    0.00 CofMax=   10.00 Det=-7.52D-19
 Inversion failed.  Reducing to 15 matrices.
 Coeff-Com:  0.332D-07-0.145D-06-0.355D-05 0.597D-05 0.260D-04-0.344D-05
 Coeff-Com: -0.479D-03 0.486D-03 0.341D-02-0.216D-02-0.181D-01-0.231D-01
 Coeff-Com:  0.232D+00 0.204D+00 0.604D+00
 Coeff:      0.332D-07-0.145D-06-0.355D-05 0.597D-05 0.260D-04-0.344D-05
 Coeff:     -0.479D-03 0.486D-03 0.341D-02-0.216D-02-0.181D-01-0.231D-01
 Coeff:      0.232D+00 0.204D+00 0.604D+00
 Gap=     0.051 Goal=   None    Shift=    0.000
 Gap=     0.052 Goal=   None    Shift=    0.000
 RMSDP=1.32D-08 MaxDP=1.00D-06 DE=-1.50D-11 OVMax= 6.11D-10

 Cycle  25  Pass 1  IDiag  1:
 E= -1136.10525510735     Delta-E=       -0.000000000009 Rises=F Damp=F
 DIIS: error= 4.32D-11 at cycle  25 NSaved=  16.
 NSaved=16 IEnMin=12 EnMin= -1136.10525510736     IErMin=16 ErrMin= 4.32D-11
 ErrMax= 4.32D-11  0.00D+00 EMaxC= 1.00D-01 BMatC= 2.09D-19 BMatP= 3.04D-19
 IDIUse=1 WtCom= 1.00D+00 WtEn= 0.00D+00
 Large coefficients: NSaved= 16 BigCof=    0.00 CofMax=   10.00 Det=-3.10D-19
 Inversion failed.  Reducing to 15 matrices.
 Coeff-Com: -0.836D-07-0.240D-05 0.298D-05 0.154D-04 0.138D-04-0.315D-03
 Coeff-Com:  0.809D-04 0.231D-02 0.331D-03-0.120D-01-0.233D-01 0.115D+00
 Coeff-Com:  0.124D+00 0.317D+00 0.477D+00
 Coeff:     -0.836D-07-0.240D-05 0.298D-05 0.154D-04 0.138D-04-0.315D-03
 Coeff:      0.809D-04 0.231D-02 0.331D-03-0.120D-01-0.233D-01 0.115D+00
 Coeff:      0.124D+00 0.317D+00 0.477D+00
 Gap=     0.051 Goal=   None    Shift=    0.000
 Gap=     0.052 Goal=   None    Shift=    0.000
 RMSDP=5.53D-09 MaxDP=2.71D-07 DE=-9.09D-12 OVMax= 3.28D-10

 SCF Done:  E(UB3LYP) =  -1136.10525511     A.U. after   25 cycles
            NFock= 25  Conv=0.55D-08     -V/T= 2.0025
 <Sx>= 0.0000 <Sy>= 0.0000 <Sz>= 0.5000 <S**2>= 0.7726 S= 0.5112
 <L.S>= 0.000000000000E+00
 KE= 1.133241354852D+03 PE=-3.448045800503D+03 EE= 8.194715003351D+02
 Annihilation of the first spin contaminant:
 S**2 before annihilation     0.7726,   after     0.7503
 Leave Link  502 at Mon Nov 13 14:59:47 2023, MaxMem=  1879048192 cpu:             244.1 elap:              20.7
 (Enter /home/sekinelabo/g16/l601.exe)
 Copying SCF densities to generalized density rwf, IOpCl= 1 IROHF=0.

 **********************************************************************

            Population analysis using the SCF Density.

 **********************************************************************

 Orbital symmetries:
 Alpha Orbitals:
       Occupied  (A) (A) (A) (A) (A) (A) (A) (A) (A) (A) (A) (A)
                 (A) (A) (A) (A) (A) (A) (A) (A) (A) (A) (A) (A)
                 (A) (A) (A) (A) (A) (A) (A) (A) (A) (A) (A) (A)
                 (A) (A) (A)
       Virtual   (A) (A) (A) (A) (A) (A) (A) (A) (A) (A) (A) (A)
                 (A) (A) (A) (A) (A) (A) (A) (A) (A) (A) (A) (A)
                 (A) (A) (A) (A) (A) (A) (A) (A) (A) (A) (A) (A)
                 (A) (A) (A) (A) (A) (A) (A) (A) (A) (A) (A) (A)
                 (A) (A) (A) (A) (A) (A) (A) (A) (A) (A) (A) (A)
                 (A) (A) (A) (A) (A) (A) (A) (A) (A) (A) (A) (A)
                 (A) (A) (A) (A) (A) (A) (A) (A) (A) (A) (A) (A)
                 (A) (A) (A) (A) (A) (A) (A) (A) (A) (A) (A) (A)
                 (A) (A) (A) (A) (A) (A) (A) (A) (A) (A) (A) (A)
                 (A) (A) (A) (A) (A) (A) (A) (A) (A) (A) (A) (A)
                 (A) (A) (A) (A) (A) (A) (A) (A) (A) (A) (A) (A)
                 (A) (A) (A) (A) (A) (A) (A) (A) (A) (A) (A) (A)
                 (A) (A) (A) (A) (A) (A) (A) (A) (A) (A) (A) (A)
                 (A) (A) (A) (A) (A) (A) (A) (A) (A) (A) (A) (A)
                 (A) (A) (A)
 Beta  Orbitals:
       Occupied  (A) (A) (A) (A) (A) (A) (A) (A) (A) (A) (A) (A)
                 (A) (A) (A) (A) (A) (A) (A) (A) (A) (A) (A) (A)
                 (A) (A) (A) (A) (A) (A) (A) (A) (A) (A) (A) (A)
                 (A) (A)
       Virtual   (A) (A) (A) (A) (A) (A) (A) (A) (A) (A) (A) (A)
                 (A) (A) (A) (A) (A) (A) (A) (A) (A) (A) (A) (A)
                 (A) (A) (A) (A) (A) (A) (A) (A) (A) (A) (A) (A)
                 (A) (A) (A) (A) (A) (A) (A) (A) (A) (A) (A) (A)
                 (A) (A) (A) (A) (A) (A) (A) (A) (A) (A) (A) (A)
                 (A) (A) (A) (A) (A) (A) (A) (A) (A) (A) (A) (A)
                 (A) (A) (A) (A) (A) (A) (A) (A) (A) (A) (A) (A)
                 (A) (A) (A) (A) (A) (A) (A) (A) (A) (A) (A) (A)
                 (A) (A) (A) (A) (A) (A) (A) (A) (A) (A) (A) (A)
                 (A) (A) (A) (A) (A) (A) (A) (A) (A) (A) (A) (A)
                 (A) (A) (A) (A) (A) (A) (A) (A) (A) (A) (A) (A)
                 (A) (A) (A) (A) (A) (A) (A) (A) (A) (A) (A) (A)
                 (A) (A) (A) (A) (A) (A) (A) (A) (A) (A) (A) (A)
                 (A) (A) (A) (A) (A) (A) (A) (A) (A) (A) (A) (A)
                 (A) (A) (A) (A)
 The electronic state is 2-A.
 Alpha  occ. eigenvalues --  -38.44167 -38.44095 -38.43781 -38.43763 -38.43562
 Alpha  occ. eigenvalues --  -38.43415 -38.42951  -2.20144  -2.20077  -2.19685
 Alpha  occ. eigenvalues --   -2.19669  -2.19556  -2.19409  -2.19237  -1.13899
 Alpha  occ. eigenvalues --   -1.13863  -1.13826  -1.13796  -1.13760  -1.13698
 Alpha  occ. eigenvalues --   -1.13407  -1.13384  -1.13320  -1.13308  -1.13291
 Alpha  occ. eigenvalues --   -1.13288  -1.13270  -1.13229  -1.13165  -1.13134
 Alpha  occ. eigenvalues --   -1.13017  -1.12973  -1.12895  -1.12858  -1.12828
 Alpha  occ. eigenvalues --   -0.19217  -0.14183  -0.12711  -0.10818
 Alpha virt. eigenvalues --   -0.05692  -0.04863  -0.04332  -0.03449  -0.03347
 Alpha virt. eigenvalues --   -0.01643  -0.01605  -0.00941  -0.00297   0.00118
 Alpha virt. eigenvalues --    0.00294   0.00333   0.00713   0.00839   0.00912
 Alpha virt. eigenvalues --    0.00967   0.01047   0.01140   0.01232   0.01476
 Alpha virt. eigenvalues --    0.01478   0.01585   0.01714   0.01776   0.02120
 Alpha virt. eigenvalues --    0.02415   0.02496   0.02621   0.02721   0.02793
 Alpha virt. eigenvalues --    0.02885   0.02963   0.03060   0.03188   0.03268
 Alpha virt. eigenvalues --    0.03328   0.03360   0.03417   0.03615   0.03690
 Alpha virt. eigenvalues --    0.03842   0.04280   0.04593   0.04826   0.05133
 Alpha virt. eigenvalues --    0.05403   0.05449   0.05836   0.06029   0.06196
 Alpha virt. eigenvalues --    0.06376   0.06735   0.06898   0.07112   0.07653
 Alpha virt. eigenvalues --    0.07939   0.07960   0.08349   0.08489   0.09021
 Alpha virt. eigenvalues --    0.09226   0.10060   0.10437   0.10797   0.11623
 Alpha virt. eigenvalues --    0.12264   0.12668   0.12703   0.13101   0.13750
 Alpha virt. eigenvalues --    0.14145   0.14452   0.14751   0.15018   0.15071
 Alpha virt. eigenvalues --    0.15415   0.16136   0.16261   0.16729   0.19116
 Alpha virt. eigenvalues --    0.25926   0.26778   0.27937   0.28361   0.28789
 Alpha virt. eigenvalues --    0.29528   0.30405   0.32325   0.33014   0.34239
 Alpha virt. eigenvalues --    0.34540   0.34719   0.35822   0.36220   0.39622
 Alpha virt. eigenvalues --    0.40359   0.41195   0.41753   0.43055   0.43908
 Alpha virt. eigenvalues --    0.44052   0.44267   0.44703   0.44820   0.45194
 Alpha virt. eigenvalues --    0.45478   0.45776   0.46014   0.46702   0.47117
 Alpha virt. eigenvalues --    0.47566   0.47822   0.48699   0.49244   0.49469
 Alpha virt. eigenvalues --    0.50166   0.51161   0.51663   0.52111   0.52876
 Alpha virt. eigenvalues --    0.53798   0.55881   0.56318   0.57458   0.59028
 Alpha virt. eigenvalues --    0.63225   0.64597   0.65719   0.68513   0.69877
 Alpha virt. eigenvalues --    0.72928   0.75547   0.76490   0.77728   0.80665
 Alpha virt. eigenvalues --    0.81876   2.11400   2.14428   2.17195   2.20174
 Alpha virt. eigenvalues --    2.22088   2.26433   2.35479   4.40986   4.41147
 Alpha virt. eigenvalues --    4.41694   4.42990   4.43962   4.45019   4.45474
 Alpha virt. eigenvalues --    4.45911   4.46894   4.47054   4.48922   4.50144
 Alpha virt. eigenvalues --    4.54375   4.57555   4.63205   4.66078   4.68953
 Alpha virt. eigenvalues --    4.69977   4.75331   4.79849   4.82176  96.32445
 Alpha virt. eigenvalues --   96.36985  96.41077  96.44930  96.47650  96.53391
 Alpha virt. eigenvalues --   96.64821
  Beta  occ. eigenvalues --  -38.44155 -38.44077 -38.43744 -38.43713 -38.43523
  Beta  occ. eigenvalues --  -38.43375 -38.42932  -2.20127  -2.20051  -2.19617
  Beta  occ. eigenvalues --   -2.19577  -2.19485  -2.19337  -2.19211  -1.13892
  Beta  occ. eigenvalues --   -1.13814  -1.13806  -1.13749  -1.13733  -1.13681
  Beta  occ. eigenvalues --   -1.13366  -1.13327  -1.13278  -1.13265  -1.13240
  Beta  occ. eigenvalues --   -1.13229  -1.13204  -1.13163  -1.13120  -1.13081
  Beta  occ. eigenvalues --   -1.12967  -1.12916  -1.12853  -1.12819  -1.12798
  Beta  occ. eigenvalues --   -0.18623  -0.13682  -0.12373
  Beta virt. eigenvalues --   -0.07207  -0.05506  -0.04610  -0.04045  -0.02897
  Beta virt. eigenvalues --   -0.02763  -0.01568  -0.01032  -0.00847   0.00000
  Beta virt. eigenvalues --    0.00269   0.00371   0.00393   0.00826   0.00904
  Beta virt. eigenvalues --    0.00984   0.01010   0.01183   0.01213   0.01320
  Beta virt. eigenvalues --    0.01548   0.01605   0.01659   0.01890   0.01917
  Beta virt. eigenvalues --    0.02267   0.02476   0.02540   0.02729   0.02769
  Beta virt. eigenvalues --    0.02833   0.02894   0.03064   0.03106   0.03228
  Beta virt. eigenvalues --    0.03354   0.03426   0.03468   0.03510   0.03703
  Beta virt. eigenvalues --    0.03758   0.03968   0.04426   0.04657   0.04921
  Beta virt. eigenvalues --    0.05194   0.05533   0.05586   0.05864   0.06038
  Beta virt. eigenvalues --    0.06260   0.06406   0.06798   0.07148   0.07176
  Beta virt. eigenvalues --    0.07732   0.08083   0.08159   0.08528   0.08748
  Beta virt. eigenvalues --    0.09240   0.09413   0.10231   0.10494   0.11010
  Beta virt. eigenvalues --    0.11896   0.12486   0.12863   0.13020   0.13299
  Beta virt. eigenvalues --    0.13877   0.14308   0.14607   0.14911   0.15152
  Beta virt. eigenvalues --    0.15208   0.15585   0.16407   0.16515   0.16955
  Beta virt. eigenvalues --    0.19278   0.26369   0.27073   0.28138   0.28685
  Beta virt. eigenvalues --    0.29047   0.29681   0.30744   0.32565   0.33263
  Beta virt. eigenvalues --    0.34564   0.34935   0.35056   0.36204   0.36536
  Beta virt. eigenvalues --    0.39820   0.40648   0.41540   0.42023   0.43274
  Beta virt. eigenvalues --    0.44046   0.44259   0.44426   0.44907   0.45039
  Beta virt. eigenvalues --    0.45341   0.45560   0.45921   0.46160   0.46934
  Beta virt. eigenvalues --    0.47297   0.47718   0.47980   0.48903   0.49427
  Beta virt. eigenvalues --    0.49657   0.50286   0.51344   0.51780   0.52282
  Beta virt. eigenvalues --    0.53077   0.53963   0.56090   0.56488   0.57674
  Beta virt. eigenvalues --    0.59249   0.63402   0.64791   0.65700   0.68695
  Beta virt. eigenvalues --    0.70078   0.73079   0.75661   0.76613   0.77723
  Beta virt. eigenvalues --    0.80800   0.81914   2.11515   2.14571   2.17369
  Beta virt. eigenvalues --    2.20287   2.22148   2.26576   2.35511   4.41041
  Beta virt. eigenvalues --    4.41196   4.41774   4.43020   4.44033   4.45069
  Beta virt. eigenvalues --    4.45504   4.45969   4.46932   4.47138   4.48985
  Beta virt. eigenvalues --    4.50189   4.54441   4.57650   4.63245   4.66115
  Beta virt. eigenvalues --    4.68982   4.70028   4.75387   4.79881   4.82213
  Beta virt. eigenvalues --   96.32484  96.37034  96.41135  96.44967  96.47679
  Beta virt. eigenvalues --   96.53439  96.64840
          Condensed to atoms (all electrons):
               1          2          3          4          5          6
     1  Na  24.381284  -0.854425   0.892438  -2.176355  -1.883250  -3.753481
     2  Na  -0.854425  14.510341   4.439126  -1.569629   0.934554  -5.259650
     3  Na   0.892438   4.439126  17.932512  -3.135393  -0.688675  -6.808234
     4  Na  -2.176355  -1.569629  -3.135393  13.393830   0.089933   2.752142
     5  Na  -1.883250   0.934554  -0.688675   0.089933  14.109403  -1.557640
     6  Na  -3.753481  -5.259650  -6.808234   2.752142  -1.557640  21.102623
     7  Na  -1.429027  -1.905986  -2.007778   1.065749  -0.487270   3.261539
               7
     1  Na  -1.429027
     2  Na  -1.905986
     3  Na  -2.007778
     4  Na   1.065749
     5  Na  -0.487270
     6  Na   3.261539
     7  Na  11.732631
          Atomic-Atomic Spin Densities.
               1          2          3          4          5          6
     1  Na   1.560573  -0.115023   0.097728  -0.453286   0.039196   0.052303
     2  Na  -0.115023   0.054722  -0.445645   0.101580   0.270313   0.189854
     3  Na   0.097728  -0.445645  -0.473362   0.307001  -0.119126   0.575605
     4  Na  -0.453286   0.101580   0.307001   0.299227  -0.337849  -0.076863
     5  Na   0.039196   0.270313  -0.119126  -0.337849   0.119370  -0.007885
     6  Na   0.052303   0.189854   0.575605  -0.076863  -0.007885  -0.559648
     7  Na  -0.410653  -0.072547   0.026344   0.231917  -0.010557   0.038960
               7
     1  Na  -0.410653
     2  Na  -0.072547
     3  Na   0.026344
     4  Na   0.231917
     5  Na  -0.010557
     6  Na   0.038960
     7  Na   0.236383
 Mulliken charges and spin densities:
               1          2
     1  Na  -4.177184   0.770837
     2  Na   0.705669  -0.016746
     3  Na   0.376003  -0.031455
     4  Na   0.579724   0.071726
     5  Na   0.482946  -0.046537
     6  Na   1.262701   0.212327
     7  Na   0.770141   0.039848
 Sum of Mulliken charges =  -0.00000   1.00000
 Mulliken charges and spin densities with hydrogens summed into heavy atoms:
               1          2
     1  Na  -4.177184   0.770837
     2  Na   0.705669  -0.016746
     3  Na   0.376003  -0.031455
     4  Na   0.579724   0.071726
     5  Na   0.482946  -0.046537
     6  Na   1.262701   0.212327
     7  Na   0.770141   0.039848
 Electronic spatial extent (au):  <R**2>=           2214.3274
 Charge=             -0.0000 electrons
 Dipole moment (field-independent basis, Debye):
    X=              0.0468    Y=             -0.0344    Z=              0.1901  Tot=              0.1987
 Quadrupole moment (field-independent basis, Debye-Ang):
   XX=            -58.8706   YY=            -65.7063   ZZ=            -69.5586
   XY=              0.0729   XZ=              0.6570   YZ=              0.0601
 Traceless Quadrupole moment (field-independent basis, Debye-Ang):
   XX=              5.8412   YY=             -0.9945   ZZ=             -4.8468
   XY=              0.0729   XZ=              0.6570   YZ=              0.0601
 Octapole moment (field-independent basis, Debye-Ang**2):
  XXX=              2.8702  YYY=             -5.6641  ZZZ=              4.8180  XYY=              3.9361
  XXY=             -1.3196  XXZ=             -4.8608  XZZ=             -2.3840  YZZ=             -1.0679
  YYZ=              2.0319  XYZ=             10.0322
 Hexadecapole moment (field-independent basis, Debye-Ang**3):
 XXXX=          -1648.5774 YYYY=          -1354.1186 ZZZZ=           -687.7355 XXXY=             35.0903
 XXXZ=             46.7621 YYYX=            -35.3911 YYYZ=            -13.1400 ZZZX=             -8.8056
 ZZZY=             -1.6363 XXYY=           -516.8774 XXZZ=           -419.7889 YYZZ=           -305.9961
 XXYZ=             18.1128 YYXZ=            -25.9457 ZZXY=              1.3296
 N-N= 3.592276902091D+02 E-N=-3.448045800503D+03  KE= 1.133241354852D+03
                          Isotropic Fermi Contact Couplings
        Atom                 a.u.       MegaHertz       Gauss      10(-4) cm-1
     1  Na(23)            -0.01198     -14.17612      -5.05839      -4.72864
     2  Na(23)             0.15827     187.23773      66.81108      62.45578
     3  Na(23)            -0.01449     -17.13849      -6.11544      -5.71678
     4  Na(23)             0.15820     187.14927      66.77951      62.42628
     5  Na(23)             0.14598     172.69750      61.62276      57.60569
     6  Na(23)             0.00062       0.72852       0.25995       0.24301
     7  Na(23)             0.21838     258.35037      92.18584      86.17641
 --------------------------------------------------------
       Center         ----  Spin Dipole Couplings  ----
                      3XX-RR        3YY-RR        3ZZ-RR
 --------------------------------------------------------
     1   Atom       -0.042848     -0.045028      0.087876
     2   Atom       -0.000463      0.001249     -0.000786
     3   Atom       -0.013338     -0.005786      0.019124
     4   Atom        0.001122      0.005547     -0.006669
     5   Atom       -0.006154      0.008302     -0.002148
     6   Atom       -0.026073      0.005981      0.020092
     7   Atom        0.000381      0.004481     -0.004862
 --------------------------------------------------------
                        XY            XZ            YZ
 --------------------------------------------------------
     1   Atom       -0.001444     -0.007737     -0.004932
     2   Atom       -0.001047      0.001285     -0.008539
     3   Atom       -0.015940     -0.023952      0.035557
     4   Atom       -0.009232      0.003365     -0.010007
     5   Atom        0.011185      0.006197      0.017394
     6   Atom        0.011568     -0.011579     -0.044825
     7   Atom        0.003029     -0.000735      0.007625
 --------------------------------------------------------


 ---------------------------------------------------------------------------------
              Anisotropic Spin Dipole Couplings in Principal Axis System
 ---------------------------------------------------------------------------------

       Atom             a.u.   MegaHertz   Gauss  10(-4) cm-1        Axes

              Baa    -0.0462    -6.528    -2.329    -2.177  0.5067  0.8599  0.0609
     1 Na(23) Bbb    -0.0423    -5.970    -2.130    -1.992  0.8601 -0.5091  0.0318
              Bcc     0.0885    12.498     4.460     4.169 -0.0584 -0.0362  0.9976
 
              Baa    -0.0084    -1.183    -0.422    -0.395 -0.0342  0.6611  0.7495
     2 Na(23) Bbb    -0.0007    -0.104    -0.037    -0.035  0.9851  0.1488 -0.0863
              Bcc     0.0091     1.287     0.459     0.429 -0.1685  0.7354 -0.6564
 
              Baa    -0.0311    -4.394    -1.568    -1.466 -0.1244  0.7810 -0.6121
     3 Na(23) Bbb    -0.0251    -3.547    -1.266    -1.183  0.9157  0.3279  0.2322
              Bcc     0.0562     7.941     2.834     2.649 -0.3821  0.5316  0.7559
 
              Baa    -0.0125    -1.771    -0.632    -0.591  0.1608  0.5393  0.8266
     4 Na(23) Bbb    -0.0045    -0.641    -0.229    -0.214  0.8383  0.3675 -0.4028
              Bcc     0.0171     2.413     0.861     0.805 -0.5210  0.7577 -0.3930
 
              Baa    -0.0156    -2.210    -0.789    -0.737  0.3126 -0.6494  0.6932
     5 Na(23) Bbb    -0.0106    -1.492    -0.532    -0.498  0.8769 -0.0833 -0.4735
              Bcc     0.0262     3.702     1.321     1.235  0.3652  0.7558  0.5434
 
              Baa    -0.0328    -4.627    -1.651    -1.543 -0.3182  0.7563  0.5716
     6 Na(23) Bbb    -0.0287    -4.051    -1.446    -1.351  0.9301  0.1324  0.3425
              Bcc     0.0615     8.678     3.097     2.895 -0.1833 -0.6407  0.7456
 
              Baa    -0.0096    -1.355    -0.484    -0.452  0.2137 -0.5004  0.8390
     7 Na(23) Bbb     0.0002     0.035     0.012     0.012  0.9435 -0.1168 -0.3100
              Bcc     0.0093     1.320     0.471     0.440  0.2531  0.8579  0.4472
 

 ---------------------------------------------------------------------------------

 No NMR shielding tensors so no spin-rotation constants.
 Leave Link  601 at Mon Nov 13 14:59:47 2023, MaxMem=  1879048192 cpu:               2.6 elap:               0.2
 (Enter /home/sekinelabo/g16/l701.exe)
 ... and contract with generalized density number  0.
 Compute integral first derivatives.
 Leave Link  701 at Mon Nov 13 14:59:48 2023, MaxMem=  1879048192 cpu:               1.7 elap:               0.1
 (Enter /home/sekinelabo/g16/l702.exe)
 L702 exits ... SP integral derivatives will be done elsewhere.
 Leave Link  702 at Mon Nov 13 14:59:48 2023, MaxMem=  1879048192 cpu:               0.5 elap:               0.0
 (Enter /home/sekinelabo/g16/l703.exe)
 Integral derivatives from FoFJK, PRISM(SPDF).
 Compute integral first derivatives, UseDBF=F ICtDFT=           0.
 Calling FoFJK, ICntrl=      2127 FMM=F ISym2X=0 I1Cent= 0 IOpClX= 1 NMat=1 NMatS=1 NMatT=0.
 FoFJK:  IHMeth= 1 ICntrl=    2127 DoSepK=F KAlg= 0 I1Cent=           0 FoldK=F
 IRaf=         0 NMat=       1 IRICut=       1 DoRegI=T DoRafI=F ISym2E= 0 IDoP0=0 IntGTp=1.
 FoFCou: FMM=F IPFlag=           0 FMFlag=      100000 FMFlg1=         800
         NFxFlg=           0 DoJE=F BraDBF=F KetDBF=F FulRan=T
         wScrn=  0.000000 ICntrl=      2127 IOpCl=  1 I1Cent=           0 NGrid=           0
         NMat0=    1 NMatS0=      1 NMatT0=    0 NMatD0=    1 NMtDS0=    0 NMtDT0=    0
 Symmetry not used in FoFCou.
 Leave Link  703 at Mon Nov 13 14:59:50 2023, MaxMem=  1879048192 cpu:              36.0 elap:               2.3
 (Enter /home/sekinelabo/g16/l716.exe)
 Dipole        = 1.84055598D-02-1.35237703D-02 7.47821435D-02
 ***** Axes restored to original set *****
 -------------------------------------------------------------------
 Center     Atomic                   Forces (Hartrees/Bohr)
 Number     Number              X              Y              Z
 -------------------------------------------------------------------
      1       11           0.001271402   -0.005925108   -0.002936578
      2       11           0.003321293   -0.009079069   -0.004414654
      3       11           0.009753672    0.003613388    0.001473501
      4       11          -0.001732257    0.009391148    0.010800179
      5       11          -0.002171934    0.011402492   -0.008569571
      6       11          -0.010522100   -0.001689681   -0.003364558
      7       11           0.000079924   -0.007713171    0.007011680
 -------------------------------------------------------------------
 Cartesian Forces:  Max     0.011402492 RMS     0.006612475
 Z-matrix is all fixed cartesians, so copy forces.
 Force constants in Cartesian coordinates: 
                1             2             3             4             5 
      1  0.238724D+00
      2 -0.395989D-02  0.253779D+00
      3 -0.698432D-02  0.164440D-02  0.207485D+00
      4 -0.410920D-01  0.832563D-02  0.714523D-02  0.511187D-01
      5 -0.819605D-02 -0.428801D-01 -0.898921D-03 -0.280028D-02  0.647743D-01
      6 -0.816335D-03 -0.172472D-02 -0.350860D-01 -0.403002D-02  0.215075D-01
      7 -0.436268D-01 -0.171378D-02 -0.288098D-02 -0.187357D-01  0.613260D-02
      8 -0.946703D-02 -0.464103D-01  0.349047D-02 -0.174771D-01 -0.326246D-01
      9 -0.744895D-02  0.320597D-02 -0.389360D-01 -0.939591D-02 -0.170818D-01
     10 -0.331870D-01 -0.111290D-02  0.344157D-03  0.942578D-02  0.508177D-02
     11  0.864360D-03 -0.403406D-01 -0.183904D-01  0.498187D-02  0.203392D-03
     12  0.304337D-02 -0.650482D-02 -0.326329D-01  0.252959D-02 -0.280188D-02
     13 -0.368647D-01  0.681719D-02 -0.126820D-02  0.129408D-02  0.398387D-02
     14  0.329141D-02 -0.443414D-01  0.166163D-01  0.599214D-03  0.788656D-03
     15  0.702101D-02  0.167710D-02 -0.283870D-01 -0.305729D-03 -0.364779D-02
     16 -0.486091D-01 -0.157147D-02 -0.640424D-02 -0.424955D-03 -0.204437D-03
     17  0.976789D-02 -0.461049D-01 -0.630492D-02  0.395194D-02  0.472080D-02
     18  0.337379D-02 -0.800306D-02 -0.359619D-01  0.298905D-02  0.149395D-02
     19 -0.353447D-01 -0.678478D-02  0.100484D-01 -0.158593D-02 -0.399748D-02
     20  0.769930D-02 -0.337013D-01  0.384314D-02  0.241872D-02  0.501759D-02
     21  0.181143D-02  0.970512D-02 -0.364807D-01  0.106780D-02  0.142892D-02
                6             7             8             9            10 
      6  0.310857D-01
      7  0.365936D-02  0.102283D+00
      8 -0.167604D-01  0.312552D-02  0.839955D-01
      9 -0.111838D-01  0.544982D-02  0.239452D-01  0.512708D-01
     10  0.278879D-02 -0.361748D-01  0.213709D-01  0.152018D-01  0.768668D-01
     11 -0.309001D-02 -0.445051D-02 -0.191534D-01 -0.132356D-01 -0.837736D-02
     12  0.338463D-02 -0.521640D-02 -0.106833D-01 -0.179690D-01  0.907730D-02
     13 -0.372304D-02 -0.411374D-02  0.574377D-02 -0.769334D-02 -0.164132D-01
     14  0.213480D-03  0.524972D-03  0.462115D-02  0.264870D-02 -0.734595D-02
     15  0.586082D-02  0.828213D-03  0.178910D-02  0.475862D-02 -0.168392D-01
     16 -0.809239D-03  0.186294D-03 -0.103148D-03 -0.885299D-03 -0.922497D-03
     17  0.233841D-02 -0.314142D-02  0.856116D-02  0.220580D-04 -0.648885D-02
     18  0.558904D-02 -0.148350D-02  0.584737D-03  0.617674D-02 -0.741180D-02
     19  0.293049D-02  0.181858D-03 -0.319291D-02  0.477187D-02  0.404870D-03
     20 -0.248427D-02 -0.477388D-03  0.101049D-02  0.495492D-03 -0.312757D-02
     21  0.349661D-03 -0.356509D-03 -0.236578D-02  0.588260D-02 -0.316104D-02
               11            12            13            14            15 
     11  0.734051D-01
     12  0.305843D-01  0.762856D-01
     13  0.998418D-02 -0.100501D-01  0.709487D-01
     14 -0.149279D-01 -0.128853D-01  0.255967D-02  0.877492D-01
     15  0.124368D-01 -0.376458D-01  0.203933D-01 -0.241512D-01  0.675426D-01
     16 -0.316403D-02  0.933438D-03 -0.243923D-01  0.252154D-03 -0.125011D-01
     17  0.280141D-02 -0.182309D-02 -0.281235D-01 -0.315414D-01  0.437591D-02
     18 -0.612031D-02  0.414953D-02  0.832786D-03  0.166308D-01 -0.147341D-01
     19  0.161504D-03 -0.317168D-03  0.954126D-02  0.118532D-03  0.140350D-02
     20 -0.198806D-02  0.411407D-02 -0.965150D-03 -0.234832D-02  0.752003D-02
     21 -0.218483D-02  0.442789D-02  0.150862D-02  0.927275D-03  0.260490D-02
               16            17            18            19            20 
     16  0.947633D-01
     17  0.102373D-01  0.806232D-01
     18  0.244804D-01 -0.175402D-01  0.558448D-01
     19 -0.206007D-01  0.137967D-01 -0.227807D-01  0.474034D-01
     20 -0.544635D-02 -0.190603D-01  0.129541D-01 -0.101563D-03  0.510698D-01
     21 -0.481395D-02  0.189318D-01 -0.210642D-01  0.394364D-02 -0.264426D-01
               21 
     21  0.442798D-01
 Leave Link  716 at Mon Nov 13 14:59:50 2023, MaxMem=  1879048192 cpu:               0.5 elap:               0.0
 (Enter /home/sekinelabo/g16/l103.exe)

 GradGradGradGradGradGradGradGradGradGradGradGradGradGradGradGradGradGrad
 Berny optimization.
 Search for a local minimum.
 Step number   1 out of a maximum of    2
 All quantities printed in internal units (Hartrees-Bohrs-Radians)
 Second derivative matrix not updated -- first step.
 ITU=  0
     Eigenvalues ---    0.03014   0.03305   0.04333   0.05005   0.05847
     Eigenvalues ---    0.08213   0.09820   0.10095   0.12949   0.14571
     Eigenvalues ---    0.15078   0.15261   0.24741   0.28205   0.29965
 Quadratic step=3.746D-01 exceeds max=3.000D-01 adjusted using Lamda=-1.643D-02.
 Angle between NR and scaled steps=   4.69 degrees.
 Angle between quadratic step and forces=  17.82 degrees.
 Linear search not attempted -- first point.
 B after Tr=     0.000000    0.000000    0.000000
         Rot=    1.000000   -0.000000   -0.000000    0.000000 Ang=   0.00 deg.
 Variable       Old X    -DE/DX   Delta X   Delta X   Delta X     New X
                                 (Linear)    (Quad)   (Total)
    X1        5.61201   0.00127   0.00000   0.00378   0.00378   5.61578
    Y1        3.49924  -0.00593   0.00000  -0.01925  -0.01925   3.48000
    Z1        1.76983  -0.00294   0.00000  -0.01176  -0.01176   1.75807
    X2       10.14493   0.00332   0.00000   0.07847   0.07847  10.22341
    Y2        0.50955  -0.00908   0.00000  -0.09805  -0.09805   0.41150
    Z2        0.14475  -0.00441   0.00000  -0.04332  -0.04332   0.10143
    X3       10.83555   0.00975   0.00000   0.10536   0.10536  10.94091
    Y3        5.43086   0.00361   0.00000   0.02458   0.02458   5.45545
    Z3        2.86323   0.00147   0.00000   0.01215   0.01215   2.87538
    X4        6.31034  -0.00173   0.00000   0.00043   0.00043   6.31077
    Y4        8.35807   0.00939   0.00000   0.10035   0.10035   8.45842
    Z4        4.61072   0.01080   0.00000   0.07386   0.07386   4.68458
    X5        3.01618  -0.00217   0.00000  -0.04186  -0.04186   2.97432
    Y5        8.21544   0.01140   0.00000   0.10809   0.10809   8.32353
    Z5        0.00000  -0.00857   0.00000  -0.06246  -0.06246  -0.06246
    X6        0.00000  -0.01052   0.00000  -0.10926  -0.10926  -0.10926
    Y6        3.51551  -0.00169   0.00000  -0.01878  -0.01878   3.49673
    Z6        0.95046  -0.00336   0.00000  -0.02886  -0.02886   0.92160
    X7        2.28877   0.00008   0.00000  -0.03692  -0.03692   2.25184
    Y7        0.00000  -0.00771   0.00000  -0.09695  -0.09695  -0.09695
    Z7        4.76033   0.00701   0.00000   0.06039   0.06039   4.82072
         Item               Value     Threshold  Converged?
 Maximum Force            0.011402     0.000450     NO 
 RMS     Force            0.006612     0.000300     NO 
 Maximum Displacement     0.109256     0.001800     NO 
 RMS     Displacement     0.065618     0.001200     NO 
 Predicted change in Energy=-5.080138D-03
 GradGradGradGradGradGradGradGradGradGradGradGradGradGradGradGradGradGrad

 Leave Link  103 at Mon Nov 13 14:59:50 2023, MaxMem=  1879048192 cpu:               0.3 elap:               0.0
 (Enter /home/sekinelabo/g16/l9999.exe)
 1\1\GINC-SEKINELABO-XA7R-R37\Force\UB3LYP\6-311+G(d)\Na7(2)\SEKINELABO
 \13-Nov-2023\0\\#P B3LYP/6-311+g(d) force\\Gaussian input prepared by 
 ASE\\0,2\Na,2.9697454955,1.8517191195,0.9365558857\Na,5.3684680277,0.2
 696429683,0.0765957647\Na,5.7339276431,2.873888256,1.5151569432\Na,3.3
 39288179,4.4228998909,2.4398858579\Na,1.5960917786,4.3474224776,0.\Na,
 0.,1.8603278685,0.5029634945\Na,1.2111636762,0.,2.519058075\\Version=E
 S64L-G16RevB.01\State=2-A\HF=-1136.1052551\S2=0.772596\S2-1=0.\S2A=0.7
 50311\RMSD=5.527e-09\RMSF=6.612e-03\Dipole=0.0184056,-0.0135238,0.0747
 821\Quadrupole=4.3427998,-0.739358,-3.6034418,0.0542325,0.488474,0.044
 6501\PG=C01 [X(Na7)]\\@


 IF YOU GET CONFUSED, LOGIC OUT YOUR DILEMMA

           --  PICKER X-RAY CORP.    DIGITAL PRINTER MANUAL CA. 1964
 Job cpu time:       0 days  0 hours  4 minutes 58.2 seconds.
 Elapsed time:       0 days  0 hours  0 minutes 24.2 seconds.
 File lengths (MBytes):  RWF=     32 Int=      0 D2E=      0 Chk=      5 Scr=      1
 Normal termination of Gaussian 16 at Mon Nov 13 14:59:50 2023.
