 Entering Gaussian System, Link 0=g16
 Initial command:
 /home/sekinelabo/g16/l1.exe "/home/sekinelabo/g16temp/Gau-4103965.inp" -scrdir="/home/sekinelabo/g16temp/"
 Entering Link 1 = /home/sekinelabo/g16/l1.exe PID=   4103967.
  
 Copyright (c) 1988-2017, Gaussian, Inc.  All Rights Reserved.
  
 This is part of the Gaussian(R) 16 program.  It is based on
 the Gaussian(R) 09 system (copyright 2009, Gaussian, Inc.),
 the Gaussian(R) 03 system (copyright 2003, Gaussian, Inc.),
 the Gaussian(R) 98 system (copyright 1998, Gaussian, Inc.),
 the Gaussian(R) 94 system (copyright 1995, Gaussian, Inc.),
 the Gaussian 92(TM) system (copyright 1992, Gaussian, Inc.),
 the Gaussian 90(TM) system (copyright 1990, Gaussian, Inc.),
 the Gaussian 88(TM) system (copyright 1988, Gaussian, Inc.),
 the Gaussian 86(TM) system (copyright 1986, Carnegie Mellon
 University), and the Gaussian 82(TM) system (copyright 1983,
 Carnegie Mellon University). Gaussian is a federally registered
 trademark of Gaussian, Inc.
  
 This software contains proprietary and confidential information,
 including trade secrets, belonging to Gaussian, Inc.
  
 This software is provided under written license and may be
 used, copied, transmitted, or stored only in accord with that
 written license.
  
 The following legend is applicable only to US Government
 contracts under FAR:
  
                    RESTRICTED RIGHTS LEGEND
  
 Use, reproduction and disclosure by the US Government is
 subject to restrictions as set forth in subparagraphs (a)
 and (c) of the Commercial Computer Software - Restricted
 Rights clause in FAR 52.227-19.
  
 Gaussian, Inc.
 340 Quinnipiac St., Bldg. 40, Wallingford CT 06492
  
  
 ---------------------------------------------------------------
 Warning -- This program may not be used in any manner that
 competes with the business of Gaussian, Inc. or will provide
 assistance to any competitor of Gaussian, Inc.  The licensee
 of this program is prohibited from giving any competitor of
 Gaussian, Inc. access to this program.  By using this program,
 the user acknowledges that Gaussian, Inc. is engaged in the
 business of creating and licensing software in the field of
 computational chemistry and represents and warrants to the
 licensee that it is not a competitor of Gaussian, Inc. and that
 it will not use this program in any manner prohibited above.
 ---------------------------------------------------------------
  

 Cite this work as:
 Gaussian 16, Revision B.01,
 M. J. Frisch, G. W. Trucks, H. B. Schlegel, G. E. Scuseria, 
 M. A. Robb, J. R. Cheeseman, G. Scalmani, V. Barone, 
 G. A. Petersson, H. Nakatsuji, X. Li, M. Caricato, A. V. Marenich, 
 J. Bloino, B. G. Janesko, R. Gomperts, B. Mennucci, H. P. Hratchian, 
 J. V. Ortiz, A. F. Izmaylov, J. L. Sonnenberg, D. Williams-Young, 
 F. Ding, F. Lipparini, F. Egidi, J. Goings, B. Peng, A. Petrone, 
 T. Henderson, D. Ranasinghe, V. G. Zakrzewski, J. Gao, N. Rega, 
 G. Zheng, W. Liang, M. Hada, M. Ehara, K. Toyota, R. Fukuda, 
 J. Hasegawa, M. Ishida, T. Nakajima, Y. Honda, O. Kitao, H. Nakai, 
 T. Vreven, K. Throssell, J. A. Montgomery, Jr., J. E. Peralta, 
 F. Ogliaro, M. J. Bearpark, J. J. Heyd, E. N. Brothers, K. N. Kudin, 
 V. N. Staroverov, T. A. Keith, R. Kobayashi, J. Normand, 
 K. Raghavachari, A. P. Rendell, J. C. Burant, S. S. Iyengar, 
 J. Tomasi, M. Cossi, J. M. Millam, M. Klene, C. Adamo, R. Cammi, 
 J. W. Ochterski, R. L. Martin, K. Morokuma, O. Farkas, 
 J. B. Foresman, and D. J. Fox, Gaussian, Inc., Wallingford CT, 2016.
 
 ******************************************
 Gaussian 16:  ES64L-G16RevB.01 20-Dec-2017
                13-Nov-2023 
 ******************************************
 %mem=14GB
 %chk=checkpoint.chk
 %nprocshared=16
 Will use up to   16 processors via shared memory.
 -------------------------
 #P B3LYP/6-311+g(d) force
 -------------------------
 1/10=7,30=1,38=1/1,3;
 2/12=2,17=6,18=5,40=1/2;
 3/5=4,6=6,7=11,11=2,25=1,30=1,71=1,74=-5/1,2,3;
 4//1;
 5/5=2,38=5/2;
 6/7=2,8=2,9=2,10=2,28=1/1;
 7/29=1/1,2,3,16;
 1/10=7,30=1/3;
 99//99;
 Leave Link    1 at Mon Nov 13 18:13:45 2023, MaxMem=  1879048192 cpu:               0.3 elap:               0.0
 (Enter /home/sekinelabo/g16/l101.exe)
 ------------------------------
 Gaussian input prepared by ASE
 ------------------------------
 Symbolic Z-matrix:
 Charge =  0 Multiplicity = 2
 Na                    0.70534   1.69351   0. 
 Na                    1.30792   0.        2.06659 
 Na                    7.93274   2.49084   2.02179 
 Na                    5.52252   1.20737   1.05057 
 Na                    2.97939   2.16683   2.0732 
 Na                    0.        2.2221    2.98786 
 Na                    1.14948   4.05727   1.31121 
 
 ITRead=  0  0  0  0  0  0  0
 MicOpt= -1 -1 -1 -1 -1 -1 -1
 NAtoms=      7 NQM=        7 NQMF=       0 NMMI=      0 NMMIF=      0
                NMic=       0 NMicF=      0.
                    Isotopes and Nuclear Properties:
 (Nuclear quadrupole moments (NQMom) in fm**2, nuclear magnetic moments (NMagM)
  in nuclear magnetons)

  Atom         1           2           3           4           5           6           7
 IAtWgt=          23          23          23          23          23          23          23
 AtmWgt=  22.9897697  22.9897697  22.9897697  22.9897697  22.9897697  22.9897697  22.9897697
 NucSpn=           3           3           3           3           3           3           3
 AtZEff=  -0.0000000  -0.0000000  -0.0000000  -0.0000000  -0.0000000  -0.0000000  -0.0000000
 NQMom=   10.4000000  10.4000000  10.4000000  10.4000000  10.4000000  10.4000000  10.4000000
 NMagM=    2.2175200   2.2175200   2.2175200   2.2175200   2.2175200   2.2175200   2.2175200
 AtZNuc=  11.0000000  11.0000000  11.0000000  11.0000000  11.0000000  11.0000000  11.0000000
 Leave Link  101 at Mon Nov 13 18:13:45 2023, MaxMem=  1879048192 cpu:               2.6 elap:               0.2
 (Enter /home/sekinelabo/g16/l103.exe)

 GradGradGradGradGradGradGradGradGradGradGradGradGradGradGradGradGradGrad
 Berny optimization.
 Initialization pass.
 Trust Radius=3.00D-01 FncErr=1.00D-07 GrdErr=1.00D-07 EigMax=2.50D+02 EigMin=1.00D-04
 Number of steps in this run=      2 maximum allowed number of steps=      2.
 GradGradGradGradGradGradGradGradGradGradGradGradGradGradGradGradGradGrad

 Leave Link  103 at Mon Nov 13 18:13:45 2023, MaxMem=  1879048192 cpu:               0.2 elap:               0.0
 (Enter /home/sekinelabo/g16/l202.exe)
                          Input orientation:                          
 ---------------------------------------------------------------------
 Center     Atomic      Atomic             Coordinates (Angstroms)
 Number     Number       Type             X           Y           Z
 ---------------------------------------------------------------------
      1         11           0        0.705337    1.693505    0.000000
      2         11           0        1.307918    0.000000    2.066593
      3         11           0        7.932743    2.490837    2.021785
      4         11           0        5.522516    1.207374    1.050569
      5         11           0        2.979393    2.166828    2.073195
      6         11           0        0.000000    2.222098    2.987858
      7         11           0        1.149477    4.057269    1.311212
 ---------------------------------------------------------------------
                    Distance matrix (angstroms):
                    1          2          3          4          5
     1  Na   0.000000
     2  Na   2.738954   0.000000
     3  Na   7.547103   7.077754   0.000000
     4  Na   4.954315   4.500322   2.898230   0.000000
     5  Na   3.113440   2.736607   4.964202   2.904099   0.000000
     6  Na   3.115158   2.738082   7.995870   5.939776   3.117122
     7  Na   2.739328   4.130029   6.997951   5.226213   2.739156
                    6          7
     6  Na   0.000000
     7  Na   2.738667   0.000000
 Stoichiometry    Na7(2)
 Framework group  C1[X(Na7)]
 Deg. of freedom    15
 Full point group                 C1      NOp   1
 Largest Abelian subgroup         C1      NOp   1
 Largest concise Abelian subgroup C1      NOp   1
                         Standard orientation:                         
 ---------------------------------------------------------------------
 Center     Atomic      Atomic             Coordinates (Angstroms)
 Number     Number       Type             X           Y           Z
 ---------------------------------------------------------------------
      1         11           0        2.094290   -0.283339    1.644459
      2         11           0        1.491709   -1.976845   -0.422134
      3         11           0       -5.133117    0.513993   -0.377326
      4         11           0       -2.722890   -0.769470    0.593890
      5         11           0       -0.179767    0.189984   -0.428736
      6         11           0        2.799626    0.245253   -1.343399
      7         11           0        1.650149    2.080425    0.333247
 ---------------------------------------------------------------------
 Rotational constants (GHZ):           1.4907630           0.3894577           0.3649420
 Leave Link  202 at Mon Nov 13 18:13:45 2023, MaxMem=  1879048192 cpu:               0.1 elap:               0.0
 (Enter /home/sekinelabo/g16/l301.exe)
 Standard basis: 6-311+G(d) (5D, 7F)
 Ernie: Thresh=  0.10000D-02 Tol=  0.10000D-05 Strict=F.
 There are   217 symmetry adapted cartesian basis functions of A   symmetry.
 There are   210 symmetry adapted basis functions of A   symmetry.
   210 basis functions,   350 primitive gaussians,   217 cartesian basis functions
    39 alpha electrons       38 beta electrons
       nuclear repulsion energy       359.3688859551 Hartrees.
 IExCor=  402 DFT=T Ex+Corr=B3LYP ExCW=0 ScaHFX=  0.200000
 ScaDFX=  0.800000  0.720000  1.000000  0.810000 ScalE2=  1.000000  1.000000
 IRadAn=      5 IRanWt=     -1 IRanGd=            0 ICorTp=0 IEmpDi=  4
 NAtoms=    7 NActive=    7 NUniq=    7 SFac= 1.00D+00 NAtFMM=   60 NAOKFM=F Big=F
 Integral buffers will be    131072 words long.
 Raffenetti 2 integral format.
 Two-electron integral symmetry is turned on.
 Leave Link  301 at Mon Nov 13 18:13:45 2023, MaxMem=  1879048192 cpu:               0.5 elap:               0.0
 (Enter /home/sekinelabo/g16/l302.exe)
 NPDir=0 NMtPBC=     1 NCelOv=     1 NCel=       1 NClECP=     1 NCelD=      1
         NCelK=      1 NCelE2=     1 NClLst=     1 CellRange=     0.0.
 One-electron integrals computed using PRISM.
 One-electron integral symmetry used in STVInt
 NBasis=   210 RedAO= T EigKep=  1.41D-06  NBF=   210
 NBsUse=   210 1.00D-06 EigRej= -1.00D+00 NBFU=   210
 Precomputing XC quadrature grid using
 IXCGrd= 4 IRadAn=           5 IRanWt=          -1 IRanGd=           0 AccXCQ= 0.00D+00.
 Generated NRdTot=       0 NPtTot=           0 NUsed=           0 NTot=          32
 NSgBfM=   209   209   209   209   209 MxSgAt=     7 MxSgA2=     7.
 Leave Link  302 at Mon Nov 13 18:13:46 2023, MaxMem=  1879048192 cpu:               2.1 elap:               0.1
 (Enter /home/sekinelabo/g16/l303.exe)
 DipDrv:  MaxL=1.
 Leave Link  303 at Mon Nov 13 18:13:46 2023, MaxMem=  1879048192 cpu:               0.5 elap:               0.0
 (Enter /home/sekinelabo/g16/l401.exe)
 ExpMin= 7.60D-03 ExpMax= 3.62D+04 ExpMxC= 1.21D+03 IAcc=3 IRadAn=         5 AccDes= 0.00D+00
 Harris functional with IExCor=  402 and IRadAn=       5 diagonalized for initial guess.
 HarFok:  IExCor=  402 AccDes= 0.00D+00 IRadAn=         5 IDoV= 1 UseB2=F ITyADJ=14
 ICtDFT=  3500011 ScaDFX=  1.000000  1.000000  1.000000  1.000000
 FoFCou: FMM=F IPFlag=           0 FMFlag=      100000 FMFlg1=           0
         NFxFlg=           0 DoJE=T BraDBF=F KetDBF=T FulRan=T
         wScrn=  0.000000 ICntrl=       500 IOpCl=  0 I1Cent=   200000004 NGrid=           0
         NMat0=    1 NMatS0=      1 NMatT0=    0 NMatD0=    1 NMtDS0=    0 NMtDT0=    0
 Petite list used in FoFCou.
 Harris En= -1135.82808242659    
 JPrj=0 DoOrth=F DoCkMO=F.
 Initial guess <Sx>= 0.0000 <Sy>= 0.0000 <Sz>= 0.5000 <S**2>= 0.7500 S= 0.5000
 Leave Link  401 at Mon Nov 13 18:13:46 2023, MaxMem=  1879048192 cpu:               4.8 elap:               0.3
 (Enter /home/sekinelabo/g16/l502.exe)
 Keep R1 and R2 ints in memory in canonical form, NReq=507620374.
 FoFCou: FMM=F IPFlag=           0 FMFlag=           0 FMFlg1=           0
         NFxFlg=           0 DoJE=F BraDBF=F KetDBF=F FulRan=T
         wScrn=  0.000000 ICntrl=       600 IOpCl=  0 I1Cent=           0 NGrid=           0
         NMat0=    1 NMatS0=  22155 NMatT0=    0 NMatD0=    1 NMtDS0=    0 NMtDT0=    0
 Symmetry not used in FoFCou.
 Two-electron integral symmetry not used.
 UHF open shell SCF:
 Using DIIS extrapolation, IDIIS=  1040.
 NGot=  1879048192 LenX=  1388082362 LenY=  1388034832
 Requested convergence on RMS density matrix=1.00D-08 within 128 cycles.
 Requested convergence on MAX density matrix=1.00D-06.
 Requested convergence on             energy=1.00D-06.
 No special actions if energy rises.

 Cycle   1  Pass 1  IDiag  1:
 E= -1136.00831627789    
 DIIS: error= 1.20D-02 at cycle   1 NSaved=   1.
 NSaved= 1 IEnMin= 1 EnMin= -1136.00831627789     IErMin= 1 ErrMin= 1.20D-02
 ErrMax= 1.20D-02  0.00D+00 EMaxC= 1.00D-01 BMatC= 2.06D-01 BMatP= 2.06D-01
 IDIUse=3 WtCom= 8.80D-01 WtEn= 1.20D-01
 Coeff-Com:  0.100D+01
 Coeff-En:   0.100D+01
 Coeff:      0.100D+01
 Gap=     0.010 Goal=   None    Shift=    0.000
 Gap=     0.034 Goal=   None    Shift=    0.000
 GapD=    0.010 DampG=0.250 DampE=0.500 DampFc=0.2500 IDamp=-1.
 Damping current iteration by 2.50D-01
 RMSDP=9.90D-02 MaxDP=9.91D+00              OVMax= 7.73D-01

 Cycle   2  Pass 1  IDiag  1:
 E= -1136.01894887937     Delta-E=       -0.010632601476 Rises=F Damp=T
 DIIS: error= 8.52D-03 at cycle   2 NSaved=   2.
 NSaved= 2 IEnMin= 2 EnMin= -1136.01894887937     IErMin= 2 ErrMin= 8.52D-03
 ErrMax= 8.52D-03  0.00D+00 EMaxC= 1.00D-01 BMatC= 7.61D-02 BMatP= 2.06D-01
 IDIUse=3 WtCom= 9.15D-01 WtEn= 8.52D-02
 Coeff-Com: -0.987D+00 0.199D+01
 Coeff-En:   0.190D+00 0.810D+00
 Coeff:     -0.886D+00 0.189D+01
 Gap=     0.045 Goal=   None    Shift=    0.000
 Gap=    -0.023 Goal=   None    Shift=    0.000
 RMSDP=4.86D-02 MaxDP=5.21D+00 DE=-1.06D-02 OVMax= 8.74D-01

 Cycle   3  Pass 1  IDiag  1:
 E= -1135.88616906772     Delta-E=        0.132779811644 Rises=F Damp=F
 DIIS: error= 2.28D-02 at cycle   3 NSaved=   3.
 NSaved= 3 IEnMin= 2 EnMin= -1136.01894887937     IErMin= 2 ErrMin= 8.52D-03
 ErrMax= 2.28D-02  0.00D+00 EMaxC= 1.00D-01 BMatC= 1.07D-01 BMatP= 7.61D-02
 IDIUse=2 WtCom= 0.00D+00 WtEn= 1.00D+00
 Rare condition: small coef for last iteration:  0.000D+00
 Coeff-En:   0.172D+00 0.819D+00 0.944D-02
 Coeff:      0.172D+00 0.819D+00 0.944D-02
 Gap=     0.017 Goal=   None    Shift=    0.000
 Gap=     0.039 Goal=   None    Shift=    0.000
 RMSDP=2.45D-02 MaxDP=1.94D+00 DE= 1.33D-01 OVMax= 5.66D-01

 Cycle   4  Pass 1  IDiag  1:
 E= -1136.04564452284     Delta-E=       -0.159475455112 Rises=F Damp=F
 DIIS: error= 6.17D-03 at cycle   4 NSaved=   4.
 NSaved= 4 IEnMin= 4 EnMin= -1136.04564452284     IErMin= 4 ErrMin= 6.17D-03
 ErrMax= 6.17D-03  0.00D+00 EMaxC= 1.00D-01 BMatC= 4.56D-02 BMatP= 7.61D-02
 IDIUse=3 WtCom= 9.38D-01 WtEn= 6.17D-02
 Coeff-Com:  0.557D-01 0.315D+00 0.803D-01 0.549D+00
 Coeff-En:   0.691D-01 0.000D+00 0.000D+00 0.931D+00
 Coeff:      0.565D-01 0.296D+00 0.754D-01 0.573D+00
 Gap=     0.023 Goal=   None    Shift=    0.000
 Gap=     0.021 Goal=   None    Shift=    0.000
 RMSDP=1.70D-02 MaxDP=1.56D+00 DE=-1.59D-01 OVMax= 1.40D-01

 Cycle   5  Pass 1  IDiag  1:
 E= -1136.04854312757     Delta-E=       -0.002898604739 Rises=F Damp=F
 DIIS: error= 3.93D-03 at cycle   5 NSaved=   5.
 NSaved= 5 IEnMin= 5 EnMin= -1136.04854312757     IErMin= 5 ErrMin= 3.93D-03
 ErrMax= 3.93D-03  0.00D+00 EMaxC= 1.00D-01 BMatC= 5.87D-03 BMatP= 4.56D-02
 IDIUse=3 WtCom= 9.61D-01 WtEn= 3.93D-02
 Coeff-Com:  0.361D+00-0.427D+00 0.751D-02 0.368D+00 0.691D+00
 Coeff-En:   0.000D+00 0.000D+00 0.000D+00 0.390D+00 0.610D+00
 Coeff:      0.346D+00-0.411D+00 0.722D-02 0.369D+00 0.688D+00
 Gap=     0.029 Goal=   None    Shift=    0.000
 Gap=     0.029 Goal=   None    Shift=    0.000
 RMSDP=1.34D-02 MaxDP=1.46D+00 DE=-2.90D-03 OVMax= 1.13D-01

 Cycle   6  Pass 1  IDiag  1:
 E= -1136.05296717833     Delta-E=       -0.004424050758 Rises=F Damp=F
 DIIS: error= 2.99D-03 at cycle   6 NSaved=   6.
 NSaved= 6 IEnMin= 6 EnMin= -1136.05296717833     IErMin= 6 ErrMin= 2.99D-03
 ErrMax= 2.99D-03  0.00D+00 EMaxC= 1.00D-01 BMatC= 2.22D-03 BMatP= 5.87D-03
 IDIUse=3 WtCom= 9.70D-01 WtEn= 2.99D-02
 Coeff-Com:  0.274D+00-0.367D+00-0.326D-02 0.209D+00 0.432D+00 0.456D+00
 Coeff-En:   0.000D+00 0.000D+00 0.000D+00 0.000D+00 0.200D+00 0.800D+00
 Coeff:      0.266D+00-0.356D+00-0.316D-02 0.202D+00 0.425D+00 0.467D+00
 Gap=     0.029 Goal=   None    Shift=    0.000
 Gap=     0.031 Goal=   None    Shift=    0.000
 RMSDP=5.35D-03 MaxDP=3.97D-01 DE=-4.42D-03 OVMax= 4.14D-02

 Cycle   7  Pass 1  IDiag  1:
 E= -1136.05510441073     Delta-E=       -0.002137232397 Rises=F Damp=F
 DIIS: error= 6.19D-04 at cycle   7 NSaved=   7.
 NSaved= 7 IEnMin= 7 EnMin= -1136.05510441073     IErMin= 7 ErrMin= 6.19D-04
 ErrMax= 6.19D-04  0.00D+00 EMaxC= 1.00D-01 BMatC= 9.19D-05 BMatP= 2.22D-03
 IDIUse=3 WtCom= 9.94D-01 WtEn= 6.19D-03
 Coeff-Com:  0.131D+00-0.175D+00-0.127D-01 0.846D-01 0.689D-01 0.143D+00
 Coeff-Com:  0.760D+00
 Coeff-En:   0.000D+00 0.000D+00 0.000D+00 0.000D+00 0.000D+00 0.000D+00
 Coeff-En:   0.100D+01
 Coeff:      0.131D+00-0.174D+00-0.126D-01 0.840D-01 0.685D-01 0.142D+00
 Coeff:      0.761D+00
 Gap=     0.030 Goal=   None    Shift=    0.000
 Gap=     0.031 Goal=   None    Shift=    0.000
 RMSDP=1.67D-03 MaxDP=1.63D-01 DE=-2.14D-03 OVMax= 1.71D-02

 Cycle   8  Pass 1  IDiag  1:
 E= -1136.05525695894     Delta-E=       -0.000152548206 Rises=F Damp=F
 DIIS: error= 1.15D-04 at cycle   8 NSaved=   8.
 NSaved= 8 IEnMin= 8 EnMin= -1136.05525695894     IErMin= 8 ErrMin= 1.15D-04
 ErrMax= 1.15D-04  0.00D+00 EMaxC= 1.00D-01 BMatC= 7.46D-06 BMatP= 9.19D-05
 IDIUse=3 WtCom= 9.99D-01 WtEn= 1.15D-03
 Coeff-Com:  0.311D-01-0.411D-01-0.114D-02 0.245D-01 0.352D-01 0.253D-01
 Coeff-Com: -0.690D-01 0.995D+00
 Coeff-En:   0.000D+00 0.000D+00 0.000D+00 0.000D+00 0.000D+00 0.000D+00
 Coeff-En:   0.000D+00 0.100D+01
 Coeff:      0.310D-01-0.411D-01-0.114D-02 0.245D-01 0.351D-01 0.252D-01
 Coeff:     -0.689D-01 0.995D+00
 Gap=     0.029 Goal=   None    Shift=    0.000
 Gap=     0.030 Goal=   None    Shift=    0.000
 RMSDP=4.27D-04 MaxDP=4.47D-02 DE=-1.53D-04 OVMax= 9.90D-03

 Cycle   9  Pass 1  IDiag  1:
 E= -1136.05527305230     Delta-E=       -0.000016093363 Rises=F Damp=F
 DIIS: error= 1.46D-04 at cycle   9 NSaved=   9.
 NSaved= 9 IEnMin= 9 EnMin= -1136.05527305230     IErMin= 8 ErrMin= 1.15D-04
 ErrMax= 1.46D-04  0.00D+00 EMaxC= 1.00D-01 BMatC= 3.35D-06 BMatP= 7.46D-06
 IDIUse=3 WtCom= 9.99D-01 WtEn= 1.15D-03
 Coeff-Com: -0.331D-02 0.443D-02 0.123D-02-0.337D-02-0.612D-02-0.234D-01
 Coeff-Com: -0.157D+00 0.123D+00 0.107D+01
 Coeff-En:   0.000D+00 0.000D+00 0.000D+00 0.000D+00 0.000D+00 0.000D+00
 Coeff-En:   0.000D+00 0.000D+00 0.100D+01
 Coeff:     -0.331D-02 0.442D-02 0.123D-02-0.337D-02-0.611D-02-0.234D-01
 Coeff:     -0.157D+00 0.123D+00 0.107D+01
 Gap=     0.029 Goal=   None    Shift=    0.000
 Gap=     0.030 Goal=   None    Shift=    0.000
 RMSDP=5.51D-04 MaxDP=5.62D-02 DE=-1.61D-05 OVMax= 1.03D-02

 Cycle  10  Pass 1  IDiag  1:
 E= -1136.05529263151     Delta-E=       -0.000019579214 Rises=F Damp=F
 DIIS: error= 5.51D-05 at cycle  10 NSaved=  10.
 NSaved=10 IEnMin=10 EnMin= -1136.05529263151     IErMin=10 ErrMin= 5.51D-05
 ErrMax= 5.51D-05  0.00D+00 EMaxC= 1.00D-01 BMatC= 1.18D-06 BMatP= 3.35D-06
 IDIUse=1 WtCom= 1.00D+00 WtEn= 0.00D+00
 Coeff-Com: -0.640D-02 0.853D-02 0.131D-02-0.538D-02-0.850D-02-0.177D-01
 Coeff-Com: -0.861D-01-0.465D-01 0.510D+00 0.650D+00
 Coeff:     -0.640D-02 0.853D-02 0.131D-02-0.538D-02-0.850D-02-0.177D-01
 Coeff:     -0.861D-01-0.465D-01 0.510D+00 0.650D+00
 Gap=     0.029 Goal=   None    Shift=    0.000
 Gap=     0.030 Goal=   None    Shift=    0.000
 RMSDP=2.58D-04 MaxDP=1.83D-02 DE=-1.96D-05 OVMax= 8.10D-03

 Cycle  11  Pass 1  IDiag  1:
 E= -1136.05530277180     Delta-E=       -0.000010140287 Rises=F Damp=F
 DIIS: error= 5.21D-05 at cycle  11 NSaved=  11.
 NSaved=11 IEnMin=11 EnMin= -1136.05530277180     IErMin=11 ErrMin= 5.21D-05
 ErrMax= 5.21D-05  0.00D+00 EMaxC= 1.00D-01 BMatC= 8.89D-07 BMatP= 1.18D-06
 IDIUse=1 WtCom= 1.00D+00 WtEn= 0.00D+00
 Coeff-Com: -0.569D-02 0.758D-02 0.111D-02-0.464D-02-0.740D-02-0.120D-01
 Coeff-Com: -0.507D-01-0.512D-01 0.244D+00 0.383D+00 0.496D+00
 Coeff:     -0.569D-02 0.758D-02 0.111D-02-0.464D-02-0.740D-02-0.120D-01
 Coeff:     -0.507D-01-0.512D-01 0.244D+00 0.383D+00 0.496D+00
 Gap=     0.029 Goal=   None    Shift=    0.000
 Gap=     0.030 Goal=   None    Shift=    0.000
 RMSDP=2.10D-04 MaxDP=1.65D-02 DE=-1.01D-05 OVMax= 6.25D-03

 Cycle  12  Pass 1  IDiag  1:
 E= -1136.05531111792     Delta-E=       -0.000008346125 Rises=F Damp=F
 DIIS: error= 5.59D-05 at cycle  12 NSaved=  12.
 NSaved=12 IEnMin=12 EnMin= -1136.05531111792     IErMin=11 ErrMin= 5.21D-05
 ErrMax= 5.59D-05  0.00D+00 EMaxC= 1.00D-01 BMatC= 9.40D-07 BMatP= 8.89D-07
 IDIUse=1 WtCom= 1.00D+00 WtEn= 0.00D+00
 Coeff-Com: -0.637D-02 0.849D-02 0.115D-02-0.518D-02-0.880D-02-0.101D-01
 Coeff-Com: -0.269D-01-0.111D+00 0.717D-01 0.568D+00 0.192D+01-0.140D+01
 Coeff:     -0.637D-02 0.849D-02 0.115D-02-0.518D-02-0.880D-02-0.101D-01
 Coeff:     -0.269D-01-0.111D+00 0.717D-01 0.568D+00 0.192D+01-0.140D+01
 Gap=     0.029 Goal=   None    Shift=    0.000
 Gap=     0.030 Goal=   None    Shift=    0.000
 RMSDP=2.40D-04 MaxDP=1.68D-02 DE=-8.35D-06 OVMax= 6.83D-03

 Cycle  13  Pass 1  IDiag  1:
 E= -1136.05530165507     Delta-E=        0.000009462857 Rises=F Damp=F
 DIIS: error= 5.23D-05 at cycle  13 NSaved=  13.
 NSaved=13 IEnMin=12 EnMin= -1136.05531111792     IErMin=11 ErrMin= 5.21D-05
 ErrMax= 5.23D-05  0.00D+00 EMaxC= 1.00D-01 BMatC= 7.98D-07 BMatP= 8.89D-07
 IDIUse=1 WtCom= 1.00D+00 WtEn= 0.00D+00
 Coeff-Com: -0.476D-02 0.631D-02 0.539D-03-0.386D-02-0.793D-02 0.326D-02
 Coeff-Com:  0.546D-01-0.114D+00-0.572D+00-0.168D+00 0.327D+01-0.454D+01
 Coeff-Com:  0.307D+01
 Coeff:     -0.476D-02 0.631D-02 0.539D-03-0.386D-02-0.793D-02 0.326D-02
 Coeff:      0.546D-01-0.114D+00-0.572D+00-0.168D+00 0.327D+01-0.454D+01
 Coeff:      0.307D+01
 Gap=     0.029 Goal=   None    Shift=    0.000
 Gap=     0.030 Goal=   None    Shift=    0.000
 RMSDP=5.49D-04 MaxDP=4.52D-02 DE= 9.46D-06 OVMax= 1.43D-02

 Cycle  14  Pass 1  IDiag  1:
 E= -1136.05529181128     Delta-E=        0.000009843790 Rises=F Damp=F
 DIIS: error= 3.21D-05 at cycle  14 NSaved=  14.
 NSaved=14 IEnMin=12 EnMin= -1136.05531111792     IErMin=14 ErrMin= 3.21D-05
 ErrMax= 3.21D-05  0.00D+00 EMaxC= 1.00D-01 BMatC= 3.72D-07 BMatP= 7.98D-07
 IDIUse=1 WtCom= 1.00D+00 WtEn= 0.00D+00
 Coeff-Com: -0.809D-03 0.110D-02 0.491D-04-0.454D-03-0.753D-04-0.430D-02
 Coeff-Com: -0.234D-01 0.132D+00-0.559D-01-0.630D+00-0.124D+01 0.755D-01
 Coeff-Com:  0.839D+00 0.190D+01
 Coeff:     -0.809D-03 0.110D-02 0.491D-04-0.454D-03-0.753D-04-0.430D-02
 Coeff:     -0.234D-01 0.132D+00-0.559D-01-0.630D+00-0.124D+01 0.755D-01
 Coeff:      0.839D+00 0.190D+01
 Gap=     0.029 Goal=   None    Shift=    0.000
 Gap=     0.031 Goal=   None    Shift=    0.000
 RMSDP=6.97D-04 MaxDP=5.64D-02 DE= 9.84D-06 OVMax= 1.60D-02

 Cycle  15  Pass 1  IDiag  1:
 E= -1136.05529102095     Delta-E=        0.000000790325 Rises=F Damp=F
 DIIS: error= 1.50D-05 at cycle  15 NSaved=  15.
 NSaved=15 IEnMin=12 EnMin= -1136.05531111792     IErMin=15 ErrMin= 1.50D-05
 ErrMax= 1.50D-05  0.00D+00 EMaxC= 1.00D-01 BMatC= 1.17D-07 BMatP= 3.72D-07
 IDIUse=1 WtCom= 1.00D+00 WtEn= 0.00D+00
 Coeff-Com: -0.345D-03 0.499D-03 0.162D-03-0.117D-03 0.775D-03-0.676D-02
 Coeff-Com: -0.410D-01 0.896D-01 0.190D+00-0.145D+00-0.165D+01 0.153D+01
 Coeff-Com: -0.727D+00 0.899D+00 0.863D+00
 Coeff:     -0.345D-03 0.499D-03 0.162D-03-0.117D-03 0.775D-03-0.676D-02
 Coeff:     -0.410D-01 0.896D-01 0.190D+00-0.145D+00-0.165D+01 0.153D+01
 Coeff:     -0.727D+00 0.899D+00 0.863D+00
 Gap=     0.029 Goal=   None    Shift=    0.000
 Gap=     0.031 Goal=   None    Shift=    0.000
 RMSDP=2.81D-04 MaxDP=2.29D-02 DE= 7.90D-07 OVMax= 6.08D-03

 Cycle  16  Pass 1  IDiag  1:
 E= -1136.05529151447     Delta-E=       -0.000000493518 Rises=F Damp=F
 DIIS: error= 9.75D-06 at cycle  16 NSaved=  16.
 NSaved=16 IEnMin=12 EnMin= -1136.05531111792     IErMin=16 ErrMin= 9.75D-06
 ErrMax= 9.75D-06  0.00D+00 EMaxC= 1.00D-01 BMatC= 3.99D-08 BMatP= 1.17D-07
 IDIUse=1 WtCom= 1.00D+00 WtEn= 0.00D+00
 Coeff-Com: -0.420D-03 0.575D-03 0.173D-03-0.431D-03-0.795D-03-0.395D-02
 Coeff-Com: -0.190D-01 0.569D-02 0.143D+00 0.112D+00-0.520D+00 0.679D+00
 Coeff-Com: -0.536D+00-0.460D-01 0.411D+00 0.775D+00
 Coeff:     -0.420D-03 0.575D-03 0.173D-03-0.431D-03-0.795D-03-0.395D-02
 Coeff:     -0.190D-01 0.569D-02 0.143D+00 0.112D+00-0.520D+00 0.679D+00
 Coeff:     -0.536D+00-0.460D-01 0.411D+00 0.775D+00
 Gap=     0.029 Goal=   None    Shift=    0.000
 Gap=     0.031 Goal=   None    Shift=    0.000
 RMSDP=1.03D-04 MaxDP=8.03D-03 DE=-4.94D-07 OVMax= 2.26D-03

 Cycle  17  Pass 1  IDiag  1:
 E= -1136.05529173100     Delta-E=       -0.000000216527 Rises=F Damp=F
 DIIS: error= 6.74D-06 at cycle  17 NSaved=  17.
 NSaved=17 IEnMin=12 EnMin= -1136.05531111792     IErMin=17 ErrMin= 6.74D-06
 ErrMax= 6.74D-06  0.00D+00 EMaxC= 1.00D-01 BMatC= 1.43D-08 BMatP= 3.99D-08
 IDIUse=1 WtCom= 1.00D+00 WtEn= 0.00D+00
 Coeff-Com: -0.431D-03 0.569D-03 0.937D-04-0.318D-03-0.483D-03 0.119D-02
 Coeff-Com:  0.654D-02-0.168D-01-0.550D-01-0.133D-01 0.545D+00-0.613D+00
 Coeff-Com:  0.388D+00-0.210D+00-0.395D+00-0.170D+00 0.153D+01
 Coeff:     -0.431D-03 0.569D-03 0.937D-04-0.318D-03-0.483D-03 0.119D-02
 Coeff:      0.654D-02-0.168D-01-0.550D-01-0.133D-01 0.545D+00-0.613D+00
 Coeff:      0.388D+00-0.210D+00-0.395D+00-0.170D+00 0.153D+01
 Gap=     0.029 Goal=   None    Shift=    0.000
 Gap=     0.031 Goal=   None    Shift=    0.000
 RMSDP=7.76D-05 MaxDP=5.88D-03 DE=-2.17D-07 OVMax= 1.61D-03

 Cycle  18  Pass 1  IDiag  1:
 E= -1136.05529196451     Delta-E=       -0.000000233509 Rises=F Damp=F
 DIIS: error= 5.13D-06 at cycle  18 NSaved=  18.
 NSaved=18 IEnMin=12 EnMin= -1136.05531111792     IErMin=18 ErrMin= 5.13D-06
 ErrMax= 5.13D-06  0.00D+00 EMaxC= 1.00D-01 BMatC= 7.70D-09 BMatP= 1.43D-08
 IDIUse=1 WtCom= 1.00D+00 WtEn= 0.00D+00
 Coeff-Com: -0.438D-03 0.584D-03 0.486D-05-0.219D-03 0.867D-04 0.232D-03
 Coeff-Com: -0.101D-02 0.882D-02-0.406D-01-0.742D-01 0.116D+00-0.197D+00
 Coeff-Com:  0.209D+00 0.108D+00-0.258D+00-0.457D+00 0.129D+00 0.146D+01
 Coeff:     -0.438D-03 0.584D-03 0.486D-05-0.219D-03 0.867D-04 0.232D-03
 Coeff:     -0.101D-02 0.882D-02-0.406D-01-0.742D-01 0.116D+00-0.197D+00
 Coeff:      0.209D+00 0.108D+00-0.258D+00-0.457D+00 0.129D+00 0.146D+01
 Gap=     0.029 Goal=   None    Shift=    0.000
 Gap=     0.031 Goal=   None    Shift=    0.000
 RMSDP=8.11D-05 MaxDP=6.67D-03 DE=-2.34D-07 OVMax= 1.63D-03

 Cycle  19  Pass 1  IDiag  1:
 E= -1136.05529213798     Delta-E=       -0.000000173468 Rises=F Damp=F
 DIIS: error= 2.98D-06 at cycle  19 NSaved=  19.
 NSaved=19 IEnMin=12 EnMin= -1136.05531111792     IErMin=19 ErrMin= 2.98D-06
 ErrMax= 2.98D-06  0.00D+00 EMaxC= 1.00D-01 BMatC= 2.50D-09 BMatP= 7.70D-09
 IDIUse=1 WtCom= 1.00D+00 WtEn= 0.00D+00
 Coeff-Com: -0.265D-03 0.351D-03 0.572D-05-0.103D-03 0.363D-03-0.109D-02
 Coeff-Com: -0.729D-02 0.169D-01 0.245D-01-0.205D-01-0.350D+00 0.358D+00
 Coeff-Com: -0.162D+00 0.161D+00 0.124D+00-0.970D-01-0.652D+00 0.280D+00
 Coeff-Com:  0.132D+01
 Coeff:     -0.265D-03 0.351D-03 0.572D-05-0.103D-03 0.363D-03-0.109D-02
 Coeff:     -0.729D-02 0.169D-01 0.245D-01-0.205D-01-0.350D+00 0.358D+00
 Coeff:     -0.162D+00 0.161D+00 0.124D+00-0.970D-01-0.652D+00 0.280D+00
 Coeff:      0.132D+01
 Gap=     0.029 Goal=   None    Shift=    0.000
 Gap=     0.031 Goal=   None    Shift=    0.000
 RMSDP=7.83D-05 MaxDP=6.70D-03 DE=-1.73D-07 OVMax= 1.67D-03

 Cycle  20  Pass 1  IDiag  1:
 E= -1136.05529221404     Delta-E=       -0.000000076068 Rises=F Damp=F
 DIIS: error= 1.35D-06 at cycle  20 NSaved=  20.
 NSaved=20 IEnMin=12 EnMin= -1136.05531111792     IErMin=20 ErrMin= 1.35D-06
 ErrMax= 1.35D-06  0.00D+00 EMaxC= 1.00D-01 BMatC= 5.25D-10 BMatP= 2.50D-09
 IDIUse=1 WtCom= 1.00D+00 WtEn= 0.00D+00
 Coeff-Com: -0.763D-04 0.101D-03 0.320D-05-0.605D-04-0.133D-03-0.456D-03
 Coeff-Com: -0.362D-03 0.234D-02 0.118D-01 0.870D-02-0.101D+00 0.103D+00
 Coeff-Com: -0.614D-01 0.166D-01 0.917D-01 0.807D-01-0.176D+00-0.278D+00
 Coeff-Com:  0.166D+00 0.114D+01
 Coeff:     -0.763D-04 0.101D-03 0.320D-05-0.605D-04-0.133D-03-0.456D-03
 Coeff:     -0.362D-03 0.234D-02 0.118D-01 0.870D-02-0.101D+00 0.103D+00
 Coeff:     -0.614D-01 0.166D-01 0.917D-01 0.807D-01-0.176D+00-0.278D+00
 Coeff:      0.166D+00 0.114D+01
 Gap=     0.029 Goal=   None    Shift=    0.000
 Gap=     0.031 Goal=   None    Shift=    0.000
 RMSDP=2.76D-05 MaxDP=2.56D-03 DE=-7.61D-08 OVMax= 5.68D-04

 Cycle  21  Pass 1  IDiag  1:
 E= -1136.05529222433     Delta-E=       -0.000000010290 Rises=F Damp=F
 DIIS: error= 8.58D-07 at cycle  21 NSaved=  20.
 NSaved=20 IEnMin=11 EnMin= -1136.05531111792     IErMin=20 ErrMin= 8.58D-07
 ErrMax= 8.58D-07  0.00D+00 EMaxC= 1.00D-01 BMatC= 1.56D-10 BMatP= 5.25D-10
 IDIUse=1 WtCom= 1.00D+00 WtEn= 0.00D+00
 Coeff-Com:  0.371D-05-0.498D-05-0.802D-05-0.837D-04 0.174D-03 0.143D-02
 Coeff-Com: -0.244D-02-0.323D-02 0.356D-02 0.664D-01-0.756D-01 0.292D-01
 Coeff-Com: -0.188D-01-0.990D-02 0.312D-01 0.845D-01-0.885D-01-0.236D+00
 Coeff-Com:  0.483D-01 0.117D+01
 Coeff:      0.371D-05-0.498D-05-0.802D-05-0.837D-04 0.174D-03 0.143D-02
 Coeff:     -0.244D-02-0.323D-02 0.356D-02 0.664D-01-0.756D-01 0.292D-01
 Coeff:     -0.188D-01-0.990D-02 0.312D-01 0.845D-01-0.885D-01-0.236D+00
 Coeff:      0.483D-01 0.117D+01
 Gap=     0.029 Goal=   None    Shift=    0.000
 Gap=     0.031 Goal=   None    Shift=    0.000
 RMSDP=9.21D-06 MaxDP=7.71D-04 DE=-1.03D-08 OVMax= 2.84D-04

 Cycle  22  Pass 1  IDiag  1:
 E= -1136.05529222593     Delta-E=       -0.000000001598 Rises=F Damp=F
 DIIS: error= 3.35D-07 at cycle  22 NSaved=  20.
 NSaved=20 IEnMin=10 EnMin= -1136.05531111792     IErMin=20 ErrMin= 3.35D-07
 ErrMax= 3.35D-07  0.00D+00 EMaxC= 1.00D-01 BMatC= 2.86D-11 BMatP= 1.56D-10
 IDIUse=1 WtCom= 1.00D+00 WtEn= 0.00D+00
 Coeff-Com:  0.593D-06 0.401D-05 0.472D-04-0.252D-04-0.485D-03 0.220D-03
 Coeff-Com:  0.238D-03-0.808D-03-0.839D-02 0.135D-01-0.479D-02-0.457D-03
 Coeff-Com: -0.555D-02-0.121D-01 0.152D-01 0.361D-01 0.550D-01-0.183D+00
 Coeff-Com: -0.356D+00 0.145D+01
 Coeff:      0.593D-06 0.401D-05 0.472D-04-0.252D-04-0.485D-03 0.220D-03
 Coeff:      0.238D-03-0.808D-03-0.839D-02 0.135D-01-0.479D-02-0.457D-03
 Coeff:     -0.555D-02-0.121D-01 0.152D-01 0.361D-01 0.550D-01-0.183D+00
 Coeff:     -0.356D+00 0.145D+01
 Gap=     0.029 Goal=   None    Shift=    0.000
 Gap=     0.031 Goal=   None    Shift=    0.000
 RMSDP=3.68D-06 MaxDP=3.28D-04 DE=-1.60D-09 OVMax= 3.49D-05

 Cycle  23  Pass 1  IDiag  1:
 E= -1136.05529222621     Delta-E=       -0.000000000275 Rises=F Damp=F
 DIIS: error= 1.71D-07 at cycle  23 NSaved=  20.
 NSaved=20 IEnMin= 9 EnMin= -1136.05531111792     IErMin=20 ErrMin= 1.71D-07
 ErrMax= 1.71D-07  0.00D+00 EMaxC= 1.00D-01 BMatC= 8.41D-12 BMatP= 2.86D-11
 IDIUse=1 WtCom= 1.00D+00 WtEn= 0.00D+00
 Coeff-Com:  0.547D-05 0.400D-04-0.160D-04-0.369D-03 0.478D-03-0.665D-05
 Coeff-Com: -0.142D-02-0.189D-01 0.225D-01-0.722D-02 0.370D-02 0.849D-03
 Coeff-Com: -0.115D-01-0.159D-01 0.315D-01 0.747D-01-0.661D-01-0.413D+00
 Coeff-Com:  0.393D+00 0.101D+01
 Coeff:      0.547D-05 0.400D-04-0.160D-04-0.369D-03 0.478D-03-0.665D-05
 Coeff:     -0.142D-02-0.189D-01 0.225D-01-0.722D-02 0.370D-02 0.849D-03
 Coeff:     -0.115D-01-0.159D-01 0.315D-01 0.747D-01-0.661D-01-0.413D+00
 Coeff:      0.393D+00 0.101D+01
 Gap=     0.029 Goal=   None    Shift=    0.000
 Gap=     0.031 Goal=   None    Shift=    0.000
 RMSDP=1.74D-06 MaxDP=1.51D-04 DE=-2.75D-10 OVMax= 2.78D-05

 Cycle  24  Pass 1  IDiag  1:
 E= -1136.05529222628     Delta-E=       -0.000000000070 Rises=F Damp=F
 DIIS: error= 5.64D-08 at cycle  24 NSaved=  20.
 NSaved=20 IEnMin= 8 EnMin= -1136.05531111792     IErMin=20 ErrMin= 5.64D-08
 ErrMax= 5.64D-08  0.00D+00 EMaxC= 1.00D-01 BMatC= 1.35D-12 BMatP= 8.41D-12
 IDIUse=1 WtCom= 1.00D+00 WtEn= 0.00D+00
 Coeff-Com: -0.352D-05-0.542D-05 0.575D-06 0.827D-04 0.440D-03 0.128D-03
 Coeff-Com: -0.165D-02 0.677D-04-0.239D-03 0.194D-02 0.233D-02 0.111D-02
 Coeff-Com: -0.116D-01 0.191D-02-0.105D-01 0.235D-01 0.537D-01-0.262D+00
 Coeff-Com: -0.194D-01 0.122D+01
 Coeff:     -0.352D-05-0.542D-05 0.575D-06 0.827D-04 0.440D-03 0.128D-03
 Coeff:     -0.165D-02 0.677D-04-0.239D-03 0.194D-02 0.233D-02 0.111D-02
 Coeff:     -0.116D-01 0.191D-02-0.105D-01 0.235D-01 0.537D-01-0.262D+00
 Coeff:     -0.194D-01 0.122D+01
 Gap=     0.029 Goal=   None    Shift=    0.000
 Gap=     0.031 Goal=   None    Shift=    0.000
 RMSDP=1.11D-06 MaxDP=9.54D-05 DE=-7.05D-11 OVMax= 2.89D-05

 Cycle  25  Pass 1  IDiag  1:
 E= -1136.05529222631     Delta-E=       -0.000000000030 Rises=F Damp=F
 DIIS: error= 2.21D-08 at cycle  25 NSaved=  20.
 NSaved=20 IEnMin= 7 EnMin= -1136.05531111792     IErMin=20 ErrMin= 2.21D-08
 ErrMax= 2.21D-08  0.00D+00 EMaxC= 1.00D-01 BMatC= 2.52D-13 BMatP= 1.35D-12
 IDIUse=1 WtCom= 1.00D+00 WtEn= 0.00D+00
 Coeff-Com: -0.708D-05-0.270D-04 0.783D-04 0.296D-03 0.136D-03-0.111D-02
 Coeff-Com:  0.768D-03-0.739D-03 0.730D-03 0.158D-02 0.121D-02-0.471D-02
 Coeff-Com: -0.184D-02 0.135D-02 0.125D-01 0.175D-01-0.611D-01-0.105D+00
 Coeff-Com:  0.224D+00 0.915D+00
 Coeff:     -0.708D-05-0.270D-04 0.783D-04 0.296D-03 0.136D-03-0.111D-02
 Coeff:      0.768D-03-0.739D-03 0.730D-03 0.158D-02 0.121D-02-0.471D-02
 Coeff:     -0.184D-02 0.135D-02 0.125D-01 0.175D-01-0.611D-01-0.105D+00
 Coeff:      0.224D+00 0.915D+00
 Gap=     0.029 Goal=   None    Shift=    0.000
 Gap=     0.031 Goal=   None    Shift=    0.000
 RMSDP=3.74D-07 MaxDP=2.48D-05 DE=-2.96D-11 OVMax= 7.34D-06

 Cycle  26  Pass 1  IDiag  1:
 E= -1136.05529222630     Delta-E=        0.000000000005 Rises=F Damp=F
 DIIS: error= 1.17D-08 at cycle  26 NSaved=  20.
 NSaved=20 IEnMin= 6 EnMin= -1136.05531111792     IErMin=20 ErrMin= 1.17D-08
 ErrMax= 1.17D-08  0.00D+00 EMaxC= 1.00D-01 BMatC= 4.84D-14 BMatP= 2.52D-13
 IDIUse=1 WtCom= 1.00D+00 WtEn= 0.00D+00
 Coeff-Com:  0.478D-05-0.563D-05-0.341D-04 0.675D-04-0.320D-03 0.549D-03
 Coeff-Com: -0.313D-03-0.222D-03 0.133D-03 0.399D-03 0.146D-02-0.206D-02
 Coeff-Com:  0.132D-02 0.212D-03-0.635D-02 0.301D-01 0.155D-01-0.226D+00
 Coeff-Com: -0.990D-01 0.128D+01
 Coeff:      0.478D-05-0.563D-05-0.341D-04 0.675D-04-0.320D-03 0.549D-03
 Coeff:     -0.313D-03-0.222D-03 0.133D-03 0.399D-03 0.146D-02-0.206D-02
 Coeff:      0.132D-02 0.212D-03-0.635D-02 0.301D-01 0.155D-01-0.226D+00
 Coeff:     -0.990D-01 0.128D+01
 Gap=     0.029 Goal=   None    Shift=    0.000
 Gap=     0.031 Goal=   None    Shift=    0.000
 RMSDP=1.43D-07 MaxDP=1.10D-05 DE= 4.55D-12 OVMax= 1.84D-06

 Cycle  27  Pass 1  IDiag  1:
 E= -1136.05529222631     Delta-E=       -0.000000000004 Rises=F Damp=F
 DIIS: error= 6.31D-09 at cycle  27 NSaved=  20.
 NSaved=20 IEnMin= 5 EnMin= -1136.05531111792     IErMin=20 ErrMin= 6.31D-09
 ErrMax= 6.31D-09  0.00D+00 EMaxC= 1.00D-01 BMatC= 1.11D-14 BMatP= 4.84D-14
 IDIUse=1 WtCom= 1.00D+00 WtEn= 0.00D+00
 Coeff-Com: -0.316D-05 0.230D-05 0.182D-04-0.210D-03 0.332D-03-0.184D-03
 Coeff-Com: -0.629D-04 0.360D-04-0.182D-04 0.309D-03-0.113D-04 0.258D-03
 Coeff-Com: -0.126D-02-0.453D-02 0.161D-01 0.174D-01-0.822D-01-0.155D+00
 Coeff-Com:  0.143D+00 0.107D+01
 Coeff:     -0.316D-05 0.230D-05 0.182D-04-0.210D-03 0.332D-03-0.184D-03
 Coeff:     -0.629D-04 0.360D-04-0.182D-04 0.309D-03-0.113D-04 0.258D-03
 Coeff:     -0.126D-02-0.453D-02 0.161D-01 0.174D-01-0.822D-01-0.155D+00
 Coeff:      0.143D+00 0.107D+01
 Gap=     0.029 Goal=   None    Shift=    0.000
 Gap=     0.031 Goal=   None    Shift=    0.000
 RMSDP=6.95D-08 MaxDP=6.24D-06 DE=-3.64D-12 OVMax= 8.90D-07

 Cycle  28  Pass 1  IDiag  1:
 E= -1136.05529222631     Delta-E=       -0.000000000007 Rises=F Damp=F
 DIIS: error= 2.77D-09 at cycle  28 NSaved=  20.
 NSaved=20 IEnMin= 4 EnMin= -1136.05531111792     IErMin=20 ErrMin= 2.77D-09
 ErrMax= 2.77D-09  0.00D+00 EMaxC= 1.00D-01 BMatC= 2.07D-15 BMatP= 1.11D-14
 IDIUse=1 WtCom= 1.00D+00 WtEn= 0.00D+00
 Large coefficients: NSaved= 20 BigCof=    0.00 CofMax=   10.00 Det=-3.98D-15
 Inversion failed.  Reducing to 19 matrices.
 Large coefficients: NSaved= 19 BigCof=    0.00 CofMax=   10.00 Det=-4.06D-15
 Inversion failed.  Reducing to 18 matrices.
 Large coefficients: NSaved= 18 BigCof=    0.00 CofMax=   10.00 Det=-4.17D-15
 Inversion failed.  Reducing to 17 matrices.
 Large coefficients: NSaved= 17 BigCof=    0.00 CofMax=   10.00 Det=-4.17D-15
 Inversion failed.  Reducing to 16 matrices.
 Large coefficients: NSaved= 16 BigCof=    0.00 CofMax=   10.00 Det=-4.59D-15
 Inversion failed.  Reducing to 15 matrices.
 Coeff-Com: -0.148D-04 0.236D-05-0.928D-05 0.193D-04 0.749D-04-0.529D-04
 Coeff-Com: -0.577D-03-0.245D-03 0.300D-02 0.675D-03 0.280D-03-0.156D-01
 Coeff-Com: -0.123D+00 0.152D+00 0.984D+00
 Coeff:     -0.148D-04 0.236D-05-0.928D-05 0.193D-04 0.749D-04-0.529D-04
 Coeff:     -0.577D-03-0.245D-03 0.300D-02 0.675D-03 0.280D-03-0.156D-01
 Coeff:     -0.123D+00 0.152D+00 0.984D+00
 Gap=     0.029 Goal=   None    Shift=    0.000
 Gap=     0.031 Goal=   None    Shift=    0.000
 RMSDP=3.49D-08 MaxDP=4.32D-06 DE=-7.28D-12 OVMax= 2.53D-07

 Cycle  29  Pass 1  IDiag  1:
 E= -1136.05529222630     Delta-E=        0.000000000009 Rises=F Damp=F
 DIIS: error= 1.74D-09 at cycle  29 NSaved=  16.
 NSaved=16 IEnMin= 3 EnMin= -1136.05531111792     IErMin=16 ErrMin= 1.74D-09
 ErrMax= 1.74D-09  0.00D+00 EMaxC= 1.00D-01 BMatC= 1.02D-15 BMatP= 2.07D-15
 IDIUse=1 WtCom= 1.00D+00 WtEn= 0.00D+00
 Large coefficients: NSaved= 16 BigCof=    0.00 CofMax=   10.00 Det=-2.05D-15
 Inversion failed.  Reducing to 15 matrices.
 Coeff-Com:  0.521D-06 0.762D-04-0.110D-03 0.549D-04-0.113D-03 0.494D-04
 Coeff-Com:  0.433D-03-0.162D-02-0.432D-02 0.186D-01 0.270D-01-0.975D-01
 Coeff-Com: -0.152D+00 0.416D+00 0.793D+00
 Coeff:      0.521D-06 0.762D-04-0.110D-03 0.549D-04-0.113D-03 0.494D-04
 Coeff:      0.433D-03-0.162D-02-0.432D-02 0.186D-01 0.270D-01-0.975D-01
 Coeff:     -0.152D+00 0.416D+00 0.793D+00
 Gap=     0.029 Goal=   None    Shift=    0.000
 Gap=     0.031 Goal=   None    Shift=    0.000
 RMSDP=2.31D-08 MaxDP=2.12D-06 DE= 8.64D-12 OVMax= 2.88D-07

 Cycle  30  Pass 1  IDiag  1:
 E= -1136.05529222630     Delta-E=        0.000000000000 Rises=F Damp=F
 DIIS: error= 7.31D-10 at cycle  30 NSaved=  16.
 NSaved=16 IEnMin= 3 EnMin= -1136.05531111792     IErMin=16 ErrMin= 7.31D-10
 ErrMax= 7.31D-10  0.00D+00 EMaxC= 1.00D-01 BMatC= 2.23D-16 BMatP= 1.02D-15
 IDIUse=1 WtCom= 1.00D+00 WtEn= 0.00D+00
 Large coefficients: NSaved= 16 BigCof=    0.00 CofMax=   10.00 Det=-5.13D-16
 Inversion failed.  Reducing to 15 matrices.
 Coeff-Com:  0.173D-05-0.230D-05 0.115D-04-0.119D-04 0.412D-04 0.352D-03
 Coeff-Com: -0.590D-03-0.880D-03 0.157D-02 0.103D-01 0.107D-01-0.660D-01
 Coeff-Com: -0.101D+00 0.196D+00 0.949D+00
 Coeff:      0.173D-05-0.230D-05 0.115D-04-0.119D-04 0.412D-04 0.352D-03
 Coeff:     -0.590D-03-0.880D-03 0.157D-02 0.103D-01 0.107D-01-0.660D-01
 Coeff:     -0.101D+00 0.196D+00 0.949D+00
 Gap=     0.029 Goal=   None    Shift=    0.000
 Gap=     0.031 Goal=   None    Shift=    0.000
 RMSDP=1.18D-08 MaxDP=1.24D-06 DE= 0.00D+00 OVMax= 1.17D-07

 Cycle  31  Pass 1  IDiag  1:
 E= -1136.05529222631     Delta-E=       -0.000000000009 Rises=F Damp=F
 DIIS: error= 3.88D-10 at cycle  31 NSaved=  16.
 NSaved=16 IEnMin= 3 EnMin= -1136.05531111792     IErMin=16 ErrMin= 3.88D-10
 ErrMax= 3.88D-10  0.00D+00 EMaxC= 1.00D-01 BMatC= 8.57D-17 BMatP= 2.23D-16
 IDIUse=1 WtCom= 1.00D+00 WtEn= 0.00D+00
 Large coefficients: NSaved= 16 BigCof=    0.00 CofMax=   10.00 Det=-1.86D-16
 Inversion failed.  Reducing to 15 matrices.
 Coeff-Com:  0.132D-05-0.227D-04 0.424D-04-0.277D-04 0.213D-05 0.383D-03
 Coeff-Com:  0.117D-02-0.621D-02-0.357D-02 0.384D-01 0.158D-01-0.197D+00
 Coeff-Com: -0.163D+00 0.534D+00 0.780D+00
 Coeff:      0.132D-05-0.227D-04 0.424D-04-0.277D-04 0.213D-05 0.383D-03
 Coeff:      0.117D-02-0.621D-02-0.357D-02 0.384D-01 0.158D-01-0.197D+00
 Coeff:     -0.163D+00 0.534D+00 0.780D+00
 Gap=     0.029 Goal=   None    Shift=    0.000
 Gap=     0.031 Goal=   None    Shift=    0.000
 RMSDP=6.65D-09 MaxDP=5.85D-07 DE=-9.09D-12 OVMax= 1.27D-07

 SCF Done:  E(UB3LYP) =  -1136.05529223     A.U. after   31 cycles
            NFock= 31  Conv=0.66D-08     -V/T= 2.0024
 <Sx>= 0.0000 <Sy>= 0.0000 <Sz>= 0.5000 <S**2>= 0.7660 S= 0.5080
 <L.S>= 0.000000000000E+00
 KE= 1.133372817988D+03 PE=-3.447654297541D+03 EE= 8.188573013719D+02
 Annihilation of the first spin contaminant:
 S**2 before annihilation     0.7660,   after     0.7502
 Leave Link  502 at Mon Nov 13 18:14:11 2023, MaxMem=  1879048192 cpu:             289.5 elap:              25.3
 (Enter /home/sekinelabo/g16/l601.exe)
 Copying SCF densities to generalized density rwf, IOpCl= 1 IROHF=0.

 **********************************************************************

            Population analysis using the SCF Density.

 **********************************************************************

 Orbital symmetries:
 Alpha Orbitals:
       Occupied  (A) (A) (A) (A) (A) (A) (A) (A) (A) (A) (A) (A)
                 (A) (A) (A) (A) (A) (A) (A) (A) (A) (A) (A) (A)
                 (A) (A) (A) (A) (A) (A) (A) (A) (A) (A) (A) (A)
                 (A) (A) (A)
       Virtual   (A) (A) (A) (A) (A) (A) (A) (A) (A) (A) (A) (A)
                 (A) (A) (A) (A) (A) (A) (A) (A) (A) (A) (A) (A)
                 (A) (A) (A) (A) (A) (A) (A) (A) (A) (A) (A) (A)
                 (A) (A) (A) (A) (A) (A) (A) (A) (A) (A) (A) (A)
                 (A) (A) (A) (A) (A) (A) (A) (A) (A) (A) (A) (A)
                 (A) (A) (A) (A) (A) (A) (A) (A) (A) (A) (A) (A)
                 (A) (A) (A) (A) (A) (A) (A) (A) (A) (A) (A) (A)
                 (A) (A) (A) (A) (A) (A) (A) (A) (A) (A) (A) (A)
                 (A) (A) (A) (A) (A) (A) (A) (A) (A) (A) (A) (A)
                 (A) (A) (A) (A) (A) (A) (A) (A) (A) (A) (A) (A)
                 (A) (A) (A) (A) (A) (A) (A) (A) (A) (A) (A) (A)
                 (A) (A) (A) (A) (A) (A) (A) (A) (A) (A) (A) (A)
                 (A) (A) (A) (A) (A) (A) (A) (A) (A) (A) (A) (A)
                 (A) (A) (A) (A) (A) (A) (A) (A) (A) (A) (A) (A)
                 (A) (A) (A)
 Beta  Orbitals:
       Occupied  (A) (A) (A) (A) (A) (A) (A) (A) (A) (A) (A) (A)
                 (A) (A) (A) (A) (A) (A) (A) (A) (A) (A) (A) (A)
                 (A) (A) (A) (A) (A) (A) (A) (A) (A) (A) (A) (A)
                 (A) (A)
       Virtual   (A) (A) (A) (A) (A) (A) (A) (A) (A) (A) (A) (A)
                 (A) (A) (A) (A) (A) (A) (A) (A) (A) (A) (A) (A)
                 (A) (A) (A) (A) (A) (A) (A) (A) (A) (A) (A) (A)
                 (A) (A) (A) (A) (A) (A) (A) (A) (A) (A) (A) (A)
                 (A) (A) (A) (A) (A) (A) (A) (A) (A) (A) (A) (A)
                 (A) (A) (A) (A) (A) (A) (A) (A) (A) (A) (A) (A)
                 (A) (A) (A) (A) (A) (A) (A) (A) (A) (A) (A) (A)
                 (A) (A) (A) (A) (A) (A) (A) (A) (A) (A) (A) (A)
                 (A) (A) (A) (A) (A) (A) (A) (A) (A) (A) (A) (A)
                 (A) (A) (A) (A) (A) (A) (A) (A) (A) (A) (A) (A)
                 (A) (A) (A) (A) (A) (A) (A) (A) (A) (A) (A) (A)
                 (A) (A) (A) (A) (A) (A) (A) (A) (A) (A) (A) (A)
                 (A) (A) (A) (A) (A) (A) (A) (A) (A) (A) (A) (A)
                 (A) (A) (A) (A) (A) (A) (A) (A) (A) (A) (A) (A)
                 (A) (A) (A) (A)
 The electronic state is 2-A.
 Alpha  occ. eigenvalues --  -38.45789 -38.45618 -38.45517 -38.44457 -38.44456
 Alpha  occ. eigenvalues --  -38.43133 -38.43116  -2.21931  -2.21745  -2.21431
 Alpha  occ. eigenvalues --   -2.20633  -2.20359  -2.19263  -2.19246  -1.15739
 Alpha  occ. eigenvalues --   -1.15638  -1.15538  -1.15515  -1.15450  -1.15346
 Alpha  occ. eigenvalues --   -1.15151  -1.15064  -1.15056  -1.14377  -1.14328
 Alpha  occ. eigenvalues --   -1.14237  -1.14080  -1.13981  -1.13962  -1.12965
 Alpha  occ. eigenvalues --   -1.12943  -1.12899  -1.12869  -1.12838  -1.12811
 Alpha  occ. eigenvalues --   -0.20527  -0.14719  -0.11612  -0.11247
 Alpha virt. eigenvalues --   -0.08341  -0.04788  -0.03446  -0.03370  -0.03015
 Alpha virt. eigenvalues --   -0.02154  -0.02056  -0.01556  -0.01110  -0.00230
 Alpha virt. eigenvalues --    0.00050   0.00105   0.00322   0.00548   0.00887
 Alpha virt. eigenvalues --    0.01066   0.01233   0.01307   0.01362   0.01549
 Alpha virt. eigenvalues --    0.01633   0.01732   0.01799   0.01916   0.01959
 Alpha virt. eigenvalues --    0.02032   0.02174   0.02303   0.02531   0.02649
 Alpha virt. eigenvalues --    0.02721   0.02840   0.02961   0.03062   0.03256
 Alpha virt. eigenvalues --    0.03362   0.03459   0.03609   0.03675   0.04105
 Alpha virt. eigenvalues --    0.04174   0.04301   0.04489   0.04659   0.05173
 Alpha virt. eigenvalues --    0.05373   0.05504   0.05586   0.05842   0.05899
 Alpha virt. eigenvalues --    0.06177   0.06426   0.06838   0.06889   0.07437
 Alpha virt. eigenvalues --    0.07628   0.07780   0.07996   0.08509   0.09336
 Alpha virt. eigenvalues --    0.09593   0.10044   0.10540   0.10817   0.11274
 Alpha virt. eigenvalues --    0.11579   0.12539   0.13017   0.13141   0.13522
 Alpha virt. eigenvalues --    0.13709   0.14082   0.14324   0.15404   0.15705
 Alpha virt. eigenvalues --    0.16048   0.16685   0.17020   0.18143   0.19126
 Alpha virt. eigenvalues --    0.23156   0.26150   0.26671   0.27421   0.28885
 Alpha virt. eigenvalues --    0.30831   0.31228   0.31967   0.32771   0.33711
 Alpha virt. eigenvalues --    0.34531   0.34836   0.35449   0.36602   0.37269
 Alpha virt. eigenvalues --    0.37999   0.39807   0.40144   0.41422   0.42680
 Alpha virt. eigenvalues --    0.43117   0.43412   0.43509   0.44030   0.44504
 Alpha virt. eigenvalues --    0.44664   0.45087   0.45865   0.46159   0.46581
 Alpha virt. eigenvalues --    0.47042   0.48270   0.48894   0.49062   0.49638
 Alpha virt. eigenvalues --    0.50334   0.50934   0.51930   0.52363   0.52526
 Alpha virt. eigenvalues --    0.53686   0.55286   0.56586   0.57392   0.60369
 Alpha virt. eigenvalues --    0.63385   0.64436   0.65755   0.72573   0.76257
 Alpha virt. eigenvalues --    0.77042   0.79903   0.82884   0.84644   0.85064
 Alpha virt. eigenvalues --    0.88217   2.08536   2.15852   2.18437   2.22427
 Alpha virt. eigenvalues --    2.24812   2.26418   2.33400   4.40995   4.41782
 Alpha virt. eigenvalues --    4.41942   4.42667   4.43034   4.43597   4.44133
 Alpha virt. eigenvalues --    4.44503   4.45329   4.47227   4.52301   4.52987
 Alpha virt. eigenvalues --    4.53919   4.60373   4.70597   4.75504   4.76460
 Alpha virt. eigenvalues --    4.76921   4.80507   4.86981   4.90132  96.29623
 Alpha virt. eigenvalues --   96.39767  96.42787  96.48874  96.52872  96.54535
 Alpha virt. eigenvalues --   96.62873
  Beta  occ. eigenvalues --  -38.45739 -38.45594 -38.45490 -38.44452 -38.44372
  Beta  occ. eigenvalues --  -38.43112 -38.43094  -2.21845  -2.21706  -2.21387
  Beta  occ. eigenvalues --   -2.20479  -2.20355  -2.19232  -2.19214  -1.15697
  Beta  occ. eigenvalues --   -1.15566  -1.15494  -1.15441  -1.15421  -1.15256
  Beta  occ. eigenvalues --   -1.15123  -1.15033  -1.15025  -1.14285  -1.14206
  Beta  occ. eigenvalues --   -1.14129  -1.14069  -1.13972  -1.13955  -1.12954
  Beta  occ. eigenvalues --   -1.12925  -1.12882  -1.12853  -1.12756  -1.12729
  Beta  occ. eigenvalues --   -0.19713  -0.14468  -0.11136
  Beta virt. eigenvalues --   -0.08066  -0.07277  -0.04480  -0.03337  -0.03169
  Beta virt. eigenvalues --   -0.02951  -0.01521  -0.01318  -0.01222  -0.00595
  Beta virt. eigenvalues --   -0.00096   0.00089   0.00148   0.00447   0.00610
  Beta virt. eigenvalues --    0.00936   0.01096   0.01267   0.01382   0.01409
  Beta virt. eigenvalues --    0.01589   0.01736   0.01814   0.01876   0.02016
  Beta virt. eigenvalues --    0.02080   0.02100   0.02221   0.02416   0.02581
  Beta virt. eigenvalues --    0.02650   0.02760   0.02866   0.03005   0.03107
  Beta virt. eigenvalues --    0.03318   0.03408   0.03540   0.03698   0.03727
  Beta virt. eigenvalues --    0.04109   0.04204   0.04482   0.04639   0.04759
  Beta virt. eigenvalues --    0.05252   0.05472   0.05599   0.05852   0.05972
  Beta virt. eigenvalues --    0.06010   0.06286   0.06573   0.06994   0.07110
  Beta virt. eigenvalues --    0.07517   0.07692   0.07923   0.08090   0.08596
  Beta virt. eigenvalues --    0.09502   0.09677   0.10157   0.10799   0.10946
  Beta virt. eigenvalues --    0.11617   0.11867   0.12893   0.13229   0.13331
  Beta virt. eigenvalues --    0.13732   0.13886   0.14151   0.14511   0.15645
  Beta virt. eigenvalues --    0.16004   0.16293   0.16885   0.17179   0.18347
  Beta virt. eigenvalues --    0.19316   0.23416   0.26477   0.27181   0.27833
  Beta virt. eigenvalues --    0.29286   0.31001   0.31630   0.32169   0.33123
  Beta virt. eigenvalues --    0.33741   0.34851   0.35002   0.35741   0.36788
  Beta virt. eigenvalues --    0.37495   0.38337   0.40000   0.40500   0.41580
  Beta virt. eigenvalues --    0.42795   0.43390   0.43593   0.43633   0.44242
  Beta virt. eigenvalues --    0.44646   0.44881   0.45390   0.45994   0.46359
  Beta virt. eigenvalues --    0.46836   0.47133   0.48451   0.49054   0.49232
  Beta virt. eigenvalues --    0.49893   0.50369   0.51164   0.52168   0.52453
  Beta virt. eigenvalues --    0.52733   0.53968   0.55599   0.56846   0.57601
  Beta virt. eigenvalues --    0.60622   0.63671   0.64881   0.65865   0.72671
  Beta virt. eigenvalues --    0.76287   0.77253   0.79929   0.82957   0.84889
  Beta virt. eigenvalues --    0.85182   0.88311   2.08629   2.15947   2.18598
  Beta virt. eigenvalues --    2.22481   2.24883   2.26675   2.33490   4.41106
  Beta virt. eigenvalues --    4.41824   4.42013   4.42718   4.43071   4.43657
  Beta virt. eigenvalues --    4.44242   4.44534   4.45369   4.47235   4.52437
  Beta virt. eigenvalues --    4.53099   4.53970   4.60415   4.70635   4.75575
  Beta virt. eigenvalues --    4.76546   4.76999   4.80528   4.87010   4.90181
  Beta virt. eigenvalues --   96.29653  96.39800  96.42842  96.48897  96.52904
  Beta virt. eigenvalues --   96.54618  96.62908
          Condensed to atoms (all electrons):
               1          2          3          4          5          6
     1  Na  13.761896  -1.057834  -0.069764  -0.289364   0.717544   0.349983
     2  Na  -1.057834  15.881797  -0.398680   1.660932  -2.541309  -1.216582
     3  Na  -0.069764  -0.398680  10.635436   0.185096   0.543736  -0.353125
     4  Na  -0.289364   1.660932   0.185096  12.301213  -0.917739  -1.516776
     5  Na   0.717544  -2.541309   0.543736  -0.917739  18.166226  -2.254212
     6  Na   0.349983  -1.216582  -0.353125  -1.516776  -2.254212  15.543018
     7  Na  -1.898552  -1.893196   0.165639  -0.534000  -1.534106   0.324131
               7
     1  Na  -1.898552
     2  Na  -1.893196
     3  Na   0.165639
     4  Na  -0.534000
     5  Na  -1.534106
     6  Na   0.324131
     7  Na  15.766773
          Atomic-Atomic Spin Densities.
               1          2          3          4          5          6
     1  Na   0.432563  -0.859627  -0.005198  -0.599790   0.751941   0.401452
     2  Na  -0.859627   0.293820   0.109925   0.520536   0.115528  -0.930608
     3  Na  -0.005198   0.109925   0.091740   0.139688  -0.089842  -0.027593
     4  Na  -0.599790   0.520536   0.139688   0.685678  -0.440275  -0.627047
     5  Na   0.751941   0.115528  -0.089842  -0.440275   0.935449   0.418891
     6  Na   0.401452  -0.930608  -0.027593  -0.627047   0.418891   0.732607
     7  Na   0.067714   0.743516  -0.072043   0.247483  -0.921355   0.139509
               7
     1  Na   0.067714
     2  Na   0.743516
     3  Na  -0.072043
     4  Na   0.247483
     5  Na  -0.921355
     6  Na   0.139509
     7  Na  -0.337468
 Mulliken charges and spin densities:
               1          2
     1  Na  -0.513910   0.189055
     2  Na   0.564873  -0.006910
     3  Na   0.291663   0.146677
     4  Na   0.110638  -0.073726
     5  Na  -1.180139   0.770337
     6  Na   0.123564   0.107212
     7  Na   0.603312  -0.132644
 Sum of Mulliken charges =  -0.00000   1.00000
 Mulliken charges and spin densities with hydrogens summed into heavy atoms:
               1          2
     1  Na  -0.513910   0.189055
     2  Na   0.564873  -0.006910
     3  Na   0.291663   0.146677
     4  Na   0.110638  -0.073726
     5  Na  -1.180139   0.770337
     6  Na   0.123564   0.107212
     7  Na   0.603312  -0.132644
 Electronic spatial extent (au):  <R**2>=           2725.7928
 Charge=              0.0000 electrons
 Dipole moment (field-independent basis, Debye):
    X=             -1.2851    Y=              0.0390    Z=              0.4762  Tot=              1.3711
 Quadrupole moment (field-independent basis, Debye-Ang):
   XX=            -48.6517   YY=            -77.4115   ZZ=            -68.2339
   XY=             -4.5100   XZ=              5.1301   YZ=             -2.8600
 Traceless Quadrupole moment (field-independent basis, Debye-Ang):
   XX=             16.1140   YY=            -12.6458   ZZ=             -3.4682
   XY=             -4.5100   XZ=              5.1301   YZ=             -2.8600
 Octapole moment (field-independent basis, Debye-Ang**2):
  XXX=            -91.2772  YYY=             -0.8610  ZZZ=             11.5370  XYY=            -15.5312
  XXY=             11.0564  XXZ=             -2.3193  XZZ=             11.2362  YZZ=             -2.6108
  YYZ=              1.4821  XYZ=              1.5139
 Hexadecapole moment (field-independent basis, Debye-Ang**3):
 XXXX=          -2450.4070 YYYY=           -919.2935 ZZZZ=           -576.4727 XXXY=           -169.3354
 XXXZ=            126.3741 YYYX=            -17.7606 YYYZ=              3.7309 ZZZX=             41.7548
 ZZZY=            -26.3090 XXYY=           -715.4351 XXZZ=           -587.1030 YYZZ=           -269.8999
 XXYZ=            -43.6146 YYXZ=              8.2681 ZZXY=             -7.9246
 N-N= 3.593688859551D+02 E-N=-3.447654297521D+03  KE= 1.133372817988D+03
                          Isotropic Fermi Contact Couplings
        Atom                 a.u.       MegaHertz       Gauss      10(-4) cm-1
     1  Na(23)             0.15848     187.48876      66.90065      62.53952
     2  Na(23)             0.00165       1.95234       0.69664       0.65123
     3  Na(23)             0.10564     124.97943      44.59577      41.68865
     4  Na(23)            -0.02048     -24.22800      -8.64515      -8.08159
     5  Na(23)             0.00964      11.40808       4.07069       3.80532
     6  Na(23)             0.35174     416.11954     148.48180     138.80254
     7  Na(23)             0.01562      18.47442       6.59213       6.16240
 --------------------------------------------------------
       Center         ----  Spin Dipole Couplings  ----
                      3XX-RR        3YY-RR        3ZZ-RR
 --------------------------------------------------------
     1   Atom        0.026392     -0.009808     -0.016584
     2   Atom       -0.010398     -0.031882      0.042280
     3   Atom       -0.002330      0.001650      0.000680
     4   Atom        0.027617     -0.016600     -0.011018
     5   Atom       -0.040109     -0.042214      0.082323
     6   Atom       -0.006641      0.018958     -0.012317
     7   Atom       -0.013890     -0.029908      0.043798
 --------------------------------------------------------
                        XY            XZ            YZ
 --------------------------------------------------------
     1   Atom       -0.021539     -0.024681      0.010179
     2   Atom        0.011229     -0.048442     -0.021755
     3   Atom        0.000798     -0.001050      0.000124
     4   Atom        0.001588      0.017611      0.000037
     5   Atom        0.004800     -0.034492     -0.004627
     6   Atom       -0.002091      0.008117      0.005595
     7   Atom        0.013998     -0.036851     -0.015573
 --------------------------------------------------------


 ---------------------------------------------------------------------------------
              Anisotropic Spin Dipole Couplings in Principal Axis System
 ---------------------------------------------------------------------------------

       Atom             a.u.   MegaHertz   Gauss  10(-4) cm-1        Axes

              Baa    -0.0278    -3.930    -1.402    -1.311  0.4020 -0.0362  0.9149
     1 Na(23) Bbb    -0.0197    -2.781    -0.992    -0.928  0.3650  0.9228 -0.1238
              Bcc     0.0475     6.711     2.395     2.239  0.8397 -0.3837 -0.3842
 
              Baa    -0.0400    -5.647    -2.015    -1.884  0.7001  0.4709  0.5368
     2 Na(23) Bbb    -0.0366    -5.169    -1.844    -1.724 -0.5135  0.8544 -0.0797
              Bcc     0.0766    10.815     3.859     3.608 -0.4961 -0.2198  0.8400
 
              Baa    -0.0028    -0.396    -0.141    -0.132  0.9406 -0.1766  0.2899
     3 Na(23) Bbb     0.0010     0.140     0.050     0.047 -0.2667  0.1438  0.9530
              Bcc     0.0018     0.256     0.091     0.085  0.2099  0.9737 -0.0882
 
              Baa    -0.0180    -2.549    -0.909    -0.850 -0.3468  0.3583  0.8668
     4 Na(23) Bbb    -0.0164    -2.321    -0.828    -0.774  0.1039  0.9331 -0.3442
              Bcc     0.0345     4.870     1.738     1.624  0.9322  0.0292  0.3608
 
              Baa    -0.0506    -7.149    -2.551    -2.385  0.8945 -0.3902  0.2185
     5 Na(23) Bbb    -0.0410    -5.788    -2.065    -1.931  0.3676  0.9198  0.1373
              Bcc     0.0916    12.937     4.616     4.315 -0.2545 -0.0425  0.9661
 
              Baa    -0.0190    -2.677    -0.955    -0.893 -0.5616 -0.1510  0.8135
     6 Na(23) Bbb    -0.0010    -0.139    -0.050    -0.047  0.8269 -0.0699  0.5580
              Bcc     0.0199     2.817     1.005     0.940 -0.0274  0.9861  0.1641
 
              Baa    -0.0388    -5.472    -1.953    -1.825 -0.6359  0.7589 -0.1407
     7 Na(23) Bbb    -0.0272    -3.847    -1.373    -1.283  0.6345  0.6178  0.4645
              Bcc     0.0660     9.319     3.325     3.108 -0.4394 -0.2061  0.8743
 

 ---------------------------------------------------------------------------------

 No NMR shielding tensors so no spin-rotation constants.
 Leave Link  601 at Mon Nov 13 18:14:12 2023, MaxMem=  1879048192 cpu:               2.6 elap:               0.2
 (Enter /home/sekinelabo/g16/l701.exe)
 ... and contract with generalized density number  0.
 Compute integral first derivatives.
 Leave Link  701 at Mon Nov 13 18:14:12 2023, MaxMem=  1879048192 cpu:               1.7 elap:               0.1
 (Enter /home/sekinelabo/g16/l702.exe)
 L702 exits ... SP integral derivatives will be done elsewhere.
 Leave Link  702 at Mon Nov 13 18:14:12 2023, MaxMem=  1879048192 cpu:               0.5 elap:               0.0
 (Enter /home/sekinelabo/g16/l703.exe)
 Integral derivatives from FoFJK, PRISM(SPDF).
 Compute integral first derivatives, UseDBF=F ICtDFT=           0.
 Calling FoFJK, ICntrl=      2127 FMM=F ISym2X=0 I1Cent= 0 IOpClX= 1 NMat=1 NMatS=1 NMatT=0.
 FoFJK:  IHMeth= 1 ICntrl=    2127 DoSepK=F KAlg= 0 I1Cent=           0 FoldK=F
 IRaf=         0 NMat=       1 IRICut=       1 DoRegI=T DoRafI=F ISym2E= 0 IDoP0=0 IntGTp=1.
 FoFCou: FMM=F IPFlag=           0 FMFlag=      100000 FMFlg1=         800
         NFxFlg=           0 DoJE=F BraDBF=F KetDBF=F FulRan=T
         wScrn=  0.000000 ICntrl=      2127 IOpCl=  1 I1Cent=           0 NGrid=           0
         NMat0=    1 NMatS0=      1 NMatT0=    0 NMatD0=    1 NMtDS0=    0 NMtDT0=    0
 Symmetry not used in FoFCou.
 Leave Link  703 at Mon Nov 13 18:14:14 2023, MaxMem=  1879048192 cpu:              34.3 elap:               2.2
 (Enter /home/sekinelabo/g16/l716.exe)
 Dipole        =-5.05609810D-01 1.53423222D-02 1.87368765D-01
 ***** Axes restored to original set *****
 -------------------------------------------------------------------
 Center     Atomic                   Forces (Hartrees/Bohr)
 Number     Number              X              Y              Z
 -------------------------------------------------------------------
      1       11          -0.002770011   -0.004380979   -0.021989895
      2       11           0.003958314   -0.033897212    0.005635381
      3       11           0.003084949    0.003288543    0.002644455
      4       11          -0.000799427   -0.007146683   -0.006017352
      5       11           0.015958059    0.003988283    0.006383856
      6       11          -0.017775057    0.003947724    0.019648321
      7       11          -0.001656825    0.034200324   -0.006304766
 -------------------------------------------------------------------
 Cartesian Forces:  Max     0.034200324 RMS     0.013909890
 Z-matrix is all fixed cartesians, so copy forces.
 Force constants in Cartesian coordinates: 
                1             2             3             4             5 
      1  0.945390D-01
      2  0.232456D-02  0.122358D+00
      3  0.246153D-01  0.135003D-01  0.179756D+00
      4 -0.301791D-01  0.150809D-01 -0.943068D-02  0.107292D+00
      5 -0.184268D-02 -0.450579D-01 -0.666148D-02 -0.751195D-02  0.183653D+00
      6 -0.875623D-02  0.489370D-01 -0.590292D-01 -0.171246D-02 -0.130155D-01
      7 -0.514985D-05 -0.259969D-04  0.115840D-04  0.923855D-05 -0.721718D-05
      8  0.667591D-04  0.337006D-03 -0.150168D-03 -0.119762D-03  0.935585D-04
      9 -0.754420D-04 -0.380838D-03  0.169699D-03  0.135339D-03 -0.105727D-03
     10 -0.314502D-02  0.177803D-02  0.304379D-02 -0.244589D-02  0.187894D-02
     11 -0.204366D-02  0.103177D-02  0.200610D-02 -0.637019D-02  0.489983D-02
     12 -0.590380D-02  0.345366D-02  0.568729D-02 -0.105900D-03  0.755019D-04
     13 -0.289135D-01 -0.732173D-03  0.242107D-03 -0.527313D-01  0.614476D-02
     14 -0.629088D-02 -0.108015D-01 -0.727204D-02 -0.406392D-01 -0.649105D-01
     15 -0.418988D-01 -0.100496D-01 -0.346200D-01  0.549504D-02  0.489117D-02
     16 -0.296112D-02 -0.260868D-02 -0.146972D-01 -0.403269D-01 -0.317786D-03
     17  0.714214D-02 -0.538088D-02 -0.912027D-02  0.382378D-01 -0.579882D-01
     18  0.378360D-01 -0.675228D-02 -0.496243D-01  0.604113D-02  0.734311D-02
     19 -0.293350D-01 -0.158166D-01 -0.378487D-02  0.183815D-01  0.165593D-02
     20  0.643752D-03 -0.624865D-01  0.769758D-02  0.132235D-02 -0.206900D-01
     21 -0.581693D-02 -0.487082D-01 -0.423391D-01 -0.422470D-03  0.747297D-02
                6             7             8             9            10 
      6  0.109507D+00
      7  0.297463D-04  0.328295D-01
      8 -0.385610D-03  0.132466D-01  0.127593D-01
      9  0.435764D-03  0.965636D-02  0.811311D-02  0.908927D-02
     10  0.256192D-02 -0.306142D-01 -0.157512D-01 -0.118442D-01  0.710400D-01
     11  0.462572D-02 -0.101642D-01 -0.159799D-01 -0.115066D-01  0.120114D-01
     12  0.203116D-02 -0.703918D-02 -0.113200D-01 -0.113463D-01  0.808096D-02
     13 -0.723134D-02 -0.222175D-02  0.258777D-02  0.209387D-02 -0.376971D-01
     14 -0.138036D-01 -0.299858D-02  0.213348D-02  0.462207D-02 -0.577908D-02
     15 -0.372639D-01 -0.271181D-02  0.443373D-02  0.870619D-03 -0.839267D-02
     16  0.148966D-01  0.233930D-04 -0.303251D-03  0.342693D-03  0.133920D-02
     17 -0.348685D-01 -0.205339D-04  0.266187D-03 -0.300808D-03  0.342243D-02
     18 -0.347006D-01  0.774405D-04 -0.100388D-02  0.113445D-02  0.415545D-02
     19  0.211814D-03 -0.210658D-04  0.273082D-03 -0.308600D-03  0.152299D-02
     20  0.851057D-02 -0.301176D-04  0.390424D-03 -0.441204D-03  0.243948D-02
     21  0.190193D-01 -0.241304D-04  0.312810D-03 -0.353495D-03  0.239476D-02
               11            12            13            14            15 
     11  0.514791D-01
     12  0.234663D-01  0.458911D-01
     13 -0.105775D-04  0.402097D-02  0.232526D+00
     14 -0.544877D-01 -0.180029D-01  0.113692D-01  0.210232D+00
     15 -0.172923D-01 -0.597717D-01  0.242321D-01  0.197746D-01  0.208606D+00
     16  0.932500D-03  0.245549D-02 -0.515774D-01  0.464470D-02  0.349326D-01
     17  0.911889D-02 -0.444763D-04 -0.795765D-02 -0.246956D-01  0.134163D-02
     18  0.248648D-02  0.800113D-02 -0.193815D-01 -0.351291D-02 -0.252513D-01
     19  0.564468D-02 -0.150854D-02 -0.593852D-01  0.396938D-01 -0.116565D-01
     20  0.393804D-02  0.237187D-02 -0.114014D-01 -0.574703D-01 -0.309927D-02
     21 -0.378573D-02  0.950727D-02 -0.397621D-02  0.181947D-01 -0.525702D-01
               16            17            18            19            20 
     16  0.131139D+00
     17 -0.882383D-02  0.125992D+00
     18 -0.487957D-01  0.231586D-02  0.147185D+00
     19 -0.376358D-01 -0.320004D-01  0.200672D-01  0.106473D+00
     20  0.647635D-02 -0.473124D-01 -0.876382D-03  0.549551D-03  0.183631D+00
     21  0.108655D-01  0.406766D-01 -0.467439D-01 -0.302054D-02 -0.141632D-01
               21 
     21  0.113480D+00
 Leave Link  716 at Mon Nov 13 18:14:14 2023, MaxMem=  1879048192 cpu:               0.5 elap:               0.0
 (Enter /home/sekinelabo/g16/l103.exe)

 GradGradGradGradGradGradGradGradGradGradGradGradGradGradGradGradGradGrad
 Berny optimization.
 Search for a local minimum.
 Step number   1 out of a maximum of    2
 All quantities printed in internal units (Hartrees-Bohrs-Radians)
 Second derivative matrix not updated -- first step.
 ITU=  0
     Eigenvalues ---    0.00954   0.01446   0.03171   0.05967   0.07594
     Eigenvalues ---    0.10948   0.16977   0.20089   0.20188   0.23327
     Eigenvalues ---    0.23494   0.24189   0.26644   0.29161   0.32453
 Quadratic step=3.918D-01 exceeds max=3.000D-01 adjusted using Lamda=-2.831D-02.
 Angle between NR and scaled steps=  13.99 degrees.
 Angle between quadratic step and forces=  17.70 degrees.
 Linear search not attempted -- first point.
 B after Tr=    -0.000000   -0.000000    0.000000
         Rot=    1.000000    0.000000   -0.000000   -0.000000 Ang=   0.00 deg.
 Variable       Old X    -DE/DX   Delta X   Delta X   Delta X     New X
                                 (Linear)    (Quad)   (Total)
    X1        1.33289  -0.00277   0.00000  -0.02834  -0.02834   1.30455
    Y1        3.20026  -0.00438   0.00000  -0.01311  -0.01311   3.18715
    Z1        0.00000  -0.02199   0.00000  -0.08942  -0.08942  -0.08942
    X2        2.47161   0.00396   0.00000  -0.00470  -0.00470   2.46691
    Y2        0.00000  -0.03390   0.00000  -0.14441  -0.14441  -0.14441
    Z2        3.90530   0.00564   0.00000   0.03181   0.03181   3.93711
    X3       14.99071   0.00308   0.00000   0.04933   0.04933  15.04004
    Y3        4.70700   0.00329   0.00000   0.03612   0.03612   4.74312
    Z3        3.82062   0.00264   0.00000   0.02703   0.02703   3.84765
    X4       10.43604  -0.00080   0.00000   0.04821   0.04821  10.48425
    Y4        2.28161  -0.00715   0.00000  -0.06248  -0.06248   2.21912
    Z4        1.98529  -0.00602   0.00000  -0.04793  -0.04793   1.93735
    X5        5.63024   0.01596   0.00000   0.05648   0.05648   5.68672
    Y5        4.09471   0.00399   0.00000   0.00345   0.00345   4.09816
    Z5        3.91777   0.00638   0.00000   0.01374   0.01374   3.93151
    X6        0.00000  -0.01778   0.00000  -0.09273  -0.09273  -0.09273
    Y6        4.19916   0.00395   0.00000   0.02281   0.02281   4.22197
    Z6        5.64623   0.01965   0.00000   0.08699   0.08699   5.73323
    X7        2.17220  -0.00166   0.00000  -0.02824  -0.02824   2.14396
    Y7        7.66713   0.03420   0.00000   0.15762   0.15762   7.82474
    Z7        2.47783  -0.00630   0.00000  -0.02223  -0.02223   2.45561
         Item               Value     Threshold  Converged?
 Maximum Force            0.034200     0.000450     NO 
 RMS     Force            0.013910     0.000300     NO 
 Maximum Displacement     0.157615     0.001800     NO 
 RMS     Displacement     0.065489     0.001200     NO 
 Predicted change in Energy=-1.038713D-02
 GradGradGradGradGradGradGradGradGradGradGradGradGradGradGradGradGradGrad

 Leave Link  103 at Mon Nov 13 18:14:14 2023, MaxMem=  1879048192 cpu:               0.3 elap:               0.0
 (Enter /home/sekinelabo/g16/l9999.exe)
 1\1\GINC-SEKINELABO-XA7R-R37\Force\UB3LYP\6-311+G(d)\Na7(2)\SEKINELABO
 \13-Nov-2023\0\\#P B3LYP/6-311+g(d) force\\Gaussian input prepared by 
 ASE\\0,2\Na,0.7053368041,1.6935051341,0.\Na,1.3079175816,0.,2.06659326
 71\Na,7.9327434631,2.4908374491,2.0217854532\Na,5.5225158662,1.2073744
 845,1.0505690926\Na,2.9793931893,2.1668282835,2.0731952179\Na,0.,2.222
 0975889,2.9878583199\Na,1.1494773121,4.0572692415,1.3112118863\\Versio
 n=ES64L-G16RevB.01\State=2-A\HF=-1136.0552922\S2=0.765969\S2-1=0.\S2A=
 0.750174\RMSD=6.649e-09\RMSF=1.391e-02\Dipole=0.5056098,0.0153423,-0.1
 873688\Quadrupole=11.9803841,-9.4018697,-2.5785145,3.3530462,3.8141173
 ,2.126307\PG=C01 [X(Na7)]\\@


 MEN HAVE BECOME THE TOOLS OF THEIR TOOLS... THOREAU   
 Job cpu time:       0 days  0 hours  5 minutes 41.3 seconds.
 Elapsed time:       0 days  0 hours  0 minutes 28.6 seconds.
 File lengths (MBytes):  RWF=     32 Int=      0 D2E=      0 Chk=      5 Scr=      1
 Normal termination of Gaussian 16 at Mon Nov 13 18:14:14 2023.
