 Entering Gaussian System, Link 0=g16
 Initial command:
 /home/sekinelabo/g16/l1.exe "/home/sekinelabo/g16temp/Gau-4114223.inp" -scrdir="/home/sekinelabo/g16temp/"
 Entering Link 1 = /home/sekinelabo/g16/l1.exe PID=   4114225.
  
 Copyright (c) 1988-2017, Gaussian, Inc.  All Rights Reserved.
  
 This is part of the Gaussian(R) 16 program.  It is based on
 the Gaussian(R) 09 system (copyright 2009, Gaussian, Inc.),
 the Gaussian(R) 03 system (copyright 2003, Gaussian, Inc.),
 the Gaussian(R) 98 system (copyright 1998, Gaussian, Inc.),
 the Gaussian(R) 94 system (copyright 1995, Gaussian, Inc.),
 the Gaussian 92(TM) system (copyright 1992, Gaussian, Inc.),
 the Gaussian 90(TM) system (copyright 1990, Gaussian, Inc.),
 the Gaussian 88(TM) system (copyright 1988, Gaussian, Inc.),
 the Gaussian 86(TM) system (copyright 1986, Carnegie Mellon
 University), and the Gaussian 82(TM) system (copyright 1983,
 Carnegie Mellon University). Gaussian is a federally registered
 trademark of Gaussian, Inc.
  
 This software contains proprietary and confidential information,
 including trade secrets, belonging to Gaussian, Inc.
  
 This software is provided under written license and may be
 used, copied, transmitted, or stored only in accord with that
 written license.
  
 The following legend is applicable only to US Government
 contracts under FAR:
  
                    RESTRICTED RIGHTS LEGEND
  
 Use, reproduction and disclosure by the US Government is
 subject to restrictions as set forth in subparagraphs (a)
 and (c) of the Commercial Computer Software - Restricted
 Rights clause in FAR 52.227-19.
  
 Gaussian, Inc.
 340 Quinnipiac St., Bldg. 40, Wallingford CT 06492
  
  
 ---------------------------------------------------------------
 Warning -- This program may not be used in any manner that
 competes with the business of Gaussian, Inc. or will provide
 assistance to any competitor of Gaussian, Inc.  The licensee
 of this program is prohibited from giving any competitor of
 Gaussian, Inc. access to this program.  By using this program,
 the user acknowledges that Gaussian, Inc. is engaged in the
 business of creating and licensing software in the field of
 computational chemistry and represents and warrants to the
 licensee that it is not a competitor of Gaussian, Inc. and that
 it will not use this program in any manner prohibited above.
 ---------------------------------------------------------------
  

 Cite this work as:
 Gaussian 16, Revision B.01,
 M. J. Frisch, G. W. Trucks, H. B. Schlegel, G. E. Scuseria, 
 M. A. Robb, J. R. Cheeseman, G. Scalmani, V. Barone, 
 G. A. Petersson, H. Nakatsuji, X. Li, M. Caricato, A. V. Marenich, 
 J. Bloino, B. G. Janesko, R. Gomperts, B. Mennucci, H. P. Hratchian, 
 J. V. Ortiz, A. F. Izmaylov, J. L. Sonnenberg, D. Williams-Young, 
 F. Ding, F. Lipparini, F. Egidi, J. Goings, B. Peng, A. Petrone, 
 T. Henderson, D. Ranasinghe, V. G. Zakrzewski, J. Gao, N. Rega, 
 G. Zheng, W. Liang, M. Hada, M. Ehara, K. Toyota, R. Fukuda, 
 J. Hasegawa, M. Ishida, T. Nakajima, Y. Honda, O. Kitao, H. Nakai, 
 T. Vreven, K. Throssell, J. A. Montgomery, Jr., J. E. Peralta, 
 F. Ogliaro, M. J. Bearpark, J. J. Heyd, E. N. Brothers, K. N. Kudin, 
 V. N. Staroverov, T. A. Keith, R. Kobayashi, J. Normand, 
 K. Raghavachari, A. P. Rendell, J. C. Burant, S. S. Iyengar, 
 J. Tomasi, M. Cossi, J. M. Millam, M. Klene, C. Adamo, R. Cammi, 
 J. W. Ochterski, R. L. Martin, K. Morokuma, O. Farkas, 
 J. B. Foresman, and D. J. Fox, Gaussian, Inc., Wallingford CT, 2016.
 
 ******************************************
 Gaussian 16:  ES64L-G16RevB.01 20-Dec-2017
                13-Nov-2023 
 ******************************************
 %mem=14GB
 %chk=checkpoint.chk
 %nprocshared=16
 Will use up to   16 processors via shared memory.
 -------------------------
 #P B3LYP/6-311+g(d) force
 -------------------------
 1/10=7,30=1,38=1/1,3;
 2/12=2,17=6,18=5,40=1/2;
 3/5=4,6=6,7=11,11=2,25=1,30=1,71=1,74=-5/1,2,3;
 4//1;
 5/5=2,38=5/2;
 6/7=2,8=2,9=2,10=2,28=1/1;
 7/29=1/1,2,3,16;
 1/10=7,30=1/3;
 99//99;
 Leave Link    1 at Mon Nov 13 18:32:09 2023, MaxMem=  1879048192 cpu:               0.3 elap:               0.0
 (Enter /home/sekinelabo/g16/l101.exe)
 ------------------------------
 Gaussian input prepared by ASE
 ------------------------------
 Symbolic Z-matrix:
 Charge =  0 Multiplicity = 2
 Na                    0.68519   4.16719   1.95483 
 Na                    0.        1.52729   3.20832 
 Na                    5.59448   5.21095   2.24433 
 Na                    3.19445   4.04717   3.5977 
 Na                    2.21525   2.4787    0. 
 Na                    2.93084   1.21562   2.62893 
 Na                    5.6475    0.        2.31935 
 
 ITRead=  0  0  0  0  0  0  0
 MicOpt= -1 -1 -1 -1 -1 -1 -1
 NAtoms=      7 NQM=        7 NQMF=       0 NMMI=      0 NMMIF=      0
                NMic=       0 NMicF=      0.
                    Isotopes and Nuclear Properties:
 (Nuclear quadrupole moments (NQMom) in fm**2, nuclear magnetic moments (NMagM)
  in nuclear magnetons)

  Atom         1           2           3           4           5           6           7
 IAtWgt=          23          23          23          23          23          23          23
 AtmWgt=  22.9897697  22.9897697  22.9897697  22.9897697  22.9897697  22.9897697  22.9897697
 NucSpn=           3           3           3           3           3           3           3
 AtZEff=  -0.0000000  -0.0000000  -0.0000000  -0.0000000  -0.0000000  -0.0000000  -0.0000000
 NQMom=   10.4000000  10.4000000  10.4000000  10.4000000  10.4000000  10.4000000  10.4000000
 NMagM=    2.2175200   2.2175200   2.2175200   2.2175200   2.2175200   2.2175200   2.2175200
 AtZNuc=  11.0000000  11.0000000  11.0000000  11.0000000  11.0000000  11.0000000  11.0000000
 Leave Link  101 at Mon Nov 13 18:32:09 2023, MaxMem=  1879048192 cpu:               2.6 elap:               0.2
 (Enter /home/sekinelabo/g16/l103.exe)

 GradGradGradGradGradGradGradGradGradGradGradGradGradGradGradGradGradGrad
 Berny optimization.
 Initialization pass.
 Trust Radius=3.00D-01 FncErr=1.00D-07 GrdErr=1.00D-07 EigMax=2.50D+02 EigMin=1.00D-04
 Number of steps in this run=      2 maximum allowed number of steps=      2.
 GradGradGradGradGradGradGradGradGradGradGradGradGradGradGradGradGradGrad

 Leave Link  103 at Mon Nov 13 18:32:09 2023, MaxMem=  1879048192 cpu:               0.2 elap:               0.0
 (Enter /home/sekinelabo/g16/l202.exe)
                          Input orientation:                          
 ---------------------------------------------------------------------
 Center     Atomic      Atomic             Coordinates (Angstroms)
 Number     Number       Type             X           Y           Z
 ---------------------------------------------------------------------
      1         11           0        0.685185    4.167186    1.954833
      2         11           0        0.000000    1.527291    3.208321
      3         11           0        5.594476    5.210949    2.244327
      4         11           0        3.194446    4.047170    3.597698
      5         11           0        2.215249    2.478702    0.000000
      6         11           0        2.930843    1.215621    2.628927
      7         11           0        5.647501    0.000000    2.319348
 ---------------------------------------------------------------------
                    Distance matrix (angstroms):
                    1          2          3          4          5
     1  Na   0.000000
     2  Na   3.001626   0.000000
     3  Na   5.027363   6.767332   0.000000
     4  Na   3.001633   4.087284   2.991009   0.000000
     5  Na   3.002240   4.013207   4.890946   4.045040   0.000000
     6  Na   3.769499   3.003777   4.817209   3.004276   3.003117
     7  Na   6.490215   5.917530   5.211758   4.902167   4.827390
                    6          7
     6  Na   0.000000
     7  Na   2.992291   0.000000
 Stoichiometry    Na7(2)
 Framework group  C1[X(Na7)]
 Deg. of freedom    15
 Full point group                 C1      NOp   1
 Largest Abelian subgroup         C1      NOp   1
 Largest concise Abelian subgroup C1      NOp   1
                         Standard orientation:                         
 ---------------------------------------------------------------------
 Center     Atomic      Atomic             Coordinates (Angstroms)
 Number     Number       Type             X           Y           Z
 ---------------------------------------------------------------------
      1         11           0       -2.210200   -1.503341    0.324232
      2         11           0       -2.895386    1.136554   -0.929256
      3         11           0        2.699090   -2.547103    0.034738
      4         11           0        0.299060   -1.383324   -1.318633
      5         11           0       -0.680137    0.185143    2.279065
      6         11           0        0.035457    1.448225   -0.349863
      7         11           0        2.752115    2.663845   -0.040283
 ---------------------------------------------------------------------
 Rotational constants (GHZ):           0.7526384           0.5988624           0.4408762
 Leave Link  202 at Mon Nov 13 18:32:09 2023, MaxMem=  1879048192 cpu:               0.0 elap:               0.0
 (Enter /home/sekinelabo/g16/l301.exe)
 Standard basis: 6-311+G(d) (5D, 7F)
 Ernie: Thresh=  0.10000D-02 Tol=  0.10000D-05 Strict=F.
 There are   217 symmetry adapted cartesian basis functions of A   symmetry.
 There are   210 symmetry adapted basis functions of A   symmetry.
   210 basis functions,   350 primitive gaussians,   217 cartesian basis functions
    39 alpha electrons       38 beta electrons
       nuclear repulsion energy       343.0643695410 Hartrees.
 IExCor=  402 DFT=T Ex+Corr=B3LYP ExCW=0 ScaHFX=  0.200000
 ScaDFX=  0.800000  0.720000  1.000000  0.810000 ScalE2=  1.000000  1.000000
 IRadAn=      5 IRanWt=     -1 IRanGd=            0 ICorTp=0 IEmpDi=  4
 NAtoms=    7 NActive=    7 NUniq=    7 SFac= 1.00D+00 NAtFMM=   60 NAOKFM=F Big=F
 Integral buffers will be    131072 words long.
 Raffenetti 2 integral format.
 Two-electron integral symmetry is turned on.
 Leave Link  301 at Mon Nov 13 18:32:09 2023, MaxMem=  1879048192 cpu:               0.5 elap:               0.0
 (Enter /home/sekinelabo/g16/l302.exe)
 NPDir=0 NMtPBC=     1 NCelOv=     1 NCel=       1 NClECP=     1 NCelD=      1
         NCelK=      1 NCelE2=     1 NClLst=     1 CellRange=     0.0.
 One-electron integrals computed using PRISM.
 One-electron integral symmetry used in STVInt
 NBasis=   210 RedAO= T EigKep=  1.05D-05  NBF=   210
 NBsUse=   208 1.00D-06 EigRej=  8.84D-07 NBFU=   208
 Precomputing XC quadrature grid using
 IXCGrd= 4 IRadAn=           5 IRanWt=          -1 IRanGd=           0 AccXCQ= 0.00D+00.
 Generated NRdTot=       0 NPtTot=           0 NUsed=           0 NTot=          32
 NSgBfM=   210   210   210   210   210 MxSgAt=     7 MxSgA2=     7.
 Leave Link  302 at Mon Nov 13 18:32:09 2023, MaxMem=  1879048192 cpu:               2.1 elap:               0.1
 (Enter /home/sekinelabo/g16/l303.exe)
 DipDrv:  MaxL=1.
 Leave Link  303 at Mon Nov 13 18:32:09 2023, MaxMem=  1879048192 cpu:               0.6 elap:               0.0
 (Enter /home/sekinelabo/g16/l401.exe)
 ExpMin= 7.60D-03 ExpMax= 3.62D+04 ExpMxC= 1.21D+03 IAcc=3 IRadAn=         5 AccDes= 0.00D+00
 Harris functional with IExCor=  402 and IRadAn=       5 diagonalized for initial guess.
 HarFok:  IExCor=  402 AccDes= 0.00D+00 IRadAn=         5 IDoV= 1 UseB2=F ITyADJ=14
 ICtDFT=  3500011 ScaDFX=  1.000000  1.000000  1.000000  1.000000
 FoFCou: FMM=F IPFlag=           0 FMFlag=      100000 FMFlg1=           0
         NFxFlg=           0 DoJE=T BraDBF=F KetDBF=T FulRan=T
         wScrn=  0.000000 ICntrl=       500 IOpCl=  0 I1Cent=   200000004 NGrid=           0
         NMat0=    1 NMatS0=      1 NMatT0=    0 NMatD0=    1 NMtDS0=    0 NMtDT0=    0
 Petite list used in FoFCou.
 Harris En= -1135.87412201283    
 JPrj=0 DoOrth=F DoCkMO=F.
 Initial guess <Sx>= 0.0000 <Sy>= 0.0000 <Sz>= 0.5000 <S**2>= 0.7500 S= 0.5000
 Leave Link  401 at Mon Nov 13 18:32:10 2023, MaxMem=  1879048192 cpu:               4.6 elap:               0.3
 (Enter /home/sekinelabo/g16/l502.exe)
 Keep R1 and R2 ints in memory in canonical form, NReq=507620374.
 FoFCou: FMM=F IPFlag=           0 FMFlag=           0 FMFlg1=           0
         NFxFlg=           0 DoJE=F BraDBF=F KetDBF=F FulRan=T
         wScrn=  0.000000 ICntrl=       600 IOpCl=  0 I1Cent=           0 NGrid=           0
         NMat0=    1 NMatS0=  22155 NMatT0=    0 NMatD0=    1 NMtDS0=    0 NMtDT0=    0
 Symmetry not used in FoFCou.
 Two-electron integral symmetry not used.
 UHF open shell SCF:
 Using DIIS extrapolation, IDIIS=  1040.
 NGot=  1879048192 LenX=  1388082362 LenY=  1388034832
 Requested convergence on RMS density matrix=1.00D-08 within 128 cycles.
 Requested convergence on MAX density matrix=1.00D-06.
 Requested convergence on             energy=1.00D-06.
 No special actions if energy rises.

 Cycle   1  Pass 1  IDiag  1:
 E= -1136.06476994647    
 DIIS: error= 1.09D-02 at cycle   1 NSaved=   1.
 NSaved= 1 IEnMin= 1 EnMin= -1136.06476994647     IErMin= 1 ErrMin= 1.09D-02
 ErrMax= 1.09D-02  0.00D+00 EMaxC= 1.00D-01 BMatC= 1.97D-01 BMatP= 1.97D-01
 IDIUse=3 WtCom= 8.91D-01 WtEn= 1.09D-01
 Coeff-Com:  0.100D+01
 Coeff-En:   0.100D+01
 Coeff:      0.100D+01
 Gap=     0.040 Goal=   None    Shift=    0.000
 Gap=     0.046 Goal=   None    Shift=    0.000
 GapD=    0.040 DampG=0.250 DampE=0.500 DampFc=0.2500 IDamp=-1.
 Damping current iteration by 2.50D-01
 RMSDP=1.46D-02 MaxDP=9.07D-01              OVMax= 2.54D-01

 Cycle   2  Pass 1  IDiag  1:
 E= -1136.07789414571     Delta-E=       -0.013124199239 Rises=F Damp=T
 DIIS: error= 7.34D-03 at cycle   2 NSaved=   2.
 NSaved= 2 IEnMin= 2 EnMin= -1136.07789414571     IErMin= 2 ErrMin= 7.34D-03
 ErrMax= 7.34D-03  0.00D+00 EMaxC= 1.00D-01 BMatC= 7.44D-02 BMatP= 1.97D-01
 IDIUse=3 WtCom= 9.27D-01 WtEn= 7.34D-02
 Coeff-Com: -0.124D+01 0.224D+01
 Coeff-En:   0.000D+00 0.100D+01
 Coeff:     -0.115D+01 0.215D+01
 Gap=     0.055 Goal=   None    Shift=    0.000
 Gap=     0.042 Goal=   None    Shift=    0.000
 RMSDP=6.24D-03 MaxDP=4.97D-01 DE=-1.31D-02 OVMax= 2.29D-01

 Cycle   3  Pass 1  IDiag  1:
 E= -1136.09559114525     Delta-E=       -0.017696999540 Rises=F Damp=F
 DIIS: error= 5.07D-03 at cycle   3 NSaved=   3.
 NSaved= 3 IEnMin= 3 EnMin= -1136.09559114525     IErMin= 3 ErrMin= 5.07D-03
 ErrMax= 5.07D-03  0.00D+00 EMaxC= 1.00D-01 BMatC= 7.24D-03 BMatP= 7.44D-02
 IDIUse=3 WtCom= 9.49D-01 WtEn= 5.07D-02
 Coeff-Com: -0.403D+00 0.708D+00 0.695D+00
 Coeff-En:   0.000D+00 0.000D+00 0.100D+01
 Coeff:     -0.382D+00 0.672D+00 0.710D+00
 Gap=     0.048 Goal=   None    Shift=    0.000
 Gap=     0.051 Goal=   None    Shift=    0.000
 RMSDP=4.25D-03 MaxDP=1.84D-01 DE=-1.77D-02 OVMax= 1.85D-01

 Cycle   4  Pass 1  IDiag  1:
 E= -1136.09365495189     Delta-E=        0.001936193356 Rises=F Damp=F
 DIIS: error= 4.13D-03 at cycle   4 NSaved=   4.
 NSaved= 4 IEnMin= 3 EnMin= -1136.09559114525     IErMin= 4 ErrMin= 4.13D-03
 ErrMax= 4.13D-03  0.00D+00 EMaxC= 1.00D-01 BMatC= 7.84D-03 BMatP= 7.24D-03
 IDIUse=3 WtCom= 9.59D-01 WtEn= 4.13D-02
 Coeff-Com: -0.330D-01 0.532D-01 0.505D+00 0.475D+00
 Coeff-En:   0.000D+00 0.000D+00 0.545D+00 0.455D+00
 Coeff:     -0.317D-01 0.510D-01 0.506D+00 0.474D+00
 Gap=     0.053 Goal=   None    Shift=    0.000
 Gap=     0.044 Goal=   None    Shift=    0.000
 RMSDP=1.91D-03 MaxDP=7.67D-02 DE= 1.94D-03 OVMax= 1.21D-01

 Cycle   5  Pass 1  IDiag  1:
 E= -1136.10216674825     Delta-E=       -0.008511796356 Rises=F Damp=F
 DIIS: error= 1.12D-03 at cycle   5 NSaved=   5.
 NSaved= 5 IEnMin= 5 EnMin= -1136.10216674825     IErMin= 5 ErrMin= 1.12D-03
 ErrMax= 1.12D-03  0.00D+00 EMaxC= 1.00D-01 BMatC= 4.85D-04 BMatP= 7.24D-03
 IDIUse=3 WtCom= 9.89D-01 WtEn= 1.12D-02
 Coeff-Com: -0.840D-02 0.101D-01 0.286D+00 0.304D+00 0.409D+00
 Coeff-En:   0.000D+00 0.000D+00 0.000D+00 0.189D-01 0.981D+00
 Coeff:     -0.831D-02 0.100D-01 0.282D+00 0.301D+00 0.415D+00
 Gap=     0.052 Goal=   None    Shift=    0.000
 Gap=     0.046 Goal=   None    Shift=    0.000
 RMSDP=4.76D-04 MaxDP=1.81D-02 DE=-8.51D-03 OVMax= 2.55D-02

 Cycle   6  Pass 1  IDiag  1:
 E= -1136.10273646106     Delta-E=       -0.000569712810 Rises=F Damp=F
 DIIS: error= 1.35D-04 at cycle   6 NSaved=   6.
 NSaved= 6 IEnMin= 6 EnMin= -1136.10273646106     IErMin= 6 ErrMin= 1.35D-04
 ErrMax= 1.35D-04  0.00D+00 EMaxC= 1.00D-01 BMatC= 6.38D-06 BMatP= 4.85D-04
 IDIUse=3 WtCom= 9.99D-01 WtEn= 1.35D-03
 Coeff-Com: -0.208D-02 0.214D-02-0.816D-02-0.668D-02 0.764D-01 0.938D+00
 Coeff-En:   0.000D+00 0.000D+00 0.000D+00 0.000D+00 0.000D+00 0.100D+01
 Coeff:     -0.207D-02 0.213D-02-0.815D-02-0.667D-02 0.763D-01 0.938D+00
 Gap=     0.053 Goal=   None    Shift=    0.000
 Gap=     0.046 Goal=   None    Shift=    0.000
 RMSDP=1.51D-04 MaxDP=5.28D-03 DE=-5.70D-04 OVMax= 6.08D-03

 Cycle   7  Pass 1  IDiag  1:
 E= -1136.10274919906     Delta-E=       -0.000012738002 Rises=F Damp=F
 DIIS: error= 7.35D-05 at cycle   7 NSaved=   7.
 NSaved= 7 IEnMin= 7 EnMin= -1136.10274919906     IErMin= 7 ErrMin= 7.35D-05
 ErrMax= 7.35D-05  0.00D+00 EMaxC= 1.00D-01 BMatC= 1.58D-06 BMatP= 6.38D-06
 IDIUse=1 WtCom= 1.00D+00 WtEn= 0.00D+00
 Coeff-Com: -0.310D-03 0.150D-03-0.178D-01-0.187D-01 0.104D-01 0.404D+00
 Coeff-Com:  0.623D+00
 Coeff:     -0.310D-03 0.150D-03-0.178D-01-0.187D-01 0.104D-01 0.404D+00
 Coeff:      0.623D+00
 Gap=     0.053 Goal=   None    Shift=    0.000
 Gap=     0.046 Goal=   None    Shift=    0.000
 RMSDP=5.42D-05 MaxDP=2.40D-03 DE=-1.27D-05 OVMax= 2.75D-03

 Cycle   8  Pass 1  IDiag  1:
 E= -1136.10275245862     Delta-E=       -0.000003259560 Rises=F Damp=F
 DIIS: error= 4.95D-05 at cycle   8 NSaved=   8.
 NSaved= 8 IEnMin= 8 EnMin= -1136.10275245862     IErMin= 8 ErrMin= 4.95D-05
 ErrMax= 4.95D-05  0.00D+00 EMaxC= 1.00D-01 BMatC= 5.86D-07 BMatP= 1.58D-06
 IDIUse=1 WtCom= 1.00D+00 WtEn= 0.00D+00
 Coeff-Com:  0.516D-03-0.672D-03-0.889D-02-0.946D-02-0.156D-01-0.241D-01
 Coeff-Com:  0.334D+00 0.724D+00
 Coeff:      0.516D-03-0.672D-03-0.889D-02-0.946D-02-0.156D-01-0.241D-01
 Coeff:      0.334D+00 0.724D+00
 Gap=     0.053 Goal=   None    Shift=    0.000
 Gap=     0.046 Goal=   None    Shift=    0.000
 RMSDP=4.78D-05 MaxDP=1.62D-03 DE=-3.26D-06 OVMax= 2.58D-03

 Cycle   9  Pass 1  IDiag  1:
 E= -1136.10275475151     Delta-E=       -0.000002292892 Rises=F Damp=F
 DIIS: error= 2.46D-05 at cycle   9 NSaved=   9.
 NSaved= 9 IEnMin= 9 EnMin= -1136.10275475151     IErMin= 9 ErrMin= 2.46D-05
 ErrMax= 2.46D-05  0.00D+00 EMaxC= 1.00D-01 BMatC= 1.51D-07 BMatP= 5.86D-07
 IDIUse=1 WtCom= 1.00D+00 WtEn= 0.00D+00
 Coeff-Com:  0.394D-03-0.443D-03 0.887D-03 0.182D-02-0.809D-02-0.114D+00
 Coeff-Com: -0.157D+00 0.131D+00 0.114D+01
 Coeff:      0.394D-03-0.443D-03 0.887D-03 0.182D-02-0.809D-02-0.114D+00
 Coeff:     -0.157D+00 0.131D+00 0.114D+01
 Gap=     0.053 Goal=   None    Shift=    0.000
 Gap=     0.047 Goal=   None    Shift=    0.000
 RMSDP=4.56D-05 MaxDP=1.74D-03 DE=-2.29D-06 OVMax= 3.08D-03

 Cycle  10  Pass 1  IDiag  1:
 E= -1136.10275627574     Delta-E=       -0.000001524229 Rises=F Damp=F
 DIIS: error= 1.75D-05 at cycle  10 NSaved=  10.
 NSaved=10 IEnMin=10 EnMin= -1136.10275627574     IErMin=10 ErrMin= 1.75D-05
 ErrMax= 1.75D-05  0.00D+00 EMaxC= 1.00D-01 BMatC= 7.99D-08 BMatP= 1.51D-07
 IDIUse=1 WtCom= 1.00D+00 WtEn= 0.00D+00
 Coeff-Com:  0.721D-04-0.507D-04 0.299D-02 0.354D-02-0.438D-03-0.501D-01
 Coeff-Com: -0.173D+00-0.145D+00 0.612D+00 0.750D+00
 Coeff:      0.721D-04-0.507D-04 0.299D-02 0.354D-02-0.438D-03-0.501D-01
 Coeff:     -0.173D+00-0.145D+00 0.612D+00 0.750D+00
 Gap=     0.053 Goal=   None    Shift=    0.000
 Gap=     0.047 Goal=   None    Shift=    0.000
 RMSDP=2.45D-05 MaxDP=1.20D-03 DE=-1.52D-06 OVMax= 1.70D-03

 Cycle  11  Pass 1  IDiag  1:
 E= -1136.10275682255     Delta-E=       -0.000000546807 Rises=F Damp=F
 DIIS: error= 1.07D-05 at cycle  11 NSaved=  11.
 NSaved=11 IEnMin=11 EnMin= -1136.10275682255     IErMin=11 ErrMin= 1.07D-05
 ErrMax= 1.07D-05  0.00D+00 EMaxC= 1.00D-01 BMatC= 2.55D-08 BMatP= 7.99D-08
 IDIUse=1 WtCom= 1.00D+00 WtEn= 0.00D+00
 Coeff-Com: -0.271D-03 0.350D-03 0.113D-02 0.404D-03 0.420D-02 0.452D-01
 Coeff-Com:  0.309D-01-0.129D+00-0.475D+00 0.270D+00 0.125D+01
 Coeff:     -0.271D-03 0.350D-03 0.113D-02 0.404D-03 0.420D-02 0.452D-01
 Coeff:      0.309D-01-0.129D+00-0.475D+00 0.270D+00 0.125D+01
 Gap=     0.053 Goal=   None    Shift=    0.000
 Gap=     0.047 Goal=   None    Shift=    0.000
 RMSDP=2.68D-05 MaxDP=1.11D-03 DE=-5.47D-07 OVMax= 1.93D-03

 Cycle  12  Pass 1  IDiag  1:
 E= -1136.10275715634     Delta-E=       -0.000000333791 Rises=F Damp=F
 DIIS: error= 3.88D-06 at cycle  12 NSaved=  12.
 NSaved=12 IEnMin=12 EnMin= -1136.10275715634     IErMin=12 ErrMin= 3.88D-06
 ErrMax= 3.88D-06  0.00D+00 EMaxC= 1.00D-01 BMatC= 4.51D-09 BMatP= 2.55D-08
 IDIUse=1 WtCom= 1.00D+00 WtEn= 0.00D+00
 Coeff-Com: -0.994D-04 0.122D-03-0.430D-03-0.491D-03 0.138D-02 0.164D-01
 Coeff-Com:  0.386D-01 0.354D-01-0.185D+00-0.174D+00 0.133D+00 0.114D+01
 Coeff:     -0.994D-04 0.122D-03-0.430D-03-0.491D-03 0.138D-02 0.164D-01
 Coeff:      0.386D-01 0.354D-01-0.185D+00-0.174D+00 0.133D+00 0.114D+01
 Gap=     0.053 Goal=   None    Shift=    0.000
 Gap=     0.047 Goal=   None    Shift=    0.000
 RMSDP=9.72D-06 MaxDP=3.84D-04 DE=-3.34D-07 OVMax= 6.99D-04

 Cycle  13  Pass 1  IDiag  1:
 E= -1136.10275720861     Delta-E=       -0.000000052270 Rises=F Damp=F
 DIIS: error= 1.51D-06 at cycle  13 NSaved=  13.
 NSaved=13 IEnMin=13 EnMin= -1136.10275720861     IErMin=13 ErrMin= 1.51D-06
 ErrMax= 1.51D-06  0.00D+00 EMaxC= 1.00D-01 BMatC= 1.12D-09 BMatP= 4.51D-09
 IDIUse=1 WtCom= 1.00D+00 WtEn= 0.00D+00
 Coeff-Com:  0.524D-04-0.705D-04-0.494D-03-0.237D-03-0.852D-03-0.707D-02
 Coeff-Com:  0.297D-02 0.365D-01 0.794D-01-0.991D-01-0.304D+00 0.248D+00
 Coeff-Com:  0.105D+01
 Coeff:      0.524D-04-0.705D-04-0.494D-03-0.237D-03-0.852D-03-0.707D-02
 Coeff:      0.297D-02 0.365D-01 0.794D-01-0.991D-01-0.304D+00 0.248D+00
 Coeff:      0.105D+01
 Gap=     0.053 Goal=   None    Shift=    0.000
 Gap=     0.047 Goal=   None    Shift=    0.000
 RMSDP=4.35D-06 MaxDP=1.79D-04 DE=-5.23D-08 OVMax= 2.89D-04

 Cycle  14  Pass 1  IDiag  1:
 E= -1136.10275721945     Delta-E=       -0.000000010837 Rises=F Damp=F
 DIIS: error= 6.53D-07 at cycle  14 NSaved=  14.
 NSaved=14 IEnMin=14 EnMin= -1136.10275721945     IErMin=14 ErrMin= 6.53D-07
 ErrMax= 6.53D-07  0.00D+00 EMaxC= 1.00D-01 BMatC= 2.07D-10 BMatP= 1.12D-09
 IDIUse=1 WtCom= 1.00D+00 WtEn= 0.00D+00
 Coeff-Com:  0.397D-04-0.502D-04 0.131D-03 0.665D-04-0.388D-03-0.395D-02
 Coeff-Com: -0.105D-01-0.830D-02 0.399D-01 0.400D-01-0.159D-02-0.312D+00
 Coeff-Com: -0.298D-01 0.129D+01
 Coeff:      0.397D-04-0.502D-04 0.131D-03 0.665D-04-0.388D-03-0.395D-02
 Coeff:     -0.105D-01-0.830D-02 0.399D-01 0.400D-01-0.159D-02-0.312D+00
 Coeff:     -0.298D-01 0.129D+01
 Gap=     0.053 Goal=   None    Shift=    0.000
 Gap=     0.047 Goal=   None    Shift=    0.000
 RMSDP=2.44D-06 MaxDP=9.27D-05 DE=-1.08D-08 OVMax= 1.29D-04

 Cycle  15  Pass 1  IDiag  1:
 E= -1136.10275722156     Delta-E=       -0.000000002116 Rises=F Damp=F
 DIIS: error= 2.43D-07 at cycle  15 NSaved=  15.
 NSaved=15 IEnMin=15 EnMin= -1136.10275722156     IErMin=15 ErrMin= 2.43D-07
 ErrMax= 2.43D-07  0.00D+00 EMaxC= 1.00D-01 BMatC= 2.09D-11 BMatP= 2.07D-10
 IDIUse=1 WtCom= 1.00D+00 WtEn= 0.00D+00
 Coeff-Com: -0.195D-04 0.259D-04 0.546D-04 0.200D-04 0.192D-03 0.172D-02
 Coeff-Com:  0.149D-02-0.319D-02-0.201D-01 0.887D-02 0.493D-01 0.193D-02
 Coeff-Com: -0.165D+00-0.106D+00 0.123D+01
 Coeff:     -0.195D-04 0.259D-04 0.546D-04 0.200D-04 0.192D-03 0.172D-02
 Coeff:      0.149D-02-0.319D-02-0.201D-01 0.887D-02 0.493D-01 0.193D-02
 Coeff:     -0.165D+00-0.106D+00 0.123D+01
 Gap=     0.053 Goal=   None    Shift=    0.000
 Gap=     0.047 Goal=   None    Shift=    0.000
 RMSDP=7.52D-07 MaxDP=3.64D-05 DE=-2.12D-09 OVMax= 3.64D-05

 Cycle  16  Pass 1  IDiag  1:
 E= -1136.10275722177     Delta-E=       -0.000000000202 Rises=F Damp=F
 DIIS: error= 8.28D-08 at cycle  16 NSaved=  16.
 NSaved=16 IEnMin=16 EnMin= -1136.10275722177     IErMin=16 ErrMin= 8.28D-08
 ErrMax= 8.28D-08  0.00D+00 EMaxC= 1.00D-01 BMatC= 2.98D-12 BMatP= 2.09D-11
 IDIUse=1 WtCom= 1.00D+00 WtEn= 0.00D+00
 Coeff-Com: -0.409D-05 0.511D-05-0.146D-04-0.257D-05 0.404D-04 0.492D-03
 Coeff-Com:  0.149D-02 0.119D-02-0.435D-02-0.583D-02-0.304D-02 0.439D-01
 Coeff-Com:  0.184D-01-0.190D+00-0.205D-01 0.116D+01
 Coeff:     -0.409D-05 0.511D-05-0.146D-04-0.257D-05 0.404D-04 0.492D-03
 Coeff:      0.149D-02 0.119D-02-0.435D-02-0.583D-02-0.304D-02 0.439D-01
 Coeff:      0.184D-01-0.190D+00-0.205D-01 0.116D+01
 Gap=     0.053 Goal=   None    Shift=    0.000
 Gap=     0.047 Goal=   None    Shift=    0.000
 RMSDP=2.05D-07 MaxDP=9.56D-06 DE=-2.02D-10 OVMax= 1.29D-05

 Cycle  17  Pass 1  IDiag  1:
 E= -1136.10275722179     Delta-E=       -0.000000000027 Rises=F Damp=F
 DIIS: error= 3.64D-08 at cycle  17 NSaved=  17.
 NSaved=17 IEnMin=17 EnMin= -1136.10275722179     IErMin=17 ErrMin= 3.64D-08
 ErrMax= 3.64D-08  0.00D+00 EMaxC= 1.00D-01 BMatC= 6.10D-13 BMatP= 2.98D-12
 IDIUse=1 WtCom= 1.00D+00 WtEn= 0.00D+00
 Coeff-Com:  0.271D-05-0.361D-05-0.998D-05-0.399D-05-0.194D-04-0.224D-03
 Coeff-Com: -0.749D-04 0.654D-03 0.292D-02-0.271D-02-0.832D-02 0.738D-02
 Coeff-Com:  0.274D-01-0.143D-01-0.167D+00 0.108D+00 0.105D+01
 Coeff:      0.271D-05-0.361D-05-0.998D-05-0.399D-05-0.194D-04-0.224D-03
 Coeff:     -0.749D-04 0.654D-03 0.292D-02-0.271D-02-0.832D-02 0.738D-02
 Coeff:      0.274D-01-0.143D-01-0.167D+00 0.108D+00 0.105D+01
 Gap=     0.053 Goal=   None    Shift=    0.000
 Gap=     0.047 Goal=   None    Shift=    0.000
 RMSDP=5.66D-08 MaxDP=2.75D-06 DE=-2.68D-11 OVMax= 5.03D-06

 Cycle  18  Pass 1  IDiag  1:
 E= -1136.10275722181     Delta-E=       -0.000000000020 Rises=F Damp=F
 DIIS: error= 2.13D-08 at cycle  18 NSaved=  18.
 NSaved=18 IEnMin=18 EnMin= -1136.10275722181     IErMin=18 ErrMin= 2.13D-08
 ErrMax= 2.13D-08  0.00D+00 EMaxC= 1.00D-01 BMatC= 1.60D-13 BMatP= 6.10D-13
 IDIUse=1 WtCom= 1.00D+00 WtEn= 0.00D+00
 Coeff-Com:  0.139D-05-0.179D-05 0.537D-07-0.148D-05-0.133D-04-0.129D-03
 Coeff-Com: -0.346D-03-0.220D-03 0.136D-02 0.960D-03-0.307D-03-0.935D-02
 Coeff-Com: -0.790D-03 0.446D-01-0.268D-01-0.235D+00 0.179D+00 0.105D+01
 Coeff:      0.139D-05-0.179D-05 0.537D-07-0.148D-05-0.133D-04-0.129D-03
 Coeff:     -0.346D-03-0.220D-03 0.136D-02 0.960D-03-0.307D-03-0.935D-02
 Coeff:     -0.790D-03 0.446D-01-0.268D-01-0.235D+00 0.179D+00 0.105D+01
 Gap=     0.053 Goal=   None    Shift=    0.000
 Gap=     0.047 Goal=   None    Shift=    0.000
 RMSDP=3.00D-08 MaxDP=1.38D-06 DE=-2.00D-11 OVMax= 2.37D-06

 Cycle  19  Pass 1  IDiag  1:
 E= -1136.10275722180     Delta-E=        0.000000000014 Rises=F Damp=F
 DIIS: error= 1.07D-08 at cycle  19 NSaved=  19.
 NSaved=19 IEnMin=18 EnMin= -1136.10275722181     IErMin=19 ErrMin= 1.07D-08
 ErrMax= 1.07D-08  0.00D+00 EMaxC= 1.00D-01 BMatC= 3.68D-14 BMatP= 1.60D-13
 IDIUse=1 WtCom= 1.00D+00 WtEn= 0.00D+00
 Coeff-Com: -0.843D-06 0.112D-05 0.138D-05 0.449D-06 0.418D-05 0.653D-04
 Coeff-Com:  0.657D-04-0.103D-03-0.774D-03 0.527D-03 0.166D-02-0.841D-03
 Coeff-Com: -0.630D-02 0.736D-03 0.417D-01-0.195D-01-0.294D+00 0.463D-01
 Coeff-Com:  0.123D+01
 Coeff:     -0.843D-06 0.112D-05 0.138D-05 0.449D-06 0.418D-05 0.653D-04
 Coeff:      0.657D-04-0.103D-03-0.774D-03 0.527D-03 0.166D-02-0.841D-03
 Coeff:     -0.630D-02 0.736D-03 0.417D-01-0.195D-01-0.294D+00 0.463D-01
 Coeff:      0.123D+01
 Gap=     0.053 Goal=   None    Shift=    0.000
 Gap=     0.047 Goal=   None    Shift=    0.000
 RMSDP=2.28D-08 MaxDP=1.07D-06 DE= 1.41D-11 OVMax= 1.47D-06

 Cycle  20  Pass 1  IDiag  1:
 E= -1136.10275722181     Delta-E=       -0.000000000009 Rises=F Damp=F
 DIIS: error= 5.44D-09 at cycle  20 NSaved=  20.
 NSaved=20 IEnMin=18 EnMin= -1136.10275722181     IErMin=20 ErrMin= 5.44D-09
 ErrMax= 5.44D-09  0.00D+00 EMaxC= 1.00D-01 BMatC= 6.84D-15 BMatP= 3.68D-14
 IDIUse=1 WtCom= 1.00D+00 WtEn= 0.00D+00
 Large coefficients: NSaved= 20 BigCof=    0.00 CofMax=   10.00 Det=-7.73D-15
 Inversion failed.  Reducing to 19 matrices.
 Large coefficients: NSaved= 19 BigCof=    0.00 CofMax=   10.00 Det=-9.70D-15
 Inversion failed.  Reducing to 18 matrices.
 Large coefficients: NSaved= 18 BigCof=    0.00 CofMax=   10.00 Det=-9.89D-15
 Inversion failed.  Reducing to 17 matrices.
 Large coefficients: NSaved= 17 BigCof=    0.00 CofMax=   10.00 Det=-9.89D-15
 Inversion failed.  Reducing to 16 matrices.
 Coeff-Com:  0.122D-05 0.870D-05 0.392D-04 0.173D-05-0.754D-04-0.588D-04
 Coeff-Com: -0.149D-03 0.980D-03 0.742D-03-0.524D-02 0.281D-03 0.361D-01
 Coeff-Com: -0.117D-01-0.187D+00-0.873D-01 0.125D+01
 Coeff:      0.122D-05 0.870D-05 0.392D-04 0.173D-05-0.754D-04-0.588D-04
 Coeff:     -0.149D-03 0.980D-03 0.742D-03-0.524D-02 0.281D-03 0.361D-01
 Coeff:     -0.117D-01-0.187D+00-0.873D-01 0.125D+01
 Gap=     0.053 Goal=   None    Shift=    0.000
 Gap=     0.047 Goal=   None    Shift=    0.000
 RMSDP=1.28D-08 MaxDP=6.04D-07 DE=-9.09D-12 OVMax= 6.55D-07

 Cycle  21  Pass 1  IDiag  1:
 E= -1136.10275722179     Delta-E=        0.000000000015 Rises=F Damp=F
 DIIS: error= 1.84D-09 at cycle  21 NSaved=  17.
 NSaved=17 IEnMin=14 EnMin= -1136.10275722181     IErMin=17 ErrMin= 1.84D-09
 ErrMax= 1.84D-09  0.00D+00 EMaxC= 1.00D-01 BMatC= 1.29D-15 BMatP= 6.84D-15
 IDIUse=1 WtCom= 1.00D+00 WtEn= 0.00D+00
 Large coefficients: NSaved= 17 BigCof=    0.00 CofMax=   10.00 Det=-1.57D-15
 Inversion failed.  Reducing to 16 matrices.
 Large coefficients: NSaved= 16 BigCof=    0.00 CofMax=   10.00 Det=-1.62D-15
 Inversion failed.  Reducing to 15 matrices.
 Coeff-Com: -0.681D-05 0.352D-05 0.256D-04-0.455D-04-0.135D-04 0.109D-03
 Coeff-Com:  0.252D-03-0.330D-03-0.332D-02 0.344D-02 0.325D-01-0.887D-02
 Coeff-Com: -0.160D+00-0.155D-01 0.115D+01
 Coeff:     -0.681D-05 0.352D-05 0.256D-04-0.455D-04-0.135D-04 0.109D-03
 Coeff:      0.252D-03-0.330D-03-0.332D-02 0.344D-02 0.325D-01-0.887D-02
 Coeff:     -0.160D+00-0.155D-01 0.115D+01
 Gap=     0.053 Goal=   None    Shift=    0.000
 Gap=     0.047 Goal=   None    Shift=    0.000
 RMSDP=4.79D-09 MaxDP=2.17D-07 DE= 1.50D-11 OVMax= 2.71D-07

 SCF Done:  E(UB3LYP) =  -1136.10275722     A.U. after   21 cycles
            NFock= 21  Conv=0.48D-08     -V/T= 2.0027
 <Sx>= 0.0000 <Sy>= 0.0000 <Sz>= 0.5000 <S**2>= 0.7672 S= 0.5086
 <L.S>= 0.000000000000E+00
 KE= 1.133067418368D+03 PE=-3.415345164760D+03 EE= 8.031106196295D+02
 Annihilation of the first spin contaminant:
 S**2 before annihilation     0.7672,   after     0.7502
 Leave Link  502 at Mon Nov 13 18:32:27 2023, MaxMem=  1879048192 cpu:             202.1 elap:              17.2
 (Enter /home/sekinelabo/g16/l601.exe)
 Copying SCF densities to generalized density rwf, IOpCl= 1 IROHF=0.

 **********************************************************************

            Population analysis using the SCF Density.

 **********************************************************************

 Orbital symmetries:
 Alpha Orbitals:
       Occupied  (A) (A) (A) (A) (A) (A) (A) (A) (A) (A) (A) (A)
                 (A) (A) (A) (A) (A) (A) (A) (A) (A) (A) (A) (A)
                 (A) (A) (A) (A) (A) (A) (A) (A) (A) (A) (A) (A)
                 (A) (A) (A)
       Virtual   (A) (A) (A) (A) (A) (A) (A) (A) (A) (A) (A) (A)
                 (A) (A) (A) (A) (A) (A) (A) (A) (A) (A) (A) (A)
                 (A) (A) (A) (A) (A) (A) (A) (A) (A) (A) (A) (A)
                 (A) (A) (A) (A) (A) (A) (A) (A) (A) (A) (A) (A)
                 (A) (A) (A) (A) (A) (A) (A) (A) (A) (A) (A) (A)
                 (A) (A) (A) (A) (A) (A) (A) (A) (A) (A) (A) (A)
                 (A) (A) (A) (A) (A) (A) (A) (A) (A) (A) (A) (A)
                 (A) (A) (A) (A) (A) (A) (A) (A) (A) (A) (A) (A)
                 (A) (A) (A) (A) (A) (A) (A) (A) (A) (A) (A) (A)
                 (A) (A) (A) (A) (A) (A) (A) (A) (A) (A) (A) (A)
                 (A) (A) (A) (A) (A) (A) (A) (A) (A) (A) (A) (A)
                 (A) (A) (A) (A) (A) (A) (A) (A) (A) (A) (A) (A)
                 (A) (A) (A) (A) (A) (A) (A) (A) (A) (A) (A) (A)
                 (A) (A) (A) (A) (A) (A) (A) (A) (A) (A) (A) (A)
                 (A)
 Beta  Orbitals:
       Occupied  (A) (A) (A) (A) (A) (A) (A) (A) (A) (A) (A) (A)
                 (A) (A) (A) (A) (A) (A) (A) (A) (A) (A) (A) (A)
                 (A) (A) (A) (A) (A) (A) (A) (A) (A) (A) (A) (A)
                 (A) (A)
       Virtual   (A) (A) (A) (A) (A) (A) (A) (A) (A) (A) (A) (A)
                 (A) (A) (A) (A) (A) (A) (A) (A) (A) (A) (A) (A)
                 (A) (A) (A) (A) (A) (A) (A) (A) (A) (A) (A) (A)
                 (A) (A) (A) (A) (A) (A) (A) (A) (A) (A) (A) (A)
                 (A) (A) (A) (A) (A) (A) (A) (A) (A) (A) (A) (A)
                 (A) (A) (A) (A) (A) (A) (A) (A) (A) (A) (A) (A)
                 (A) (A) (A) (A) (A) (A) (A) (A) (A) (A) (A) (A)
                 (A) (A) (A) (A) (A) (A) (A) (A) (A) (A) (A) (A)
                 (A) (A) (A) (A) (A) (A) (A) (A) (A) (A) (A) (A)
                 (A) (A) (A) (A) (A) (A) (A) (A) (A) (A) (A) (A)
                 (A) (A) (A) (A) (A) (A) (A) (A) (A) (A) (A) (A)
                 (A) (A) (A) (A) (A) (A) (A) (A) (A) (A) (A) (A)
                 (A) (A) (A) (A) (A) (A) (A) (A) (A) (A) (A) (A)
                 (A) (A) (A) (A) (A) (A) (A) (A) (A) (A) (A) (A)
                 (A) (A)
 The electronic state is 2-A.
 Alpha  occ. eigenvalues --  -38.44720 -38.44717 -38.44424 -38.44368 -38.44135
 Alpha  occ. eigenvalues --  -38.43466 -38.42887  -2.20649  -2.20635  -2.20366
 Alpha  occ. eigenvalues --   -2.20210  -2.19923  -2.19450  -2.18971  -1.14376
 Alpha  occ. eigenvalues --   -1.14341  -1.14330  -1.14311  -1.14242  -1.14225
 Alpha  occ. eigenvalues --   -1.14062  -1.13999  -1.13943  -1.13926  -1.13856
 Alpha  occ. eigenvalues --   -1.13847  -1.13635  -1.13568  -1.13561  -1.13174
 Alpha  occ. eigenvalues --   -1.13102  -1.13051  -1.12657  -1.12619  -1.12587
 Alpha  occ. eigenvalues --   -0.19257  -0.12908  -0.12050  -0.11513
 Alpha virt. eigenvalues --   -0.06245  -0.06013  -0.03268  -0.03143  -0.02977
 Alpha virt. eigenvalues --   -0.02722  -0.02007  -0.01617  -0.00232  -0.00008
 Alpha virt. eigenvalues --    0.00140   0.00202   0.00590   0.00628   0.00738
 Alpha virt. eigenvalues --    0.00945   0.01037   0.01301   0.01368   0.01379
 Alpha virt. eigenvalues --    0.01424   0.01566   0.01776   0.01835   0.02040
 Alpha virt. eigenvalues --    0.02379   0.02484   0.02535   0.02651   0.02678
 Alpha virt. eigenvalues --    0.02730   0.02870   0.02889   0.02923   0.03119
 Alpha virt. eigenvalues --    0.03179   0.03428   0.03581   0.03662   0.04090
 Alpha virt. eigenvalues --    0.04278   0.04650   0.04720   0.04950   0.05017
 Alpha virt. eigenvalues --    0.05192   0.05322   0.05549   0.06116   0.06598
 Alpha virt. eigenvalues --    0.06804   0.07325   0.07427   0.07465   0.08078
 Alpha virt. eigenvalues --    0.08552   0.08624   0.08718   0.09206   0.09485
 Alpha virt. eigenvalues --    0.09521   0.09921   0.10270   0.11591   0.12152
 Alpha virt. eigenvalues --    0.12444   0.12977   0.13481   0.13693   0.13879
 Alpha virt. eigenvalues --    0.14192   0.14644   0.15083   0.15495   0.15955
 Alpha virt. eigenvalues --    0.16731   0.18488   0.19980   0.25192   0.26326
 Alpha virt. eigenvalues --    0.27811   0.28798   0.29416   0.29966   0.30414
 Alpha virt. eigenvalues --    0.31180   0.32105   0.33997   0.35506   0.36117
 Alpha virt. eigenvalues --    0.36352   0.36725   0.37600   0.38352   0.39295
 Alpha virt. eigenvalues --    0.39804   0.40899   0.41000   0.42123   0.42920
 Alpha virt. eigenvalues --    0.43190   0.43631   0.44149   0.44499   0.44817
 Alpha virt. eigenvalues --    0.45162   0.45220   0.46468   0.46657   0.47479
 Alpha virt. eigenvalues --    0.47713   0.48658   0.49249   0.50178   0.50840
 Alpha virt. eigenvalues --    0.51064   0.51483   0.51601   0.52855   0.53913
 Alpha virt. eigenvalues --    0.54822   0.55604   0.56445   0.57191   0.58531
 Alpha virt. eigenvalues --    0.59202   0.65063   0.67653   0.69527   0.72558
 Alpha virt. eigenvalues --    0.74507   0.76026   0.78324   0.83014   2.08017
 Alpha virt. eigenvalues --    2.10813   2.12960   2.19221   2.21003   2.25591
 Alpha virt. eigenvalues --    2.33254   4.41627   4.41919   4.42556   4.42802
 Alpha virt. eigenvalues --    4.43437   4.44042   4.45141   4.45534   4.45717
 Alpha virt. eigenvalues --    4.46205   4.47050   4.47308   4.50051   4.58694
 Alpha virt. eigenvalues --    4.61522   4.63400   4.64585   4.66939   4.67697
 Alpha virt. eigenvalues --    4.70269   4.80424  96.28658  96.32156  96.35056
 Alpha virt. eigenvalues --   96.43098  96.45730  96.51554  96.62248
  Beta  occ. eigenvalues --  -38.44679 -38.44599 -38.44434 -38.44341 -38.44148
  Beta  occ. eigenvalues --  -38.43438 -38.42862  -2.20562  -2.20434  -2.20326
  Beta  occ. eigenvalues --   -2.20229  -2.19948  -2.19400  -2.18932  -1.14302
  Beta  occ. eigenvalues --   -1.14283  -1.14234  -1.14172  -1.14155  -1.14081
  Beta  occ. eigenvalues --   -1.14032  -1.13936  -1.13922  -1.13897  -1.13865
  Beta  occ. eigenvalues --   -1.13860  -1.13651  -1.13582  -1.13578  -1.13142
  Beta  occ. eigenvalues --   -1.13067  -1.13003  -1.12604  -1.12588  -1.12549
  Beta  occ. eigenvalues --   -0.18381  -0.12784  -0.11939
  Beta virt. eigenvalues --   -0.07283  -0.06081  -0.05868  -0.03156  -0.02577
  Beta virt. eigenvalues --   -0.02305  -0.02045  -0.01573  -0.01503  -0.00019
  Beta virt. eigenvalues --    0.00058   0.00148   0.00268   0.00653   0.00754
  Beta virt. eigenvalues --    0.00823   0.01058   0.01119   0.01404   0.01429
  Beta virt. eigenvalues --    0.01490   0.01520   0.01711   0.01833   0.01878
  Beta virt. eigenvalues --    0.02214   0.02403   0.02469   0.02538   0.02688
  Beta virt. eigenvalues --    0.02735   0.02809   0.02919   0.02958   0.03003
  Beta virt. eigenvalues --    0.03205   0.03305   0.03487   0.03700   0.03793
  Beta virt. eigenvalues --    0.04305   0.04452   0.04704   0.04877   0.05098
  Beta virt. eigenvalues --    0.05225   0.05321   0.05448   0.05697   0.06174
  Beta virt. eigenvalues --    0.06625   0.06918   0.07429   0.07587   0.07707
  Beta virt. eigenvalues --    0.08125   0.08594   0.08772   0.08822   0.09272
  Beta virt. eigenvalues --    0.09483   0.09790   0.10260   0.10845   0.11723
  Beta virt. eigenvalues --    0.12464   0.12827   0.13283   0.13664   0.13911
  Beta virt. eigenvalues --    0.14045   0.14486   0.14847   0.15298   0.15760
  Beta virt. eigenvalues --    0.16113   0.16846   0.18617   0.20204   0.25688
  Beta virt. eigenvalues --    0.26685   0.28189   0.29266   0.29740   0.30384
  Beta virt. eigenvalues --    0.30878   0.31358   0.32608   0.34562   0.35480
  Beta virt. eigenvalues --    0.36064   0.36377   0.36762   0.37783   0.38612
  Beta virt. eigenvalues --    0.39479   0.40073   0.41047   0.41420   0.42542
  Beta virt. eigenvalues --    0.43086   0.43474   0.43755   0.44252   0.44593
  Beta virt. eigenvalues --    0.44988   0.45273   0.45332   0.46585   0.46858
  Beta virt. eigenvalues --    0.47652   0.47894   0.48872   0.49528   0.50448
  Beta virt. eigenvalues --    0.51015   0.51412   0.51735   0.51757   0.53123
  Beta virt. eigenvalues --    0.54077   0.54955   0.55765   0.56741   0.57355
  Beta virt. eigenvalues --    0.58750   0.59325   0.65224   0.67855   0.69675
  Beta virt. eigenvalues --    0.72747   0.74676   0.76279   0.78387   0.83055
  Beta virt. eigenvalues --    2.08182   2.10801   2.12993   2.19549   2.21187
  Beta virt. eigenvalues --    2.25655   2.33335   4.41779   4.41954   4.42600
  Beta virt. eigenvalues --    4.42872   4.43523   4.44095   4.45215   4.45522
  Beta virt. eigenvalues --    4.45729   4.46205   4.47083   4.47395   4.50100
  Beta virt. eigenvalues --    4.58727   4.61560   4.63555   4.64635   4.66970
  Beta virt. eigenvalues --    4.67767   4.70311   4.80452  96.28711  96.32153
  Beta virt. eigenvalues --   96.35067  96.43201  96.45788  96.51581  96.62282
          Condensed to atoms (all electrons):
               1          2          3          4          5          6
     1  Na  11.435089   0.064787  -0.135797   0.063502  -0.169642  -0.586998
     2  Na   0.064787  10.645769  -0.137292   0.030910  -0.196477   0.038839
     3  Na  -0.135797  -0.137292  10.932055   0.128958   0.156393   0.093203
     4  Na   0.063502   0.030910   0.128958  10.995604  -0.281976   0.019512
     5  Na  -0.169642  -0.196477   0.156393  -0.281976  11.449776   0.322651
     6  Na  -0.586998   0.038839   0.093203   0.019512   0.322651  11.456937
     7  Na  -0.012827   0.202134  -0.000876  -0.024546  -0.067275   0.174109
               7
     1  Na  -0.012827
     2  Na   0.202134
     3  Na  -0.000876
     4  Na  -0.024546
     5  Na  -0.067275
     6  Na   0.174109
     7  Na  10.722185
          Atomic-Atomic Spin Densities.
               1          2          3          4          5          6
     1  Na   0.165329  -0.035621   0.042432  -0.125375   0.214147  -0.122829
     2  Na  -0.035621   0.064861   0.027560   0.070646  -0.000576   0.106778
     3  Na   0.042432   0.027560   0.020471   0.060070  -0.101336  -0.048667
     4  Na  -0.125375   0.070646   0.060070   0.181698  -0.122283   0.101879
     5  Na   0.214147  -0.000576  -0.101336  -0.122283   0.535326  -0.061039
     6  Na  -0.122829   0.106778  -0.048667   0.101879  -0.061039   0.099957
     7  Na   0.004688  -0.025486  -0.020021   0.015187   0.013472   0.004379
               7
     1  Na   0.004688
     2  Na  -0.025486
     3  Na  -0.020021
     4  Na   0.015187
     5  Na   0.013472
     6  Na   0.004379
     7  Na  -0.063654
 Mulliken charges and spin densities:
               1          2
     1  Na   0.341886   0.142771
     2  Na   0.351329   0.208162
     3  Na  -0.036645  -0.019490
     4  Na   0.068036   0.181821
     5  Na  -0.213451   0.477712
     6  Na  -0.518253   0.080459
     7  Na   0.007098  -0.071434
 Sum of Mulliken charges =  -0.00000   1.00000
 Mulliken charges and spin densities with hydrogens summed into heavy atoms:
               1          2
     1  Na   0.341886   0.142771
     2  Na   0.351329   0.208162
     3  Na  -0.036645  -0.019490
     4  Na   0.068036   0.181821
     5  Na  -0.213451   0.477712
     6  Na  -0.518253   0.080459
     7  Na   0.007098  -0.071434
 Electronic spatial extent (au):  <R**2>=           2417.5944
 Charge=             -0.0000 electrons
 Dipole moment (field-independent basis, Debye):
    X=             -0.0675    Y=             -0.1514    Z=              0.5606  Tot=              0.5846
 Quadrupole moment (field-independent basis, Debye-Ang):
   XX=            -52.9186   YY=            -69.3725   ZZ=            -70.9095
   XY=             -0.7959   XZ=              3.5443   YZ=             -2.3215
 Traceless Quadrupole moment (field-independent basis, Debye-Ang):
   XX=             11.4816   YY=             -4.9723   ZZ=             -6.5093
   XY=             -0.7959   XZ=              3.5443   YZ=             -2.3215
 Octapole moment (field-independent basis, Debye-Ang**2):
  XXX=             13.0385  YYY=             -2.8098  ZZZ=             10.5489  XYY=             12.6139
  XXY=              5.8932  XXZ=             -2.5097  XZZ=             -3.2456  YZZ=              1.1376
  YYZ=              2.8990  XYZ=              0.1971
 Hexadecapole moment (field-independent basis, Debye-Ang**3):
 XXXX=          -1649.0138 YYYY=          -1607.9125 ZZZZ=           -757.3359 XXXY=            -25.1881
 XXXZ=             61.3844 YYYX=             18.2634 YYYZ=            -32.8770 ZZZX=             13.3034
 ZZZY=              6.4219 XXYY=           -399.8765 XXZZ=           -470.0752 YYZZ=           -415.8068
 XXYZ=            -43.7504 YYXZ=             21.2433 ZZXY=            -13.0848
 N-N= 3.430643695410D+02 E-N=-3.415345164534D+03  KE= 1.133067418368D+03
                          Isotropic Fermi Contact Couplings
        Atom                 a.u.       MegaHertz       Gauss      10(-4) cm-1
     1  Na(23)             0.01658      19.61753       7.00002       6.54370
     2  Na(23)             0.14882     176.05783      62.82181      58.72657
     3  Na(23)            -0.04836     -57.21178     -20.41459     -19.08380
     4  Na(23)             0.09588     113.42408      40.47253      37.83420
     5  Na(23)             0.48793     577.23191     205.97070     192.54384
     6  Na(23)             0.03019      35.71397      12.74363      11.91290
     7  Na(23)            -0.06326     -74.84044     -26.70493     -24.96408
 --------------------------------------------------------
       Center         ----  Spin Dipole Couplings  ----
                      3XX-RR        3YY-RR        3ZZ-RR
 --------------------------------------------------------
     1   Atom       -0.029546     -0.039857      0.069403
     2   Atom       -0.003024     -0.008086      0.011109
     3   Atom       -0.001439     -0.002680      0.004119
     4   Atom       -0.006585     -0.001171      0.007756
     5   Atom        0.002147      0.011304     -0.013452
     6   Atom       -0.029814     -0.030549      0.060363
     7   Atom       -0.000407     -0.001839      0.002246
 --------------------------------------------------------
                        XY            XZ            YZ
 --------------------------------------------------------
     1   Atom       -0.000181      0.023405      0.004264
     2   Atom        0.001085     -0.015676      0.008568
     3   Atom       -0.002067     -0.000072     -0.000261
     4   Atom       -0.000832      0.007919     -0.011149
     5   Atom        0.008362     -0.003953      0.000095
     6   Atom       -0.007913      0.021637      0.002554
     7   Atom        0.002467     -0.000067     -0.000256
 --------------------------------------------------------


 ---------------------------------------------------------------------------------
              Anisotropic Spin Dipole Couplings in Principal Axis System
 ---------------------------------------------------------------------------------

       Atom             a.u.   MegaHertz   Gauss  10(-4) cm-1        Axes

              Baa    -0.0402    -5.681    -2.027    -1.895  0.1879  0.9791 -0.0782
     1 Na(23) Bbb    -0.0346    -4.883    -1.742    -1.629  0.9575 -0.2003 -0.2073
              Bcc     0.0748    10.564     3.769     3.524  0.2186  0.0359  0.9751
 
              Baa    -0.0171    -2.413    -0.861    -0.805  0.6286 -0.5747  0.5241
     2 Na(23) Bbb    -0.0056    -0.792    -0.283    -0.264  0.5944  0.7895  0.1528
              Bcc     0.0227     3.205     1.144     1.069 -0.5016  0.2155  0.8378
 
              Baa    -0.0042    -0.597    -0.213    -0.199  0.5960  0.8024  0.0302
     3 Na(23) Bbb     0.0001     0.014     0.005     0.005  0.8030 -0.5955 -0.0243
              Bcc     0.0041     0.583     0.208     0.195  0.0015 -0.0387  0.9992
 
              Baa    -0.0123    -1.737    -0.620    -0.579  0.6803 -0.4927 -0.5426
     4 Na(23) Bbb    -0.0051    -0.721    -0.257    -0.241  0.6745  0.7105  0.2005
              Bcc     0.0174     2.458     0.877     0.820  0.2867 -0.5024  0.8157
 
              Baa    -0.0146    -2.059    -0.735    -0.687  0.2720 -0.0914  0.9579
     5 Na(23) Bbb    -0.0018    -0.255    -0.091    -0.085  0.8104 -0.5150 -0.2792
              Bcc     0.0164     2.314     0.826     0.772  0.5188  0.8523 -0.0660
 
              Baa    -0.0412    -5.816    -2.075    -1.940  0.7683  0.6145 -0.1792
     6 Na(23) Bbb    -0.0241    -3.404    -1.215    -1.135 -0.6006  0.7889  0.1300
              Bcc     0.0653     9.220     3.290     3.075  0.2212  0.0077  0.9752
 
              Baa    -0.0037    -0.522    -0.186    -0.174 -0.5994  0.8000  0.0276
     7 Na(23) Bbb     0.0014     0.197     0.070     0.066  0.7817  0.5775  0.2356
              Bcc     0.0023     0.325     0.116     0.108 -0.1725 -0.1628  0.9715
 

 ---------------------------------------------------------------------------------

 No NMR shielding tensors so no spin-rotation constants.
 Leave Link  601 at Mon Nov 13 18:32:27 2023, MaxMem=  1879048192 cpu:               2.6 elap:               0.2
 (Enter /home/sekinelabo/g16/l701.exe)
 ... and contract with generalized density number  0.
 Compute integral first derivatives.
 Leave Link  701 at Mon Nov 13 18:32:27 2023, MaxMem=  1879048192 cpu:               1.7 elap:               0.1
 (Enter /home/sekinelabo/g16/l702.exe)
 L702 exits ... SP integral derivatives will be done elsewhere.
 Leave Link  702 at Mon Nov 13 18:32:27 2023, MaxMem=  1879048192 cpu:               0.5 elap:               0.0
 (Enter /home/sekinelabo/g16/l703.exe)
 Integral derivatives from FoFJK, PRISM(SPDF).
 Compute integral first derivatives, UseDBF=F ICtDFT=           0.
 Calling FoFJK, ICntrl=      2127 FMM=F ISym2X=0 I1Cent= 0 IOpClX= 1 NMat=1 NMatS=1 NMatT=0.
 FoFJK:  IHMeth= 1 ICntrl=    2127 DoSepK=F KAlg= 0 I1Cent=           0 FoldK=F
 IRaf=         0 NMat=       1 IRICut=       1 DoRegI=T DoRafI=F ISym2E= 0 IDoP0=0 IntGTp=1.
 FoFCou: FMM=F IPFlag=           0 FMFlag=      100000 FMFlg1=         800
         NFxFlg=           0 DoJE=F BraDBF=F KetDBF=F FulRan=T
         wScrn=  0.000000 ICntrl=      2127 IOpCl=  1 I1Cent=           0 NGrid=           0
         NMat0=    1 NMatS0=      1 NMatT0=    0 NMatD0=    1 NMtDS0=    0 NMtDT0=    0
 Symmetry not used in FoFCou.
 Leave Link  703 at Mon Nov 13 18:32:30 2023, MaxMem=  1879048192 cpu:              34.6 elap:               2.2
 (Enter /home/sekinelabo/g16/l716.exe)
 Dipole        =-2.65525613D-02-5.95785331D-02 2.20572125D-01
 ***** Axes restored to original set *****
 -------------------------------------------------------------------
 Center     Atomic                   Forces (Hartrees/Bohr)
 Number     Number              X              Y              Z
 -------------------------------------------------------------------
      1       11          -0.005558354    0.009301915   -0.002363259
      2       11          -0.005653318   -0.003602990    0.003369910
      3       11           0.000440221   -0.000187928   -0.002087279
      4       11           0.002399537    0.003745139    0.007622132
      5       11           0.003019214   -0.001395676   -0.007845687
      6       11           0.003594635   -0.008194033    0.002536513
      7       11           0.001758064    0.000333572   -0.001232331
 -------------------------------------------------------------------
 Cartesian Forces:  Max     0.009301915 RMS     0.004501888
 Z-matrix is all fixed cartesians, so copy forces.
 Force constants in Cartesian coordinates: 
                1             2             3             4             5 
      1  0.101104D+00
      2 -0.238687D-01  0.114974D+00
      3  0.132646D-02 -0.110229D-01  0.824006D-01
      4 -0.215990D-01  0.158227D-01 -0.417512D-02  0.897910D-01
      5 -0.226979D-01 -0.438173D-01  0.192270D-01  0.156609D-01  0.800811D-01
      6  0.115209D-01  0.942721D-02 -0.180729D-01 -0.190744D-01 -0.168904D-01
      7 -0.239269D-02 -0.203489D-02  0.350586D-02  0.154437D-03 -0.459659D-03
      8  0.841295D-03  0.122307D-02 -0.119562D-02 -0.176712D-02  0.178739D-02
      9 -0.351968D-02 -0.255689D-02  0.518906D-02 -0.124569D-02  0.721851D-03
     10 -0.393729D-01 -0.128425D-01 -0.221792D-01 -0.130327D-01 -0.134887D-01
     11  0.187488D-01 -0.248700D-01  0.153981D-01 -0.687909D-02 -0.875170D-02
     12 -0.504997D-02 -0.688279D-02 -0.343271D-01  0.135736D-01  0.528097D-02
     13 -0.242791D-01  0.117642D-01  0.230682D-01 -0.620303D-02 -0.270205D-02
     14  0.157034D-01 -0.284233D-01 -0.273283D-01 -0.829481D-02  0.135849D-02
     15 -0.297265D-02  0.653307D-02 -0.316773D-01 -0.236984D-02 -0.598440D-02
     16 -0.153387D-01  0.986519D-02 -0.954518D-03 -0.495218D-01  0.203277D-01
     17  0.650126D-02 -0.222261D-01  0.707081D-02 -0.152470D-01 -0.384901D-01
     18  0.948923D-03  0.547581D-02 -0.675853D-02  0.124515D-01 -0.108390D-02
     19  0.187843D-02  0.129404D-02 -0.591706D-03  0.410986D-03  0.335978D-02
     20  0.477191D-02  0.313982D-02 -0.214906D-02  0.704549D-03  0.783212D-02
     21 -0.225394D-02 -0.973473D-03  0.324629D-02  0.839992D-03 -0.127113D-02
                6             7             8             9            10 
      6  0.613854D-01
      7  0.170771D-02  0.289163D-01
      8  0.293022D-02  0.104645D-01  0.176610D-01
      9  0.554814D-02 -0.650666D-02  0.136041D-02  0.272908D-01
     10 -0.128458D-01 -0.267319D-01 -0.137971D-02  0.181926D-01  0.116575D+00
     11 -0.149535D-01 -0.688604D-02 -0.194364D-01  0.345887D-02  0.118742D-01
     12 -0.118705D-01  0.917496D-03 -0.808377D-02 -0.429839D-01  0.286887D-02
     13  0.218450D-01 -0.113665D-02 -0.243258D-02 -0.410750D-02 -0.359698D-02
     14  0.127260D-01 -0.111704D-02 -0.338341D-03 -0.227188D-02 -0.162980D-02
     15 -0.150430D-01  0.796357D-03  0.809587D-03  0.210841D-02  0.885217D-02
     16 -0.342508D-02  0.118884D-02 -0.572551D-02 -0.281517D-02 -0.372215D-01
     17  0.740956D-02  0.183576D-04 -0.888751D-03 -0.731692D-03  0.105277D-01
     18 -0.268798D-01 -0.377141D-03  0.415558D-02  0.290462D-02  0.268838D-02
     19  0.271646D-03  0.163918D-05  0.000000D+00  0.214468D-05  0.338104D-02
     20 -0.649164D-03  0.147734D-04 -0.798852D-05  0.193292D-04  0.693885D-02
     21  0.493285D-02 -0.436260D-04  0.235902D-04 -0.570795D-04  0.242300D-02
               11            12            13            14            15 
     11  0.103677D+00
     12  0.180986D-01  0.138536D+00
     13 -0.576436D-02 -0.100585D-01  0.605229D-01
     14 -0.301341D-02 -0.134792D-01 -0.112747D-01  0.579166D-01
     15  0.156311D-02 -0.209353D-01 -0.134308D-01  0.333979D-02  0.109216D+00
     16 -0.108191D-01 -0.213344D-02 -0.258537D-01  0.605841D-02  0.900706D-02
     17 -0.472067D-01  0.578757D-02  0.751266D-02 -0.280637D-01 -0.574342D-02
     18 -0.227248D-01 -0.302164D-01 -0.107371D-01  0.243602D-01 -0.467344D-01
     19 -0.274376D-03 -0.118030D-03  0.546490D-03  0.554553D-03  0.117683D-03
     20 -0.399159D-03 -0.721395D-03  0.289685D-02  0.563606D-03 -0.517737D-03
     21 -0.840364D-03  0.179694D-02 -0.657940D-02  0.265328D-02  0.306570D-02
               16            17            18            19            20 
     16  0.167722D+00
     17 -0.973207D-02  0.174412D+00
     18 -0.908327D-02 -0.172887D-01  0.137115D+00
     19 -0.409751D-01  0.419172D-03  0.410870D-02  0.347565D-01
     20 -0.997465D-02 -0.375370D-01  0.710585D-02 -0.535229D-02  0.264086D-01
     21  0.940442D-02  0.349591D-02 -0.294307D-01 -0.379044D-02 -0.308782D-02
               21 
     21  0.164460D-01
 Leave Link  716 at Mon Nov 13 18:32:30 2023, MaxMem=  1879048192 cpu:               0.5 elap:               0.0
 (Enter /home/sekinelabo/g16/l103.exe)

 GradGradGradGradGradGradGradGradGradGradGradGradGradGradGradGradGradGrad
 Berny optimization.
 Search for a local minimum.
 Step number   1 out of a maximum of    2
 All quantities printed in internal units (Hartrees-Bohrs-Radians)
 Second derivative matrix not updated -- first step.
 ITU=  0
     Eigenvalues ---    0.01199   0.02767   0.03435   0.03790   0.05267
     Eigenvalues ---    0.05856   0.10262   0.12167   0.14968   0.15327
     Eigenvalues ---    0.16562   0.17516   0.19913   0.22055   0.22790
 Angle between quadratic step and forces=  29.18 degrees.
 Linear search not attempted -- first point.
 B after Tr=     0.000000    0.000000   -0.000000
         Rot=    1.000000    0.000000    0.000000    0.000000 Ang=   0.00 deg.
 Variable       Old X    -DE/DX   Delta X   Delta X   Delta X     New X
                                 (Linear)    (Quad)   (Total)
    X1        1.29481  -0.00556   0.00000  -0.05414  -0.05414   1.24067
    Y1        7.87484   0.00930   0.00000   0.06636   0.06636   7.94120
    Z1        3.69410  -0.00236   0.00000  -0.02088  -0.02088   3.67322
    X2        0.00000  -0.00565   0.00000  -0.08337  -0.08337  -0.08337
    Y2        2.88616  -0.00360   0.00000  -0.02406  -0.02406   2.86210
    Z2        6.06285   0.00337   0.00000   0.03699   0.03699   6.09984
    X3       10.57203   0.00044   0.00000   0.02707   0.02707  10.59910
    Y3        9.84727  -0.00019   0.00000   0.03386   0.03386   9.88113
    Z3        4.24116  -0.00209   0.00000  -0.00336  -0.00336   4.23781
    X4        6.03663   0.00240   0.00000   0.01547   0.01547   6.05210
    Y4        7.64804   0.00375   0.00000   0.04267   0.04267   7.69072
    Z4        6.79866   0.00762   0.00000   0.05459   0.05459   6.85325
    X5        4.18621   0.00302   0.00000   0.01540   0.01540   4.20162
    Y5        4.68407  -0.00140   0.00000  -0.01886  -0.01886   4.66521
    Z5        0.00000  -0.00785   0.00000  -0.06610  -0.06610  -0.06610
    X6        5.53849   0.00359   0.00000   0.01745   0.01745   5.55594
    Y6        2.29719  -0.00819   0.00000  -0.05349  -0.05349   2.24370
    Z6        4.96795   0.00254   0.00000   0.02016   0.02016   4.98811
    X7       10.67223   0.00176   0.00000   0.06211   0.06211  10.73434
    Y7        0.00000   0.00033   0.00000  -0.04649  -0.04649  -0.04649
    Z7        4.38293  -0.00123   0.00000  -0.02141  -0.02141   4.36152
         Item               Value     Threshold  Converged?
 Maximum Force            0.009302     0.000450     NO 
 RMS     Force            0.004502     0.000300     NO 
 Maximum Displacement     0.083365     0.001800     NO 
 RMS     Displacement     0.042879     0.001200     NO 
 Predicted change in Energy=-1.769721D-03
 GradGradGradGradGradGradGradGradGradGradGradGradGradGradGradGradGradGrad

 Leave Link  103 at Mon Nov 13 18:32:30 2023, MaxMem=  1879048192 cpu:               0.3 elap:               0.0
 (Enter /home/sekinelabo/g16/l9999.exe)
 1\1\GINC-SEKINELABO-XA7R-R37\Force\UB3LYP\6-311+G(d)\Na7(2)\SEKINELABO
 \13-Nov-2023\0\\#P B3LYP/6-311+g(d) force\\Gaussian input prepared by 
 ASE\\0,2\Na,0.685185273,4.16718614,1.9548327037\Na,0.,1.5272912356,3.2
 083209847\Na,5.5944758451,5.2109486056,2.2443269417\Na,3.1944461642,4.
 047169529,3.5976980832\Na,2.2152485288,2.4787020566,0.\Na,2.9308430778
 ,1.2156206202,2.6289274328\Na,5.6475009928,0.,2.3193482806\\Version=ES
 64L-G16RevB.01\State=2-A\HF=-1136.1027572\S2=0.767211\S2-1=0.\S2A=0.75
 0205\RMSD=4.794e-09\RMSF=4.502e-03\Dipole=-0.0265526,0.0595785,-0.2205
 721\Quadrupole=8.5362749,-3.6967612,-4.8395137,0.5917588,-2.6350864,-1
 .7259847\PG=C01 [X(Na7)]\\@


 NEVER TEACH A PIG TO SING.
 IT WASTES YOUR TIME AND ANNOYS THE PIG.
     -- SEEN ON A GREETING CARD
 Job cpu time:       0 days  0 hours  4 minutes 14.2 seconds.
 Elapsed time:       0 days  0 hours  0 minutes 20.6 seconds.
 File lengths (MBytes):  RWF=     32 Int=      0 D2E=      0 Chk=      5 Scr=      1
 Normal termination of Gaussian 16 at Mon Nov 13 18:32:30 2023.
