 Entering Gaussian System, Link 0=g16
 Initial command:
 /home/sekinelabo/g16/l1.exe "/home/sekinelabo/g16temp/Gau-4080297.inp" -scrdir="/home/sekinelabo/g16temp/"
 Entering Link 1 = /home/sekinelabo/g16/l1.exe PID=   4080299.
  
 Copyright (c) 1988-2017, Gaussian, Inc.  All Rights Reserved.
  
 This is part of the Gaussian(R) 16 program.  It is based on
 the Gaussian(R) 09 system (copyright 2009, Gaussian, Inc.),
 the Gaussian(R) 03 system (copyright 2003, Gaussian, Inc.),
 the Gaussian(R) 98 system (copyright 1998, Gaussian, Inc.),
 the Gaussian(R) 94 system (copyright 1995, Gaussian, Inc.),
 the Gaussian 92(TM) system (copyright 1992, Gaussian, Inc.),
 the Gaussian 90(TM) system (copyright 1990, Gaussian, Inc.),
 the Gaussian 88(TM) system (copyright 1988, Gaussian, Inc.),
 the Gaussian 86(TM) system (copyright 1986, Carnegie Mellon
 University), and the Gaussian 82(TM) system (copyright 1983,
 Carnegie Mellon University). Gaussian is a federally registered
 trademark of Gaussian, Inc.
  
 This software contains proprietary and confidential information,
 including trade secrets, belonging to Gaussian, Inc.
  
 This software is provided under written license and may be
 used, copied, transmitted, or stored only in accord with that
 written license.
  
 The following legend is applicable only to US Government
 contracts under FAR:
  
                    RESTRICTED RIGHTS LEGEND
  
 Use, reproduction and disclosure by the US Government is
 subject to restrictions as set forth in subparagraphs (a)
 and (c) of the Commercial Computer Software - Restricted
 Rights clause in FAR 52.227-19.
  
 Gaussian, Inc.
 340 Quinnipiac St., Bldg. 40, Wallingford CT 06492
  
  
 ---------------------------------------------------------------
 Warning -- This program may not be used in any manner that
 competes with the business of Gaussian, Inc. or will provide
 assistance to any competitor of Gaussian, Inc.  The licensee
 of this program is prohibited from giving any competitor of
 Gaussian, Inc. access to this program.  By using this program,
 the user acknowledges that Gaussian, Inc. is engaged in the
 business of creating and licensing software in the field of
 computational chemistry and represents and warrants to the
 licensee that it is not a competitor of Gaussian, Inc. and that
 it will not use this program in any manner prohibited above.
 ---------------------------------------------------------------
  

 Cite this work as:
 Gaussian 16, Revision B.01,
 M. J. Frisch, G. W. Trucks, H. B. Schlegel, G. E. Scuseria, 
 M. A. Robb, J. R. Cheeseman, G. Scalmani, V. Barone, 
 G. A. Petersson, H. Nakatsuji, X. Li, M. Caricato, A. V. Marenich, 
 J. Bloino, B. G. Janesko, R. Gomperts, B. Mennucci, H. P. Hratchian, 
 J. V. Ortiz, A. F. Izmaylov, J. L. Sonnenberg, D. Williams-Young, 
 F. Ding, F. Lipparini, F. Egidi, J. Goings, B. Peng, A. Petrone, 
 T. Henderson, D. Ranasinghe, V. G. Zakrzewski, J. Gao, N. Rega, 
 G. Zheng, W. Liang, M. Hada, M. Ehara, K. Toyota, R. Fukuda, 
 J. Hasegawa, M. Ishida, T. Nakajima, Y. Honda, O. Kitao, H. Nakai, 
 T. Vreven, K. Throssell, J. A. Montgomery, Jr., J. E. Peralta, 
 F. Ogliaro, M. J. Bearpark, J. J. Heyd, E. N. Brothers, K. N. Kudin, 
 V. N. Staroverov, T. A. Keith, R. Kobayashi, J. Normand, 
 K. Raghavachari, A. P. Rendell, J. C. Burant, S. S. Iyengar, 
 J. Tomasi, M. Cossi, J. M. Millam, M. Klene, C. Adamo, R. Cammi, 
 J. W. Ochterski, R. L. Martin, K. Morokuma, O. Farkas, 
 J. B. Foresman, and D. J. Fox, Gaussian, Inc., Wallingford CT, 2016.
 
 ******************************************
 Gaussian 16:  ES64L-G16RevB.01 20-Dec-2017
                13-Nov-2023 
 ******************************************
 %mem=14GB
 %chk=checkpoint.chk
 %nprocshared=16
 Will use up to   16 processors via shared memory.
 -------------------------
 #P B3LYP/6-311+g(d) force
 -------------------------
 1/10=7,30=1,38=1/1,3;
 2/12=2,17=6,18=5,40=1/2;
 3/5=4,6=6,7=11,11=2,25=1,30=1,71=1,74=-5/1,2,3;
 4//1;
 5/5=2,38=5/2;
 6/7=2,8=2,9=2,10=2,28=1/1;
 7/29=1/1,2,3,16;
 1/10=7,30=1/3;
 99//99;
 Leave Link    1 at Mon Nov 13 17:26:36 2023, MaxMem=  1879048192 cpu:               0.3 elap:               0.0
 (Enter /home/sekinelabo/g16/l101.exe)
 ------------------------------
 Gaussian input prepared by ASE
 ------------------------------
 Symbolic Z-matrix:
 Charge =  0 Multiplicity = 2
 Na                    4.56595   1.7093    3.01018 
 Na                    3.31953   0.        0.89351 
 Na                    6.15291   4.24985   2.8259 
 Na                    5.1479    4.37882   0. 
 Na                    2.70482   2.93325   0.99522 
 Na                    1.36213   5.49671   1.78949 
 Na                    0.        2.8813    2.29442 
 
 ITRead=  0  0  0  0  0  0  0
 MicOpt= -1 -1 -1 -1 -1 -1 -1
 NAtoms=      7 NQM=        7 NQMF=       0 NMMI=      0 NMMIF=      0
                NMic=       0 NMicF=      0.
                    Isotopes and Nuclear Properties:
 (Nuclear quadrupole moments (NQMom) in fm**2, nuclear magnetic moments (NMagM)
  in nuclear magnetons)

  Atom         1           2           3           4           5           6           7
 IAtWgt=          23          23          23          23          23          23          23
 AtmWgt=  22.9897697  22.9897697  22.9897697  22.9897697  22.9897697  22.9897697  22.9897697
 NucSpn=           3           3           3           3           3           3           3
 AtZEff=  -0.0000000  -0.0000000  -0.0000000  -0.0000000  -0.0000000  -0.0000000  -0.0000000
 NQMom=   10.4000000  10.4000000  10.4000000  10.4000000  10.4000000  10.4000000  10.4000000
 NMagM=    2.2175200   2.2175200   2.2175200   2.2175200   2.2175200   2.2175200   2.2175200
 AtZNuc=  11.0000000  11.0000000  11.0000000  11.0000000  11.0000000  11.0000000  11.0000000
 Leave Link  101 at Mon Nov 13 17:26:36 2023, MaxMem=  1879048192 cpu:               2.6 elap:               0.2
 (Enter /home/sekinelabo/g16/l103.exe)

 GradGradGradGradGradGradGradGradGradGradGradGradGradGradGradGradGradGrad
 Berny optimization.
 Initialization pass.
 Trust Radius=3.00D-01 FncErr=1.00D-07 GrdErr=1.00D-07 EigMax=2.50D+02 EigMin=1.00D-04
 Number of steps in this run=      2 maximum allowed number of steps=      2.
 GradGradGradGradGradGradGradGradGradGradGradGradGradGradGradGradGradGrad

 Leave Link  103 at Mon Nov 13 17:26:36 2023, MaxMem=  1879048192 cpu:               0.2 elap:               0.0
 (Enter /home/sekinelabo/g16/l202.exe)
                          Input orientation:                          
 ---------------------------------------------------------------------
 Center     Atomic      Atomic             Coordinates (Angstroms)
 Number     Number       Type             X           Y           Z
 ---------------------------------------------------------------------
      1         11           0        4.565949    1.709300    3.010177
      2         11           0        3.319534    0.000000    0.893510
      3         11           0        6.152910    4.249848    2.825897
      4         11           0        5.147897    4.378823    0.000000
      5         11           0        2.704816    2.933251    0.995220
      6         11           0        1.362133    5.496713    1.789488
      7         11           0        0.000000    2.881297    2.294418
 ---------------------------------------------------------------------
                    Distance matrix (angstroms):
                    1          2          3          4          5
     1  Na   0.000000
     2  Na   2.992580   0.000000
     3  Na   3.001131   5.461076   0.000000
     4  Na   4.065241   4.828598   3.002062   0.000000
     5  Na   3.003652   2.998697   4.119971   3.008120   0.000000
     6  Na   5.108720   5.903224   5.057704   4.334046   3.000833
     7  Na   4.767996   4.613428   6.325639   5.831619   3.001107
                    6          7
     6  Na   0.000000
     7  Na   2.991782   0.000000
 Stoichiometry    Na7(2)
 Framework group  C1[X(Na7)]
 Deg. of freedom    15
 Full point group                 C1      NOp   1
 Largest Abelian subgroup         C1      NOp   1
 Largest concise Abelian subgroup C1      NOp   1
                         Standard orientation:                         
 ---------------------------------------------------------------------
 Center     Atomic      Atomic             Coordinates (Angstroms)
 Number     Number       Type             X           Y           Z
 ---------------------------------------------------------------------
      1         11           0        1.244058    1.383448   -1.323218
      2         11           0       -0.002358    3.092747    0.793448
      3         11           0        2.831019   -1.157100   -1.138938
      4         11           0        1.826006   -1.286075    1.686958
      5         11           0       -0.617075    0.159496    0.691739
      6         11           0       -1.959759   -2.403966   -0.102529
      7         11           0       -3.321891    0.211450   -0.607459
 ---------------------------------------------------------------------
 Rotational constants (GHZ):           0.7935281           0.6186312           0.4534950
 Leave Link  202 at Mon Nov 13 17:26:36 2023, MaxMem=  1879048192 cpu:               0.1 elap:               0.0
 (Enter /home/sekinelabo/g16/l301.exe)
 Standard basis: 6-311+G(d) (5D, 7F)
 Ernie: Thresh=  0.10000D-02 Tol=  0.10000D-05 Strict=F.
 There are   217 symmetry adapted cartesian basis functions of A   symmetry.
 There are   210 symmetry adapted basis functions of A   symmetry.
   210 basis functions,   350 primitive gaussians,   217 cartesian basis functions
    39 alpha electrons       38 beta electrons
       nuclear repulsion energy       347.5944789773 Hartrees.
 IExCor=  402 DFT=T Ex+Corr=B3LYP ExCW=0 ScaHFX=  0.200000
 ScaDFX=  0.800000  0.720000  1.000000  0.810000 ScalE2=  1.000000  1.000000
 IRadAn=      5 IRanWt=     -1 IRanGd=            0 ICorTp=0 IEmpDi=  4
 NAtoms=    7 NActive=    7 NUniq=    7 SFac= 1.00D+00 NAtFMM=   60 NAOKFM=F Big=F
 Integral buffers will be    131072 words long.
 Raffenetti 2 integral format.
 Two-electron integral symmetry is turned on.
 Leave Link  301 at Mon Nov 13 17:26:36 2023, MaxMem=  1879048192 cpu:               0.5 elap:               0.0
 (Enter /home/sekinelabo/g16/l302.exe)
 NPDir=0 NMtPBC=     1 NCelOv=     1 NCel=       1 NClECP=     1 NCelD=      1
         NCelK=      1 NCelE2=     1 NClLst=     1 CellRange=     0.0.
 One-electron integrals computed using PRISM.
 One-electron integral symmetry used in STVInt
 NBasis=   210 RedAO= T EigKep=  1.22D-06  NBF=   210
 NBsUse=   210 1.00D-06 EigRej= -1.00D+00 NBFU=   210
 Precomputing XC quadrature grid using
 IXCGrd= 4 IRadAn=           5 IRanWt=          -1 IRanGd=           0 AccXCQ= 0.00D+00.
 Generated NRdTot=       0 NPtTot=           0 NUsed=           0 NTot=          32
 NSgBfM=   210   210   210   210   210 MxSgAt=     7 MxSgA2=     7.
 Leave Link  302 at Mon Nov 13 17:26:36 2023, MaxMem=  1879048192 cpu:               2.2 elap:               0.1
 (Enter /home/sekinelabo/g16/l303.exe)
 DipDrv:  MaxL=1.
 Leave Link  303 at Mon Nov 13 17:26:36 2023, MaxMem=  1879048192 cpu:               0.6 elap:               0.0
 (Enter /home/sekinelabo/g16/l401.exe)
 ExpMin= 7.60D-03 ExpMax= 3.62D+04 ExpMxC= 1.21D+03 IAcc=3 IRadAn=         5 AccDes= 0.00D+00
 Harris functional with IExCor=  402 and IRadAn=       5 diagonalized for initial guess.
 HarFok:  IExCor=  402 AccDes= 0.00D+00 IRadAn=         5 IDoV= 1 UseB2=F ITyADJ=14
 ICtDFT=  3500011 ScaDFX=  1.000000  1.000000  1.000000  1.000000
 FoFCou: FMM=F IPFlag=           0 FMFlag=      100000 FMFlg1=           0
         NFxFlg=           0 DoJE=T BraDBF=F KetDBF=T FulRan=T
         wScrn=  0.000000 ICntrl=       500 IOpCl=  0 I1Cent=   200000004 NGrid=           0
         NMat0=    1 NMatS0=      1 NMatT0=    0 NMatD0=    1 NMtDS0=    0 NMtDT0=    0
 Petite list used in FoFCou.
 Harris En= -1135.88121363605    
 JPrj=0 DoOrth=F DoCkMO=F.
 Initial guess <Sx>= 0.0000 <Sy>= 0.0000 <Sz>= 0.5000 <S**2>= 0.7500 S= 0.5000
 Leave Link  401 at Mon Nov 13 17:26:36 2023, MaxMem=  1879048192 cpu:               4.7 elap:               0.3
 (Enter /home/sekinelabo/g16/l502.exe)
 Keep R1 and R2 ints in memory in canonical form, NReq=507620374.
 FoFCou: FMM=F IPFlag=           0 FMFlag=           0 FMFlg1=           0
         NFxFlg=           0 DoJE=F BraDBF=F KetDBF=F FulRan=T
         wScrn=  0.000000 ICntrl=       600 IOpCl=  0 I1Cent=           0 NGrid=           0
         NMat0=    1 NMatS0=  22155 NMatT0=    0 NMatD0=    1 NMtDS0=    0 NMtDT0=    0
 Symmetry not used in FoFCou.
 Two-electron integral symmetry not used.
 UHF open shell SCF:
 Using DIIS extrapolation, IDIIS=  1040.
 NGot=  1879048192 LenX=  1388082362 LenY=  1388034832
 Requested convergence on RMS density matrix=1.00D-08 within 128 cycles.
 Requested convergence on MAX density matrix=1.00D-06.
 Requested convergence on             energy=1.00D-06.
 No special actions if energy rises.

 Cycle   1  Pass 1  IDiag  1:
 E= -1136.07270197010    
 DIIS: error= 9.47D-03 at cycle   1 NSaved=   1.
 NSaved= 1 IEnMin= 1 EnMin= -1136.07270197010     IErMin= 1 ErrMin= 9.47D-03
 ErrMax= 9.47D-03  0.00D+00 EMaxC= 1.00D-01 BMatC= 1.95D-01 BMatP= 1.95D-01
 IDIUse=3 WtCom= 9.05D-01 WtEn= 9.47D-02
 Coeff-Com:  0.100D+01
 Coeff-En:   0.100D+01
 Coeff:      0.100D+01
 Gap=     0.042 Goal=   None    Shift=    0.000
 Gap=     0.050 Goal=   None    Shift=    0.000
 GapD=    0.042 DampG=0.250 DampE=1.000 DampFc=0.2500 IDamp=-1.
 Damping current iteration by 2.50D-01
 RMSDP=8.00D-02 MaxDP=6.14D+00              OVMax= 2.33D-01

 Cycle   2  Pass 1  IDiag  1:
 E= -1136.08587253702     Delta-E=       -0.013170566920 Rises=F Damp=T
 DIIS: error= 6.59D-03 at cycle   2 NSaved=   2.
 NSaved= 2 IEnMin= 2 EnMin= -1136.08587253702     IErMin= 2 ErrMin= 6.59D-03
 ErrMax= 6.59D-03  0.00D+00 EMaxC= 1.00D-01 BMatC= 7.41D-02 BMatP= 1.95D-01
 IDIUse=3 WtCom= 9.34D-01 WtEn= 6.59D-02
 Coeff-Com: -0.127D+01 0.227D+01
 Coeff-En:   0.000D+00 0.100D+01
 Coeff:     -0.118D+01 0.218D+01
 Gap=     0.054 Goal=   None    Shift=    0.000
 Gap=     0.056 Goal=   None    Shift=    0.000
 RMSDP=3.27D-02 MaxDP=2.52D+00 DE=-1.32D-02 OVMax= 1.59D-01

 Cycle   3  Pass 1  IDiag  1:
 E= -1136.10786136822     Delta-E=       -0.021988831193 Rises=F Damp=F
 DIIS: error= 3.03D-03 at cycle   3 NSaved=   3.
 NSaved= 3 IEnMin= 3 EnMin= -1136.10786136822     IErMin= 3 ErrMin= 3.03D-03
 ErrMax= 3.03D-03  0.00D+00 EMaxC= 1.00D-01 BMatC= 3.45D-03 BMatP= 7.41D-02
 IDIUse=3 WtCom= 9.70D-01 WtEn= 3.03D-02
 Coeff-Com: -0.267D+00 0.464D+00 0.803D+00
 Coeff-En:   0.000D+00 0.000D+00 0.100D+01
 Coeff:     -0.259D+00 0.450D+00 0.809D+00
 Gap=     0.049 Goal=   None    Shift=    0.000
 Gap=     0.052 Goal=   None    Shift=    0.000
 RMSDP=1.58D-02 MaxDP=1.23D+00 DE=-2.20D-02 OVMax= 7.41D-02

 Cycle   4  Pass 1  IDiag  1:
 E= -1136.10830310867     Delta-E=       -0.000441740458 Rises=F Damp=F
 DIIS: error= 2.70D-03 at cycle   4 NSaved=   4.
 NSaved= 4 IEnMin= 4 EnMin= -1136.10830310867     IErMin= 4 ErrMin= 2.70D-03
 ErrMax= 2.70D-03  0.00D+00 EMaxC= 1.00D-01 BMatC= 2.90D-03 BMatP= 3.45D-03
 IDIUse=3 WtCom= 9.73D-01 WtEn= 2.70D-02
 Coeff-Com: -0.166D-01 0.222D-01 0.477D+00 0.517D+00
 Coeff-En:   0.000D+00 0.000D+00 0.461D+00 0.539D+00
 Coeff:     -0.161D-01 0.216D-01 0.477D+00 0.518D+00
 Gap=     0.051 Goal=   None    Shift=    0.000
 Gap=     0.054 Goal=   None    Shift=    0.000
 RMSDP=5.69D-03 MaxDP=4.23D-01 DE=-4.42D-04 OVMax= 3.98D-02

 Cycle   5  Pass 1  IDiag  1:
 E= -1136.11048731248     Delta-E=       -0.002184203807 Rises=F Damp=F
 DIIS: error= 3.18D-04 at cycle   5 NSaved=   5.
 NSaved= 5 IEnMin= 5 EnMin= -1136.11048731248     IErMin= 5 ErrMin= 3.18D-04
 ErrMax= 3.18D-04  0.00D+00 EMaxC= 1.00D-01 BMatC= 4.11D-05 BMatP= 2.90D-03
 IDIUse=3 WtCom= 9.97D-01 WtEn= 3.18D-03
 Coeff-Com: -0.903D-02 0.112D-01 0.242D+00 0.273D+00 0.482D+00
 Coeff-En:   0.000D+00 0.000D+00 0.000D+00 0.000D+00 0.100D+01
 Coeff:     -0.900D-02 0.111D-01 0.241D+00 0.272D+00 0.484D+00
 Gap=     0.051 Goal=   None    Shift=    0.000
 Gap=     0.053 Goal=   None    Shift=    0.000
 RMSDP=8.61D-04 MaxDP=4.93D-02 DE=-2.18D-03 OVMax= 8.56D-03

 Cycle   6  Pass 1  IDiag  1:
 E= -1136.11053450837     Delta-E=       -0.000047195889 Rises=F Damp=F
 DIIS: error= 1.03D-04 at cycle   6 NSaved=   6.
 NSaved= 6 IEnMin= 6 EnMin= -1136.11053450837     IErMin= 6 ErrMin= 1.03D-04
 ErrMax= 1.03D-04  0.00D+00 EMaxC= 1.00D-01 BMatC= 4.90D-06 BMatP= 4.11D-05
 IDIUse=3 WtCom= 9.99D-01 WtEn= 1.03D-03
 Coeff-Com:  0.181D-03-0.645D-03-0.622D-01-0.622D-01 0.196D+00 0.929D+00
 Coeff-En:   0.000D+00 0.000D+00 0.000D+00 0.000D+00 0.000D+00 0.100D+01
 Coeff:      0.181D-03-0.645D-03-0.621D-01-0.621D-01 0.195D+00 0.929D+00
 Gap=     0.051 Goal=   None    Shift=    0.000
 Gap=     0.054 Goal=   None    Shift=    0.000
 RMSDP=6.23D-04 MaxDP=5.03D-02 DE=-4.72D-05 OVMax= 4.38D-03

 Cycle   7  Pass 1  IDiag  1:
 E= -1136.11054566411     Delta-E=       -0.000011155737 Rises=F Damp=F
 DIIS: error= 4.74D-05 at cycle   7 NSaved=   7.
 NSaved= 7 IEnMin= 7 EnMin= -1136.11054566411     IErMin= 7 ErrMin= 4.74D-05
 ErrMax= 4.74D-05  0.00D+00 EMaxC= 1.00D-01 BMatC= 7.37D-07 BMatP= 4.90D-06
 IDIUse=1 WtCom= 1.00D+00 WtEn= 0.00D+00
 Coeff-Com:  0.144D-02-0.203D-02-0.496D-01-0.526D-01 0.142D-01 0.318D+00
 Coeff-Com:  0.771D+00
 Coeff:      0.144D-02-0.203D-02-0.496D-01-0.526D-01 0.142D-01 0.318D+00
 Coeff:      0.771D+00
 Gap=     0.051 Goal=   None    Shift=    0.000
 Gap=     0.054 Goal=   None    Shift=    0.000
 RMSDP=2.42D-04 MaxDP=1.26D-02 DE=-1.12D-05 OVMax= 2.10D-03

 Cycle   8  Pass 1  IDiag  1:
 E= -1136.11054755539     Delta-E=       -0.000001891284 Rises=F Damp=F
 DIIS: error= 3.13D-05 at cycle   8 NSaved=   8.
 NSaved= 8 IEnMin= 8 EnMin= -1136.11054755539     IErMin= 8 ErrMin= 3.13D-05
 ErrMax= 3.13D-05  0.00D+00 EMaxC= 1.00D-01 BMatC= 3.07D-07 BMatP= 7.37D-07
 IDIUse=1 WtCom= 1.00D+00 WtEn= 0.00D+00
 Coeff-Com:  0.118D-02-0.150D-02-0.622D-02-0.825D-02-0.584D-01-0.144D+00
 Coeff-Com:  0.418D+00 0.799D+00
 Coeff:      0.118D-02-0.150D-02-0.622D-02-0.825D-02-0.584D-01-0.144D+00
 Coeff:      0.418D+00 0.799D+00
 Gap=     0.051 Goal=   None    Shift=    0.000
 Gap=     0.054 Goal=   None    Shift=    0.000
 RMSDP=1.77D-04 MaxDP=9.76D-03 DE=-1.89D-06 OVMax= 1.51D-03

 Cycle   9  Pass 1  IDiag  1:
 E= -1136.11054845518     Delta-E=       -0.000000899794 Rises=F Damp=F
 DIIS: error= 1.27D-05 at cycle   9 NSaved=   9.
 NSaved= 9 IEnMin= 9 EnMin= -1136.11054845518     IErMin= 9 ErrMin= 1.27D-05
 ErrMax= 1.27D-05  0.00D+00 EMaxC= 1.00D-01 BMatC= 3.43D-08 BMatP= 3.07D-07
 IDIUse=1 WtCom= 1.00D+00 WtEn= 0.00D+00
 Coeff-Com:  0.295D-03-0.362D-03 0.636D-02 0.572D-02-0.124D-01-0.667D-01
 Coeff-Com: -0.689D-01 0.120D+00 0.102D+01
 Coeff:      0.295D-03-0.362D-03 0.636D-02 0.572D-02-0.124D-01-0.667D-01
 Coeff:     -0.689D-01 0.120D+00 0.102D+01
 Gap=     0.051 Goal=   None    Shift=    0.000
 Gap=     0.054 Goal=   None    Shift=    0.000
 RMSDP=9.54D-05 MaxDP=5.20D-03 DE=-9.00D-07 OVMax= 8.69D-04

 Cycle  10  Pass 1  IDiag  1:
 E= -1136.11054864478     Delta-E=       -0.000000189600 Rises=F Damp=F
 DIIS: error= 9.30D-06 at cycle  10 NSaved=  10.
 NSaved=10 IEnMin=10 EnMin= -1136.11054864478     IErMin=10 ErrMin= 9.30D-06
 ErrMax= 9.30D-06  0.00D+00 EMaxC= 1.00D-01 BMatC= 1.38D-08 BMatP= 3.43D-08
 IDIUse=1 WtCom= 1.00D+00 WtEn= 0.00D+00
 Coeff-Com: -0.168D-03 0.229D-03 0.442D-02 0.442D-02 0.582D-02-0.234D-02
 Coeff-Com: -0.115D+00-0.115D+00 0.462D+00 0.755D+00
 Coeff:     -0.168D-03 0.229D-03 0.442D-02 0.442D-02 0.582D-02-0.234D-02
 Coeff:     -0.115D+00-0.115D+00 0.462D+00 0.755D+00
 Gap=     0.051 Goal=   None    Shift=    0.000
 Gap=     0.054 Goal=   None    Shift=    0.000
 RMSDP=4.62D-05 MaxDP=3.05D-03 DE=-1.90D-07 OVMax= 4.56D-04

 Cycle  11  Pass 1  IDiag  1:
 E= -1136.11054869560     Delta-E=       -0.000000050812 Rises=F Damp=F
 DIIS: error= 5.58D-06 at cycle  11 NSaved=  11.
 NSaved=11 IEnMin=11 EnMin= -1136.11054869560     IErMin=11 ErrMin= 5.58D-06
 ErrMax= 5.58D-06  0.00D+00 EMaxC= 1.00D-01 BMatC= 5.57D-09 BMatP= 1.38D-08
 IDIUse=1 WtCom= 1.00D+00 WtEn= 0.00D+00
 Coeff-Com: -0.304D-03 0.395D-03-0.985D-04 0.253D-03 0.857D-02 0.257D-01
 Coeff-Com: -0.316D-01-0.118D+00-0.203D+00 0.458D+00 0.861D+00
 Coeff:     -0.304D-03 0.395D-03-0.985D-04 0.253D-03 0.857D-02 0.257D-01
 Coeff:     -0.316D-01-0.118D+00-0.203D+00 0.458D+00 0.861D+00
 Gap=     0.051 Goal=   None    Shift=    0.000
 Gap=     0.054 Goal=   None    Shift=    0.000
 RMSDP=3.65D-05 MaxDP=2.23D-03 DE=-5.08D-08 OVMax= 3.65D-04

 Cycle  12  Pass 1  IDiag  1:
 E= -1136.11054871723     Delta-E=       -0.000000021638 Rises=F Damp=F
 DIIS: error= 1.56D-06 at cycle  12 NSaved=  12.
 NSaved=12 IEnMin=12 EnMin= -1136.11054871723     IErMin=12 ErrMin= 1.56D-06
 ErrMax= 1.56D-06  0.00D+00 EMaxC= 1.00D-01 BMatC= 4.79D-10 BMatP= 5.57D-09
 IDIUse=1 WtCom= 1.00D+00 WtEn= 0.00D+00
 Coeff-Com: -0.300D-04 0.352D-04-0.648D-03-0.494D-03 0.789D-03 0.452D-02
 Coeff-Com:  0.879D-02-0.412D-03-0.111D+00-0.355D-01 0.175D+00 0.959D+00
 Coeff:     -0.300D-04 0.352D-04-0.648D-03-0.494D-03 0.789D-03 0.452D-02
 Coeff:      0.879D-02-0.412D-03-0.111D+00-0.355D-01 0.175D+00 0.959D+00
 Gap=     0.051 Goal=   None    Shift=    0.000
 Gap=     0.054 Goal=   None    Shift=    0.000
 RMSDP=1.02D-05 MaxDP=6.75D-04 DE=-2.16D-08 OVMax= 1.13D-04

 Cycle  13  Pass 1  IDiag  1:
 E= -1136.11054871970     Delta-E=       -0.000000002466 Rises=F Damp=F
 DIIS: error= 4.27D-07 at cycle  13 NSaved=  13.
 NSaved=13 IEnMin=13 EnMin= -1136.11054871970     IErMin=13 ErrMin= 4.27D-07
 ErrMax= 4.27D-07  0.00D+00 EMaxC= 1.00D-01 BMatC= 8.49D-11 BMatP= 4.79D-10
 IDIUse=1 WtCom= 1.00D+00 WtEn= 0.00D+00
 Coeff-Com:  0.619D-04-0.816D-04-0.636D-04-0.103D-03-0.185D-02-0.457D-02
 Coeff-Com:  0.911D-02 0.233D-01 0.214D-01-0.993D-01-0.149D+00 0.155D+00
 Coeff-Com:  0.105D+01
 Coeff:      0.619D-04-0.816D-04-0.636D-04-0.103D-03-0.185D-02-0.457D-02
 Coeff:      0.911D-02 0.233D-01 0.214D-01-0.993D-01-0.149D+00 0.155D+00
 Coeff:      0.105D+01
 Gap=     0.051 Goal=   None    Shift=    0.000
 Gap=     0.054 Goal=   None    Shift=    0.000
 RMSDP=4.24D-06 MaxDP=2.43D-04 DE=-2.47D-09 OVMax= 5.23D-05

 Cycle  14  Pass 1  IDiag  1:
 E= -1136.11054872015     Delta-E=       -0.000000000455 Rises=F Damp=F
 DIIS: error= 2.00D-07 at cycle  14 NSaved=  14.
 NSaved=14 IEnMin=14 EnMin= -1136.11054872015     IErMin=14 ErrMin= 2.00D-07
 ErrMax= 2.00D-07  0.00D+00 EMaxC= 1.00D-01 BMatC= 1.40D-11 BMatP= 8.49D-11
 IDIUse=1 WtCom= 1.00D+00 WtEn= 0.00D+00
 Coeff-Com:  0.195D-04-0.251D-04 0.269D-04-0.535D-05-0.447D-03-0.137D-02
 Coeff-Com:  0.817D-03 0.465D-02 0.236D-01-0.205D-01-0.593D-01-0.110D+00
 Coeff-Com:  0.242D+00 0.921D+00
 Coeff:      0.195D-04-0.251D-04 0.269D-04-0.535D-05-0.447D-03-0.137D-02
 Coeff:      0.817D-03 0.465D-02 0.236D-01-0.205D-01-0.593D-01-0.110D+00
 Coeff:      0.242D+00 0.921D+00
 Gap=     0.051 Goal=   None    Shift=    0.000
 Gap=     0.054 Goal=   None    Shift=    0.000
 RMSDP=1.14D-06 MaxDP=6.42D-05 DE=-4.55D-10 OVMax= 1.41D-05

 Cycle  15  Pass 1  IDiag  1:
 E= -1136.11054872021     Delta-E=       -0.000000000055 Rises=F Damp=F
 DIIS: error= 6.64D-08 at cycle  15 NSaved=  15.
 NSaved=15 IEnMin=15 EnMin= -1136.11054872021     IErMin=15 ErrMin= 6.64D-08
 ErrMax= 6.64D-08  0.00D+00 EMaxC= 1.00D-01 BMatC= 1.63D-12 BMatP= 1.40D-11
 IDIUse=1 WtCom= 1.00D+00 WtEn= 0.00D+00
 Coeff-Com: -0.756D-05 0.102D-04 0.160D-04 0.148D-04 0.232D-03 0.428D-03
 Coeff-Com: -0.144D-02-0.253D-02-0.370D-04 0.132D-01 0.139D-01-0.326D-01
 Coeff-Com: -0.147D+00 0.752D-01 0.108D+01
 Coeff:     -0.756D-05 0.102D-04 0.160D-04 0.148D-04 0.232D-03 0.428D-03
 Coeff:     -0.144D-02-0.253D-02-0.370D-04 0.132D-01 0.139D-01-0.326D-01
 Coeff:     -0.147D+00 0.752D-01 0.108D+01
 Gap=     0.051 Goal=   None    Shift=    0.000
 Gap=     0.054 Goal=   None    Shift=    0.000
 RMSDP=6.23D-07 MaxDP=4.19D-05 DE=-5.46D-11 OVMax= 7.57D-06

 Cycle  16  Pass 1  IDiag  1:
 E= -1136.11054872023     Delta-E=       -0.000000000018 Rises=F Damp=F
 DIIS: error= 1.69D-08 at cycle  16 NSaved=  16.
 NSaved=16 IEnMin=16 EnMin= -1136.11054872023     IErMin=16 ErrMin= 1.69D-08
 ErrMax= 1.69D-08  0.00D+00 EMaxC= 1.00D-01 BMatC= 1.40D-13 BMatP= 1.63D-12
 IDIUse=1 WtCom= 1.00D+00 WtEn= 0.00D+00
 Coeff-Com: -0.122D-05 0.155D-05-0.925D-06 0.247D-05 0.158D-04 0.618D-04
 Coeff-Com:  0.444D-04-0.153D-03-0.202D-02 0.291D-03 0.364D-02 0.159D-01
 Coeff-Com: -0.132D-01-0.972D-01-0.716D-01 0.116D+01
 Coeff:     -0.122D-05 0.155D-05-0.925D-06 0.247D-05 0.158D-04 0.618D-04
 Coeff:      0.444D-04-0.153D-03-0.202D-02 0.291D-03 0.364D-02 0.159D-01
 Coeff:     -0.132D-01-0.972D-01-0.716D-01 0.116D+01
 Gap=     0.051 Goal=   None    Shift=    0.000
 Gap=     0.054 Goal=   None    Shift=    0.000
 RMSDP=1.93D-07 MaxDP=1.51D-05 DE=-1.77D-11 OVMax= 2.08D-06

 Cycle  17  Pass 1  IDiag  1:
 E= -1136.11054872024     Delta-E=       -0.000000000013 Rises=F Damp=F
 DIIS: error= 8.75D-09 at cycle  17 NSaved=  17.
 NSaved=17 IEnMin=17 EnMin= -1136.11054872024     IErMin=17 ErrMin= 8.75D-09
 ErrMax= 8.75D-09  0.00D+00 EMaxC= 1.00D-01 BMatC= 2.86D-14 BMatP= 1.40D-13
 IDIUse=1 WtCom= 1.00D+00 WtEn= 0.00D+00
 Coeff-Com:  0.769D-06-0.105D-05-0.191D-05-0.119D-05-0.222D-04-0.358D-04
 Coeff-Com:  0.159D-03 0.224D-03-0.792D-04-0.162D-02-0.103D-02 0.468D-02
 Coeff-Com:  0.176D-01-0.222D-01-0.144D+00 0.193D+00 0.954D+00
 Coeff:      0.769D-06-0.105D-05-0.191D-05-0.119D-05-0.222D-04-0.358D-04
 Coeff:      0.159D-03 0.224D-03-0.792D-04-0.162D-02-0.103D-02 0.468D-02
 Coeff:      0.176D-01-0.222D-01-0.144D+00 0.193D+00 0.954D+00
 Gap=     0.051 Goal=   None    Shift=    0.000
 Gap=     0.054 Goal=   None    Shift=    0.000
 RMSDP=3.26D-08 MaxDP=1.45D-06 DE=-1.27D-11 OVMax= 6.39D-07

 Cycle  18  Pass 1  IDiag  1:
 E= -1136.11054872022     Delta-E=        0.000000000019 Rises=F Damp=F
 DIIS: error= 3.23D-09 at cycle  18 NSaved=  18.
 NSaved=18 IEnMin=17 EnMin= -1136.11054872024     IErMin=18 ErrMin= 3.23D-09
 ErrMax= 3.23D-09  0.00D+00 EMaxC= 1.00D-01 BMatC= 5.16D-15 BMatP= 2.86D-14
 IDIUse=1 WtCom= 1.00D+00 WtEn= 0.00D+00
 Coeff-Com:  0.462D-06-0.604D-06-0.716D-06-0.143D-05-0.961D-05-0.268D-04
 Coeff-Com:  0.366D-04 0.136D-03 0.295D-03-0.448D-03-0.101D-02-0.131D-02
 Coeff-Com:  0.580D-02 0.128D-01-0.125D-01-0.196D+00 0.142D+00 0.105D+01
 Coeff:      0.462D-06-0.604D-06-0.716D-06-0.143D-05-0.961D-05-0.268D-04
 Coeff:      0.366D-04 0.136D-03 0.295D-03-0.448D-03-0.101D-02-0.131D-02
 Coeff:      0.580D-02 0.128D-01-0.125D-01-0.196D+00 0.142D+00 0.105D+01
 Gap=     0.051 Goal=   None    Shift=    0.000
 Gap=     0.054 Goal=   None    Shift=    0.000
 RMSDP=4.02D-08 MaxDP=2.63D-06 DE= 1.86D-11 OVMax= 3.57D-07

 Cycle  19  Pass 1  IDiag  1:
 E= -1136.11054872023     Delta-E=       -0.000000000006 Rises=F Damp=F
 DIIS: error= 1.18D-09 at cycle  19 NSaved=  19.
 NSaved=19 IEnMin=17 EnMin= -1136.11054872024     IErMin=19 ErrMin= 1.18D-09
 ErrMax= 1.18D-09  0.00D+00 EMaxC= 1.00D-01 BMatC= 6.22D-16 BMatP= 5.16D-15
 IDIUse=1 WtCom= 1.00D+00 WtEn= 0.00D+00
 Large coefficients: NSaved= 19 BigCof=    0.00 CofMax=   10.00 Det=-1.45D-15
 Inversion failed.  Reducing to 18 matrices.
 Large coefficients: NSaved= 18 BigCof=    0.00 CofMax=   10.00 Det=-1.78D-15
 Inversion failed.  Reducing to 17 matrices.
 Large coefficients: NSaved= 17 BigCof=    0.00 CofMax=   10.00 Det=-1.82D-15
 Inversion failed.  Reducing to 16 matrices.
 Large coefficients: NSaved= 16 BigCof=    0.00 CofMax=   10.00 Det=-1.82D-15
 Inversion failed.  Reducing to 15 matrices.
 Coeff-Com:  0.121D-05 0.171D-06-0.745D-05-0.346D-05 0.152D-04 0.861D-04
 Coeff-Com:  0.164D-04-0.389D-03-0.127D-02 0.278D-02 0.120D-01-0.211D-01
 Coeff-Com: -0.112D+00 0.885D-02 0.111D+01
 Coeff:      0.121D-05 0.171D-06-0.745D-05-0.346D-05 0.152D-04 0.861D-04
 Coeff:      0.164D-04-0.389D-03-0.127D-02 0.278D-02 0.120D-01-0.211D-01
 Coeff:     -0.112D+00 0.885D-02 0.111D+01
 Gap=     0.051 Goal=   None    Shift=    0.000
 Gap=     0.054 Goal=   None    Shift=    0.000
 RMSDP=1.73D-08 MaxDP=1.15D-06 DE=-5.91D-12 OVMax= 1.19D-07

 Cycle  20  Pass 1  IDiag  1:
 E= -1136.11054872022     Delta-E=        0.000000000008 Rises=F Damp=F
 DIIS: error= 5.92D-10 at cycle  20 NSaved=  16.
 NSaved=16 IEnMin=13 EnMin= -1136.11054872024     IErMin=16 ErrMin= 5.92D-10
 ErrMax= 5.92D-10  0.00D+00 EMaxC= 1.00D-01 BMatC= 1.19D-16 BMatP= 6.22D-16
 IDIUse=1 WtCom= 1.00D+00 WtEn= 0.00D+00
 Large coefficients: NSaved= 16 BigCof=    0.00 CofMax=   10.00 Det=-2.19D-16
 Inversion failed.  Reducing to 15 matrices.
 Coeff-Com:  0.422D-06-0.939D-06-0.523D-05-0.435D-05 0.262D-04 0.444D-04
 Coeff-Com:  0.244D-04-0.517D-03-0.121D-02 0.377D-02 0.170D-01-0.108D-01
 Coeff-Com: -0.138D+00-0.424D-01 0.117D+01
 Coeff:      0.422D-06-0.939D-06-0.523D-05-0.435D-05 0.262D-04 0.444D-04
 Coeff:      0.244D-04-0.517D-03-0.121D-02 0.377D-02 0.170D-01-0.108D-01
 Coeff:     -0.138D+00-0.424D-01 0.117D+01
 Gap=     0.051 Goal=   None    Shift=    0.000
 Gap=     0.054 Goal=   None    Shift=    0.000
 RMSDP=1.17D-08 MaxDP=6.43D-07 DE= 7.73D-12 OVMax= 5.92D-08

 Cycle  21  Pass 1  IDiag  1:
 E= -1136.11054872023     Delta-E=       -0.000000000007 Rises=F Damp=F
 DIIS: error= 2.81D-10 at cycle  21 NSaved=  16.
 NSaved=16 IEnMin=12 EnMin= -1136.11054872024     IErMin=16 ErrMin= 2.81D-10
 ErrMax= 2.81D-10  0.00D+00 EMaxC= 1.00D-01 BMatC= 3.07D-17 BMatP= 1.19D-16
 IDIUse=1 WtCom= 1.00D+00 WtEn= 0.00D+00
 Large coefficients: NSaved= 16 BigCof=    0.00 CofMax=   10.00 Det=-5.20D-17
 Inversion failed.  Reducing to 15 matrices.
 Coeff-Com:  0.176D-05 0.487D-06-0.179D-04-0.163D-04 0.192D-04 0.195D-03
 Coeff-Com:  0.116D-03-0.813D-03-0.281D-02 0.891D-02 0.174D-01-0.150D-01
 Coeff-Com: -0.224D+00 0.187D+00 0.103D+01
 Coeff:      0.176D-05 0.487D-06-0.179D-04-0.163D-04 0.192D-04 0.195D-03
 Coeff:      0.116D-03-0.813D-03-0.281D-02 0.891D-02 0.174D-01-0.150D-01
 Coeff:     -0.224D+00 0.187D+00 0.103D+01
 Gap=     0.051 Goal=   None    Shift=    0.000
 Gap=     0.054 Goal=   None    Shift=    0.000
 RMSDP=4.30D-09 MaxDP=2.56D-07 DE=-7.28D-12 OVMax= 2.36D-08

 SCF Done:  E(UB3LYP) =  -1136.11054872     A.U. after   21 cycles
            NFock= 21  Conv=0.43D-08     -V/T= 2.0026
 <Sx>= 0.0000 <Sy>= 0.0000 <Sz>= 0.5000 <S**2>= 0.7667 S= 0.5083
 <L.S>= 0.000000000000E+00
 KE= 1.133142011447D+03 PE=-3.424716842960D+03 EE= 8.078698038150D+02
 Annihilation of the first spin contaminant:
 S**2 before annihilation     0.7667,   after     0.7501
 Leave Link  502 at Mon Nov 13 17:26:54 2023, MaxMem=  1879048192 cpu:             206.0 elap:              17.7
 (Enter /home/sekinelabo/g16/l601.exe)
 Copying SCF densities to generalized density rwf, IOpCl= 1 IROHF=0.

 **********************************************************************

            Population analysis using the SCF Density.

 **********************************************************************

 Orbital symmetries:
 Alpha Orbitals:
       Occupied  (A) (A) (A) (A) (A) (A) (A) (A) (A) (A) (A) (A)
                 (A) (A) (A) (A) (A) (A) (A) (A) (A) (A) (A) (A)
                 (A) (A) (A) (A) (A) (A) (A) (A) (A) (A) (A) (A)
                 (A) (A) (A)
       Virtual   (A) (A) (A) (A) (A) (A) (A) (A) (A) (A) (A) (A)
                 (A) (A) (A) (A) (A) (A) (A) (A) (A) (A) (A) (A)
                 (A) (A) (A) (A) (A) (A) (A) (A) (A) (A) (A) (A)
                 (A) (A) (A) (A) (A) (A) (A) (A) (A) (A) (A) (A)
                 (A) (A) (A) (A) (A) (A) (A) (A) (A) (A) (A) (A)
                 (A) (A) (A) (A) (A) (A) (A) (A) (A) (A) (A) (A)
                 (A) (A) (A) (A) (A) (A) (A) (A) (A) (A) (A) (A)
                 (A) (A) (A) (A) (A) (A) (A) (A) (A) (A) (A) (A)
                 (A) (A) (A) (A) (A) (A) (A) (A) (A) (A) (A) (A)
                 (A) (A) (A) (A) (A) (A) (A) (A) (A) (A) (A) (A)
                 (A) (A) (A) (A) (A) (A) (A) (A) (A) (A) (A) (A)
                 (A) (A) (A) (A) (A) (A) (A) (A) (A) (A) (A) (A)
                 (A) (A) (A) (A) (A) (A) (A) (A) (A) (A) (A) (A)
                 (A) (A) (A) (A) (A) (A) (A) (A) (A) (A) (A) (A)
                 (A) (A) (A)
 Beta  Orbitals:
       Occupied  (A) (A) (A) (A) (A) (A) (A) (A) (A) (A) (A) (A)
                 (A) (A) (A) (A) (A) (A) (A) (A) (A) (A) (A) (A)
                 (A) (A) (A) (A) (A) (A) (A) (A) (A) (A) (A) (A)
                 (A) (A)
       Virtual   (A) (A) (A) (A) (A) (A) (A) (A) (A) (A) (A) (A)
                 (A) (A) (A) (A) (A) (A) (A) (A) (A) (A) (A) (A)
                 (A) (A) (A) (A) (A) (A) (A) (A) (A) (A) (A) (A)
                 (A) (A) (A) (A) (A) (A) (A) (A) (A) (A) (A) (A)
                 (A) (A) (A) (A) (A) (A) (A) (A) (A) (A) (A) (A)
                 (A) (A) (A) (A) (A) (A) (A) (A) (A) (A) (A) (A)
                 (A) (A) (A) (A) (A) (A) (A) (A) (A) (A) (A) (A)
                 (A) (A) (A) (A) (A) (A) (A) (A) (A) (A) (A) (A)
                 (A) (A) (A) (A) (A) (A) (A) (A) (A) (A) (A) (A)
                 (A) (A) (A) (A) (A) (A) (A) (A) (A) (A) (A) (A)
                 (A) (A) (A) (A) (A) (A) (A) (A) (A) (A) (A) (A)
                 (A) (A) (A) (A) (A) (A) (A) (A) (A) (A) (A) (A)
                 (A) (A) (A) (A) (A) (A) (A) (A) (A) (A) (A) (A)
                 (A) (A) (A) (A) (A) (A) (A) (A) (A) (A) (A) (A)
                 (A) (A) (A) (A)
 The electronic state is 2-A.
 Alpha  occ. eigenvalues --  -38.44554 -38.44253 -38.43755 -38.43714 -38.43564
 Alpha  occ. eigenvalues --  -38.43330 -38.42903  -2.20446  -2.20141  -2.19670
 Alpha  occ. eigenvalues --   -2.19629  -2.19561  -2.19233  -2.19109  -1.14192
 Alpha  occ. eigenvalues --   -1.14101  -1.14072  -1.13849  -1.13775  -1.13736
 Alpha  occ. eigenvalues --   -1.13447  -1.13433  -1.13358  -1.13313  -1.13289
 Alpha  occ. eigenvalues --   -1.13226  -1.13218  -1.13170  -1.13135  -1.12975
 Alpha  occ. eigenvalues --   -1.12862  -1.12840  -1.12775  -1.12749  -1.12680
 Alpha  occ. eigenvalues --   -0.18725  -0.13882  -0.12445  -0.10838
 Alpha virt. eigenvalues --   -0.05698  -0.04982  -0.04090  -0.03841  -0.03027
 Alpha virt. eigenvalues --   -0.02010  -0.01579  -0.01156  -0.00369  -0.00010
 Alpha virt. eigenvalues --    0.00282   0.00414   0.00695   0.00825   0.00929
 Alpha virt. eigenvalues --    0.01010   0.01105   0.01164   0.01238   0.01278
 Alpha virt. eigenvalues --    0.01420   0.01471   0.01553   0.01849   0.02066
 Alpha virt. eigenvalues --    0.02291   0.02520   0.02650   0.02707   0.02748
 Alpha virt. eigenvalues --    0.02848   0.02947   0.03083   0.03095   0.03156
 Alpha virt. eigenvalues --    0.03271   0.03325   0.03354   0.03478   0.03876
 Alpha virt. eigenvalues --    0.04047   0.04086   0.04458   0.04555   0.04979
 Alpha virt. eigenvalues --    0.05128   0.05179   0.05515   0.05658   0.06302
 Alpha virt. eigenvalues --    0.06336   0.06639   0.07051   0.07152   0.07520
 Alpha virt. eigenvalues --    0.07840   0.08133   0.08480   0.08616   0.09167
 Alpha virt. eigenvalues --    0.09283   0.09454   0.09909   0.10484   0.11452
 Alpha virt. eigenvalues --    0.11850   0.11978   0.12275   0.13039   0.13545
 Alpha virt. eigenvalues --    0.13616   0.14136   0.14211   0.14453   0.15386
 Alpha virt. eigenvalues --    0.15462   0.16658   0.17763   0.18031   0.20328
 Alpha virt. eigenvalues --    0.24581   0.25359   0.27281   0.28736   0.29590
 Alpha virt. eigenvalues --    0.31349   0.31588   0.32010   0.32483   0.33071
 Alpha virt. eigenvalues --    0.34219   0.34631   0.35684   0.36988   0.37246
 Alpha virt. eigenvalues --    0.38007   0.39941   0.40781   0.42016   0.43008
 Alpha virt. eigenvalues --    0.43481   0.43794   0.44331   0.44751   0.44990
 Alpha virt. eigenvalues --    0.45033   0.45764   0.45957   0.46776   0.47556
 Alpha virt. eigenvalues --    0.47750   0.48064   0.48228   0.48964   0.49270
 Alpha virt. eigenvalues --    0.50136   0.50159   0.50577   0.51621   0.52069
 Alpha virt. eigenvalues --    0.52850   0.53887   0.55261   0.56210   0.56750
 Alpha virt. eigenvalues --    0.58168   0.58442   0.67271   0.67796   0.69400
 Alpha virt. eigenvalues --    0.70817   0.72376   0.74562   0.75163   0.79573
 Alpha virt. eigenvalues --    0.84030   2.09749   2.12535   2.16000   2.19581
 Alpha virt. eigenvalues --    2.20015   2.24119   2.34083   4.40802   4.41658
 Alpha virt. eigenvalues --    4.42376   4.43295   4.43538   4.44440   4.45346
 Alpha virt. eigenvalues --    4.46122   4.46700   4.47697   4.47927   4.48511
 Alpha virt. eigenvalues --    4.54563   4.55412   4.60065   4.63814   4.67781
 Alpha virt. eigenvalues --    4.69184   4.73071   4.73684   4.77970  96.30673
 Alpha virt. eigenvalues --   96.34298  96.38991  96.44193  96.44606  96.49810
 Alpha virt. eigenvalues --   96.62919
  Beta  occ. eigenvalues --  -38.44540 -38.44250 -38.43715 -38.43662 -38.43519
  Beta  occ. eigenvalues --  -38.43319 -38.42864  -2.20420  -2.20139  -2.19600
  Beta  occ. eigenvalues --   -2.19535  -2.19481  -2.19213  -2.19045  -1.14179
  Beta  occ. eigenvalues --   -1.14079  -1.14053  -1.13846  -1.13769  -1.13724
  Beta  occ. eigenvalues --   -1.13397  -1.13358  -1.13282  -1.13258  -1.13241
  Beta  occ. eigenvalues --   -1.13163  -1.13159  -1.13107  -1.13085  -1.12944
  Beta  occ. eigenvalues --   -1.12841  -1.12819  -1.12719  -1.12676  -1.12642
  Beta  occ. eigenvalues --   -0.18091  -0.13525  -0.12285
  Beta virt. eigenvalues --   -0.06901  -0.05591  -0.04898  -0.03884  -0.03216
  Beta virt. eigenvalues --   -0.02412  -0.01487  -0.01245  -0.01113  -0.00089
  Beta virt. eigenvalues --    0.00091   0.00343   0.00478   0.00758   0.00873
  Beta virt. eigenvalues --    0.00992   0.01124   0.01168   0.01233   0.01369
  Beta virt. eigenvalues --    0.01392   0.01513   0.01619   0.01742   0.01921
  Beta virt. eigenvalues --    0.02166   0.02360   0.02569   0.02645   0.02741
  Beta virt. eigenvalues --    0.02768   0.02912   0.03029   0.03092   0.03233
  Beta virt. eigenvalues --    0.03255   0.03361   0.03432   0.03473   0.03557
  Beta virt. eigenvalues --    0.03952   0.04109   0.04132   0.04644   0.04683
  Beta virt. eigenvalues --    0.05129   0.05235   0.05356   0.05537   0.05812
  Beta virt. eigenvalues --    0.06352   0.06418   0.06675   0.07109   0.07287
  Beta virt. eigenvalues --    0.07617   0.07959   0.08301   0.08649   0.08808
  Beta virt. eigenvalues --    0.09309   0.09470   0.09701   0.10098   0.10574
  Beta virt. eigenvalues --    0.11679   0.12108   0.12234   0.12640   0.13123
  Beta virt. eigenvalues --    0.13843   0.13864   0.14356   0.14395   0.14566
  Beta virt. eigenvalues --    0.15501   0.15760   0.16894   0.17893   0.18456
  Beta virt. eigenvalues --    0.20496   0.24925   0.25552   0.27624   0.29091
  Beta virt. eigenvalues --    0.29866   0.31579   0.31916   0.32247   0.32660
  Beta virt. eigenvalues --    0.33403   0.34499   0.34864   0.35930   0.37257
  Beta virt. eigenvalues --    0.37485   0.38216   0.40220   0.41118   0.42298
  Beta virt. eigenvalues --    0.43089   0.43664   0.43992   0.44466   0.45002
  Beta virt. eigenvalues --    0.45116   0.45200   0.45922   0.46057   0.46953
  Beta virt. eigenvalues --    0.47690   0.48011   0.48183   0.48441   0.49141
  Beta virt. eigenvalues --    0.49438   0.50256   0.50322   0.50747   0.51812
  Beta virt. eigenvalues --    0.52277   0.53041   0.54132   0.55430   0.56411
  Beta virt. eigenvalues --    0.57096   0.58349   0.58637   0.67350   0.67970
  Beta virt. eigenvalues --    0.69564   0.71069   0.72431   0.74797   0.75276
  Beta virt. eigenvalues --    0.79673   0.84230   2.09874   2.12632   2.16067
  Beta virt. eigenvalues --    2.19653   2.20182   2.24270   2.34225   4.40854
  Beta virt. eigenvalues --    4.41740   4.42431   4.43344   4.43592   4.44466
  Beta virt. eigenvalues --    4.45400   4.46171   4.46722   4.47725   4.47986
  Beta virt. eigenvalues --    4.48563   4.54596   4.55465   4.60118   4.63886
  Beta virt. eigenvalues --    4.67845   4.69204   4.73114   4.73751   4.78002
  Beta virt. eigenvalues --   96.30714  96.34330  96.39018  96.44238  96.44635
  Beta virt. eigenvalues --   96.49859  96.62966
          Condensed to atoms (all electrons):
               1          2          3          4          5          6
     1  Na  13.020805  -2.888930  -1.027409   0.966651  -0.435482   2.183270
     2  Na  -2.888930  16.728109   1.421197  -2.636685   0.181956  -4.572547
     3  Na  -1.027409   1.421197  11.551995  -0.893081   0.828111  -1.146769
     4  Na   0.966651  -2.636685  -0.893081  13.420719  -1.348987   2.780321
     5  Na  -0.435482   0.181956   0.828111  -1.348987  15.253721  -2.066339
     6  Na   2.183270  -4.572547  -1.146769   2.780321  -2.066339  15.567905
     7  Na  -0.315138   2.023331   0.395936  -2.040608   0.208444  -2.334779
               7
     1  Na  -0.315138
     2  Na   2.023331
     3  Na   0.395936
     4  Na  -2.040608
     5  Na   0.208444
     6  Na  -2.334779
     7  Na  12.891820
          Atomic-Atomic Spin Densities.
               1          2          3          4          5          6
     1  Na  -0.252261   0.296860   0.062601  -0.088390   0.437691  -0.307977
     2  Na   0.296860   0.107529  -0.108953  -0.000035  -0.626594   0.074084
     3  Na   0.062601  -0.108953   0.157272  -0.162604   0.235403  -0.008544
     4  Na  -0.088390  -0.000035  -0.162604   0.554732  -0.254457   0.187370
     5  Na   0.437691  -0.626594   0.235403  -0.254457   0.519442   0.462977
     6  Na  -0.307977   0.074084  -0.008544   0.187370   0.462977  -0.107278
     7  Na  -0.021780   0.210971  -0.053519  -0.166711  -0.023679  -0.269200
               7
     1  Na  -0.021780
     2  Na   0.210971
     3  Na  -0.053519
     4  Na  -0.166711
     5  Na  -0.023679
     6  Na  -0.269200
     7  Na   0.269534
 Mulliken charges and spin densities:
               1          2
     1  Na  -0.503766   0.126743
     2  Na   0.743568  -0.046137
     3  Na  -0.129981   0.121657
     4  Na   0.751670   0.069906
     5  Na  -1.621423   0.750782
     6  Na   0.588938   0.031432
     7  Na   0.170995  -0.054384
 Sum of Mulliken charges =  -0.00000   1.00000
 Mulliken charges and spin densities with hydrogens summed into heavy atoms:
               1          2
     1  Na  -0.503766   0.126743
     2  Na   0.743568  -0.046137
     3  Na  -0.129981   0.121657
     4  Na   0.751670   0.069906
     5  Na  -1.621423   0.750782
     6  Na   0.588938   0.031432
     7  Na   0.170995  -0.054384
 Electronic spatial extent (au):  <R**2>=           2338.0928
 Charge=             -0.0000 electrons
 Dipole moment (field-independent basis, Debye):
    X=             -0.7878    Y=             -0.2657    Z=             -0.0785  Tot=              0.8350
 Quadrupole moment (field-independent basis, Debye-Ang):
   XX=            -60.6717   YY=            -62.1173   ZZ=            -70.8796
   XY=             -2.3812   XZ=              2.3426   YZ=              1.6438
 Traceless Quadrupole moment (field-independent basis, Debye-Ang):
   XX=              3.8845   YY=              2.4389   ZZ=             -6.3234
   XY=             -2.3812   XZ=              2.3426   YZ=              1.6438
 Octapole moment (field-independent basis, Debye-Ang**2):
  XXX=            -24.2543  YYY=             -1.9157  ZZZ=              4.0651  XYY=             -9.6526
  XXY=             -0.5792  XXZ=             -7.3691  XZZ=              5.8696  YZZ=              1.4168
  YYZ=              6.7111  XYZ=              2.0885
 Hexadecapole moment (field-independent basis, Debye-Ang**3):
 XXXX=          -1743.8261 YYYY=          -1318.3107 ZZZZ=           -762.5238 XXXY=           -102.0506
 XXXZ=             36.2248 YYYX=             54.7068 YYYZ=             63.3148 ZZZX=             33.4915
 ZZZY=             -4.0457 XXYY=           -537.5530 XXZZ=           -427.6720 YYZZ=           -353.2055
 XXYZ=             -3.2143 YYXZ=             -6.0731 ZZXY=            -20.9144
 N-N= 3.475944789773D+02 E-N=-3.424716843034D+03  KE= 1.133142011447D+03
                          Isotropic Fermi Contact Couplings
        Atom                 a.u.       MegaHertz       Gauss      10(-4) cm-1
     1  Na(23)             0.15263     180.56914      64.43156      60.23138
     2  Na(23)             0.03358      39.72700      14.17558      13.25150
     3  Na(23)             0.13443     159.03001      56.74586      53.04670
     4  Na(23)             0.20208     239.06675      85.30496      79.74408
     5  Na(23)             0.08643     102.24635      36.48404      34.10571
     6  Na(23)            -0.01474     -17.43766      -6.22219      -5.81658
     7  Na(23)             0.05765      68.20469      24.33713      22.75064
 --------------------------------------------------------
       Center         ----  Spin Dipole Couplings  ----
                      3XX-RR        3YY-RR        3ZZ-RR
 --------------------------------------------------------
     1   Atom       -0.006081     -0.002869      0.008950
     2   Atom       -0.007638      0.002338      0.005300
     3   Atom       -0.012943      0.007440      0.005503
     4   Atom        0.014805     -0.004395     -0.010411
     5   Atom       -0.024731     -0.020172      0.044903
     6   Atom       -0.000304     -0.009695      0.009998
     7   Atom       -0.002203     -0.000543      0.002747
 --------------------------------------------------------
                        XY            XZ            YZ
 --------------------------------------------------------
     1   Atom       -0.012848     -0.016134      0.022366
     2   Atom        0.001560     -0.000137     -0.012484
     3   Atom       -0.005746      0.008423     -0.024154
     4   Atom       -0.008376     -0.011086      0.005820
     5   Atom       -0.008407      0.038426     -0.006996
     6   Atom       -0.001530      0.015877     -0.005683
     7   Atom        0.000526     -0.002016      0.006726
 --------------------------------------------------------


 ---------------------------------------------------------------------------------
              Anisotropic Spin Dipole Couplings in Principal Axis System
 ---------------------------------------------------------------------------------

       Atom             a.u.   MegaHertz   Gauss  10(-4) cm-1        Axes

              Baa    -0.0201    -2.841    -1.014    -0.948  0.0689  0.8088 -0.5841
     1 Na(23) Bbb    -0.0161    -2.275    -0.812    -0.759  0.8962  0.2070  0.3923
              Bcc     0.0362     5.116     1.825     1.706 -0.4382  0.5505  0.7106
 
              Baa    -0.0094    -1.330    -0.475    -0.444 -0.5274  0.6504  0.5467
     2 Na(23) Bbb    -0.0070    -0.992    -0.354    -0.331  0.8483  0.3673  0.3815
              Bcc     0.0164     2.322     0.829     0.775 -0.0473 -0.6649  0.7454
 
              Baa    -0.0188    -2.659    -0.949    -0.887 -0.4729  0.5381  0.6977
     3 Na(23) Bbb    -0.0140    -1.976    -0.705    -0.659  0.8549  0.4720  0.2155
              Bcc     0.0328     4.635     1.654     1.546 -0.2134  0.6984 -0.6832
 
              Baa    -0.0154    -2.168    -0.774    -0.723  0.2573 -0.2924  0.9210
     4 Na(23) Bbb    -0.0073    -1.027    -0.366    -0.343  0.4213  0.8917  0.1654
              Bcc     0.0226     3.195     1.140     1.066  0.8696 -0.3455 -0.3527
 
              Baa    -0.0428    -6.051    -2.159    -2.018  0.9003  0.2175 -0.3769
     5 Na(23) Bbb    -0.0202    -2.859    -1.020    -0.954 -0.1528  0.9690  0.1942
              Bcc     0.0631     8.910     3.179     2.972  0.4075 -0.1172  0.9057
 
              Baa    -0.0134    -1.892    -0.675    -0.631  0.5925 -0.5924 -0.5459
     6 Na(23) Bbb    -0.0091    -1.282    -0.458    -0.428  0.5681  0.7877 -0.2381
              Bcc     0.0225     3.175     1.133     1.059  0.5711 -0.1690  0.8033
 
              Baa    -0.0065    -0.915    -0.327    -0.305 -0.3695  0.7107 -0.5987
     7 Na(23) Bbb    -0.0017    -0.240    -0.086    -0.080  0.9211  0.3653 -0.1349
              Bcc     0.0082     1.155     0.412     0.385 -0.1228  0.6012  0.7896
 

 ---------------------------------------------------------------------------------

 No NMR shielding tensors so no spin-rotation constants.
 Leave Link  601 at Mon Nov 13 17:26:55 2023, MaxMem=  1879048192 cpu:               4.4 elap:               0.3
 (Enter /home/sekinelabo/g16/l701.exe)
 ... and contract with generalized density number  0.
 Compute integral first derivatives.
 Leave Link  701 at Mon Nov 13 17:26:55 2023, MaxMem=  1879048192 cpu:               1.8 elap:               0.1
 (Enter /home/sekinelabo/g16/l702.exe)
 L702 exits ... SP integral derivatives will be done elsewhere.
 Leave Link  702 at Mon Nov 13 17:26:55 2023, MaxMem=  1879048192 cpu:               0.5 elap:               0.0
 (Enter /home/sekinelabo/g16/l703.exe)
 Integral derivatives from FoFJK, PRISM(SPDF).
 Compute integral first derivatives, UseDBF=F ICtDFT=           0.
 Calling FoFJK, ICntrl=      2127 FMM=F ISym2X=0 I1Cent= 0 IOpClX= 1 NMat=1 NMatS=1 NMatT=0.
 FoFJK:  IHMeth= 1 ICntrl=    2127 DoSepK=F KAlg= 0 I1Cent=           0 FoldK=F
 IRaf=         0 NMat=       1 IRICut=       1 DoRegI=T DoRafI=F ISym2E= 0 IDoP0=0 IntGTp=1.
 FoFCou: FMM=F IPFlag=           0 FMFlag=      100000 FMFlg1=         800
         NFxFlg=           0 DoJE=F BraDBF=F KetDBF=F FulRan=T
         wScrn=  0.000000 ICntrl=      2127 IOpCl=  1 I1Cent=           0 NGrid=           0
         NMat0=    1 NMatS0=      1 NMatT0=    0 NMatD0=    1 NMtDS0=    0 NMtDT0=    0
 Symmetry not used in FoFCou.
 Leave Link  703 at Mon Nov 13 17:26:57 2023, MaxMem=  1879048192 cpu:              36.9 elap:               2.4
 (Enter /home/sekinelabo/g16/l716.exe)
 Dipole        =-3.09926274D-01-1.04515731D-01-3.08816583D-02
 ***** Axes restored to original set *****
 -------------------------------------------------------------------
 Center     Atomic                   Forces (Hartrees/Bohr)
 Number     Number              X              Y              Z
 -------------------------------------------------------------------
      1       11           0.002581808   -0.004141444    0.008030524
      2       11          -0.002049407   -0.008746585   -0.004150939
      3       11           0.003523331    0.005266671    0.005286058
      4       11           0.001399905    0.002962938   -0.006784629
      5       11          -0.000933960    0.000474993   -0.006287521
      6       11           0.001508408    0.009318516    0.000256853
      7       11          -0.006030085   -0.005135089    0.003649653
 -------------------------------------------------------------------
 Cartesian Forces:  Max     0.009318516 RMS     0.004961574
 Z-matrix is all fixed cartesians, so copy forces.
 Force constants in Cartesian coordinates: 
                1             2             3             4             5 
      1  0.708443D-01
      2  0.152047D-01  0.994286D-01
      3  0.205160D-01 -0.164076D-01  0.117282D+00
      4 -0.125510D-01 -0.144419D-01 -0.864619D-02  0.413245D-01
      5 -0.115097D-02 -0.230084D-01  0.698447D-02  0.750606D-02  0.679435D-01
      6 -0.104020D-01 -0.197933D-01 -0.389478D-01  0.761759D-02  0.886506D-02
      7 -0.210616D-01 -0.491864D-02 -0.129829D-01  0.331621D-02 -0.526742D-03
      8 -0.219630D-01 -0.377565D-01 -0.765908D-02 -0.611831D-02 -0.740014D-03
      9  0.488635D-02  0.198192D-01 -0.298850D-01 -0.367120D-02 -0.490807D-02
     10  0.994267D-03  0.404602D-02 -0.833440D-03  0.398204D-02 -0.126247D-02
     11 -0.285411D-02 -0.676256D-02  0.107623D-01 -0.746824D-02 -0.396957D-02
     12  0.602759D-02  0.520461D-02 -0.135887D-01 -0.954778D-03 -0.275704D-02
     13 -0.354274D-01 -0.266259D-02 -0.232244D-02 -0.412144D-01 -0.567698D-02
     14  0.765628D-02 -0.326475D-01  0.873644D-02  0.102288D-01 -0.426183D-01
     15 -0.137036D-01  0.627773D-02 -0.446015D-01  0.758307D-02 -0.744948D-02
     16 -0.268279D-03  0.295640D-02  0.204361D-02  0.502284D-02  0.112552D-02
     17  0.528620D-03 -0.779865D-04 -0.535636D-03  0.339121D-02  0.827330D-03
     18 -0.215961D-02  0.524939D-02  0.518340D-02 -0.245402D-02 -0.767522D-03
     19 -0.253031D-02 -0.184005D-03  0.222537D-02  0.119847D-03 -0.144144D-04
     20  0.257843D-02  0.824313D-03 -0.188088D-02  0.690237D-02  0.156539D-02
     21 -0.516476D-02 -0.350119D-03  0.455781D-02  0.525532D-03  0.325894D-04
                6             7             8             9            10 
      6  0.474080D-01
      7  0.641100D-03  0.506019D-01
      8 -0.220375D-02  0.223046D-01  0.567795D-01
      9  0.664666D-02  0.194253D-01  0.589362D-03  0.712037D-01
     10  0.112549D-02 -0.152710D-01 -0.415007D-02 -0.207065D-01  0.556137D-01
     11  0.532099D-02 -0.112846D-01 -0.115794D-01 -0.780109D-02  0.118005D-01
     12  0.548989D-02  0.197667D-02  0.128623D-01 -0.426144D-01  0.886287D-04
     13  0.197974D-02 -0.141011D-01  0.524779D-02 -0.313195D-02 -0.437353D-01
     14  0.146029D-01 -0.345564D-02 -0.937658D-02 -0.976814D-02 -0.512580D-02
     15 -0.301363D-01 -0.485156D-02 -0.670068D-02 -0.110398D-01  0.172730D-01
     16 -0.210198D-02 -0.222663D-02  0.421508D-02  0.116246D-02 -0.216183D-02
     17 -0.336381D-02 -0.691343D-03  0.155665D-02  0.182632D-03 -0.174937D-02
     18  0.730320D-02 -0.153277D-02  0.210144D-02  0.137566D-02  0.199150D-02
     19  0.114004D-02 -0.125784D-02  0.463861D-03  0.203555D-02  0.578110D-03
     20 -0.342814D-02 -0.142762D-02  0.111637D-02  0.188606D-02 -0.355880D-02
     21  0.223638D-02 -0.267580D-02  0.101036D-02  0.431325D-02  0.106126D-02
               11            12            13            14            15 
     11  0.540602D-01
     12 -0.142905D-01  0.806539D-01
     13  0.416833D-02 -0.114399D-01  0.200144D+00
     14 -0.432868D-01 -0.474824D-02 -0.661227D-03  0.208926D+00
     15  0.771735D-02 -0.349521D-01 -0.650667D-02  0.187391D-02  0.199746D+00
     16  0.545222D-02  0.261255D-02 -0.298835D-01  0.138702D-02 -0.352119D-03
     17  0.360356D-02  0.939849D-03 -0.441811D-02 -0.441681D-01  0.253175D-02
     18 -0.241351D-02  0.138311D-02  0.626647D-02 -0.134924D-01 -0.383744D-01
     19  0.185963D-03  0.168927D-02 -0.357819D-01 -0.100295D-01  0.557824D-03
     20  0.793463D-02  0.278898D-02  0.400279D-02 -0.368287D-01 -0.425058D-02
     21  0.704460D-03  0.362844D-02  0.151548D-01  0.279557D-02 -0.406415D-01
               16            17            18            19            20 
     16  0.417911D-01
     17  0.900248D-02  0.728666D-01
     18 -0.871625D-02 -0.414799D-03  0.234865D-01
     19 -0.122737D-01 -0.606349D-02  0.660469D-02  0.511457D-01
     20 -0.241387D-01 -0.346081D-01  0.973743D-02  0.156415D-01  0.599961D-01
     21  0.535174D-02  0.660009D-03 -0.357480D-03 -0.142527D-01 -0.485287D-02
               21 
     21  0.262631D-01
 Leave Link  716 at Mon Nov 13 17:26:57 2023, MaxMem=  1879048192 cpu:               0.5 elap:               0.0
 (Enter /home/sekinelabo/g16/l103.exe)

 GradGradGradGradGradGradGradGradGradGradGradGradGradGradGradGradGradGrad
 Berny optimization.
 Search for a local minimum.
 Step number   1 out of a maximum of    2
 All quantities printed in internal units (Hartrees-Bohrs-Radians)
 Second derivative matrix not updated -- first step.
 ITU=  0
     Eigenvalues ---    0.01956   0.03073   0.04045   0.04473   0.05479
     Eigenvalues ---    0.05905   0.07106   0.08933   0.11651   0.11717
     Eigenvalues ---    0.14712   0.15891   0.23443   0.25096   0.25417
 Angle between quadratic step and forces=  27.13 degrees.
 Linear search not attempted -- first point.
 B after Tr=    -0.000000    0.000000    0.000000
         Rot=    1.000000   -0.000000   -0.000000   -0.000000 Ang=   0.00 deg.
 Variable       Old X    -DE/DX   Delta X   Delta X   Delta X     New X
                                 (Linear)    (Quad)   (Total)
    X1        8.62839   0.00258   0.00000   0.05405   0.05405   8.68244
    Y1        3.23011  -0.00414   0.00000  -0.06366  -0.06366   3.16645
    Z1        5.68841   0.00803   0.00000   0.04699   0.04699   5.73540
    X2        6.27301  -0.00205   0.00000  -0.00749  -0.00749   6.26552
    Y2        0.00000  -0.00875   0.00000  -0.14922  -0.14922  -0.14922
    Z2        1.68849  -0.00415   0.00000  -0.05129  -0.05129   1.63720
    X3       11.62732   0.00352   0.00000   0.06164   0.06164  11.68895
    Y3        8.03105   0.00527   0.00000   0.07447   0.07447   8.10552
    Z3        5.34017   0.00529   0.00000   0.06181   0.06181   5.40198
    X4        9.72812   0.00140   0.00000   0.06287   0.06287   9.79099
    Y4        8.27478   0.00296   0.00000   0.03993   0.03993   8.31471
    Z4        0.00000  -0.00678   0.00000  -0.06743  -0.06743  -0.06743
    X5        5.11136  -0.00093   0.00000  -0.01637  -0.01637   5.09499
    Y5        5.54304   0.00047   0.00000  -0.00588  -0.00588   5.53716
    Z5        1.88069  -0.00629   0.00000  -0.03284  -0.03284   1.84785
    X6        2.57406   0.00151   0.00000  -0.04538  -0.04538   2.52867
    Y6       10.38728   0.00932   0.00000   0.11403   0.11403  10.50131
    Z6        3.38164   0.00026   0.00000  -0.00501  -0.00501   3.37663
    X7        0.00000  -0.00603   0.00000  -0.10931  -0.10931  -0.10931
    Y7        5.44486  -0.00514   0.00000  -0.00968  -0.00968   5.43519
    Z7        4.33582   0.00365   0.00000   0.04777   0.04777   4.38359
         Item               Value     Threshold  Converged?
 Maximum Force            0.009319     0.000450     NO 
 RMS     Force            0.004962     0.000300     NO 
 Maximum Displacement     0.149221     0.001800     NO 
 RMS     Displacement     0.064803     0.001200     NO 
 Predicted change in Energy=-3.004483D-03
 GradGradGradGradGradGradGradGradGradGradGradGradGradGradGradGradGradGrad

 Leave Link  103 at Mon Nov 13 17:26:57 2023, MaxMem=  1879048192 cpu:               0.3 elap:               0.0
 (Enter /home/sekinelabo/g16/l9999.exe)
 1\1\GINC-SEKINELABO-XA7R-R37\Force\UB3LYP\6-311+G(d)\Na7(2)\SEKINELABO
 \13-Nov-2023\0\\#P B3LYP/6-311+g(d) force\\Gaussian input prepared by 
 ASE\\0,2\Na,4.5659492628,1.7092996228,3.010176718\Na,3.3195336087,0.,0
 .8935104441\Na,6.1529103064,4.249847665,2.8258968835\Na,5.1478971265,4
 .3788226819,0.\Na,2.7048158801,2.9332510514,0.9952199309\Na,1.36213260
 35,5.4967132189,1.7894875611\Na,0.,2.8812969765,2.2944177735\\Version=
 ES64L-G16RevB.01\State=2-A\HF=-1136.1105487\S2=0.766741\S2-1=0.\S2A=0.
 750126\RMSD=4.297e-09\RMSF=4.962e-03\Dipole=-0.3099263,0.1045157,0.030
 8817\Quadrupole=2.8880167,1.8132473,-4.701264,1.770396,-1.7416576,1.22
 21007\PG=C01 [X(Na7)]\\@


 WHEN A MATHEMATICIAN ENGAGED IN INVESTIGATING
 PHYSICAL ACTIONS AND RESULTS HAS ARRIVED AT HIS
 CONCLUSIONS, MAY THEY NOT BE EXPRESSED IN COMMON
 LANGUAGE AS FULLY, CLEARLY, AND DEFINITELY AS IN
 MATHEMATICAL FORMULAE?
           - LETTER FROM M. FARADAY TO J.C. MAXWELL, 1857.
 Job cpu time:       0 days  0 hours  4 minutes 23.0 seconds.
 Elapsed time:       0 days  0 hours  0 minutes 21.4 seconds.
 File lengths (MBytes):  RWF=     32 Int=      0 D2E=      0 Chk=      5 Scr=      1
 Normal termination of Gaussian 16 at Mon Nov 13 17:26:57 2023.
