 Entering Gaussian System, Link 0=g16
 Initial command:
 /home/sekinelabo/g16/l1.exe "/home/sekinelabo/g16temp/Gau-2028.inp" -scrdir="/home/sekinelabo/g16temp/"
 Entering Link 1 = /home/sekinelabo/g16/l1.exe PID=      2030.
  
 Copyright (c) 1988-2017, Gaussian, Inc.  All Rights Reserved.
  
 This is part of the Gaussian(R) 16 program.  It is based on
 the Gaussian(R) 09 system (copyright 2009, Gaussian, Inc.),
 the Gaussian(R) 03 system (copyright 2003, Gaussian, Inc.),
 the Gaussian(R) 98 system (copyright 1998, Gaussian, Inc.),
 the Gaussian(R) 94 system (copyright 1995, Gaussian, Inc.),
 the Gaussian 92(TM) system (copyright 1992, Gaussian, Inc.),
 the Gaussian 90(TM) system (copyright 1990, Gaussian, Inc.),
 the Gaussian 88(TM) system (copyright 1988, Gaussian, Inc.),
 the Gaussian 86(TM) system (copyright 1986, Carnegie Mellon
 University), and the Gaussian 82(TM) system (copyright 1983,
 Carnegie Mellon University). Gaussian is a federally registered
 trademark of Gaussian, Inc.
  
 This software contains proprietary and confidential information,
 including trade secrets, belonging to Gaussian, Inc.
  
 This software is provided under written license and may be
 used, copied, transmitted, or stored only in accord with that
 written license.
  
 The following legend is applicable only to US Government
 contracts under FAR:
  
                    RESTRICTED RIGHTS LEGEND
  
 Use, reproduction and disclosure by the US Government is
 subject to restrictions as set forth in subparagraphs (a)
 and (c) of the Commercial Computer Software - Restricted
 Rights clause in FAR 52.227-19.
  
 Gaussian, Inc.
 340 Quinnipiac St., Bldg. 40, Wallingford CT 06492
  
  
 ---------------------------------------------------------------
 Warning -- This program may not be used in any manner that
 competes with the business of Gaussian, Inc. or will provide
 assistance to any competitor of Gaussian, Inc.  The licensee
 of this program is prohibited from giving any competitor of
 Gaussian, Inc. access to this program.  By using this program,
 the user acknowledges that Gaussian, Inc. is engaged in the
 business of creating and licensing software in the field of
 computational chemistry and represents and warrants to the
 licensee that it is not a competitor of Gaussian, Inc. and that
 it will not use this program in any manner prohibited above.
 ---------------------------------------------------------------
  

 Cite this work as:
 Gaussian 16, Revision B.01,
 M. J. Frisch, G. W. Trucks, H. B. Schlegel, G. E. Scuseria, 
 M. A. Robb, J. R. Cheeseman, G. Scalmani, V. Barone, 
 G. A. Petersson, H. Nakatsuji, X. Li, M. Caricato, A. V. Marenich, 
 J. Bloino, B. G. Janesko, R. Gomperts, B. Mennucci, H. P. Hratchian, 
 J. V. Ortiz, A. F. Izmaylov, J. L. Sonnenberg, D. Williams-Young, 
 F. Ding, F. Lipparini, F. Egidi, J. Goings, B. Peng, A. Petrone, 
 T. Henderson, D. Ranasinghe, V. G. Zakrzewski, J. Gao, N. Rega, 
 G. Zheng, W. Liang, M. Hada, M. Ehara, K. Toyota, R. Fukuda, 
 J. Hasegawa, M. Ishida, T. Nakajima, Y. Honda, O. Kitao, H. Nakai, 
 T. Vreven, K. Throssell, J. A. Montgomery, Jr., J. E. Peralta, 
 F. Ogliaro, M. J. Bearpark, J. J. Heyd, E. N. Brothers, K. N. Kudin, 
 V. N. Staroverov, T. A. Keith, R. Kobayashi, J. Normand, 
 K. Raghavachari, A. P. Rendell, J. C. Burant, S. S. Iyengar, 
 J. Tomasi, M. Cossi, J. M. Millam, M. Klene, C. Adamo, R. Cammi, 
 J. W. Ochterski, R. L. Martin, K. Morokuma, O. Farkas, 
 J. B. Foresman, and D. J. Fox, Gaussian, Inc., Wallingford CT, 2016.
 
 ******************************************
 Gaussian 16:  ES64L-G16RevB.01 20-Dec-2017
                13-Nov-2023 
 ******************************************
 %mem=14GB
 %chk=checkpoint.chk
 %nprocshared=16
 Will use up to   16 processors via shared memory.
 -------------------------
 #P B3LYP/6-311+g(d) force
 -------------------------
 1/10=7,30=1,38=1/1,3;
 2/12=2,17=6,18=5,40=1/2;
 3/5=4,6=6,7=11,11=2,25=1,30=1,71=1,74=-5/1,2,3;
 4//1;
 5/5=2,38=5/2;
 6/7=2,8=2,9=2,10=2,28=1/1;
 7/29=1/1,2,3,16;
 1/10=7,30=1/3;
 99//99;
 Leave Link    1 at Mon Nov 13 20:44:02 2023, MaxMem=  1879048192 cpu:               0.3 elap:               0.0
 (Enter /home/sekinelabo/g16/l101.exe)
 ------------------------------
 Gaussian input prepared by ASE
 ------------------------------
 Symbolic Z-matrix:
 Charge =  0 Multiplicity = 2
 Na                    2.73719   1.96346   3.62251 
 Na                    2.73713   1.96464   0. 
 Na                    4.67469   0.53334   1.81061 
 Na                    4.69158   3.38031   1.81183 
 Na                    1.88519   0.        1.81065 
 Na                    1.90833   3.9349    1.81085 
 Na                    0.        1.97726   1.81154 
 
 ITRead=  0  0  0  0  0  0  0
 MicOpt= -1 -1 -1 -1 -1 -1 -1
 NAtoms=      7 NQM=        7 NQMF=       0 NMMI=      0 NMMIF=      0
                NMic=       0 NMicF=      0.
                    Isotopes and Nuclear Properties:
 (Nuclear quadrupole moments (NQMom) in fm**2, nuclear magnetic moments (NMagM)
  in nuclear magnetons)

  Atom         1           2           3           4           5           6           7
 IAtWgt=          23          23          23          23          23          23          23
 AtmWgt=  22.9897697  22.9897697  22.9897697  22.9897697  22.9897697  22.9897697  22.9897697
 NucSpn=           3           3           3           3           3           3           3
 AtZEff=  -0.0000000  -0.0000000  -0.0000000  -0.0000000  -0.0000000  -0.0000000  -0.0000000
 NQMom=   10.4000000  10.4000000  10.4000000  10.4000000  10.4000000  10.4000000  10.4000000
 NMagM=    2.2175200   2.2175200   2.2175200   2.2175200   2.2175200   2.2175200   2.2175200
 AtZNuc=  11.0000000  11.0000000  11.0000000  11.0000000  11.0000000  11.0000000  11.0000000
 Leave Link  101 at Mon Nov 13 20:44:03 2023, MaxMem=  1879048192 cpu:               2.6 elap:               0.2
 (Enter /home/sekinelabo/g16/l103.exe)

 GradGradGradGradGradGradGradGradGradGradGradGradGradGradGradGradGradGrad
 Berny optimization.
 Initialization pass.
 Trust Radius=3.00D-01 FncErr=1.00D-07 GrdErr=1.00D-07 EigMax=2.50D+02 EigMin=1.00D-04
 Number of steps in this run=      2 maximum allowed number of steps=      2.
 GradGradGradGradGradGradGradGradGradGradGradGradGradGradGradGradGradGrad

 Leave Link  103 at Mon Nov 13 20:44:03 2023, MaxMem=  1879048192 cpu:               0.2 elap:               0.0
 (Enter /home/sekinelabo/g16/l202.exe)
                          Input orientation:                          
 ---------------------------------------------------------------------
 Center     Atomic      Atomic             Coordinates (Angstroms)
 Number     Number       Type             X           Y           Z
 ---------------------------------------------------------------------
      1         11           0        2.737191    1.963464    3.622513
      2         11           0        2.737132    1.964638    0.000000
      3         11           0        4.674693    0.533337    1.810615
      4         11           0        4.691584    3.380308    1.811830
      5         11           0        1.885193    0.000000    1.810647
      6         11           0        1.908334    3.934899    1.810848
      7         11           0        0.000000    1.977255    1.811543
 ---------------------------------------------------------------------
                    Distance matrix (angstroms):
                    1          2          3          4          5
     1  Na   0.000000
     2  Na   3.622513   0.000000
     3  Na   3.013661   3.013485   0.000000
     4  Na   3.017561   3.017736   2.847021   0.000000
     5  Na   2.804274   2.804290   2.840028   4.393440   0.000000
     6  Na   2.802801   2.801429   4.384446   2.837966   3.934967
     7  Na   3.282076   3.282337   4.892612   4.896888   2.731939
                    6          7
     6  Na   0.000000
     7  Na   2.733881   0.000000
 Stoichiometry    Na7(2)
 Framework group  C1[X(Na7)]
 Deg. of freedom    15
 Full point group                 C1      NOp   1
 Largest Abelian subgroup         C1      NOp   1
 Largest concise Abelian subgroup C1      NOp   1
                         Standard orientation:                         
 ---------------------------------------------------------------------
 Center     Atomic      Atomic             Coordinates (Angstroms)
 Number     Number       Type             X           Y           Z
 ---------------------------------------------------------------------
      1         11           0       -0.075173    0.001379    1.811371
      2         11           0       -0.075114    0.000205   -1.811142
      3         11           0       -2.012675    1.431506   -0.000527
      4         11           0       -2.029566   -1.415465    0.000688
      5         11           0        0.776825    1.964843   -0.000496
      6         11           0        0.753684   -1.970056   -0.000294
      7         11           0        2.662018   -0.012413    0.000401
 ---------------------------------------------------------------------
 Rotational constants (GHZ):           1.1975841           0.9557551           0.7785989
 Leave Link  202 at Mon Nov 13 20:44:03 2023, MaxMem=  1879048192 cpu:               0.5 elap:               0.0
 (Enter /home/sekinelabo/g16/l301.exe)
 Standard basis: 6-311+G(d) (5D, 7F)
 Ernie: Thresh=  0.10000D-02 Tol=  0.10000D-05 Strict=F.
 There are   217 symmetry adapted cartesian basis functions of A   symmetry.
 There are   210 symmetry adapted basis functions of A   symmetry.
   210 basis functions,   350 primitive gaussians,   217 cartesian basis functions
    39 alpha electrons       38 beta electrons
       nuclear repulsion energy       419.0622315671 Hartrees.
 IExCor=  402 DFT=T Ex+Corr=B3LYP ExCW=0 ScaHFX=  0.200000
 ScaDFX=  0.800000  0.720000  1.000000  0.810000 ScalE2=  1.000000  1.000000
 IRadAn=      5 IRanWt=     -1 IRanGd=            0 ICorTp=0 IEmpDi=  4
 NAtoms=    7 NActive=    7 NUniq=    7 SFac= 1.00D+00 NAtFMM=   60 NAOKFM=F Big=F
 Integral buffers will be    131072 words long.
 Raffenetti 2 integral format.
 Two-electron integral symmetry is turned on.
 Leave Link  301 at Mon Nov 13 20:44:03 2023, MaxMem=  1879048192 cpu:               0.5 elap:               0.0
 (Enter /home/sekinelabo/g16/l302.exe)
 NPDir=0 NMtPBC=     1 NCelOv=     1 NCel=       1 NClECP=     1 NCelD=      1
         NCelK=      1 NCelE2=     1 NClLst=     1 CellRange=     0.0.
 One-electron integrals computed using PRISM.
 One-electron integral symmetry used in STVInt
 NBasis=   210 RedAO= T EigKep=  3.79D-06  NBF=   210
 NBsUse=   209 1.00D-06 EigRej=  6.41D-07 NBFU=   209
 Precomputing XC quadrature grid using
 IXCGrd= 4 IRadAn=           5 IRanWt=          -1 IRanGd=           0 AccXCQ= 0.00D+00.
 Generated NRdTot=       0 NPtTot=           0 NUsed=           0 NTot=          32
 NSgBfM=   211   211   211   211   211 MxSgAt=     7 MxSgA2=     7.
 Leave Link  302 at Mon Nov 13 20:44:03 2023, MaxMem=  1879048192 cpu:               2.2 elap:               0.1
 (Enter /home/sekinelabo/g16/l303.exe)
 DipDrv:  MaxL=1.
 Leave Link  303 at Mon Nov 13 20:44:03 2023, MaxMem=  1879048192 cpu:               0.6 elap:               0.0
 (Enter /home/sekinelabo/g16/l401.exe)
 ExpMin= 7.60D-03 ExpMax= 3.62D+04 ExpMxC= 1.21D+03 IAcc=3 IRadAn=         5 AccDes= 0.00D+00
 Harris functional with IExCor=  402 and IRadAn=       5 diagonalized for initial guess.
 HarFok:  IExCor=  402 AccDes= 0.00D+00 IRadAn=         5 IDoV= 1 UseB2=F ITyADJ=14
 ICtDFT=  3500011 ScaDFX=  1.000000  1.000000  1.000000  1.000000
 FoFCou: FMM=F IPFlag=           0 FMFlag=      100000 FMFlg1=           0
         NFxFlg=           0 DoJE=T BraDBF=F KetDBF=T FulRan=T
         wScrn=  0.000000 ICntrl=       500 IOpCl=  0 I1Cent=   200000004 NGrid=           0
         NMat0=    1 NMatS0=      1 NMatT0=    0 NMatD0=    1 NMtDS0=    0 NMtDT0=    0
 Petite list used in FoFCou.
 Harris En= -1135.85161931322    
 JPrj=0 DoOrth=F DoCkMO=F.
 Initial guess <Sx>= 0.0000 <Sy>= 0.0000 <Sz>= 0.5000 <S**2>= 0.7500 S= 0.5000
 Leave Link  401 at Mon Nov 13 20:44:03 2023, MaxMem=  1879048192 cpu:               5.8 elap:               0.4
 (Enter /home/sekinelabo/g16/l502.exe)
 Keep R1 and R2 ints in memory in canonical form, NReq=507620388.
 FoFCou: FMM=F IPFlag=           0 FMFlag=           0 FMFlg1=           0
         NFxFlg=           0 DoJE=F BraDBF=F KetDBF=F FulRan=T
         wScrn=  0.000000 ICntrl=       600 IOpCl=  0 I1Cent=           0 NGrid=           0
         NMat0=    1 NMatS0=  22155 NMatT0=    0 NMatD0=    1 NMtDS0=    0 NMtDT0=    0
 Symmetry not used in FoFCou.
 Two-electron integral symmetry not used.
 UHF open shell SCF:
 Using DIIS extrapolation, IDIIS=  1040.
 NGot=  1879048192 LenX=  1388082348 LenY=  1388034818
 Requested convergence on RMS density matrix=1.00D-08 within 128 cycles.
 Requested convergence on MAX density matrix=1.00D-06.
 Requested convergence on             energy=1.00D-06.
 No special actions if energy rises.

 Cycle   1  Pass 1  IDiag  1:
 E= -1136.03152040261    
 DIIS: error= 1.72D-02 at cycle   1 NSaved=   1.
 NSaved= 1 IEnMin= 1 EnMin= -1136.03152040261     IErMin= 1 ErrMin= 1.72D-02
 ErrMax= 1.72D-02  0.00D+00 EMaxC= 1.00D-01 BMatC= 2.14D-01 BMatP= 2.14D-01
 IDIUse=3 WtCom= 8.28D-01 WtEn= 1.72D-01
 Coeff-Com:  0.100D+01
 Coeff-En:   0.100D+01
 Coeff:      0.100D+01
 Gap=     0.065 Goal=   None    Shift=    0.000
 Gap=     0.042 Goal=   None    Shift=    0.000
 GapD=    0.042 DampG=0.250 DampE=0.500 DampFc=0.2500 IDamp=-1.
 Damping current iteration by 2.50D-01
 RMSDP=9.22D-02 MaxDP=5.80D+00              OVMax= 2.61D-01

 Cycle   2  Pass 1  IDiag  1:
 E= -1136.04807375654     Delta-E=       -0.016553353934 Rises=F Damp=T
 DIIS: error= 1.19D-02 at cycle   2 NSaved=   2.
 NSaved= 2 IEnMin= 2 EnMin= -1136.04807375654     IErMin= 2 ErrMin= 1.19D-02
 ErrMax= 1.19D-02  0.00D+00 EMaxC= 1.00D-01 BMatC= 8.03D-02 BMatP= 2.14D-01
 IDIUse=3 WtCom= 8.81D-01 WtEn= 1.19D-01
 Coeff-Com: -0.127D+01 0.227D+01
 Coeff-En:   0.000D+00 0.100D+01
 Coeff:     -0.112D+01 0.212D+01
 Gap=     0.075 Goal=   None    Shift=    0.000
 Gap=     0.042 Goal=   None    Shift=    0.000
 RMSDP=4.28D-02 MaxDP=2.80D+00 DE=-1.66D-02 OVMax= 1.67D-01

 Cycle   3  Pass 1  IDiag  1:
 E= -1136.07645197077     Delta-E=       -0.028378214226 Rises=F Damp=F
 DIIS: error= 3.30D-03 at cycle   3 NSaved=   3.
 NSaved= 3 IEnMin= 3 EnMin= -1136.07645197077     IErMin= 3 ErrMin= 3.30D-03
 ErrMax= 3.30D-03  0.00D+00 EMaxC= 1.00D-01 BMatC= 3.39D-03 BMatP= 8.03D-02
 IDIUse=3 WtCom= 9.67D-01 WtEn= 3.30D-02
 Coeff-Com: -0.166D+00 0.335D+00 0.831D+00
 Coeff-En:   0.000D+00 0.000D+00 0.100D+01
 Coeff:     -0.161D+00 0.324D+00 0.837D+00
 Gap=     0.070 Goal=   None    Shift=    0.000
 Gap=     0.042 Goal=   None    Shift=    0.000
 RMSDP=1.44D-02 MaxDP=8.38D-01 DE=-2.84D-02 OVMax= 4.73D-02

 Cycle   4  Pass 1  IDiag  1:
 E= -1136.07654352552     Delta-E=       -0.000091554748 Rises=F Damp=F
 DIIS: error= 3.34D-03 at cycle   4 NSaved=   4.
 NSaved= 4 IEnMin= 4 EnMin= -1136.07654352552     IErMin= 3 ErrMin= 3.30D-03
 ErrMax= 3.34D-03  0.00D+00 EMaxC= 1.00D-01 BMatC= 2.52D-03 BMatP= 3.39D-03
 IDIUse=3 WtCom= 9.67D-01 WtEn= 3.34D-02
 Coeff-Com:  0.363D-01-0.477D-01 0.470D+00 0.541D+00
 Coeff-En:   0.000D+00 0.000D+00 0.486D+00 0.514D+00
 Coeff:      0.351D-01-0.461D-01 0.471D+00 0.540D+00
 Gap=     0.072 Goal=   None    Shift=    0.000
 Gap=     0.043 Goal=   None    Shift=    0.000
 RMSDP=5.02D-03 MaxDP=3.17D-01 DE=-9.16D-05 OVMax= 2.49D-02

 Cycle   5  Pass 1  IDiag  1:
 E= -1136.07790338670     Delta-E=       -0.001359861177 Rises=F Damp=F
 DIIS: error= 3.57D-04 at cycle   5 NSaved=   5.
 NSaved= 5 IEnMin= 5 EnMin= -1136.07790338670     IErMin= 5 ErrMin= 3.57D-04
 ErrMax= 3.57D-04  0.00D+00 EMaxC= 1.00D-01 BMatC= 2.37D-05 BMatP= 2.52D-03
 IDIUse=3 WtCom= 9.96D-01 WtEn= 3.57D-03
 Coeff-Com:  0.187D-01-0.249D-01 0.259D+00 0.296D+00 0.452D+00
 Coeff-En:   0.000D+00 0.000D+00 0.000D+00 0.000D+00 0.100D+01
 Coeff:      0.186D-01-0.248D-01 0.258D+00 0.295D+00 0.454D+00
 Gap=     0.072 Goal=   None    Shift=    0.000
 Gap=     0.043 Goal=   None    Shift=    0.000
 RMSDP=2.89D-04 MaxDP=1.33D-02 DE=-1.36D-03 OVMax= 6.18D-03

 Cycle   6  Pass 1  IDiag  1:
 E= -1136.07792377199     Delta-E=       -0.000020385294 Rises=F Damp=F
 DIIS: error= 1.43D-04 at cycle   6 NSaved=   6.
 NSaved= 6 IEnMin= 6 EnMin= -1136.07792377199     IErMin= 6 ErrMin= 1.43D-04
 ErrMax= 1.43D-04  0.00D+00 EMaxC= 1.00D-01 BMatC= 4.09D-06 BMatP= 2.37D-05
 IDIUse=3 WtCom= 9.99D-01 WtEn= 1.43D-03
 Coeff-Com: -0.440D-02 0.560D-02-0.297D-01-0.407D-01 0.281D+00 0.788D+00
 Coeff-En:   0.000D+00 0.000D+00 0.000D+00 0.000D+00 0.177D+00 0.823D+00
 Coeff:     -0.440D-02 0.559D-02-0.296D-01-0.406D-01 0.281D+00 0.788D+00
 Gap=     0.072 Goal=   None    Shift=    0.000
 Gap=     0.043 Goal=   None    Shift=    0.000
 RMSDP=3.34D-04 MaxDP=2.35D-02 DE=-2.04D-05 OVMax= 2.00D-03

 Cycle   7  Pass 1  IDiag  1:
 E= -1136.07792829366     Delta-E=       -0.000004521670 Rises=F Damp=F
 DIIS: error= 1.06D-05 at cycle   7 NSaved=   7.
 NSaved= 7 IEnMin= 7 EnMin= -1136.07792829366     IErMin= 7 ErrMin= 1.06D-05
 ErrMax= 1.06D-05  0.00D+00 EMaxC= 1.00D-01 BMatC= 3.00D-08 BMatP= 4.09D-06
 IDIUse=1 WtCom= 1.00D+00 WtEn= 0.00D+00
 Coeff-Com:  0.993D-04-0.139D-03-0.616D-02-0.490D-02-0.598D-01-0.131D+00
 Coeff-Com:  0.120D+01
 Coeff:      0.993D-04-0.139D-03-0.616D-02-0.490D-02-0.598D-01-0.131D+00
 Coeff:      0.120D+01
 Gap=     0.072 Goal=   None    Shift=    0.000
 Gap=     0.043 Goal=   None    Shift=    0.000
 RMSDP=9.10D-05 MaxDP=7.47D-03 DE=-4.52D-06 OVMax= 3.36D-04

 Cycle   8  Pass 1  IDiag  1:
 E= -1136.07792836692     Delta-E=       -0.000000073264 Rises=F Damp=F
 DIIS: error= 4.35D-06 at cycle   8 NSaved=   8.
 NSaved= 8 IEnMin= 8 EnMin= -1136.07792836692     IErMin= 8 ErrMin= 4.35D-06
 ErrMax= 4.35D-06  0.00D+00 EMaxC= 1.00D-01 BMatC= 1.06D-08 BMatP= 3.00D-08
 IDIUse=1 WtCom= 1.00D+00 WtEn= 0.00D+00
 Coeff-Com:  0.178D-03-0.229D-03-0.246D-02-0.141D-02-0.383D-01-0.826D-01
 Coeff-Com:  0.519D+00 0.606D+00
 Coeff:      0.178D-03-0.229D-03-0.246D-02-0.141D-02-0.383D-01-0.826D-01
 Coeff:      0.519D+00 0.606D+00
 Gap=     0.072 Goal=   None    Shift=    0.000
 Gap=     0.043 Goal=   None    Shift=    0.000
 RMSDP=1.07D-05 MaxDP=8.06D-04 DE=-7.33D-08 OVMax= 1.13D-04

 Cycle   9  Pass 1  IDiag  1:
 E= -1136.07792837346     Delta-E=       -0.000000006536 Rises=F Damp=F
 DIIS: error= 1.76D-06 at cycle   9 NSaved=   9.
 NSaved= 9 IEnMin= 9 EnMin= -1136.07792837346     IErMin= 9 ErrMin= 1.76D-06
 ErrMax= 1.76D-06  0.00D+00 EMaxC= 1.00D-01 BMatC= 5.37D-10 BMatP= 1.06D-08
 IDIUse=1 WtCom= 1.00D+00 WtEn= 0.00D+00
 Coeff-Com:  0.530D-04-0.642D-04 0.546D-03 0.636D-03 0.105D-03-0.616D-03
 Coeff-Com: -0.699D-01 0.204D-01 0.105D+01
 Coeff:      0.530D-04-0.642D-04 0.546D-03 0.636D-03 0.105D-03-0.616D-03
 Coeff:     -0.699D-01 0.204D-01 0.105D+01
 Gap=     0.072 Goal=   None    Shift=    0.000
 Gap=     0.043 Goal=   None    Shift=    0.000
 RMSDP=7.05D-06 MaxDP=6.56D-04 DE=-6.54D-09 OVMax= 1.00D-04

 Cycle  10  Pass 1  IDiag  1:
 E= -1136.07792837608     Delta-E=       -0.000000002622 Rises=F Damp=F
 DIIS: error= 1.00D-06 at cycle  10 NSaved=  10.
 NSaved=10 IEnMin=10 EnMin= -1136.07792837608     IErMin=10 ErrMin= 1.00D-06
 ErrMax= 1.00D-06  0.00D+00 EMaxC= 1.00D-01 BMatC= 1.65D-10 BMatP= 5.37D-10
 IDIUse=1 WtCom= 1.00D+00 WtEn= 0.00D+00
 Coeff-Com: -0.337D-04 0.439D-04 0.246D-03 0.107D-03 0.452D-02 0.898D-02
 Coeff-Com: -0.585D-01-0.337D-01-0.837D-01 0.116D+01
 Coeff:     -0.337D-04 0.439D-04 0.246D-03 0.107D-03 0.452D-02 0.898D-02
 Coeff:     -0.585D-01-0.337D-01-0.837D-01 0.116D+01
 Gap=     0.072 Goal=   None    Shift=    0.000
 Gap=     0.043 Goal=   None    Shift=    0.000
 RMSDP=3.06D-06 MaxDP=2.84D-04 DE=-2.62D-09 OVMax= 6.31D-05

 Cycle  11  Pass 1  IDiag  1:
 E= -1136.07792837684     Delta-E=       -0.000000000761 Rises=F Damp=F
 DIIS: error= 7.01D-07 at cycle  11 NSaved=  11.
 NSaved=11 IEnMin=11 EnMin= -1136.07792837684     IErMin=11 ErrMin= 7.01D-07
 ErrMax= 7.01D-07  0.00D+00 EMaxC= 1.00D-01 BMatC= 1.95D-10 BMatP= 1.65D-10
 IDIUse=1 WtCom= 1.00D+00 WtEn= 0.00D+00
 Coeff-Com: -0.451D-04 0.570D-04 0.211D-04-0.128D-03 0.365D-02 0.763D-02
 Coeff-Com: -0.239D-01-0.319D-01-0.438D+00 0.909D+00 0.573D+00
 Coeff:     -0.451D-04 0.570D-04 0.211D-04-0.128D-03 0.365D-02 0.763D-02
 Coeff:     -0.239D-01-0.319D-01-0.438D+00 0.909D+00 0.573D+00
 Gap=     0.072 Goal=   None    Shift=    0.000
 Gap=     0.043 Goal=   None    Shift=    0.000
 RMSDP=1.47D-06 MaxDP=1.31D-04 DE=-7.61D-10 OVMax= 3.54D-05

 Cycle  12  Pass 1  IDiag  1:
 E= -1136.07792837721     Delta-E=       -0.000000000366 Rises=F Damp=F
 DIIS: error= 1.98D-07 at cycle  12 NSaved=  12.
 NSaved=12 IEnMin=12 EnMin= -1136.07792837721     IErMin=12 ErrMin= 1.98D-07
 ErrMax= 1.98D-07  0.00D+00 EMaxC= 1.00D-01 BMatC= 9.61D-12 BMatP= 1.65D-10
 IDIUse=1 WtCom= 1.00D+00 WtEn= 0.00D+00
 Coeff-Com:  0.504D-05-0.725D-05-0.325D-04-0.262D-04-0.522D-03-0.736D-03
 Coeff-Com:  0.102D-01-0.374D-02-0.550D-01-0.133D+00 0.116D+00 0.107D+01
 Coeff:      0.504D-05-0.725D-05-0.325D-04-0.262D-04-0.522D-03-0.736D-03
 Coeff:      0.102D-01-0.374D-02-0.550D-01-0.133D+00 0.116D+00 0.107D+01
 Gap=     0.072 Goal=   None    Shift=    0.000
 Gap=     0.043 Goal=   None    Shift=    0.000
 RMSDP=7.54D-07 MaxDP=5.54D-05 DE=-3.66D-10 OVMax= 1.96D-05

 Cycle  13  Pass 1  IDiag  1:
 E= -1136.07792837725     Delta-E=       -0.000000000045 Rises=F Damp=F
 DIIS: error= 6.09D-08 at cycle  13 NSaved=  13.
 NSaved=13 IEnMin=13 EnMin= -1136.07792837725     IErMin=13 ErrMin= 6.09D-08
 ErrMax= 6.09D-08  0.00D+00 EMaxC= 1.00D-01 BMatC= 1.09D-12 BMatP= 9.61D-12
 IDIUse=1 WtCom= 1.00D+00 WtEn= 0.00D+00
 Coeff-Com:  0.422D-05-0.562D-05-0.156D-04-0.177D-05-0.367D-03-0.694D-03
 Coeff-Com:  0.471D-02-0.358D-04 0.115D-01-0.103D+00 0.173D-02 0.359D+00
 Coeff-Com:  0.727D+00
 Coeff:      0.422D-05-0.562D-05-0.156D-04-0.177D-05-0.367D-03-0.694D-03
 Coeff:      0.471D-02-0.358D-04 0.115D-01-0.103D+00 0.173D-02 0.359D+00
 Coeff:      0.727D+00
 Gap=     0.072 Goal=   None    Shift=    0.000
 Gap=     0.043 Goal=   None    Shift=    0.000
 RMSDP=2.28D-07 MaxDP=1.75D-05 DE=-4.55D-11 OVMax= 2.33D-06

 Cycle  14  Pass 1  IDiag  1:
 E= -1136.07792837725     Delta-E=        0.000000000004 Rises=F Damp=F
 DIIS: error= 4.11D-08 at cycle  14 NSaved=  14.
 NSaved=14 IEnMin=13 EnMin= -1136.07792837725     IErMin=14 ErrMin= 4.11D-08
 ErrMax= 4.11D-08  0.00D+00 EMaxC= 1.00D-01 BMatC= 7.08D-13 BMatP= 1.09D-12
 IDIUse=1 WtCom= 1.00D+00 WtEn= 0.00D+00
 Coeff-Com:  0.145D-05-0.177D-05-0.373D-05 0.505D-05-0.119D-03-0.287D-03
 Coeff-Com:  0.580D-03 0.114D-02 0.232D-01-0.371D-01-0.305D-01-0.383D-01
 Coeff-Com:  0.503D+00 0.578D+00
 Coeff:      0.145D-05-0.177D-05-0.373D-05 0.505D-05-0.119D-03-0.287D-03
 Coeff:      0.580D-03 0.114D-02 0.232D-01-0.371D-01-0.305D-01-0.383D-01
 Coeff:      0.503D+00 0.578D+00
 Gap=     0.072 Goal=   None    Shift=    0.000
 Gap=     0.043 Goal=   None    Shift=    0.000
 RMSDP=1.03D-07 MaxDP=8.71D-06 DE= 3.87D-12 OVMax= 1.02D-06

 Cycle  15  Pass 1  IDiag  1:
 E= -1136.07792837724     Delta-E=        0.000000000009 Rises=F Damp=F
 DIIS: error= 1.24D-08 at cycle  15 NSaved=  15.
 NSaved=15 IEnMin=13 EnMin= -1136.07792837725     IErMin=15 ErrMin= 1.24D-08
 ErrMax= 1.24D-08  0.00D+00 EMaxC= 1.00D-01 BMatC= 4.47D-14 BMatP= 7.08D-13
 IDIUse=1 WtCom= 1.00D+00 WtEn= 0.00D+00
 Coeff-Com: -0.499D-06 0.718D-06 0.172D-05 0.136D-05 0.290D-04 0.528D-04
 Coeff-Com: -0.727D-03 0.728D-03 0.372D-02 0.110D-01-0.930D-02-0.889D-01
 Coeff-Com: -0.285D-02 0.174D+00 0.912D+00
 Coeff:     -0.499D-06 0.718D-06 0.172D-05 0.136D-05 0.290D-04 0.528D-04
 Coeff:     -0.727D-03 0.728D-03 0.372D-02 0.110D-01-0.930D-02-0.889D-01
 Coeff:     -0.285D-02 0.174D+00 0.912D+00
 Gap=     0.072 Goal=   None    Shift=    0.000
 Gap=     0.043 Goal=   None    Shift=    0.000
 RMSDP=2.69D-08 MaxDP=2.00D-06 DE= 8.64D-12 OVMax= 5.97D-07

 Cycle  16  Pass 1  IDiag  1:
 E= -1136.07792837725     Delta-E=       -0.000000000014 Rises=F Damp=F
 DIIS: error= 6.81D-09 at cycle  16 NSaved=  16.
 NSaved=16 IEnMin=16 EnMin= -1136.07792837725     IErMin=16 ErrMin= 6.81D-09
 ErrMax= 6.81D-09  0.00D+00 EMaxC= 1.00D-01 BMatC= 6.08D-15 BMatP= 4.47D-14
 IDIUse=1 WtCom= 1.00D+00 WtEn= 0.00D+00
 Coeff-Com: -0.240D-06 0.310D-06 0.145D-05-0.203D-06 0.263D-04 0.495D-04
 Coeff-Com: -0.257D-03-0.267D-04-0.218D-02 0.707D-02 0.208D-02-0.129D-01
 Coeff-Com: -0.673D-01-0.425D-01 0.181D+00 0.935D+00
 Coeff:     -0.240D-06 0.310D-06 0.145D-05-0.203D-06 0.263D-04 0.495D-04
 Coeff:     -0.257D-03-0.267D-04-0.218D-02 0.707D-02 0.208D-02-0.129D-01
 Coeff:     -0.673D-01-0.425D-01 0.181D+00 0.935D+00
 Gap=     0.072 Goal=   None    Shift=    0.000
 Gap=     0.043 Goal=   None    Shift=    0.000
 RMSDP=1.69D-08 MaxDP=1.34D-06 DE=-1.43D-11 OVMax= 2.65D-07

 Cycle  17  Pass 1  IDiag  1:
 E= -1136.07792837726     Delta-E=       -0.000000000003 Rises=F Damp=F
 DIIS: error= 2.88D-09 at cycle  17 NSaved=  17.
 NSaved=17 IEnMin=17 EnMin= -1136.07792837726     IErMin=17 ErrMin= 2.88D-09
 ErrMax= 2.88D-09  0.00D+00 EMaxC= 1.00D-01 BMatC= 1.03D-15 BMatP= 6.08D-15
 IDIUse=1 WtCom= 1.00D+00 WtEn= 0.00D+00
 Large coefficients: NSaved= 17 BigCof=    0.00 CofMax=   10.00 Det=-3.11D-15
 Inversion failed.  Reducing to 16 matrices.
 Large coefficients: NSaved= 16 BigCof=    0.00 CofMax=   10.00 Det=-3.24D-15
 Inversion failed.  Reducing to 15 matrices.
 Coeff-Com: -0.134D-06-0.514D-06 0.659D-06 0.623D-05 0.702D-04-0.179D-03
 Coeff-Com: -0.114D-02-0.392D-03 0.207D-02 0.130D-01-0.932D-02-0.377D-01
 Coeff-Com: -0.143D+00 0.127D+00 0.105D+01
 Coeff:     -0.134D-06-0.514D-06 0.659D-06 0.623D-05 0.702D-04-0.179D-03
 Coeff:     -0.114D-02-0.392D-03 0.207D-02 0.130D-01-0.932D-02-0.377D-01
 Coeff:     -0.143D+00 0.127D+00 0.105D+01
 Gap=     0.072 Goal=   None    Shift=    0.000
 Gap=     0.043 Goal=   None    Shift=    0.000
 RMSDP=1.18D-08 MaxDP=1.00D-06 DE=-2.50D-12 OVMax= 2.19D-07

 Cycle  18  Pass 1  IDiag  1:
 E= -1136.07792837726     Delta-E=       -0.000000000005 Rises=F Damp=F
 DIIS: error= 1.03D-09 at cycle  18 NSaved=  16.
 NSaved=16 IEnMin=16 EnMin= -1136.07792837726     IErMin=16 ErrMin= 1.03D-09
 ErrMax= 1.03D-09  0.00D+00 EMaxC= 1.00D-01 BMatC= 1.82D-16 BMatP= 1.03D-15
 IDIUse=1 WtCom= 1.00D+00 WtEn= 0.00D+00
 Large coefficients: NSaved= 16 BigCof=    0.00 CofMax=   10.00 Det=-1.72D-16
 Inversion failed.  Reducing to 15 matrices.
 Coeff-Com:  0.417D-06-0.430D-06-0.422D-05-0.317D-04 0.715D-04 0.722D-03
 Coeff-Com: -0.309D-03-0.116D-02-0.527D-02 0.119D-01 0.232D-01 0.468D-01
 Coeff-Com: -0.200D+00-0.481D+00 0.161D+01
 Coeff:      0.417D-06-0.430D-06-0.422D-05-0.317D-04 0.715D-04 0.722D-03
 Coeff:     -0.309D-03-0.116D-02-0.527D-02 0.119D-01 0.232D-01 0.468D-01
 Coeff:     -0.200D+00-0.481D+00 0.161D+01
 Gap=     0.072 Goal=   None    Shift=    0.000
 Gap=     0.043 Goal=   None    Shift=    0.000
 RMSDP=6.73D-09 MaxDP=6.34D-07 DE=-4.55D-12 OVMax= 1.66D-07

 SCF Done:  E(UB3LYP) =  -1136.07792838     A.U. after   18 cycles
            NFock= 18  Conv=0.67D-08     -V/T= 2.0022
 <Sx>= 0.0000 <Sy>= 0.0000 <Sz>= 0.5000 <S**2>= 0.7574 S= 0.5037
 <L.S>= 0.000000000000E+00
 KE= 1.133563700752D+03 PE=-3.567666752002D+03 EE= 8.789628913048D+02
 Annihilation of the first spin contaminant:
 S**2 before annihilation     0.7574,   after     0.7500
 Leave Link  502 at Mon Nov 13 20:44:19 2023, MaxMem=  1879048192 cpu:             186.2 elap:              15.9
 (Enter /home/sekinelabo/g16/l601.exe)
 Copying SCF densities to generalized density rwf, IOpCl= 1 IROHF=0.

 **********************************************************************

            Population analysis using the SCF Density.

 **********************************************************************

 Orbital symmetries:
 Alpha Orbitals:
       Occupied  (A) (A) (A) (A) (A) (A) (A) (A) (A) (A) (A) (A)
                 (A) (A) (A) (A) (A) (A) (A) (A) (A) (A) (A) (A)
                 (A) (A) (A) (A) (A) (A) (A) (A) (A) (A) (A) (A)
                 (A) (A) (A)
       Virtual   (A) (A) (A) (A) (A) (A) (A) (A) (A) (A) (A) (A)
                 (A) (A) (A) (A) (A) (A) (A) (A) (A) (A) (A) (A)
                 (A) (A) (A) (A) (A) (A) (A) (A) (A) (A) (A) (A)
                 (A) (A) (A) (A) (A) (A) (A) (A) (A) (A) (A) (A)
                 (A) (A) (A) (A) (A) (A) (A) (A) (A) (A) (A) (A)
                 (A) (A) (A) (A) (A) (A) (A) (A) (A) (A) (A) (A)
                 (A) (A) (A) (A) (A) (A) (A) (A) (A) (A) (A) (A)
                 (A) (A) (A) (A) (A) (A) (A) (A) (A) (A) (A) (A)
                 (A) (A) (A) (A) (A) (A) (A) (A) (A) (A) (A) (A)
                 (A) (A) (A) (A) (A) (A) (A) (A) (A) (A) (A) (A)
                 (A) (A) (A) (A) (A) (A) (A) (A) (A) (A) (A) (A)
                 (A) (A) (A) (A) (A) (A) (A) (A) (A) (A) (A) (A)
                 (A) (A) (A) (A) (A) (A) (A) (A) (A) (A) (A) (A)
                 (A) (A) (A) (A) (A) (A) (A) (A) (A) (A) (A) (A)
                 (A) (A)
 Beta  Orbitals:
       Occupied  (A) (A) (A) (A) (A) (A) (A) (A) (A) (A) (A) (A)
                 (A) (A) (A) (A) (A) (A) (A) (A) (A) (A) (A) (A)
                 (A) (A) (A) (A) (A) (A) (A) (A) (A) (A) (A) (A)
                 (A) (A)
       Virtual   (A) (A) (A) (A) (A) (A) (A) (A) (A) (A) (A) (A)
                 (A) (A) (A) (A) (A) (A) (A) (A) (A) (A) (A) (A)
                 (A) (A) (A) (A) (A) (A) (A) (A) (A) (A) (A) (A)
                 (A) (A) (A) (A) (A) (A) (A) (A) (A) (A) (A) (A)
                 (A) (A) (A) (A) (A) (A) (A) (A) (A) (A) (A) (A)
                 (A) (A) (A) (A) (A) (A) (A) (A) (A) (A) (A) (A)
                 (A) (A) (A) (A) (A) (A) (A) (A) (A) (A) (A) (A)
                 (A) (A) (A) (A) (A) (A) (A) (A) (A) (A) (A) (A)
                 (A) (A) (A) (A) (A) (A) (A) (A) (A) (A) (A) (A)
                 (A) (A) (A) (A) (A) (A) (A) (A) (A) (A) (A) (A)
                 (A) (A) (A) (A) (A) (A) (A) (A) (A) (A) (A) (A)
                 (A) (A) (A) (A) (A) (A) (A) (A) (A) (A) (A) (A)
                 (A) (A) (A) (A) (A) (A) (A) (A) (A) (A) (A) (A)
                 (A) (A) (A) (A) (A) (A) (A) (A) (A) (A) (A) (A)
                 (A) (A) (A)
 The electronic state is 2-A.
 Alpha  occ. eigenvalues --  -38.44283 -38.44282 -38.44149 -38.43575 -38.43567
 Alpha  occ. eigenvalues --  -38.43466 -38.43465  -2.20526  -2.20524  -2.20237
 Alpha  occ. eigenvalues --   -2.19716  -2.19696  -2.19662  -2.19650  -1.14394
 Alpha  occ. eigenvalues --   -1.14265  -1.14249  -1.14246  -1.14198  -1.14139
 Alpha  occ. eigenvalues --   -1.14060  -1.14002  -1.13810  -1.13574  -1.13522
 Alpha  occ. eigenvalues --   -1.13504  -1.13336  -1.13282  -1.13274  -1.13268
 Alpha  occ. eigenvalues --   -1.13260  -1.13251  -1.13189  -1.13141  -1.13075
 Alpha  occ. eigenvalues --   -0.21827  -0.14008  -0.12872  -0.12430
 Alpha virt. eigenvalues --   -0.05229  -0.04256  -0.03973  -0.03798  -0.03215
 Alpha virt. eigenvalues --   -0.02911  -0.01102  -0.00432  -0.00110   0.00339
 Alpha virt. eigenvalues --    0.00798   0.00842   0.01041   0.01171   0.01236
 Alpha virt. eigenvalues --    0.01296   0.01432   0.01439   0.01455   0.01494
 Alpha virt. eigenvalues --    0.01688   0.01764   0.01801   0.01930   0.01946
 Alpha virt. eigenvalues --    0.02668   0.02696   0.02952   0.03008   0.03048
 Alpha virt. eigenvalues --    0.03090   0.03193   0.03244   0.03365   0.03368
 Alpha virt. eigenvalues --    0.03604   0.03673   0.03900   0.03986   0.04006
 Alpha virt. eigenvalues --    0.04750   0.05054   0.05107   0.05336   0.05344
 Alpha virt. eigenvalues --    0.05373   0.05673   0.05925   0.05930   0.06206
 Alpha virt. eigenvalues --    0.06368   0.07253   0.07277   0.07858   0.08089
 Alpha virt. eigenvalues --    0.08828   0.09083   0.09202   0.09650   0.09949
 Alpha virt. eigenvalues --    0.10263   0.11381   0.11720   0.12635   0.12844
 Alpha virt. eigenvalues --    0.13685   0.13880   0.14075   0.14180   0.14275
 Alpha virt. eigenvalues --    0.14491   0.14890   0.15599   0.15866   0.17145
 Alpha virt. eigenvalues --    0.17843   0.18166   0.18711   0.19716   0.23142
 Alpha virt. eigenvalues --    0.24605   0.25822   0.26467   0.27021   0.27898
 Alpha virt. eigenvalues --    0.29801   0.31351   0.34420   0.36291   0.36698
 Alpha virt. eigenvalues --    0.37476   0.37805   0.39062   0.39327   0.39492
 Alpha virt. eigenvalues --    0.40991   0.43840   0.43990   0.44632   0.45375
 Alpha virt. eigenvalues --    0.46528   0.46540   0.46729   0.46925   0.47941
 Alpha virt. eigenvalues --    0.48519   0.48697   0.49507   0.49707   0.50008
 Alpha virt. eigenvalues --    0.50307   0.50749   0.51510   0.53766   0.54156
 Alpha virt. eigenvalues --    0.54331   0.54398   0.55678   0.56909   0.57423
 Alpha virt. eigenvalues --    0.57732   0.60512   0.65038   0.68806   0.71282
 Alpha virt. eigenvalues --    0.71716   0.72172   0.73912   0.78140   0.78707
 Alpha virt. eigenvalues --    0.80790   0.83050   0.85783   0.85892   0.88245
 Alpha virt. eigenvalues --    2.17145   2.24820   2.26553   2.29781   2.31230
 Alpha virt. eigenvalues --    2.32555   2.33802   4.41153   4.41303   4.42345
 Alpha virt. eigenvalues --    4.42370   4.43263   4.43486   4.45186   4.47194
 Alpha virt. eigenvalues --    4.50936   4.52783   4.60657   4.65762   4.66677
 Alpha virt. eigenvalues --    4.70823   4.70919   4.75526   4.79244   4.84014
 Alpha virt. eigenvalues --    4.85566   4.86511   4.93961  96.39836  96.51716
 Alpha virt. eigenvalues --   96.54979  96.58850  96.61100  96.61891  96.65392
  Beta  occ. eigenvalues --  -38.44185 -38.44184 -38.44141 -38.43563 -38.43555
  Beta  occ. eigenvalues --  -38.43448 -38.43447  -2.20350  -2.20347  -2.20228
  Beta  occ. eigenvalues --   -2.19700  -2.19676  -2.19639  -2.19631  -1.14308
  Beta  occ. eigenvalues --   -1.14146  -1.14139  -1.14114  -1.14114  -1.14060
  Beta  occ. eigenvalues --   -1.14009  -1.13949  -1.13757  -1.13571  -1.13506
  Beta  occ. eigenvalues --   -1.13492  -1.13267  -1.13263  -1.13239  -1.13217
  Beta  occ. eigenvalues --   -1.13185  -1.13184  -1.13172  -1.13135  -1.13071
  Beta  occ. eigenvalues --   -0.20978  -0.13622  -0.12488
  Beta virt. eigenvalues --   -0.08215  -0.05266  -0.04246  -0.03919  -0.02806
  Beta virt. eigenvalues --   -0.02267  -0.01856  -0.01026  -0.00396   0.00037
  Beta virt. eigenvalues --    0.00360   0.00797   0.00809   0.01072   0.01165
  Beta virt. eigenvalues --    0.01241   0.01409   0.01525   0.01539   0.01549
  Beta virt. eigenvalues --    0.01605   0.01720   0.01843   0.01856   0.01950
  Beta virt. eigenvalues --    0.02105   0.02671   0.02680   0.02932   0.02999
  Beta virt. eigenvalues --    0.03078   0.03116   0.03210   0.03353   0.03459
  Beta virt. eigenvalues --    0.03502   0.03740   0.03840   0.03988   0.04033
  Beta virt. eigenvalues --    0.04119   0.04877   0.05135   0.05173   0.05420
  Beta virt. eigenvalues --    0.05494   0.05630   0.05961   0.06157   0.06176
  Beta virt. eigenvalues --    0.06202   0.06373   0.07373   0.07386   0.07846
  Beta virt. eigenvalues --    0.08097   0.08941   0.09087   0.09608   0.09855
  Beta virt. eigenvalues --    0.10240   0.10607   0.11713   0.11916   0.12763
  Beta virt. eigenvalues --    0.12910   0.13688   0.14358   0.14373   0.14409
  Beta virt. eigenvalues --    0.14461   0.14800   0.15387   0.15659   0.16024
  Beta virt. eigenvalues --    0.17347   0.18193   0.18337   0.18692   0.19823
  Beta virt. eigenvalues --    0.23963   0.25172   0.26355   0.27029   0.27095
  Beta virt. eigenvalues --    0.28473   0.29762   0.31323   0.34459   0.36509
  Beta virt. eigenvalues --    0.36877   0.38102   0.38413   0.39405   0.39657
  Beta virt. eigenvalues --    0.40003   0.41064   0.44079   0.44248   0.44771
  Beta virt. eigenvalues --    0.45545   0.46493   0.47007   0.47015   0.47151
  Beta virt. eigenvalues --    0.48113   0.48650   0.48850   0.49767   0.49820
  Beta virt. eigenvalues --    0.50021   0.50281   0.50862   0.51601   0.54370
  Beta virt. eigenvalues --    0.54550   0.54728   0.54741   0.55750   0.57347
  Beta virt. eigenvalues --    0.57448   0.58206   0.61000   0.65185   0.69366
  Beta virt. eigenvalues --    0.71530   0.71975   0.72117   0.73845   0.78510
  Beta virt. eigenvalues --    0.78896   0.80973   0.83217   0.85884   0.86097
  Beta virt. eigenvalues --    0.88215   2.17254   2.24863   2.26562   2.29812
  Beta virt. eigenvalues --    2.31236   2.32986   2.34066   4.41298   4.41431
  Beta virt. eigenvalues --    4.42423   4.42438   4.43359   4.43480   4.45215
  Beta virt. eigenvalues --    4.47248   4.51035   4.52884   4.60732   4.65818
  Beta virt. eigenvalues --    4.66829   4.70859   4.71025   4.75536   4.79404
  Beta virt. eigenvalues --    4.84076   4.85616   4.86523   4.93990  96.39880
  Beta virt. eigenvalues --   96.51732  96.54988  96.58873  96.61114  96.62031
  Beta virt. eigenvalues --   96.65476
          Condensed to atoms (all electrons):
               1          2          3          4          5          6
     1  Na  12.655389  -1.452874  -0.042693  -0.046965   0.182227   0.183588
     2  Na  -1.452874  12.654425  -0.040973  -0.046640   0.183565   0.182636
     3  Na  -0.042693  -0.040973  13.545593   1.251954  -0.794247  -1.350862
     4  Na  -0.046965  -0.046640   1.251954  13.571535  -1.366306  -0.788138
     5  Na   0.182227   0.183565  -0.794247  -1.366306  12.266322  -0.217459
     6  Na   0.183588   0.182636  -1.350862  -0.788138  -0.217459  12.253995
     7  Na  -0.256488  -0.258092  -1.673536  -1.677921   0.550329   0.540283
               7
     1  Na  -0.256488
     2  Na  -0.258092
     3  Na  -1.673536
     4  Na  -1.677921
     5  Na   0.550329
     6  Na   0.540283
     7  Na  13.929966
          Atomic-Atomic Spin Densities.
               1          2          3          4          5          6
     1  Na   1.499786  -1.183548   0.049132   0.049820   0.000144  -0.000194
     2  Na  -1.183548   1.499145   0.048966   0.049649   0.000656   0.000872
     3  Na   0.049132   0.048966  -0.364814  -0.242532   0.059798   0.239693
     4  Na   0.049820   0.049649  -0.242532  -0.365613   0.242252   0.058400
     5  Na   0.000144   0.000656   0.059798   0.242252  -0.261349   0.074921
     6  Na  -0.000194   0.000872   0.239693   0.058400   0.074921  -0.259419
     7  Na   0.065931   0.065040   0.205007   0.202096  -0.055179  -0.052603
               7
     1  Na   0.065931
     2  Na   0.065040
     3  Na   0.205007
     4  Na   0.202096
     5  Na  -0.055179
     6  Na  -0.052603
     7  Na  -0.504381
 Mulliken charges and spin densities:
               1          2
     1  Na  -0.222184   0.481072
     2  Na  -0.222046   0.480781
     3  Na   0.104764  -0.004751
     4  Na   0.102480  -0.005928
     5  Na   0.195569   0.061244
     6  Na   0.195957   0.061670
     7  Na  -0.154540  -0.074089
 Sum of Mulliken charges =  -0.00000   1.00000
 Mulliken charges and spin densities with hydrogens summed into heavy atoms:
               1          2
     1  Na  -0.222184   0.481072
     2  Na  -0.222046   0.480781
     3  Na   0.104764  -0.004751
     4  Na   0.102480  -0.005928
     5  Na   0.195569   0.061244
     6  Na   0.195957   0.061670
     7  Na  -0.154540  -0.074089
 Electronic spatial extent (au):  <R**2>=           1514.2062
 Charge=             -0.0000 electrons
 Dipole moment (field-independent basis, Debye):
    X=             -0.0230    Y=              0.0001    Z=              0.0007  Tot=              0.0230
 Quadrupole moment (field-independent basis, Debye-Ang):
   XX=            -59.6440   YY=            -70.7402   ZZ=            -67.8691
   XY=             -0.0041   XZ=              0.0006   YZ=             -0.0026
 Traceless Quadrupole moment (field-independent basis, Debye-Ang):
   XX=              6.4404   YY=             -4.6557   ZZ=             -1.7847
   XY=             -0.0041   XZ=              0.0006   YZ=             -0.0026
 Octapole moment (field-independent basis, Debye-Ang**2):
  XXX=              4.9365  YYY=              0.0691  ZZZ=              0.0100  XYY=             -3.8291
  XXY=             -0.0975  XXZ=              0.0072  XZZ=             -0.9979  YZZ=              0.0106
  YYZ=             -0.0022  XYZ=              0.0049
 Hexadecapole moment (field-independent basis, Debye-Ang**3):
 XXXX=          -1022.8783 YYYY=           -978.8062 ZZZZ=           -591.8683 XXXY=             -0.0113
 XXXZ=              0.0251 YYYX=             -0.0885 YYYZ=             -0.0373 ZZZX=              0.0023
 ZZZY=              0.0146 XXYY=           -331.7035 XXZZ=           -328.4054 YYZZ=           -298.2909
 XXYZ=             -0.0338 YYXZ=             -0.0107 ZZXY=             -0.0090
 N-N= 4.190622315671D+02 E-N=-3.567666751907D+03  KE= 1.133563700752D+03
                          Isotropic Fermi Contact Couplings
        Atom                 a.u.       MegaHertz       Gauss      10(-4) cm-1
     1  Na(23)             0.40141     474.88171     169.44960     158.40349
     2  Na(23)             0.40142     474.88641     169.45128     158.40506
     3  Na(23)            -0.02004     -23.71358      -8.46160      -7.91000
     4  Na(23)            -0.02011     -23.79357      -8.49014      -7.93668
     5  Na(23)            -0.01664     -19.68201      -7.02303      -6.56521
     6  Na(23)            -0.01659     -19.62972      -7.00437      -6.54777
     7  Na(23)            -0.02674     -31.63467     -11.28804     -10.55219
 --------------------------------------------------------
       Center         ----  Spin Dipole Couplings  ----
                      3XX-RR        3YY-RR        3ZZ-RR
 --------------------------------------------------------
     1   Atom        0.007343      0.008308     -0.015651
     2   Atom        0.007330      0.008322     -0.015652
     3   Atom       -0.026601     -0.029478      0.056079
     4   Atom       -0.026440     -0.029429      0.055870
     5   Atom       -0.038877     -0.035593      0.074470
     6   Atom       -0.038973     -0.035674      0.074647
     7   Atom       -0.018734     -0.027523      0.046257
 --------------------------------------------------------
                        XY            XZ            YZ
 --------------------------------------------------------
     1   Atom        0.000008     -0.000097     -0.000001
     2   Atom       -0.000007      0.000096     -0.000004
     3   Atom       -0.002448     -0.000036      0.000006
     4   Atom        0.002439      0.000032      0.000022
     5   Atom        0.001046      0.000033      0.000026
     6   Atom       -0.000997     -0.000002     -0.000006
     7   Atom       -0.000037     -0.000019      0.000003
 --------------------------------------------------------


 ---------------------------------------------------------------------------------
              Anisotropic Spin Dipole Couplings in Principal Axis System
 ---------------------------------------------------------------------------------

       Atom             a.u.   MegaHertz   Gauss  10(-4) cm-1        Axes

              Baa    -0.0157    -2.210    -0.789    -0.737  0.0042  0.0000  1.0000
     1 Na(23) Bbb     0.0073     1.037     0.370     0.346  1.0000 -0.0085 -0.0042
              Bcc     0.0083     1.173     0.419     0.391  0.0085  1.0000 -0.0001
 
              Baa    -0.0157    -2.210    -0.789    -0.737 -0.0042  0.0002  1.0000
     2 Na(23) Bbb     0.0073     1.035     0.369     0.345  1.0000  0.0068  0.0042
              Bcc     0.0083     1.175     0.419     0.392 -0.0068  1.0000 -0.0002
 
              Baa    -0.0309    -4.360    -1.556    -1.454  0.4966  0.8680  0.0001
     3 Na(23) Bbb    -0.0252    -3.559    -1.270    -1.187  0.8680 -0.4966  0.0004
              Bcc     0.0561     7.919     2.826     2.642 -0.0004  0.0001  1.0000
 
              Baa    -0.0308    -4.349    -1.552    -1.451 -0.4886  0.8725 -0.0000
     4 Na(23) Bbb    -0.0251    -3.541    -1.263    -1.181  0.8725  0.4886 -0.0005
              Bcc     0.0559     7.890     2.815     2.632  0.0004  0.0003  1.0000
 
              Baa    -0.0392    -5.533    -1.974    -1.846  0.9601 -0.2798 -0.0002
     5 Na(23) Bbb    -0.0353    -4.983    -1.778    -1.662  0.2798  0.9601 -0.0003
              Bcc     0.0745    10.516     3.752     3.508  0.0003  0.0002  1.0000
 
              Baa    -0.0393    -5.543    -1.978    -1.849  0.9633  0.2684  0.0000
     6 Na(23) Bbb    -0.0354    -4.998    -1.784    -1.667 -0.2684  0.9633  0.0001
              Bcc     0.0746    10.541     3.761     3.516 -0.0000 -0.0001  1.0000
 
              Baa    -0.0275    -3.887    -1.387    -1.296  0.0042  1.0000 -0.0000
     7 Na(23) Bbb    -0.0187    -2.646    -0.944    -0.882  1.0000 -0.0042  0.0003
              Bcc     0.0463     6.532     2.331     2.179 -0.0003  0.0000  1.0000
 

 ---------------------------------------------------------------------------------

 No NMR shielding tensors so no spin-rotation constants.
 Leave Link  601 at Mon Nov 13 20:44:20 2023, MaxMem=  1879048192 cpu:               2.7 elap:               0.2
 (Enter /home/sekinelabo/g16/l701.exe)
 ... and contract with generalized density number  0.
 Compute integral first derivatives.
 Leave Link  701 at Mon Nov 13 20:44:20 2023, MaxMem=  1879048192 cpu:               3.7 elap:               0.2
 (Enter /home/sekinelabo/g16/l702.exe)
 L702 exits ... SP integral derivatives will be done elsewhere.
 Leave Link  702 at Mon Nov 13 20:44:20 2023, MaxMem=  1879048192 cpu:               0.4 elap:               0.0
 (Enter /home/sekinelabo/g16/l703.exe)
 Integral derivatives from FoFJK, PRISM(SPDF).
 Compute integral first derivatives, UseDBF=F ICtDFT=           0.
 Calling FoFJK, ICntrl=      2127 FMM=F ISym2X=0 I1Cent= 0 IOpClX= 1 NMat=1 NMatS=1 NMatT=0.
 FoFJK:  IHMeth= 1 ICntrl=    2127 DoSepK=F KAlg= 0 I1Cent=           0 FoldK=F
 IRaf=         0 NMat=       1 IRICut=       1 DoRegI=T DoRafI=F ISym2E= 0 IDoP0=0 IntGTp=1.
 FoFCou: FMM=F IPFlag=           0 FMFlag=      100000 FMFlg1=         800
         NFxFlg=           0 DoJE=F BraDBF=F KetDBF=F FulRan=T
         wScrn=  0.000000 ICntrl=      2127 IOpCl=  1 I1Cent=           0 NGrid=           0
         NMat0=    1 NMatS0=      1 NMatT0=    0 NMatD0=    1 NMtDS0=    0 NMtDT0=    0
 Symmetry not used in FoFCou.
 Leave Link  703 at Mon Nov 13 20:44:23 2023, MaxMem=  1879048192 cpu:              38.7 elap:               2.5
 (Enter /home/sekinelabo/g16/l716.exe)
 Dipole        =-9.04310963D-03 3.90985661D-05 2.67076636D-04
 ***** Axes restored to original set *****
 -------------------------------------------------------------------
 Center     Atomic                   Forces (Hartrees/Bohr)
 Number     Number              X              Y              Z
 -------------------------------------------------------------------
      1       11           0.000506290   -0.000009088    0.022029884
      2       11           0.000515554   -0.000018359   -0.022047769
      3       11           0.017919210   -0.015583719   -0.000004215
      4       11           0.018049444    0.015346826    0.000006914
      5       11          -0.007069519   -0.028433330   -0.000008507
      6       11          -0.006908660    0.028514081    0.000017582
      7       11          -0.023012318    0.000183590    0.000006111
 -------------------------------------------------------------------
 Cartesian Forces:  Max     0.028514081 RMS     0.014385866
 Z-matrix is all fixed cartesians, so copy forces.
 Force constants in Cartesian coordinates: 
                1             2             3             4             5 
      1  0.188961D+00
      2  0.682612D-05  0.179547D+00
      3 -0.127320D-02 -0.752740D-05  0.289985D+00
      4  0.700474D-03 -0.200128D-04 -0.346238D-02  0.189011D+00
      5 -0.217580D-04 -0.179788D-02  0.411731D-04 -0.303192D-04  0.179640D+00
      6  0.346562D-02 -0.218539D-04 -0.474485D-01  0.127671D-02 -0.274952D-04
      7 -0.336593D-01  0.104131D-01 -0.138242D-01 -0.336740D-01  0.103976D-01
      8  0.987600D-02 -0.293867D-01  0.922327D-02  0.989557D-02 -0.294136D-01
      9  0.362156D-01 -0.243236D-01 -0.468740D-01 -0.362094D-01  0.243405D-01
     10 -0.336749D-01 -0.103531D-01 -0.139450D-01 -0.336505D-01 -0.103604D-01
     11 -0.986724D-02 -0.290795D-01 -0.915366D-02 -0.983158D-02 -0.290633D-01
     12  0.364101D-01  0.239274D-01 -0.467239D-01 -0.364194D-01 -0.239028D-01
     13 -0.453350D-01 -0.935057D-02  0.719862D-02 -0.453616D-01 -0.933117D-02
     14 -0.448783D-02 -0.540979D-01  0.124903D-01 -0.449566D-02 -0.541177D-01
     15 -0.151653D-01 -0.514626D-01 -0.568476D-01  0.151423D-01  0.514622D-01
     16 -0.452895D-01  0.919539D-02  0.699127D-02 -0.453536D-01  0.921717D-02
     17  0.437311D-02 -0.543679D-01 -0.125204D-01  0.438774D-02 -0.544412D-01
     18 -0.146513D-01  0.516710D-01 -0.568723D-01  0.146694D-01 -0.517213D-01
     19 -0.317029D-01  0.108357D-03  0.183149D-01 -0.316715D-01  0.128911D-03
     20  0.120891D-03 -0.108166D-01 -0.731328D-04  0.942554D-04 -0.108062D-01
     21 -0.450016D-01  0.217162D-03 -0.352190D-01  0.450028D-01 -0.192311D-03
                6             7             8             9            10 
      6  0.290094D+00
      7  0.138390D-01  0.163695D+00
      8 -0.921084D-02 -0.328531D-01  0.159028D+00
      9 -0.468789D-01 -0.159258D-04  0.132204D-04  0.111515D+00
     10  0.139401D-01 -0.299652D-01  0.253530D-01  0.101373D-04  0.164048D+00
     11  0.916834D-02 -0.256980D-01 -0.620795D-01 -0.180927D-04  0.327989D-01
     12 -0.467438D-01 -0.776001D-05 -0.146813D-04 -0.198831D-01  0.145760D-04
     13 -0.722718D-02 -0.602125D-01 -0.393578D-01 -0.767796D-05  0.117924D-02
     14 -0.124936D-01  0.201593D-01 -0.461624D-01 -0.434820D-05 -0.122747D-01
     15 -0.568419D-01  0.624357D-05 -0.214048D-05 -0.356872D-01 -0.704947D-05
     16 -0.698648D-02  0.147035D-02  0.196173D-01  0.000000D+00 -0.601940D-01
     17  0.124973D-01  0.122600D-01 -0.283730D-02 -0.274781D-05 -0.200238D-01
     18 -0.569630D-01  0.201623D-05 -0.250498D-05  0.165097D-01 -0.486570D-05
     19 -0.183078D-01 -0.765462D-02  0.746910D-02  0.727034D-05 -0.774307D-02
     20  0.881694D-04  0.532114D-02  0.108511D-01 -0.493861D-05 -0.513986D-02
     21 -0.352180D-01  0.000000D+00 -0.632241D-05  0.212985D-01 -0.789104D-05
               11            12            13            14            15 
     11  0.158193D+00
     12 -0.776912D-05  0.111374D+00
     13 -0.196452D-01  0.318585D-05  0.201469D+00
     14 -0.246867D-02 -0.572172D-05  0.235827D-01  0.248078D+00
     15 -0.141651D-04  0.165080D-01  0.264854D-04  0.282630D-04  0.170588D+00
     16  0.395452D-01 -0.799727D-05  0.574728D-02 -0.651467D-02  0.429263D-05
     17 -0.464977D-01  0.662583D-05  0.620285D-02 -0.259924D-01  0.127836D-05
     18  0.340340D-04 -0.359076D-01  0.118522D-05 -0.970612D-05  0.923667D-02
     19 -0.730203D-02  0.729124D-05 -0.574864D-01 -0.159692D-01 -0.697709D-05
     20  0.109952D-01 -0.313327D-05  0.478992D-01 -0.652393D-01 -0.128087D-04
     21 -0.868575D-05  0.213767D-01  0.538057D-05 -0.520847D-05 -0.469555D-01
               16            17            18            19            20 
     16  0.201325D+00
     17 -0.231981D-01  0.248937D+00
     18  0.174589D-05  0.000000D+00  0.171086D+00
     19 -0.577050D-01  0.159982D-01 -0.182195D-04  0.193963D+00
     20 -0.478622D-01 -0.648005D-01  0.277088D-04 -0.433397D-03  0.129816D+00
     21 -0.284423D-05  0.172303D-04 -0.470896D-01  0.356522D-05 -0.218648D-04
               21 
     21  0.121807D+00
 Leave Link  716 at Mon Nov 13 20:44:23 2023, MaxMem=  1879048192 cpu:               0.4 elap:               0.0
 (Enter /home/sekinelabo/g16/l103.exe)

 GradGradGradGradGradGradGradGradGradGradGradGradGradGradGradGradGradGrad
 Berny optimization.
 Search for a local minimum.
 Step number   1 out of a maximum of    2
 All quantities printed in internal units (Hartrees-Bohrs-Radians)
 Second derivative matrix not updated -- first step.
 ITU=  0
     Eigenvalues ---    0.15498   0.16569   0.17634   0.18926   0.22106
     Eigenvalues ---    0.22928   0.24589   0.25490   0.26706   0.27513
     Eigenvalues ---    0.28178   0.33538   0.33587   0.34708   0.35571
 Quadratic step=3.845D-01 exceeds max=3.000D-01 adjusted using Lamda=-4.609D-02.
 Angle between NR and scaled steps=   1.68 degrees.
 Angle between quadratic step and forces=   9.46 degrees.
 Linear search not attempted -- first point.
 B after Tr=     0.000000    0.000000   -0.000000
         Rot=    1.000000    0.000000    0.000000    0.000000 Ang=   0.00 deg.
 Variable       Old X    -DE/DX   Delta X   Delta X   Delta X     New X
                                 (Linear)    (Quad)   (Total)
    X1        5.17254   0.00051   0.00000   0.00285   0.00285   5.17539
    Y1        3.71041  -0.00001   0.00000  -0.00005  -0.00005   3.71036
    Z1        6.84556   0.02203   0.00000   0.08323   0.08323   6.92879
    X2        5.17243   0.00052   0.00000   0.00286   0.00286   5.17529
    Y2        3.71263  -0.00002   0.00000  -0.00003  -0.00003   3.71259
    Z2        0.00000  -0.02205   0.00000  -0.08325  -0.08325  -0.08325
    X3        8.83389   0.01792   0.00000   0.09772   0.09772   8.93161
    Y3        1.00786  -0.01558   0.00000  -0.07933  -0.07933   0.92853
    Z3        3.42157  -0.00000   0.00000  -0.00002  -0.00002   3.42154
    X4        8.86581   0.01805   0.00000   0.09849   0.09849   8.96430
    Y4        6.38786   0.01535   0.00000   0.07834   0.07834   6.46619
    Z4        3.42386   0.00001   0.00000   0.00003   0.00003   3.42389
    X5        3.56250  -0.00707   0.00000  -0.03686  -0.03686   3.52564
    Y5        0.00000  -0.02843   0.00000  -0.11272  -0.11272  -0.11272
    Z5        3.42163  -0.00001   0.00000  -0.00003  -0.00003   3.42160
    X6        3.60623  -0.00691   0.00000  -0.03591  -0.03591   3.57032
    Y6        7.43588   0.02851   0.00000   0.11301   0.11301   7.54889
    Z6        3.42201   0.00002   0.00000   0.00003   0.00003   3.42203
    X7        0.00000  -0.02301   0.00000  -0.12915  -0.12915  -0.12915
    Y7        3.73647   0.00018   0.00000   0.00080   0.00080   3.73727
    Z7        3.42332   0.00001   0.00000   0.00002   0.00002   3.42334
         Item               Value     Threshold  Converged?
 Maximum Force            0.028514     0.000450     NO 
 RMS     Force            0.014386     0.000300     NO 
 Maximum Displacement     0.129151     0.001800     NO 
 RMS     Displacement     0.065597     0.001200     NO 
 Predicted change in Energy=-1.185638D-02
 GradGradGradGradGradGradGradGradGradGradGradGradGradGradGradGradGradGrad

 Leave Link  103 at Mon Nov 13 20:44:23 2023, MaxMem=  1879048192 cpu:               0.3 elap:               0.0
 (Enter /home/sekinelabo/g16/l9999.exe)
 1\1\GINC-SEKINELABO-XA7R-R37\Force\UB3LYP\6-311+G(d)\Na7(2)\SEKINELABO
 \13-Nov-2023\0\\#P B3LYP/6-311+g(d) force\\Gaussian input prepared by 
 ASE\\0,2\Na,2.7371912961,1.9634636317,3.6225129456\Na,2.7371316831,1.9
 646378246,0.\Na,4.6746930291,0.5333367829,1.8106149981\Na,4.6915839787
 ,3.3803075643,1.8118296639\Na,1.8851929526,0.,1.8106466163\Na,1.908333
 9474,3.9348990809,1.8108480242\Na,0.,1.9772554665,1.8115426528\\Versio
 n=ES64L-G16RevB.01\State=2-A\HF=-1136.0779284\S2=0.757373\S2-1=0.\S2A=
 0.750039\RMSD=6.729e-09\RMSF=1.439e-02\Dipole=0.0090431,-0.0000391,0.0
 002671\Quadrupole=4.7882744,-3.4614185,-1.3268558,-0.0030332,-0.000454
 9,0.0019022\PG=C01 [X(Na7)]\\@


                                                                                    A
                                                                                  AA
                                                                                 AAA
                                                                                AAAA
                                                                               AAAAA
                                                                              AAAAAA   KKKKKKKK
                                                                             AAAAAAA   KKKKKKKK
                                                                            AAAAAAAA   KKKKKKKK
                                       ZZZZZZZZZZZZZZZZZZZZ                AAAA  AAA   KKKKKKKK
                                       ZZZZZZZZZZZZZZZZZZZ                AAAA   AAA   KKKKKKKK          K
                                       ZZZZZZZZZZZZZZZZZZ                AAAA    AAA   KKKKKKKK         KKK
                                       ZZZZZZZZZZZZZZZZZ                AAAA     AAA   KKKKKKKK        KKKKK
                                       ZZZZZZZZZZZZZZZZ                AAAA      AAA   KKKKKKKK       KKKKKKK
                                                ZZZZZZ                AAAA       AAA   KKKKKKKK      KKKKKKK
                                               ZZZZZZ                AAAA        AAA   KKKKKKKK     KKKKKKK
                                              ZZZZZZ                AAAA         AAA   KKKKKKKK    KKKKKKK
                                             ZZZZZZ                AAAA          AAA   KKKKKKKK   KKKKKKK
                                            ZZZZZZ                AAAAAAAAAAAAAAAAAA   KKKKKKKK  KKKKKKK
                                           ZZZZZZ                AAAAAAAAAAAAAAAAAAA   KKKKKKKK KKKKKKK
                                          ZZZZZZ                AAAAAAAAAAAAAAAAAAAA   KKKKKKKKKKKKKKK
                                         ZZZZZZ                AAAAAAAAAAAAAAAAAAAAA   KKKKKKKKKKKKKK
                                        ZZZZZZ                AAAAAA        AAAAAAAA   KKKKKKKKKKKKK
                                       ZZZZZZ                AAAAAA         AAAAAAAA   KKKKKKKKKKKK
                                      ZZZZZZ                AAAAAA          AAAAAAAA   KKKKKKKKKKK
                                     ZZZZZZ                AAAAAA           AAAAAAAA   KKKKKKKKKKKK
                                    ZZZZZZ                AAAAAA            AAAAAAAA   KKKKKKKKKKKKK
                                   ZZZZZZ                AAAAAA             AAAAAAAA   KKKKKKKKKKKKKK
                                  ZZZZZZ                AAAAAA              AAAAAAAA   KKKKKKKKKKKKKKK
                                 ZZZZZZ                AAAAAA               AAAAAAAA   KKKKK KKKKKKKKKK
                                ZZZZZZ                AAAAAA                AAAAAAAA   KKKKK  KKKKKKKKKK
                               ZZZZZZ                AAAAAA                            KKKKK   KKKKKKKKKK
                              ZZZZZZ                AAAAAA                             KKKKK    KKKKKKKKKK
                             ZZZZZZ                                                    KKKKK     KKKKKKKKKK
                            ZZZZZZ                                                     KKKKK      KKKKKKKKKK
                           ZZZZZZ                                                      KKKKK       KKKKKKKKKK
                          ZZZZZZ                                                       KKKKK        KKKKKKKKKK
                         ZZZZZZZZZZZZZZZZZZZZZZZZZZZZZZZZZZZZZZZZ                      KKKKK         KKKKKKKKKK
                        ZZZZZZZZZZZZZZZZZZZZZZZZZZZZZZZZZZZZZZZZZ                      KKKKK          KKKKKKKKKK
                       ZZZZZZZZZZZZZZZZZZZZZZZZZZZZZZZZZZZZZZZZZZ                      KKKKK           KKKKKKKKKK
                       ZZZZZZZZZZZZZZZZZZZZZZZZZZZZZZZZZZZZZZZZZZ                      KKKKK            KKKKKKKKKK
                       ZZZZZZZZZZZZZZZZZZZZZZZZZZZZZZZZZZZZZZZZZZ                      KKKKK             KKKKKKKKKK
                       ZZZZZZZZZZZZZZZZZZZZZZZZZZZZZZZZZZZZZZZZZZ                      KKKKK              KKKKKKKKKK
                       ZZZZZZZZZZZZZZZZZZZZZZZZZZZZZZZZZZZZZZZZZZ                      KKKKK               KKKKKKKKKK
                       ZZZZZZZZZZZZZZZZZZZZZZZZZZZZZZZZZZZZZZZZZZ                      KKKKK                KKKKKKKKKK
                       ZZZZZZZZZZZZZZZZZZZZZZZZZZZZZZZZZZZZZZZZZZ                      KKKKK
                                                                                       KKKKK
                                                                                          (J.P.)
 Job cpu time:       0 days  0 hours  4 minutes  6.0 seconds.
 Elapsed time:       0 days  0 hours  0 minutes 19.8 seconds.
 File lengths (MBytes):  RWF=     32 Int=      0 D2E=      0 Chk=      6 Scr=      1
 Normal termination of Gaussian 16 at Mon Nov 13 20:44:23 2023.
