 Entering Gaussian System, Link 0=g16
 Initial command:
 /home/sekinelabo/g16/l1.exe "/home/sekinelabo/g16temp/Gau-681.inp" -scrdir="/home/sekinelabo/g16temp/"
 Entering Link 1 = /home/sekinelabo/g16/l1.exe PID=       683.
  
 Copyright (c) 1988-2017, Gaussian, Inc.  All Rights Reserved.
  
 This is part of the Gaussian(R) 16 program.  It is based on
 the Gaussian(R) 09 system (copyright 2009, Gaussian, Inc.),
 the Gaussian(R) 03 system (copyright 2003, Gaussian, Inc.),
 the Gaussian(R) 98 system (copyright 1998, Gaussian, Inc.),
 the Gaussian(R) 94 system (copyright 1995, Gaussian, Inc.),
 the Gaussian 92(TM) system (copyright 1992, Gaussian, Inc.),
 the Gaussian 90(TM) system (copyright 1990, Gaussian, Inc.),
 the Gaussian 88(TM) system (copyright 1988, Gaussian, Inc.),
 the Gaussian 86(TM) system (copyright 1986, Carnegie Mellon
 University), and the Gaussian 82(TM) system (copyright 1983,
 Carnegie Mellon University). Gaussian is a federally registered
 trademark of Gaussian, Inc.
  
 This software contains proprietary and confidential information,
 including trade secrets, belonging to Gaussian, Inc.
  
 This software is provided under written license and may be
 used, copied, transmitted, or stored only in accord with that
 written license.
  
 The following legend is applicable only to US Government
 contracts under FAR:
  
                    RESTRICTED RIGHTS LEGEND
  
 Use, reproduction and disclosure by the US Government is
 subject to restrictions as set forth in subparagraphs (a)
 and (c) of the Commercial Computer Software - Restricted
 Rights clause in FAR 52.227-19.
  
 Gaussian, Inc.
 340 Quinnipiac St., Bldg. 40, Wallingford CT 06492
  
  
 ---------------------------------------------------------------
 Warning -- This program may not be used in any manner that
 competes with the business of Gaussian, Inc. or will provide
 assistance to any competitor of Gaussian, Inc.  The licensee
 of this program is prohibited from giving any competitor of
 Gaussian, Inc. access to this program.  By using this program,
 the user acknowledges that Gaussian, Inc. is engaged in the
 business of creating and licensing software in the field of
 computational chemistry and represents and warrants to the
 licensee that it is not a competitor of Gaussian, Inc. and that
 it will not use this program in any manner prohibited above.
 ---------------------------------------------------------------
  

 Cite this work as:
 Gaussian 16, Revision B.01,
 M. J. Frisch, G. W. Trucks, H. B. Schlegel, G. E. Scuseria, 
 M. A. Robb, J. R. Cheeseman, G. Scalmani, V. Barone, 
 G. A. Petersson, H. Nakatsuji, X. Li, M. Caricato, A. V. Marenich, 
 J. Bloino, B. G. Janesko, R. Gomperts, B. Mennucci, H. P. Hratchian, 
 J. V. Ortiz, A. F. Izmaylov, J. L. Sonnenberg, D. Williams-Young, 
 F. Ding, F. Lipparini, F. Egidi, J. Goings, B. Peng, A. Petrone, 
 T. Henderson, D. Ranasinghe, V. G. Zakrzewski, J. Gao, N. Rega, 
 G. Zheng, W. Liang, M. Hada, M. Ehara, K. Toyota, R. Fukuda, 
 J. Hasegawa, M. Ishida, T. Nakajima, Y. Honda, O. Kitao, H. Nakai, 
 T. Vreven, K. Throssell, J. A. Montgomery, Jr., J. E. Peralta, 
 F. Ogliaro, M. J. Bearpark, J. J. Heyd, E. N. Brothers, K. N. Kudin, 
 V. N. Staroverov, T. A. Keith, R. Kobayashi, J. Normand, 
 K. Raghavachari, A. P. Rendell, J. C. Burant, S. S. Iyengar, 
 J. Tomasi, M. Cossi, J. M. Millam, M. Klene, C. Adamo, R. Cammi, 
 J. W. Ochterski, R. L. Martin, K. Morokuma, O. Farkas, 
 J. B. Foresman, and D. J. Fox, Gaussian, Inc., Wallingford CT, 2016.
 
 ******************************************
 Gaussian 16:  ES64L-G16RevB.01 20-Dec-2017
                13-Nov-2023 
 ******************************************
 %mem=14GB
 %chk=checkpoint.chk
 %nprocshared=16
 Will use up to   16 processors via shared memory.
 -------------------------
 #P B3LYP/6-311+g(d) force
 -------------------------
 1/10=7,30=1,38=1/1,3;
 2/12=2,17=6,18=5,40=1/2;
 3/5=4,6=6,7=11,11=2,25=1,30=1,71=1,74=-5/1,2,3;
 4//1;
 5/5=2,38=5/2;
 6/7=2,8=2,9=2,10=2,28=1/1;
 7/29=1/1,2,3,16;
 1/10=7,30=1/3;
 99//99;
 Leave Link    1 at Mon Nov 13 20:42:39 2023, MaxMem=  1879048192 cpu:               0.3 elap:               0.0
 (Enter /home/sekinelabo/g16/l101.exe)
 ------------------------------
 Gaussian input prepared by ASE
 ------------------------------
 Symbolic Z-matrix:
 Charge =  0 Multiplicity = 2
 Na                    2.65664   2.1133    0. 
 Na                    1.68864   0.        1.34614 
 Na                    1.67215   4.2225    1.34613 
 Na                    0.        2.10576   1.75712 
 Na                    4.51929   3.58294   1.59483 
 Na                    2.64881   2.11354   3.18904 
 Na                    4.52944   0.65726   1.595 
 
 ITRead=  0  0  0  0  0  0  0
 MicOpt= -1 -1 -1 -1 -1 -1 -1
 NAtoms=      7 NQM=        7 NQMF=       0 NMMI=      0 NMMIF=      0
                NMic=       0 NMicF=      0.
                    Isotopes and Nuclear Properties:
 (Nuclear quadrupole moments (NQMom) in fm**2, nuclear magnetic moments (NMagM)
  in nuclear magnetons)

  Atom         1           2           3           4           5           6           7
 IAtWgt=          23          23          23          23          23          23          23
 AtmWgt=  22.9897697  22.9897697  22.9897697  22.9897697  22.9897697  22.9897697  22.9897697
 NucSpn=           3           3           3           3           3           3           3
 AtZEff=  -0.0000000  -0.0000000  -0.0000000  -0.0000000  -0.0000000  -0.0000000  -0.0000000
 NQMom=   10.4000000  10.4000000  10.4000000  10.4000000  10.4000000  10.4000000  10.4000000
 NMagM=    2.2175200   2.2175200   2.2175200   2.2175200   2.2175200   2.2175200   2.2175200
 AtZNuc=  11.0000000  11.0000000  11.0000000  11.0000000  11.0000000  11.0000000  11.0000000
 Leave Link  101 at Mon Nov 13 20:42:39 2023, MaxMem=  1879048192 cpu:               2.6 elap:               0.2
 (Enter /home/sekinelabo/g16/l103.exe)

 GradGradGradGradGradGradGradGradGradGradGradGradGradGradGradGradGradGrad
 Berny optimization.
 Initialization pass.
 Trust Radius=3.00D-01 FncErr=1.00D-07 GrdErr=1.00D-07 EigMax=2.50D+02 EigMin=1.00D-04
 Number of steps in this run=      2 maximum allowed number of steps=      2.
 GradGradGradGradGradGradGradGradGradGradGradGradGradGradGradGradGradGrad

 Leave Link  103 at Mon Nov 13 20:42:39 2023, MaxMem=  1879048192 cpu:               0.2 elap:               0.0
 (Enter /home/sekinelabo/g16/l202.exe)
                          Input orientation:                          
 ---------------------------------------------------------------------
 Center     Atomic      Atomic             Coordinates (Angstroms)
 Number     Number       Type             X           Y           Z
 ---------------------------------------------------------------------
      1         11           0        2.656642    2.113302    0.000000
      2         11           0        1.688644    0.000000    1.346145
      3         11           0        1.672145    4.222503    1.346129
      4         11           0        0.000000    2.105763    1.757123
      5         11           0        4.519286    3.582936    1.594831
      6         11           0        2.648813    2.113539    3.189036
      7         11           0        4.529441    0.657257    1.594999
 ---------------------------------------------------------------------
                    Distance matrix (angstroms):
                    1          2          3          4          5
     1  Na   0.000000
     2  Na   2.686107   0.000000
     3  Na   2.688870   4.222535   0.000000
     4  Na   3.185166   2.730322   2.728658   0.000000
     5  Na   2.858803   4.572943   2.928670   4.757345   0.000000
     6  Na   3.189045   2.963987   2.966128   3.011087   2.863440
     7  Na   2.858577   2.926438   4.575702   4.758181   2.925697
                    6          7
     6  Na   0.000000
     7  Na   2.863297   0.000000
 Stoichiometry    Na7(2)
 Framework group  C1[X(Na7)]
 Deg. of freedom    15
 Full point group                 C1      NOp   1
 Largest Abelian subgroup         C1      NOp   1
 Largest concise Abelian subgroup C1      NOp   1
                         Standard orientation:                         
 ---------------------------------------------------------------------
 Center     Atomic      Atomic             Coordinates (Angstroms)
 Number     Number       Type             X           Y           Z
 ---------------------------------------------------------------------
      1         11           0        0.125932   -0.000312   -1.546895
      2         11           0       -0.842066   -2.113614   -0.200750
      3         11           0       -0.858565    2.108888   -0.200766
      4         11           0       -2.530710   -0.007852    0.210228
      5         11           0        1.988576    1.469322    0.047937
      6         11           0        0.118103   -0.000075    1.642141
      7         11           0        1.998730   -1.456358    0.048104
 ---------------------------------------------------------------------
 Rotational constants (GHZ):           1.1938307           1.0443723           0.7573846
 Leave Link  202 at Mon Nov 13 20:42:39 2023, MaxMem=  1879048192 cpu:               0.1 elap:               0.0
 (Enter /home/sekinelabo/g16/l301.exe)
 Standard basis: 6-311+G(d) (5D, 7F)
 Ernie: Thresh=  0.10000D-02 Tol=  0.10000D-05 Strict=F.
 There are   217 symmetry adapted cartesian basis functions of A   symmetry.
 There are   210 symmetry adapted basis functions of A   symmetry.
   210 basis functions,   350 primitive gaussians,   217 cartesian basis functions
    39 alpha electrons       38 beta electrons
       nuclear repulsion energy       424.4296818256 Hartrees.
 IExCor=  402 DFT=T Ex+Corr=B3LYP ExCW=0 ScaHFX=  0.200000
 ScaDFX=  0.800000  0.720000  1.000000  0.810000 ScalE2=  1.000000  1.000000
 IRadAn=      5 IRanWt=     -1 IRanGd=            0 ICorTp=0 IEmpDi=  4
 NAtoms=    7 NActive=    7 NUniq=    7 SFac= 1.00D+00 NAtFMM=   60 NAOKFM=F Big=F
 Integral buffers will be    131072 words long.
 Raffenetti 2 integral format.
 Two-electron integral symmetry is turned on.
 Leave Link  301 at Mon Nov 13 20:42:40 2023, MaxMem=  1879048192 cpu:               0.5 elap:               0.0
 (Enter /home/sekinelabo/g16/l302.exe)
 NPDir=0 NMtPBC=     1 NCelOv=     1 NCel=       1 NClECP=     1 NCelD=      1
         NCelK=      1 NCelE2=     1 NClLst=     1 CellRange=     0.0.
 One-electron integrals computed using PRISM.
 One-electron integral symmetry used in STVInt
 NBasis=   210 RedAO= T EigKep=  3.85D-06  NBF=   210
 NBsUse=   209 1.00D-06 EigRej=  6.79D-07 NBFU=   209
 Precomputing XC quadrature grid using
 IXCGrd= 4 IRadAn=           5 IRanWt=          -1 IRanGd=           0 AccXCQ= 0.00D+00.
 Generated NRdTot=       0 NPtTot=           0 NUsed=           0 NTot=          32
 NSgBfM=   211   211   211   211   211 MxSgAt=     7 MxSgA2=     7.
 Leave Link  302 at Mon Nov 13 20:42:40 2023, MaxMem=  1879048192 cpu:               2.2 elap:               0.1
 (Enter /home/sekinelabo/g16/l303.exe)
 DipDrv:  MaxL=1.
 Leave Link  303 at Mon Nov 13 20:42:40 2023, MaxMem=  1879048192 cpu:               0.6 elap:               0.0
 (Enter /home/sekinelabo/g16/l401.exe)
 ExpMin= 7.60D-03 ExpMax= 3.62D+04 ExpMxC= 1.21D+03 IAcc=3 IRadAn=         5 AccDes= 0.00D+00
 Harris functional with IExCor=  402 and IRadAn=       5 diagonalized for initial guess.
 HarFok:  IExCor=  402 AccDes= 0.00D+00 IRadAn=         5 IDoV= 1 UseB2=F ITyADJ=14
 ICtDFT=  3500011 ScaDFX=  1.000000  1.000000  1.000000  1.000000
 FoFCou: FMM=F IPFlag=           0 FMFlag=      100000 FMFlg1=           0
         NFxFlg=           0 DoJE=T BraDBF=F KetDBF=T FulRan=T
         wScrn=  0.000000 ICntrl=       500 IOpCl=  0 I1Cent=   200000004 NGrid=           0
         NMat0=    1 NMatS0=      1 NMatT0=    0 NMatD0=    1 NMtDS0=    0 NMtDT0=    0
 Petite list used in FoFCou.
 Harris En= -1135.84532081885    
 JPrj=0 DoOrth=F DoCkMO=F.
 Initial guess <Sx>= 0.0000 <Sy>= 0.0000 <Sz>= 0.5000 <S**2>= 0.7500 S= 0.5000
 Leave Link  401 at Mon Nov 13 20:42:40 2023, MaxMem=  1879048192 cpu:               4.8 elap:               0.3
 (Enter /home/sekinelabo/g16/l502.exe)
 Keep R1 and R2 ints in memory in canonical form, NReq=507620388.
 FoFCou: FMM=F IPFlag=           0 FMFlag=           0 FMFlg1=           0
         NFxFlg=           0 DoJE=F BraDBF=F KetDBF=F FulRan=T
         wScrn=  0.000000 ICntrl=       600 IOpCl=  0 I1Cent=           0 NGrid=           0
         NMat0=    1 NMatS0=  22155 NMatT0=    0 NMatD0=    1 NMtDS0=    0 NMtDT0=    0
 Symmetry not used in FoFCou.
 Two-electron integral symmetry not used.
 UHF open shell SCF:
 Using DIIS extrapolation, IDIIS=  1040.
 NGot=  1879048192 LenX=  1388082348 LenY=  1388034818
 Requested convergence on RMS density matrix=1.00D-08 within 128 cycles.
 Requested convergence on MAX density matrix=1.00D-06.
 Requested convergence on             energy=1.00D-06.
 No special actions if energy rises.

 Cycle   1  Pass 1  IDiag  1:
 E= -1136.02063412467    
 DIIS: error= 1.72D-02 at cycle   1 NSaved=   1.
 NSaved= 1 IEnMin= 1 EnMin= -1136.02063412467     IErMin= 1 ErrMin= 1.72D-02
 ErrMax= 1.72D-02  0.00D+00 EMaxC= 1.00D-01 BMatC= 2.18D-01 BMatP= 2.18D-01
 IDIUse=3 WtCom= 8.28D-01 WtEn= 1.72D-01
 Coeff-Com:  0.100D+01
 Coeff-En:   0.100D+01
 Coeff:      0.100D+01
 Gap=     0.062 Goal=   None    Shift=    0.000
 Gap=     0.049 Goal=   None    Shift=    0.000
 GapD=    0.049 DampG=0.250 DampE=0.500 DampFc=0.2500 IDamp=-1.
 Damping current iteration by 2.50D-01
 RMSDP=1.07D-01 MaxDP=6.72D+00              OVMax= 2.74D-01

 Cycle   2  Pass 1  IDiag  1:
 E= -1136.03852621636     Delta-E=       -0.017892091686 Rises=F Damp=T
 DIIS: error= 1.15D-02 at cycle   2 NSaved=   2.
 NSaved= 2 IEnMin= 2 EnMin= -1136.03852621636     IErMin= 2 ErrMin= 1.15D-02
 ErrMax= 1.15D-02  0.00D+00 EMaxC= 1.00D-01 BMatC= 8.16D-02 BMatP= 2.18D-01
 IDIUse=3 WtCom= 8.85D-01 WtEn= 1.15D-01
 Coeff-Com: -0.125D+01 0.225D+01
 Coeff-En:   0.000D+00 0.100D+01
 Coeff:     -0.111D+01 0.211D+01
 Gap=     0.073 Goal=   None    Shift=    0.000
 Gap=     0.051 Goal=   None    Shift=    0.000
 RMSDP=4.49D-02 MaxDP=2.96D+00 DE=-1.79D-02 OVMax= 1.81D-01

 Cycle   3  Pass 1  IDiag  1:
 E= -1136.06823170817     Delta-E=       -0.029705491816 Rises=F Damp=F
 DIIS: error= 3.79D-03 at cycle   3 NSaved=   3.
 NSaved= 3 IEnMin= 3 EnMin= -1136.06823170817     IErMin= 3 ErrMin= 3.79D-03
 ErrMax= 3.79D-03  0.00D+00 EMaxC= 1.00D-01 BMatC= 4.77D-03 BMatP= 8.16D-02
 IDIUse=3 WtCom= 9.62D-01 WtEn= 3.79D-02
 Coeff-Com: -0.248D+00 0.474D+00 0.774D+00
 Coeff-En:   0.000D+00 0.000D+00 0.100D+01
 Coeff:     -0.239D+00 0.456D+00 0.783D+00
 Gap=     0.067 Goal=   None    Shift=    0.000
 Gap=     0.051 Goal=   None    Shift=    0.000
 RMSDP=1.88D-02 MaxDP=1.07D+00 DE=-2.97D-02 OVMax= 5.75D-02

 Cycle   4  Pass 1  IDiag  1:
 E= -1136.06864807807     Delta-E=       -0.000416369898 Rises=F Damp=F
 DIIS: error= 3.23D-03 at cycle   4 NSaved=   4.
 NSaved= 4 IEnMin= 4 EnMin= -1136.06864807807     IErMin= 4 ErrMin= 3.23D-03
 ErrMax= 3.23D-03  0.00D+00 EMaxC= 1.00D-01 BMatC= 3.05D-03 BMatP= 4.77D-03
 IDIUse=3 WtCom= 9.68D-01 WtEn= 3.23D-02
 Coeff-Com:  0.254D-01-0.317D-01 0.447D+00 0.559D+00
 Coeff-En:   0.000D+00 0.000D+00 0.453D+00 0.547D+00
 Coeff:      0.246D-01-0.307D-01 0.448D+00 0.559D+00
 Gap=     0.069 Goal=   None    Shift=    0.000
 Gap=     0.051 Goal=   None    Shift=    0.000
 RMSDP=5.60D-03 MaxDP=3.22D-01 DE=-4.16D-04 OVMax= 3.49D-02

 Cycle   5  Pass 1  IDiag  1:
 E= -1136.07026607380     Delta-E=       -0.001617995735 Rises=F Damp=F
 DIIS: error= 7.80D-04 at cycle   5 NSaved=   5.
 NSaved= 5 IEnMin= 5 EnMin= -1136.07026607380     IErMin= 5 ErrMin= 7.80D-04
 ErrMax= 7.80D-04  0.00D+00 EMaxC= 1.00D-01 BMatC= 1.26D-04 BMatP= 3.05D-03
 IDIUse=3 WtCom= 9.92D-01 WtEn= 7.80D-03
 Coeff-Com:  0.167D-01-0.221D-01 0.284D+00 0.362D+00 0.360D+00
 Coeff-En:   0.000D+00 0.000D+00 0.000D+00 0.000D+00 0.100D+01
 Coeff:      0.165D-01-0.220D-01 0.282D+00 0.359D+00 0.365D+00
 Gap=     0.069 Goal=   None    Shift=    0.000
 Gap=     0.051 Goal=   None    Shift=    0.000
 RMSDP=5.35D-04 MaxDP=2.33D-02 DE=-1.62D-03 OVMax= 1.09D-02

 Cycle   6  Pass 1  IDiag  1:
 E= -1136.07039098195     Delta-E=       -0.000124908146 Rises=F Damp=F
 DIIS: error= 8.22D-05 at cycle   6 NSaved=   6.
 NSaved= 6 IEnMin= 6 EnMin= -1136.07039098195     IErMin= 6 ErrMin= 8.22D-05
 ErrMax= 8.22D-05  0.00D+00 EMaxC= 1.00D-01 BMatC= 1.71D-06 BMatP= 1.26D-04
 IDIUse=1 WtCom= 1.00D+00 WtEn= 0.00D+00
 Coeff-Com: -0.331D-02 0.415D-02-0.273D-01-0.416D-01 0.618D-01 0.101D+01
 Coeff:     -0.331D-02 0.415D-02-0.273D-01-0.416D-01 0.618D-01 0.101D+01
 Gap=     0.069 Goal=   None    Shift=    0.000
 Gap=     0.052 Goal=   None    Shift=    0.000
 RMSDP=4.24D-04 MaxDP=3.72D-02 DE=-1.25D-04 OVMax= 1.48D-03

 Cycle   7  Pass 1  IDiag  1:
 E= -1136.07039311200     Delta-E=       -0.000002130047 Rises=F Damp=F
 DIIS: error= 2.25D-05 at cycle   7 NSaved=   7.
 NSaved= 7 IEnMin= 7 EnMin= -1136.07039311200     IErMin= 7 ErrMin= 2.25D-05
 ErrMax= 2.25D-05  0.00D+00 EMaxC= 1.00D-01 BMatC= 1.06D-07 BMatP= 1.71D-06
 IDIUse=1 WtCom= 1.00D+00 WtEn= 0.00D+00
 Coeff-Com: -0.102D-02 0.127D-02-0.142D-01-0.191D-01 0.539D-02 0.212D+00
 Coeff-Com:  0.815D+00
 Coeff:     -0.102D-02 0.127D-02-0.142D-01-0.191D-01 0.539D-02 0.212D+00
 Coeff:      0.815D+00
 Gap=     0.069 Goal=   None    Shift=    0.000
 Gap=     0.052 Goal=   None    Shift=    0.000
 RMSDP=6.91D-05 MaxDP=6.84D-03 DE=-2.13D-06 OVMax= 5.50D-04

 Cycle   8  Pass 1  IDiag  1:
 E= -1136.07039318762     Delta-E=       -0.000000075627 Rises=F Damp=F
 DIIS: error= 2.38D-05 at cycle   8 NSaved=   8.
 NSaved= 8 IEnMin= 8 EnMin= -1136.07039318762     IErMin= 7 ErrMin= 2.25D-05
 ErrMax= 2.38D-05  0.00D+00 EMaxC= 1.00D-01 BMatC= 1.07D-07 BMatP= 1.06D-07
 IDIUse=1 WtCom= 1.00D+00 WtEn= 0.00D+00
 Coeff-Com:  0.411D-03-0.532D-03-0.169D-02-0.201D-03-0.178D-01-0.187D+00
 Coeff-Com:  0.593D+00 0.613D+00
 Coeff:      0.411D-03-0.532D-03-0.169D-02-0.201D-03-0.178D-01-0.187D+00
 Coeff:      0.593D+00 0.613D+00
 Gap=     0.069 Goal=   None    Shift=    0.000
 Gap=     0.052 Goal=   None    Shift=    0.000
 RMSDP=4.23D-05 MaxDP=4.60D-03 DE=-7.56D-08 OVMax= 4.07D-04

 Cycle   9  Pass 1  IDiag  1:
 E= -1136.07039330631     Delta-E=       -0.000000118683 Rises=F Damp=F
 DIIS: error= 4.10D-06 at cycle   9 NSaved=   9.
 NSaved= 9 IEnMin= 9 EnMin= -1136.07039330631     IErMin= 9 ErrMin= 4.10D-06
 ErrMax= 4.10D-06  0.00D+00 EMaxC= 1.00D-01 BMatC= 2.95D-09 BMatP= 1.06D-07
 IDIUse=1 WtCom= 1.00D+00 WtEn= 0.00D+00
 Coeff-Com:  0.783D-04-0.945D-04 0.210D-03 0.692D-03-0.355D-02-0.287D-01
 Coeff-Com:  0.431D-02 0.743D-01 0.953D+00
 Coeff:      0.783D-04-0.945D-04 0.210D-03 0.692D-03-0.355D-02-0.287D-01
 Coeff:      0.431D-02 0.743D-01 0.953D+00
 Gap=     0.069 Goal=   None    Shift=    0.000
 Gap=     0.052 Goal=   None    Shift=    0.000
 RMSDP=1.18D-05 MaxDP=7.09D-04 DE=-1.19D-07 OVMax= 1.70D-04

 Cycle  10  Pass 1  IDiag  1:
 E= -1136.07039331538     Delta-E=       -0.000000009078 Rises=F Damp=F
 DIIS: error= 2.14D-06 at cycle  10 NSaved=  10.
 NSaved=10 IEnMin=10 EnMin= -1136.07039331538     IErMin=10 ErrMin= 2.14D-06
 ErrMax= 2.14D-06  0.00D+00 EMaxC= 1.00D-01 BMatC= 1.03D-09 BMatP= 2.95D-09
 IDIUse=1 WtCom= 1.00D+00 WtEn= 0.00D+00
 Coeff-Com: -0.334D-04 0.483D-04 0.581D-03 0.491D-03 0.220D-02 0.184D-01
 Coeff-Com: -0.108D+00-0.930D-01 0.352D+00 0.828D+00
 Coeff:     -0.334D-04 0.483D-04 0.581D-03 0.491D-03 0.220D-02 0.184D-01
 Coeff:     -0.108D+00-0.930D-01 0.352D+00 0.828D+00
 Gap=     0.069 Goal=   None    Shift=    0.000
 Gap=     0.052 Goal=   None    Shift=    0.000
 RMSDP=8.58D-06 MaxDP=5.73D-04 DE=-9.08D-09 OVMax= 9.13D-05

 Cycle  11  Pass 1  IDiag  1:
 E= -1136.07039331838     Delta-E=       -0.000000002992 Rises=F Damp=F
 DIIS: error= 8.00D-07 at cycle  11 NSaved=  11.
 NSaved=11 IEnMin=11 EnMin= -1136.07039331838     IErMin=11 ErrMin= 8.00D-07
 ErrMax= 8.00D-07  0.00D+00 EMaxC= 1.00D-01 BMatC= 1.25D-10 BMatP= 1.03D-09
 IDIUse=1 WtCom= 1.00D+00 WtEn= 0.00D+00
 Coeff-Com: -0.324D-04 0.402D-04 0.725D-04-0.869D-04 0.149D-02 0.126D-01
 Coeff-Com: -0.246D-01-0.360D-01-0.171D+00-0.440D-01 0.126D+01
 Coeff:     -0.324D-04 0.402D-04 0.725D-04-0.869D-04 0.149D-02 0.126D-01
 Coeff:     -0.246D-01-0.360D-01-0.171D+00-0.440D-01 0.126D+01
 Gap=     0.069 Goal=   None    Shift=    0.000
 Gap=     0.052 Goal=   None    Shift=    0.000
 RMSDP=6.59D-06 MaxDP=4.74D-04 DE=-2.99D-09 OVMax= 6.78D-05

 Cycle  12  Pass 1  IDiag  1:
 E= -1136.07039331922     Delta-E=       -0.000000000844 Rises=F Damp=F
 DIIS: error= 3.04D-07 at cycle  12 NSaved=  12.
 NSaved=12 IEnMin=12 EnMin= -1136.07039331922     IErMin=12 ErrMin= 3.04D-07
 ErrMax= 3.04D-07  0.00D+00 EMaxC= 1.00D-01 BMatC= 2.75D-11 BMatP= 1.25D-10
 IDIUse=1 WtCom= 1.00D+00 WtEn= 0.00D+00
 Coeff-Com: -0.904D-05 0.105D-04-0.360D-05-0.605D-04 0.391D-03 0.394D-02
 Coeff-Com: -0.299D-02-0.802D-02-0.877D-01-0.745D-01 0.471D+00 0.698D+00
 Coeff:     -0.904D-05 0.105D-04-0.360D-05-0.605D-04 0.391D-03 0.394D-02
 Coeff:     -0.299D-02-0.802D-02-0.877D-01-0.745D-01 0.471D+00 0.698D+00
 Gap=     0.069 Goal=   None    Shift=    0.000
 Gap=     0.052 Goal=   None    Shift=    0.000
 RMSDP=1.05D-06 MaxDP=8.10D-05 DE=-8.44D-10 OVMax= 1.41D-05

 Cycle  13  Pass 1  IDiag  1:
 E= -1136.07039331925     Delta-E=       -0.000000000034 Rises=F Damp=F
 DIIS: error= 2.98D-07 at cycle  13 NSaved=  13.
 NSaved=13 IEnMin=13 EnMin= -1136.07039331925     IErMin=13 ErrMin= 2.98D-07
 ErrMax= 2.98D-07  0.00D+00 EMaxC= 1.00D-01 BMatC= 2.09D-11 BMatP= 2.75D-11
 IDIUse=1 WtCom= 1.00D+00 WtEn= 0.00D+00
 Coeff-Com:  0.589D-05-0.796D-05-0.285D-04-0.115D-04-0.274D-03-0.165D-02
 Coeff-Com:  0.677D-02 0.722D-02-0.173D-02-0.363D-01-0.127D+00 0.539D+00
 Coeff-Com:  0.614D+00
 Coeff:      0.589D-05-0.796D-05-0.285D-04-0.115D-04-0.274D-03-0.165D-02
 Coeff:      0.677D-02 0.722D-02-0.173D-02-0.363D-01-0.127D+00 0.539D+00
 Coeff:      0.614D+00
 Gap=     0.069 Goal=   None    Shift=    0.000
 Gap=     0.052 Goal=   None    Shift=    0.000
 RMSDP=6.41D-07 MaxDP=5.26D-05 DE=-3.41D-11 OVMax= 8.77D-06

 Cycle  14  Pass 1  IDiag  1:
 E= -1136.07039331931     Delta-E=       -0.000000000053 Rises=F Damp=F
 DIIS: error= 5.04D-08 at cycle  14 NSaved=  14.
 NSaved=14 IEnMin=14 EnMin= -1136.07039331931     IErMin=14 ErrMin= 5.04D-08
 ErrMax= 5.04D-08  0.00D+00 EMaxC= 1.00D-01 BMatC= 6.22D-13 BMatP= 2.09D-11
 IDIUse=1 WtCom= 1.00D+00 WtEn= 0.00D+00
 Coeff-Com: -0.170D-06 0.529D-06 0.223D-05 0.893D-05 0.158D-04-0.218D-03
 Coeff-Com: -0.122D-02-0.549D-03 0.155D-01 0.247D-01-0.577D-01-0.227D+00
 Coeff-Com: -0.136D+00 0.138D+01
 Coeff:     -0.170D-06 0.529D-06 0.223D-05 0.893D-05 0.158D-04-0.218D-03
 Coeff:     -0.122D-02-0.549D-03 0.155D-01 0.247D-01-0.577D-01-0.227D+00
 Coeff:     -0.136D+00 0.138D+01
 Gap=     0.069 Goal=   None    Shift=    0.000
 Gap=     0.052 Goal=   None    Shift=    0.000
 RMSDP=3.35D-07 MaxDP=2.41D-05 DE=-5.34D-11 OVMax= 4.22D-06

 Cycle  15  Pass 1  IDiag  1:
 E= -1136.07039331930     Delta-E=        0.000000000007 Rises=F Damp=F
 DIIS: error= 1.65D-08 at cycle  15 NSaved=  15.
 NSaved=15 IEnMin=14 EnMin= -1136.07039331931     IErMin=15 ErrMin= 1.65D-08
 ErrMax= 1.65D-08  0.00D+00 EMaxC= 1.00D-01 BMatC= 9.26D-14 BMatP= 6.22D-13
 IDIUse=1 WtCom= 1.00D+00 WtEn= 0.00D+00
 Coeff-Com: -0.817D-06 0.115D-05 0.406D-05 0.275D-05 0.262D-04 0.146D-03
 Coeff-Com: -0.920D-03-0.760D-03 0.243D-02 0.563D-02 0.105D-01-0.102D+00
 Coeff-Com: -0.986D-01 0.224D+00 0.959D+00
 Coeff:     -0.817D-06 0.115D-05 0.406D-05 0.275D-05 0.262D-04 0.146D-03
 Coeff:     -0.920D-03-0.760D-03 0.243D-02 0.563D-02 0.105D-01-0.102D+00
 Coeff:     -0.986D-01 0.224D+00 0.959D+00
 Gap=     0.069 Goal=   None    Shift=    0.000
 Gap=     0.052 Goal=   None    Shift=    0.000
 RMSDP=1.05D-07 MaxDP=9.00D-06 DE= 6.59D-12 OVMax= 1.29D-06

 Cycle  16  Pass 1  IDiag  1:
 E= -1136.07039331930     Delta-E=       -0.000000000001 Rises=F Damp=F
 DIIS: error= 6.39D-09 at cycle  16 NSaved=  16.
 NSaved=16 IEnMin=14 EnMin= -1136.07039331931     IErMin=16 ErrMin= 6.39D-09
 ErrMax= 6.39D-09  0.00D+00 EMaxC= 1.00D-01 BMatC= 1.77D-14 BMatP= 9.26D-14
 IDIUse=1 WtCom= 1.00D+00 WtEn= 0.00D+00
 Coeff-Com: -0.221D-06 0.253D-06 0.146D-05-0.749D-06 0.109D-04 0.100D-03
 Coeff-Com: -0.882D-04-0.226D-03-0.227D-02-0.288D-02 0.157D-01 0.890D-02
 Coeff-Com: -0.721D-02-0.178D+00 0.253D+00 0.913D+00
 Coeff:     -0.221D-06 0.253D-06 0.146D-05-0.749D-06 0.109D-04 0.100D-03
 Coeff:     -0.882D-04-0.226D-03-0.227D-02-0.288D-02 0.157D-01 0.890D-02
 Coeff:     -0.721D-02-0.178D+00 0.253D+00 0.913D+00
 Gap=     0.069 Goal=   None    Shift=    0.000
 Gap=     0.052 Goal=   None    Shift=    0.000
 RMSDP=5.38D-08 MaxDP=4.55D-06 DE=-1.36D-12 OVMax= 4.22D-07

 Cycle  17  Pass 1  IDiag  1:
 E= -1136.07039331929     Delta-E=        0.000000000015 Rises=F Damp=F
 DIIS: error= 2.09D-09 at cycle  17 NSaved=  17.
 NSaved=17 IEnMin=14 EnMin= -1136.07039331931     IErMin=17 ErrMin= 2.09D-09
 ErrMax= 2.09D-09  0.00D+00 EMaxC= 1.00D-01 BMatC= 1.39D-15 BMatP= 1.77D-14
 IDIUse=1 WtCom= 1.00D+00 WtEn= 0.00D+00
 Large coefficients: NSaved= 17 BigCof=    0.00 CofMax=   10.00 Det=-6.79D-15
 Inversion failed.  Reducing to 16 matrices.
 Large coefficients: NSaved= 16 BigCof=    0.00 CofMax=   10.00 Det=-7.01D-15
 Inversion failed.  Reducing to 15 matrices.
 Coeff-Com: -0.502D-06-0.947D-06-0.713D-06 0.115D-04 0.650D-04 0.241D-04
 Coeff-Com: -0.665D-03-0.701D-03 0.911D-03 0.129D-01 0.104D-01-0.508D-01
 Coeff-Com: -0.708D-01 0.893D-01 0.101D+01
 Coeff:     -0.502D-06-0.947D-06-0.713D-06 0.115D-04 0.650D-04 0.241D-04
 Coeff:     -0.665D-03-0.701D-03 0.911D-03 0.129D-01 0.104D-01-0.508D-01
 Coeff:     -0.708D-01 0.893D-01 0.101D+01
 Gap=     0.069 Goal=   None    Shift=    0.000
 Gap=     0.052 Goal=   None    Shift=    0.000
 RMSDP=1.89D-08 MaxDP=1.52D-06 DE= 1.50D-11 OVMax= 1.14D-07

 Cycle  18  Pass 1  IDiag  1:
 E= -1136.07039331930     Delta-E=       -0.000000000018 Rises=F Damp=F
 DIIS: error= 1.18D-09 at cycle  18 NSaved=  16.
 NSaved=16 IEnMin=12 EnMin= -1136.07039331931     IErMin=16 ErrMin= 1.18D-09
 ErrMax= 1.18D-09  0.00D+00 EMaxC= 1.00D-01 BMatC= 2.02D-16 BMatP= 1.39D-15
 IDIUse=1 WtCom= 1.00D+00 WtEn= 0.00D+00
 Large coefficients: NSaved= 16 BigCof=    0.00 CofMax=   10.00 Det=-5.77D-16
 Inversion failed.  Reducing to 15 matrices.
 Coeff-Com:  0.390D-06 0.185D-07-0.817D-05-0.162D-04 0.544D-05 0.327D-03
 Coeff-Com:  0.439D-03-0.173D-02-0.256D-02-0.540D-03 0.249D-01-0.234D-01
 Coeff-Com: -0.119D+00-0.544D-01 0.118D+01
 Coeff:      0.390D-06 0.185D-07-0.817D-05-0.162D-04 0.544D-05 0.327D-03
 Coeff:      0.439D-03-0.173D-02-0.256D-02-0.540D-03 0.249D-01-0.234D-01
 Coeff:     -0.119D+00-0.544D-01 0.118D+01
 Gap=     0.069 Goal=   None    Shift=    0.000
 Gap=     0.052 Goal=   None    Shift=    0.000
 RMSDP=8.19D-09 MaxDP=5.41D-07 DE=-1.82D-11 OVMax= 4.46D-08

 SCF Done:  E(UB3LYP) =  -1136.07039332     A.U. after   18 cycles
            NFock= 18  Conv=0.82D-08     -V/T= 2.0022
 <Sx>= 0.0000 <Sy>= 0.0000 <Sz>= 0.5000 <S**2>= 0.7572 S= 0.5036
 <L.S>= 0.000000000000E+00
 KE= 1.133632093965D+03 PE=-3.578426552163D+03 EE= 8.842943830530D+02
 Annihilation of the first spin contaminant:
 S**2 before annihilation     0.7572,   after     0.7500
 Leave Link  502 at Mon Nov 13 20:42:56 2023, MaxMem=  1879048192 cpu:             185.7 elap:              15.9
 (Enter /home/sekinelabo/g16/l601.exe)
 Copying SCF densities to generalized density rwf, IOpCl= 1 IROHF=0.

 **********************************************************************

            Population analysis using the SCF Density.

 **********************************************************************

 Orbital symmetries:
 Alpha Orbitals:
       Occupied  (A) (A) (A) (A) (A) (A) (A) (A) (A) (A) (A) (A)
                 (A) (A) (A) (A) (A) (A) (A) (A) (A) (A) (A) (A)
                 (A) (A) (A) (A) (A) (A) (A) (A) (A) (A) (A) (A)
                 (A) (A) (A)
       Virtual   (A) (A) (A) (A) (A) (A) (A) (A) (A) (A) (A) (A)
                 (A) (A) (A) (A) (A) (A) (A) (A) (A) (A) (A) (A)
                 (A) (A) (A) (A) (A) (A) (A) (A) (A) (A) (A) (A)
                 (A) (A) (A) (A) (A) (A) (A) (A) (A) (A) (A) (A)
                 (A) (A) (A) (A) (A) (A) (A) (A) (A) (A) (A) (A)
                 (A) (A) (A) (A) (A) (A) (A) (A) (A) (A) (A) (A)
                 (A) (A) (A) (A) (A) (A) (A) (A) (A) (A) (A) (A)
                 (A) (A) (A) (A) (A) (A) (A) (A) (A) (A) (A) (A)
                 (A) (A) (A) (A) (A) (A) (A) (A) (A) (A) (A) (A)
                 (A) (A) (A) (A) (A) (A) (A) (A) (A) (A) (A) (A)
                 (A) (A) (A) (A) (A) (A) (A) (A) (A) (A) (A) (A)
                 (A) (A) (A) (A) (A) (A) (A) (A) (A) (A) (A) (A)
                 (A) (A) (A) (A) (A) (A) (A) (A) (A) (A) (A) (A)
                 (A) (A) (A) (A) (A) (A) (A) (A) (A) (A) (A) (A)
                 (A) (A)
 Beta  Orbitals:
       Occupied  (A) (A) (A) (A) (A) (A) (A) (A) (A) (A) (A) (A)
                 (A) (A) (A) (A) (A) (A) (A) (A) (A) (A) (A) (A)
                 (A) (A) (A) (A) (A) (A) (A) (A) (A) (A) (A) (A)
                 (A) (A)
       Virtual   (A) (A) (A) (A) (A) (A) (A) (A) (A) (A) (A) (A)
                 (A) (A) (A) (A) (A) (A) (A) (A) (A) (A) (A) (A)
                 (A) (A) (A) (A) (A) (A) (A) (A) (A) (A) (A) (A)
                 (A) (A) (A) (A) (A) (A) (A) (A) (A) (A) (A) (A)
                 (A) (A) (A) (A) (A) (A) (A) (A) (A) (A) (A) (A)
                 (A) (A) (A) (A) (A) (A) (A) (A) (A) (A) (A) (A)
                 (A) (A) (A) (A) (A) (A) (A) (A) (A) (A) (A) (A)
                 (A) (A) (A) (A) (A) (A) (A) (A) (A) (A) (A) (A)
                 (A) (A) (A) (A) (A) (A) (A) (A) (A) (A) (A) (A)
                 (A) (A) (A) (A) (A) (A) (A) (A) (A) (A) (A) (A)
                 (A) (A) (A) (A) (A) (A) (A) (A) (A) (A) (A) (A)
                 (A) (A) (A) (A) (A) (A) (A) (A) (A) (A) (A) (A)
                 (A) (A) (A) (A) (A) (A) (A) (A) (A) (A) (A) (A)
                 (A) (A) (A) (A) (A) (A) (A) (A) (A) (A) (A) (A)
                 (A) (A) (A)
 The electronic state is 2-A.
 Alpha  occ. eigenvalues --  -38.44111 -38.44063 -38.43771 -38.43712 -38.43711
 Alpha  occ. eigenvalues --  -38.43663 -38.43659  -2.20519  -2.20201  -2.20092
 Alpha  occ. eigenvalues --   -2.19899  -2.19883  -2.19808  -2.19781  -1.14436
 Alpha  occ. eigenvalues --   -1.14417  -1.14253  -1.14097  -1.14039  -1.13909
 Alpha  occ. eigenvalues --   -1.13856  -1.13834  -1.13695  -1.13607  -1.13526
 Alpha  occ. eigenvalues --   -1.13509  -1.13460  -1.13458  -1.13433  -1.13429
 Alpha  occ. eigenvalues --   -1.13374  -1.13369  -1.13343  -1.13322  -1.13228
 Alpha  occ. eigenvalues --   -0.21908  -0.13980  -0.13311  -0.11998
 Alpha virt. eigenvalues --   -0.05121  -0.04471  -0.04233  -0.03533  -0.03145
 Alpha virt. eigenvalues --   -0.02459  -0.00995  -0.00633  -0.00009   0.00357
 Alpha virt. eigenvalues --    0.00782   0.00805   0.01030   0.01138   0.01186
 Alpha virt. eigenvalues --    0.01318   0.01322   0.01400   0.01508   0.01632
 Alpha virt. eigenvalues --    0.01643   0.01796   0.01926   0.01977   0.02022
 Alpha virt. eigenvalues --    0.02667   0.02691   0.02934   0.02969   0.03142
 Alpha virt. eigenvalues --    0.03156   0.03279   0.03355   0.03434   0.03452
 Alpha virt. eigenvalues --    0.03520   0.03533   0.03735   0.03793   0.03900
 Alpha virt. eigenvalues --    0.04899   0.05130   0.05160   0.05163   0.05390
 Alpha virt. eigenvalues --    0.05407   0.05669   0.05918   0.06041   0.06083
 Alpha virt. eigenvalues --    0.06194   0.07744   0.07750   0.07856   0.08088
 Alpha virt. eigenvalues --    0.08357   0.08719   0.09312   0.09602   0.09749
 Alpha virt. eigenvalues --    0.10205   0.11876   0.11912   0.12712   0.12847
 Alpha virt. eigenvalues --    0.13416   0.14017   0.14083   0.14085   0.14436
 Alpha virt. eigenvalues --    0.14740   0.14888   0.15455   0.15613   0.16774
 Alpha virt. eigenvalues --    0.17145   0.17578   0.17690   0.19057   0.24729
 Alpha virt. eigenvalues --    0.26769   0.27050   0.27906   0.28237   0.28522
 Alpha virt. eigenvalues --    0.29100   0.29440   0.32194   0.35782   0.36556
 Alpha virt. eigenvalues --    0.37871   0.38530   0.38908   0.40052   0.40648
 Alpha virt. eigenvalues --    0.40985   0.44021   0.44119   0.44584   0.45637
 Alpha virt. eigenvalues --    0.46075   0.46776   0.46876   0.47169   0.47325
 Alpha virt. eigenvalues --    0.48067   0.48818   0.48945   0.49253   0.49394
 Alpha virt. eigenvalues --    0.49821   0.49920   0.50578   0.54143   0.55221
 Alpha virt. eigenvalues --    0.55726   0.56248   0.57729   0.58457   0.60781
 Alpha virt. eigenvalues --    0.62600   0.65671   0.66265   0.68048   0.68952
 Alpha virt. eigenvalues --    0.70709   0.72899   0.75860   0.75939   0.78017
 Alpha virt. eigenvalues --    0.80658   0.80852   0.87072   0.88804   0.91930
 Alpha virt. eigenvalues --    2.20844   2.23035   2.26623   2.28791   2.29346
 Alpha virt. eigenvalues --    2.35543   2.38548   4.41099   4.41361   4.42090
 Alpha virt. eigenvalues --    4.42332   4.43154   4.45041   4.45306   4.47164
 Alpha virt. eigenvalues --    4.52509   4.53856   4.62875   4.64430   4.70871
 Alpha virt. eigenvalues --    4.71431   4.73764   4.76671   4.78517   4.82629
 Alpha virt. eigenvalues --    4.86493   4.95571   4.99088  96.44325  96.51011
 Alpha virt. eigenvalues --   96.55444  96.57829  96.58391  96.66902  96.71134
  Beta  occ. eigenvalues --  -38.44050 -38.44021 -38.43695 -38.43695 -38.43681
  Beta  occ. eigenvalues --  -38.43650 -38.43646  -2.20359  -2.20183  -2.19934
  Beta  occ. eigenvalues --   -2.19877  -2.19856  -2.19789  -2.19764  -1.14346
  Beta  occ. eigenvalues --   -1.14331  -1.14168  -1.14091  -1.13982  -1.13818
  Beta  occ. eigenvalues --   -1.13772  -1.13770  -1.13641  -1.13561  -1.13483
  Beta  occ. eigenvalues --   -1.13470  -1.13439  -1.13414  -1.13387  -1.13358
  Beta  occ. eigenvalues --   -1.13336  -1.13323  -1.13288  -1.13285  -1.13223
  Beta  occ. eigenvalues --   -0.21114  -0.13592  -0.12931
  Beta virt. eigenvalues --   -0.07773  -0.05171  -0.04449  -0.04209  -0.02554
  Beta virt. eigenvalues --   -0.02205  -0.01364  -0.00925  -0.00590   0.00123
  Beta virt. eigenvalues --    0.00391   0.00746   0.00775   0.01063   0.01140
  Beta virt. eigenvalues --    0.01181   0.01345   0.01448   0.01505   0.01679
  Beta virt. eigenvalues --    0.01697   0.01751   0.01904   0.01950   0.01989
  Beta virt. eigenvalues --    0.02203   0.02658   0.02686   0.02915   0.02971
  Beta virt. eigenvalues --    0.03184   0.03197   0.03273   0.03354   0.03433
  Beta virt. eigenvalues --    0.03580   0.03667   0.03756   0.03823   0.03864
  Beta virt. eigenvalues --    0.04162   0.05036   0.05207   0.05240   0.05259
  Beta virt. eigenvalues --    0.05586   0.05632   0.05899   0.06056   0.06123
  Beta virt. eigenvalues --    0.06231   0.06380   0.07777   0.07865   0.07914
  Beta virt. eigenvalues --    0.08092   0.08350   0.08835   0.09449   0.10036
  Beta virt. eigenvalues --    0.10051   0.10592   0.12141   0.12159   0.12815
  Beta virt. eigenvalues --    0.12993   0.13439   0.14192   0.14233   0.14554
  Beta virt. eigenvalues --    0.14850   0.15240   0.15326   0.15669   0.15712
  Beta virt. eigenvalues --    0.16988   0.17332   0.17700   0.17707   0.19519
  Beta virt. eigenvalues --    0.25151   0.27336   0.27476   0.28154   0.28771
  Beta virt. eigenvalues --    0.29018   0.29294   0.29482   0.32253   0.36080
  Beta virt. eigenvalues --    0.36749   0.38325   0.38968   0.39267   0.40466
  Beta virt. eigenvalues --    0.40903   0.41249   0.44238   0.44362   0.44756
  Beta virt. eigenvalues --    0.45813   0.46119   0.47019   0.47093   0.47543
  Beta virt. eigenvalues --    0.47838   0.48223   0.48924   0.49112   0.49165
  Beta virt. eigenvalues --    0.49393   0.50025   0.50185   0.50713   0.54228
  Beta virt. eigenvalues --    0.55672   0.56152   0.56480   0.57934   0.58871
  Beta virt. eigenvalues --    0.61054   0.63217   0.65799   0.66584   0.68266
  Beta virt. eigenvalues --    0.69220   0.70706   0.73499   0.75862   0.76057
  Beta virt. eigenvalues --    0.78208   0.80942   0.81029   0.87303   0.88808
  Beta virt. eigenvalues --    0.92192   2.20880   2.23075   2.26637   2.28807
  Beta virt. eigenvalues --    2.29385   2.35901   2.38940   4.41204   4.41469
  Beta virt. eigenvalues --    4.42169   4.42385   4.43172   4.45084   4.45376
  Beta virt. eigenvalues --    4.47249   4.52613   4.53957   4.62925   4.64477
  Beta virt. eigenvalues --    4.71010   4.71454   4.73804   4.76767   4.78599
  Beta virt. eigenvalues --    4.82657   4.86516   4.95648   4.99179  96.44348
  Beta virt. eigenvalues --   96.51027  96.55455  96.57842  96.58409  96.67015
  Beta virt. eigenvalues --   96.71255
          Condensed to atoms (all electrons):
               1          2          3          4          5          6
     1  Na  13.577597   0.013969   0.013919  -0.536267   0.474832  -2.275021
     2  Na   0.013969  13.572898  -1.006385   0.728040  -2.531505   0.027020
     3  Na   0.013919  -1.006385  13.565544   0.723147  -0.180068   0.022494
     4  Na  -0.536267   0.728040   0.723147  13.766987  -1.890561   0.010809
     5  Na   0.474832  -2.531505  -0.180068  -1.890561  14.320349  -0.213965
     6  Na  -2.275021   0.027020   0.022494   0.010809  -0.213965  14.219265
     7  Na   0.475899  -0.198381  -2.530829  -1.903683   0.803052  -0.211381
               7
     1  Na   0.475899
     2  Na  -0.198381
     3  Na  -2.530829
     4  Na  -1.903683
     5  Na   0.803052
     6  Na  -0.211381
     7  Na  14.347090
          Atomic-Atomic Spin Densities.
               1          2          3          4          5          6
     1  Na   2.132486   0.231499   0.230306  -0.114649   0.034730  -2.219795
     2  Na   0.231499  -0.145026   0.090804  -0.054482   0.141465  -0.204356
     3  Na   0.230306   0.090804  -0.144126  -0.055237   0.023786  -0.202613
     4  Na  -0.114649  -0.054482  -0.055237  -0.208941   0.132328   0.188856
     5  Na   0.034730   0.141465   0.023786   0.132328  -0.185261  -0.029026
     6  Na  -2.219795  -0.204356  -0.202613   0.188856  -0.029026   2.972843
     7  Na   0.033752   0.024929   0.141293   0.133854  -0.116319  -0.028331
               7
     1  Na   0.033752
     2  Na   0.024929
     3  Na   0.141293
     4  Na   0.133854
     5  Na  -0.116319
     6  Na  -0.028331
     7  Na  -0.187563
 Mulliken charges and spin densities:
               1          2
     1  Na  -0.744929   0.328329
     2  Na   0.394344   0.084833
     3  Na   0.392178   0.084213
     4  Na   0.101527   0.021729
     5  Na   0.217867   0.001703
     6  Na  -0.579220   0.477578
     7  Na   0.218233   0.001615
 Sum of Mulliken charges =  -0.00000   1.00000
 Mulliken charges and spin densities with hydrogens summed into heavy atoms:
               1          2
     1  Na  -0.744929   0.328329
     2  Na   0.394344   0.084833
     3  Na   0.392178   0.084213
     4  Na   0.101527   0.021729
     5  Na   0.217867   0.001703
     6  Na  -0.579220   0.477578
     7  Na   0.218233   0.001615
 Electronic spatial extent (au):  <R**2>=           1491.9066
 Charge=             -0.0000 electrons
 Dipole moment (field-independent basis, Debye):
    X=              0.0600    Y=              0.0023    Z=              0.2044  Tot=              0.2131
 Quadrupole moment (field-independent basis, Debye-Ang):
   XX=            -60.2901   YY=            -66.2331   ZZ=            -70.8776
   XY=              0.0033   XZ=             -0.1046   YZ=             -0.0021
 Traceless Quadrupole moment (field-independent basis, Debye-Ang):
   XX=              5.5102   YY=             -0.4328   ZZ=             -5.0773
   XY=              0.0033   XZ=             -0.1046   YZ=             -0.0021
 Octapole moment (field-independent basis, Debye-Ang**2):
  XXX=             -1.1422  YYY=              0.0618  ZZZ=              3.3132  XYY=              2.3989
  XXY=             -0.0147  XXZ=              2.9911  XZZ=              1.1343  YZZ=              0.0077
  YYZ=             -1.9898  XYZ=              0.0165
 Hexadecapole moment (field-independent basis, Debye-Ang**3):
 XXXX=          -1018.7028 YYYY=           -985.0427 ZZZZ=           -567.4822 XXXY=             -0.0561
 XXXZ=             -9.7152 YYYX=              0.1417 YYYZ=              0.0491 ZZZX=             -0.7105
 ZZZY=             -0.0125 XXYY=           -323.1317 XXZZ=           -310.8294 YYZZ=           -292.9875
 XXYZ=             -0.0946 YYXZ=              7.3871 ZZXY=              0.0038
 N-N= 4.244296818256D+02 E-N=-3.578426552002D+03  KE= 1.133632093965D+03
                          Isotropic Fermi Contact Couplings
        Atom                 a.u.       MegaHertz       Gauss      10(-4) cm-1
     1  Na(23)             0.35839     423.98610     151.28879     141.42654
     2  Na(23)            -0.01122     -13.26780      -4.73428      -4.42566
     3  Na(23)            -0.01124     -13.29308      -4.74330      -4.43409
     4  Na(23)            -0.01635     -19.34558      -6.90298      -6.45299
     5  Na(23)            -0.01704     -20.16037      -7.19372      -6.72478
     6  Na(23)             0.36977     437.44419     156.09097     145.91568
     7  Na(23)            -0.01704     -20.15365      -7.19133      -6.72254
 --------------------------------------------------------
       Center         ----  Spin Dipole Couplings  ----
                      3XX-RR        3YY-RR        3ZZ-RR
 --------------------------------------------------------
     1   Atom        0.000321      0.007932     -0.008253
     2   Atom       -0.034837     -0.030439      0.065277
     3   Atom       -0.034739     -0.030361      0.065100
     4   Atom       -0.021628     -0.031144      0.052772
     5   Atom       -0.028209     -0.029935      0.058143
     6   Atom        0.009655      0.002254     -0.011909
     7   Atom       -0.028215     -0.029986      0.058201
 --------------------------------------------------------
                        XY            XZ            YZ
 --------------------------------------------------------
     1   Atom       -0.000029      0.001382      0.000031
     2   Atom        0.001828     -0.007223     -0.008007
     3   Atom       -0.001879     -0.007264      0.007955
     4   Atom        0.000032      0.010381      0.000028
     5   Atom        0.002035      0.000980     -0.005494
     6   Atom        0.000028     -0.000198     -0.000021
     7   Atom       -0.002022      0.000931      0.005509
 --------------------------------------------------------


 ---------------------------------------------------------------------------------
              Anisotropic Spin Dipole Couplings in Principal Axis System
 ---------------------------------------------------------------------------------

       Atom             a.u.   MegaHertz   Gauss  10(-4) cm-1        Axes

              Baa    -0.0085    -1.196    -0.427    -0.399 -0.1553 -0.0021  0.9879
     1 Na(23) Bbb     0.0005     0.076     0.027     0.025  0.9879  0.0032  0.1553
              Bcc     0.0079     1.120     0.400     0.374 -0.0035  1.0000  0.0016
 
              Baa    -0.0357    -5.041    -1.799    -1.681  0.9639 -0.2618  0.0482
     2 Na(23) Bbb    -0.0308    -4.347    -1.551    -1.450  0.2562  0.9615  0.0994
              Bcc     0.0665     9.387     3.350     3.131 -0.0724 -0.0835  0.9939
 
              Baa    -0.0356    -5.031    -1.795    -1.678  0.9615  0.2704  0.0480
     3 Na(23) Bbb    -0.0307    -4.331    -1.545    -1.445 -0.2648  0.9591 -0.0997
              Bcc     0.0663     9.362     3.341     3.123 -0.0730  0.0832  0.9939
 
              Baa    -0.0311    -4.398    -1.569    -1.467 -0.0035  1.0000  0.0001
     4 Na(23) Bbb    -0.0230    -3.255    -1.161    -1.086  0.9908  0.0035 -0.1356
              Bcc     0.0542     7.653     2.731     2.553  0.1356  0.0004  0.9908
 
              Baa    -0.0316    -4.459    -1.591    -1.487 -0.5283  0.8471  0.0576
     5 Na(23) Bbb    -0.0269    -3.801    -1.356    -1.268  0.8490  0.5279  0.0243
              Bcc     0.0585     8.260     2.947     2.755  0.0098 -0.0618  0.9980
 
              Baa    -0.0119    -1.682    -0.600    -0.561  0.0092  0.0014  1.0000
     6 Na(23) Bbb     0.0023     0.318     0.114     0.106 -0.0038  1.0000 -0.0014
              Bcc     0.0097     1.364     0.487     0.455  1.0000  0.0038 -0.0092
 
              Baa    -0.0316    -4.463    -1.592    -1.489  0.5231  0.8503 -0.0576
     7 Na(23) Bbb    -0.0269    -3.805    -1.358    -1.269  0.8522 -0.5227  0.0245
              Bcc     0.0586     8.268     2.950     2.758  0.0093  0.0619  0.9980
 

 ---------------------------------------------------------------------------------

 No NMR shielding tensors so no spin-rotation constants.
 Leave Link  601 at Mon Nov 13 20:42:56 2023, MaxMem=  1879048192 cpu:               2.6 elap:               0.2
 (Enter /home/sekinelabo/g16/l701.exe)
 ... and contract with generalized density number  0.
 Compute integral first derivatives.
 Leave Link  701 at Mon Nov 13 20:42:56 2023, MaxMem=  1879048192 cpu:               1.8 elap:               0.1
 (Enter /home/sekinelabo/g16/l702.exe)
 L702 exits ... SP integral derivatives will be done elsewhere.
 Leave Link  702 at Mon Nov 13 20:42:57 2023, MaxMem=  1879048192 cpu:               0.4 elap:               0.0
 (Enter /home/sekinelabo/g16/l703.exe)
 Integral derivatives from FoFJK, PRISM(SPDF).
 Compute integral first derivatives, UseDBF=F ICtDFT=           0.
 Calling FoFJK, ICntrl=      2127 FMM=F ISym2X=0 I1Cent= 0 IOpClX= 1 NMat=1 NMatS=1 NMatT=0.
 FoFJK:  IHMeth= 1 ICntrl=    2127 DoSepK=F KAlg= 0 I1Cent=           0 FoldK=F
 IRaf=         0 NMat=       1 IRICut=       1 DoRegI=T DoRafI=F ISym2E= 0 IDoP0=0 IntGTp=1.
 FoFCou: FMM=F IPFlag=           0 FMFlag=      100000 FMFlg1=         800
         NFxFlg=           0 DoJE=F BraDBF=F KetDBF=F FulRan=T
         wScrn=  0.000000 ICntrl=      2127 IOpCl=  1 I1Cent=           0 NGrid=           0
         NMat0=    1 NMatS0=      1 NMatT0=    0 NMatD0=    1 NMtDS0=    0 NMtDT0=    0
 Symmetry not used in FoFCou.
 Leave Link  703 at Mon Nov 13 20:42:59 2023, MaxMem=  1879048192 cpu:              38.7 elap:               2.5
 (Enter /home/sekinelabo/g16/l716.exe)
 Dipole        = 2.36253499D-02 8.94171802D-04 8.04300453D-02
 ***** Axes restored to original set *****
 -------------------------------------------------------------------
 Center     Atomic                   Forces (Hartrees/Bohr)
 Number     Number              X              Y              Z
 -------------------------------------------------------------------
      1       11           0.000862925    0.000073502   -0.029826455
      2       11          -0.006938617   -0.029785813    0.000181869
      3       11          -0.007014175    0.029672677    0.000154347
      4       11          -0.025633879   -0.000133244    0.002956543
      5       11           0.020424389    0.017217120    0.000704370
      6       11          -0.002302642    0.000022200    0.025116034
      7       11           0.020601999   -0.017066441    0.000713293
 -------------------------------------------------------------------
 Cartesian Forces:  Max     0.029826455 RMS     0.016165363
 Z-matrix is all fixed cartesians, so copy forces.
 Force constants in Cartesian coordinates: 
                1             2             3             4             5 
      1  0.221566D+00
      2 -0.353255D-04  0.228468D+00
      3 -0.739376D-03 -0.370542D-04  0.331780D+00
      4 -0.460742D-01 -0.102056D-01 -0.498834D-02  0.159342D+00
      5 -0.887096D-02 -0.631885D-01 -0.833212D-02  0.181547D-01  0.213901D+00
      6  0.206649D-01  0.516215D-01 -0.575086D-01  0.704554D-03  0.732757D-02
      7 -0.460444D-01  0.103089D-01 -0.513430D-02  0.152946D-01 -0.166849D-02
      8  0.896305D-02 -0.627962D-01  0.836451D-02  0.186917D-02 -0.135673D-01
      9  0.209384D-01 -0.513414D-01 -0.573748D-01  0.200663D-02 -0.121560D-02
     10 -0.320450D-01 -0.774464D-04 -0.161173D-01 -0.506701D-01 -0.127111D-01
     11 -0.609000D-04 -0.150722D-01 -0.495504D-04  0.426067D-01 -0.611519D-01
     12  0.432249D-01  0.965944D-04 -0.429626D-01  0.367099D-02 -0.571412D-02
     13 -0.421371D-01 -0.798008D-02  0.116960D-01  0.588308D-02 -0.141191D-01
     14 -0.806075D-02 -0.381343D-01  0.610147D-02 -0.129434D-01 -0.515683D-03
     15 -0.402381D-01 -0.319933D-01 -0.553309D-01 -0.741712D-03 -0.650171D-03
     16 -0.130497D-01 -0.487331D-05  0.354952D-02 -0.293300D-01 -0.351142D-02
     17 -0.110632D-04 -0.112350D-01  0.308353D-04 -0.751586D-02 -0.409042D-01
     18 -0.331806D-02 -0.279757D-04 -0.632436D-01  0.363165D-02  0.105870D-01
     19 -0.422162D-01  0.799442D-02  0.117338D-01 -0.544455D-01  0.227264D-01
     20  0.807594D-02 -0.380416D-01 -0.607809D-02 -0.319657D-01 -0.345738D-01
     21 -0.405326D-01  0.316816D-01 -0.553598D-01 -0.428376D-02 -0.200259D-02
                6             7             8             9            10 
      6  0.125771D+00
      7  0.198990D-02  0.159317D+00
      8  0.123329D-02 -0.183930D-01  0.213289D+00
      9  0.196916D-01  0.756819D-03 -0.739565D-02  0.125392D+00
     10 -0.397477D-02 -0.505705D-01  0.126996D-01 -0.401663D-02  0.197677D+00
     11 -0.956682D-02 -0.426070D-01 -0.614484D-01  0.957263D-02  0.289182D-03
     12 -0.334581D-01  0.366144D-02  0.577017D-02 -0.333841D-01  0.112413D-03
     13 -0.914865D-03 -0.543519D-01 -0.228654D-01 -0.352995D-04 -0.802480D-02
     14 -0.161567D-02  0.317607D-01 -0.344277D-01  0.653631D-02 -0.754225D-02
     15  0.152148D-01 -0.429280D-02  0.197141D-02 -0.243824D-01  0.328151D-02
     16 -0.184758D-01 -0.293107D-01  0.359311D-02 -0.187287D-01 -0.482538D-01
     17 -0.424466D-01  0.762894D-02 -0.407192D-01  0.422324D-01 -0.102068D-03
     18 -0.451829D-01  0.375661D-02 -0.105896D-01 -0.451311D-01  0.174338D-01
     19  0.617387D-05  0.566599D-02  0.141335D-01 -0.921159D-03 -0.811292D-02
     20 -0.655326D-02  0.129699D-01 -0.330132D-03  0.161132D-02  0.744408D-02
     21 -0.245278D-01 -0.737671D-03  0.645881D-03  0.151884D-01  0.328093D-02
               11            12            13            14            15 
     11  0.137122D+00
     12 -0.365135D-04  0.114473D+00
     13 -0.791456D-02 -0.148051D-02  0.174027D+00
     14  0.110674D-01 -0.465234D-03  0.354093D-01  0.154093D+00
     15  0.346267D-04  0.191256D-01  0.807614D-03 -0.378352D-02  0.113507D+00
     16 -0.866934D-04 -0.476993D-01 -0.435549D-01 -0.111365D-01  0.407896D-01
     17 -0.217063D-01 -0.108953D-03 -0.102142D-01 -0.356924D-01  0.333368D-01
     18  0.612190D-04 -0.429862D-01 -0.104734D-01 -0.569626D-02 -0.496885D-01
     19  0.777328D-02 -0.148988D-02 -0.318419D-01 -0.274871D-01  0.393895D-03
     20  0.111890D-01  0.458054D-03  0.276842D-01 -0.563906D-01  0.108412D-02
     21 -0.155920D-04  0.191922D-01  0.400529D-03 -0.107710D-02 -0.184453D-01
               16            17            18            19            20 
     16  0.207189D+00
     17  0.241911D-04  0.185835D+00
     18 -0.512402D-03 -0.161740D-04  0.295942D+00
     19 -0.436904D-01  0.101901D-01 -0.105182D-01  0.174641D+00
     20  0.111222D-01 -0.355777D-01  0.568177D-02 -0.353306D-01  0.153725D+00
     21  0.410772D-01 -0.330283D-01 -0.497096D-01  0.795348D-03  0.379608D-02
               21 
     21  0.113662D+00
 Leave Link  716 at Mon Nov 13 20:42:59 2023, MaxMem=  1879048192 cpu:               0.5 elap:               0.0
 (Enter /home/sekinelabo/g16/l103.exe)

 GradGradGradGradGradGradGradGradGradGradGradGradGradGradGradGradGradGrad
 Berny optimization.
 Search for a local minimum.
 Step number   1 out of a maximum of    2
 All quantities printed in internal units (Hartrees-Bohrs-Radians)
 Second derivative matrix not updated -- first step.
 ITU=  0
     Eigenvalues ---    0.15611   0.16129   0.17951   0.18388   0.18856
     Eigenvalues ---    0.19503   0.22189   0.26551   0.27531   0.28585
     Eigenvalues ---    0.28828   0.30783   0.33108   0.34179   0.39520
 Quadratic step=4.166D-01 exceeds max=3.000D-01 adjusted using Lamda=-6.603D-02.
 Angle between NR and scaled steps=   2.16 degrees.
 Angle between quadratic step and forces=  10.77 degrees.
 Linear search not attempted -- first point.
 B after Tr=     0.000000   -0.000000   -0.000000
         Rot=    1.000000    0.000000    0.000000   -0.000000 Ang=   0.00 deg.
 Variable       Old X    -DE/DX   Delta X   Delta X   Delta X     New X
                                 (Linear)    (Quad)   (Total)
    X1        5.02033   0.00086   0.00000   0.00322   0.00322   5.02354
    Y1        3.99356   0.00007   0.00000   0.00008   0.00008   3.99364
    Z1        0.00000  -0.02983   0.00000  -0.08137  -0.08137  -0.08137
    X2        3.19108  -0.00694   0.00000  -0.03532  -0.03532   3.15576
    Y2        0.00000  -0.02979   0.00000  -0.12143  -0.12143  -0.12143
    Z2        2.54385   0.00018   0.00000  -0.00358  -0.00358   2.54027
    X3        3.15990  -0.00701   0.00000  -0.03591  -0.03591   3.12398
    Y3        7.97937   0.02967   0.00000   0.12111   0.12111   8.10048
    Z3        2.54381   0.00015   0.00000  -0.00361  -0.00361   2.54021
    X4        0.00000  -0.02563   0.00000  -0.12251  -0.12251  -0.12251
    Y4        3.97931  -0.00013   0.00000  -0.00051  -0.00051   3.97881
    Z4        3.32048   0.00296   0.00000   0.00833   0.00833   3.32881
    X5        8.54021   0.02042   0.00000   0.09592   0.09592   8.63614
    Y5        6.77077   0.01722   0.00000   0.07725   0.07725   6.84802
    Z5        3.01379   0.00070   0.00000   0.00141   0.00141   3.01520
    X6        5.00553  -0.00230   0.00000  -0.00196  -0.00196   5.00357
    Y6        3.99401   0.00002   0.00000   0.00003   0.00003   3.99404
    Z6        6.02640   0.02512   0.00000   0.07740   0.07740   6.10380
    X7        8.55940   0.02060   0.00000   0.09656   0.09656   8.65596
    Y7        1.24203  -0.01707   0.00000  -0.07654  -0.07654   1.16549
    Z7        3.01411   0.00071   0.00000   0.00143   0.00143   3.01554
         Item               Value     Threshold  Converged?
 Maximum Force            0.029826     0.000450     NO 
 RMS     Force            0.016165     0.000300     NO 
 Maximum Displacement     0.122507     0.001800     NO 
 RMS     Displacement     0.065478     0.001200     NO 
 Predicted change in Energy=-1.389089D-02
 GradGradGradGradGradGradGradGradGradGradGradGradGradGradGradGradGradGrad

 Leave Link  103 at Mon Nov 13 20:42:59 2023, MaxMem=  1879048192 cpu:               0.3 elap:               0.0
 (Enter /home/sekinelabo/g16/l9999.exe)
 1\1\GINC-SEKINELABO-XA7R-R37\Force\UB3LYP\6-311+G(d)\Na7(2)\SEKINELABO
 \13-Nov-2023\0\\#P B3LYP/6-311+g(d) force\\Gaussian input prepared by 
 ASE\\0,2\Na,2.6566418654,2.1133020515,0.\Na,1.688644233,0.,1.346144976
 \Na,1.6721454247,4.2225025864,1.3461286044\Na,0.,2.1057625361,1.757122
 8219\Na,4.5192863974,3.5829362555,1.5948312982\Na,2.6488129703,2.11353
 88024,3.1890358213\Na,4.529440505,0.6572565153,1.5949988769\\Version=E
 S64L-G16RevB.01\State=2-A\HF=-1136.0703933\S2=0.757168\S2-1=0.\S2A=0.7
 50036\RMSD=8.191e-09\RMSF=1.617e-02\Dipole=0.0236253,0.0008942,0.08043
 \Quadrupole=4.0966708,-0.3218105,-3.7748602,0.0024683,-0.0777307,-0.00
 15951\PG=C01 [X(Na7)]\\@


 When cryptography is outlawed, bayl bhgynjf jvyy unir cevinpl.
 Job cpu time:       0 days  0 hours  4 minutes  2.9 seconds.
 Elapsed time:       0 days  0 hours  0 minutes 19.5 seconds.
 File lengths (MBytes):  RWF=     32 Int=      0 D2E=      0 Chk=      6 Scr=      1
 Normal termination of Gaussian 16 at Mon Nov 13 20:42:59 2023.
