 Entering Gaussian System, Link 0=g16
 Initial command:
 /home/sekinelabo/g16/l1.exe "/home/sekinelabo/g16temp/Gau-4097566.inp" -scrdir="/home/sekinelabo/g16temp/"
 Entering Link 1 = /home/sekinelabo/g16/l1.exe PID=   4097568.
  
 Copyright (c) 1988-2017, Gaussian, Inc.  All Rights Reserved.
  
 This is part of the Gaussian(R) 16 program.  It is based on
 the Gaussian(R) 09 system (copyright 2009, Gaussian, Inc.),
 the Gaussian(R) 03 system (copyright 2003, Gaussian, Inc.),
 the Gaussian(R) 98 system (copyright 1998, Gaussian, Inc.),
 the Gaussian(R) 94 system (copyright 1995, Gaussian, Inc.),
 the Gaussian 92(TM) system (copyright 1992, Gaussian, Inc.),
 the Gaussian 90(TM) system (copyright 1990, Gaussian, Inc.),
 the Gaussian 88(TM) system (copyright 1988, Gaussian, Inc.),
 the Gaussian 86(TM) system (copyright 1986, Carnegie Mellon
 University), and the Gaussian 82(TM) system (copyright 1983,
 Carnegie Mellon University). Gaussian is a federally registered
 trademark of Gaussian, Inc.
  
 This software contains proprietary and confidential information,
 including trade secrets, belonging to Gaussian, Inc.
  
 This software is provided under written license and may be
 used, copied, transmitted, or stored only in accord with that
 written license.
  
 The following legend is applicable only to US Government
 contracts under FAR:
  
                    RESTRICTED RIGHTS LEGEND
  
 Use, reproduction and disclosure by the US Government is
 subject to restrictions as set forth in subparagraphs (a)
 and (c) of the Commercial Computer Software - Restricted
 Rights clause in FAR 52.227-19.
  
 Gaussian, Inc.
 340 Quinnipiac St., Bldg. 40, Wallingford CT 06492
  
  
 ---------------------------------------------------------------
 Warning -- This program may not be used in any manner that
 competes with the business of Gaussian, Inc. or will provide
 assistance to any competitor of Gaussian, Inc.  The licensee
 of this program is prohibited from giving any competitor of
 Gaussian, Inc. access to this program.  By using this program,
 the user acknowledges that Gaussian, Inc. is engaged in the
 business of creating and licensing software in the field of
 computational chemistry and represents and warrants to the
 licensee that it is not a competitor of Gaussian, Inc. and that
 it will not use this program in any manner prohibited above.
 ---------------------------------------------------------------
  

 Cite this work as:
 Gaussian 16, Revision B.01,
 M. J. Frisch, G. W. Trucks, H. B. Schlegel, G. E. Scuseria, 
 M. A. Robb, J. R. Cheeseman, G. Scalmani, V. Barone, 
 G. A. Petersson, H. Nakatsuji, X. Li, M. Caricato, A. V. Marenich, 
 J. Bloino, B. G. Janesko, R. Gomperts, B. Mennucci, H. P. Hratchian, 
 J. V. Ortiz, A. F. Izmaylov, J. L. Sonnenberg, D. Williams-Young, 
 F. Ding, F. Lipparini, F. Egidi, J. Goings, B. Peng, A. Petrone, 
 T. Henderson, D. Ranasinghe, V. G. Zakrzewski, J. Gao, N. Rega, 
 G. Zheng, W. Liang, M. Hada, M. Ehara, K. Toyota, R. Fukuda, 
 J. Hasegawa, M. Ishida, T. Nakajima, Y. Honda, O. Kitao, H. Nakai, 
 T. Vreven, K. Throssell, J. A. Montgomery, Jr., J. E. Peralta, 
 F. Ogliaro, M. J. Bearpark, J. J. Heyd, E. N. Brothers, K. N. Kudin, 
 V. N. Staroverov, T. A. Keith, R. Kobayashi, J. Normand, 
 K. Raghavachari, A. P. Rendell, J. C. Burant, S. S. Iyengar, 
 J. Tomasi, M. Cossi, J. M. Millam, M. Klene, C. Adamo, R. Cammi, 
 J. W. Ochterski, R. L. Martin, K. Morokuma, O. Farkas, 
 J. B. Foresman, and D. J. Fox, Gaussian, Inc., Wallingford CT, 2016.
 
 ******************************************
 Gaussian 16:  ES64L-G16RevB.01 20-Dec-2017
                13-Nov-2023 
 ******************************************
 %mem=14GB
 %chk=checkpoint.chk
 %nprocshared=16
 Will use up to   16 processors via shared memory.
 -------------------------
 #P B3LYP/6-311+g(d) force
 -------------------------
 1/10=7,30=1,38=1/1,3;
 2/12=2,17=6,18=5,40=1/2;
 3/5=4,6=6,7=11,11=2,25=1,30=1,71=1,74=-5/1,2,3;
 4//1;
 5/5=2,38=5/2;
 6/7=2,8=2,9=2,10=2,28=1/1;
 7/29=1/1,2,3,16;
 1/10=7,30=1/3;
 99//99;
 Leave Link    1 at Mon Nov 13 18:02:52 2023, MaxMem=  1879048192 cpu:               0.9 elap:               0.1
 (Enter /home/sekinelabo/g16/l101.exe)
 ------------------------------
 Gaussian input prepared by ASE
 ------------------------------
 Symbolic Z-matrix:
 Charge =  0 Multiplicity = 2
 Na                    2.23316   0.07245   1.86887 
 Na                    4.19699   1.72253   3.42688 
 Na                    5.15471   0.        1.16789 
 Na                    5.24292   2.99343   0.92741 
 Na                    2.29597   3.04593   1.51677 
 Na                    0.        1.75707   2.95712 
 Na                    0.29878   1.39996   0. 
 
 ITRead=  0  0  0  0  0  0  0
 MicOpt= -1 -1 -1 -1 -1 -1 -1
 NAtoms=      7 NQM=        7 NQMF=       0 NMMI=      0 NMMIF=      0
                NMic=       0 NMicF=      0.
                    Isotopes and Nuclear Properties:
 (Nuclear quadrupole moments (NQMom) in fm**2, nuclear magnetic moments (NMagM)
  in nuclear magnetons)

  Atom         1           2           3           4           5           6           7
 IAtWgt=          23          23          23          23          23          23          23
 AtmWgt=  22.9897697  22.9897697  22.9897697  22.9897697  22.9897697  22.9897697  22.9897697
 NucSpn=           3           3           3           3           3           3           3
 AtZEff=  -0.0000000  -0.0000000  -0.0000000  -0.0000000  -0.0000000  -0.0000000  -0.0000000
 NQMom=   10.4000000  10.4000000  10.4000000  10.4000000  10.4000000  10.4000000  10.4000000
 NMagM=    2.2175200   2.2175200   2.2175200   2.2175200   2.2175200   2.2175200   2.2175200
 AtZNuc=  11.0000000  11.0000000  11.0000000  11.0000000  11.0000000  11.0000000  11.0000000
 Leave Link  101 at Mon Nov 13 18:02:53 2023, MaxMem=  1879048192 cpu:               2.7 elap:               0.2
 (Enter /home/sekinelabo/g16/l103.exe)

 GradGradGradGradGradGradGradGradGradGradGradGradGradGradGradGradGradGrad
 Berny optimization.
 Initialization pass.
 Trust Radius=3.00D-01 FncErr=1.00D-07 GrdErr=1.00D-07 EigMax=2.50D+02 EigMin=1.00D-04
 Number of steps in this run=      2 maximum allowed number of steps=      2.
 GradGradGradGradGradGradGradGradGradGradGradGradGradGradGradGradGradGrad

 Leave Link  103 at Mon Nov 13 18:02:53 2023, MaxMem=  1879048192 cpu:               0.2 elap:               0.0
 (Enter /home/sekinelabo/g16/l202.exe)
                          Input orientation:                          
 ---------------------------------------------------------------------
 Center     Atomic      Atomic             Coordinates (Angstroms)
 Number     Number       Type             X           Y           Z
 ---------------------------------------------------------------------
      1         11           0        2.233161    0.072454    1.868866
      2         11           0        4.196994    1.722526    3.426885
      3         11           0        5.154707    0.000000    1.167892
      4         11           0        5.242917    2.993428    0.927413
      5         11           0        2.295967    3.045929    1.516769
      6         11           0        0.000000    1.757068    2.957122
      7         11           0        0.298781    1.399963    0.000000
 ---------------------------------------------------------------------
                    Distance matrix (angstroms):
                    1          2          3          4          5
     1  Na   0.000000
     2  Na   3.001133   0.000000
     3  Na   3.005336   2.997892   0.000000
     4  Na   4.298494   2.992742   3.004367   0.000000
     5  Na   2.994907   3.002306   4.191872   3.005762   0.000000
     6  Na   3.001539   4.223343   5.732332   5.756430   3.001207
     7  Na   2.999461   5.200351   5.186896   5.276714   2.999758
                    6          7
     6  Na   0.000000
     7  Na   2.993554   0.000000
 Stoichiometry    Na7(2)
 Framework group  C1[X(Na7)]
 Deg. of freedom    15
 Full point group                 C1      NOp   1
 Largest Abelian subgroup         C1      NOp   1
 Largest concise Abelian subgroup C1      NOp   1
                         Standard orientation:                         
 ---------------------------------------------------------------------
 Center     Atomic      Atomic             Coordinates (Angstroms)
 Number     Number       Type             X           Y           Z
 ---------------------------------------------------------------------
      1         11           0        0.541486    1.497741    0.173873
      2         11           0       -1.422347   -0.152330    1.731892
      3         11           0       -2.380060    1.570195   -0.527100
      4         11           0       -2.468270   -1.423233   -0.767579
      5         11           0        0.478679   -1.475733   -0.178223
      6         11           0        2.774647   -0.186873    1.262130
      7         11           0        2.475866    0.170233   -1.694993
 ---------------------------------------------------------------------
 Rotational constants (GHZ):           1.2638387           0.6018480           0.5920448
 Leave Link  202 at Mon Nov 13 18:02:53 2023, MaxMem=  1879048192 cpu:               0.1 elap:               0.0
 (Enter /home/sekinelabo/g16/l301.exe)
 Standard basis: 6-311+G(d) (5D, 7F)
 Ernie: Thresh=  0.10000D-02 Tol=  0.10000D-05 Strict=F.
 There are   217 symmetry adapted cartesian basis functions of A   symmetry.
 There are   210 symmetry adapted basis functions of A   symmetry.
   210 basis functions,   350 primitive gaussians,   217 cartesian basis functions
    39 alpha electrons       38 beta electrons
       nuclear repulsion energy       381.8832653549 Hartrees.
 IExCor=  402 DFT=T Ex+Corr=B3LYP ExCW=0 ScaHFX=  0.200000
 ScaDFX=  0.800000  0.720000  1.000000  0.810000 ScalE2=  1.000000  1.000000
 IRadAn=      5 IRanWt=     -1 IRanGd=            0 ICorTp=0 IEmpDi=  4
 NAtoms=    7 NActive=    7 NUniq=    7 SFac= 1.00D+00 NAtFMM=   60 NAOKFM=F Big=F
 Integral buffers will be    131072 words long.
 Raffenetti 2 integral format.
 Two-electron integral symmetry is turned on.
 Leave Link  301 at Mon Nov 13 18:02:53 2023, MaxMem=  1879048192 cpu:               0.5 elap:               0.0
 (Enter /home/sekinelabo/g16/l302.exe)
 NPDir=0 NMtPBC=     1 NCelOv=     1 NCel=       1 NClECP=     1 NCelD=      1
         NCelK=      1 NCelE2=     1 NClLst=     1 CellRange=     0.0.
 One-electron integrals computed using PRISM.
 One-electron integral symmetry used in STVInt
 NBasis=   210 RedAO= T EigKep=  2.39D-06  NBF=   210
 NBsUse=   210 1.00D-06 EigRej= -1.00D+00 NBFU=   210
 Precomputing XC quadrature grid using
 IXCGrd= 4 IRadAn=           5 IRanWt=          -1 IRanGd=           0 AccXCQ= 0.00D+00.
 Generated NRdTot=       0 NPtTot=           0 NUsed=           0 NTot=          32
 NSgBfM=   210   210   210   210   210 MxSgAt=     7 MxSgA2=     7.
 Leave Link  302 at Mon Nov 13 18:02:53 2023, MaxMem=  1879048192 cpu:               2.2 elap:               0.1
 (Enter /home/sekinelabo/g16/l303.exe)
 DipDrv:  MaxL=1.
 Leave Link  303 at Mon Nov 13 18:02:53 2023, MaxMem=  1879048192 cpu:               0.6 elap:               0.0
 (Enter /home/sekinelabo/g16/l401.exe)
 ExpMin= 7.60D-03 ExpMax= 3.62D+04 ExpMxC= 1.21D+03 IAcc=3 IRadAn=         5 AccDes= 0.00D+00
 Harris functional with IExCor=  402 and IRadAn=       5 diagonalized for initial guess.
 HarFok:  IExCor=  402 AccDes= 0.00D+00 IRadAn=         5 IDoV= 1 UseB2=F ITyADJ=14
 ICtDFT=  3500011 ScaDFX=  1.000000  1.000000  1.000000  1.000000
 FoFCou: FMM=F IPFlag=           0 FMFlag=      100000 FMFlg1=           0
         NFxFlg=           0 DoJE=T BraDBF=F KetDBF=T FulRan=T
         wScrn=  0.000000 ICntrl=       500 IOpCl=  0 I1Cent=   200000004 NGrid=           0
         NMat0=    1 NMatS0=      1 NMatT0=    0 NMatD0=    1 NMtDS0=    0 NMtDT0=    0
 Petite list used in FoFCou.
 Harris En= -1135.86825174194    
 JPrj=0 DoOrth=F DoCkMO=F.
 Initial guess <Sx>= 0.0000 <Sy>= 0.0000 <Sz>= 0.5000 <S**2>= 0.7500 S= 0.5000
 Leave Link  401 at Mon Nov 13 18:02:53 2023, MaxMem=  1879048192 cpu:               4.8 elap:               0.3
 (Enter /home/sekinelabo/g16/l502.exe)
 Keep R1 and R2 ints in memory in canonical form, NReq=507620374.
 FoFCou: FMM=F IPFlag=           0 FMFlag=           0 FMFlg1=           0
         NFxFlg=           0 DoJE=F BraDBF=F KetDBF=F FulRan=T
         wScrn=  0.000000 ICntrl=       600 IOpCl=  0 I1Cent=           0 NGrid=           0
         NMat0=    1 NMatS0=  22155 NMatT0=    0 NMatD0=    1 NMtDS0=    0 NMtDT0=    0
 Symmetry not used in FoFCou.
 Two-electron integral symmetry not used.
 UHF open shell SCF:
 Using DIIS extrapolation, IDIIS=  1040.
 NGot=  1879048192 LenX=  1388082362 LenY=  1388034832
 Requested convergence on RMS density matrix=1.00D-08 within 128 cycles.
 Requested convergence on MAX density matrix=1.00D-06.
 Requested convergence on             energy=1.00D-06.
 No special actions if energy rises.

 Cycle   1  Pass 1  IDiag  1:
 E= -1136.04907203979    
 DIIS: error= 1.44D-02 at cycle   1 NSaved=   1.
 NSaved= 1 IEnMin= 1 EnMin= -1136.04907203979     IErMin= 1 ErrMin= 1.44D-02
 ErrMax= 1.44D-02  0.00D+00 EMaxC= 1.00D-01 BMatC= 2.05D-01 BMatP= 2.05D-01
 IDIUse=3 WtCom= 8.56D-01 WtEn= 1.44D-01
 Coeff-Com:  0.100D+01
 Coeff-En:   0.100D+01
 Coeff:      0.100D+01
 Gap=     0.041 Goal=   None    Shift=    0.000
 Gap=     0.028 Goal=   None    Shift=    0.000
 GapD=    0.028 DampG=0.250 DampE=0.500 DampFc=0.2500 IDamp=-1.
 Damping current iteration by 2.50D-01
 RMSDP=4.62D-02 MaxDP=4.23D+00              OVMax= 2.79D-01

 Cycle   2  Pass 1  IDiag  1:
 E= -1136.06480461716     Delta-E=       -0.015732577371 Rises=F Damp=T
 DIIS: error= 1.01D-02 at cycle   2 NSaved=   2.
 NSaved= 2 IEnMin= 2 EnMin= -1136.06480461716     IErMin= 2 ErrMin= 1.01D-02
 ErrMax= 1.01D-02  0.00D+00 EMaxC= 1.00D-01 BMatC= 7.68D-02 BMatP= 2.05D-01
 IDIUse=3 WtCom= 8.99D-01 WtEn= 1.01D-01
 Coeff-Com: -0.123D+01 0.223D+01
 Coeff-En:   0.000D+00 0.100D+01
 Coeff:     -0.111D+01 0.211D+01
 Gap=     0.048 Goal=   None    Shift=    0.000
 Gap=     0.037 Goal=   None    Shift=    0.000
 RMSDP=2.15D-02 MaxDP=1.69D+00 DE=-1.57D-02 OVMax= 2.04D-01

 Cycle   3  Pass 1  IDiag  1:
 E= -1136.08973679259     Delta-E=       -0.024932175427 Rises=F Damp=F
 DIIS: error= 4.08D-03 at cycle   3 NSaved=   3.
 NSaved= 3 IEnMin= 3 EnMin= -1136.08973679259     IErMin= 3 ErrMin= 4.08D-03
 ErrMax= 4.08D-03  0.00D+00 EMaxC= 1.00D-01 BMatC= 5.90D-03 BMatP= 7.68D-02
 IDIUse=3 WtCom= 9.59D-01 WtEn= 4.08D-02
 Coeff-Com: -0.332D+00 0.601D+00 0.732D+00
 Coeff-En:   0.000D+00 0.000D+00 0.100D+01
 Coeff:     -0.319D+00 0.576D+00 0.743D+00
 Gap=     0.042 Goal=   None    Shift=    0.000
 Gap=     0.030 Goal=   None    Shift=    0.000
 RMSDP=1.04D-02 MaxDP=8.49D-01 DE=-2.49D-02 OVMax= 9.91D-02

 Cycle   4  Pass 1  IDiag  1:
 E= -1136.09010128956     Delta-E=       -0.000364496974 Rises=F Damp=F
 DIIS: error= 3.65D-03 at cycle   4 NSaved=   4.
 NSaved= 4 IEnMin= 4 EnMin= -1136.09010128956     IErMin= 4 ErrMin= 3.65D-03
 ErrMax= 3.65D-03  0.00D+00 EMaxC= 1.00D-01 BMatC= 4.34D-03 BMatP= 5.90D-03
 IDIUse=3 WtCom= 9.63D-01 WtEn= 3.65D-02
 Coeff-Com: -0.790D-02 0.166D-01 0.459D+00 0.533D+00
 Coeff-En:   0.000D+00 0.000D+00 0.480D+00 0.520D+00
 Coeff:     -0.761D-02 0.160D-01 0.459D+00 0.532D+00
 Gap=     0.045 Goal=   None    Shift=    0.000
 Gap=     0.032 Goal=   None    Shift=    0.000
 RMSDP=3.84D-03 MaxDP=2.25D-01 DE=-3.64D-04 OVMax= 7.12D-02

 Cycle   5  Pass 1  IDiag  1:
 E= -1136.09310169325     Delta-E=       -0.003000403684 Rises=F Damp=F
 DIIS: error= 1.73D-03 at cycle   5 NSaved=   5.
 NSaved= 5 IEnMin= 5 EnMin= -1136.09310169325     IErMin= 5 ErrMin= 1.73D-03
 ErrMax= 1.73D-03  0.00D+00 EMaxC= 1.00D-01 BMatC= 5.69D-04 BMatP= 4.34D-03
 IDIUse=3 WtCom= 9.83D-01 WtEn= 1.73D-02
 Coeff-Com:  0.215D-02-0.331D-02 0.295D+00 0.371D+00 0.335D+00
 Coeff-En:   0.000D+00 0.000D+00 0.000D+00 0.138D+00 0.862D+00
 Coeff:      0.211D-02-0.326D-02 0.290D+00 0.367D+00 0.344D+00
 Gap=     0.044 Goal=   None    Shift=    0.000
 Gap=     0.031 Goal=   None    Shift=    0.000
 RMSDP=1.55D-03 MaxDP=8.35D-02 DE=-3.00D-03 OVMax= 2.63D-02

 Cycle   6  Pass 1  IDiag  1:
 E= -1136.09375012711     Delta-E=       -0.000648433858 Rises=F Damp=F
 DIIS: error= 2.10D-04 at cycle   6 NSaved=   6.
 NSaved= 6 IEnMin= 6 EnMin= -1136.09375012711     IErMin= 6 ErrMin= 2.10D-04
 ErrMax= 2.10D-04  0.00D+00 EMaxC= 1.00D-01 BMatC= 9.90D-06 BMatP= 5.69D-04
 IDIUse=3 WtCom= 9.98D-01 WtEn= 2.10D-03
 Coeff-Com: -0.131D-02 0.110D-02 0.566D-01 0.762D-01 0.130D+00 0.738D+00
 Coeff-En:   0.000D+00 0.000D+00 0.000D+00 0.000D+00 0.000D+00 0.100D+01
 Coeff:     -0.130D-02 0.110D-02 0.565D-01 0.761D-01 0.129D+00 0.738D+00
 Gap=     0.045 Goal=   None    Shift=    0.000
 Gap=     0.031 Goal=   None    Shift=    0.000
 RMSDP=9.38D-04 MaxDP=1.07D-01 DE=-6.48D-04 OVMax= 5.77D-03

 Cycle   7  Pass 1  IDiag  1:
 E= -1136.09376031659     Delta-E=       -0.000010189483 Rises=F Damp=F
 DIIS: error= 1.09D-04 at cycle   7 NSaved=   7.
 NSaved= 7 IEnMin= 7 EnMin= -1136.09376031659     IErMin= 7 ErrMin= 1.09D-04
 ErrMax= 1.09D-04  0.00D+00 EMaxC= 1.00D-01 BMatC= 4.47D-06 BMatP= 9.90D-06
 IDIUse=3 WtCom= 9.99D-01 WtEn= 1.09D-03
 Coeff-Com: -0.186D-02 0.219D-02-0.402D-01-0.476D-01-0.328D-02 0.476D+00
 Coeff-Com:  0.615D+00
 Coeff-En:   0.000D+00 0.000D+00 0.000D+00 0.000D+00 0.000D+00 0.114D+00
 Coeff-En:   0.886D+00
 Coeff:     -0.186D-02 0.219D-02-0.402D-01-0.475D-01-0.328D-02 0.476D+00
 Coeff:      0.615D+00
 Gap=     0.044 Goal=   None    Shift=    0.000
 Gap=     0.031 Goal=   None    Shift=    0.000
 RMSDP=4.95D-04 MaxDP=5.80D-02 DE=-1.02D-05 OVMax= 3.44D-03

 Cycle   8  Pass 1  IDiag  1:
 E= -1136.09376652882     Delta-E=       -0.000006212229 Rises=F Damp=F
 DIIS: error= 3.50D-05 at cycle   8 NSaved=   8.
 NSaved= 8 IEnMin= 8 EnMin= -1136.09376652882     IErMin= 8 ErrMin= 3.50D-05
 ErrMax= 3.50D-05  0.00D+00 EMaxC= 1.00D-01 BMatC= 2.15D-07 BMatP= 4.47D-06
 IDIUse=1 WtCom= 1.00D+00 WtEn= 0.00D+00
 Coeff-Com:  0.512D-03-0.655D-03-0.778D-02-0.968D-02-0.183D-01-0.139D+00
 Coeff-Com:  0.559D-02 0.117D+01
 Coeff:      0.512D-03-0.655D-03-0.778D-02-0.968D-02-0.183D-01-0.139D+00
 Coeff:      0.559D-02 0.117D+01
 Gap=     0.044 Goal=   None    Shift=    0.000
 Gap=     0.031 Goal=   None    Shift=    0.000
 RMSDP=2.10D-04 MaxDP=2.26D-02 DE=-6.21D-06 OVMax= 2.19D-03

 Cycle   9  Pass 1  IDiag  1:
 E= -1136.09376767846     Delta-E=       -0.000001149647 Rises=F Damp=F
 DIIS: error= 2.28D-05 at cycle   9 NSaved=   9.
 NSaved= 9 IEnMin= 9 EnMin= -1136.09376767846     IErMin= 9 ErrMin= 2.28D-05
 ErrMax= 2.28D-05  0.00D+00 EMaxC= 1.00D-01 BMatC= 4.67D-08 BMatP= 2.15D-07
 IDIUse=1 WtCom= 1.00D+00 WtEn= 0.00D+00
 Coeff-Com:  0.521D-03-0.653D-03 0.288D-02 0.360D-02-0.577D-02-0.677D-01
 Coeff-Com: -0.667D-01 0.114D+00 0.102D+01
 Coeff:      0.521D-03-0.653D-03 0.288D-02 0.360D-02-0.577D-02-0.677D-01
 Coeff:     -0.667D-01 0.114D+00 0.102D+01
 Gap=     0.044 Goal=   None    Shift=    0.000
 Gap=     0.031 Goal=   None    Shift=    0.000
 RMSDP=1.33D-04 MaxDP=1.54D-02 DE=-1.15D-06 OVMax= 1.04D-03

 Cycle  10  Pass 1  IDiag  1:
 E= -1136.09376795803     Delta-E=       -0.000000279570 Rises=F Damp=F
 DIIS: error= 1.24D-05 at cycle  10 NSaved=  10.
 NSaved=10 IEnMin=10 EnMin= -1136.09376795803     IErMin=10 ErrMin= 1.24D-05
 ErrMax= 1.24D-05  0.00D+00 EMaxC= 1.00D-01 BMatC= 1.52D-08 BMatP= 4.67D-08
 IDIUse=1 WtCom= 1.00D+00 WtEn= 0.00D+00
 Coeff-Com:  0.675D-04-0.747D-04 0.313D-02 0.369D-02 0.234D-02-0.383D-02
 Coeff-Com: -0.258D-01-0.186D+00 0.304D+00 0.902D+00
 Coeff:      0.675D-04-0.747D-04 0.313D-02 0.369D-02 0.234D-02-0.383D-02
 Coeff:     -0.258D-01-0.186D+00 0.304D+00 0.902D+00
 Gap=     0.044 Goal=   None    Shift=    0.000
 Gap=     0.031 Goal=   None    Shift=    0.000
 RMSDP=7.95D-05 MaxDP=8.50D-03 DE=-2.80D-07 OVMax= 6.79D-04

 Cycle  11  Pass 1  IDiag  1:
 E= -1136.09376804965     Delta-E=       -0.000000091613 Rises=F Damp=F
 DIIS: error= 6.27D-06 at cycle  11 NSaved=  11.
 NSaved=11 IEnMin=11 EnMin= -1136.09376804965     IErMin=11 ErrMin= 6.27D-06
 ErrMax= 6.27D-06  0.00D+00 EMaxC= 1.00D-01 BMatC= 4.21D-09 BMatP= 1.52D-08
 IDIUse=1 WtCom= 1.00D+00 WtEn= 0.00D+00
 Coeff-Com: -0.214D-03 0.277D-03 0.329D-04-0.757D-04 0.314D-02 0.268D-01
 Coeff-Com:  0.169D-01-0.124D+00-0.226D+00 0.186D+00 0.112D+01
 Coeff:     -0.214D-03 0.277D-03 0.329D-04-0.757D-04 0.314D-02 0.268D-01
 Coeff:      0.169D-01-0.124D+00-0.226D+00 0.186D+00 0.112D+01
 Gap=     0.044 Goal=   None    Shift=    0.000
 Gap=     0.032 Goal=   None    Shift=    0.000
 RMSDP=6.60D-05 MaxDP=6.79D-03 DE=-9.16D-08 OVMax= 5.65D-04

 Cycle  12  Pass 1  IDiag  1:
 E= -1136.09376808692     Delta-E=       -0.000000037269 Rises=F Damp=F
 DIIS: error= 2.86D-06 at cycle  12 NSaved=  12.
 NSaved=12 IEnMin=12 EnMin= -1136.09376808692     IErMin=12 ErrMin= 2.86D-06
 ErrMax= 2.86D-06  0.00D+00 EMaxC= 1.00D-01 BMatC= 1.72D-09 BMatP= 4.21D-09
 IDIUse=1 WtCom= 1.00D+00 WtEn= 0.00D+00
 Coeff-Com: -0.124D-03 0.158D-03-0.445D-03-0.589D-03 0.129D-02 0.153D-01
 Coeff-Com:  0.128D-01-0.369D-01-0.171D+00-0.518D-01 0.569D+00 0.661D+00
 Coeff:     -0.124D-03 0.158D-03-0.445D-03-0.589D-03 0.129D-02 0.153D-01
 Coeff:      0.128D-01-0.369D-01-0.171D+00-0.518D-01 0.569D+00 0.661D+00
 Gap=     0.044 Goal=   None    Shift=    0.000
 Gap=     0.032 Goal=   None    Shift=    0.000
 RMSDP=1.88D-05 MaxDP=2.04D-03 DE=-3.73D-08 OVMax= 1.98D-04

 Cycle  13  Pass 1  IDiag  1:
 E= -1136.09376809356     Delta-E=       -0.000000006647 Rises=F Damp=F
 DIIS: error= 1.60D-06 at cycle  13 NSaved=  13.
 NSaved=13 IEnMin=13 EnMin= -1136.09376809356     IErMin=13 ErrMin= 1.60D-06
 ErrMax= 1.60D-06  0.00D+00 EMaxC= 1.00D-01 BMatC= 5.10D-10 BMatP= 1.72D-09
 IDIUse=1 WtCom= 1.00D+00 WtEn= 0.00D+00
 Coeff-Com:  0.355D-04-0.479D-04-0.212D-03-0.225D-03-0.720D-03-0.447D-02
 Coeff-Com: -0.154D-02 0.405D-01 0.202D-02-0.102D+00-0.217D+00 0.349D+00
 Coeff-Com:  0.934D+00
 Coeff:      0.355D-04-0.479D-04-0.212D-03-0.225D-03-0.720D-03-0.447D-02
 Coeff:     -0.154D-02 0.405D-01 0.202D-02-0.102D+00-0.217D+00 0.349D+00
 Coeff:      0.934D+00
 Gap=     0.044 Goal=   None    Shift=    0.000
 Gap=     0.032 Goal=   None    Shift=    0.000
 RMSDP=1.19D-05 MaxDP=1.38D-03 DE=-6.65D-09 OVMax= 1.74D-04

 Cycle  14  Pass 1  IDiag  1:
 E= -1136.09376809658     Delta-E=       -0.000000003018 Rises=F Damp=F
 DIIS: error= 5.47D-07 at cycle  14 NSaved=  14.
 NSaved=14 IEnMin=14 EnMin= -1136.09376809658     IErMin=14 ErrMin= 5.47D-07
 ErrMax= 5.47D-07  0.00D+00 EMaxC= 1.00D-01 BMatC= 6.27D-11 BMatP= 5.10D-10
 IDIUse=1 WtCom= 1.00D+00 WtEn= 0.00D+00
 Coeff-Com:  0.226D-04-0.290D-04 0.477D-04 0.938D-04-0.214D-03-0.292D-02
 Coeff-Com: -0.289D-02 0.682D-02 0.366D-01 0.205D-01-0.107D+00-0.166D+00
 Coeff-Com: -0.764D-01 0.129D+01
 Coeff:      0.226D-04-0.290D-04 0.477D-04 0.938D-04-0.214D-03-0.292D-02
 Coeff:     -0.289D-02 0.682D-02 0.366D-01 0.205D-01-0.107D+00-0.166D+00
 Coeff:     -0.764D-01 0.129D+01
 Gap=     0.044 Goal=   None    Shift=    0.000
 Gap=     0.032 Goal=   None    Shift=    0.000
 RMSDP=6.76D-06 MaxDP=1.02D-03 DE=-3.02D-09 OVMax= 1.01D-04

 Cycle  15  Pass 1  IDiag  1:
 E= -1136.09376809734     Delta-E=       -0.000000000759 Rises=F Damp=F
 DIIS: error= 3.62D-07 at cycle  15 NSaved=  15.
 NSaved=15 IEnMin=15 EnMin= -1136.09376809734     IErMin=15 ErrMin= 3.62D-07
 ErrMax= 3.62D-07  0.00D+00 EMaxC= 1.00D-01 BMatC= 1.61D-11 BMatP= 6.27D-11
 IDIUse=1 WtCom= 1.00D+00 WtEn= 0.00D+00
 Coeff-Com: -0.121D-04 0.161D-04 0.279D-04 0.627D-05 0.187D-03 0.151D-02
 Coeff-Com:  0.851D-03-0.721D-02-0.123D-01 0.403D-02 0.736D-01-0.214D-02
 Coeff-Com: -0.134D+00-0.394D+00 0.147D+01
 Coeff:     -0.121D-04 0.161D-04 0.279D-04 0.627D-05 0.187D-03 0.151D-02
 Coeff:      0.851D-03-0.721D-02-0.123D-01 0.403D-02 0.736D-01-0.214D-02
 Coeff:     -0.134D+00-0.394D+00 0.147D+01
 Gap=     0.044 Goal=   None    Shift=    0.000
 Gap=     0.032 Goal=   None    Shift=    0.000
 RMSDP=3.76D-06 MaxDP=5.64D-04 DE=-7.59D-10 OVMax= 7.56D-05

 Cycle  16  Pass 1  IDiag  1:
 E= -1136.09376809760     Delta-E=       -0.000000000256 Rises=F Damp=F
 DIIS: error= 2.83D-07 at cycle  16 NSaved=  16.
 NSaved=16 IEnMin=16 EnMin= -1136.09376809760     IErMin=16 ErrMin= 2.83D-07
 ErrMax= 2.83D-07  0.00D+00 EMaxC= 1.00D-01 BMatC= 7.28D-12 BMatP= 1.61D-11
 IDIUse=1 WtCom= 1.00D+00 WtEn= 0.00D+00
 Coeff-Com: -0.428D-05 0.549D-05 0.170D-05-0.111D-04 0.691D-04 0.635D-03
 Coeff-Com:  0.538D-03-0.187D-02-0.701D-02-0.351D-02 0.190D-01 0.378D-01
 Coeff-Com:  0.266D-01-0.320D+00 0.899D-01 0.116D+01
 Coeff:     -0.428D-05 0.549D-05 0.170D-05-0.111D-04 0.691D-04 0.635D-03
 Coeff:      0.538D-03-0.187D-02-0.701D-02-0.351D-02 0.190D-01 0.378D-01
 Coeff:      0.266D-01-0.320D+00 0.899D-01 0.116D+01
 Gap=     0.044 Goal=   None    Shift=    0.000
 Gap=     0.032 Goal=   None    Shift=    0.000
 RMSDP=2.30D-06 MaxDP=3.17D-04 DE=-2.56D-10 OVMax= 5.19D-05

 Cycle  17  Pass 1  IDiag  1:
 E= -1136.09376809771     Delta-E=       -0.000000000118 Rises=F Damp=F
 DIIS: error= 2.27D-07 at cycle  17 NSaved=  17.
 NSaved=17 IEnMin=17 EnMin= -1136.09376809771     IErMin=17 ErrMin= 2.27D-07
 ErrMax= 2.27D-07  0.00D+00 EMaxC= 1.00D-01 BMatC= 4.26D-12 BMatP= 7.28D-12
 IDIUse=1 WtCom= 1.00D+00 WtEn= 0.00D+00
 Coeff-Com:  0.428D-05-0.580D-05-0.141D-04-0.209D-05-0.777D-04-0.471D-03
 Coeff-Com: -0.237D-03 0.234D-02 0.470D-02-0.150D-02-0.297D-01 0.589D-02
 Coeff-Com:  0.655D-01 0.125D+00-0.714D+00 0.238D+00 0.130D+01
 Coeff:      0.428D-05-0.580D-05-0.141D-04-0.209D-05-0.777D-04-0.471D-03
 Coeff:     -0.237D-03 0.234D-02 0.470D-02-0.150D-02-0.297D-01 0.589D-02
 Coeff:      0.655D-01 0.125D+00-0.714D+00 0.238D+00 0.130D+01
 Gap=     0.044 Goal=   None    Shift=    0.000
 Gap=     0.032 Goal=   None    Shift=    0.000
 RMSDP=2.58D-06 MaxDP=3.49D-04 DE=-1.18D-10 OVMax= 5.98D-05

 Cycle  18  Pass 1  IDiag  1:
 E= -1136.09376809781     Delta-E=       -0.000000000100 Rises=F Damp=F
 DIIS: error= 1.62D-07 at cycle  18 NSaved=  18.
 NSaved=18 IEnMin=18 EnMin= -1136.09376809781     IErMin=18 ErrMin= 1.62D-07
 ErrMax= 1.62D-07  0.00D+00 EMaxC= 1.00D-01 BMatC= 2.09D-12 BMatP= 4.26D-12
 IDIUse=1 WtCom= 1.00D+00 WtEn= 0.00D+00
 Coeff-Com: -0.874D-07 0.438D-06 0.745D-05 0.562D-05 0.125D-04-0.129D-03
 Coeff-Com: -0.119D-03-0.734D-03 0.199D-02 0.358D-02 0.130D-01-0.407D-01
 Coeff-Com: -0.862D-01 0.179D+00 0.501D+00-0.101D+01-0.126D+01 0.270D+01
 Coeff:     -0.874D-07 0.438D-06 0.745D-05 0.562D-05 0.125D-04-0.129D-03
 Coeff:     -0.119D-03-0.734D-03 0.199D-02 0.358D-02 0.130D-01-0.407D-01
 Coeff:     -0.862D-01 0.179D+00 0.501D+00-0.101D+01-0.126D+01 0.270D+01
 Gap=     0.044 Goal=   None    Shift=    0.000
 Gap=     0.032 Goal=   None    Shift=    0.000
 RMSDP=3.95D-06 MaxDP=5.17D-04 DE=-1.00D-10 OVMax= 9.39D-05

 Cycle  19  Pass 1  IDiag  1:
 E= -1136.09376809792     Delta-E=       -0.000000000106 Rises=F Damp=F
 DIIS: error= 6.12D-08 at cycle  19 NSaved=  19.
 NSaved=19 IEnMin=19 EnMin= -1136.09376809792     IErMin=19 ErrMin= 6.12D-08
 ErrMax= 6.12D-08  0.00D+00 EMaxC= 1.00D-01 BMatC= 4.30D-13 BMatP= 2.09D-12
 IDIUse=1 WtCom= 1.00D+00 WtEn= 0.00D+00
 Coeff-Com: -0.324D-05 0.426D-05 0.450D-05-0.811D-07 0.411D-04 0.368D-03
 Coeff-Com:  0.151D-03-0.132D-02-0.369D-02 0.125D-02 0.129D-01 0.700D-02
 Coeff-Com: -0.101D-01-0.114D+00 0.217D+00 0.108D+00-0.126D+00-0.768D+00
 Coeff-Com:  0.168D+01
 Coeff:     -0.324D-05 0.426D-05 0.450D-05-0.811D-07 0.411D-04 0.368D-03
 Coeff:      0.151D-03-0.132D-02-0.369D-02 0.125D-02 0.129D-01 0.700D-02
 Coeff:     -0.101D-01-0.114D+00 0.217D+00 0.108D+00-0.126D+00-0.768D+00
 Coeff:      0.168D+01
 Gap=     0.044 Goal=   None    Shift=    0.000
 Gap=     0.032 Goal=   None    Shift=    0.000
 RMSDP=1.96D-06 MaxDP=2.71D-04 DE=-1.06D-10 OVMax= 4.71D-05

 Cycle  20  Pass 1  IDiag  1:
 E= -1136.09376809793     Delta-E=       -0.000000000010 Rises=F Damp=F
 DIIS: error= 1.53D-08 at cycle  20 NSaved=  20.
 NSaved=20 IEnMin=20 EnMin= -1136.09376809793     IErMin=20 ErrMin= 1.53D-08
 ErrMax= 1.53D-08  0.00D+00 EMaxC= 1.00D-01 BMatC= 4.87D-14 BMatP= 4.30D-13
 IDIUse=1 WtCom= 1.00D+00 WtEn= 0.00D+00
 Coeff-Com:  0.313D-06-0.462D-06 0.594D-08-0.229D-07-0.245D-05-0.140D-04
 Coeff-Com: -0.911D-05 0.251D-03-0.118D-03-0.723D-03-0.291D-02 0.668D-02
 Coeff-Com:  0.153D-01-0.281D-01-0.801D-01 0.164D+00 0.217D+00-0.517D+00
 Coeff-Com:  0.176D+00 0.105D+01
 Coeff:      0.313D-06-0.462D-06 0.594D-08-0.229D-07-0.245D-05-0.140D-04
 Coeff:     -0.911D-05 0.251D-03-0.118D-03-0.723D-03-0.291D-02 0.668D-02
 Coeff:      0.153D-01-0.281D-01-0.801D-01 0.164D+00 0.217D+00-0.517D+00
 Coeff:      0.176D+00 0.105D+01
 Gap=     0.044 Goal=   None    Shift=    0.000
 Gap=     0.032 Goal=   None    Shift=    0.000
 RMSDP=3.52D-07 MaxDP=4.81D-05 DE=-1.00D-11 OVMax= 8.53D-06

 Cycle  21  Pass 1  IDiag  1:
 E= -1136.09376809794     Delta-E=       -0.000000000011 Rises=F Damp=F
 DIIS: error= 4.38D-09 at cycle  21 NSaved=  20.
 NSaved=20 IEnMin=20 EnMin= -1136.09376809794     IErMin=20 ErrMin= 4.38D-09
 ErrMax= 4.38D-09  0.00D+00 EMaxC= 1.00D-01 BMatC= 5.86D-15 BMatP= 4.87D-14
 IDIUse=1 WtCom= 1.00D+00 WtEn= 0.00D+00
 Coeff-Com:  0.168D-07-0.155D-05-0.164D-05-0.133D-05-0.731D-05 0.132D-04
 Coeff-Com:  0.577D-04 0.103D-03-0.165D-03-0.312D-03-0.561D-04 0.354D-03
 Coeff-Com:  0.378D-02-0.115D-01-0.560D-02-0.696D-02 0.995D-01-0.192D+00
 Coeff-Com: -0.337D-01 0.115D+01
 Coeff:      0.168D-07-0.155D-05-0.164D-05-0.133D-05-0.731D-05 0.132D-04
 Coeff:      0.577D-04 0.103D-03-0.165D-03-0.312D-03-0.561D-04 0.354D-03
 Coeff:      0.378D-02-0.115D-01-0.560D-02-0.696D-02 0.995D-01-0.192D+00
 Coeff:     -0.337D-01 0.115D+01
 Gap=     0.044 Goal=   None    Shift=    0.000
 Gap=     0.032 Goal=   None    Shift=    0.000
 RMSDP=6.48D-08 MaxDP=7.71D-06 DE=-1.09D-11 OVMax= 1.41D-06

 Cycle  22  Pass 1  IDiag  1:
 E= -1136.09376809794     Delta-E=        0.000000000002 Rises=F Damp=F
 DIIS: error= 2.54D-09 at cycle  22 NSaved=  20.
 NSaved=20 IEnMin=19 EnMin= -1136.09376809794     IErMin=20 ErrMin= 2.54D-09
 ErrMax= 2.54D-09  0.00D+00 EMaxC= 1.00D-01 BMatC= 1.50D-15 BMatP= 5.86D-15
 IDIUse=1 WtCom= 1.00D+00 WtEn= 0.00D+00
 Large coefficients: NSaved= 20 BigCof=    0.00 CofMax=   10.00 Det=-1.99D-15
 Inversion failed.  Reducing to 19 matrices.
 Large coefficients: NSaved= 19 BigCof=    0.00 CofMax=   10.00 Det=-2.10D-15
 Inversion failed.  Reducing to 18 matrices.
 Large coefficients: NSaved= 18 BigCof=    0.00 CofMax=   10.00 Det=-2.11D-15
 Inversion failed.  Reducing to 17 matrices.
 Large coefficients: NSaved= 17 BigCof=    0.00 CofMax=   10.00 Det=-2.22D-15
 Inversion failed.  Reducing to 16 matrices.
 Large coefficients: NSaved= 16 BigCof=    0.00 CofMax=   10.00 Det=-2.61D-15
 Inversion failed.  Reducing to 15 matrices.
 Coeff-Com: -0.915D-06-0.697D-05 0.347D-06 0.282D-03-0.497D-03-0.123D-02
 Coeff-Com:  0.214D-02 0.727D-02-0.145D-01-0.267D-01 0.668D-01-0.422D-01
 Coeff-Com: -0.135D+00 0.183D+00 0.960D+00
 Coeff:     -0.915D-06-0.697D-05 0.347D-06 0.282D-03-0.497D-03-0.123D-02
 Coeff:      0.214D-02 0.727D-02-0.145D-01-0.267D-01 0.668D-01-0.422D-01
 Coeff:     -0.135D+00 0.183D+00 0.960D+00
 Gap=     0.044 Goal=   None    Shift=    0.000
 Gap=     0.032 Goal=   None    Shift=    0.000
 RMSDP=1.66D-08 MaxDP=1.65D-06 DE= 1.82D-12 OVMax= 3.13D-07

 Cycle  23  Pass 1  IDiag  1:
 E= -1136.09376809793     Delta-E=        0.000000000008 Rises=F Damp=F
 DIIS: error= 1.48D-09 at cycle  23 NSaved=  16.
 NSaved=16 IEnMin=14 EnMin= -1136.09376809794     IErMin=16 ErrMin= 1.48D-09
 ErrMax= 1.48D-09  0.00D+00 EMaxC= 1.00D-01 BMatC= 5.63D-16 BMatP= 1.50D-15
 IDIUse=1 WtCom= 1.00D+00 WtEn= 0.00D+00
 Large coefficients: NSaved= 16 BigCof=    0.00 CofMax=   10.00 Det=-8.61D-16
 Inversion failed.  Reducing to 15 matrices.
 Coeff-Com: -0.175D-04 0.573D-05 0.210D-04-0.685D-04-0.783D-04 0.447D-03
 Coeff-Com:  0.210D-02-0.398D-02-0.383D-02 0.246D-02 0.209D-01-0.329D-01
 Coeff-Com: -0.200D+00 0.191D+00 0.102D+01
 Coeff:     -0.175D-04 0.573D-05 0.210D-04-0.685D-04-0.783D-04 0.447D-03
 Coeff:      0.210D-02-0.398D-02-0.383D-02 0.246D-02 0.209D-01-0.329D-01
 Coeff:     -0.200D+00 0.191D+00 0.102D+01
 Gap=     0.044 Goal=   None    Shift=    0.000
 Gap=     0.032 Goal=   None    Shift=    0.000
 RMSDP=1.05D-08 MaxDP=8.30D-07 DE= 7.73D-12 OVMax= 1.95D-07

 Cycle  24  Pass 1  IDiag  1:
 E= -1136.09376809794     Delta-E=       -0.000000000003 Rises=F Damp=F
 DIIS: error= 1.11D-09 at cycle  24 NSaved=  16.
 NSaved=16 IEnMin=13 EnMin= -1136.09376809794     IErMin=16 ErrMin= 1.11D-09
 ErrMax= 1.11D-09  0.00D+00 EMaxC= 1.00D-01 BMatC= 2.56D-16 BMatP= 5.63D-16
 IDIUse=1 WtCom= 1.00D+00 WtEn= 0.00D+00
 Large coefficients: NSaved= 16 BigCof=    0.00 CofMax=   10.00 Det=-2.48D-16
 Inversion failed.  Reducing to 15 matrices.
 Coeff-Com:  0.148D-05-0.688D-04 0.142D-03 0.305D-03-0.130D-02 0.941D-03
 Coeff-Com:  0.415D-02 0.481D-02-0.261D-01 0.294D-01 0.451D-01-0.135D+00
 Coeff-Com: -0.242D+00 0.266D+00 0.105D+01
 Coeff:      0.148D-05-0.688D-04 0.142D-03 0.305D-03-0.130D-02 0.941D-03
 Coeff:      0.415D-02 0.481D-02-0.261D-01 0.294D-01 0.451D-01-0.135D+00
 Coeff:     -0.242D+00 0.266D+00 0.105D+01
 Gap=     0.044 Goal=   None    Shift=    0.000
 Gap=     0.032 Goal=   None    Shift=    0.000
 RMSDP=1.43D-08 MaxDP=1.12D-06 DE=-2.73D-12 OVMax= 1.48D-07

 Cycle  25  Pass 1  IDiag  1:
 E= -1136.09376809793     Delta-E=        0.000000000010 Rises=F Damp=F
 DIIS: error= 7.70D-10 at cycle  25 NSaved=  16.
 NSaved=16 IEnMin=12 EnMin= -1136.09376809794     IErMin=16 ErrMin= 7.70D-10
 ErrMax= 7.70D-10  0.00D+00 EMaxC= 1.00D-01 BMatC= 1.15D-16 BMatP= 2.56D-16
 IDIUse=1 WtCom= 1.00D+00 WtEn= 0.00D+00
 Large coefficients: NSaved= 16 BigCof=    0.00 CofMax=   10.00 Det=-1.14D-16
 Inversion failed.  Reducing to 15 matrices.
 Coeff-Com: -0.525D-04 0.133D-03 0.316D-03-0.616D-03-0.273D-02 0.403D-02
 Coeff-Com:  0.680D-02-0.115D-01-0.650D-03 0.281D-01 0.173D-01-0.200D+00
 Coeff-Com: -0.265D+00 0.428D+00 0.995D+00
 Coeff:     -0.525D-04 0.133D-03 0.316D-03-0.616D-03-0.273D-02 0.403D-02
 Coeff:      0.680D-02-0.115D-01-0.650D-03 0.281D-01 0.173D-01-0.200D+00
 Coeff:     -0.265D+00 0.428D+00 0.995D+00
 Gap=     0.044 Goal=   None    Shift=    0.000
 Gap=     0.032 Goal=   None    Shift=    0.000
 RMSDP=5.35D-09 MaxDP=3.91D-07 DE= 1.00D-11 OVMax= 1.33D-07

 SCF Done:  E(UB3LYP) =  -1136.09376810     A.U. after   25 cycles
            NFock= 25  Conv=0.53D-08     -V/T= 2.0025
 <Sx>= 0.0000 <Sy>= 0.0000 <Sz>= 0.5000 <S**2>= 0.7610 S= 0.5055
 <L.S>= 0.000000000000E+00
 KE= 1.133308755226D+03 PE=-3.493221281616D+03 EE= 8.419354929371D+02
 Annihilation of the first spin contaminant:
 S**2 before annihilation     0.7610,   after     0.7501
 Leave Link  502 at Mon Nov 13 18:03:15 2023, MaxMem=  1879048192 cpu:             251.1 elap:              21.7
 (Enter /home/sekinelabo/g16/l601.exe)
 Copying SCF densities to generalized density rwf, IOpCl= 1 IROHF=0.

 **********************************************************************

            Population analysis using the SCF Density.

 **********************************************************************

 Orbital symmetries:
 Alpha Orbitals:
       Occupied  (A) (A) (A) (A) (A) (A) (A) (A) (A) (A) (A) (A)
                 (A) (A) (A) (A) (A) (A) (A) (A) (A) (A) (A) (A)
                 (A) (A) (A) (A) (A) (A) (A) (A) (A) (A) (A) (A)
                 (A) (A) (A)
       Virtual   (A) (A) (A) (A) (A) (A) (A) (A) (A) (A) (A) (A)
                 (A) (A) (A) (A) (A) (A) (A) (A) (A) (A) (A) (A)
                 (A) (A) (A) (A) (A) (A) (A) (A) (A) (A) (A) (A)
                 (A) (A) (A) (A) (A) (A) (A) (A) (A) (A) (A) (A)
                 (A) (A) (A) (A) (A) (A) (A) (A) (A) (A) (A) (A)
                 (A) (A) (A) (A) (A) (A) (A) (A) (A) (A) (A) (A)
                 (A) (A) (A) (A) (A) (A) (A) (A) (A) (A) (A) (A)
                 (A) (A) (A) (A) (A) (A) (A) (A) (A) (A) (A) (A)
                 (A) (A) (A) (A) (A) (A) (A) (A) (A) (A) (A) (A)
                 (A) (A) (A) (A) (A) (A) (A) (A) (A) (A) (A) (A)
                 (A) (A) (A) (A) (A) (A) (A) (A) (A) (A) (A) (A)
                 (A) (A) (A) (A) (A) (A) (A) (A) (A) (A) (A) (A)
                 (A) (A) (A) (A) (A) (A) (A) (A) (A) (A) (A) (A)
                 (A) (A) (A) (A) (A) (A) (A) (A) (A) (A) (A) (A)
                 (A) (A) (A)
 Beta  Orbitals:
       Occupied  (A) (A) (A) (A) (A) (A) (A) (A) (A) (A) (A) (A)
                 (A) (A) (A) (A) (A) (A) (A) (A) (A) (A) (A) (A)
                 (A) (A) (A) (A) (A) (A) (A) (A) (A) (A) (A) (A)
                 (A) (A)
       Virtual   (A) (A) (A) (A) (A) (A) (A) (A) (A) (A) (A) (A)
                 (A) (A) (A) (A) (A) (A) (A) (A) (A) (A) (A) (A)
                 (A) (A) (A) (A) (A) (A) (A) (A) (A) (A) (A) (A)
                 (A) (A) (A) (A) (A) (A) (A) (A) (A) (A) (A) (A)
                 (A) (A) (A) (A) (A) (A) (A) (A) (A) (A) (A) (A)
                 (A) (A) (A) (A) (A) (A) (A) (A) (A) (A) (A) (A)
                 (A) (A) (A) (A) (A) (A) (A) (A) (A) (A) (A) (A)
                 (A) (A) (A) (A) (A) (A) (A) (A) (A) (A) (A) (A)
                 (A) (A) (A) (A) (A) (A) (A) (A) (A) (A) (A) (A)
                 (A) (A) (A) (A) (A) (A) (A) (A) (A) (A) (A) (A)
                 (A) (A) (A) (A) (A) (A) (A) (A) (A) (A) (A) (A)
                 (A) (A) (A) (A) (A) (A) (A) (A) (A) (A) (A) (A)
                 (A) (A) (A) (A) (A) (A) (A) (A) (A) (A) (A) (A)
                 (A) (A) (A) (A) (A) (A) (A) (A) (A) (A) (A) (A)
                 (A) (A) (A) (A)
 The electronic state is 2-A.
 Alpha  occ. eigenvalues --  -38.45245 -38.44818 -38.44260 -38.43673 -38.43662
 Alpha  occ. eigenvalues --  -38.42700 -38.42597  -2.21231  -2.20812  -2.20355
 Alpha  occ. eigenvalues --   -2.19664  -2.19644  -2.18859  -2.18755  -1.14974
 Alpha  occ. eigenvalues --   -1.14885  -1.14863  -1.14517  -1.14420  -1.14410
 Alpha  occ. eigenvalues --   -1.14125  -1.14031  -1.13960  -1.13438  -1.13350
 Alpha  occ. eigenvalues --   -1.13323  -1.13298  -1.13273  -1.13181  -1.12652
 Alpha  occ. eigenvalues --   -1.12527  -1.12481  -1.12424  -1.12388  -1.12349
 Alpha  occ. eigenvalues --   -0.20422  -0.15161  -0.11696  -0.10967
 Alpha virt. eigenvalues --   -0.06521  -0.05198  -0.04612  -0.03052  -0.02180
 Alpha virt. eigenvalues --   -0.02107  -0.02066  -0.00863  -0.00290   0.00251
 Alpha virt. eigenvalues --    0.00323   0.00469   0.00659   0.00727   0.00833
 Alpha virt. eigenvalues --    0.00947   0.01039   0.01074   0.01269   0.01508
 Alpha virt. eigenvalues --    0.01528   0.01785   0.01914   0.02040   0.02045
 Alpha virt. eigenvalues --    0.02398   0.02470   0.02665   0.02752   0.02766
 Alpha virt. eigenvalues --    0.02854   0.02877   0.02986   0.03009   0.03070
 Alpha virt. eigenvalues --    0.03137   0.03293   0.03495   0.03821   0.04297
 Alpha virt. eigenvalues --    0.04358   0.04544   0.04755   0.05022   0.05164
 Alpha virt. eigenvalues --    0.05434   0.05670   0.05752   0.05764   0.06060
 Alpha virt. eigenvalues --    0.06385   0.06741   0.06898   0.06976   0.07575
 Alpha virt. eigenvalues --    0.07751   0.07795   0.08193   0.08776   0.08934
 Alpha virt. eigenvalues --    0.09169   0.10758   0.11216   0.11457   0.11755
 Alpha virt. eigenvalues --    0.12823   0.13004   0.13096   0.13167   0.13652
 Alpha virt. eigenvalues --    0.13943   0.14482   0.14879   0.14977   0.15255
 Alpha virt. eigenvalues --    0.15280   0.15717   0.16802   0.18505   0.18805
 Alpha virt. eigenvalues --    0.23063   0.25187   0.27502   0.27665   0.28498
 Alpha virt. eigenvalues --    0.30170   0.31135   0.32169   0.32922   0.33999
 Alpha virt. eigenvalues --    0.34882   0.35084   0.37013   0.37166   0.38462
 Alpha virt. eigenvalues --    0.39421   0.39732   0.41993   0.42870   0.42952
 Alpha virt. eigenvalues --    0.43910   0.44489   0.44966   0.45200   0.45252
 Alpha virt. eigenvalues --    0.45750   0.46086   0.46945   0.47712   0.48161
 Alpha virt. eigenvalues --    0.48749   0.49119   0.49755   0.50178   0.50538
 Alpha virt. eigenvalues --    0.52074   0.52411   0.53181   0.53728   0.54553
 Alpha virt. eigenvalues --    0.54590   0.56687   0.58070   0.65248   0.65925
 Alpha virt. eigenvalues --    0.67273   0.69297   0.70163   0.70615   0.70901
 Alpha virt. eigenvalues --    0.72630   0.74165   0.75861   0.76099   0.79434
 Alpha virt. eigenvalues --    0.80818   2.11837   2.18022   2.22156   2.23638
 Alpha virt. eigenvalues --    2.27190   2.34346   2.35131   4.40233   4.40970
 Alpha virt. eigenvalues --    4.41495   4.41929   4.42134   4.43393   4.44751
 Alpha virt. eigenvalues --    4.45072   4.46454   4.50290   4.52825   4.56231
 Alpha virt. eigenvalues --    4.57598   4.61925   4.65596   4.70887   4.72681
 Alpha virt. eigenvalues --    4.75338   4.76701   4.77546   4.82690  96.32797
 Alpha virt. eigenvalues --   96.41547  96.48225  96.49553  96.54683  96.63598
 Alpha virt. eigenvalues --   96.65088
  Beta  occ. eigenvalues --  -38.45219 -38.44762 -38.44209 -38.43663 -38.43651
  Beta  occ. eigenvalues --  -38.42672 -38.42569  -2.21188  -2.20708  -2.20264
  Beta  occ. eigenvalues --   -2.19646  -2.19626  -2.18819  -2.18715  -1.14950
  Beta  occ. eigenvalues --   -1.14834  -1.14816  -1.14446  -1.14344  -1.14339
  Beta  occ. eigenvalues --   -1.14070  -1.13944  -1.13901  -1.13420  -1.13339
  Beta  occ. eigenvalues --   -1.13313  -1.13273  -1.13252  -1.13164  -1.12632
  Beta  occ. eigenvalues --   -1.12468  -1.12416  -1.12376  -1.12334  -1.12307
  Beta  occ. eigenvalues --   -0.19576  -0.14953  -0.10780
  Beta virt. eigenvalues --   -0.07629  -0.06253  -0.04511  -0.04448  -0.02797
  Beta virt. eigenvalues --   -0.02055  -0.01506  -0.01481  -0.00355  -0.00264
  Beta virt. eigenvalues --    0.00304   0.00477   0.00643   0.00669   0.00860
  Beta virt. eigenvalues --    0.00906   0.00944   0.01094   0.01162   0.01310
  Beta virt. eigenvalues --    0.01615   0.01651   0.01941   0.01981   0.02042
  Beta virt. eigenvalues --    0.02092   0.02513   0.02609   0.02654   0.02775
  Beta virt. eigenvalues --    0.02816   0.02838   0.02935   0.03014   0.03083
  Beta virt. eigenvalues --    0.03091   0.03259   0.03296   0.03491   0.03880
  Beta virt. eigenvalues --    0.04414   0.04462   0.04745   0.04893   0.05078
  Beta virt. eigenvalues --    0.05269   0.05674   0.05727   0.05798   0.05960
  Beta virt. eigenvalues --    0.06224   0.06423   0.06824   0.06939   0.07088
  Beta virt. eigenvalues --    0.07689   0.07831   0.07917   0.08454   0.08973
  Beta virt. eigenvalues --    0.09029   0.09230   0.11148   0.11210   0.11803
  Beta virt. eigenvalues --    0.12305   0.13003   0.13184   0.13298   0.13389
  Beta virt. eigenvalues --    0.13978   0.13988   0.14675   0.15124   0.15156
  Beta virt. eigenvalues --    0.15371   0.15410   0.16087   0.16875   0.18751
  Beta virt. eigenvalues --    0.19005   0.23235   0.25489   0.27699   0.28114
  Beta virt. eigenvalues --    0.28730   0.30281   0.31387   0.32476   0.33137
  Beta virt. eigenvalues --    0.34277   0.35231   0.35347   0.37402   0.37567
  Beta virt. eigenvalues --    0.38797   0.39793   0.39832   0.42147   0.43171
  Beta virt. eigenvalues --    0.43275   0.44233   0.44610   0.45064   0.45374
  Beta virt. eigenvalues --    0.45557   0.45900   0.46338   0.47042   0.47851
  Beta virt. eigenvalues --    0.48268   0.48837   0.49280   0.49935   0.50390
  Beta virt. eigenvalues --    0.50754   0.52242   0.52579   0.53413   0.53990
  Beta virt. eigenvalues --    0.54696   0.54847   0.56850   0.58118   0.65588
  Beta virt. eigenvalues --    0.66046   0.67400   0.69448   0.70259   0.70787
  Beta virt. eigenvalues --    0.70947   0.72792   0.74247   0.75884   0.76114
  Beta virt. eigenvalues --    0.79582   0.80836   2.11932   2.18133   2.22334
  Beta virt. eigenvalues --    2.23673   2.27390   2.34420   2.35186   4.40257
  Beta virt. eigenvalues --    4.41022   4.41552   4.41987   4.42206   4.43477
  Beta virt. eigenvalues --    4.44800   4.45133   4.46529   4.50328   4.52909
  Beta virt. eigenvalues --    4.56310   4.57658   4.61990   4.65677   4.70924
  Beta virt. eigenvalues --    4.72708   4.75374   4.76714   4.77578   4.82743
  Beta virt. eigenvalues --   96.32832  96.41585  96.48282  96.49567  96.54744
  Beta virt. eigenvalues --   96.63630  96.65114
          Condensed to atoms (all electrons):
               1          2          3          4          5          6
     1  Na  16.567020  -2.221631   0.029172   0.761116  -1.049157  -1.846829
     2  Na  -2.221631  15.324686  -0.722756  -0.602733  -2.457797   1.611206
     3  Na   0.029172  -0.722756  12.663031   0.679549   1.035331  -1.125942
     4  Na   0.761116  -0.602733   0.679549  12.320957  -0.078418  -0.966518
     5  Na  -1.049157  -2.457797   1.035331  -0.078418  17.496566  -1.997332
     6  Na  -1.846829   1.611206  -1.125942  -0.966518  -1.997332  13.369481
     7  Na  -1.052213   0.173005  -1.333762  -1.112174  -1.639953   1.452238
               7
     1  Na  -1.052213
     2  Na   0.173005
     3  Na  -1.333762
     4  Na  -1.112174
     5  Na  -1.639953
     6  Na   1.452238
     7  Na  14.189452
          Atomic-Atomic Spin Densities.
               1          2          3          4          5          6
     1  Na   3.068547  -1.274774   0.257760   0.556374  -1.483690  -0.651469
     2  Na  -1.274774   2.588138  -0.370843  -0.219992  -1.515588   0.840629
     3  Na   0.257760  -0.370843  -0.161825  -0.209679   0.660198   0.015595
     4  Na   0.556374  -0.219992  -0.209679  -0.228817   0.042954   0.078722
     5  Na  -1.483690  -1.515588   0.660198   0.042954   3.820160  -0.777196
     6  Na  -0.651469   0.840629   0.015595   0.078722  -0.777196   0.539974
     7  Na   0.060164  -0.155648  -0.089248   0.006388  -0.165128   0.029389
               7
     1  Na   0.060164
     2  Na  -0.155648
     3  Na  -0.089248
     4  Na   0.006388
     5  Na  -0.165128
     6  Na   0.029389
     7  Na   0.103990
 Mulliken charges and spin densities:
               1          2
     1  Na  -0.187477   0.532911
     2  Na  -0.103981  -0.108078
     3  Na  -0.224624   0.101958
     4  Na  -0.001780   0.025950
     5  Na  -0.309241   0.581708
     6  Na   0.503696   0.075644
     7  Na   0.323407  -0.210093
 Sum of Mulliken charges =  -0.00000   1.00000
 Mulliken charges and spin densities with hydrogens summed into heavy atoms:
               1          2
     1  Na  -0.187477   0.532911
     2  Na  -0.103981  -0.108078
     3  Na  -0.224624   0.101958
     4  Na  -0.001780   0.025950
     5  Na  -0.309241   0.581708
     6  Na   0.503696   0.075644
     7  Na   0.323407  -0.210093
 Electronic spatial extent (au):  <R**2>=           1932.4593
 Charge=             -0.0000 electrons
 Dipole moment (field-independent basis, Debye):
    X=              0.7884    Y=              0.0103    Z=              0.0153  Tot=              0.7886
 Quadrupole moment (field-independent basis, Debye-Ang):
   XX=            -48.6223   YY=            -81.7889   ZZ=            -63.5045
   XY=             -0.3228   XZ=              1.9616   YZ=             -1.9247
 Traceless Quadrupole moment (field-independent basis, Debye-Ang):
   XX=             16.0163   YY=            -17.1503   ZZ=              1.1341
   XY=             -0.3228   XZ=              1.9616   YZ=             -1.9247
 Octapole moment (field-independent basis, Debye-Ang**2):
  XXX=             18.3955  YYY=              1.8135  ZZZ=              6.7237  XYY=             -2.8427
  XXY=             -0.1171  XXZ=              0.6944  XZZ=              9.7759  YZZ=             -1.5247
  YYZ=             -5.1838  XYZ=             -1.4933
 Hexadecapole moment (field-independent basis, Debye-Ang**3):
 XXXX=          -1551.4696 YYYY=          -1014.2272 ZZZZ=           -707.0487 XXXY=             -7.5741
 XXXZ=             71.4096 YYYX=             -7.4102 YYYZ=             -9.6217 ZZZX=            -34.4476
 ZZZY=            -18.1336 XXYY=           -451.1282 XXZZ=           -323.6604 YYZZ=           -299.5310
 XXYZ=            -14.5354 YYXZ=             23.5814 ZZXY=              5.9760
 N-N= 3.818832653549D+02 E-N=-3.493221281625D+03  KE= 1.133308755226D+03
                          Isotropic Fermi Contact Couplings
        Atom                 a.u.       MegaHertz       Gauss      10(-4) cm-1
     1  Na(23)             0.00786       9.29274       3.31588       3.09973
     2  Na(23)             0.18079     213.88086      76.31801      71.34298
     3  Na(23)             0.02831      33.49217      11.95084      11.17179
     4  Na(23)             0.02595      30.69396      10.95237      10.23840
     5  Na(23)             0.00711       8.41465       3.00256       2.80683
     6  Na(23)             0.05870      69.43796      24.77719      23.16201
     7  Na(23)             0.23856     282.21862     100.70262      94.13800
 --------------------------------------------------------
       Center         ----  Spin Dipole Couplings  ----
                      3XX-RR        3YY-RR        3ZZ-RR
 --------------------------------------------------------
     1   Atom       -0.049152     -0.034862      0.084014
     2   Atom        0.027649     -0.014132     -0.013517
     3   Atom       -0.006232     -0.005215      0.011447
     4   Atom       -0.006201     -0.001373      0.007574
     5   Atom       -0.048768     -0.041385      0.090153
     6   Atom        0.013119     -0.016643      0.003525
     7   Atom        0.007991      0.004758     -0.012749
 --------------------------------------------------------
                        XY            XZ            YZ
 --------------------------------------------------------
     1   Atom        0.004696     -0.006221     -0.028505
     2   Atom       -0.001621      0.013936      0.000061
     3   Atom       -0.000853     -0.002715      0.009964
     4   Atom        0.001550     -0.002749     -0.012197
     5   Atom       -0.003045     -0.005470      0.000420
     6   Atom        0.002288     -0.031193     -0.000798
     7   Atom       -0.000573      0.005333      0.001780
 --------------------------------------------------------


 ---------------------------------------------------------------------------------
              Anisotropic Spin Dipole Couplings in Principal Axis System
 ---------------------------------------------------------------------------------

       Atom             a.u.   MegaHertz   Gauss  10(-4) cm-1        Axes

              Baa    -0.0506    -7.147    -2.550    -2.384  0.9442 -0.3283 -0.0259
     1 Na(23) Bbb    -0.0402    -5.683    -2.028    -1.896  0.3254  0.9180  0.2269
              Bcc     0.0909    12.830     4.578     4.280 -0.0507 -0.2226  0.9736
 
              Baa    -0.0179    -2.523    -0.900    -0.842 -0.2944 -0.1431  0.9449
     2 Na(23) Bbb    -0.0141    -1.992    -0.711    -0.664 -0.0105  0.9892  0.1465
              Bcc     0.0320     4.515     1.611     1.506  0.9556 -0.0332  0.2927
 
              Baa    -0.0099    -1.400    -0.500    -0.467 -0.1109  0.8952 -0.4317
     3 Na(23) Bbb    -0.0065    -0.924    -0.330    -0.308  0.9861  0.1531  0.0641
              Bcc     0.0165     2.324     0.829     0.775 -0.1234  0.4186  0.8998
 
              Baa    -0.0099    -1.401    -0.500    -0.467  0.0905  0.8102  0.5791
     4 Na(23) Bbb    -0.0066    -0.933    -0.333    -0.311  0.9864 -0.1529  0.0597
              Bcc     0.0165     2.334     0.833     0.778 -0.1369 -0.5659  0.8130
 
              Baa    -0.0500    -7.067    -2.522    -2.357  0.9433  0.3301  0.0358
     5 Na(23) Bbb    -0.0403    -5.695    -2.032    -1.900 -0.3297  0.9440 -0.0169
              Bcc     0.0904    12.762     4.554     4.257 -0.0394  0.0041  0.9992
 
              Baa    -0.0234    -3.298    -1.177    -1.100  0.6490 -0.1321  0.7492
     6 Na(23) Bbb    -0.0166    -2.346    -0.837    -0.783  0.0561  0.9904  0.1261
              Bcc     0.0400     5.645     2.014     1.883  0.7587  0.0398 -0.6502
 
              Baa    -0.0142    -2.009    -0.717    -0.670 -0.2347 -0.0978  0.9671
     7 Na(23) Bbb     0.0049     0.697     0.249     0.233  0.0077  0.9947  0.1024
              Bcc     0.0093     1.311     0.468     0.437  0.9720 -0.0315  0.2327
 

 ---------------------------------------------------------------------------------

 No NMR shielding tensors so no spin-rotation constants.
 Leave Link  601 at Mon Nov 13 18:03:15 2023, MaxMem=  1879048192 cpu:               2.7 elap:               0.2
 (Enter /home/sekinelabo/g16/l701.exe)
 ... and contract with generalized density number  0.
 Compute integral first derivatives.
 Leave Link  701 at Mon Nov 13 18:03:15 2023, MaxMem=  1879048192 cpu:               1.7 elap:               0.1
 (Enter /home/sekinelabo/g16/l702.exe)
 L702 exits ... SP integral derivatives will be done elsewhere.
 Leave Link  702 at Mon Nov 13 18:03:15 2023, MaxMem=  1879048192 cpu:               0.4 elap:               0.0
 (Enter /home/sekinelabo/g16/l703.exe)
 Integral derivatives from FoFJK, PRISM(SPDF).
 Compute integral first derivatives, UseDBF=F ICtDFT=           0.
 Calling FoFJK, ICntrl=      2127 FMM=F ISym2X=0 I1Cent= 0 IOpClX= 1 NMat=1 NMatS=1 NMatT=0.
 FoFJK:  IHMeth= 1 ICntrl=    2127 DoSepK=F KAlg= 0 I1Cent=           0 FoldK=F
 IRaf=         0 NMat=       1 IRICut=       1 DoRegI=T DoRafI=F ISym2E= 0 IDoP0=0 IntGTp=1.
 FoFCou: FMM=F IPFlag=           0 FMFlag=      100000 FMFlg1=         800
         NFxFlg=           0 DoJE=F BraDBF=F KetDBF=F FulRan=T
         wScrn=  0.000000 ICntrl=      2127 IOpCl=  1 I1Cent=           0 NGrid=           0
         NMat0=    1 NMatS0=      1 NMatT0=    0 NMatD0=    1 NMtDS0=    0 NMtDT0=    0
 Symmetry not used in FoFCou.
 Leave Link  703 at Mon Nov 13 18:03:18 2023, MaxMem=  1879048192 cpu:              37.0 elap:               2.4
 (Enter /home/sekinelabo/g16/l716.exe)
 Dipole        = 3.10172497D-01 4.07059079D-03 6.01003454D-03
 ***** Axes restored to original set *****
 -------------------------------------------------------------------
 Center     Atomic                   Forces (Hartrees/Bohr)
 Number     Number              X              Y              Z
 -------------------------------------------------------------------
      1       11           0.000073081   -0.019626030    0.001164914
      2       11           0.001497602    0.001513378    0.016706991
      3       11           0.004929625   -0.013254716   -0.005054489
      4       11           0.005845138    0.012307187   -0.007087592
      5       11           0.000655437    0.018813543   -0.003417180
      6       11          -0.006750671    0.001759234    0.011700410
      7       11          -0.006250212   -0.001512597   -0.014013053
 -------------------------------------------------------------------
 Cartesian Forces:  Max     0.019626030 RMS     0.009564179
 Z-matrix is all fixed cartesians, so copy forces.
 Force constants in Cartesian coordinates: 
                1             2             3             4             5 
      1  0.160423D+00
      2  0.561693D-02  0.199317D+00
      3 -0.159866D-03  0.563309D-03  0.122259D+00
      4 -0.263334D-01 -0.265759D-03 -0.192681D-01  0.861289D-01
      5 -0.144535D-01 -0.374039D-01 -0.240476D-01  0.253497D-02  0.873005D-01
      6 -0.717743D-04  0.416676D-02 -0.327036D-01  0.942987D-02  0.485584D-02
      7 -0.407016D-01  0.144416D-01  0.120238D-01 -0.123614D-01  0.276891D-02
      8 -0.224379D-01 -0.377664D-01  0.604993D-02  0.976264D-02 -0.197533D-01
      9  0.244799D-02 -0.271772D-02 -0.229274D-01  0.178549D-01 -0.279305D-01
     10 -0.147947D-02 -0.988681D-02  0.531815D-02 -0.132364D-01 -0.430623D-02
     11 -0.947793D-02 -0.978036D-03  0.542043D-02 -0.711046D-02 -0.141376D-01
     12 -0.156295D-03  0.710790D-04  0.495185D-02  0.208045D-01  0.237236D-01
     13 -0.308068D-01  0.100436D-02  0.200522D-02 -0.257783D-01  0.128665D-01
     14 -0.141995D-02 -0.548288D-01  0.836232D-02 -0.411566D-02 -0.330892D-01
     15  0.217150D-02  0.629636D-03 -0.182509D-01 -0.176564D-01  0.244925D-01
     16 -0.329315D-01 -0.572905D-02  0.137008D-01 -0.800002D-02  0.790171D-03
     17  0.225139D-01 -0.379932D-01 -0.237106D-01 -0.581822D-03  0.509575D-02
     18  0.186578D-02 -0.108129D-03 -0.210666D-01 -0.708632D-02  0.192929D-03
     19 -0.281701D-01 -0.518125D-02 -0.136201D-01 -0.419248D-03 -0.200832D-03
     20  0.196584D-01 -0.303469D-01  0.273622D-01 -0.223906D-03  0.119878D-01
     21 -0.609734D-02 -0.260494D-02 -0.322626D-01 -0.407851D-02 -0.128681D-02
                6             7             8             9            10 
      6  0.143231D+00
      7 -0.334282D-02  0.713143D-01
      8 -0.632922D-02 -0.162398D-01  0.946010D-01
      9 -0.364255D-01 -0.194799D-01  0.153525D-01  0.538693D-01
     10 -0.278373D-02 -0.162291D-01  0.112489D-01  0.435349D-02  0.727706D-01
     11  0.184941D-02 -0.120936D-01 -0.426414D-01  0.137154D-01  0.150185D-01
     12 -0.418722D-01  0.558171D-02 -0.848184D-02 -0.673589D-02 -0.216846D-01
     13 -0.355197D-02 -0.146348D-02  0.921547D-02 -0.215027D-02 -0.414634D-01
     14 -0.318888D-02  0.108949D-01 -0.282698D-02  0.170282D-02 -0.121347D-01
     15 -0.374235D-01  0.358524D-02 -0.442188D-02  0.554085D-02  0.132974D-01
     16  0.416177D-02  0.656120D-03  0.524625D-02  0.220222D-02  0.630029D-03
     17 -0.690014D-04  0.519573D-03  0.692938D-02  0.126334D-02 -0.383925D-03
     18  0.473309D-02  0.605314D-03  0.121620D-03  0.235968D-02  0.707600D-03
     19 -0.384134D-02 -0.121480D-02  0.320443D-02 -0.522841D-02 -0.992206D-03
     20 -0.128491D-02 -0.291590D-03  0.145764D-02 -0.138578D-02  0.444257D-03
     21  0.460678D-03  0.102671D-02 -0.229106D-02  0.431898D-02  0.791637D-03
               11            12            13            14            15 
     11  0.866536D-01
     12 -0.202288D-01  0.601817D-01
     13  0.221783D-01 -0.371880D-02  0.162735D+00
     14 -0.376683D-01  0.525543D-02 -0.349518D-02  0.194188D+00
     15 -0.203683D-02 -0.235211D-01  0.153639D-02 -0.185385D-01  0.128885D+00
     16 -0.429394D-02  0.356153D-02 -0.339404D-01  0.869092D-02  0.123782D-01
     17  0.615072D-02 -0.231655D-02 -0.212945D-01 -0.304344D-01  0.257297D-01
     18 -0.142592D-02  0.349022D-02  0.678086D-02  0.280419D-02 -0.282602D-01
     19 -0.422089D-02 -0.438809D-02 -0.292822D-01  0.157964D-02 -0.153123D-01
     20  0.262104D-02  0.197707D-02 -0.204750D-01 -0.353401D-01 -0.258547D-01
     21  0.270630D-02  0.350549D-02 -0.901413D-03  0.360259D-02 -0.269701D-01
               16            17            18            19            20 
     16  0.818048D-01
     17 -0.328125D-02  0.542285D-01
     18 -0.235083D-01  0.419789D-02  0.871651D-01
     19 -0.821913D-02  0.250805D-02  0.206351D-01  0.682977D-01
     20 -0.142310D-02 -0.397672D-02 -0.578258D-02  0.231085D-02  0.535972D-01
     21 -0.124962D-01 -0.509478D-02 -0.484213D-01  0.217551D-01  0.496870D-02
               21 
     21  0.993690D-01
 Leave Link  716 at Mon Nov 13 18:03:18 2023, MaxMem=  1879048192 cpu:               0.5 elap:               0.0
 (Enter /home/sekinelabo/g16/l103.exe)

 GradGradGradGradGradGradGradGradGradGradGradGradGradGradGradGradGradGrad
 Berny optimization.
 Search for a local minimum.
 Step number   1 out of a maximum of    2
 All quantities printed in internal units (Hartrees-Bohrs-Radians)
 Second derivative matrix not updated -- first step.
 ITU=  0
     Eigenvalues ---    0.04084   0.05112   0.06650   0.07098   0.10321
     Eigenvalues ---    0.12146   0.14301   0.14462   0.15465   0.16689
     Eigenvalues ---    0.18805   0.20236   0.21244   0.22588   0.26685
 Quadratic step=3.404D-01 exceeds max=3.000D-01 adjusted using Lamda=-1.337D-02.
 Angle between NR and scaled steps=   3.11 degrees.
 Angle between quadratic step and forces=  21.38 degrees.
 Linear search not attempted -- first point.
 B after Tr=     0.000000    0.000000    0.000000
         Rot=    1.000000   -0.000000    0.000000    0.000000 Ang=   0.00 deg.
 Variable       Old X    -DE/DX   Delta X   Delta X   Delta X     New X
                                 (Linear)    (Quad)   (Total)
    X1        4.22006   0.00007   0.00000  -0.01460  -0.01460   4.20546
    Y1        0.13692  -0.01963   0.00000  -0.09371  -0.09371   0.04321
    Z1        3.53164   0.00116   0.00000   0.01294   0.01294   3.54458
    X2        7.93117   0.00150   0.00000   0.04730   0.04730   7.97847
    Y2        3.25510   0.00151   0.00000   0.00686   0.00686   3.26196
    Z2        6.47587   0.01671   0.00000   0.08783   0.08783   6.56370
    X3        9.74098   0.00493   0.00000   0.06970   0.06970   9.81068
    Y3        0.00000  -0.01325   0.00000  -0.10722  -0.10722  -0.10722
    Z3        2.20700  -0.00505   0.00000  -0.02349  -0.02349   2.18350
    X4        9.90768   0.00585   0.00000   0.07562   0.07562   9.98329
    Y4        5.65676   0.01231   0.00000   0.10193   0.10193   5.75869
    Z4        1.75256  -0.00709   0.00000  -0.04075  -0.04075   1.71181
    X5        4.33875   0.00066   0.00000  -0.01129  -0.01129   4.32746
    Y5        5.75597   0.01881   0.00000   0.09154   0.09154   5.84751
    Z5        2.86628  -0.00342   0.00000  -0.00828  -0.00828   2.85800
    X6        0.00000  -0.00675   0.00000  -0.08583  -0.08583  -0.08583
    Y6        3.32038   0.00176   0.00000   0.01108   0.01108   3.33146
    Z6        5.58815   0.01170   0.00000   0.06672   0.06672   5.65487
    X7        0.56461  -0.00625   0.00000  -0.08089  -0.08089   0.48372
    Y7        2.64555  -0.00151   0.00000  -0.01049  -0.01049   2.63506
    Z7        0.00000  -0.01401   0.00000  -0.09496  -0.09496  -0.09496
         Item               Value     Threshold  Converged?
 Maximum Force            0.019626     0.000450     NO 
 RMS     Force            0.009564     0.000300     NO 
 Maximum Displacement     0.107217     0.001800     NO 
 RMS     Displacement     0.065473     0.001200     NO 
 Predicted change in Energy=-6.724602D-03
 GradGradGradGradGradGradGradGradGradGradGradGradGradGradGradGradGradGrad

 Leave Link  103 at Mon Nov 13 18:03:18 2023, MaxMem=  1879048192 cpu:               0.2 elap:               0.0
 (Enter /home/sekinelabo/g16/l9999.exe)
 1\1\GINC-SEKINELABO-XA7R-R37\Force\UB3LYP\6-311+G(d)\Na7(2)\SEKINELABO
 \13-Nov-2023\0\\#P B3LYP/6-311+g(d) force\\Gaussian input prepared by 
 ASE\\0,2\Na,2.2331610073,0.0724544565,1.8688657727\Na,4.1969939187,1.7
 225258375,3.4268849426\Na,5.1547067961,0.,1.1678920996\Na,5.2429168292
 ,2.9934280326,0.9274131366\Na,2.2959674152,3.0459286395,1.5167692576\N
 a,0.,1.7570680061,2.9571224805\Na,0.2987806735,1.3999627859,0.\\Versio
 n=ES64L-G16RevB.01\State=2-A\HF=-1136.0937681\S2=0.760962\S2-1=0.\S2A=
 0.750078\RMSD=5.346e-09\RMSF=9.564e-03\Dipole=-0.3101725,-0.0040706,0.
 00601\Quadrupole=11.9077071,-12.7508535,0.8431465,-0.2400271,-1.458429
 2,1.4309625\PG=C01 [X(Na7)]\\@


 EVANS BOLDLY PUT 50 ATM. OF ETHYLENE IN A CELL WITH 25 ATM. OF OXYGEN.
 THE APPARATUS SUBSEQUENTLY BLEW UP, BUT LUCKILY NOT BEFORE HE
 OBTAINED THE SPECTRA SHOWN IN FIGURE 8.
 A.J.MERER AND R.S.MULLIKEN, CHEM.REV. 69, 645 (1969)
 Job cpu time:       0 days  0 hours  5 minutes  6.6 seconds.
 Elapsed time:       0 days  0 hours  0 minutes 25.3 seconds.
 File lengths (MBytes):  RWF=     32 Int=      0 D2E=      0 Chk=      5 Scr=      1
 Normal termination of Gaussian 16 at Mon Nov 13 18:03:18 2023.
