 Entering Gaussian System, Link 0=g16
 Initial command:
 /home/sekinelabo/g16/l1.exe "/home/sekinelabo/g16temp/Gau-4170619.inp" -scrdir="/home/sekinelabo/g16temp/"
 Entering Link 1 = /home/sekinelabo/g16/l1.exe PID=   4170621.
  
 Copyright (c) 1988-2017, Gaussian, Inc.  All Rights Reserved.
  
 This is part of the Gaussian(R) 16 program.  It is based on
 the Gaussian(R) 09 system (copyright 2009, Gaussian, Inc.),
 the Gaussian(R) 03 system (copyright 2003, Gaussian, Inc.),
 the Gaussian(R) 98 system (copyright 1998, Gaussian, Inc.),
 the Gaussian(R) 94 system (copyright 1995, Gaussian, Inc.),
 the Gaussian 92(TM) system (copyright 1992, Gaussian, Inc.),
 the Gaussian 90(TM) system (copyright 1990, Gaussian, Inc.),
 the Gaussian 88(TM) system (copyright 1988, Gaussian, Inc.),
 the Gaussian 86(TM) system (copyright 1986, Carnegie Mellon
 University), and the Gaussian 82(TM) system (copyright 1983,
 Carnegie Mellon University). Gaussian is a federally registered
 trademark of Gaussian, Inc.
  
 This software contains proprietary and confidential information,
 including trade secrets, belonging to Gaussian, Inc.
  
 This software is provided under written license and may be
 used, copied, transmitted, or stored only in accord with that
 written license.
  
 The following legend is applicable only to US Government
 contracts under FAR:
  
                    RESTRICTED RIGHTS LEGEND
  
 Use, reproduction and disclosure by the US Government is
 subject to restrictions as set forth in subparagraphs (a)
 and (c) of the Commercial Computer Software - Restricted
 Rights clause in FAR 52.227-19.
  
 Gaussian, Inc.
 340 Quinnipiac St., Bldg. 40, Wallingford CT 06492
  
  
 ---------------------------------------------------------------
 Warning -- This program may not be used in any manner that
 competes with the business of Gaussian, Inc. or will provide
 assistance to any competitor of Gaussian, Inc.  The licensee
 of this program is prohibited from giving any competitor of
 Gaussian, Inc. access to this program.  By using this program,
 the user acknowledges that Gaussian, Inc. is engaged in the
 business of creating and licensing software in the field of
 computational chemistry and represents and warrants to the
 licensee that it is not a competitor of Gaussian, Inc. and that
 it will not use this program in any manner prohibited above.
 ---------------------------------------------------------------
  

 Cite this work as:
 Gaussian 16, Revision B.01,
 M. J. Frisch, G. W. Trucks, H. B. Schlegel, G. E. Scuseria, 
 M. A. Robb, J. R. Cheeseman, G. Scalmani, V. Barone, 
 G. A. Petersson, H. Nakatsuji, X. Li, M. Caricato, A. V. Marenich, 
 J. Bloino, B. G. Janesko, R. Gomperts, B. Mennucci, H. P. Hratchian, 
 J. V. Ortiz, A. F. Izmaylov, J. L. Sonnenberg, D. Williams-Young, 
 F. Ding, F. Lipparini, F. Egidi, J. Goings, B. Peng, A. Petrone, 
 T. Henderson, D. Ranasinghe, V. G. Zakrzewski, J. Gao, N. Rega, 
 G. Zheng, W. Liang, M. Hada, M. Ehara, K. Toyota, R. Fukuda, 
 J. Hasegawa, M. Ishida, T. Nakajima, Y. Honda, O. Kitao, H. Nakai, 
 T. Vreven, K. Throssell, J. A. Montgomery, Jr., J. E. Peralta, 
 F. Ogliaro, M. J. Bearpark, J. J. Heyd, E. N. Brothers, K. N. Kudin, 
 V. N. Staroverov, T. A. Keith, R. Kobayashi, J. Normand, 
 K. Raghavachari, A. P. Rendell, J. C. Burant, S. S. Iyengar, 
 J. Tomasi, M. Cossi, J. M. Millam, M. Klene, C. Adamo, R. Cammi, 
 J. W. Ochterski, R. L. Martin, K. Morokuma, O. Farkas, 
 J. B. Foresman, and D. J. Fox, Gaussian, Inc., Wallingford CT, 2016.
 
 ******************************************
 Gaussian 16:  ES64L-G16RevB.01 20-Dec-2017
                13-Nov-2023 
 ******************************************
 %mem=14GB
 %chk=checkpoint.chk
 %nprocshared=16
 Will use up to   16 processors via shared memory.
 -------------------------
 #P B3LYP/6-311+g(d) force
 -------------------------
 1/10=7,30=1,38=1/1,3;
 2/12=2,17=6,18=5,40=1/2;
 3/5=4,6=6,7=11,11=2,25=1,30=1,71=1,74=-5/1,2,3;
 4//1;
 5/5=2,38=5/2;
 6/7=2,8=2,9=2,10=2,28=1/1;
 7/29=1/1,2,3,16;
 1/10=7,30=1/3;
 99//99;
 Leave Link    1 at Mon Nov 13 20:03:43 2023, MaxMem=  1879048192 cpu:               0.3 elap:               0.0
 (Enter /home/sekinelabo/g16/l101.exe)
 ------------------------------
 Gaussian input prepared by ASE
 ------------------------------
 Symbolic Z-matrix:
 Charge =  0 Multiplicity = 2
 Na                    0.32265   0.04797   1.48868 
 Na                    2.89399   2.82743   2.17797 
 Na                    5.54356   1.68556   1.94363 
 Na                    3.20773   0.        1.68594 
 Na                    1.69461   1.80263   0. 
 Na                    1.43135   0.97369   3.75392 
 Na                    0.        2.86112   2.09256 
 
 ITRead=  0  0  0  0  0  0  0
 MicOpt= -1 -1 -1 -1 -1 -1 -1
 NAtoms=      7 NQM=        7 NQMF=       0 NMMI=      0 NMMIF=      0
                NMic=       0 NMicF=      0.
                    Isotopes and Nuclear Properties:
 (Nuclear quadrupole moments (NQMom) in fm**2, nuclear magnetic moments (NMagM)
  in nuclear magnetons)

  Atom         1           2           3           4           5           6           7
 IAtWgt=          23          23          23          23          23          23          23
 AtmWgt=  22.9897697  22.9897697  22.9897697  22.9897697  22.9897697  22.9897697  22.9897697
 NucSpn=           3           3           3           3           3           3           3
 AtZEff=  -0.0000000  -0.0000000  -0.0000000  -0.0000000  -0.0000000  -0.0000000  -0.0000000
 NQMom=   10.4000000  10.4000000  10.4000000  10.4000000  10.4000000  10.4000000  10.4000000
 NMagM=    2.2175200   2.2175200   2.2175200   2.2175200   2.2175200   2.2175200   2.2175200
 AtZNuc=  11.0000000  11.0000000  11.0000000  11.0000000  11.0000000  11.0000000  11.0000000
 Leave Link  101 at Mon Nov 13 20:03:43 2023, MaxMem=  1879048192 cpu:               2.7 elap:               0.2
 (Enter /home/sekinelabo/g16/l103.exe)

 GradGradGradGradGradGradGradGradGradGradGradGradGradGradGradGradGradGrad
 Berny optimization.
 Initialization pass.
 Trust Radius=3.00D-01 FncErr=1.00D-07 GrdErr=1.00D-07 EigMax=2.50D+02 EigMin=1.00D-04
 Number of steps in this run=      2 maximum allowed number of steps=      2.
 GradGradGradGradGradGradGradGradGradGradGradGradGradGradGradGradGradGrad

 Leave Link  103 at Mon Nov 13 20:03:43 2023, MaxMem=  1879048192 cpu:               0.2 elap:               0.0
 (Enter /home/sekinelabo/g16/l202.exe)
                          Input orientation:                          
 ---------------------------------------------------------------------
 Center     Atomic      Atomic             Coordinates (Angstroms)
 Number     Number       Type             X           Y           Z
 ---------------------------------------------------------------------
      1         11           0        0.322649    0.047970    1.488679
      2         11           0        2.893990    2.827434    2.177966
      3         11           0        5.543562    1.685560    1.943634
      4         11           0        3.207725    0.000000    1.685938
      5         11           0        1.694606    1.802630    0.000000
      6         11           0        1.431346    0.973690    3.753920
      7         11           0        0.000000    2.861116    2.092556
 ---------------------------------------------------------------------
                    Distance matrix (angstroms):
                    1          2          3          4          5
     1  Na   0.000000
     2  Na   3.848679   0.000000
     3  Na   5.490593   2.894653   0.000000
     4  Na   2.892209   2.887023   2.891998   0.000000
     5  Na   2.679041   2.689290   4.313453   2.895063   0.000000
     6  Na   2.686537   2.838896   4.549090   2.894848   3.853358
     7  Na   2.895265   2.895446   5.668790   4.317502   2.893246
                    6          7
     6  Na   0.000000
     7  Na   2.893313   0.000000
 Stoichiometry    Na7(2)
 Framework group  C1[X(Na7)]
 Deg. of freedom    15
 Full point group                 C1      NOp   1
 Largest Abelian subgroup         C1      NOp   1
 Largest concise Abelian subgroup C1      NOp   1
                         Standard orientation:                         
 ---------------------------------------------------------------------
 Center     Atomic      Atomic             Coordinates (Angstroms)
 Number     Number       Type             X           Y           Z
 ---------------------------------------------------------------------
      1         11           0       -1.833619    1.408944    0.388849
      2         11           0        0.737722   -1.370520   -0.300438
      3         11           0        3.387293   -0.228646   -0.066107
      4         11           0        1.051457    1.456914    0.191589
      5         11           0       -0.461662   -0.345716    1.877528
      6         11           0       -0.724923    0.483225   -1.876392
      7         11           0       -2.156268   -1.404201   -0.215028
 ---------------------------------------------------------------------
 Rotational constants (GHZ):           1.3968076           0.7515842           0.7270163
 Leave Link  202 at Mon Nov 13 20:03:43 2023, MaxMem=  1879048192 cpu:               0.1 elap:               0.0
 (Enter /home/sekinelabo/g16/l301.exe)
 Standard basis: 6-311+G(d) (5D, 7F)
 Ernie: Thresh=  0.10000D-02 Tol=  0.10000D-05 Strict=F.
 There are   217 symmetry adapted cartesian basis functions of A   symmetry.
 There are   210 symmetry adapted basis functions of A   symmetry.
   210 basis functions,   350 primitive gaussians,   217 cartesian basis functions
    39 alpha electrons       38 beta electrons
       nuclear repulsion energy       415.3651533410 Hartrees.
 IExCor=  402 DFT=T Ex+Corr=B3LYP ExCW=0 ScaHFX=  0.200000
 ScaDFX=  0.800000  0.720000  1.000000  0.810000 ScalE2=  1.000000  1.000000
 IRadAn=      5 IRanWt=     -1 IRanGd=            0 ICorTp=0 IEmpDi=  4
 NAtoms=    7 NActive=    7 NUniq=    7 SFac= 1.00D+00 NAtFMM=   60 NAOKFM=F Big=F
 Integral buffers will be    131072 words long.
 Raffenetti 2 integral format.
 Two-electron integral symmetry is turned on.
 Leave Link  301 at Mon Nov 13 20:03:43 2023, MaxMem=  1879048192 cpu:               0.5 elap:               0.0
 (Enter /home/sekinelabo/g16/l302.exe)
 NPDir=0 NMtPBC=     1 NCelOv=     1 NCel=       1 NClECP=     1 NCelD=      1
         NCelK=      1 NCelE2=     1 NClLst=     1 CellRange=     0.0.
 One-electron integrals computed using PRISM.
 One-electron integral symmetry used in STVInt
 NBasis=   210 RedAO= T EigKep=  1.71D-06  NBF=   210
 NBsUse=   209 1.00D-06 EigRej=  4.93D-07 NBFU=   209
 Precomputing XC quadrature grid using
 IXCGrd= 4 IRadAn=           5 IRanWt=          -1 IRanGd=           0 AccXCQ= 0.00D+00.
 Generated NRdTot=       0 NPtTot=           0 NUsed=           0 NTot=          32
 NSgBfM=   211   211   211   211   211 MxSgAt=     7 MxSgA2=     7.
 Leave Link  302 at Mon Nov 13 20:03:44 2023, MaxMem=  1879048192 cpu:               2.1 elap:               0.1
 (Enter /home/sekinelabo/g16/l303.exe)
 DipDrv:  MaxL=1.
 Leave Link  303 at Mon Nov 13 20:03:44 2023, MaxMem=  1879048192 cpu:               0.6 elap:               0.0
 (Enter /home/sekinelabo/g16/l401.exe)
 ExpMin= 7.60D-03 ExpMax= 3.62D+04 ExpMxC= 1.21D+03 IAcc=3 IRadAn=         5 AccDes= 0.00D+00
 Harris functional with IExCor=  402 and IRadAn=       5 diagonalized for initial guess.
 HarFok:  IExCor=  402 AccDes= 0.00D+00 IRadAn=         5 IDoV= 1 UseB2=F ITyADJ=14
 ICtDFT=  3500011 ScaDFX=  1.000000  1.000000  1.000000  1.000000
 FoFCou: FMM=F IPFlag=           0 FMFlag=      100000 FMFlg1=           0
         NFxFlg=           0 DoJE=T BraDBF=F KetDBF=T FulRan=T
         wScrn=  0.000000 ICntrl=       500 IOpCl=  0 I1Cent=   200000004 NGrid=           0
         NMat0=    1 NMatS0=      1 NMatT0=    0 NMatD0=    1 NMtDS0=    0 NMtDT0=    0
 Petite list used in FoFCou.
 Harris En= -1135.83563985525    
 JPrj=0 DoOrth=F DoCkMO=F.
 Initial guess <Sx>= 0.0000 <Sy>= 0.0000 <Sz>= 0.5000 <S**2>= 0.7500 S= 0.5000
 Leave Link  401 at Mon Nov 13 20:03:44 2023, MaxMem=  1879048192 cpu:               4.6 elap:               0.3
 (Enter /home/sekinelabo/g16/l502.exe)
 Keep R1 and R2 ints in memory in canonical form, NReq=507620374.
 FoFCou: FMM=F IPFlag=           0 FMFlag=           0 FMFlg1=           0
         NFxFlg=           0 DoJE=F BraDBF=F KetDBF=F FulRan=T
         wScrn=  0.000000 ICntrl=       600 IOpCl=  0 I1Cent=           0 NGrid=           0
         NMat0=    1 NMatS0=  22155 NMatT0=    0 NMatD0=    1 NMtDS0=    0 NMtDT0=    0
 Symmetry not used in FoFCou.
 Two-electron integral symmetry not used.
 UHF open shell SCF:
 Using DIIS extrapolation, IDIIS=  1040.
 NGot=  1879048192 LenX=  1388082362 LenY=  1388034832
 Requested convergence on RMS density matrix=1.00D-08 within 128 cycles.
 Requested convergence on MAX density matrix=1.00D-06.
 Requested convergence on             energy=1.00D-06.
 No special actions if energy rises.

 Cycle   1  Pass 1  IDiag  1:
 E= -1136.01106930276    
 DIIS: error= 1.62D-02 at cycle   1 NSaved=   1.
 NSaved= 1 IEnMin= 1 EnMin= -1136.01106930276     IErMin= 1 ErrMin= 1.62D-02
 ErrMax= 1.62D-02  0.00D+00 EMaxC= 1.00D-01 BMatC= 2.17D-01 BMatP= 2.17D-01
 IDIUse=3 WtCom= 8.38D-01 WtEn= 1.62D-01
 Coeff-Com:  0.100D+01
 Coeff-En:   0.100D+01
 Coeff:      0.100D+01
 Gap=     0.050 Goal=   None    Shift=    0.000
 Gap=     0.028 Goal=   None    Shift=    0.000
 GapD=    0.028 DampG=0.250 DampE=0.500 DampFc=0.2500 IDamp=-1.
 Damping current iteration by 2.50D-01
 RMSDP=1.13D-01 MaxDP=1.18D+01              OVMax= 2.79D-01

 Cycle   2  Pass 1  IDiag  1:
 E= -1136.02839356285     Delta-E=       -0.017324260082 Rises=F Damp=T
 DIIS: error= 8.96D-03 at cycle   2 NSaved=   2.
 NSaved= 2 IEnMin= 2 EnMin= -1136.02839356285     IErMin= 2 ErrMin= 8.96D-03
 ErrMax= 8.96D-03  0.00D+00 EMaxC= 1.00D-01 BMatC= 8.09D-02 BMatP= 2.17D-01
 IDIUse=3 WtCom= 9.10D-01 WtEn= 8.96D-02
 Coeff-Com: -0.124D+01 0.224D+01
 Coeff-En:   0.000D+00 0.100D+01
 Coeff:     -0.113D+01 0.213D+01
 Gap=     0.058 Goal=   None    Shift=    0.000
 Gap=     0.030 Goal=   None    Shift=    0.000
 RMSDP=5.17D-02 MaxDP=5.39D+00 DE=-1.73D-02 OVMax= 2.06D-01

 Cycle   3  Pass 1  IDiag  1:
 E= -1136.05581912771     Delta-E=       -0.027425564860 Rises=F Damp=F
 DIIS: error= 4.72D-03 at cycle   3 NSaved=   3.
 NSaved= 3 IEnMin= 3 EnMin= -1136.05581912771     IErMin= 3 ErrMin= 4.72D-03
 ErrMax= 4.72D-03  0.00D+00 EMaxC= 1.00D-01 BMatC= 6.73D-03 BMatP= 8.09D-02
 IDIUse=3 WtCom= 9.53D-01 WtEn= 4.72D-02
 Coeff-Com: -0.354D+00 0.642D+00 0.712D+00
 Coeff-En:   0.000D+00 0.000D+00 0.100D+01
 Coeff:     -0.337D+00 0.611D+00 0.726D+00
 Gap=     0.050 Goal=   None    Shift=    0.000
 Gap=     0.030 Goal=   None    Shift=    0.000
 RMSDP=1.85D-02 MaxDP=1.84D+00 DE=-2.74D-02 OVMax= 1.01D-01

 Cycle   4  Pass 1  IDiag  1:
 E= -1136.05682391831     Delta-E=       -0.001004790609 Rises=F Damp=F
 DIIS: error= 3.14D-03 at cycle   4 NSaved=   4.
 NSaved= 4 IEnMin= 4 EnMin= -1136.05682391831     IErMin= 4 ErrMin= 3.14D-03
 ErrMax= 3.14D-03  0.00D+00 EMaxC= 1.00D-01 BMatC= 4.19D-03 BMatP= 6.73D-03
 IDIUse=3 WtCom= 9.69D-01 WtEn= 3.14D-02
 Coeff-Com: -0.102D-01 0.197D-01 0.438D+00 0.553D+00
 Coeff-En:   0.000D+00 0.000D+00 0.439D+00 0.561D+00
 Coeff:     -0.986D-02 0.190D-01 0.438D+00 0.553D+00
 Gap=     0.053 Goal=   None    Shift=    0.000
 Gap=     0.030 Goal=   None    Shift=    0.000
 RMSDP=5.39D-03 MaxDP=5.66D-01 DE=-1.00D-03 OVMax= 6.44D-02

 Cycle   5  Pass 1  IDiag  1:
 E= -1136.05938355160     Delta-E=       -0.002559633283 Rises=F Damp=F
 DIIS: error= 1.34D-03 at cycle   5 NSaved=   5.
 NSaved= 5 IEnMin= 5 EnMin= -1136.05938355160     IErMin= 5 ErrMin= 1.34D-03
 ErrMax= 1.34D-03  0.00D+00 EMaxC= 1.00D-01 BMatC= 4.31D-04 BMatP= 4.19D-03
 IDIUse=3 WtCom= 9.87D-01 WtEn= 1.34D-02
 Coeff-Com:  0.165D-03-0.437D-03 0.276D+00 0.371D+00 0.354D+00
 Coeff-En:   0.000D+00 0.000D+00 0.000D+00 0.947D-01 0.905D+00
 Coeff:      0.162D-03-0.431D-03 0.272D+00 0.367D+00 0.361D+00
 Gap=     0.053 Goal=   None    Shift=    0.000
 Gap=     0.030 Goal=   None    Shift=    0.000
 RMSDP=1.67D-03 MaxDP=9.82D-02 DE=-2.56D-03 OVMax= 2.06D-02

 Cycle   6  Pass 1  IDiag  1:
 E= -1136.05982082214     Delta-E=       -0.000437270543 Rises=F Damp=F
 DIIS: error= 1.18D-04 at cycle   6 NSaved=   6.
 NSaved= 6 IEnMin= 6 EnMin= -1136.05982082214     IErMin= 6 ErrMin= 1.18D-04
 ErrMax= 1.18D-04  0.00D+00 EMaxC= 1.00D-01 BMatC= 3.82D-06 BMatP= 4.31D-04
 IDIUse=3 WtCom= 9.99D-01 WtEn= 1.18D-03
 Coeff-Com: -0.120D-02 0.119D-02-0.235D-01-0.373D-01 0.362D-01 0.102D+01
 Coeff-En:   0.000D+00 0.000D+00 0.000D+00 0.000D+00 0.000D+00 0.100D+01
 Coeff:     -0.120D-02 0.119D-02-0.235D-01-0.372D-01 0.361D-01 0.102D+01
 Gap=     0.053 Goal=   None    Shift=    0.000
 Gap=     0.030 Goal=   None    Shift=    0.000
 RMSDP=6.25D-04 MaxDP=7.37D-02 DE=-4.37D-04 OVMax= 9.99D-03

 Cycle   7  Pass 1  IDiag  1:
 E= -1136.05983313394     Delta-E=       -0.000012311797 Rises=F Damp=F
 DIIS: error= 7.09D-05 at cycle   7 NSaved=   7.
 NSaved= 7 IEnMin= 7 EnMin= -1136.05983313394     IErMin= 7 ErrMin= 7.09D-05
 ErrMax= 7.09D-05  0.00D+00 EMaxC= 1.00D-01 BMatC= 1.40D-06 BMatP= 3.82D-06
 IDIUse=1 WtCom= 1.00D+00 WtEn= 0.00D+00
 Coeff-Com: -0.562D-03 0.539D-03-0.245D-01-0.352D-01 0.510D-03 0.494D+00
 Coeff-Com:  0.565D+00
 Coeff:     -0.562D-03 0.539D-03-0.245D-01-0.352D-01 0.510D-03 0.494D+00
 Coeff:      0.565D+00
 Gap=     0.053 Goal=   None    Shift=    0.000
 Gap=     0.031 Goal=   None    Shift=    0.000
 RMSDP=1.79D-04 MaxDP=1.01D-02 DE=-1.23D-05 OVMax= 5.46D-03

 Cycle   8  Pass 1  IDiag  1:
 E= -1136.05983782304     Delta-E=       -0.000004689105 Rises=F Damp=F
 DIIS: error= 6.92D-05 at cycle   8 NSaved=   8.
 NSaved= 8 IEnMin= 8 EnMin= -1136.05983782304     IErMin= 8 ErrMin= 6.92D-05
 ErrMax= 6.92D-05  0.00D+00 EMaxC= 1.00D-01 BMatC= 7.43D-07 BMatP= 1.40D-06
 IDIUse=1 WtCom= 1.00D+00 WtEn= 0.00D+00
 Coeff-Com:  0.456D-03-0.515D-03 0.448D-04 0.379D-02-0.223D-01-0.345D+00
 Coeff-Com:  0.334D+00 0.103D+01
 Coeff:      0.456D-03-0.515D-03 0.448D-04 0.379D-02-0.223D-01-0.345D+00
 Coeff:      0.334D+00 0.103D+01
 Gap=     0.053 Goal=   None    Shift=    0.000
 Gap=     0.031 Goal=   None    Shift=    0.000
 RMSDP=2.93D-04 MaxDP=1.98D-02 DE=-4.69D-06 OVMax= 1.20D-02

 Cycle   9  Pass 1  IDiag  1:
 E= -1136.05984608697     Delta-E=       -0.000008263924 Rises=F Damp=F
 DIIS: error= 6.37D-05 at cycle   9 NSaved=   9.
 NSaved= 9 IEnMin= 9 EnMin= -1136.05984608697     IErMin= 9 ErrMin= 6.37D-05
 ErrMax= 6.37D-05  0.00D+00 EMaxC= 1.00D-01 BMatC= 4.16D-07 BMatP= 7.43D-07
 IDIUse=1 WtCom= 1.00D+00 WtEn= 0.00D+00
 Coeff-Com:  0.154D-03-0.153D-03 0.529D-02 0.897D-02-0.445D-02-0.155D+00
 Coeff-Com: -0.124D+00 0.100D+00 0.117D+01
 Coeff:      0.154D-03-0.153D-03 0.529D-02 0.897D-02-0.445D-02-0.155D+00
 Coeff:     -0.124D+00 0.100D+00 0.117D+01
 Gap=     0.053 Goal=   None    Shift=    0.000
 Gap=     0.031 Goal=   None    Shift=    0.000
 RMSDP=2.05D-04 MaxDP=1.10D-02 DE=-8.26D-06 OVMax= 1.22D-02

 Cycle  10  Pass 1  IDiag  1:
 E= -1136.05985306453     Delta-E=       -0.000006977567 Rises=F Damp=F
 DIIS: error= 5.82D-05 at cycle  10 NSaved=  10.
 NSaved=10 IEnMin=10 EnMin= -1136.05985306453     IErMin=10 ErrMin= 5.82D-05
 ErrMax= 5.82D-05  0.00D+00 EMaxC= 1.00D-01 BMatC= 3.21D-07 BMatP= 4.16D-07
 IDIUse=1 WtCom= 1.00D+00 WtEn= 0.00D+00
 Coeff-Com: -0.296D-03 0.389D-03 0.529D-02 0.440D-02 0.152D-01 0.134D+00
 Coeff-Com: -0.265D+00-0.631D+00 0.245D+00 0.149D+01
 Coeff:     -0.296D-03 0.389D-03 0.529D-02 0.440D-02 0.152D-01 0.134D+00
 Coeff:     -0.265D+00-0.631D+00 0.245D+00 0.149D+01
 Gap=     0.053 Goal=   None    Shift=    0.000
 Gap=     0.031 Goal=   None    Shift=    0.000
 RMSDP=3.01D-04 MaxDP=1.55D-02 DE=-6.98D-06 OVMax= 1.99D-02

 Cycle  11  Pass 1  IDiag  1:
 E= -1136.05986276516     Delta-E=       -0.000009700632 Rises=F Damp=F
 DIIS: error= 4.85D-05 at cycle  11 NSaved=  11.
 NSaved=11 IEnMin=11 EnMin= -1136.05986276516     IErMin=11 ErrMin= 4.85D-05
 ErrMax= 4.85D-05  0.00D+00 EMaxC= 1.00D-01 BMatC= 2.31D-07 BMatP= 3.21D-07
 IDIUse=1 WtCom= 1.00D+00 WtEn= 0.00D+00
 Coeff-Com: -0.275D-03 0.325D-03-0.353D-02-0.650D-02 0.668D-02 0.154D+00
 Coeff-Com:  0.104D+00-0.729D-01-0.103D+01-0.895D-03 0.185D+01
 Coeff:     -0.275D-03 0.325D-03-0.353D-02-0.650D-02 0.668D-02 0.154D+00
 Coeff:      0.104D+00-0.729D-01-0.103D+01-0.895D-03 0.185D+01
 Gap=     0.053 Goal=   None    Shift=    0.000
 Gap=     0.031 Goal=   None    Shift=    0.000
 RMSDP=4.04D-04 MaxDP=2.79D-02 DE=-9.70D-06 OVMax= 2.68D-02

 Cycle  12  Pass 1  IDiag  1:
 E= -1136.05987311248     Delta-E=       -0.000010347316 Rises=F Damp=F
 DIIS: error= 3.52D-05 at cycle  12 NSaved=  12.
 NSaved=12 IEnMin=12 EnMin= -1136.05987311248     IErMin=12 ErrMin= 3.52D-05
 ErrMax= 3.52D-05  0.00D+00 EMaxC= 1.00D-01 BMatC= 1.86D-07 BMatP= 2.31D-07
 IDIUse=1 WtCom= 1.00D+00 WtEn= 0.00D+00
 Coeff-Com: -0.687D-04 0.548D-04-0.760D-02-0.963D-02-0.383D-02 0.779D-01
 Coeff-Com:  0.265D+00 0.348D+00-0.107D+01-0.101D+01 0.153D+01 0.877D+00
 Coeff:     -0.687D-04 0.548D-04-0.760D-02-0.963D-02-0.383D-02 0.779D-01
 Coeff:      0.265D+00 0.348D+00-0.107D+01-0.101D+01 0.153D+01 0.877D+00
 Gap=     0.053 Goal=   None    Shift=    0.000
 Gap=     0.031 Goal=   None    Shift=    0.000
 RMSDP=3.56D-04 MaxDP=2.71D-02 DE=-1.03D-05 OVMax= 2.25D-02

 Cycle  13  Pass 1  IDiag  1:
 E= -1136.05987949238     Delta-E=       -0.000006379904 Rises=F Damp=F
 DIIS: error= 2.40D-05 at cycle  13 NSaved=  13.
 NSaved=13 IEnMin=13 EnMin= -1136.05987949238     IErMin=13 ErrMin= 2.40D-05
 ErrMax= 2.40D-05  0.00D+00 EMaxC= 1.00D-01 BMatC= 8.69D-08 BMatP= 1.86D-07
 IDIUse=1 WtCom= 1.00D+00 WtEn= 0.00D+00
 Coeff-Com:  0.181D-03-0.200D-03-0.179D-02-0.163D-03-0.678D-02-0.435D-01
 Coeff-Com: -0.162D-01 0.131D+00 0.639D+00-0.201D+00-0.164D+01 0.359D+00
 Coeff-Com:  0.178D+01
 Coeff:      0.181D-03-0.200D-03-0.179D-02-0.163D-03-0.678D-02-0.435D-01
 Coeff:     -0.162D-01 0.131D+00 0.639D+00-0.201D+00-0.164D+01 0.359D+00
 Coeff:      0.178D+01
 Gap=     0.052 Goal=   None    Shift=    0.000
 Gap=     0.031 Goal=   None    Shift=    0.000
 RMSDP=5.41D-04 MaxDP=4.43D-02 DE=-6.38D-06 OVMax= 3.08D-02

 Cycle  14  Pass 1  IDiag  1:
 E= -1136.05988445304     Delta-E=       -0.000004960654 Rises=F Damp=F
 DIIS: error= 8.74D-06 at cycle  14 NSaved=  14.
 NSaved=14 IEnMin=14 EnMin= -1136.05988445304     IErMin=14 ErrMin= 8.74D-06
 ErrMax= 8.74D-06  0.00D+00 EMaxC= 1.00D-01 BMatC= 1.35D-08 BMatP= 8.69D-08
 IDIUse=1 WtCom= 1.00D+00 WtEn= 0.00D+00
 Coeff-Com: -0.138D-03 0.187D-03 0.121D-02 0.446D-03 0.594D-02 0.566D-01
 Coeff-Com: -0.902D-01-0.250D+00 0.176D+00 0.388D+00-0.144D+00-0.278D+00
 Coeff-Com: -0.298D+00 0.143D+01
 Coeff:     -0.138D-03 0.187D-03 0.121D-02 0.446D-03 0.594D-02 0.566D-01
 Coeff:     -0.902D-01-0.250D+00 0.176D+00 0.388D+00-0.144D+00-0.278D+00
 Coeff:     -0.298D+00 0.143D+01
 Gap=     0.052 Goal=   None    Shift=    0.000
 Gap=     0.031 Goal=   None    Shift=    0.000
 RMSDP=2.01D-04 MaxDP=1.64D-02 DE=-4.96D-06 OVMax= 1.12D-02

 Cycle  15  Pass 1  IDiag  1:
 E= -1136.05988509601     Delta-E=       -0.000000642969 Rises=F Damp=F
 DIIS: error= 2.93D-06 at cycle  15 NSaved=  15.
 NSaved=15 IEnMin=15 EnMin= -1136.05988509601     IErMin=15 ErrMin= 2.93D-06
 ErrMax= 2.93D-06  0.00D+00 EMaxC= 1.00D-01 BMatC= 2.58D-09 BMatP= 1.35D-08
 IDIUse=1 WtCom= 1.00D+00 WtEn= 0.00D+00
 Coeff-Com: -0.381D-04 0.433D-04 0.349D-03 0.231D-04 0.105D-02 0.142D-01
 Coeff-Com:  0.137D-01-0.169D-02-0.183D+00-0.631D-01 0.403D+00-0.209D-01
 Coeff-Com: -0.372D+00-0.252D-01 0.123D+01
 Coeff:     -0.381D-04 0.433D-04 0.349D-03 0.231D-04 0.105D-02 0.142D-01
 Coeff:      0.137D-01-0.169D-02-0.183D+00-0.631D-01 0.403D+00-0.209D-01
 Coeff:     -0.372D+00-0.252D-01 0.123D+01
 Gap=     0.052 Goal=   None    Shift=    0.000
 Gap=     0.031 Goal=   None    Shift=    0.000
 RMSDP=1.02D-04 MaxDP=7.98D-03 DE=-6.43D-07 OVMax= 5.85D-03

 Cycle  16  Pass 1  IDiag  1:
 E= -1136.05988517776     Delta-E=       -0.000000081751 Rises=F Damp=F
 DIIS: error= 2.31D-06 at cycle  16 NSaved=  16.
 NSaved=16 IEnMin=16 EnMin= -1136.05988517776     IErMin=16 ErrMin= 2.31D-06
 ErrMax= 2.31D-06  0.00D+00 EMaxC= 1.00D-01 BMatC= 1.15D-09 BMatP= 2.58D-09
 IDIUse=1 WtCom= 1.00D+00 WtEn= 0.00D+00
 Coeff-Com: -0.372D-04 0.441D-04-0.143D-03-0.472D-03 0.795D-03 0.145D-01
 Coeff-Com:  0.123D-01-0.245D-02-0.125D+00-0.260D-01 0.275D+00 0.342D-02
 Coeff-Com: -0.225D+00-0.179D+00 0.542D+00 0.711D+00
 Coeff:     -0.372D-04 0.441D-04-0.143D-03-0.472D-03 0.795D-03 0.145D-01
 Coeff:      0.123D-01-0.245D-02-0.125D+00-0.260D-01 0.275D+00 0.342D-02
 Coeff:     -0.225D+00-0.179D+00 0.542D+00 0.711D+00
 Gap=     0.052 Goal=   None    Shift=    0.000
 Gap=     0.031 Goal=   None    Shift=    0.000
 RMSDP=1.55D-05 MaxDP=9.38D-04 DE=-8.18D-08 OVMax= 8.17D-04

 Cycle  17  Pass 1  IDiag  1:
 E= -1136.05988517910     Delta-E=       -0.000000001345 Rises=F Damp=F
 DIIS: error= 1.03D-06 at cycle  17 NSaved=  17.
 NSaved=17 IEnMin=17 EnMin= -1136.05988517910     IErMin=17 ErrMin= 1.03D-06
 ErrMax= 1.03D-06  0.00D+00 EMaxC= 1.00D-01 BMatC= 3.21D-10 BMatP= 1.15D-09
 IDIUse=1 WtCom= 1.00D+00 WtEn= 0.00D+00
 Coeff-Com:  0.767D-05-0.109D-04-0.187D-03-0.164D-03-0.331D-03-0.151D-02
 Coeff-Com:  0.579D-02 0.145D-01-0.151D-01-0.279D-01 0.557D-02 0.273D-01
 Coeff-Com:  0.258D-01-0.981D-01 0.509D-01 0.333D+00 0.680D+00
 Coeff:      0.767D-05-0.109D-04-0.187D-03-0.164D-03-0.331D-03-0.151D-02
 Coeff:      0.579D-02 0.145D-01-0.151D-01-0.279D-01 0.557D-02 0.273D-01
 Coeff:      0.258D-01-0.981D-01 0.509D-01 0.333D+00 0.680D+00
 Gap=     0.052 Goal=   None    Shift=    0.000
 Gap=     0.031 Goal=   None    Shift=    0.000
 RMSDP=1.09D-05 MaxDP=8.95D-04 DE=-1.34D-09 OVMax= 5.92D-04

 Cycle  18  Pass 1  IDiag  1:
 E= -1136.05988518045     Delta-E=       -0.000000001346 Rises=F Damp=F
 DIIS: error= 4.12D-07 at cycle  18 NSaved=  18.
 NSaved=18 IEnMin=18 EnMin= -1136.05988518045     IErMin=18 ErrMin= 4.12D-07
 ErrMax= 4.12D-07  0.00D+00 EMaxC= 1.00D-01 BMatC= 6.12D-11 BMatP= 3.21D-10
 IDIUse=1 WtCom= 1.00D+00 WtEn= 0.00D+00
 Coeff-Com:  0.845D-05-0.102D-04-0.228D-04 0.581D-04-0.221D-03-0.316D-02
 Coeff-Com: -0.160D-02 0.231D-02 0.246D-01 0.624D-02-0.595D-01 0.399D-02
 Coeff-Com:  0.543D-01 0.142D-01-0.156D+00-0.498D-01 0.274D+00 0.890D+00
 Coeff:      0.845D-05-0.102D-04-0.228D-04 0.581D-04-0.221D-03-0.316D-02
 Coeff:     -0.160D-02 0.231D-02 0.246D-01 0.624D-02-0.595D-01 0.399D-02
 Coeff:      0.543D-01 0.142D-01-0.156D+00-0.498D-01 0.274D+00 0.890D+00
 Gap=     0.052 Goal=   None    Shift=    0.000
 Gap=     0.031 Goal=   None    Shift=    0.000
 RMSDP=2.61D-06 MaxDP=1.57D-04 DE=-1.35D-09 OVMax= 9.90D-05

 Cycle  19  Pass 1  IDiag  1:
 E= -1136.05988518072     Delta-E=       -0.000000000273 Rises=F Damp=F
 DIIS: error= 2.02D-07 at cycle  19 NSaved=  19.
 NSaved=19 IEnMin=19 EnMin= -1136.05988518072     IErMin=19 ErrMin= 2.02D-07
 ErrMax= 2.02D-07  0.00D+00 EMaxC= 1.00D-01 BMatC= 1.19D-11 BMatP= 6.12D-11
 IDIUse=1 WtCom= 1.00D+00 WtEn= 0.00D+00
 Coeff-Com: -0.537D-05 0.727D-05 0.705D-04 0.317D-04 0.207D-03 0.149D-02
 Coeff-Com: -0.230D-02-0.699D-02 0.160D-02 0.125D-01 0.688D-02-0.121D-01
 Coeff-Com: -0.208D-01 0.367D-01-0.559D-02-0.933D-01-0.332D+00-0.208D+00
 Coeff-Com:  0.162D+01
 Coeff:     -0.537D-05 0.727D-05 0.705D-04 0.317D-04 0.207D-03 0.149D-02
 Coeff:     -0.230D-02-0.699D-02 0.160D-02 0.125D-01 0.688D-02-0.121D-01
 Coeff:     -0.208D-01 0.367D-01-0.559D-02-0.933D-01-0.332D+00-0.208D+00
 Coeff:      0.162D+01
 Gap=     0.052 Goal=   None    Shift=    0.000
 Gap=     0.031 Goal=   None    Shift=    0.000
 RMSDP=2.74D-06 MaxDP=2.37D-04 DE=-2.73D-10 OVMax= 9.14D-05

 Cycle  20  Pass 1  IDiag  1:
 E= -1136.05988518088     Delta-E=       -0.000000000161 Rises=F Damp=F
 DIIS: error= 1.11D-07 at cycle  20 NSaved=  20.
 NSaved=20 IEnMin=20 EnMin= -1136.05988518088     IErMin=20 ErrMin= 1.11D-07
 ErrMax= 1.11D-07  0.00D+00 EMaxC= 1.00D-01 BMatC= 3.92D-12 BMatP= 1.19D-11
 IDIUse=1 WtCom= 1.00D+00 WtEn= 0.00D+00
 Coeff-Com: -0.182D-05 0.209D-05 0.118D-04-0.959D-06 0.374D-04 0.460D-03
 Coeff-Com:  0.689D-03 0.331D-03-0.591D-02-0.389D-02 0.160D-01-0.244D-03
 Coeff-Com: -0.133D-01-0.527D-02 0.401D-01 0.344D-01-0.105D+00-0.958D-01
 Coeff-Com: -0.127D+00 0.126D+01
 Coeff:     -0.182D-05 0.209D-05 0.118D-04-0.959D-06 0.374D-04 0.460D-03
 Coeff:      0.689D-03 0.331D-03-0.591D-02-0.389D-02 0.160D-01-0.244D-03
 Coeff:     -0.133D-01-0.527D-02 0.401D-01 0.344D-01-0.105D+00-0.958D-01
 Coeff:     -0.127D+00 0.126D+01
 Gap=     0.052 Goal=   None    Shift=    0.000
 Gap=     0.031 Goal=   None    Shift=    0.000
 RMSDP=1.05D-06 MaxDP=8.58D-05 DE=-1.61D-10 OVMax= 3.13D-05

 Cycle  21  Pass 1  IDiag  1:
 E= -1136.05988518091     Delta-E=       -0.000000000025 Rises=F Damp=F
 DIIS: error= 3.34D-08 at cycle  21 NSaved=  20.
 NSaved=20 IEnMin=20 EnMin= -1136.05988518091     IErMin=20 ErrMin= 3.34D-08
 ErrMax= 3.34D-08  0.00D+00 EMaxC= 1.00D-01 BMatC= 3.03D-13 BMatP= 3.92D-12
 IDIUse=1 WtCom= 1.00D+00 WtEn= 0.00D+00
 Coeff-Com:  0.182D-06-0.872D-05-0.644D-05-0.220D-04-0.924D-04 0.123D-03
 Coeff-Com:  0.449D-03 0.154D-03-0.154D-03-0.109D-02 0.103D-02 0.226D-02
 Coeff-Com: -0.500D-02-0.529D-03 0.154D-01 0.384D-01 0.370D-01-0.231D+00
 Coeff-Com: -0.509D-01 0.119D+01
 Coeff:      0.182D-06-0.872D-05-0.644D-05-0.220D-04-0.924D-04 0.123D-03
 Coeff:      0.449D-03 0.154D-03-0.154D-03-0.109D-02 0.103D-02 0.226D-02
 Coeff:     -0.500D-02-0.529D-03 0.154D-01 0.384D-01 0.370D-01-0.231D+00
 Coeff:     -0.509D-01 0.119D+01
 Gap=     0.052 Goal=   None    Shift=    0.000
 Gap=     0.031 Goal=   None    Shift=    0.000
 RMSDP=7.82D-07 MaxDP=6.95D-05 DE=-2.50D-11 OVMax= 4.31D-05

 Cycle  22  Pass 1  IDiag  1:
 E= -1136.05988518090     Delta-E=        0.000000000004 Rises=F Damp=F
 DIIS: error= 4.19D-08 at cycle  22 NSaved=  20.
 NSaved=20 IEnMin=19 EnMin= -1136.05988518091     IErMin=19 ErrMin= 3.34D-08
 ErrMax= 4.19D-08  0.00D+00 EMaxC= 1.00D-01 BMatC= 3.21D-13 BMatP= 3.03D-13
 IDIUse=1 WtCom= 1.00D+00 WtEn= 0.00D+00
 Coeff-Com: -0.213D-06 0.196D-05-0.347D-05-0.123D-03-0.562D-04-0.179D-04
 Coeff-Com:  0.581D-03 0.805D-03-0.212D-02-0.276D-03 0.142D-02 0.139D-02
 Coeff-Com: -0.576D-02-0.226D-02-0.203D-02 0.166D-01 0.706D-01-0.321D+00
 Coeff-Com:  0.977D-01 0.114D+01
 Coeff:     -0.213D-06 0.196D-05-0.347D-05-0.123D-03-0.562D-04-0.179D-04
 Coeff:      0.581D-03 0.805D-03-0.212D-02-0.276D-03 0.142D-02 0.139D-02
 Coeff:     -0.576D-02-0.226D-02-0.203D-02 0.166D-01 0.706D-01-0.321D+00
 Coeff:      0.977D-01 0.114D+01
 Gap=     0.052 Goal=   None    Shift=    0.000
 Gap=     0.031 Goal=   None    Shift=    0.000
 RMSDP=4.18D-07 MaxDP=3.14D-05 DE= 4.09D-12 OVMax= 2.26D-05

 Cycle  23  Pass 1  IDiag  1:
 E= -1136.05988518090     Delta-E=       -0.000000000000 Rises=F Damp=F
 DIIS: error= 1.02D-08 at cycle  23 NSaved=  20.
 NSaved=20 IEnMin=18 EnMin= -1136.05988518091     IErMin=20 ErrMin= 1.02D-08
 ErrMax= 1.02D-08  0.00D+00 EMaxC= 1.00D-01 BMatC= 3.25D-14 BMatP= 3.03D-13
 IDIUse=1 WtCom= 1.00D+00 WtEn= 0.00D+00
 Coeff-Com:  0.109D-05-0.175D-05-0.347D-04-0.514D-04-0.790D-04 0.440D-03
 Coeff-Com:  0.309D-03-0.104D-02-0.171D-03 0.635D-03 0.106D-02-0.318D-02
 Coeff-Com: -0.330D-02-0.163D-02 0.316D-02 0.508D-01-0.963D-01-0.187D+00
 Coeff-Com:  0.417D+00 0.819D+00
 Coeff:      0.109D-05-0.175D-05-0.347D-04-0.514D-04-0.790D-04 0.440D-03
 Coeff:      0.309D-03-0.104D-02-0.171D-03 0.635D-03 0.106D-02-0.318D-02
 Coeff:     -0.330D-02-0.163D-02 0.316D-02 0.508D-01-0.963D-01-0.187D+00
 Coeff:      0.417D+00 0.819D+00
 Gap=     0.052 Goal=   None    Shift=    0.000
 Gap=     0.031 Goal=   None    Shift=    0.000
 RMSDP=6.44D-08 MaxDP=4.31D-06 DE=-4.55D-13 OVMax= 2.87D-06

 Cycle  24  Pass 1  IDiag  1:
 E= -1136.05988518091     Delta-E=       -0.000000000005 Rises=F Damp=F
 DIIS: error= 5.11D-09 at cycle  24 NSaved=  20.
 NSaved=20 IEnMin=20 EnMin= -1136.05988518091     IErMin=20 ErrMin= 5.11D-09
 ErrMax= 5.11D-09  0.00D+00 EMaxC= 1.00D-01 BMatC= 5.86D-15 BMatP= 3.25D-14
 IDIUse=1 WtCom= 1.00D+00 WtEn= 0.00D+00
 Large coefficients: NSaved= 20 BigCof=    0.00 CofMax=   10.00 Det=-8.18D-15
 Inversion failed.  Reducing to 19 matrices.
 Large coefficients: NSaved= 19 BigCof=    0.00 CofMax=   10.00 Det=-8.20D-15
 Inversion failed.  Reducing to 18 matrices.
 Large coefficients: NSaved= 18 BigCof=    0.00 CofMax=   10.00 Det=-8.22D-15
 Inversion failed.  Reducing to 17 matrices.
 Large coefficients: NSaved= 17 BigCof=    0.00 CofMax=   10.00 Det=-8.67D-15
 Inversion failed.  Reducing to 16 matrices.
 Large coefficients: NSaved= 16 BigCof=    0.00 CofMax=   10.00 Det=-9.82D-15
 Inversion failed.  Reducing to 15 matrices.
 Coeff-Com: -0.542D-04 0.219D-04 0.142D-04-0.497D-05 0.996D-04-0.106D-03
 Coeff-Com: -0.106D-02 0.110D-02-0.135D-02 0.547D-02 0.727D-02-0.717D-01
 Coeff-Com:  0.342D-01 0.123D+00 0.903D+00
 Coeff:     -0.542D-04 0.219D-04 0.142D-04-0.497D-05 0.996D-04-0.106D-03
 Coeff:     -0.106D-02 0.110D-02-0.135D-02 0.547D-02 0.727D-02-0.717D-01
 Coeff:      0.342D-01 0.123D+00 0.903D+00
 Gap=     0.052 Goal=   None    Shift=    0.000
 Gap=     0.031 Goal=   None    Shift=    0.000
 RMSDP=2.87D-08 MaxDP=3.45D-06 DE=-5.46D-12 OVMax= 1.09D-06

 Cycle  25  Pass 1  IDiag  1:
 E= -1136.05988518091     Delta-E=       -0.000000000001 Rises=F Damp=F
 DIIS: error= 2.18D-09 at cycle  25 NSaved=  16.
 NSaved=16 IEnMin=16 EnMin= -1136.05988518091     IErMin=16 ErrMin= 2.18D-09
 ErrMax= 2.18D-09  0.00D+00 EMaxC= 1.00D-01 BMatC= 1.45D-15 BMatP= 5.86D-15
 IDIUse=1 WtCom= 1.00D+00 WtEn= 0.00D+00
 Large coefficients: NSaved= 16 BigCof=    0.00 CofMax=   10.00 Det=-1.40D-15
 Inversion failed.  Reducing to 15 matrices.
 Coeff-Com:  0.922D-05 0.323D-05-0.132D-04-0.183D-05 0.204D-03-0.416D-03
 Coeff-Com:  0.927D-03-0.890D-03-0.523D-02 0.176D-01 0.142D-01-0.606D-01
 Coeff-Com: -0.124D+00 0.143D+00 0.102D+01
 Coeff:      0.922D-05 0.323D-05-0.132D-04-0.183D-05 0.204D-03-0.416D-03
 Coeff:      0.927D-03-0.890D-03-0.523D-02 0.176D-01 0.142D-01-0.606D-01
 Coeff:     -0.124D+00 0.143D+00 0.102D+01
 Gap=     0.052 Goal=   None    Shift=    0.000
 Gap=     0.031 Goal=   None    Shift=    0.000
 RMSDP=1.44D-08 MaxDP=8.89D-07 DE=-9.09D-13 OVMax= 7.15D-07

 Cycle  26  Pass 1  IDiag  1:
 E= -1136.05988518090     Delta-E=        0.000000000007 Rises=F Damp=F
 DIIS: error= 8.40D-10 at cycle  26 NSaved=  16.
 NSaved=16 IEnMin=15 EnMin= -1136.05988518091     IErMin=16 ErrMin= 8.40D-10
 ErrMax= 8.40D-10  0.00D+00 EMaxC= 1.00D-01 BMatC= 1.90D-16 BMatP= 1.45D-15
 IDIUse=1 WtCom= 1.00D+00 WtEn= 0.00D+00
 Large coefficients: NSaved= 16 BigCof=    0.00 CofMax=   10.00 Det=-3.68D-16
 Inversion failed.  Reducing to 15 matrices.
 Coeff-Com:  0.422D-05 0.229D-05-0.194D-04 0.103D-03 0.310D-04 0.267D-03
 Coeff-Com: -0.123D-03-0.295D-02 0.521D-02 0.178D-01-0.315D-01-0.868D-01
 Coeff-Com: -0.665D-01 0.441D+00 0.723D+00
 Coeff:      0.422D-05 0.229D-05-0.194D-04 0.103D-03 0.310D-04 0.267D-03
 Coeff:     -0.123D-03-0.295D-02 0.521D-02 0.178D-01-0.315D-01-0.868D-01
 Coeff:     -0.665D-01 0.441D+00 0.723D+00
 Gap=     0.052 Goal=   None    Shift=    0.000
 Gap=     0.031 Goal=   None    Shift=    0.000
 RMSDP=7.94D-09 MaxDP=7.20D-07 DE= 7.28D-12 OVMax= 2.25D-07

 SCF Done:  E(UB3LYP) =  -1136.05988518     A.U. after   26 cycles
            NFock= 26  Conv=0.79D-08     -V/T= 2.0022
 <Sx>= 0.0000 <Sy>= 0.0000 <Sz>= 0.5000 <S**2>= 0.7605 S= 0.5053
 <L.S>= 0.000000000000E+00
 KE= 1.133577186602D+03 PE=-3.560053534855D+03 EE= 8.750513097314D+02
 Annihilation of the first spin contaminant:
 S**2 before annihilation     0.7605,   after     0.7501
 Leave Link  502 at Mon Nov 13 20:04:05 2023, MaxMem=  1879048192 cpu:             247.6 elap:              21.2
 (Enter /home/sekinelabo/g16/l601.exe)
 Copying SCF densities to generalized density rwf, IOpCl= 1 IROHF=0.

 **********************************************************************

            Population analysis using the SCF Density.

 **********************************************************************

 Orbital symmetries:
 Alpha Orbitals:
       Occupied  (A) (A) (A) (A) (A) (A) (A) (A) (A) (A) (A) (A)
                 (A) (A) (A) (A) (A) (A) (A) (A) (A) (A) (A) (A)
                 (A) (A) (A) (A) (A) (A) (A) (A) (A) (A) (A) (A)
                 (A) (A) (A)
       Virtual   (A) (A) (A) (A) (A) (A) (A) (A) (A) (A) (A) (A)
                 (A) (A) (A) (A) (A) (A) (A) (A) (A) (A) (A) (A)
                 (A) (A) (A) (A) (A) (A) (A) (A) (A) (A) (A) (A)
                 (A) (A) (A) (A) (A) (A) (A) (A) (A) (A) (A) (A)
                 (A) (A) (A) (A) (A) (A) (A) (A) (A) (A) (A) (A)
                 (A) (A) (A) (A) (A) (A) (A) (A) (A) (A) (A) (A)
                 (A) (A) (A) (A) (A) (A) (A) (A) (A) (A) (A) (A)
                 (A) (A) (A) (A) (A) (A) (A) (A) (A) (A) (A) (A)
                 (A) (A) (A) (A) (A) (A) (A) (A) (A) (A) (A) (A)
                 (A) (A) (A) (A) (A) (A) (A) (A) (A) (A) (A) (A)
                 (A) (A) (A) (A) (A) (A) (A) (A) (A) (A) (A) (A)
                 (A) (A) (A) (A) (A) (A) (A) (A) (A) (A) (A) (A)
                 (A) (A) (A) (A) (A) (A) (A) (A) (A) (A) (A) (A)
                 (A) (A) (A) (A) (A) (A) (A) (A) (A) (A) (A) (A)
                 (A) (A)
 Beta  Orbitals:
       Occupied  (A) (A) (A) (A) (A) (A) (A) (A) (A) (A) (A) (A)
                 (A) (A) (A) (A) (A) (A) (A) (A) (A) (A) (A) (A)
                 (A) (A) (A) (A) (A) (A) (A) (A) (A) (A) (A) (A)
                 (A) (A)
       Virtual   (A) (A) (A) (A) (A) (A) (A) (A) (A) (A) (A) (A)
                 (A) (A) (A) (A) (A) (A) (A) (A) (A) (A) (A) (A)
                 (A) (A) (A) (A) (A) (A) (A) (A) (A) (A) (A) (A)
                 (A) (A) (A) (A) (A) (A) (A) (A) (A) (A) (A) (A)
                 (A) (A) (A) (A) (A) (A) (A) (A) (A) (A) (A) (A)
                 (A) (A) (A) (A) (A) (A) (A) (A) (A) (A) (A) (A)
                 (A) (A) (A) (A) (A) (A) (A) (A) (A) (A) (A) (A)
                 (A) (A) (A) (A) (A) (A) (A) (A) (A) (A) (A) (A)
                 (A) (A) (A) (A) (A) (A) (A) (A) (A) (A) (A) (A)
                 (A) (A) (A) (A) (A) (A) (A) (A) (A) (A) (A) (A)
                 (A) (A) (A) (A) (A) (A) (A) (A) (A) (A) (A) (A)
                 (A) (A) (A) (A) (A) (A) (A) (A) (A) (A) (A) (A)
                 (A) (A) (A) (A) (A) (A) (A) (A) (A) (A) (A) (A)
                 (A) (A) (A) (A) (A) (A) (A) (A) (A) (A) (A) (A)
                 (A) (A) (A)
 The electronic state is 2-A.
 Alpha  occ. eigenvalues --  -38.45202 -38.44904 -38.44576 -38.43973 -38.43643
 Alpha  occ. eigenvalues --  -38.43432 -38.43052  -2.21154  -2.21114  -2.20798
 Alpha  occ. eigenvalues --   -2.20212  -2.19798  -2.19730  -2.19302  -1.15025
 Alpha  occ. eigenvalues --   -1.14909  -1.14857  -1.14792  -1.14739  -1.14715
 Alpha  occ. eigenvalues --   -1.14673  -1.14521  -1.14413  -1.13865  -1.13841
 Alpha  occ. eigenvalues --   -1.13757  -1.13582  -1.13462  -1.13415  -1.13382
 Alpha  occ. eigenvalues --   -1.13357  -1.13219  -1.12999  -1.12930  -1.12848
 Alpha  occ. eigenvalues --   -0.21813  -0.14466  -0.12851  -0.11667
 Alpha virt. eigenvalues --   -0.06441  -0.04106  -0.03744  -0.03701  -0.02685
 Alpha virt. eigenvalues --   -0.02515  -0.01856  -0.00445  -0.00203   0.00229
 Alpha virt. eigenvalues --    0.00569   0.00745   0.00851   0.00962   0.01091
 Alpha virt. eigenvalues --    0.01364   0.01404   0.01490   0.01512   0.01622
 Alpha virt. eigenvalues --    0.01701   0.01745   0.01823   0.01935   0.02128
 Alpha virt. eigenvalues --    0.02379   0.02638   0.02758   0.02904   0.02969
 Alpha virt. eigenvalues --    0.03022   0.03043   0.03127   0.03286   0.03496
 Alpha virt. eigenvalues --    0.03673   0.03865   0.04028   0.04111   0.04224
 Alpha virt. eigenvalues --    0.04472   0.04868   0.05024   0.05449   0.05559
 Alpha virt. eigenvalues --    0.05758   0.06032   0.06127   0.06301   0.06352
 Alpha virt. eigenvalues --    0.06951   0.06988   0.07104   0.07184   0.07375
 Alpha virt. eigenvalues --    0.08617   0.09052   0.09585   0.09878   0.10051
 Alpha virt. eigenvalues --    0.10313   0.10549   0.11491   0.12862   0.13303
 Alpha virt. eigenvalues --    0.13567   0.14136   0.14206   0.14483   0.14951
 Alpha virt. eigenvalues --    0.15036   0.15550   0.15777   0.16150   0.16705
 Alpha virt. eigenvalues --    0.17944   0.18180   0.19191   0.20529   0.21046
 Alpha virt. eigenvalues --    0.22333   0.25704   0.27106   0.28999   0.31045
 Alpha virt. eigenvalues --    0.32413   0.33415   0.34469   0.34989   0.35660
 Alpha virt. eigenvalues --    0.36280   0.36519   0.37476   0.38080   0.40218
 Alpha virt. eigenvalues --    0.40599   0.41806   0.41946   0.43045   0.44778
 Alpha virt. eigenvalues --    0.45001   0.45198   0.46454   0.47052   0.47587
 Alpha virt. eigenvalues --    0.47964   0.48218   0.48664   0.48919   0.49627
 Alpha virt. eigenvalues --    0.49884   0.50244   0.51299   0.52199   0.52808
 Alpha virt. eigenvalues --    0.54422   0.55154   0.56722   0.57479   0.58234
 Alpha virt. eigenvalues --    0.59079   0.62566   0.69324   0.70425   0.71012
 Alpha virt. eigenvalues --    0.72587   0.74854   0.76955   0.78463   0.80342
 Alpha virt. eigenvalues --    0.80970   0.81750   0.84030   0.88350   0.89988
 Alpha virt. eigenvalues --    2.13613   2.23146   2.27907   2.29243   2.30001
 Alpha virt. eigenvalues --    2.32810   2.39584   4.40633   4.41080   4.41686
 Alpha virt. eigenvalues --    4.42488   4.43568   4.44213   4.45287   4.46417
 Alpha virt. eigenvalues --    4.50510   4.55692   4.57413   4.63975   4.71416
 Alpha virt. eigenvalues --    4.74211   4.76726   4.78972   4.80330   4.81633
 Alpha virt. eigenvalues --    4.84617   4.84942   4.98788  96.36185  96.48183
 Alpha virt. eigenvalues --   96.58083  96.58770  96.59587  96.63574  96.72530
  Beta  occ. eigenvalues --  -38.45209 -38.44808 -38.44490 -38.43942 -38.43622
  Beta  occ. eigenvalues --  -38.43401 -38.43028  -2.21128  -2.20982  -2.20644
  Beta  occ. eigenvalues --   -2.20164  -2.19765  -2.19684  -2.19266  -1.14927
  Beta  occ. eigenvalues --   -1.14866  -1.14803  -1.14774  -1.14717  -1.14610
  Beta  occ. eigenvalues --   -1.14589  -1.14404  -1.14291  -1.13815  -1.13811
  Beta  occ. eigenvalues --   -1.13672  -1.13558  -1.13434  -1.13372  -1.13334
  Beta  occ. eigenvalues --   -1.13257  -1.13198  -1.12980  -1.12842  -1.12831
  Beta  occ. eigenvalues --   -0.20907  -0.14213  -0.11432
  Beta virt. eigenvalues --   -0.08348  -0.06304  -0.03846  -0.03230  -0.03151
  Beta virt. eigenvalues --   -0.01979  -0.01834  -0.01662  -0.00335  -0.00051
  Beta virt. eigenvalues --    0.00275   0.00592   0.00779   0.00993   0.01029
  Beta virt. eigenvalues --    0.01091   0.01444   0.01470   0.01532   0.01633
  Beta virt. eigenvalues --    0.01723   0.01808   0.01833   0.01868   0.02041
  Beta virt. eigenvalues --    0.02170   0.02400   0.02648   0.02905   0.02917
  Beta virt. eigenvalues --    0.03008   0.03052   0.03090   0.03122   0.03325
  Beta virt. eigenvalues --    0.03538   0.03832   0.04025   0.04158   0.04322
  Beta virt. eigenvalues --    0.04370   0.04584   0.04950   0.05101   0.05528
  Beta virt. eigenvalues --    0.05796   0.05883   0.06103   0.06274   0.06373
  Beta virt. eigenvalues --    0.06607   0.07031   0.07120   0.07177   0.07210
  Beta virt. eigenvalues --    0.07413   0.08848   0.09142   0.09779   0.10107
  Beta virt. eigenvalues --    0.10364   0.10568   0.10897   0.11657   0.12936
  Beta virt. eigenvalues --    0.13396   0.13777   0.14405   0.14516   0.14642
  Beta virt. eigenvalues --    0.15199   0.15347   0.15816   0.15944   0.16228
  Beta virt. eigenvalues --    0.16792   0.18219   0.18325   0.19475   0.21160
  Beta virt. eigenvalues --    0.21575   0.22538   0.26422   0.27753   0.29069
  Beta virt. eigenvalues --    0.31239   0.32637   0.33742   0.34855   0.35100
  Beta virt. eigenvalues --    0.36085   0.36744   0.36927   0.37669   0.38353
  Beta virt. eigenvalues --    0.40332   0.40850   0.42194   0.42400   0.43130
  Beta virt. eigenvalues --    0.45010   0.45121   0.45306   0.46470   0.47372
  Beta virt. eigenvalues --    0.47922   0.48068   0.48402   0.49001   0.49291
  Beta virt. eigenvalues --    0.49657   0.49961   0.50386   0.51766   0.52322
  Beta virt. eigenvalues --    0.53047   0.54773   0.55419   0.56937   0.57548
  Beta virt. eigenvalues --    0.58573   0.59357   0.63038   0.69449   0.70566
  Beta virt. eigenvalues --    0.71387   0.72693   0.74960   0.77161   0.78632
  Beta virt. eigenvalues --    0.80413   0.81242   0.82071   0.84133   0.88493
  Beta virt. eigenvalues --    0.90285   2.13592   2.23318   2.28029   2.29522
  Beta virt. eigenvalues --    2.30174   2.32903   2.39687   4.40667   4.41221
  Beta virt. eigenvalues --    4.41730   4.42632   4.43662   4.44260   4.45318
  Beta virt. eigenvalues --    4.46465   4.50593   4.55778   4.57546   4.64031
  Beta virt. eigenvalues --    4.71466   4.74355   4.76779   4.79039   4.80402
  Beta virt. eigenvalues --    4.81679   4.84648   4.85094   4.98837  96.36182
  Beta virt. eigenvalues --   96.48240  96.58140  96.58870  96.59639  96.63618
  Beta virt. eigenvalues --   96.72577
          Condensed to atoms (all electrons):
               1          2          3          4          5          6
     1  Na  14.677368  -1.297812  -0.660224  -3.008937   0.236324   0.583798
     2  Na  -1.297812  14.225802   0.621541   1.408231  -0.165478  -0.199026
     3  Na  -0.660224   0.621541  13.742072   1.064867  -0.849249  -0.788626
     4  Na  -3.008937   1.408231   1.064867  14.970268  -0.324054  -0.679194
     5  Na   0.236324  -0.165478  -0.849249  -0.324054  11.832467  -0.328092
     6  Na   0.583798  -0.199026  -0.788626  -0.679194  -0.328092  11.798977
     7  Na   0.263877  -3.356324  -1.898956  -2.114801   0.410926   0.452534
               7
     1  Na   0.263877
     2  Na  -3.356324
     3  Na  -1.898956
     4  Na  -2.114801
     5  Na   0.410926
     6  Na   0.452534
     7  Na  17.010398
          Atomic-Atomic Spin Densities.
               1          2          3          4          5          6
     1  Na  -0.540606   0.618347   0.421381   0.389944  -0.106453  -0.143913
     2  Na   0.618347  -0.123009   0.012605  -0.590955  -0.096017   0.227282
     3  Na   0.421381   0.012605  -0.326880  -0.494307   0.160064   0.241925
     4  Na   0.389944  -0.590955  -0.494307  -0.520334   0.194644   0.238051
     5  Na  -0.106453  -0.096017   0.160064   0.194644   0.219713  -0.135437
     6  Na  -0.143913   0.227282   0.241925   0.238051  -0.135437   0.146464
     7  Na  -0.626446   0.175532  -0.154735   0.844540   0.206811  -0.159666
               7
     1  Na  -0.626446
     2  Na   0.175532
     3  Na  -0.154735
     4  Na   0.844540
     5  Na   0.206811
     6  Na  -0.159666
     7  Na  -0.301744
 Mulliken charges and spin densities:
               1          2
     1  Na   0.205605   0.012254
     2  Na  -0.236933   0.223786
     3  Na  -0.231424  -0.139948
     4  Na  -0.316380   0.061584
     5  Na   0.187157   0.443325
     6  Na   0.159629   0.414706
     7  Na   0.232346  -0.015707
 Sum of Mulliken charges =  -0.00000   1.00000
 Mulliken charges and spin densities with hydrogens summed into heavy atoms:
               1          2
     1  Na   0.205605   0.012254
     2  Na  -0.236933   0.223786
     3  Na  -0.231424  -0.139948
     4  Na  -0.316380   0.061584
     5  Na   0.187157   0.443325
     6  Na   0.159629   0.414706
     7  Na   0.232346  -0.015707
 Electronic spatial extent (au):  <R**2>=           1622.7054
 Charge=             -0.0000 electrons
 Dipole moment (field-independent basis, Debye):
    X=              0.7646    Y=             -0.0309    Z=             -0.1251  Tot=              0.7753
 Quadrupole moment (field-independent basis, Debye-Ang):
   XX=            -51.4265   YY=            -77.7143   ZZ=            -66.2289
   XY=              0.1128   XZ=              0.0349   YZ=              3.0615
 Traceless Quadrupole moment (field-independent basis, Debye-Ang):
   XX=             13.6968   YY=            -12.5911   ZZ=             -1.1056
   XY=              0.1128   XZ=              0.0349   YZ=              3.0615
 Octapole moment (field-independent basis, Debye-Ang**2):
  XXX=             42.3530  YYY=              0.3506  ZZZ=             -0.9518  XYY=             -1.3933
  XXY=             -3.7224  XXZ=             -2.3193  XZZ=             -3.5994  YZZ=              0.7629
  YYZ=             -0.1515  XYZ=             -2.0893
 Hexadecapole moment (field-independent basis, Debye-Ang**3):
 XXXX=          -1106.1820 YYYY=           -894.6308 ZZZZ=           -626.4282 XXXY=             -4.2670
 XXXZ=             -7.1423 YYYX=              8.2845 YYYZ=             33.4614 ZZZX=              6.7675
 ZZZY=             -1.3416 XXYY=           -359.9391 XXZZ=           -370.0081 YYZZ=           -273.6344
 XXYZ=             21.6510 YYXZ=             -1.2441 ZZXY=             -3.1817
 N-N= 4.153651533410D+02 E-N=-3.560053534936D+03  KE= 1.133577186602D+03
                          Isotropic Fermi Contact Couplings
        Atom                 a.u.       MegaHertz       Gauss      10(-4) cm-1
     1  Na(23)             0.03495      41.34696      14.75362      13.79186
     2  Na(23)             0.03836      45.38051      16.19289      15.13731
     3  Na(23)            -0.04500     -53.23951     -18.99718     -17.75879
     4  Na(23)             0.01550      18.33778       6.54338       6.11683
     5  Na(23)             0.37946     448.91744     160.18491     149.74274
     6  Na(23)             0.34329     406.11725     144.91274     135.46613
     7  Na(23)             0.01110      13.12899       4.68475       4.37936
 --------------------------------------------------------
       Center         ----  Spin Dipole Couplings  ----
                      3XX-RR        3YY-RR        3ZZ-RR
 --------------------------------------------------------
     1   Atom       -0.026415     -0.040846      0.067261
     2   Atom       -0.038084     -0.035723      0.073807
     3   Atom       -0.000631     -0.009177      0.009808
     4   Atom       -0.035705     -0.031930      0.067635
     5   Atom       -0.001786      0.028196     -0.026410
     6   Atom        0.001011      0.024175     -0.025186
     7   Atom       -0.026056     -0.034073      0.060129
 --------------------------------------------------------
                        XY            XZ            YZ
 --------------------------------------------------------
     1   Atom        0.000262      0.035015     -0.010968
     2   Atom        0.002404      0.021881     -0.007236
     3   Atom        0.000389      0.002010      0.002929
     4   Atom        0.000182     -0.025699     -0.000528
     5   Atom       -0.003613     -0.004280      0.000693
     6   Atom        0.000056      0.000869     -0.000377
     7   Atom       -0.001049     -0.022428     -0.004775
 --------------------------------------------------------


 ---------------------------------------------------------------------------------
              Anisotropic Spin Dipole Couplings in Principal Axis System
 ---------------------------------------------------------------------------------

       Atom             a.u.   MegaHertz   Gauss  10(-4) cm-1        Axes

              Baa    -0.0440    -6.216    -2.218    -2.073 -0.4774  0.8470  0.2337
     1 Na(23) Bbb    -0.0358    -5.051    -1.802    -1.685  0.8215  0.5247 -0.2233
              Bcc     0.0798    11.267     4.020     3.758  0.3118 -0.0854  0.9463
 
              Baa    -0.0440    -6.207    -2.215    -2.070  0.8845 -0.4258 -0.1905
     2 Na(23) Bbb    -0.0344    -4.853    -1.732    -1.619  0.4290  0.9029 -0.0264
              Bcc     0.0783    11.060     3.947     3.689  0.1833 -0.0584  0.9813
 
              Baa    -0.0096    -1.358    -0.485    -0.453 -0.0097  0.9889 -0.1481
     3 Na(23) Bbb    -0.0010    -0.142    -0.051    -0.047  0.9838 -0.0171 -0.1783
              Bcc     0.0106     1.500     0.535     0.500  0.1788  0.1474  0.9728
 
              Baa    -0.0417    -5.895    -2.103    -1.966  0.9735 -0.0058  0.2287
     4 Na(23) Bbb    -0.0319    -4.509    -1.609    -1.504  0.0044  1.0000  0.0064
              Bcc     0.0737    10.404     3.712     3.470 -0.2287 -0.0053  0.9735
 
              Baa    -0.0271    -3.831    -1.367    -1.278  0.1663 -0.0015  0.9861
     5 Na(23) Bbb    -0.0015    -0.214    -0.077    -0.072  0.9786  0.1228 -0.1648
              Bcc     0.0287     4.046     1.444     1.350 -0.1209  0.9924  0.0219
 
              Baa    -0.0252    -3.561    -1.271    -1.188 -0.0331  0.0077  0.9994
     6 Na(23) Bbb     0.0010     0.147     0.052     0.049  0.9994 -0.0019  0.0331
              Bcc     0.0242     3.414     1.218     1.139  0.0021  1.0000 -0.0076
 
              Baa    -0.0355    -5.006    -1.786    -1.670  0.4595  0.8751  0.1515
     7 Na(23) Bbb    -0.0304    -4.287    -1.530    -1.430  0.8561 -0.4819  0.1868
              Bcc     0.0658     9.293     3.316     3.100 -0.2365 -0.0439  0.9706
 

 ---------------------------------------------------------------------------------

 No NMR shielding tensors so no spin-rotation constants.
 Leave Link  601 at Mon Nov 13 20:04:06 2023, MaxMem=  1879048192 cpu:               2.7 elap:               0.2
 (Enter /home/sekinelabo/g16/l701.exe)
 ... and contract with generalized density number  0.
 Compute integral first derivatives.
 Leave Link  701 at Mon Nov 13 20:04:06 2023, MaxMem=  1879048192 cpu:               1.7 elap:               0.1
 (Enter /home/sekinelabo/g16/l702.exe)
 L702 exits ... SP integral derivatives will be done elsewhere.
 Leave Link  702 at Mon Nov 13 20:04:06 2023, MaxMem=  1879048192 cpu:               0.5 elap:               0.0
 (Enter /home/sekinelabo/g16/l703.exe)
 Integral derivatives from FoFJK, PRISM(SPDF).
 Compute integral first derivatives, UseDBF=F ICtDFT=           0.
 Calling FoFJK, ICntrl=      2127 FMM=F ISym2X=0 I1Cent= 0 IOpClX= 1 NMat=1 NMatS=1 NMatT=0.
 FoFJK:  IHMeth= 1 ICntrl=    2127 DoSepK=F KAlg= 0 I1Cent=           0 FoldK=F
 IRaf=         0 NMat=       1 IRICut=       1 DoRegI=T DoRafI=F ISym2E= 0 IDoP0=0 IntGTp=1.
 FoFCou: FMM=F IPFlag=           0 FMFlag=      100000 FMFlg1=         800
         NFxFlg=           0 DoJE=F BraDBF=F KetDBF=F FulRan=T
         wScrn=  0.000000 ICntrl=      2127 IOpCl=  1 I1Cent=           0 NGrid=           0
         NMat0=    1 NMatS0=      1 NMatT0=    0 NMatD0=    1 NMtDS0=    0 NMtDT0=    0
 Symmetry not used in FoFCou.
 Leave Link  703 at Mon Nov 13 20:04:08 2023, MaxMem=  1879048192 cpu:              38.1 elap:               2.4
 (Enter /home/sekinelabo/g16/l716.exe)
 Dipole        = 3.00802009D-01-1.21560498D-02-4.92127288D-02
 ***** Axes restored to original set *****
 -------------------------------------------------------------------
 Center     Atomic                   Forces (Hartrees/Bohr)
 Number     Number              X              Y              Z
 -------------------------------------------------------------------
      1       11          -0.020660616   -0.026660617   -0.005417675
      2       11           0.010650932    0.026509564    0.007112432
      3       11           0.011757109    0.002131518   -0.000325016
      4       11           0.011881367   -0.025439822   -0.001637947
      5       11           0.003505973    0.008974830   -0.029925250
      6       11           0.001404484   -0.006958783    0.028447450
      7       11          -0.018539249    0.021443309    0.001746008
 -------------------------------------------------------------------
 Cartesian Forces:  Max     0.029925250 RMS     0.016362387
 Z-matrix is all fixed cartesians, so copy forces.
 Force constants in Cartesian coordinates: 
                1             2             3             4             5 
      1  0.212539D+00
      2  0.357679D-01  0.228287D+00
      3  0.990475D-02  0.133386D-01  0.183337D+00
      4 -0.330535D-02 -0.265938D-01 -0.599846D-02  0.260396D+00
      5 -0.186336D-01 -0.149918D-01 -0.564471D-02  0.153428D-01  0.323283D+00
      6 -0.454808D-02 -0.594363D-02  0.131473D-02  0.435526D-02  0.120237D-01
      7 -0.249911D-02 -0.380788D-02 -0.552804D-03 -0.420864D-01 -0.165170D-01
      8 -0.535061D-02  0.133228D-01  0.499842D-03  0.303913D-01 -0.639190D-01
      9 -0.194095D-02 -0.509955D-03  0.138885D-01  0.789163D-02  0.195563D-02
     10 -0.665768D-01  0.367299D-01  0.496143D-02 -0.339316D-01 -0.180560D-01
     11 -0.362528D-01 -0.459101D-01 -0.334014D-02  0.240331D-01 -0.723731D-01
     12 -0.864825D-02  0.210718D-02 -0.449320D-01  0.573245D-02 -0.110211D-01
     13 -0.607623D-01 -0.123026D-01  0.404528D-01 -0.596541D-01  0.704171D-02
     14 -0.564529D-02 -0.674284D-01  0.445476D-01 -0.220181D-02 -0.554214D-01
     15 -0.633175D-02 -0.764328D-02 -0.533898D-01  0.725904D-02  0.909115D-02
     16 -0.528385D-01  0.231639D-02 -0.415610D-01 -0.542112D-01 -0.672367D-03
     17 -0.426561D-02 -0.483741D-01 -0.425576D-01 -0.187539D-02 -0.652092D-01
     18  0.488538D-02  0.896267D-02 -0.732695D-01 -0.106499D-01 -0.126496D-01
     19 -0.265566D-01 -0.321098D-01 -0.720681D-02 -0.672076D-01  0.314945D-01
     20  0.343800D-01 -0.649049D-01 -0.684356D-02 -0.390961D-01 -0.513688D-01
     21  0.667892D-02 -0.103116D-01 -0.269484D-01 -0.859002D-02  0.624494D-02
                6             7             8             9            10 
      6  0.272387D+00
      7 -0.221412D-02  0.906552D-01
      8  0.130450D-02  0.663320D-02  0.754516D-01
      9 -0.636259D-01  0.229240D-03  0.988503D-03  0.613373D-01
     10 -0.202889D-02 -0.373760D-01 -0.309824D-01 -0.372152D-02  0.216816D+00
     11 -0.574116D-02  0.114233D-01 -0.516046D-01 -0.230213D-02 -0.271915D-01
     12 -0.279165D-01  0.236255D-02 -0.180916D-02 -0.375356D-01 -0.750755D-02
     13 -0.294548D-01 -0.418604D-02  0.251769D-02 -0.148639D-01 -0.375139D-01
     14 -0.515335D-01 -0.103252D-02  0.665362D-02  0.768299D-03  0.407980D-02
     15 -0.753318D-01 -0.246159D-03  0.461739D-03  0.278729D-02  0.139919D-01
     16  0.278762D-01 -0.424261D-02 -0.381828D-02  0.129091D-01 -0.411180D-01
     17  0.460841D-01 -0.961185D-03  0.848532D-02  0.140058D-02  0.155818D-01
     18 -0.456794D-01 -0.154146D-03  0.111891D-02  0.387279D-02 -0.727725D-02
     19  0.601435D-02 -0.264981D-03  0.609142D-03 -0.503558D-03 -0.299392D-03
     20  0.380602D-02  0.426208D-02  0.116103D-01 -0.230092D-02  0.198384D-01
     21 -0.611479D-01  0.575441D-03 -0.256433D-02  0.192756D-01  0.158185D-02
               11            12            13            14            15 
     11  0.253950D+00
     12  0.970664D-02  0.185125D+00
     13  0.112412D-01 -0.300008D-01  0.184683D+00
     14 -0.488709D-01  0.435262D-01 -0.303955D-02  0.181305D+00
     15 -0.860966D-02 -0.446489D-01 -0.912063D-02 -0.157953D-01  0.253878D+00
     16 -0.380272D-02  0.347795D-01  0.152473D-01 -0.726059D-02  0.135363D-02
     17 -0.387075D-01 -0.387487D-01 -0.717225D-02  0.125663D-01  0.903864D-02
     18  0.126809D-01 -0.527144D-01  0.150201D-02  0.941768D-02 -0.317423D-01
     19  0.205494D-01  0.328209D-02 -0.378140D-01  0.151000D-01 -0.690605D-02
     20  0.351584D-02 -0.376099D-02  0.171384D-02 -0.288041D-01  0.134567D-01
     21 -0.239448D-02  0.226219D-01  0.414852D-01 -0.309310D-01 -0.515521D-01
               16            17            18            19            20 
     16  0.172901D+00
     17 -0.783494D-02  0.171571D+00
     18 -0.141617D-02 -0.144660D-01  0.241432D+00
     19 -0.357375D-01  0.652757D-02  0.131101D-01  0.167880D+00
     20  0.210725D-01 -0.403316D-01 -0.506463D-02 -0.421707D-01  0.170283D+00
     21 -0.339413D-01  0.392491D-01 -0.418993D-01 -0.779011D-02  0.707356D-03
               21 
     21  0.139650D+00
 Leave Link  716 at Mon Nov 13 20:04:08 2023, MaxMem=  1879048192 cpu:               0.5 elap:               0.0
 (Enter /home/sekinelabo/g16/l103.exe)

 GradGradGradGradGradGradGradGradGradGradGradGradGradGradGradGradGradGrad
 Berny optimization.
 Search for a local minimum.
 Step number   1 out of a maximum of    2
 All quantities printed in internal units (Hartrees-Bohrs-Radians)
 Second derivative matrix not updated -- first step.
 ITU=  0
     Eigenvalues ---    0.09007   0.12476   0.12713   0.21862   0.24425
     Eigenvalues ---    0.24981   0.27290   0.28214   0.29263   0.31219
     Eigenvalues ---    0.32178   0.34002   0.34953   0.36832   0.40539
 Quadratic step=4.035D-01 exceeds max=3.000D-01 adjusted using Lamda=-5.102D-02.
 Angle between NR and scaled steps=   6.90 degrees.
 Angle between quadratic step and forces=  17.63 degrees.
 Linear search not attempted -- first point.
 B after Tr=     0.000000    0.000000    0.000000
         Rot=    1.000000    0.000000    0.000000   -0.000000 Ang=   0.00 deg.
 Variable       Old X    -DE/DX   Delta X   Delta X   Delta X     New X
                                 (Linear)    (Quad)   (Total)
    X1        0.60972  -0.02066   0.00000  -0.08791  -0.08791   0.52181
    Y1        0.09065  -0.02666   0.00000  -0.09089  -0.09089  -0.00024
    Z1        2.81320  -0.00542   0.00000  -0.01900  -0.01900   2.79419
    X2        5.46885   0.01065   0.00000   0.03999   0.03999   5.50884
    Y2        5.34308   0.02651   0.00000   0.07833   0.07833   5.42140
    Z2        4.11576   0.00711   0.00000   0.01742   0.01742   4.13318
    X3       10.47581   0.01176   0.00000   0.11710   0.11710  10.59292
    Y3        3.18525   0.00213   0.00000   0.01579   0.01579   3.20104
    Z3        3.67294  -0.00033   0.00000   0.00113   0.00113   3.67407
    X4        6.06172   0.01188   0.00000   0.05365   0.05365   6.11537
    Y4        0.00000  -0.02544   0.00000  -0.08978  -0.08978  -0.08978
    Z4        3.18596  -0.00164   0.00000  -0.00674  -0.00674   3.17922
    X5        3.20234   0.00351   0.00000  -0.00705  -0.00705   3.19529
    Y5        3.40648   0.00897   0.00000   0.02692   0.02692   3.43339
    Z5        0.00000  -0.02993   0.00000  -0.10253  -0.10253  -0.10253
    X6        2.70485   0.00140   0.00000  -0.01876  -0.01876   2.68609
    Y6        1.84001  -0.00696   0.00000  -0.03136  -0.03136   1.80865
    Z6        7.09388   0.02845   0.00000   0.10175   0.10175   7.19563
    X7        0.00000  -0.01854   0.00000  -0.09703  -0.09703  -0.09703
    Y7        5.40672   0.02144   0.00000   0.09099   0.09099   5.49771
    Z7        3.95436   0.00175   0.00000   0.00798   0.00798   3.96233
         Item               Value     Threshold  Converged?
 Maximum Force            0.029925     0.000450     NO 
 RMS     Force            0.016362     0.000300     NO 
 Maximum Displacement     0.117105     0.001800     NO 
 RMS     Displacement     0.065490     0.001200     NO 
 Predicted change in Energy=-1.302085D-02
 GradGradGradGradGradGradGradGradGradGradGradGradGradGradGradGradGradGrad

 Leave Link  103 at Mon Nov 13 20:04:08 2023, MaxMem=  1879048192 cpu:               0.2 elap:               0.0
 (Enter /home/sekinelabo/g16/l9999.exe)
 1\1\GINC-SEKINELABO-XA7R-R37\Force\UB3LYP\6-311+G(d)\Na7(2)\SEKINELABO
 \13-Nov-2023\0\\#P B3LYP/6-311+g(d) force\\Gaussian input prepared by 
 ASE\\0,2\Na,0.3226492919,0.0479701992,1.4886787785\Na,2.8939903815,2.8
 274337196,2.177966092\Na,5.5435618194,1.6855603539,1.943634206\Na,3.20
 77250954,0.,1.6859384338\Na,1.694606183,1.8026300866,0.\Na,1.431345530
 8,0.9736895114,3.7539201723\Na,0.,2.8611155996,2.092556089\\Version=ES
 64L-G16RevB.01\State=2-A\HF=-1136.0598852\S2=0.760544\S2-1=0.\S2A=0.75
 0072\RMSD=7.937e-09\RMSF=1.636e-02\Dipole=0.300802,0.012156,0.0492127\
 Quadrupole=10.1832043,-9.3611806,-0.8220236,-0.0839004,-0.0259411,2.27
 61593\PG=C01 [X(Na7)]\\@


 IT IS A CAPITAL MISTAKE TO THEORIZE BEFORE ONE HAS
 DATA.  INSENSIBLY ONE BEGINS TO TWIST FACTS TO SUIT
 THEORIES RATHER THAN THEORIES TO SUIT FACTS.

                                         -- SHERLOCK HOLMES
 Job cpu time:       0 days  0 hours  5 minutes  3.3 seconds.
 Elapsed time:       0 days  0 hours  0 minutes 24.7 seconds.
 File lengths (MBytes):  RWF=     32 Int=      0 D2E=      0 Chk=      6 Scr=      1
 Normal termination of Gaussian 16 at Mon Nov 13 20:04:08 2023.
