 Entering Gaussian System, Link 0=g16
 Initial command:
 /home/sekinelabo/g16/l1.exe "/home/sekinelabo/g16temp/Gau-4018963.inp" -scrdir="/home/sekinelabo/g16temp/"
 Entering Link 1 = /home/sekinelabo/g16/l1.exe PID=   4018965.
  
 Copyright (c) 1988-2017, Gaussian, Inc.  All Rights Reserved.
  
 This is part of the Gaussian(R) 16 program.  It is based on
 the Gaussian(R) 09 system (copyright 2009, Gaussian, Inc.),
 the Gaussian(R) 03 system (copyright 2003, Gaussian, Inc.),
 the Gaussian(R) 98 system (copyright 1998, Gaussian, Inc.),
 the Gaussian(R) 94 system (copyright 1995, Gaussian, Inc.),
 the Gaussian 92(TM) system (copyright 1992, Gaussian, Inc.),
 the Gaussian 90(TM) system (copyright 1990, Gaussian, Inc.),
 the Gaussian 88(TM) system (copyright 1988, Gaussian, Inc.),
 the Gaussian 86(TM) system (copyright 1986, Carnegie Mellon
 University), and the Gaussian 82(TM) system (copyright 1983,
 Carnegie Mellon University). Gaussian is a federally registered
 trademark of Gaussian, Inc.
  
 This software contains proprietary and confidential information,
 including trade secrets, belonging to Gaussian, Inc.
  
 This software is provided under written license and may be
 used, copied, transmitted, or stored only in accord with that
 written license.
  
 The following legend is applicable only to US Government
 contracts under FAR:
  
                    RESTRICTED RIGHTS LEGEND
  
 Use, reproduction and disclosure by the US Government is
 subject to restrictions as set forth in subparagraphs (a)
 and (c) of the Commercial Computer Software - Restricted
 Rights clause in FAR 52.227-19.
  
 Gaussian, Inc.
 340 Quinnipiac St., Bldg. 40, Wallingford CT 06492
  
  
 ---------------------------------------------------------------
 Warning -- This program may not be used in any manner that
 competes with the business of Gaussian, Inc. or will provide
 assistance to any competitor of Gaussian, Inc.  The licensee
 of this program is prohibited from giving any competitor of
 Gaussian, Inc. access to this program.  By using this program,
 the user acknowledges that Gaussian, Inc. is engaged in the
 business of creating and licensing software in the field of
 computational chemistry and represents and warrants to the
 licensee that it is not a competitor of Gaussian, Inc. and that
 it will not use this program in any manner prohibited above.
 ---------------------------------------------------------------
  

 Cite this work as:
 Gaussian 16, Revision B.01,
 M. J. Frisch, G. W. Trucks, H. B. Schlegel, G. E. Scuseria, 
 M. A. Robb, J. R. Cheeseman, G. Scalmani, V. Barone, 
 G. A. Petersson, H. Nakatsuji, X. Li, M. Caricato, A. V. Marenich, 
 J. Bloino, B. G. Janesko, R. Gomperts, B. Mennucci, H. P. Hratchian, 
 J. V. Ortiz, A. F. Izmaylov, J. L. Sonnenberg, D. Williams-Young, 
 F. Ding, F. Lipparini, F. Egidi, J. Goings, B. Peng, A. Petrone, 
 T. Henderson, D. Ranasinghe, V. G. Zakrzewski, J. Gao, N. Rega, 
 G. Zheng, W. Liang, M. Hada, M. Ehara, K. Toyota, R. Fukuda, 
 J. Hasegawa, M. Ishida, T. Nakajima, Y. Honda, O. Kitao, H. Nakai, 
 T. Vreven, K. Throssell, J. A. Montgomery, Jr., J. E. Peralta, 
 F. Ogliaro, M. J. Bearpark, J. J. Heyd, E. N. Brothers, K. N. Kudin, 
 V. N. Staroverov, T. A. Keith, R. Kobayashi, J. Normand, 
 K. Raghavachari, A. P. Rendell, J. C. Burant, S. S. Iyengar, 
 J. Tomasi, M. Cossi, J. M. Millam, M. Klene, C. Adamo, R. Cammi, 
 J. W. Ochterski, R. L. Martin, K. Morokuma, O. Farkas, 
 J. B. Foresman, and D. J. Fox, Gaussian, Inc., Wallingford CT, 2016.
 
 ******************************************
 Gaussian 16:  ES64L-G16RevB.01 20-Dec-2017
                13-Nov-2023 
 ******************************************
 %mem=14GB
 %chk=checkpoint.chk
 %nprocshared=16
 Will use up to   16 processors via shared memory.
 -------------------------
 #P B3LYP/6-311+g(d) force
 -------------------------
 1/10=7,30=1,38=1/1,3;
 2/12=2,17=6,18=5,40=1/2;
 3/5=4,6=6,7=11,11=2,25=1,30=1,71=1,74=-5/1,2,3;
 4//1;
 5/5=2,38=5/2;
 6/7=2,8=2,9=2,10=2,28=1/1;
 7/29=1/1,2,3,16;
 1/10=7,30=1/3;
 99//99;
 Leave Link    1 at Mon Nov 13 15:32:30 2023, MaxMem=  1879048192 cpu:               0.3 elap:               0.0
 (Enter /home/sekinelabo/g16/l101.exe)
 ------------------------------
 Gaussian input prepared by ASE
 ------------------------------
 Symbolic Z-matrix:
 Charge =  0 Multiplicity = 2
 Na                    0.        0.15831   2.82326 
 Na                    6.07719   0.        0.30133 
 Na                    7.61047   1.52339   2.38316 
 Na                    5.15165   2.72189   1.15455 
 Na                    2.60561   4.29388   0.92674 
 Na                    0.07745   2.70732   1.24316 
 Na                    1.00764   0.13871   0. 
 
 ITRead=  0  0  0  0  0  0  0
 MicOpt= -1 -1 -1 -1 -1 -1 -1
 NAtoms=      7 NQM=        7 NQMF=       0 NMMI=      0 NMMIF=      0
                NMic=       0 NMicF=      0.
                    Isotopes and Nuclear Properties:
 (Nuclear quadrupole moments (NQMom) in fm**2, nuclear magnetic moments (NMagM)
  in nuclear magnetons)

  Atom         1           2           3           4           5           6           7
 IAtWgt=          23          23          23          23          23          23          23
 AtmWgt=  22.9897697  22.9897697  22.9897697  22.9897697  22.9897697  22.9897697  22.9897697
 NucSpn=           3           3           3           3           3           3           3
 AtZEff=  -0.0000000  -0.0000000  -0.0000000  -0.0000000  -0.0000000  -0.0000000  -0.0000000
 NQMom=   10.4000000  10.4000000  10.4000000  10.4000000  10.4000000  10.4000000  10.4000000
 NMagM=    2.2175200   2.2175200   2.2175200   2.2175200   2.2175200   2.2175200   2.2175200
 AtZNuc=  11.0000000  11.0000000  11.0000000  11.0000000  11.0000000  11.0000000  11.0000000
 Leave Link  101 at Mon Nov 13 15:32:30 2023, MaxMem=  1879048192 cpu:               2.7 elap:               0.2
 (Enter /home/sekinelabo/g16/l103.exe)

 GradGradGradGradGradGradGradGradGradGradGradGradGradGradGradGradGradGrad
 Berny optimization.
 Initialization pass.
 Trust Radius=3.00D-01 FncErr=1.00D-07 GrdErr=1.00D-07 EigMax=2.50D+02 EigMin=1.00D-04
 Number of steps in this run=      2 maximum allowed number of steps=      2.
 GradGradGradGradGradGradGradGradGradGradGradGradGradGradGradGradGradGrad

 Leave Link  103 at Mon Nov 13 15:32:30 2023, MaxMem=  1879048192 cpu:               0.2 elap:               0.0
 (Enter /home/sekinelabo/g16/l202.exe)
                          Input orientation:                          
 ---------------------------------------------------------------------
 Center     Atomic      Atomic             Coordinates (Angstroms)
 Number     Number       Type             X           Y           Z
 ---------------------------------------------------------------------
      1         11           0        0.000000    0.158307    2.823257
      2         11           0        6.077187    0.000000    0.301331
      3         11           0        7.610473    1.523390    2.383164
      4         11           0        5.151650    2.721893    1.154545
      5         11           0        2.605608    4.293876    0.926742
      6         11           0        0.077453    2.707317    1.243161
      7         11           0        1.007635    0.138713    0.000000
 ---------------------------------------------------------------------
                    Distance matrix (angstroms):
                    1          2          3          4          5
     1  Na   0.000000
     2  Na   6.581593   0.000000
     3  Na   7.744445   3.000952   0.000000
     4  Na   5.991333   2.998882   2.998621   0.000000
     5  Na   5.242985   5.557010   5.903002   3.000892   0.000000
     6  Na   3.000025   6.649317   7.710232   5.074991   3.001476
     7  Na   2.997748   5.080393   7.155017   5.017833   4.547278
                    6          7
     6  Na   0.000000
     7  Na   3.001402   0.000000
 Stoichiometry    Na7(2)
 Framework group  C1[X(Na7)]
 Deg. of freedom    15
 Full point group                 C1      NOp   1
 Largest Abelian subgroup         C1      NOp   1
 Largest concise Abelian subgroup C1      NOp   1
                         Standard orientation:                         
 ---------------------------------------------------------------------
 Center     Atomic      Atomic             Coordinates (Angstroms)
 Number     Number       Type             X           Y           Z
 ---------------------------------------------------------------------
      1         11           0       -3.218572   -1.490764    1.561514
      2         11           0        2.858614   -1.649071   -0.960412
      3         11           0        4.391901   -0.125681    1.121421
      4         11           0        1.933078    1.072822   -0.107198
      5         11           0       -0.612964    2.644805   -0.335001
      6         11           0       -3.141119    1.058246   -0.018581
      7         11           0       -2.210937   -1.510357   -1.261743
 ---------------------------------------------------------------------
 Rotational constants (GHZ):           0.9625118           0.3488144           0.3003453
 Leave Link  202 at Mon Nov 13 15:32:30 2023, MaxMem=  1879048192 cpu:               0.0 elap:               0.0
 (Enter /home/sekinelabo/g16/l301.exe)
 Standard basis: 6-311+G(d) (5D, 7F)
 Ernie: Thresh=  0.10000D-02 Tol=  0.10000D-05 Strict=F.
 There are   217 symmetry adapted cartesian basis functions of A   symmetry.
 There are   210 symmetry adapted basis functions of A   symmetry.
   210 basis functions,   350 primitive gaussians,   217 cartesian basis functions
    39 alpha electrons       38 beta electrons
       nuclear repulsion energy       312.9590479594 Hartrees.
 IExCor=  402 DFT=T Ex+Corr=B3LYP ExCW=0 ScaHFX=  0.200000
 ScaDFX=  0.800000  0.720000  1.000000  0.810000 ScalE2=  1.000000  1.000000
 IRadAn=      5 IRanWt=     -1 IRanGd=            0 ICorTp=0 IEmpDi=  4
 NAtoms=    7 NActive=    7 NUniq=    7 SFac= 1.00D+00 NAtFMM=   60 NAOKFM=F Big=F
 Integral buffers will be    131072 words long.
 Raffenetti 2 integral format.
 Two-electron integral symmetry is turned on.
 Leave Link  301 at Mon Nov 13 15:32:30 2023, MaxMem=  1879048192 cpu:               0.5 elap:               0.0
 (Enter /home/sekinelabo/g16/l302.exe)
 NPDir=0 NMtPBC=     1 NCelOv=     1 NCel=       1 NClECP=     1 NCelD=      1
         NCelK=      1 NCelE2=     1 NClLst=     1 CellRange=     0.0.
 One-electron integrals computed using PRISM.
 One-electron integral symmetry used in STVInt
 NBasis=   210 RedAO= T EigKep=  2.07D-06  NBF=   210
 NBsUse=   210 1.00D-06 EigRej= -1.00D+00 NBFU=   210
 Precomputing XC quadrature grid using
 IXCGrd= 4 IRadAn=           5 IRanWt=          -1 IRanGd=           0 AccXCQ= 0.00D+00.
 Generated NRdTot=       0 NPtTot=           0 NUsed=           0 NTot=          32
 NSgBfM=   205   205   205   205   205 MxSgAt=     7 MxSgA2=     7.
 Leave Link  302 at Mon Nov 13 15:32:30 2023, MaxMem=  1879048192 cpu:               2.1 elap:               0.1
 (Enter /home/sekinelabo/g16/l303.exe)
 DipDrv:  MaxL=1.
 Leave Link  303 at Mon Nov 13 15:32:30 2023, MaxMem=  1879048192 cpu:               0.6 elap:               0.0
 (Enter /home/sekinelabo/g16/l401.exe)
 ExpMin= 7.60D-03 ExpMax= 3.62D+04 ExpMxC= 1.21D+03 IAcc=3 IRadAn=         5 AccDes= 0.00D+00
 Harris functional with IExCor=  402 and IRadAn=       5 diagonalized for initial guess.
 HarFok:  IExCor=  402 AccDes= 0.00D+00 IRadAn=         5 IDoV= 1 UseB2=F ITyADJ=14
 ICtDFT=  3500011 ScaDFX=  1.000000  1.000000  1.000000  1.000000
 FoFCou: FMM=F IPFlag=           0 FMFlag=      100000 FMFlg1=           0
         NFxFlg=           0 DoJE=T BraDBF=F KetDBF=T FulRan=T
         wScrn=  0.000000 ICntrl=       500 IOpCl=  0 I1Cent=   200000004 NGrid=           0
         NMat0=    1 NMatS0=      1 NMatT0=    0 NMatD0=    1 NMtDS0=    0 NMtDT0=    0
 Petite list used in FoFCou.
 Harris En= -1135.86836732791    
 JPrj=0 DoOrth=F DoCkMO=F.
 Initial guess <Sx>= 0.0000 <Sy>= 0.0000 <Sz>= 0.5000 <S**2>= 0.7500 S= 0.5000
 Leave Link  401 at Mon Nov 13 15:32:31 2023, MaxMem=  1879048192 cpu:               4.7 elap:               0.3
 (Enter /home/sekinelabo/g16/l502.exe)
 Keep R1 and R2 ints in memory in canonical form, NReq=507620346.
 FoFCou: FMM=F IPFlag=           0 FMFlag=           0 FMFlg1=           0
         NFxFlg=           0 DoJE=F BraDBF=F KetDBF=F FulRan=T
         wScrn=  0.000000 ICntrl=       600 IOpCl=  0 I1Cent=           0 NGrid=           0
         NMat0=    1 NMatS0=  22155 NMatT0=    0 NMatD0=    1 NMtDS0=    0 NMtDT0=    0
 Symmetry not used in FoFCou.
 Two-electron integral symmetry not used.
 UHF open shell SCF:
 Using DIIS extrapolation, IDIIS=  1040.
 NGot=  1879048192 LenX=  1388082390 LenY=  1388034860
 Requested convergence on RMS density matrix=1.00D-08 within 128 cycles.
 Requested convergence on MAX density matrix=1.00D-06.
 Requested convergence on             energy=1.00D-06.
 No special actions if energy rises.

 Cycle   1  Pass 1  IDiag  1:
 E= -1136.06843692047    
 DIIS: error= 1.10D-02 at cycle   1 NSaved=   1.
 NSaved= 1 IEnMin= 1 EnMin= -1136.06843692047     IErMin= 1 ErrMin= 1.10D-02
 ErrMax= 1.10D-02  0.00D+00 EMaxC= 1.00D-01 BMatC= 1.86D-01 BMatP= 1.86D-01
 IDIUse=3 WtCom= 8.90D-01 WtEn= 1.10D-01
 Coeff-Com:  0.100D+01
 Coeff-En:   0.100D+01
 Coeff:      0.100D+01
 Gap=     0.035 Goal=   None    Shift=    0.000
 Gap=     0.042 Goal=   None    Shift=    0.000
 GapD=    0.035 DampG=0.250 DampE=0.500 DampFc=0.2500 IDamp=-1.
 Damping current iteration by 2.50D-01
 RMSDP=1.95D-02 MaxDP=2.08D+00              OVMax= 2.25D-01

 Cycle   2  Pass 1  IDiag  1:
 E= -1136.07812817974     Delta-E=       -0.009691259278 Rises=F Damp=T
 DIIS: error= 7.67D-03 at cycle   2 NSaved=   2.
 NSaved= 2 IEnMin= 2 EnMin= -1136.07812817974     IErMin= 2 ErrMin= 7.67D-03
 ErrMax= 7.67D-03  0.00D+00 EMaxC= 1.00D-01 BMatC= 7.22D-02 BMatP= 1.86D-01
 IDIUse=3 WtCom= 9.23D-01 WtEn= 7.67D-02
 Coeff-Com: -0.131D+01 0.231D+01
 Coeff-En:   0.000D+00 0.100D+01
 Coeff:     -0.121D+01 0.221D+01
 Gap=     0.036 Goal=   None    Shift=    0.000
 Gap=     0.058 Goal=   None    Shift=    0.000
 RMSDP=1.34D-02 MaxDP=1.43D+00 DE=-9.69D-03 OVMax= 1.68D-01

 Cycle   3  Pass 1  IDiag  1:
 E= -1136.09597785564     Delta-E=       -0.017849675899 Rises=F Damp=F
 DIIS: error= 1.89D-03 at cycle   3 NSaved=   3.
 NSaved= 3 IEnMin= 3 EnMin= -1136.09597785564     IErMin= 3 ErrMin= 1.89D-03
 ErrMax= 1.89D-03  0.00D+00 EMaxC= 1.00D-01 BMatC= 1.46D-03 BMatP= 7.22D-02
 IDIUse=3 WtCom= 9.81D-01 WtEn= 1.89D-02
 Coeff-Com: -0.134D+00 0.235D+00 0.899D+00
 Coeff-En:   0.000D+00 0.000D+00 0.100D+01
 Coeff:     -0.132D+00 0.231D+00 0.901D+00
 Gap=     0.037 Goal=   None    Shift=    0.000
 Gap=     0.049 Goal=   None    Shift=    0.000
 RMSDP=4.13D-03 MaxDP=2.91D-01 DE=-1.78D-02 OVMax= 1.59D-01

 Cycle   4  Pass 1  IDiag  1:
 E= -1136.09348810716     Delta-E=        0.002489748488 Rises=F Damp=F
 DIIS: error= 3.18D-03 at cycle   4 NSaved=   4.
 NSaved= 4 IEnMin= 3 EnMin= -1136.09597785564     IErMin= 3 ErrMin= 1.89D-03
 ErrMax= 3.18D-03  0.00D+00 EMaxC= 1.00D-01 BMatC= 3.20D-03 BMatP= 1.46D-03
 IDIUse=3 WtCom= 1.51D-01 WtEn= 8.49D-01
 Coeff-Com: -0.706D-02 0.125D-01 0.599D+00 0.396D+00
 Coeff-En:   0.000D+00 0.000D+00 0.675D+00 0.325D+00
 Coeff:     -0.106D-02 0.188D-02 0.663D+00 0.336D+00
 Gap=     0.035 Goal=   None    Shift=    0.000
 Gap=     0.051 Goal=   None    Shift=    0.000
 RMSDP=2.18D-03 MaxDP=1.60D-01 DE= 2.49D-03 OVMax= 9.16D-02

 Cycle   5  Pass 1  IDiag  1:
 E= -1136.09759673218     Delta-E=       -0.004108625022 Rises=F Damp=F
 DIIS: error= 5.31D-04 at cycle   5 NSaved=   5.
 NSaved= 5 IEnMin= 5 EnMin= -1136.09759673218     IErMin= 5 ErrMin= 5.31D-04
 ErrMax= 5.31D-04  0.00D+00 EMaxC= 1.00D-01 BMatC= 1.59D-04 BMatP= 1.46D-03
 IDIUse=3 WtCom= 9.95D-01 WtEn= 5.31D-03
 Coeff-Com:  0.158D-02-0.280D-02 0.357D+00 0.177D+00 0.468D+00
 Coeff-En:   0.000D+00 0.000D+00 0.000D+00 0.000D+00 0.100D+01
 Coeff:      0.157D-02-0.278D-02 0.355D+00 0.176D+00 0.470D+00
 Gap=     0.035 Goal=   None    Shift=    0.000
 Gap=     0.051 Goal=   None    Shift=    0.000
 RMSDP=6.61D-04 MaxDP=3.43D-02 DE=-4.11D-03 OVMax= 1.50D-02

 Cycle   6  Pass 1  IDiag  1:
 E= -1136.09774794155     Delta-E=       -0.000151209372 Rises=F Damp=F
 DIIS: error= 1.70D-04 at cycle   6 NSaved=   6.
 NSaved= 6 IEnMin= 6 EnMin= -1136.09774794155     IErMin= 6 ErrMin= 1.70D-04
 ErrMax= 1.70D-04  0.00D+00 EMaxC= 1.00D-01 BMatC= 7.15D-06 BMatP= 1.59D-04
 IDIUse=3 WtCom= 9.98D-01 WtEn= 1.70D-03
 Coeff-Com: -0.388D-03-0.584D-04-0.320D-01-0.478D-01 0.140D+00 0.940D+00
 Coeff-En:   0.000D+00 0.000D+00 0.000D+00 0.000D+00 0.000D+00 0.100D+01
 Coeff:     -0.388D-03-0.583D-04-0.319D-01-0.478D-01 0.140D+00 0.940D+00
 Gap=     0.035 Goal=   None    Shift=    0.000
 Gap=     0.051 Goal=   None    Shift=    0.000
 RMSDP=3.61D-04 MaxDP=2.52D-02 DE=-1.51D-04 OVMax= 8.61D-03

 Cycle   7  Pass 1  IDiag  1:
 E= -1136.09776597932     Delta-E=       -0.000018037773 Rises=F Damp=F
 DIIS: error= 6.19D-05 at cycle   7 NSaved=   7.
 NSaved= 7 IEnMin= 7 EnMin= -1136.09776597932     IErMin= 7 ErrMin= 6.19D-05
 ErrMax= 6.19D-05  0.00D+00 EMaxC= 1.00D-01 BMatC= 1.15D-06 BMatP= 7.15D-06
 IDIUse=1 WtCom= 1.00D+00 WtEn= 0.00D+00
 Coeff-Com: -0.381D-03 0.303D-03-0.500D-01-0.386D-01 0.437D-02 0.339D+00
 Coeff-Com:  0.745D+00
 Coeff:     -0.381D-03 0.303D-03-0.500D-01-0.386D-01 0.437D-02 0.339D+00
 Coeff:      0.745D+00
 Gap=     0.035 Goal=   None    Shift=    0.000
 Gap=     0.051 Goal=   None    Shift=    0.000
 RMSDP=1.49D-04 MaxDP=9.82D-03 DE=-1.80D-05 OVMax= 4.61D-03

 Cycle   8  Pass 1  IDiag  1:
 E= -1136.09776952721     Delta-E=       -0.000003547887 Rises=F Damp=F
 DIIS: error= 3.82D-05 at cycle   8 NSaved=   8.
 NSaved= 8 IEnMin= 8 EnMin= -1136.09776952721     IErMin= 8 ErrMin= 3.82D-05
 ErrMax= 3.82D-05  0.00D+00 EMaxC= 1.00D-01 BMatC= 3.46D-07 BMatP= 1.15D-06
 IDIUse=1 WtCom= 1.00D+00 WtEn= 0.00D+00
 Coeff-Com:  0.234D-03-0.226D-03-0.162D-01-0.744D-02-0.352D-01-0.106D+00
 Coeff-Com:  0.284D+00 0.881D+00
 Coeff:      0.234D-03-0.226D-03-0.162D-01-0.744D-02-0.352D-01-0.106D+00
 Coeff:      0.284D+00 0.881D+00
 Gap=     0.035 Goal=   None    Shift=    0.000
 Gap=     0.051 Goal=   None    Shift=    0.000
 RMSDP=1.26D-04 MaxDP=9.17D-03 DE=-3.55D-06 OVMax= 4.51D-03

 Cycle   9  Pass 1  IDiag  1:
 E= -1136.09777139885     Delta-E=       -0.000001871645 Rises=F Damp=F
 DIIS: error= 2.24D-05 at cycle   9 NSaved=   9.
 NSaved= 9 IEnMin= 9 EnMin= -1136.09777139885     IErMin= 9 ErrMin= 2.24D-05
 ErrMax= 2.24D-05  0.00D+00 EMaxC= 1.00D-01 BMatC= 9.27D-08 BMatP= 3.46D-07
 IDIUse=1 WtCom= 1.00D+00 WtEn= 0.00D+00
 Coeff-Com:  0.595D-03-0.730D-03 0.718D-02 0.557D-02-0.852D-02-0.978D-01
 Coeff-Com: -0.934D-01 0.200D+00 0.987D+00
 Coeff:      0.595D-03-0.730D-03 0.718D-02 0.557D-02-0.852D-02-0.978D-01
 Coeff:     -0.934D-01 0.200D+00 0.987D+00
 Gap=     0.035 Goal=   None    Shift=    0.000
 Gap=     0.051 Goal=   None    Shift=    0.000
 RMSDP=9.62D-05 MaxDP=7.03D-03 DE=-1.87D-06 OVMax= 3.08D-03

 Cycle  10  Pass 1  IDiag  1:
 E= -1136.09777213159     Delta-E=       -0.000000732732 Rises=F Damp=F
 DIIS: error= 1.27D-05 at cycle  10 NSaved=  10.
 NSaved=10 IEnMin=10 EnMin= -1136.09777213159     IErMin=10 ErrMin= 1.27D-05
 ErrMax= 1.27D-05  0.00D+00 EMaxC= 1.00D-01 BMatC= 3.34D-08 BMatP= 9.27D-08
 IDIUse=1 WtCom= 1.00D+00 WtEn= 0.00D+00
 Coeff-Com:  0.192D-04-0.271D-04 0.784D-02 0.330D-02 0.126D-01 0.190D-01
 Coeff-Com: -0.124D+00-0.300D+00 0.303D+00 0.108D+01
 Coeff:      0.192D-04-0.271D-04 0.784D-02 0.330D-02 0.126D-01 0.190D-01
 Coeff:     -0.124D+00-0.300D+00 0.303D+00 0.108D+01
 Gap=     0.035 Goal=   None    Shift=    0.000
 Gap=     0.051 Goal=   None    Shift=    0.000
 RMSDP=8.21D-05 MaxDP=7.30D-03 DE=-7.33D-07 OVMax= 2.57D-03

 Cycle  11  Pass 1  IDiag  1:
 E= -1136.09777246675     Delta-E=       -0.000000335166 Rises=F Damp=F
 DIIS: error= 6.14D-06 at cycle  11 NSaved=  11.
 NSaved=11 IEnMin=11 EnMin= -1136.09777246675     IErMin=11 ErrMin= 6.14D-06
 ErrMax= 6.14D-06  0.00D+00 EMaxC= 1.00D-01 BMatC= 8.53D-09 BMatP= 3.34D-08
 IDIUse=1 WtCom= 1.00D+00 WtEn= 0.00D+00
 Coeff-Com: -0.290D-03 0.373D-03 0.754D-03-0.842D-03 0.827D-02 0.364D-01
 Coeff-Com: -0.208D-01-0.149D+00-0.183D+00 0.295D+00 0.101D+01
 Coeff:     -0.290D-03 0.373D-03 0.754D-03-0.842D-03 0.827D-02 0.364D-01
 Coeff:     -0.208D-01-0.149D+00-0.183D+00 0.295D+00 0.101D+01
 Gap=     0.035 Goal=   None    Shift=    0.000
 Gap=     0.051 Goal=   None    Shift=    0.000
 RMSDP=4.46D-05 MaxDP=3.29D-03 DE=-3.35D-07 OVMax= 1.46D-03

 Cycle  12  Pass 1  IDiag  1:
 E= -1136.09777256047     Delta-E=       -0.000000093722 Rises=F Damp=F
 DIIS: error= 2.38D-06 at cycle  12 NSaved=  12.
 NSaved=12 IEnMin=12 EnMin= -1136.09777256047     IErMin=12 ErrMin= 2.38D-06
 ErrMax= 2.38D-06  0.00D+00 EMaxC= 1.00D-01 BMatC= 2.13D-09 BMatP= 8.53D-09
 IDIUse=1 WtCom= 1.00D+00 WtEn= 0.00D+00
 Coeff-Com: -0.628D-04 0.793D-04-0.164D-02-0.108D-02-0.246D-03 0.733D-02
 Coeff-Com:  0.167D-01 0.326D-01-0.123D+00-0.209D+00 0.293D+00 0.985D+00
 Coeff:     -0.628D-04 0.793D-04-0.164D-02-0.108D-02-0.246D-03 0.733D-02
 Coeff:      0.167D-01 0.326D-01-0.123D+00-0.209D+00 0.293D+00 0.985D+00
 Gap=     0.035 Goal=   None    Shift=    0.000
 Gap=     0.051 Goal=   None    Shift=    0.000
 RMSDP=2.05D-05 MaxDP=1.47D-03 DE=-9.37D-08 OVMax= 7.58D-04

 Cycle  13  Pass 1  IDiag  1:
 E= -1136.09777258427     Delta-E=       -0.000000023801 Rises=F Damp=F
 DIIS: error= 1.58D-06 at cycle  13 NSaved=  13.
 NSaved=13 IEnMin=13 EnMin= -1136.09777258427     IErMin=13 ErrMin= 1.58D-06
 ErrMax= 1.58D-06  0.00D+00 EMaxC= 1.00D-01 BMatC= 4.69D-10 BMatP= 2.13D-09
 IDIUse=1 WtCom= 1.00D+00 WtEn= 0.00D+00
 Coeff-Com:  0.109D-03-0.140D-03-0.989D-05 0.472D-03-0.235D-02-0.108D-01
 Coeff-Com:  0.297D-02 0.370D-01 0.638D-01-0.541D-01-0.284D+00-0.180D+00
 Coeff-Com:  0.143D+01
 Coeff:      0.109D-03-0.140D-03-0.989D-05 0.472D-03-0.235D-02-0.108D-01
 Coeff:      0.297D-02 0.370D-01 0.638D-01-0.541D-01-0.284D+00-0.180D+00
 Coeff:      0.143D+01
 Gap=     0.035 Goal=   None    Shift=    0.000
 Gap=     0.051 Goal=   None    Shift=    0.000
 RMSDP=1.03D-05 MaxDP=7.86D-04 DE=-2.38D-08 OVMax= 3.95D-04

 Cycle  14  Pass 1  IDiag  1:
 E= -1136.09777259178     Delta-E=       -0.000000007508 Rises=F Damp=F
 DIIS: error= 1.06D-06 at cycle  14 NSaved=  14.
 NSaved=14 IEnMin=14 EnMin= -1136.09777259178     IErMin=14 ErrMin= 1.06D-06
 ErrMax= 1.06D-06  0.00D+00 EMaxC= 1.00D-01 BMatC= 1.59D-10 BMatP= 4.69D-10
 IDIUse=1 WtCom= 1.00D+00 WtEn= 0.00D+00
 Coeff-Com:  0.108D-04-0.133D-04 0.302D-03 0.232D-03 0.228D-04-0.123D-02
 Coeff-Com: -0.366D-02-0.830D-02 0.305D-01 0.526D-01-0.864D-01-0.242D+00
 Coeff-Com:  0.139D+00 0.112D+01
 Coeff:      0.108D-04-0.133D-04 0.302D-03 0.232D-03 0.228D-04-0.123D-02
 Coeff:     -0.366D-02-0.830D-02 0.305D-01 0.526D-01-0.864D-01-0.242D+00
 Coeff:      0.139D+00 0.112D+01
 Gap=     0.035 Goal=   None    Shift=    0.000
 Gap=     0.051 Goal=   None    Shift=    0.000
 RMSDP=3.49D-06 MaxDP=2.29D-04 DE=-7.51D-09 OVMax= 1.32D-04

 Cycle  15  Pass 1  IDiag  1:
 E= -1136.09777259386     Delta-E=       -0.000000002078 Rises=F Damp=F
 DIIS: error= 6.81D-07 at cycle  15 NSaved=  15.
 NSaved=15 IEnMin=15 EnMin= -1136.09777259386     IErMin=15 ErrMin= 6.81D-07
 ErrMax= 6.81D-07  0.00D+00 EMaxC= 1.00D-01 BMatC= 7.79D-11 BMatP= 1.59D-10
 IDIUse=1 WtCom= 1.00D+00 WtEn= 0.00D+00
 Coeff-Com: -0.470D-04 0.613D-04 0.628D-04-0.141D-03 0.840D-03 0.370D-02
 Coeff-Com: -0.124D-02-0.139D-01-0.207D-01 0.183D-01 0.986D-01 0.659D-01
 Coeff-Com: -0.578D+00 0.218D+00 0.121D+01
 Coeff:     -0.470D-04 0.613D-04 0.628D-04-0.141D-03 0.840D-03 0.370D-02
 Coeff:     -0.124D-02-0.139D-01-0.207D-01 0.183D-01 0.986D-01 0.659D-01
 Coeff:     -0.578D+00 0.218D+00 0.121D+01
 Gap=     0.035 Goal=   None    Shift=    0.000
 Gap=     0.051 Goal=   None    Shift=    0.000
 RMSDP=2.49D-06 MaxDP=1.30D-04 DE=-2.08D-09 OVMax= 1.17D-04

 Cycle  16  Pass 1  IDiag  1:
 E= -1136.09777259514     Delta-E=       -0.000000001283 Rises=F Damp=F
 DIIS: error= 5.25D-07 at cycle  16 NSaved=  16.
 NSaved=16 IEnMin=16 EnMin= -1136.09777259514     IErMin=16 ErrMin= 5.25D-07
 ErrMax= 5.25D-07  0.00D+00 EMaxC= 1.00D-01 BMatC= 3.60D-11 BMatP= 7.79D-11
 IDIUse=1 WtCom= 1.00D+00 WtEn= 0.00D+00
 Coeff-Com:  0.254D-04-0.338D-04-0.201D-03-0.207D-04-0.574D-03-0.189D-02
 Coeff-Com:  0.307D-02 0.139D-01-0.505D-02-0.391D-01-0.582D-02 0.741D-01
 Coeff-Com:  0.255D+00-0.641D+00-0.704D+00 0.205D+01
 Coeff:      0.254D-04-0.338D-04-0.201D-03-0.207D-04-0.574D-03-0.189D-02
 Coeff:      0.307D-02 0.139D-01-0.505D-02-0.391D-01-0.582D-02 0.741D-01
 Coeff:      0.255D+00-0.641D+00-0.704D+00 0.205D+01
 Gap=     0.035 Goal=   None    Shift=    0.000
 Gap=     0.051 Goal=   None    Shift=    0.000
 RMSDP=2.52D-06 MaxDP=9.87D-05 DE=-1.28D-09 OVMax= 1.34D-04

 Cycle  17  Pass 1  IDiag  1:
 E= -1136.09777259617     Delta-E=       -0.000000001027 Rises=F Damp=F
 DIIS: error= 3.35D-07 at cycle  17 NSaved=  17.
 NSaved=17 IEnMin=17 EnMin= -1136.09777259617     IErMin=17 ErrMin= 3.35D-07
 ErrMax= 3.35D-07  0.00D+00 EMaxC= 1.00D-01 BMatC= 1.31D-11 BMatP= 3.60D-11
 IDIUse=1 WtCom= 1.00D+00 WtEn= 0.00D+00
 Coeff-Com:  0.209D-04-0.274D-04-0.891D-04 0.305D-04-0.411D-03-0.160D-02
 Coeff-Com:  0.162D-02 0.629D-02 0.655D-02-0.965D-02-0.412D-01-0.151D-01
 Coeff-Com:  0.258D+00-0.155D+00-0.525D+00-0.166D-01 0.149D+01
 Coeff:      0.209D-04-0.274D-04-0.891D-04 0.305D-04-0.411D-03-0.160D-02
 Coeff:      0.162D-02 0.629D-02 0.655D-02-0.965D-02-0.412D-01-0.151D-01
 Coeff:      0.258D+00-0.155D+00-0.525D+00-0.166D-01 0.149D+01
 Gap=     0.035 Goal=   None    Shift=    0.000
 Gap=     0.051 Goal=   None    Shift=    0.000
 RMSDP=1.97D-06 MaxDP=8.67D-05 DE=-1.03D-09 OVMax= 9.64D-05

 Cycle  18  Pass 1  IDiag  1:
 E= -1136.09777259656     Delta-E=       -0.000000000384 Rises=F Damp=F
 DIIS: error= 1.55D-07 at cycle  18 NSaved=  18.
 NSaved=18 IEnMin=18 EnMin= -1136.09777259656     IErMin=18 ErrMin= 1.55D-07
 ErrMax= 1.55D-07  0.00D+00 EMaxC= 1.00D-01 BMatC= 3.62D-12 BMatP= 1.31D-11
 IDIUse=1 WtCom= 1.00D+00 WtEn= 0.00D+00
 Coeff-Com:  0.572D-07 0.165D-06 0.390D-04 0.206D-04-0.491D-05-0.144D-03
 Coeff-Com: -0.277D-03-0.170D-02 0.494D-02 0.615D-02-0.159D-01-0.228D-01
 Coeff-Com:  0.100D-01 0.153D+00 0.449D-01-0.666D+00 0.431D+00 0.106D+01
 Coeff:      0.572D-07 0.165D-06 0.390D-04 0.206D-04-0.491D-05-0.144D-03
 Coeff:     -0.277D-03-0.170D-02 0.494D-02 0.615D-02-0.159D-01-0.228D-01
 Coeff:      0.100D-01 0.153D+00 0.449D-01-0.666D+00 0.431D+00 0.106D+01
 Gap=     0.035 Goal=   None    Shift=    0.000
 Gap=     0.051 Goal=   None    Shift=    0.000
 RMSDP=9.84D-07 MaxDP=4.57D-05 DE=-3.84D-10 OVMax= 4.49D-05

 Cycle  19  Pass 1  IDiag  1:
 E= -1136.09777259663     Delta-E=       -0.000000000073 Rises=F Damp=F
 DIIS: error= 4.66D-08 at cycle  19 NSaved=  19.
 NSaved=19 IEnMin=19 EnMin= -1136.09777259663     IErMin=19 ErrMin= 4.66D-08
 ErrMax= 4.66D-08  0.00D+00 EMaxC= 1.00D-01 BMatC= 5.26D-13 BMatP= 3.62D-12
 IDIUse=1 WtCom= 1.00D+00 WtEn= 0.00D+00
 Coeff-Com: -0.547D-05 0.717D-05 0.250D-04-0.984D-05 0.128D-03 0.455D-03
 Coeff-Com: -0.501D-03-0.177D-02-0.168D-02 0.318D-02 0.999D-02 0.623D-03
 Coeff-Com: -0.625D-01 0.492D-01 0.111D+00 0.428D-02-0.326D+00-0.275D-01
 Coeff-Com:  0.124D+01
 Coeff:     -0.547D-05 0.717D-05 0.250D-04-0.984D-05 0.128D-03 0.455D-03
 Coeff:     -0.501D-03-0.177D-02-0.168D-02 0.318D-02 0.999D-02 0.623D-03
 Coeff:     -0.625D-01 0.492D-01 0.111D+00 0.428D-02-0.326D+00-0.275D-01
 Coeff:      0.124D+01
 Gap=     0.035 Goal=   None    Shift=    0.000
 Gap=     0.051 Goal=   None    Shift=    0.000
 RMSDP=3.48D-07 MaxDP=2.07D-05 DE=-7.28D-11 OVMax= 1.33D-05

 Cycle  20  Pass 1  IDiag  1:
 E= -1136.09777259663     Delta-E=       -0.000000000006 Rises=F Damp=F
 DIIS: error= 1.19D-08 at cycle  20 NSaved=  20.
 NSaved=20 IEnMin=20 EnMin= -1136.09777259663     IErMin=20 ErrMin= 1.19D-08
 ErrMax= 1.19D-08  0.00D+00 EMaxC= 1.00D-01 BMatC= 6.94D-14 BMatP= 5.26D-13
 IDIUse=1 WtCom= 1.00D+00 WtEn= 0.00D+00
 Coeff-Com:  0.897D-08-0.518D-07-0.444D-05-0.307D-05 0.824D-05 0.372D-04
 Coeff-Com:  0.161D-04 0.239D-03-0.844D-03-0.882D-03 0.281D-02 0.376D-02
 Coeff-Com: -0.247D-02-0.250D-01-0.110D-01 0.120D+00-0.724D-01-0.210D+00
 Coeff-Com:  0.631D-01 0.113D+01
 Coeff:      0.897D-08-0.518D-07-0.444D-05-0.307D-05 0.824D-05 0.372D-04
 Coeff:      0.161D-04 0.239D-03-0.844D-03-0.882D-03 0.281D-02 0.376D-02
 Coeff:     -0.247D-02-0.250D-01-0.110D-01 0.120D+00-0.724D-01-0.210D+00
 Coeff:      0.631D-01 0.113D+01
 Gap=     0.035 Goal=   None    Shift=    0.000
 Gap=     0.051 Goal=   None    Shift=    0.000
 RMSDP=9.18D-08 MaxDP=4.98D-06 DE=-6.37D-12 OVMax= 3.09D-06

 Cycle  21  Pass 1  IDiag  1:
 E= -1136.09777259664     Delta-E=       -0.000000000004 Rises=F Damp=F
 DIIS: error= 4.48D-09 at cycle  21 NSaved=  20.
 NSaved=20 IEnMin=20 EnMin= -1136.09777259664     IErMin=20 ErrMin= 4.48D-09
 ErrMax= 4.48D-09  0.00D+00 EMaxC= 1.00D-01 BMatC= 7.36D-15 BMatP= 6.94D-14
 IDIUse=1 WtCom= 1.00D+00 WtEn= 0.00D+00
 Coeff-Com:  0.220D-07-0.218D-05-0.763D-06-0.531D-05 0.341D-05 0.331D-04
 Coeff-Com: -0.974D-06-0.662D-05 0.234D-04-0.608D-04 0.176D-03 0.117D-02
 Coeff-Com: -0.217D-02-0.148D-02-0.706D-02 0.232D-01 0.832D-02-0.117D+00
 Coeff-Com:  0.397D-01 0.105D+01
 Coeff:      0.220D-07-0.218D-05-0.763D-06-0.531D-05 0.341D-05 0.331D-04
 Coeff:     -0.974D-06-0.662D-05 0.234D-04-0.608D-04 0.176D-03 0.117D-02
 Coeff:     -0.217D-02-0.148D-02-0.706D-02 0.232D-01 0.832D-02-0.117D+00
 Coeff:      0.397D-01 0.105D+01
 Gap=     0.035 Goal=   None    Shift=    0.000
 Gap=     0.051 Goal=   None    Shift=    0.000
 RMSDP=1.52D-08 MaxDP=1.12D-06 DE=-4.09D-12 OVMax= 5.16D-07

 Cycle  22  Pass 1  IDiag  1:
 E= -1136.09777259663     Delta-E=        0.000000000009 Rises=F Damp=F
 DIIS: error= 1.67D-09 at cycle  22 NSaved=  20.
 NSaved=20 IEnMin=19 EnMin= -1136.09777259664     IErMin=20 ErrMin= 1.67D-09
 ErrMax= 1.67D-09  0.00D+00 EMaxC= 1.00D-01 BMatC= 1.15D-15 BMatP= 7.36D-15
 IDIUse=1 WtCom= 1.00D+00 WtEn= 0.00D+00
 Large coefficients: NSaved= 20 BigCof=    0.00 CofMax=   10.00 Det=-3.49D-15
 Inversion failed.  Reducing to 19 matrices.
 Large coefficients: NSaved= 19 BigCof=    0.00 CofMax=   10.00 Det=-3.52D-15
 Inversion failed.  Reducing to 18 matrices.
 Large coefficients: NSaved= 18 BigCof=    0.00 CofMax=   10.00 Det=-3.56D-15
 Inversion failed.  Reducing to 17 matrices.
 Large coefficients: NSaved= 17 BigCof=    0.00 CofMax=   10.00 Det=-3.88D-15
 Inversion failed.  Reducing to 16 matrices.
 Large coefficients: NSaved= 16 BigCof=    0.00 CofMax=   10.00 Det=-5.21D-15
 Inversion failed.  Reducing to 15 matrices.
 Coeff-Com: -0.310D-04 0.590D-04 0.912D-04-0.243D-03-0.141D-03 0.767D-04
 Coeff-Com:  0.214D-02 0.142D-02-0.120D-01 0.936D-02 0.178D-01-0.156D-01
 Coeff-Com: -0.110D+00 0.114D+00 0.993D+00
 Coeff:     -0.310D-04 0.590D-04 0.912D-04-0.243D-03-0.141D-03 0.767D-04
 Coeff:      0.214D-02 0.142D-02-0.120D-01 0.936D-02 0.178D-01-0.156D-01
 Coeff:     -0.110D+00 0.114D+00 0.993D+00
 Gap=     0.035 Goal=   None    Shift=    0.000
 Gap=     0.051 Goal=   None    Shift=    0.000
 RMSDP=7.08D-09 MaxDP=4.96D-07 DE= 9.09D-12 OVMax= 1.73D-07

 SCF Done:  E(UB3LYP) =  -1136.09777260     A.U. after   22 cycles
            NFock= 22  Conv=0.71D-08     -V/T= 2.0026
 <Sx>= 0.0000 <Sy>= 0.0000 <Sz>= 0.5000 <S**2>= 0.7621 S= 0.5060
 <L.S>= 0.000000000000E+00
 KE= 1.133099911063D+03 PE=-3.355108572754D+03 EE= 7.729518411342D+02
 Annihilation of the first spin contaminant:
 S**2 before annihilation     0.7621,   after     0.7501
 Leave Link  502 at Mon Nov 13 15:32:49 2023, MaxMem=  1879048192 cpu:             213.9 elap:              18.3
 (Enter /home/sekinelabo/g16/l601.exe)
 Copying SCF densities to generalized density rwf, IOpCl= 1 IROHF=0.

 **********************************************************************

            Population analysis using the SCF Density.

 **********************************************************************

 Orbital symmetries:
 Alpha Orbitals:
       Occupied  (A) (A) (A) (A) (A) (A) (A) (A) (A) (A) (A) (A)
                 (A) (A) (A) (A) (A) (A) (A) (A) (A) (A) (A) (A)
                 (A) (A) (A) (A) (A) (A) (A) (A) (A) (A) (A) (A)
                 (A) (A) (A)
       Virtual   (A) (A) (A) (A) (A) (A) (A) (A) (A) (A) (A) (A)
                 (A) (A) (A) (A) (A) (A) (A) (A) (A) (A) (A) (A)
                 (A) (A) (A) (A) (A) (A) (A) (A) (A) (A) (A) (A)
                 (A) (A) (A) (A) (A) (A) (A) (A) (A) (A) (A) (A)
                 (A) (A) (A) (A) (A) (A) (A) (A) (A) (A) (A) (A)
                 (A) (A) (A) (A) (A) (A) (A) (A) (A) (A) (A) (A)
                 (A) (A) (A) (A) (A) (A) (A) (A) (A) (A) (A) (A)
                 (A) (A) (A) (A) (A) (A) (A) (A) (A) (A) (A) (A)
                 (A) (A) (A) (A) (A) (A) (A) (A) (A) (A) (A) (A)
                 (A) (A) (A) (A) (A) (A) (A) (A) (A) (A) (A) (A)
                 (A) (A) (A) (A) (A) (A) (A) (A) (A) (A) (A) (A)
                 (A) (A) (A) (A) (A) (A) (A) (A) (A) (A) (A) (A)
                 (A) (A) (A) (A) (A) (A) (A) (A) (A) (A) (A) (A)
                 (A) (A) (A) (A) (A) (A) (A) (A) (A) (A) (A) (A)
                 (A) (A) (A)
 Beta  Orbitals:
       Occupied  (A) (A) (A) (A) (A) (A) (A) (A) (A) (A) (A) (A)
                 (A) (A) (A) (A) (A) (A) (A) (A) (A) (A) (A) (A)
                 (A) (A) (A) (A) (A) (A) (A) (A) (A) (A) (A) (A)
                 (A) (A)
       Virtual   (A) (A) (A) (A) (A) (A) (A) (A) (A) (A) (A) (A)
                 (A) (A) (A) (A) (A) (A) (A) (A) (A) (A) (A) (A)
                 (A) (A) (A) (A) (A) (A) (A) (A) (A) (A) (A) (A)
                 (A) (A) (A) (A) (A) (A) (A) (A) (A) (A) (A) (A)
                 (A) (A) (A) (A) (A) (A) (A) (A) (A) (A) (A) (A)
                 (A) (A) (A) (A) (A) (A) (A) (A) (A) (A) (A) (A)
                 (A) (A) (A) (A) (A) (A) (A) (A) (A) (A) (A) (A)
                 (A) (A) (A) (A) (A) (A) (A) (A) (A) (A) (A) (A)
                 (A) (A) (A) (A) (A) (A) (A) (A) (A) (A) (A) (A)
                 (A) (A) (A) (A) (A) (A) (A) (A) (A) (A) (A) (A)
                 (A) (A) (A) (A) (A) (A) (A) (A) (A) (A) (A) (A)
                 (A) (A) (A) (A) (A) (A) (A) (A) (A) (A) (A) (A)
                 (A) (A) (A) (A) (A) (A) (A) (A) (A) (A) (A) (A)
                 (A) (A) (A) (A) (A) (A) (A) (A) (A) (A) (A) (A)
                 (A) (A) (A) (A)
 The electronic state is 2-A.
 Alpha  occ. eigenvalues --  -38.44875 -38.44601 -38.44538 -38.44463 -38.44249
 Alpha  occ. eigenvalues --  -38.44130 -38.42291  -2.20766  -2.20522  -2.20493
 Alpha  occ. eigenvalues --   -2.20361  -2.20170  -2.20101  -2.18182  -1.14506
 Alpha  occ. eigenvalues --   -1.14430  -1.14397  -1.14363  -1.14260  -1.14205
 Alpha  occ. eigenvalues --   -1.14167  -1.14100  -1.14076  -1.13986  -1.13970
 Alpha  occ. eigenvalues --   -1.13942  -1.13934  -1.13796  -1.13791  -1.13772
 Alpha  occ. eigenvalues --   -1.13747  -1.13678  -1.11896  -1.11831  -1.11796
 Alpha  occ. eigenvalues --   -0.17520  -0.15684  -0.11767  -0.09999
 Alpha virt. eigenvalues --   -0.06474  -0.06191  -0.04496  -0.03806  -0.02758
 Alpha virt. eigenvalues --   -0.02246  -0.01956  -0.01397  -0.00697  -0.00376
 Alpha virt. eigenvalues --   -0.00205   0.00193   0.00229   0.00350   0.00524
 Alpha virt. eigenvalues --    0.00708   0.00850   0.00992   0.01163   0.01381
 Alpha virt. eigenvalues --    0.01492   0.01737   0.01811   0.01901   0.02051
 Alpha virt. eigenvalues --    0.02120   0.02167   0.02250   0.02458   0.02546
 Alpha virt. eigenvalues --    0.02597   0.02659   0.02713   0.02775   0.02953
 Alpha virt. eigenvalues --    0.03060   0.03229   0.03382   0.03450   0.03661
 Alpha virt. eigenvalues --    0.03871   0.03972   0.04084   0.04329   0.04625
 Alpha virt. eigenvalues --    0.04794   0.05071   0.05454   0.05584   0.05882
 Alpha virt. eigenvalues --    0.06105   0.06271   0.06599   0.06837   0.07280
 Alpha virt. eigenvalues --    0.07498   0.07738   0.07978   0.08272   0.08615
 Alpha virt. eigenvalues --    0.08690   0.09210   0.09418   0.10093   0.10363
 Alpha virt. eigenvalues --    0.10546   0.11253   0.11904   0.12318   0.12475
 Alpha virt. eigenvalues --    0.12802   0.13562   0.13788   0.14342   0.14884
 Alpha virt. eigenvalues --    0.15041   0.15503   0.16162   0.17269   0.19178
 Alpha virt. eigenvalues --    0.25822   0.26771   0.27893   0.28060   0.28941
 Alpha virt. eigenvalues --    0.29993   0.30195   0.30998   0.31435   0.32154
 Alpha virt. eigenvalues --    0.32419   0.32989   0.33396   0.35264   0.36964
 Alpha virt. eigenvalues --    0.38316   0.38677   0.39074   0.40132   0.41973
 Alpha virt. eigenvalues --    0.42376   0.42670   0.43303   0.43548   0.43944
 Alpha virt. eigenvalues --    0.44231   0.44320   0.44704   0.45009   0.45219
 Alpha virt. eigenvalues --    0.45347   0.45839   0.46195   0.46968   0.47773
 Alpha virt. eigenvalues --    0.48101   0.48780   0.49506   0.49667   0.50501
 Alpha virt. eigenvalues --    0.51145   0.51829   0.52202   0.52926   0.53720
 Alpha virt. eigenvalues --    0.54190   0.55259   0.59147   0.66436   0.68632
 Alpha virt. eigenvalues --    0.70357   0.71008   0.72074   0.73118   0.75548
 Alpha virt. eigenvalues --    0.80859   2.08296   2.10317   2.14672   2.16793
 Alpha virt. eigenvalues --    2.17693   2.21866   2.26281   4.39797   4.40509
 Alpha virt. eigenvalues --    4.42194   4.42478   4.43019   4.43151   4.43267
 Alpha virt. eigenvalues --    4.44507   4.45214   4.46142   4.47578   4.48121
 Alpha virt. eigenvalues --    4.48278   4.54940   4.56673   4.58301   4.64482
 Alpha virt. eigenvalues --    4.69575   4.69774   4.71408   4.76643  96.28750
 Alpha virt. eigenvalues --   96.31386  96.37534  96.40903  96.41781  96.46891
 Alpha virt. eigenvalues --   96.52418
  Beta  occ. eigenvalues --  -38.44853 -38.44568 -38.44516 -38.44444 -38.44203
  Beta  occ. eigenvalues --  -38.44120 -38.42290  -2.20727  -2.20482  -2.20434
  Beta  occ. eigenvalues --   -2.20326  -2.20094  -2.20075  -2.18181  -1.14485
  Beta  occ. eigenvalues --   -1.14395  -1.14351  -1.14333  -1.14220  -1.14166
  Beta  occ. eigenvalues --   -1.14139  -1.14055  -1.14033  -1.13963  -1.13931
  Beta  occ. eigenvalues --   -1.13906  -1.13896  -1.13761  -1.13750  -1.13728
  Beta  occ. eigenvalues --   -1.13716  -1.13637  -1.11894  -1.11831  -1.11789
  Beta  occ. eigenvalues --   -0.17033  -0.15379  -0.11664
  Beta virt. eigenvalues --   -0.06531  -0.06373  -0.05347  -0.04233  -0.03655
  Beta virt. eigenvalues --   -0.02550  -0.01822  -0.01428  -0.01222  -0.00464
  Beta virt. eigenvalues --   -0.00080  -0.00041   0.00355   0.00367   0.00553
  Beta virt. eigenvalues --    0.00624   0.00797   0.00934   0.01038   0.01225
  Beta virt. eigenvalues --    0.01516   0.01601   0.01826   0.01935   0.01995
  Beta virt. eigenvalues --    0.02138   0.02230   0.02254   0.02360   0.02526
  Beta virt. eigenvalues --    0.02651   0.02702   0.02731   0.02805   0.02832
  Beta virt. eigenvalues --    0.02960   0.03157   0.03307   0.03421   0.03520
  Beta virt. eigenvalues --    0.03774   0.03984   0.04095   0.04142   0.04413
  Beta virt. eigenvalues --    0.04814   0.04908   0.05139   0.05543   0.05650
  Beta virt. eigenvalues --    0.06051   0.06151   0.06285   0.06748   0.06869
  Beta virt. eigenvalues --    0.07357   0.07559   0.07774   0.08141   0.08324
  Beta virt. eigenvalues --    0.08671   0.08860   0.09463   0.09523   0.10215
  Beta virt. eigenvalues --    0.10571   0.10704   0.11461   0.12107   0.12604
  Beta virt. eigenvalues --    0.12692   0.13113   0.13766   0.13906   0.14584
  Beta virt. eigenvalues --    0.15015   0.15171   0.15751   0.16322   0.17431
  Beta virt. eigenvalues --    0.19257   0.26033   0.26875   0.28083   0.28315
  Beta virt. eigenvalues --    0.29035   0.30116   0.30391   0.31208   0.31672
  Beta virt. eigenvalues --    0.32391   0.32570   0.33327   0.33611   0.35389
  Beta virt. eigenvalues --    0.37052   0.38567   0.38876   0.39261   0.40375
  Beta virt. eigenvalues --    0.42116   0.42686   0.42921   0.43489   0.43772
  Beta virt. eigenvalues --    0.44083   0.44398   0.44532   0.44838   0.45154
  Beta virt. eigenvalues --    0.45339   0.45536   0.46020   0.46259   0.47149
  Beta virt. eigenvalues --    0.47939   0.48325   0.48946   0.49667   0.49809
  Beta virt. eigenvalues --    0.50697   0.51295   0.52020   0.52336   0.52994
  Beta virt. eigenvalues --    0.53839   0.54270   0.55393   0.59194   0.66506
  Beta virt. eigenvalues --    0.68773   0.70551   0.71174   0.72142   0.73125
  Beta virt. eigenvalues --    0.75641   0.80901   2.08387   2.10409   2.14708
  Beta virt. eigenvalues --    2.16947   2.17829   2.21928   2.26322   4.39817
  Beta virt. eigenvalues --    4.40538   4.42227   4.42527   4.43059   4.43210
  Beta virt. eigenvalues --    4.43299   4.44564   4.45253   4.46158   4.47615
  Beta virt. eigenvalues --    4.48145   4.48300   4.54985   4.56747   4.58327
  Beta virt. eigenvalues --    4.64495   4.69601   4.69806   4.71428   4.76653
  Beta virt. eigenvalues --   96.28783  96.31421  96.37548  96.40948  96.41819
  Beta virt. eigenvalues --   96.46914  96.52433
          Condensed to atoms (all electrons):
               1          2          3          4          5          6
     1  Na  10.996564   0.104824   0.330289  -0.894761   0.340579  -0.718602
     2  Na   0.104824  10.954592   0.370872  -0.086275  -0.398087  -0.071860
     3  Na   0.330289   0.370872  12.553623  -2.918080  -0.550928  -0.257001
     4  Na  -0.894761  -0.086275  -2.918080  15.948116  -0.244580   1.172830
     5  Na   0.340579  -0.398087  -0.550928  -0.244580  12.408395  -1.401208
     6  Na  -0.718602  -0.071860  -0.257001   1.172830  -1.401208  13.825563
     7  Na   0.335188  -0.317964   0.001847  -0.266983   0.540208  -0.988947
               7
     1  Na   0.335188
     2  Na  -0.317964
     3  Na   0.001847
     4  Na  -0.266983
     5  Na   0.540208
     6  Na  -0.988947
     7  Na  12.150428
          Atomic-Atomic Spin Densities.
               1          2          3          4          5          6
     1  Na   0.078947   0.018850   0.048841  -0.014319  -0.002042  -0.142411
     2  Na   0.018850   0.065911   0.172894  -0.188143   0.010156  -0.068992
     3  Na   0.048841   0.172894   0.323301  -0.143680  -0.244128  -0.025623
     4  Na  -0.014319  -0.188143  -0.143680   0.162529   0.226695  -0.036009
     5  Na  -0.002042   0.010156  -0.244128   0.226695   0.318035  -0.223975
     6  Na  -0.142411  -0.068992  -0.025623  -0.036009  -0.223975   1.153930
     7  Na   0.112053   0.137321   0.091437   0.032809   0.025363  -0.562516
               7
     1  Na   0.112053
     2  Na   0.137321
     3  Na   0.091437
     4  Na   0.032809
     5  Na   0.025363
     6  Na  -0.562516
     7  Na   0.448189
 Mulliken charges and spin densities:
               1          2
     1  Na   0.505919   0.099918
     2  Na   0.443899   0.147996
     3  Na   1.469378   0.223041
     4  Na  -1.710266   0.039882
     5  Na   0.305621   0.110105
     6  Na  -0.560774   0.094402
     7  Na  -0.453777   0.284656
 Sum of Mulliken charges =  -0.00000   1.00000
 Mulliken charges and spin densities with hydrogens summed into heavy atoms:
               1          2
     1  Na   0.505919   0.099918
     2  Na   0.443899   0.147996
     3  Na   1.469378   0.223041
     4  Na  -1.710266   0.039882
     5  Na   0.305621   0.110105
     6  Na  -0.560774   0.094402
     7  Na  -0.453777   0.284656
 Electronic spatial extent (au):  <R**2>=           3272.3199
 Charge=             -0.0000 electrons
 Dipole moment (field-independent basis, Debye):
    X=              0.2976    Y=             -1.3291    Z=              0.6301  Tot=              1.5007
 Quadrupole moment (field-independent basis, Debye-Ang):
   XX=            -60.5478   YY=            -72.3933   ZZ=            -66.6635
   XY=             -2.4013   XZ=              0.8291   YZ=             -1.1644
 Traceless Quadrupole moment (field-independent basis, Debye-Ang):
   XX=              5.9871   YY=             -5.8585   ZZ=             -0.1286
   XY=             -2.4013   XZ=              0.8291   YZ=             -1.1644
 Octapole moment (field-independent basis, Debye-Ang**2):
  XXX=             25.4175  YYY=            -13.6182  ZZZ=             11.4609  XYY=              4.6389
  XXY=             -1.4641  XXZ=              4.7911  XZZ=             -8.8434  YZZ=            -15.1583
  YYZ=              0.9667  XYZ=             11.9706
 Hexadecapole moment (field-independent basis, Debye-Ang**3):
 XXXX=          -3567.0152 YYYY=          -1375.5080 ZZZZ=           -640.0072 XXXY=            -89.0897
 XXXZ=             65.5828 YYYX=            -21.6978 YYYZ=            -20.1277 ZZZX=             -6.1882
 ZZZY=            -23.7270 XXYY=           -795.4814 XXZZ=           -632.2678 YYZZ=           -323.9125
 XXYZ=             -7.1156 YYXZ=            -28.0387 ZZXY=             24.6949
 N-N= 3.129590479594D+02 E-N=-3.355108572658D+03  KE= 1.133099911063D+03
                          Isotropic Fermi Contact Couplings
        Atom                 a.u.       MegaHertz       Gauss      10(-4) cm-1
     1  Na(23)             0.06490      76.77339      27.39466      25.60885
     2  Na(23)             0.05167      61.12728      21.81173      20.38986
     3  Na(23)             0.20903     247.28982      88.23916      82.48701
     4  Na(23)            -0.00903     -10.68746      -3.81355      -3.56495
     5  Na(23)            -0.01076     -12.73283      -4.54339      -4.24722
     6  Na(23)             0.06844      80.96880      28.89168      27.00828
     7  Na(23)             0.11562     136.78333      48.80769      45.62601
 --------------------------------------------------------
       Center         ----  Spin Dipole Couplings  ----
                      3XX-RR        3YY-RR        3ZZ-RR
 --------------------------------------------------------
     1   Atom        0.000017      0.011111     -0.011128
     2   Atom        0.023411     -0.018233     -0.005178
     3   Atom       -0.001244      0.004525     -0.003282
     4   Atom        0.006533     -0.015754      0.009221
     5   Atom       -0.000463     -0.000053      0.000516
     6   Atom       -0.001100     -0.012337      0.013437
     7   Atom        0.015105     -0.008385     -0.006720
 --------------------------------------------------------
                        XY            XZ            YZ
 --------------------------------------------------------
     1   Atom       -0.011472     -0.003763      0.006739
     2   Atom        0.003761      0.022176      0.001576
     3   Atom       -0.002295     -0.004875     -0.001535
     4   Atom        0.023070      0.031895      0.016654
     5   Atom       -0.004617     -0.006853      0.005736
     6   Atom        0.000855     -0.014441     -0.001343
     7   Atom       -0.004873     -0.011088      0.002128
 --------------------------------------------------------


 ---------------------------------------------------------------------------------
              Anisotropic Spin Dipole Couplings in Principal Axis System
 ---------------------------------------------------------------------------------

       Atom             a.u.   MegaHertz   Gauss  10(-4) cm-1        Axes

              Baa    -0.0130    -1.843    -0.658    -0.615  0.0716 -0.2363  0.9690
     1 Na(23) Bbb    -0.0072    -1.010    -0.361    -0.337  0.8554  0.5143  0.0622
              Bcc     0.0202     2.853     1.018     0.952 -0.5131  0.8244  0.2390
 
              Baa    -0.0187    -2.635    -0.940    -0.879 -0.1995  0.9557  0.2164
     2 Na(23) Bbb    -0.0171    -2.421    -0.864    -0.808 -0.4395 -0.2847  0.8520
              Bcc     0.0358     5.056     1.804     1.687  0.8758  0.0749  0.4768
 
              Baa    -0.0078    -1.103    -0.394    -0.368  0.6290  0.2102  0.7484
     3 Na(23) Bbb     0.0025     0.350     0.125     0.117  0.6942  0.2815 -0.6625
              Bcc     0.0053     0.753     0.269     0.251 -0.3499  0.9363  0.0312
 
              Baa    -0.0308    -4.345    -1.550    -1.449 -0.6257  0.7582  0.1833
     4 Na(23) Bbb    -0.0207    -2.929    -1.045    -0.977 -0.4203 -0.5257  0.7396
              Bcc     0.0515     7.273     2.595     2.426  0.6571  0.3857  0.6476
 
              Baa    -0.0069    -0.980    -0.350    -0.327  0.6547 -0.1738  0.7356
     5 Na(23) Bbb    -0.0046    -0.651    -0.232    -0.217  0.5030  0.8266 -0.2523
              Bcc     0.0116     1.631     0.582     0.544 -0.5642  0.5352  0.6286
 
              Baa    -0.0124    -1.753    -0.625    -0.585 -0.0322  0.9989  0.0339
     6 Na(23) Bbb    -0.0100    -1.412    -0.504    -0.471  0.8511  0.0097  0.5250
              Bcc     0.0224     3.164     1.129     1.056 -0.5241 -0.0458  0.8504
 
              Baa    -0.0114    -1.605    -0.573    -0.535  0.3800 -0.0384  0.9242
     7 Na(23) Bbb    -0.0094    -1.321    -0.471    -0.441  0.1807  0.9830 -0.0334
              Bcc     0.0207     2.926     1.044     0.976  0.9072 -0.1797 -0.3805
 

 ---------------------------------------------------------------------------------

 No NMR shielding tensors so no spin-rotation constants.
 Leave Link  601 at Mon Nov 13 15:32:49 2023, MaxMem=  1879048192 cpu:               2.7 elap:               0.2
 (Enter /home/sekinelabo/g16/l701.exe)
 ... and contract with generalized density number  0.
 Compute integral first derivatives.
 Leave Link  701 at Mon Nov 13 15:32:49 2023, MaxMem=  1879048192 cpu:               1.7 elap:               0.1
 (Enter /home/sekinelabo/g16/l702.exe)
 L702 exits ... SP integral derivatives will be done elsewhere.
 Leave Link  702 at Mon Nov 13 15:32:49 2023, MaxMem=  1879048192 cpu:               0.4 elap:               0.0
 (Enter /home/sekinelabo/g16/l703.exe)
 Integral derivatives from FoFJK, PRISM(SPDF).
 Compute integral first derivatives, UseDBF=F ICtDFT=           0.
 Calling FoFJK, ICntrl=      2127 FMM=F ISym2X=0 I1Cent= 0 IOpClX= 1 NMat=1 NMatS=1 NMatT=0.
 FoFJK:  IHMeth= 1 ICntrl=    2127 DoSepK=F KAlg= 0 I1Cent=           0 FoldK=F
 IRaf=         0 NMat=       1 IRICut=       1 DoRegI=T DoRafI=F ISym2E= 0 IDoP0=0 IntGTp=1.
 FoFCou: FMM=F IPFlag=           0 FMFlag=      100000 FMFlg1=         800
         NFxFlg=           0 DoJE=F BraDBF=F KetDBF=F FulRan=T
         wScrn=  0.000000 ICntrl=      2127 IOpCl=  1 I1Cent=           0 NGrid=           0
         NMat0=    1 NMatS0=      1 NMatT0=    0 NMatD0=    1 NMtDS0=    0 NMtDT0=    0
 Symmetry not used in FoFCou.
 Leave Link  703 at Mon Nov 13 15:32:52 2023, MaxMem=  1879048192 cpu:              32.6 elap:               2.1
 (Enter /home/sekinelabo/g16/l716.exe)
 Dipole        = 1.17099911D-01-5.22895795D-01 2.47907181D-01
 ***** Axes restored to original set *****
 -------------------------------------------------------------------
 Center     Atomic                   Forces (Hartrees/Bohr)
 Number     Number              X              Y              Z
 -------------------------------------------------------------------
      1       11          -0.003181186   -0.005460917    0.007462770
      2       11          -0.003969638   -0.008258362   -0.005794980
      3       11           0.009005182    0.000244624    0.006858659
      4       11          -0.004935384    0.004539010   -0.001119069
      5       11           0.000157336    0.007139713   -0.001725467
      6       11          -0.004796492    0.007445085    0.001323852
      7       11           0.007720182   -0.005649153   -0.007005765
 -------------------------------------------------------------------
 Cartesian Forces:  Max     0.009005182 RMS     0.005616060
 Z-matrix is all fixed cartesians, so copy forces.
 Force constants in Cartesian coordinates: 
                1             2             3             4             5 
      1  0.134241D-01
      2 -0.429208D-03  0.382416D-01
      3 -0.143020D-01 -0.168594D-01  0.541945D-01
      4  0.000000D+00  0.000000D+00  0.000000D+00  0.278912D-01
      5  0.000000D+00  0.000000D+00  0.000000D+00 -0.195037D-02  0.503421D-01
      6  0.000000D+00  0.000000D+00  0.000000D+00  0.168030D-01  0.262211D-01
      7  0.000000D+00  0.000000D+00  0.000000D+00 -0.132546D-01 -0.688411D-03
      8  0.000000D+00  0.000000D+00  0.000000D+00 -0.151176D-01 -0.140552D-01
      9  0.000000D+00  0.000000D+00  0.000000D+00 -0.201312D-01 -0.949549D-02
     10  0.000000D+00  0.000000D+00 -0.128645D-05 -0.179714D-01  0.175889D-02
     11  0.351560D-05 -0.820868D-05 -0.130699D-04  0.112546D-01 -0.377428D-01
     12  0.203923D-04 -0.476146D-04 -0.758124D-04  0.484874D-03 -0.169377D-01
     13  0.377614D-02  0.357019D-03  0.761041D-03  0.333427D-02  0.879168D-03
     14 -0.516200D-02 -0.459803D-03 -0.994785D-03  0.580725D-02  0.144849D-02
     15  0.428811D-02  0.547039D-03  0.109268D-02  0.280821D-02  0.169449D-03
     16 -0.121611D-01 -0.425778D-02  0.181094D-02  0.000000D+00  0.000000D+00
     17  0.789886D-02 -0.320798D-01  0.839123D-02  0.605368D-05  0.735579D-05
     18 -0.539137D-02  0.256284D-01 -0.169414D-01  0.351145D-04  0.426674D-04
     19 -0.503948D-02  0.433078D-02  0.117313D-01  0.000000D+00  0.000000D+00
     20 -0.231117D-02 -0.569376D-02  0.947602D-02  0.000000D+00  0.000000D+00
     21  0.153849D-01 -0.926846D-02 -0.382701D-01  0.000000D+00  0.000000D+00
                6             7             8             9            10 
      6  0.286608D-01
      7 -0.119093D-01  0.437870D-01
      8 -0.210327D-01 -0.528739D-02  0.275355D-01
      9 -0.199964D-01  0.281359D-01  0.127567D-01  0.364074D-01
     10 -0.570425D-02 -0.309886D-01  0.194488D-01 -0.802441D-02  0.836265D-01
     11 -0.685006D-02  0.558244D-02 -0.154025D-01 -0.434905D-02 -0.245567D-01
     12 -0.110721D-01 -0.138419D-01  0.569878D-02 -0.236976D-01  0.175590D-01
     13  0.812204D-03  0.458231D-03  0.959268D-03  0.187013D-04 -0.324540D-01
     14  0.167859D-02  0.413571D-03  0.195345D-02  0.107789D-02 -0.100371D-03
     15  0.250568D-02 -0.226752D-02  0.275872D-02  0.722907D-02 -0.344831D-02
     16 -0.166337D-05 -0.198885D-05 -0.307978D-05  0.000000D+00 -0.221248D-02
     17 -0.168994D-04 -0.202061D-04 -0.312896D-04  0.991560D-05  0.344985D-02
     18 -0.980251D-04 -0.117206D-03 -0.181496D-03  0.575157D-04 -0.379555D-03
     19  0.000000D+00  0.000000D+00  0.000000D+00  0.000000D+00  0.000000D+00
     20  0.000000D+00  0.000000D+00  0.000000D+00  0.000000D+00  0.000000D+00
     21  0.000000D+00  0.000000D+00  0.000000D+00  0.000000D+00 -0.119749D-05
               11            12            13            14            15 
     11  0.783583D-01
     12  0.156088D-01  0.550381D-01
     13  0.112110D-01 -0.483849D-02  0.583894D-01
     14 -0.306649D-01 -0.343800D-02 -0.190081D-02  0.568228D-01
     15 -0.385084D-02 -0.206819D-01  0.146088D-02 -0.312546D-02  0.161333D-01
     16 -0.349055D-02  0.640798D-03 -0.366092D-01  0.650470D-02  0.239369D-03
     17  0.545571D-02 -0.909443D-03 -0.128928D-01 -0.266031D-01  0.493774D-02
     18 -0.533610D-03  0.559859D-03  0.232841D-02  0.380463D-02 -0.694207D-02
     19 -0.425166D-05 -0.246618D-04  0.310510D-02 -0.556234D-02 -0.308075D-02
     20  0.434855D-05  0.252239D-04  0.138715D-02 -0.249692D-02 -0.143665D-02
     21 -0.121662D-04 -0.705702D-04 -0.542750D-03  0.997141D-03  0.663252D-03
               16            17            18            19            20 
     16  0.648722D-01
     17 -0.864594D-02  0.848198D-01
     18 -0.905706D-02 -0.855071D-02  0.357957D-01
     19 -0.138881D-01  0.102041D-01  0.125817D-01  0.158229D-01
     20  0.989193D-02 -0.315686D-01 -0.202099D-01 -0.896833D-02  0.397550D-01
     21  0.636664D-02 -0.386183D-02 -0.124317D-01 -0.212076D-01  0.121453D-01
               21 
     21  0.501090D-01
 Leave Link  716 at Mon Nov 13 15:32:52 2023, MaxMem=  1879048192 cpu:               0.5 elap:               0.0
 (Enter /home/sekinelabo/g16/l103.exe)

 GradGradGradGradGradGradGradGradGradGradGradGradGradGradGradGradGradGrad
 Berny optimization.
 Search for a local minimum.
 Step number   1 out of a maximum of    2
 All quantities printed in internal units (Hartrees-Bohrs-Radians)
 Second derivative matrix not updated -- first step.
 ITU=  0
     Eigenvalues ---    0.00029   0.00067   0.00234   0.01417   0.01876
     Eigenvalues ---    0.03122   0.04386   0.05800   0.07911   0.09731
     Eigenvalues ---    0.10410   0.10844   0.11786   0.13442   0.14928
 Quadratic step=6.295D+00 exceeds max=3.000D-01 adjusted using Lamda=-2.286D-02.
 Angle between NR and scaled steps=  59.55 degrees.
 Angle between quadratic step and forces=  32.05 degrees.
 Linear search not attempted -- first point.
 B after Tr=     0.000000    0.000000    0.000000
         Rot=    1.000000   -0.000000   -0.000000    0.000000 Ang=   0.00 deg.
 Variable       Old X    -DE/DX   Delta X   Delta X   Delta X     New X
                                 (Linear)    (Quad)   (Total)
    X1        0.00000  -0.00318   0.00000  -0.04769  -0.04769  -0.04769
    Y1        0.29916  -0.00546   0.00000  -0.07266  -0.07266   0.22649
    Z1        5.33518   0.00746   0.00000   0.04511   0.04511   5.38029
    X2       11.48422  -0.00397   0.00000  -0.08496  -0.08496  11.39926
    Y2        0.00000  -0.00826   0.00000  -0.08722  -0.08722  -0.08722
    Z2        0.56943  -0.00579   0.00000  -0.02840  -0.02840   0.54103
    X3       14.38171   0.00901   0.00000   0.07671   0.07671  14.45842
    Y3        2.87879   0.00024   0.00000  -0.03232  -0.03232   2.84647
    Z3        4.50353   0.00686   0.00000   0.02717   0.02717   4.53070
    X4        9.73521  -0.00494   0.00000  -0.02822  -0.02822   9.70698
    Y4        5.14363   0.00454   0.00000   0.04825   0.04825   5.19189
    Z4        2.18177  -0.00112   0.00000  -0.01480  -0.01480   2.16697
    X5        4.92389   0.00016   0.00000  -0.02747  -0.02747   4.89642
    Y5        8.11425   0.00714   0.00000   0.14113   0.14113   8.25538
    Z5        1.75129  -0.00173   0.00000  -0.01670  -0.01670   1.73459
    X6        0.14637  -0.00480   0.00000  -0.05039  -0.05039   0.09597
    Y6        5.11609   0.00745   0.00000   0.04575   0.04575   5.16184
    Z6        2.34923   0.00132   0.00000   0.00004   0.00004   2.34928
    X7        1.90415   0.00772   0.00000   0.16203   0.16203   2.06618
    Y7        0.26213  -0.00565   0.00000  -0.04294  -0.04294   0.21919
    Z7        0.00000  -0.00701   0.00000  -0.01241  -0.01241  -0.01241
         Item               Value     Threshold  Converged?
 Maximum Force            0.009005     0.000450     NO 
 RMS     Force            0.005616     0.000300     NO 
 Maximum Displacement     0.162028     0.001800     NO 
 RMS     Displacement     0.065490     0.001200     NO 
 Predicted change in Energy=-4.302858D-03
 GradGradGradGradGradGradGradGradGradGradGradGradGradGradGradGradGradGrad

 Leave Link  103 at Mon Nov 13 15:32:52 2023, MaxMem=  1879048192 cpu:               0.3 elap:               0.0
 (Enter /home/sekinelabo/g16/l9999.exe)
 1\1\GINC-SEKINELABO-XA7R-R37\Force\UB3LYP\6-311+G(d)\Na7(2)\SEKINELABO
 \13-Nov-2023\0\\#P B3LYP/6-311+g(d) force\\Gaussian input prepared by 
 ASE\\0,2\Na,0.,0.1583071571,2.8232567026\Na,6.0771866875,0.,0.30133073
 11\Na,7.6104730801,1.5233896633,2.3831639365\Na,5.1516499427,2.7218931
 307,1.1545453025\Na,2.6056082557,4.293875698,0.9267416004\Na,0.0774531
 844,2.7073170162,1.2431613975\Na,1.0076353453,0.1387134439,0.\\Version
 =ES64L-G16RevB.01\State=2-A\HF=-1136.0977726\S2=0.762132\S2-1=0.\S2A=0
 .750088\RMSD=7.082e-09\RMSF=5.616e-03\Dipole=0.1170999,-0.5228958,0.24
 79072\Quadrupole=4.4512456,-4.3556245,-0.0956211,-1.7853208,0.6164249,
 -0.8656971\PG=C01 [X(Na7)]\\@


 Just remember, when you're over the hill, you begin to pick up speed.
 -- Charles Schulz
 Job cpu time:       0 days  0 hours  4 minutes 24.2 seconds.
 Elapsed time:       0 days  0 hours  0 minutes 21.5 seconds.
 File lengths (MBytes):  RWF=     32 Int=      0 D2E=      0 Chk=      5 Scr=      1
 Normal termination of Gaussian 16 at Mon Nov 13 15:32:52 2023.
