 Entering Gaussian System, Link 0=g16
 Initial command:
 /home/sekinelabo/g16/l1.exe "/home/sekinelabo/g16temp/Gau-4069438.inp" -scrdir="/home/sekinelabo/g16temp/"
 Entering Link 1 = /home/sekinelabo/g16/l1.exe PID=   4069440.
  
 Copyright (c) 1988-2017, Gaussian, Inc.  All Rights Reserved.
  
 This is part of the Gaussian(R) 16 program.  It is based on
 the Gaussian(R) 09 system (copyright 2009, Gaussian, Inc.),
 the Gaussian(R) 03 system (copyright 2003, Gaussian, Inc.),
 the Gaussian(R) 98 system (copyright 1998, Gaussian, Inc.),
 the Gaussian(R) 94 system (copyright 1995, Gaussian, Inc.),
 the Gaussian 92(TM) system (copyright 1992, Gaussian, Inc.),
 the Gaussian 90(TM) system (copyright 1990, Gaussian, Inc.),
 the Gaussian 88(TM) system (copyright 1988, Gaussian, Inc.),
 the Gaussian 86(TM) system (copyright 1986, Carnegie Mellon
 University), and the Gaussian 82(TM) system (copyright 1983,
 Carnegie Mellon University). Gaussian is a federally registered
 trademark of Gaussian, Inc.
  
 This software contains proprietary and confidential information,
 including trade secrets, belonging to Gaussian, Inc.
  
 This software is provided under written license and may be
 used, copied, transmitted, or stored only in accord with that
 written license.
  
 The following legend is applicable only to US Government
 contracts under FAR:
  
                    RESTRICTED RIGHTS LEGEND
  
 Use, reproduction and disclosure by the US Government is
 subject to restrictions as set forth in subparagraphs (a)
 and (c) of the Commercial Computer Software - Restricted
 Rights clause in FAR 52.227-19.
  
 Gaussian, Inc.
 340 Quinnipiac St., Bldg. 40, Wallingford CT 06492
  
  
 ---------------------------------------------------------------
 Warning -- This program may not be used in any manner that
 competes with the business of Gaussian, Inc. or will provide
 assistance to any competitor of Gaussian, Inc.  The licensee
 of this program is prohibited from giving any competitor of
 Gaussian, Inc. access to this program.  By using this program,
 the user acknowledges that Gaussian, Inc. is engaged in the
 business of creating and licensing software in the field of
 computational chemistry and represents and warrants to the
 licensee that it is not a competitor of Gaussian, Inc. and that
 it will not use this program in any manner prohibited above.
 ---------------------------------------------------------------
  

 Cite this work as:
 Gaussian 16, Revision B.01,
 M. J. Frisch, G. W. Trucks, H. B. Schlegel, G. E. Scuseria, 
 M. A. Robb, J. R. Cheeseman, G. Scalmani, V. Barone, 
 G. A. Petersson, H. Nakatsuji, X. Li, M. Caricato, A. V. Marenich, 
 J. Bloino, B. G. Janesko, R. Gomperts, B. Mennucci, H. P. Hratchian, 
 J. V. Ortiz, A. F. Izmaylov, J. L. Sonnenberg, D. Williams-Young, 
 F. Ding, F. Lipparini, F. Egidi, J. Goings, B. Peng, A. Petrone, 
 T. Henderson, D. Ranasinghe, V. G. Zakrzewski, J. Gao, N. Rega, 
 G. Zheng, W. Liang, M. Hada, M. Ehara, K. Toyota, R. Fukuda, 
 J. Hasegawa, M. Ishida, T. Nakajima, Y. Honda, O. Kitao, H. Nakai, 
 T. Vreven, K. Throssell, J. A. Montgomery, Jr., J. E. Peralta, 
 F. Ogliaro, M. J. Bearpark, J. J. Heyd, E. N. Brothers, K. N. Kudin, 
 V. N. Staroverov, T. A. Keith, R. Kobayashi, J. Normand, 
 K. Raghavachari, A. P. Rendell, J. C. Burant, S. S. Iyengar, 
 J. Tomasi, M. Cossi, J. M. Millam, M. Klene, C. Adamo, R. Cammi, 
 J. W. Ochterski, R. L. Martin, K. Morokuma, O. Farkas, 
 J. B. Foresman, and D. J. Fox, Gaussian, Inc., Wallingford CT, 2016.
 
 ******************************************
 Gaussian 16:  ES64L-G16RevB.01 20-Dec-2017
                13-Nov-2023 
 ******************************************
 %mem=14GB
 %chk=checkpoint.chk
 %nprocshared=16
 Will use up to   16 processors via shared memory.
 -------------------------
 #P B3LYP/6-311+g(d) force
 -------------------------
 1/10=7,30=1,38=1/1,3;
 2/12=2,17=6,18=5,40=1/2;
 3/5=4,6=6,7=11,11=2,25=1,30=1,71=1,74=-5/1,2,3;
 4//1;
 5/5=2,38=5/2;
 6/7=2,8=2,9=2,10=2,28=1/1;
 7/29=1/1,2,3,16;
 1/10=7,30=1/3;
 99//99;
 Leave Link    1 at Mon Nov 13 17:04:28 2023, MaxMem=  1879048192 cpu:               0.3 elap:               0.0
 (Enter /home/sekinelabo/g16/l101.exe)
 ------------------------------
 Gaussian input prepared by ASE
 ------------------------------
 Symbolic Z-matrix:
 Charge =  0 Multiplicity = 2
 Na                    2.99554   2.65669   2.83794 
 Na                    0.80104   1.4681    0. 
 Na                    1.466     4.2812    0.82141 
 Na                    0.        2.49154   2.7089 
 Na                    1.63464   0.        2.4831 
 Na                    3.70564   0.88504   0.51621 
 Na                    5.81086   2.5787    1.81417 
 
 ITRead=  0  0  0  0  0  0  0
 MicOpt= -1 -1 -1 -1 -1 -1 -1
 NAtoms=      7 NQM=        7 NQMF=       0 NMMI=      0 NMMIF=      0
                NMic=       0 NMicF=      0.
                    Isotopes and Nuclear Properties:
 (Nuclear quadrupole moments (NQMom) in fm**2, nuclear magnetic moments (NMagM)
  in nuclear magnetons)

  Atom         1           2           3           4           5           6           7
 IAtWgt=          23          23          23          23          23          23          23
 AtmWgt=  22.9897697  22.9897697  22.9897697  22.9897697  22.9897697  22.9897697  22.9897697
 NucSpn=           3           3           3           3           3           3           3
 AtZEff=  -0.0000000  -0.0000000  -0.0000000  -0.0000000  -0.0000000  -0.0000000  -0.0000000
 NQMom=   10.4000000  10.4000000  10.4000000  10.4000000  10.4000000  10.4000000  10.4000000
 NMagM=    2.2175200   2.2175200   2.2175200   2.2175200   2.2175200   2.2175200   2.2175200
 AtZNuc=  11.0000000  11.0000000  11.0000000  11.0000000  11.0000000  11.0000000  11.0000000
 Leave Link  101 at Mon Nov 13 17:04:28 2023, MaxMem=  1879048192 cpu:               2.6 elap:               0.2
 (Enter /home/sekinelabo/g16/l103.exe)

 GradGradGradGradGradGradGradGradGradGradGradGradGradGradGradGradGradGrad
 Berny optimization.
 Initialization pass.
 Trust Radius=3.00D-01 FncErr=1.00D-07 GrdErr=1.00D-07 EigMax=2.50D+02 EigMin=1.00D-04
 Number of steps in this run=      2 maximum allowed number of steps=      2.
 GradGradGradGradGradGradGradGradGradGradGradGradGradGradGradGradGradGrad

 Leave Link  103 at Mon Nov 13 17:04:28 2023, MaxMem=  1879048192 cpu:               0.2 elap:               0.0
 (Enter /home/sekinelabo/g16/l202.exe)
                          Input orientation:                          
 ---------------------------------------------------------------------
 Center     Atomic      Atomic             Coordinates (Angstroms)
 Number     Number       Type             X           Y           Z
 ---------------------------------------------------------------------
      1         11           0        2.995544    2.656692    2.837936
      2         11           0        0.801041    1.468097    0.000000
      3         11           0        1.465999    4.281197    0.821407
      4         11           0        0.000000    2.491543    2.708899
      5         11           0        1.634644    0.000000    2.483099
      6         11           0        3.705640    0.885035    0.516215
      7         11           0        5.810860    2.578698    1.814168
 ---------------------------------------------------------------------
                    Distance matrix (angstroms):
                    1          2          3          4          5
     1  Na   0.000000
     2  Na   3.779218   0.000000
     3  Na   3.007477   3.005064   0.000000
     4  Na   3.002867   3.004537   2.985740   0.000000
     5  Na   3.005989   3.002663   4.595466   2.988450   0.000000
     6  Na   3.005560   3.007181   4.079589   4.595704   2.990142
     7  Na   2.996696   5.442695   4.770943   5.879986   4.953578
                    6          7
     6  Na   0.000000
     7  Na   2.997520   0.000000
 Stoichiometry    Na7(2)
 Framework group  C1[X(Na7)]
 Deg. of freedom    15
 Full point group                 C1      NOp   1
 Largest Abelian subgroup         C1      NOp   1
 Largest concise Abelian subgroup C1      NOp   1
                         Standard orientation:                         
 ---------------------------------------------------------------------
 Center     Atomic      Atomic             Coordinates (Angstroms)
 Number     Number       Type             X           Y           Z
 ---------------------------------------------------------------------
      1         11           0       -0.650726    0.605083   -1.240547
      2         11           0        1.543778   -0.583512    1.597389
      3         11           0        0.878819    2.229588    0.775982
      4         11           0        2.344818    0.439934   -1.111510
      5         11           0        0.710175   -2.051609   -0.885710
      6         11           0       -1.360822   -1.166574    1.081174
      7         11           0       -3.466042    0.527089   -0.216779
 ---------------------------------------------------------------------
 Rotational constants (GHZ):           1.1188499           0.7006364           0.6251172
 Leave Link  202 at Mon Nov 13 17:04:28 2023, MaxMem=  1879048192 cpu:               0.0 elap:               0.0
 (Enter /home/sekinelabo/g16/l301.exe)
 Standard basis: 6-311+G(d) (5D, 7F)
 Ernie: Thresh=  0.10000D-02 Tol=  0.10000D-05 Strict=F.
 There are   217 symmetry adapted cartesian basis functions of A   symmetry.
 There are   210 symmetry adapted basis functions of A   symmetry.
   210 basis functions,   350 primitive gaussians,   217 cartesian basis functions
    39 alpha electrons       38 beta electrons
       nuclear repulsion energy       386.9729056557 Hartrees.
 IExCor=  402 DFT=T Ex+Corr=B3LYP ExCW=0 ScaHFX=  0.200000
 ScaDFX=  0.800000  0.720000  1.000000  0.810000 ScalE2=  1.000000  1.000000
 IRadAn=      5 IRanWt=     -1 IRanGd=            0 ICorTp=0 IEmpDi=  4
 NAtoms=    7 NActive=    7 NUniq=    7 SFac= 1.00D+00 NAtFMM=   60 NAOKFM=F Big=F
 Integral buffers will be    131072 words long.
 Raffenetti 2 integral format.
 Two-electron integral symmetry is turned on.
 Leave Link  301 at Mon Nov 13 17:04:28 2023, MaxMem=  1879048192 cpu:               0.5 elap:               0.0
 (Enter /home/sekinelabo/g16/l302.exe)
 NPDir=0 NMtPBC=     1 NCelOv=     1 NCel=       1 NClECP=     1 NCelD=      1
         NCelK=      1 NCelE2=     1 NClLst=     1 CellRange=     0.0.
 One-electron integrals computed using PRISM.
 One-electron integral symmetry used in STVInt
 NBasis=   210 RedAO= T EigKep=  1.77D-06  NBF=   210
 NBsUse=   210 1.00D-06 EigRej= -1.00D+00 NBFU=   210
 Precomputing XC quadrature grid using
 IXCGrd= 4 IRadAn=           5 IRanWt=          -1 IRanGd=           0 AccXCQ= 0.00D+00.
 Generated NRdTot=       0 NPtTot=           0 NUsed=           0 NTot=          32
 NSgBfM=   211   211   211   211   211 MxSgAt=     7 MxSgA2=     7.
 Leave Link  302 at Mon Nov 13 17:04:28 2023, MaxMem=  1879048192 cpu:               2.2 elap:               0.1
 (Enter /home/sekinelabo/g16/l303.exe)
 DipDrv:  MaxL=1.
 Leave Link  303 at Mon Nov 13 17:04:28 2023, MaxMem=  1879048192 cpu:               0.6 elap:               0.0
 (Enter /home/sekinelabo/g16/l401.exe)
 ExpMin= 7.60D-03 ExpMax= 3.62D+04 ExpMxC= 1.21D+03 IAcc=3 IRadAn=         5 AccDes= 0.00D+00
 Harris functional with IExCor=  402 and IRadAn=       5 diagonalized for initial guess.
 HarFok:  IExCor=  402 AccDes= 0.00D+00 IRadAn=         5 IDoV= 1 UseB2=F ITyADJ=14
 ICtDFT=  3500011 ScaDFX=  1.000000  1.000000  1.000000  1.000000
 FoFCou: FMM=F IPFlag=           0 FMFlag=      100000 FMFlg1=           0
         NFxFlg=           0 DoJE=T BraDBF=F KetDBF=T FulRan=T
         wScrn=  0.000000 ICntrl=       500 IOpCl=  0 I1Cent=   200000004 NGrid=           0
         NMat0=    1 NMatS0=      1 NMatT0=    0 NMatD0=    1 NMtDS0=    0 NMtDT0=    0
 Petite list used in FoFCou.
 Harris En= -1135.87438922042    
 JPrj=0 DoOrth=F DoCkMO=F.
 Initial guess <Sx>= 0.0000 <Sy>= 0.0000 <Sz>= 0.5000 <S**2>= 0.7500 S= 0.5000
 Leave Link  401 at Mon Nov 13 17:04:29 2023, MaxMem=  1879048192 cpu:               4.7 elap:               0.3
 (Enter /home/sekinelabo/g16/l502.exe)
 Keep R1 and R2 ints in memory in canonical form, NReq=507620388.
 FoFCou: FMM=F IPFlag=           0 FMFlag=           0 FMFlg1=           0
         NFxFlg=           0 DoJE=F BraDBF=F KetDBF=F FulRan=T
         wScrn=  0.000000 ICntrl=       600 IOpCl=  0 I1Cent=           0 NGrid=           0
         NMat0=    1 NMatS0=  22155 NMatT0=    0 NMatD0=    1 NMtDS0=    0 NMtDT0=    0
 Symmetry not used in FoFCou.
 Two-electron integral symmetry not used.
 UHF open shell SCF:
 Using DIIS extrapolation, IDIIS=  1040.
 NGot=  1879048192 LenX=  1388082348 LenY=  1388034818
 Requested convergence on RMS density matrix=1.00D-08 within 128 cycles.
 Requested convergence on MAX density matrix=1.00D-06.
 Requested convergence on             energy=1.00D-06.
 No special actions if energy rises.

 Cycle   1  Pass 1  IDiag  1:
 E= -1136.05821485575    
 DIIS: error= 1.41D-02 at cycle   1 NSaved=   1.
 NSaved= 1 IEnMin= 1 EnMin= -1136.05821485575     IErMin= 1 ErrMin= 1.41D-02
 ErrMax= 1.41D-02  0.00D+00 EMaxC= 1.00D-01 BMatC= 2.04D-01 BMatP= 2.04D-01
 IDIUse=3 WtCom= 8.59D-01 WtEn= 1.41D-01
 Coeff-Com:  0.100D+01
 Coeff-En:   0.100D+01
 Coeff:      0.100D+01
 Gap=     0.050 Goal=   None    Shift=    0.000
 Gap=     0.037 Goal=   None    Shift=    0.000
 GapD=    0.037 DampG=0.250 DampE=0.500 DampFc=0.2500 IDamp=-1.
 Damping current iteration by 2.50D-01
 RMSDP=8.51D-02 MaxDP=1.12D+01              OVMax= 2.60D-01

 Cycle   2  Pass 1  IDiag  1:
 E= -1136.07375244697     Delta-E=       -0.015537591218 Rises=F Damp=T
 DIIS: error= 9.29D-03 at cycle   2 NSaved=   2.
 NSaved= 2 IEnMin= 2 EnMin= -1136.07375244697     IErMin= 2 ErrMin= 9.29D-03
 ErrMax= 9.29D-03  0.00D+00 EMaxC= 1.00D-01 BMatC= 7.69D-02 BMatP= 2.04D-01
 IDIUse=3 WtCom= 9.07D-01 WtEn= 9.29D-02
 Coeff-Com: -0.125D+01 0.225D+01
 Coeff-En:   0.000D+00 0.100D+01
 Coeff:     -0.114D+01 0.214D+01
 Gap=     0.063 Goal=   None    Shift=    0.000
 Gap=     0.039 Goal=   None    Shift=    0.000
 RMSDP=4.09D-02 MaxDP=4.00D+00 DE=-1.55D-02 OVMax= 1.91D-01

 Cycle   3  Pass 1  IDiag  1:
 E= -1136.09919078636     Delta-E=       -0.025438339385 Rises=F Damp=F
 DIIS: error= 3.84D-03 at cycle   3 NSaved=   3.
 NSaved= 3 IEnMin= 3 EnMin= -1136.09919078636     IErMin= 3 ErrMin= 3.84D-03
 ErrMax= 3.84D-03  0.00D+00 EMaxC= 1.00D-01 BMatC= 4.61D-03 BMatP= 7.69D-02
 IDIUse=3 WtCom= 9.62D-01 WtEn= 3.84D-02
 Coeff-Com: -0.284D+00 0.514D+00 0.769D+00
 Coeff-En:   0.000D+00 0.000D+00 0.100D+01
 Coeff:     -0.273D+00 0.495D+00 0.778D+00
 Gap=     0.056 Goal=   None    Shift=    0.000
 Gap=     0.039 Goal=   None    Shift=    0.000
 RMSDP=1.59D-02 MaxDP=2.27D+00 DE=-2.54D-02 OVMax= 9.39D-02

 Cycle   4  Pass 1  IDiag  1:
 E= -1136.09944554678     Delta-E=       -0.000254760429 Rises=F Damp=F
 DIIS: error= 2.91D-03 at cycle   4 NSaved=   4.
 NSaved= 4 IEnMin= 4 EnMin= -1136.09944554678     IErMin= 4 ErrMin= 2.91D-03
 ErrMax= 2.91D-03  0.00D+00 EMaxC= 1.00D-01 BMatC= 3.67D-03 BMatP= 4.61D-03
 IDIUse=3 WtCom= 9.71D-01 WtEn= 2.91D-02
 Coeff-Com: -0.399D-03 0.355D-02 0.470D+00 0.527D+00
 Coeff-En:   0.000D+00 0.000D+00 0.482D+00 0.518D+00
 Coeff:     -0.387D-03 0.344D-02 0.470D+00 0.527D+00
 Gap=     0.059 Goal=   None    Shift=    0.000
 Gap=     0.039 Goal=   None    Shift=    0.000
 RMSDP=4.94D-03 MaxDP=6.74D-01 DE=-2.55D-04 OVMax= 5.60D-02

 Cycle   5  Pass 1  IDiag  1:
 E= -1136.10203299629     Delta-E=       -0.002587449504 Rises=F Damp=F
 DIIS: error= 8.13D-04 at cycle   5 NSaved=   5.
 NSaved= 5 IEnMin= 5 EnMin= -1136.10203299629     IErMin= 5 ErrMin= 8.13D-04
 ErrMax= 8.13D-04  0.00D+00 EMaxC= 1.00D-01 BMatC= 2.18D-04 BMatP= 3.67D-03
 IDIUse=3 WtCom= 9.92D-01 WtEn= 8.13D-03
 Coeff-Com:  0.297D-02-0.464D-02 0.286D+00 0.337D+00 0.379D+00
 Coeff-En:   0.000D+00 0.000D+00 0.000D+00 0.000D+00 0.100D+01
 Coeff:      0.295D-02-0.461D-02 0.283D+00 0.334D+00 0.384D+00
 Gap=     0.059 Goal=   None    Shift=    0.000
 Gap=     0.039 Goal=   None    Shift=    0.000
 RMSDP=1.00D-03 MaxDP=9.81D-02 DE=-2.59D-03 OVMax= 1.46D-02

 Cycle   6  Pass 1  IDiag  1:
 E= -1136.10226185024     Delta-E=       -0.000228853956 Rises=F Damp=F
 DIIS: error= 1.12D-04 at cycle   6 NSaved=   6.
 NSaved= 6 IEnMin= 6 EnMin= -1136.10226185024     IErMin= 6 ErrMin= 1.12D-04
 ErrMax= 1.12D-04  0.00D+00 EMaxC= 1.00D-01 BMatC= 4.24D-06 BMatP= 2.18D-04
 IDIUse=3 WtCom= 9.99D-01 WtEn= 1.12D-03
 Coeff-Com: -0.164D-02 0.172D-02-0.114D-01-0.155D-01 0.849D-01 0.942D+00
 Coeff-En:   0.000D+00 0.000D+00 0.000D+00 0.000D+00 0.000D+00 0.100D+01
 Coeff:     -0.164D-02 0.172D-02-0.114D-01-0.155D-01 0.848D-01 0.942D+00
 Gap=     0.059 Goal=   None    Shift=    0.000
 Gap=     0.039 Goal=   None    Shift=    0.000
 RMSDP=6.58D-04 MaxDP=5.88D-02 DE=-2.29D-04 OVMax= 3.66D-03

 Cycle   7  Pass 1  IDiag  1:
 E= -1136.10226633170     Delta-E=       -0.000004481454 Rises=F Damp=F
 DIIS: error= 8.10D-05 at cycle   7 NSaved=   7.
 NSaved= 7 IEnMin= 7 EnMin= -1136.10226633170     IErMin= 7 ErrMin= 8.10D-05
 ErrMax= 8.10D-05  0.00D+00 EMaxC= 1.00D-01 BMatC= 2.38D-06 BMatP= 4.24D-06
 IDIUse=1 WtCom= 1.00D+00 WtEn= 0.00D+00
 Coeff-Com: -0.129D-02 0.147D-02-0.392D-01-0.472D-01 0.101D-01 0.586D+00
 Coeff-Com:  0.490D+00
 Coeff:     -0.129D-02 0.147D-02-0.392D-01-0.472D-01 0.101D-01 0.586D+00
 Coeff:      0.490D+00
 Gap=     0.059 Goal=   None    Shift=    0.000
 Gap=     0.040 Goal=   None    Shift=    0.000
 RMSDP=1.75D-04 MaxDP=1.33D-02 DE=-4.48D-06 OVMax= 1.57D-03

 Cycle   8  Pass 1  IDiag  1:
 E= -1136.10226890822     Delta-E=       -0.000002576526 Rises=F Damp=F
 DIIS: error= 1.37D-05 at cycle   8 NSaved=   8.
 NSaved= 8 IEnMin= 8 EnMin= -1136.10226890822     IErMin= 8 ErrMin= 1.37D-05
 ErrMax= 1.37D-05  0.00D+00 EMaxC= 1.00D-01 BMatC= 1.01D-07 BMatP= 2.38D-06
 IDIUse=1 WtCom= 1.00D+00 WtEn= 0.00D+00
 Coeff-Com:  0.300D-03-0.371D-03-0.647D-02-0.592D-02-0.181D-01-0.102D+00
 Coeff-Com:  0.828D-01 0.105D+01
 Coeff:      0.300D-03-0.371D-03-0.647D-02-0.592D-02-0.181D-01-0.102D+00
 Coeff:      0.828D-01 0.105D+01
 Gap=     0.059 Goal=   None    Shift=    0.000
 Gap=     0.040 Goal=   None    Shift=    0.000
 RMSDP=1.14D-04 MaxDP=7.55D-03 DE=-2.58D-06 OVMax= 6.87D-04

 Cycle   9  Pass 1  IDiag  1:
 E= -1136.10226918452     Delta-E=       -0.000000276294 Rises=F Damp=F
 DIIS: error= 5.39D-06 at cycle   9 NSaved=   9.
 NSaved= 9 IEnMin= 9 EnMin= -1136.10226918452     IErMin= 9 ErrMin= 5.39D-06
 ErrMax= 5.39D-06  0.00D+00 EMaxC= 1.00D-01 BMatC= 1.00D-08 BMatP= 1.01D-07
 IDIUse=1 WtCom= 1.00D+00 WtEn= 0.00D+00
 Coeff-Com:  0.275D-03-0.347D-03 0.115D-02 0.183D-02-0.460D-02-0.596D-01
 Coeff-Com: -0.298D-01 0.183D+00 0.908D+00
 Coeff:      0.275D-03-0.347D-03 0.115D-02 0.183D-02-0.460D-02-0.596D-01
 Coeff:     -0.298D-01 0.183D+00 0.908D+00
 Gap=     0.059 Goal=   None    Shift=    0.000
 Gap=     0.040 Goal=   None    Shift=    0.000
 RMSDP=3.38D-05 MaxDP=1.80D-03 DE=-2.76D-07 OVMax= 2.59D-04

 Cycle  10  Pass 1  IDiag  1:
 E= -1136.10226921478     Delta-E=       -0.000000030262 Rises=F Damp=F
 DIIS: error= 2.72D-06 at cycle  10 NSaved=  10.
 NSaved=10 IEnMin=10 EnMin= -1136.10226921478     IErMin=10 ErrMin= 2.72D-06
 ErrMax= 2.72D-06  0.00D+00 EMaxC= 1.00D-01 BMatC= 3.08D-09 BMatP= 1.00D-08
 IDIUse=1 WtCom= 1.00D+00 WtEn= 0.00D+00
 Coeff-Com:  0.593D-04-0.707D-04 0.135D-02 0.137D-02 0.625D-03-0.115D-01
 Coeff-Com: -0.201D-01-0.644D-01 0.310D+00 0.783D+00
 Coeff:      0.593D-04-0.707D-04 0.135D-02 0.137D-02 0.625D-03-0.115D-01
 Coeff:     -0.201D-01-0.644D-01 0.310D+00 0.783D+00
 Gap=     0.059 Goal=   None    Shift=    0.000
 Gap=     0.040 Goal=   None    Shift=    0.000
 RMSDP=1.28D-05 MaxDP=8.26D-04 DE=-3.03D-08 OVMax= 1.69D-04

 Cycle  11  Pass 1  IDiag  1:
 E= -1136.10226922228     Delta-E=       -0.000000007500 Rises=F Damp=F
 DIIS: error= 2.27D-06 at cycle  11 NSaved=  11.
 NSaved=11 IEnMin=11 EnMin= -1136.10226922228     IErMin=11 ErrMin= 2.27D-06
 ErrMax= 2.27D-06  0.00D+00 EMaxC= 1.00D-01 BMatC= 1.41D-09 BMatP= 3.08D-09
 IDIUse=1 WtCom= 1.00D+00 WtEn= 0.00D+00
 Coeff-Com: -0.406D-04 0.547D-04 0.642D-03 0.473D-03 0.162D-02 0.746D-02
 Coeff-Com: -0.513D-02-0.861D-01-0.487D-01 0.444D+00 0.686D+00
 Coeff:     -0.406D-04 0.547D-04 0.642D-03 0.473D-03 0.162D-02 0.746D-02
 Coeff:     -0.513D-02-0.861D-01-0.487D-01 0.444D+00 0.686D+00
 Gap=     0.059 Goal=   None    Shift=    0.000
 Gap=     0.040 Goal=   None    Shift=    0.000
 RMSDP=9.01D-06 MaxDP=8.72D-04 DE=-7.50D-09 OVMax= 1.09D-04

 Cycle  12  Pass 1  IDiag  1:
 E= -1136.10226922562     Delta-E=       -0.000000003341 Rises=F Damp=F
 DIIS: error= 1.28D-06 at cycle  12 NSaved=  12.
 NSaved=12 IEnMin=12 EnMin= -1136.10226922562     IErMin=12 ErrMin= 1.28D-06
 ErrMax= 1.28D-06  0.00D+00 EMaxC= 1.00D-01 BMatC= 3.48D-10 BMatP= 1.41D-09
 IDIUse=1 WtCom= 1.00D+00 WtEn= 0.00D+00
 Coeff-Com: -0.447D-04 0.568D-04-0.109D-03-0.209D-03 0.682D-03 0.810D-02
 Coeff-Com:  0.309D-02-0.274D-01-0.122D+00-0.172D-01 0.373D+00 0.783D+00
 Coeff:     -0.447D-04 0.568D-04-0.109D-03-0.209D-03 0.682D-03 0.810D-02
 Coeff:      0.309D-02-0.274D-01-0.122D+00-0.172D-01 0.373D+00 0.783D+00
 Gap=     0.059 Goal=   None    Shift=    0.000
 Gap=     0.040 Goal=   None    Shift=    0.000
 RMSDP=4.42D-06 MaxDP=3.53D-04 DE=-3.34D-09 OVMax= 7.48D-05

 Cycle  13  Pass 1  IDiag  1:
 E= -1136.10226922674     Delta-E=       -0.000000001116 Rises=F Damp=F
 DIIS: error= 4.16D-07 at cycle  13 NSaved=  13.
 NSaved=13 IEnMin=13 EnMin= -1136.10226922674     IErMin=13 ErrMin= 4.16D-07
 ErrMax= 4.16D-07  0.00D+00 EMaxC= 1.00D-01 BMatC= 3.96D-11 BMatP= 3.48D-10
 IDIUse=1 WtCom= 1.00D+00 WtEn= 0.00D+00
 Coeff-Com:  0.158D-04-0.212D-04-0.885D-04-0.354D-04-0.359D-03-0.259D-02
 Coeff-Com:  0.309D-03 0.216D-01 0.169D-01-0.105D+00-0.156D+00-0.137D-01
 Coeff-Com:  0.124D+01
 Coeff:      0.158D-04-0.212D-04-0.885D-04-0.354D-04-0.359D-03-0.259D-02
 Coeff:      0.309D-03 0.216D-01 0.169D-01-0.105D+00-0.156D+00-0.137D-01
 Coeff:      0.124D+01
 Gap=     0.059 Goal=   None    Shift=    0.000
 Gap=     0.040 Goal=   None    Shift=    0.000
 RMSDP=2.54D-06 MaxDP=1.77D-04 DE=-1.12D-09 OVMax= 4.88D-05

 Cycle  14  Pass 1  IDiag  1:
 E= -1136.10226922707     Delta-E=       -0.000000000336 Rises=F Damp=F
 DIIS: error= 1.44D-07 at cycle  14 NSaved=  14.
 NSaved=14 IEnMin=14 EnMin= -1136.10226922707     IErMin=14 ErrMin= 1.44D-07
 ErrMax= 1.44D-07  0.00D+00 EMaxC= 1.00D-01 BMatC= 8.85D-12 BMatP= 3.96D-11
 IDIUse=1 WtCom= 1.00D+00 WtEn= 0.00D+00
 Coeff-Com:  0.753D-05-0.955D-05 0.165D-06 0.205D-04-0.135D-03-0.131D-02
 Coeff-Com: -0.476D-03 0.352D-02 0.267D-01 0.176D-01-0.784D-01-0.178D+00
 Coeff-Com: -0.985D-01 0.131D+01
 Coeff:      0.753D-05-0.955D-05 0.165D-06 0.205D-04-0.135D-03-0.131D-02
 Coeff:     -0.476D-03 0.352D-02 0.267D-01 0.176D-01-0.784D-01-0.178D+00
 Coeff:     -0.985D-01 0.131D+01
 Gap=     0.059 Goal=   None    Shift=    0.000
 Gap=     0.040 Goal=   None    Shift=    0.000
 RMSDP=1.40D-06 MaxDP=8.71D-05 DE=-3.36D-10 OVMax= 2.76D-05

 Cycle  15  Pass 1  IDiag  1:
 E= -1136.10226922716     Delta-E=       -0.000000000082 Rises=F Damp=F
 DIIS: error= 5.76D-08 at cycle  15 NSaved=  15.
 NSaved=15 IEnMin=15 EnMin= -1136.10226922716     IErMin=15 ErrMin= 5.76D-08
 ErrMax= 5.76D-08  0.00D+00 EMaxC= 1.00D-01 BMatC= 1.44D-12 BMatP= 8.85D-12
 IDIUse=1 WtCom= 1.00D+00 WtEn= 0.00D+00
 Coeff-Com: -0.299D-05 0.410D-05 0.234D-04 0.987D-05 0.668D-04 0.474D-03
 Coeff-Com: -0.186D-03-0.465D-02-0.246D-02 0.222D-01 0.334D-01 0.199D-02
 Coeff-Com: -0.235D+00-0.729D-01 0.126D+01
 Coeff:     -0.299D-05 0.410D-05 0.234D-04 0.987D-05 0.668D-04 0.474D-03
 Coeff:     -0.186D-03-0.465D-02-0.246D-02 0.222D-01 0.334D-01 0.199D-02
 Coeff:     -0.235D+00-0.729D-01 0.126D+01
 Gap=     0.059 Goal=   None    Shift=    0.000
 Gap=     0.040 Goal=   None    Shift=    0.000
 RMSDP=6.66D-07 MaxDP=4.79D-05 DE=-8.19D-11 OVMax= 1.22D-05

 Cycle  16  Pass 1  IDiag  1:
 E= -1136.10226922716     Delta-E=       -0.000000000006 Rises=F Damp=F
 DIIS: error= 3.01D-08 at cycle  16 NSaved=  16.
 NSaved=16 IEnMin=16 EnMin= -1136.10226922716     IErMin=16 ErrMin= 3.01D-08
 ErrMax= 3.01D-08  0.00D+00 EMaxC= 1.00D-01 BMatC= 3.08D-13 BMatP= 1.44D-12
 IDIUse=1 WtCom= 1.00D+00 WtEn= 0.00D+00
 Coeff-Com: -0.131D-05 0.168D-05 0.362D-05-0.115D-05 0.325D-04 0.211D-03
 Coeff-Com:  0.810D-04-0.719D-03-0.408D-02-0.488D-02 0.161D-01 0.324D-01
 Coeff-Com:  0.104D-01-0.245D+00 0.842D-01 0.111D+01
 Coeff:     -0.131D-05 0.168D-05 0.362D-05-0.115D-05 0.325D-04 0.211D-03
 Coeff:      0.810D-04-0.719D-03-0.408D-02-0.488D-02 0.161D-01 0.324D-01
 Coeff:      0.104D-01-0.245D+00 0.842D-01 0.111D+01
 Gap=     0.059 Goal=   None    Shift=    0.000
 Gap=     0.040 Goal=   None    Shift=    0.000
 RMSDP=2.43D-07 MaxDP=1.42D-05 DE=-6.37D-12 OVMax= 4.13D-06

 Cycle  17  Pass 1  IDiag  1:
 E= -1136.10226922717     Delta-E=       -0.000000000009 Rises=F Damp=F
 DIIS: error= 1.12D-08 at cycle  17 NSaved=  17.
 NSaved=17 IEnMin=17 EnMin= -1136.10226922717     IErMin=17 ErrMin= 1.12D-08
 ErrMax= 1.12D-08  0.00D+00 EMaxC= 1.00D-01 BMatC= 6.36D-14 BMatP= 3.08D-13
 IDIUse=1 WtCom= 1.00D+00 WtEn= 0.00D+00
 Coeff-Com:  0.103D-06-0.191D-06-0.396D-05-0.243D-05-0.470D-05 0.257D-05
 Coeff-Com:  0.693D-04 0.519D-03-0.594D-03-0.551D-02-0.156D-02 0.883D-02
 Coeff-Com:  0.449D-01-0.539D-01-0.220D+00 0.315D+00 0.912D+00
 Coeff:      0.103D-06-0.191D-06-0.396D-05-0.243D-05-0.470D-05 0.257D-05
 Coeff:      0.693D-04 0.519D-03-0.594D-03-0.551D-02-0.156D-02 0.883D-02
 Coeff:      0.449D-01-0.539D-01-0.220D+00 0.315D+00 0.912D+00
 Gap=     0.059 Goal=   None    Shift=    0.000
 Gap=     0.040 Goal=   None    Shift=    0.000
 RMSDP=7.80D-08 MaxDP=6.23D-06 DE=-8.64D-12 OVMax= 1.47D-06

 Cycle  18  Pass 1  IDiag  1:
 E= -1136.10226922719     Delta-E=       -0.000000000016 Rises=F Damp=F
 DIIS: error= 3.51D-09 at cycle  18 NSaved=  18.
 NSaved=18 IEnMin=18 EnMin= -1136.10226922719     IErMin=18 ErrMin= 3.51D-09
 ErrMax= 3.51D-09  0.00D+00 EMaxC= 1.00D-01 BMatC= 5.34D-15 BMatP= 6.36D-14
 IDIUse=1 WtCom= 1.00D+00 WtEn= 0.00D+00
 Coeff-Com:  0.270D-06-0.344D-06-0.756D-06 0.383D-08-0.567D-05-0.413D-04
 Coeff-Com: -0.174D-04 0.148D-03 0.587D-03 0.814D-03-0.258D-02-0.520D-02
 Coeff-Com:  0.773D-03 0.316D-01 0.389D-02-0.178D+00-0.560D-01 0.120D+01
 Coeff:      0.270D-06-0.344D-06-0.756D-06 0.383D-08-0.567D-05-0.413D-04
 Coeff:     -0.174D-04 0.148D-03 0.587D-03 0.814D-03-0.258D-02-0.520D-02
 Coeff:      0.773D-03 0.316D-01 0.389D-02-0.178D+00-0.560D-01 0.120D+01
 Gap=     0.059 Goal=   None    Shift=    0.000
 Gap=     0.040 Goal=   None    Shift=    0.000
 RMSDP=3.54D-08 MaxDP=4.97D-06 DE=-1.59D-11 OVMax= 5.37D-07

 Cycle  19  Pass 1  IDiag  1:
 E= -1136.10226922719     Delta-E=       -0.000000000001 Rises=F Damp=F
 DIIS: error= 1.18D-09 at cycle  19 NSaved=  19.
 NSaved=19 IEnMin=19 EnMin= -1136.10226922719     IErMin=19 ErrMin= 1.18D-09
 ErrMax= 1.18D-09  0.00D+00 EMaxC= 1.00D-01 BMatC= 8.19D-16 BMatP= 5.34D-15
 IDIUse=1 WtCom= 1.00D+00 WtEn= 0.00D+00
 Large coefficients: NSaved= 19 BigCof=    0.00 CofMax=   10.00 Det=-1.07D-15
 Inversion failed.  Reducing to 18 matrices.
 Large coefficients: NSaved= 18 BigCof=    0.00 CofMax=   10.00 Det=-1.33D-15
 Inversion failed.  Reducing to 17 matrices.
 Large coefficients: NSaved= 17 BigCof=    0.00 CofMax=   10.00 Det=-1.40D-15
 Inversion failed.  Reducing to 16 matrices.
 Large coefficients: NSaved= 16 BigCof=    0.00 CofMax=   10.00 Det=-1.44D-15
 Inversion failed.  Reducing to 15 matrices.
 Coeff-Com: -0.178D-06-0.474D-05-0.374D-05-0.282D-06 0.597D-04 0.299D-03
 Coeff-Com: -0.769D-04-0.640D-03-0.265D-02 0.274D-02 0.192D-01-0.266D-01
 Coeff-Com: -0.810D-01-0.507D-01 0.114D+01
 Coeff:     -0.178D-06-0.474D-05-0.374D-05-0.282D-06 0.597D-04 0.299D-03
 Coeff:     -0.769D-04-0.640D-03-0.265D-02 0.274D-02 0.192D-01-0.266D-01
 Coeff:     -0.810D-01-0.507D-01 0.114D+01
 Gap=     0.059 Goal=   None    Shift=    0.000
 Gap=     0.040 Goal=   None    Shift=    0.000
 RMSDP=3.05D-08 MaxDP=2.12D-06 DE=-1.36D-12 OVMax= 2.28D-07

 Cycle  20  Pass 1  IDiag  1:
 E= -1136.10226922717     Delta-E=        0.000000000016 Rises=F Damp=F
 DIIS: error= 8.15D-10 at cycle  20 NSaved=  16.
 NSaved=16 IEnMin=15 EnMin= -1136.10226922719     IErMin=16 ErrMin= 8.15D-10
 ErrMax= 8.15D-10  0.00D+00 EMaxC= 1.00D-01 BMatC= 1.98D-16 BMatP= 8.19D-16
 IDIUse=1 WtCom= 1.00D+00 WtEn= 0.00D+00
 Large coefficients: NSaved= 16 BigCof=    0.00 CofMax=   10.00 Det=-2.09D-16
 Inversion failed.  Reducing to 15 matrices.
 Coeff-Com: -0.343D-06 0.130D-05 0.819D-05-0.255D-04-0.178D-03 0.190D-03
 Coeff-Com:  0.678D-03 0.378D-03-0.438D-02-0.163D-03 0.230D-01 0.684D-02
 Coeff-Com: -0.133D+00-0.228D+00 0.133D+01
 Coeff:     -0.343D-06 0.130D-05 0.819D-05-0.255D-04-0.178D-03 0.190D-03
 Coeff:      0.678D-03 0.378D-03-0.438D-02-0.163D-03 0.230D-01 0.684D-02
 Coeff:     -0.133D+00-0.228D+00 0.133D+01
 Gap=     0.059 Goal=   None    Shift=    0.000
 Gap=     0.040 Goal=   None    Shift=    0.000
 RMSDP=1.73D-08 MaxDP=2.30D-06 DE= 1.57D-11 OVMax= 1.56D-07

 Cycle  21  Pass 1  IDiag  1:
 E= -1136.10226922718     Delta-E=       -0.000000000008 Rises=F Damp=F
 DIIS: error= 4.61D-10 at cycle  21 NSaved=  16.
 NSaved=16 IEnMin=14 EnMin= -1136.10226922719     IErMin=16 ErrMin= 4.61D-10
 ErrMax= 4.61D-10  0.00D+00 EMaxC= 1.00D-01 BMatC= 8.25D-17 BMatP= 1.98D-16
 IDIUse=1 WtCom= 1.00D+00 WtEn= 0.00D+00
 Large coefficients: NSaved= 16 BigCof=    0.00 CofMax=   10.00 Det=-9.17D-17
 Inversion failed.  Reducing to 15 matrices.
 Coeff-Com:  0.161D-05 0.115D-04-0.324D-04-0.164D-03 0.312D-04 0.420D-03
 Coeff-Com:  0.112D-02-0.231D-02-0.490D-02 0.113D-01 0.230D-01-0.544D-02
 Coeff-Com: -0.408D+00 0.511D+00 0.875D+00
 Coeff:      0.161D-05 0.115D-04-0.324D-04-0.164D-03 0.312D-04 0.420D-03
 Coeff:      0.112D-02-0.231D-02-0.490D-02 0.113D-01 0.230D-01-0.544D-02
 Coeff:     -0.408D+00 0.511D+00 0.875D+00
 Gap=     0.059 Goal=   None    Shift=    0.000
 Gap=     0.040 Goal=   None    Shift=    0.000
 RMSDP=9.79D-09 MaxDP=1.28D-06 DE=-7.96D-12 OVMax= 7.80D-08

 Cycle  22  Pass 1  IDiag  1:
 E= -1136.10226922717     Delta-E=        0.000000000008 Rises=F Damp=F
 DIIS: error= 2.90D-10 at cycle  22 NSaved=  16.
 NSaved=16 IEnMin=13 EnMin= -1136.10226922719     IErMin=16 ErrMin= 2.90D-10
 ErrMax= 2.90D-10  0.00D+00 EMaxC= 1.00D-01 BMatC= 1.55D-17 BMatP= 8.25D-17
 IDIUse=1 WtCom= 1.00D+00 WtEn= 0.00D+00
 Large coefficients: NSaved= 16 BigCof=    0.00 CofMax=   10.00 Det=-2.84D-17
 Inversion failed.  Reducing to 15 matrices.
 Coeff-Com:  0.106D-05-0.143D-05 0.174D-04-0.392D-04-0.707D-04 0.143D-03
 Coeff-Com:  0.219D-03 0.115D-03-0.411D-02 0.199D-02 0.425D-01-0.910D-01
 Coeff-Com: -0.127D+00 0.154D+00 0.102D+01
 Coeff:      0.106D-05-0.143D-05 0.174D-04-0.392D-04-0.707D-04 0.143D-03
 Coeff:      0.219D-03 0.115D-03-0.411D-02 0.199D-02 0.425D-01-0.910D-01
 Coeff:     -0.127D+00 0.154D+00 0.102D+01
 Gap=     0.059 Goal=   None    Shift=    0.000
 Gap=     0.040 Goal=   None    Shift=    0.000
 RMSDP=8.36D-09 MaxDP=1.16D-06 DE= 7.50D-12 OVMax= 5.00D-08

 Cycle  23  Pass 1  IDiag  1:
 E= -1136.10226922717     Delta-E=        0.000000000003 Rises=F Damp=F
 DIIS: error= 1.78D-10 at cycle  23 NSaved=  16.
 NSaved=16 IEnMin=12 EnMin= -1136.10226922719     IErMin=16 ErrMin= 1.78D-10
 ErrMax= 1.78D-10  0.00D+00 EMaxC= 1.00D-01 BMatC= 4.65D-18 BMatP= 1.55D-17
 IDIUse=1 WtCom= 1.00D+00 WtEn= 0.00D+00
 Large coefficients: NSaved= 16 BigCof=    0.00 CofMax=   10.00 Det=-2.76D-18
 Inversion failed.  Reducing to 15 matrices.
 Coeff-Com: -0.207D-05-0.115D-06 0.105D-04 0.141D-04-0.670D-04-0.603D-04
 Coeff-Com:  0.881D-03-0.126D-02-0.440D-02 0.243D-02 0.596D-01-0.462D-01
 Coeff-Com: -0.166D+00-0.353D+00 0.151D+01
 Coeff:     -0.207D-05-0.115D-06 0.105D-04 0.141D-04-0.670D-04-0.603D-04
 Coeff:      0.881D-03-0.126D-02-0.440D-02 0.243D-02 0.596D-01-0.462D-01
 Coeff:     -0.166D+00-0.353D+00 0.151D+01
 Gap=     0.059 Goal=   None    Shift=    0.000
 Gap=     0.040 Goal=   None    Shift=    0.000
 RMSDP=5.05D-09 MaxDP=3.29D-07 DE= 2.50D-12 OVMax= 3.92D-08

 SCF Done:  E(UB3LYP) =  -1136.10226923     A.U. after   23 cycles
            NFock= 23  Conv=0.50D-08     -V/T= 2.0024
 <Sx>= 0.0000 <Sy>= 0.0000 <Sz>= 0.5000 <S**2>= 0.7614 S= 0.5057
 <L.S>= 0.000000000000E+00
 KE= 1.133332344783D+03 PE=-3.503591390267D+03 EE= 8.471838706004D+02
 Annihilation of the first spin contaminant:
 S**2 before annihilation     0.7614,   after     0.7501
 Leave Link  502 at Mon Nov 13 17:04:48 2023, MaxMem=  1879048192 cpu:             220.8 elap:              18.9
 (Enter /home/sekinelabo/g16/l601.exe)
 Copying SCF densities to generalized density rwf, IOpCl= 1 IROHF=0.

 **********************************************************************

            Population analysis using the SCF Density.

 **********************************************************************

 Orbital symmetries:
 Alpha Orbitals:
       Occupied  (A) (A) (A) (A) (A) (A) (A) (A) (A) (A) (A) (A)
                 (A) (A) (A) (A) (A) (A) (A) (A) (A) (A) (A) (A)
                 (A) (A) (A) (A) (A) (A) (A) (A) (A) (A) (A) (A)
                 (A) (A) (A)
       Virtual   (A) (A) (A) (A) (A) (A) (A) (A) (A) (A) (A) (A)
                 (A) (A) (A) (A) (A) (A) (A) (A) (A) (A) (A) (A)
                 (A) (A) (A) (A) (A) (A) (A) (A) (A) (A) (A) (A)
                 (A) (A) (A) (A) (A) (A) (A) (A) (A) (A) (A) (A)
                 (A) (A) (A) (A) (A) (A) (A) (A) (A) (A) (A) (A)
                 (A) (A) (A) (A) (A) (A) (A) (A) (A) (A) (A) (A)
                 (A) (A) (A) (A) (A) (A) (A) (A) (A) (A) (A) (A)
                 (A) (A) (A) (A) (A) (A) (A) (A) (A) (A) (A) (A)
                 (A) (A) (A) (A) (A) (A) (A) (A) (A) (A) (A) (A)
                 (A) (A) (A) (A) (A) (A) (A) (A) (A) (A) (A) (A)
                 (A) (A) (A) (A) (A) (A) (A) (A) (A) (A) (A) (A)
                 (A) (A) (A) (A) (A) (A) (A) (A) (A) (A) (A) (A)
                 (A) (A) (A) (A) (A) (A) (A) (A) (A) (A) (A) (A)
                 (A) (A) (A) (A) (A) (A) (A) (A) (A) (A) (A) (A)
                 (A) (A) (A)
 Beta  Orbitals:
       Occupied  (A) (A) (A) (A) (A) (A) (A) (A) (A) (A) (A) (A)
                 (A) (A) (A) (A) (A) (A) (A) (A) (A) (A) (A) (A)
                 (A) (A) (A) (A) (A) (A) (A) (A) (A) (A) (A) (A)
                 (A) (A)
       Virtual   (A) (A) (A) (A) (A) (A) (A) (A) (A) (A) (A) (A)
                 (A) (A) (A) (A) (A) (A) (A) (A) (A) (A) (A) (A)
                 (A) (A) (A) (A) (A) (A) (A) (A) (A) (A) (A) (A)
                 (A) (A) (A) (A) (A) (A) (A) (A) (A) (A) (A) (A)
                 (A) (A) (A) (A) (A) (A) (A) (A) (A) (A) (A) (A)
                 (A) (A) (A) (A) (A) (A) (A) (A) (A) (A) (A) (A)
                 (A) (A) (A) (A) (A) (A) (A) (A) (A) (A) (A) (A)
                 (A) (A) (A) (A) (A) (A) (A) (A) (A) (A) (A) (A)
                 (A) (A) (A) (A) (A) (A) (A) (A) (A) (A) (A) (A)
                 (A) (A) (A) (A) (A) (A) (A) (A) (A) (A) (A) (A)
                 (A) (A) (A) (A) (A) (A) (A) (A) (A) (A) (A) (A)
                 (A) (A) (A) (A) (A) (A) (A) (A) (A) (A) (A) (A)
                 (A) (A) (A) (A) (A) (A) (A) (A) (A) (A) (A) (A)
                 (A) (A) (A) (A) (A) (A) (A) (A) (A) (A) (A) (A)
                 (A) (A) (A) (A)
 The electronic state is 2-A.
 Alpha  occ. eigenvalues --  -38.44494 -38.44077 -38.43866 -38.43393 -38.43388
 Alpha  occ. eigenvalues --  -38.43130 -38.42957  -2.20377  -2.20169  -2.19981
 Alpha  occ. eigenvalues --   -2.19583  -2.19469  -2.19126  -2.19042  -1.14103
 Alpha  occ. eigenvalues --   -1.14062  -1.13985  -1.13954  -1.13872  -1.13803
 Alpha  occ. eigenvalues --   -1.13709  -1.13611  -1.13580  -1.13371  -1.13262
 Alpha  occ. eigenvalues --   -1.13233  -1.13131  -1.13101  -1.13046  -1.12806
 Alpha  occ. eigenvalues --   -1.12760  -1.12723  -1.12716  -1.12653  -1.12641
 Alpha  occ. eigenvalues --   -0.20634  -0.13910  -0.12266  -0.11988
 Alpha virt. eigenvalues --   -0.06085  -0.04159  -0.03783  -0.03473  -0.03036
 Alpha virt. eigenvalues --   -0.02805  -0.01653  -0.00442  -0.00380   0.00265
 Alpha virt. eigenvalues --    0.00543   0.00633   0.00700   0.00977   0.01042
 Alpha virt. eigenvalues --    0.01178   0.01291   0.01312   0.01418   0.01444
 Alpha virt. eigenvalues --    0.01490   0.01684   0.01750   0.01919   0.01994
 Alpha virt. eigenvalues --    0.02421   0.02603   0.02679   0.02854   0.02942
 Alpha virt. eigenvalues --    0.02963   0.03002   0.03083   0.03195   0.03258
 Alpha virt. eigenvalues --    0.03339   0.03502   0.03638   0.03779   0.03805
 Alpha virt. eigenvalues --    0.03892   0.04683   0.04897   0.05184   0.05345
 Alpha virt. eigenvalues --    0.05403   0.05514   0.05799   0.06012   0.06364
 Alpha virt. eigenvalues --    0.06497   0.06634   0.06823   0.07092   0.07246
 Alpha virt. eigenvalues --    0.07700   0.08540   0.08751   0.09255   0.09343
 Alpha virt. eigenvalues --    0.09623   0.09944   0.10263   0.11588   0.12533
 Alpha virt. eigenvalues --    0.13010   0.13120   0.13672   0.14088   0.14163
 Alpha virt. eigenvalues --    0.14391   0.14681   0.14751   0.15444   0.15582
 Alpha virt. eigenvalues --    0.16064   0.16534   0.17005   0.18131   0.19106
 Alpha virt. eigenvalues --    0.22753   0.24494   0.26297   0.27532   0.29072
 Alpha virt. eigenvalues --    0.30167   0.30770   0.31228   0.33556   0.34509
 Alpha virt. eigenvalues --    0.34766   0.36845   0.37555   0.38027   0.38425
 Alpha virt. eigenvalues --    0.39622   0.40435   0.41303   0.43277   0.43367
 Alpha virt. eigenvalues --    0.44214   0.44653   0.45124   0.45729   0.45914
 Alpha virt. eigenvalues --    0.46380   0.46974   0.47525   0.47680   0.48180
 Alpha virt. eigenvalues --    0.49225   0.49545   0.50403   0.50881   0.51592
 Alpha virt. eigenvalues --    0.52268   0.52863   0.53388   0.54552   0.55277
 Alpha virt. eigenvalues --    0.55624   0.56521   0.58279   0.62315   0.64990
 Alpha virt. eigenvalues --    0.67096   0.67706   0.69408   0.70636   0.71881
 Alpha virt. eigenvalues --    0.74255   0.74774   0.76806   0.78210   0.78761
 Alpha virt. eigenvalues --    0.81073   2.11496   2.17121   2.25801   2.27176
 Alpha virt. eigenvalues --    2.29511   2.30511   2.35508   4.40433   4.41079
 Alpha virt. eigenvalues --    4.41368   4.41777   4.42554   4.43115   4.45284
 Alpha virt. eigenvalues --    4.46062   4.48473   4.48748   4.53872   4.58376
 Alpha virt. eigenvalues --    4.61132   4.64546   4.66333   4.69738   4.71815
 Alpha virt. eigenvalues --    4.73980   4.76707   4.77461   4.80823  96.32560
 Alpha virt. eigenvalues --   96.40262  96.52162  96.54395  96.57912  96.58989
 Alpha virt. eigenvalues --   96.65331
  Beta  occ. eigenvalues --  -38.44495 -38.44038 -38.43798 -38.43356 -38.43344
  Beta  occ. eigenvalues --  -38.43107 -38.42925  -2.20380  -2.20104  -2.19859
  Beta  occ. eigenvalues --   -2.19499  -2.19415  -2.19088  -2.18989  -1.14102
  Beta  occ. eigenvalues --   -1.14056  -1.13987  -1.13915  -1.13794  -1.13746
  Beta  occ. eigenvalues --   -1.13623  -1.13514  -1.13501  -1.13327  -1.13199
  Beta  occ. eigenvalues --   -1.13159  -1.13093  -1.13038  -1.12997  -1.12781
  Beta  occ. eigenvalues --   -1.12706  -1.12696  -1.12683  -1.12622  -1.12561
  Beta  occ. eigenvalues --   -0.19787  -0.13743  -0.11788
  Beta virt. eigenvalues --   -0.07827  -0.05957  -0.04030  -0.03547  -0.03072
  Beta virt. eigenvalues --   -0.02297  -0.01827  -0.01427  -0.00386  -0.00097
  Beta virt. eigenvalues --    0.00316   0.00582   0.00637   0.00847   0.00992
  Beta virt. eigenvalues --    0.01067   0.01242   0.01341   0.01411   0.01500
  Beta virt. eigenvalues --    0.01547   0.01575   0.01773   0.01838   0.02007
  Beta virt. eigenvalues --    0.02142   0.02445   0.02629   0.02733   0.02890
  Beta virt. eigenvalues --    0.02960   0.02974   0.03021   0.03112   0.03255
  Beta virt. eigenvalues --    0.03312   0.03440   0.03635   0.03743   0.03881
  Beta virt. eigenvalues --    0.03976   0.04048   0.04779   0.05019   0.05277
  Beta virt. eigenvalues --    0.05396   0.05542   0.05715   0.06003   0.06146
  Beta virt. eigenvalues --    0.06503   0.06619   0.06686   0.06908   0.07183
  Beta virt. eigenvalues --    0.07352   0.07801   0.08599   0.08887   0.09387
  Beta virt. eigenvalues --    0.09441   0.09770   0.10306   0.10575   0.11887
  Beta virt. eigenvalues --    0.12654   0.13263   0.13410   0.13892   0.14228
  Beta virt. eigenvalues --    0.14500   0.14597   0.14849   0.15004   0.15649
  Beta virt. eigenvalues --    0.15845   0.16253   0.16637   0.17321   0.18260
  Beta virt. eigenvalues --    0.19449   0.23086   0.24964   0.26644   0.27942
  Beta virt. eigenvalues --    0.29526   0.30292   0.31077   0.31512   0.33773
  Beta virt. eigenvalues --    0.34862   0.34970   0.37135   0.37885   0.38296
  Beta virt. eigenvalues --    0.38782   0.39952   0.40626   0.41485   0.43402
  Beta virt. eigenvalues --    0.43690   0.44511   0.44786   0.45295   0.45823
  Beta virt. eigenvalues --    0.46092   0.46553   0.47146   0.47744   0.47861
  Beta virt. eigenvalues --    0.48423   0.49386   0.49738   0.50563   0.51149
  Beta virt. eigenvalues --    0.51750   0.52401   0.53170   0.53625   0.54766
  Beta virt. eigenvalues --    0.55490   0.55821   0.56769   0.58494   0.62502
  Beta virt. eigenvalues --    0.65144   0.67345   0.67858   0.69552   0.70716
  Beta virt. eigenvalues --    0.72086   0.74439   0.75012   0.76981   0.78422
  Beta virt. eigenvalues --    0.78972   0.81219   2.11565   2.17194   2.25888
  Beta virt. eigenvalues --    2.27308   2.29618   2.30744   2.35672   4.40512
  Beta virt. eigenvalues --    4.41153   4.41420   4.41853   4.42636   4.43171
  Beta virt. eigenvalues --    4.45324   4.46082   4.48531   4.48815   4.53941
  Beta virt. eigenvalues --    4.58457   4.61179   4.64614   4.66423   4.69801
  Beta virt. eigenvalues --    4.71879   4.74016   4.76751   4.77525   4.80874
  Beta virt. eigenvalues --   96.32590  96.40284  96.52197  96.54439  96.57955
  Beta virt. eigenvalues --   96.59067  96.65388
          Condensed to atoms (all electrons):
               1          2          3          4          5          6
     1  Na  13.740018   0.155546   0.124374  -2.300460  -0.457558   0.346841
     2  Na   0.155546  13.693502  -0.859974  -0.082441  -1.945048   0.043698
     3  Na   0.124374  -0.859974  12.469373  -1.261990   0.426940   0.108035
     4  Na  -2.300460  -0.082441  -1.261990  18.655852  -1.674943  -0.525527
     5  Na  -0.457558  -1.945048   0.426940  -1.674943  14.330902  -0.837386
     6  Na   0.346841   0.043698   0.108035  -0.525527  -0.837386  12.444653
     7  Na  -0.433569  -0.058798   0.586751  -2.901590   1.447185  -0.516957
               7
     1  Na  -0.433569
     2  Na  -0.058798
     3  Na   0.586751
     4  Na  -2.901590
     5  Na   1.447185
     6  Na  -0.516957
     7  Na  12.899443
          Atomic-Atomic Spin Densities.
               1          2          3          4          5          6
     1  Na   0.132109  -0.252913   0.193151   0.160388   0.323561  -0.149535
     2  Na  -0.252913   0.372452  -0.087031   0.369305  -0.357223   0.581334
     3  Na   0.193151  -0.087031   0.254942  -0.775322   0.449073  -0.259609
     4  Na   0.160388   0.369305  -0.775322   1.249568  -1.084243   0.717156
     5  Na   0.323561  -0.357223   0.449073  -1.084243   0.995201  -0.762278
     6  Na  -0.149535   0.581334  -0.259609   0.717156  -0.762278   0.503342
     7  Na  -0.112051  -0.167059   0.363424  -0.838702   0.636698  -0.530135
               7
     1  Na  -0.112051
     2  Na  -0.167059
     3  Na   0.363424
     4  Na  -0.838702
     5  Na   0.636698
     6  Na  -0.530135
     7  Na   0.656407
 Mulliken charges and spin densities:
               1          2
     1  Na  -0.175192   0.294709
     2  Na   0.053515   0.458865
     3  Na  -0.593508   0.138629
     4  Na   1.091099  -0.201850
     5  Na  -0.290092   0.200789
     6  Na  -0.063356   0.100276
     7  Na  -0.022465   0.008582
 Sum of Mulliken charges =  -0.00000   1.00000
 Mulliken charges and spin densities with hydrogens summed into heavy atoms:
               1          2
     1  Na  -0.175192   0.294709
     2  Na   0.053515   0.458865
     3  Na  -0.593508   0.138629
     4  Na   1.091099  -0.201850
     5  Na  -0.290092   0.200789
     6  Na  -0.063356   0.100276
     7  Na  -0.022465   0.008582
 Electronic spatial extent (au):  <R**2>=           1837.7234
 Charge=             -0.0000 electrons
 Dipole moment (field-independent basis, Debye):
    X=             -0.3989    Y=              0.1187    Z=              0.1382  Tot=              0.4385
 Quadrupole moment (field-independent basis, Debye-Ang):
   XX=            -54.9884   YY=            -73.0134   ZZ=            -66.8917
   XY=             -1.2550   XZ=             -1.0139   YZ=              1.4521
 Traceless Quadrupole moment (field-independent basis, Debye-Ang):
   XX=              9.9761   YY=             -8.0489   ZZ=             -1.9272
   XY=             -1.2550   XZ=             -1.0139   YZ=              1.4521
 Octapole moment (field-independent basis, Debye-Ang**2):
  XXX=            -32.1209  YYY=              2.9144  ZZZ=              3.5618  XYY=             -1.4880
  XXY=              5.9163  XXZ=             -5.6750  XZZ=              7.0274  YZZ=             -2.9172
  YYZ=              1.9864  XYZ=              2.5695
 Hexadecapole moment (field-independent basis, Debye-Ang**3):
 XXXX=          -1275.4109 YYYY=          -1003.8666 ZZZZ=           -731.9546 XXXY=            -45.9814
 XXXZ=            -19.6465 YYYX=              4.2300 YYYZ=             57.8637 ZZZX=              4.2033
 ZZZY=             -5.1680 XXYY=           -448.3689 XXZZ=           -357.9659 YYZZ=           -287.3130
 XXYZ=            -20.9751 YYXZ=             -5.6359 ZZXY=             -0.3599
 N-N= 3.869729056557D+02 E-N=-3.503591390280D+03  KE= 1.133332344783D+03
                          Isotropic Fermi Contact Couplings
        Atom                 a.u.       MegaHertz       Gauss      10(-4) cm-1
     1  Na(23)             0.15158     179.32549      63.98779      59.81654
     2  Na(23)             0.25020     295.99794     105.61942      98.73428
     3  Na(23)             0.05350      63.29570      22.58548      21.11317
     4  Na(23)             0.10634     125.80054      44.88876      41.96254
     5  Na(23)             0.06904      81.68181      29.14610      27.24612
     6  Na(23)             0.09055     107.12525      38.22495      35.73314
     7  Na(23)            -0.01433     -16.94695      -6.04709      -5.65290
 --------------------------------------------------------
       Center         ----  Spin Dipole Couplings  ----
                      3XX-RR        3YY-RR        3ZZ-RR
 --------------------------------------------------------
     1   Atom       -0.003345     -0.013522      0.016867
     2   Atom        0.008015      0.003448     -0.011463
     3   Atom       -0.018033     -0.003546      0.021579
     4   Atom       -0.001194     -0.015496      0.016690
     5   Atom       -0.025269     -0.003045      0.028313
     6   Atom       -0.002784     -0.013231      0.016015
     7   Atom       -0.001622     -0.006603      0.008225
 --------------------------------------------------------
                        XY            XZ            YZ
 --------------------------------------------------------
     1   Atom       -0.013929     -0.026232      0.020605
     2   Atom       -0.008034     -0.019226      0.010563
     3   Atom        0.000836      0.003083     -0.026704
     4   Atom        0.014175      0.034142      0.022622
     5   Atom        0.002856     -0.006989     -0.040054
     6   Atom        0.009084      0.027541      0.009323
     7   Atom       -0.000053     -0.002867     -0.000412
 --------------------------------------------------------


 ---------------------------------------------------------------------------------
              Anisotropic Spin Dipole Couplings in Principal Axis System
 ---------------------------------------------------------------------------------

       Atom             a.u.   MegaHertz   Gauss  10(-4) cm-1        Axes

              Baa    -0.0240    -3.394    -1.211    -1.132  0.1698  0.9196 -0.3543
     1 Na(23) Bbb    -0.0213    -3.014    -1.075    -1.005  0.8368  0.0553  0.5447
              Bcc     0.0454     6.408     2.286     2.137 -0.5205  0.3890  0.7601
 
              Baa    -0.0242    -3.421    -1.221    -1.141  0.4663 -0.1941  0.8631
     2 Na(23) Bbb    -0.0024    -0.333    -0.119    -0.111  0.5097  0.8563 -0.0829
              Bcc     0.0266     3.754     1.339     1.252  0.7230 -0.4786 -0.4982
 
              Baa    -0.0219    -3.099    -1.106    -1.034 -0.5237  0.7091  0.4722
     3 Na(23) Bbb    -0.0167    -2.353    -0.840    -0.785  0.8511  0.4602  0.2527
              Bcc     0.0386     5.452     1.946     1.819  0.0381 -0.5342  0.8445
 
              Baa    -0.0292    -4.130    -1.474    -1.377 -0.5294 -0.5361  0.6575
     4 Na(23) Bbb    -0.0241    -3.399    -1.213    -1.134 -0.6367  0.7633  0.1097
              Bcc     0.0533     7.528     2.686     2.511  0.5607  0.3606  0.7454
 
              Baa    -0.0309    -4.361    -1.556    -1.455  0.3023  0.7725  0.5584
     5 Na(23) Bbb    -0.0254    -3.592    -1.282    -1.198  0.9489 -0.2993 -0.0997
              Bcc     0.0563     7.953     2.838     2.653 -0.0902 -0.5600  0.8236
 
              Baa    -0.0230    -3.253    -1.161    -1.085  0.8160 -0.2701 -0.5110
     6 Na(23) Bbb    -0.0159    -2.240    -0.799    -0.747  0.0895  0.9325 -0.3500
              Bcc     0.0389     5.493     1.960     1.832  0.5710  0.2399  0.7851
 
              Baa    -0.0066    -0.935    -0.333    -0.312  0.0297  0.9990  0.0334
     7 Na(23) Bbb    -0.0024    -0.337    -0.120    -0.113  0.9651 -0.0374  0.2592
              Bcc     0.0090     1.272     0.454     0.424 -0.2602 -0.0246  0.9653
 

 ---------------------------------------------------------------------------------

 No NMR shielding tensors so no spin-rotation constants.
 Leave Link  601 at Mon Nov 13 17:04:48 2023, MaxMem=  1879048192 cpu:               2.7 elap:               0.2
 (Enter /home/sekinelabo/g16/l701.exe)
 ... and contract with generalized density number  0.
 Compute integral first derivatives.
 Leave Link  701 at Mon Nov 13 17:04:48 2023, MaxMem=  1879048192 cpu:               1.7 elap:               0.1
 (Enter /home/sekinelabo/g16/l702.exe)
 L702 exits ... SP integral derivatives will be done elsewhere.
 Leave Link  702 at Mon Nov 13 17:04:48 2023, MaxMem=  1879048192 cpu:               0.5 elap:               0.0
 (Enter /home/sekinelabo/g16/l703.exe)
 Integral derivatives from FoFJK, PRISM(SPDF).
 Compute integral first derivatives, UseDBF=F ICtDFT=           0.
 Calling FoFJK, ICntrl=      2127 FMM=F ISym2X=0 I1Cent= 0 IOpClX= 1 NMat=1 NMatS=1 NMatT=0.
 FoFJK:  IHMeth= 1 ICntrl=    2127 DoSepK=F KAlg= 0 I1Cent=           0 FoldK=F
 IRaf=         0 NMat=       1 IRICut=       1 DoRegI=T DoRafI=F ISym2E= 0 IDoP0=0 IntGTp=1.
 FoFCou: FMM=F IPFlag=           0 FMFlag=      100000 FMFlg1=         800
         NFxFlg=           0 DoJE=F BraDBF=F KetDBF=F FulRan=T
         wScrn=  0.000000 ICntrl=      2127 IOpCl=  1 I1Cent=           0 NGrid=           0
         NMat0=    1 NMatS0=      1 NMatT0=    0 NMatD0=    1 NMtDS0=    0 NMtDT0=    0
 Symmetry not used in FoFCou.
 Leave Link  703 at Mon Nov 13 17:04:51 2023, MaxMem=  1879048192 cpu:              37.5 elap:               2.4
 (Enter /home/sekinelabo/g16/l716.exe)
 Dipole        =-1.56933756D-01 4.67167641D-02 5.43639226D-02
 ***** Axes restored to original set *****
 -------------------------------------------------------------------
 Center     Atomic                   Forces (Hartrees/Bohr)
 Number     Number              X              Y              Z
 -------------------------------------------------------------------
      1       11           0.004879805    0.007449587    0.011189577
      2       11          -0.007194926   -0.005060819   -0.013042065
      3       11           0.002898197    0.015064778   -0.005783912
      4       11          -0.013958686    0.004799790    0.009762146
      5       11          -0.001397834   -0.019155493    0.007395731
      6       11           0.007005861   -0.007233570   -0.010117260
      7       11           0.007767582    0.004135727    0.000595783
 -------------------------------------------------------------------
 Cartesian Forces:  Max     0.019155493 RMS     0.009100279
 Z-matrix is all fixed cartesians, so copy forces.
 Force constants in Cartesian coordinates: 
                1             2             3             4             5 
      1  0.197511D+00
      2  0.856776D-02  0.182502D+00
      3  0.161278D-01  0.253476D-01  0.231920D+00
      4 -0.148837D-01 -0.419693D-02 -0.909870D-02  0.128741D+00
      5 -0.633665D-02 -0.857739D-02 -0.878513D-02  0.437538D-02  0.124591D+00
      6 -0.757937D-02 -0.393633D-02 -0.266419D-01  0.300919D-01  0.193611D-01
      7 -0.294305D-01  0.175777D-01 -0.112745D-01 -0.218986D-01 -0.187905D-01
      8 -0.115525D-01 -0.323509D-01 -0.916756D-02  0.266202D-02 -0.463511D-01
      9 -0.828608D-02  0.278757D-01 -0.439274D-01 -0.104712D-01 -0.299479D-01
     10 -0.534679D-01  0.655878D-02  0.199864D-01 -0.234869D-01 -0.371414D-02
     11 -0.126754D-01 -0.277496D-01 -0.432316D-02  0.118612D-01 -0.162699D-01
     12 -0.255228D-01 -0.589133D-02 -0.403424D-01  0.277015D-01 -0.121296D-01
     13 -0.309653D-01 -0.173654D-01  0.479464D-02 -0.165535D-01  0.128370D-01
     14 -0.698492D-03 -0.494567D-01  0.150183D-01 -0.777591D-02 -0.284030D-01
     15 -0.121074D-01 -0.239272D-01 -0.231635D-01 -0.341755D-02  0.316977D-01
     16 -0.315538D-01 -0.383470D-02 -0.108127D-01 -0.496253D-01  0.165131D-01
     17  0.116752D-01 -0.343112D-01 -0.107357D-01 -0.624968D-02 -0.324532D-01
     18  0.128758D-01 -0.186489D-01 -0.490398D-01 -0.295443D-01 -0.116173D-03
     19 -0.372104D-01 -0.730714D-02 -0.972286D-02 -0.229302D-02 -0.488420D-02
     20  0.110201D-01 -0.300558D-01 -0.735429D-02 -0.676081D-03  0.746305D-02
     21  0.244920D-01 -0.819479D-03 -0.488050D-01 -0.526163D-02 -0.799952D-04
                6             7             8             9            10 
      6  0.166975D+00
      7 -0.601761D-02  0.768144D-01
      8  0.136216D-01  0.298562D-02  0.132426D+00
      9 -0.238896D-01  0.824958D-03 -0.237215D-01  0.851391D-01
     10 -0.149081D-01 -0.249838D-01  0.107736D-01  0.883700D-02  0.134651D+00
     11 -0.113640D-01 -0.217102D-01 -0.297922D-01  0.265573D-01 -0.159823D-01
     12 -0.483237D-01  0.225620D-01  0.164730D-02 -0.251186D-01 -0.390386D-01
     13 -0.173764D-01  0.104998D-01  0.684156D-03 -0.614885D-03 -0.270326D-01
     14 -0.613077D-02 -0.980973D-03 -0.100973D-01  0.920418D-02 -0.248729D-02
     15 -0.440524D-01  0.815415D-04  0.793029D-02  0.671893D-02  0.156185D-01
     16  0.171953D-01 -0.640969D-02 -0.383504D-02  0.102760D-01 -0.545982D-02
     17 -0.139183D-01  0.134735D-01 -0.170870D-01 -0.964822D-02  0.510113D-02
     18 -0.301589D-01 -0.806106D-03  0.100508D-01 -0.349509D-02  0.988238D-02
     19 -0.140577D-02 -0.459160D-02 -0.171784D-02 -0.565836D-03 -0.220192D-03
     20  0.236665D-02  0.744490D-02  0.325312D-02 -0.319571D-03 -0.249803D-03
     21  0.609148D-02 -0.537027D-02 -0.361022D-03  0.457263D-02 -0.377580D-03
               11            12            13            14            15 
     11  0.101095D+00
     12  0.426957D-02  0.114552D+00
     13  0.315003D-01  0.151355D-02  0.969865D-01
     14 -0.409961D-01  0.155531D-01  0.662944D-03  0.151979D+00
     15 -0.104866D-01 -0.150140D-01 -0.967161D-02 -0.280098D-01  0.104537D+00
     16  0.681313D-02  0.941445D-02 -0.307001D-01  0.130127D-01  0.113023D-01
     17  0.882950D-02 -0.397990D-02 -0.204976D-01 -0.260149D-01  0.207112D-01
     18 -0.504041D-02  0.483370D-02  0.188214D-01 -0.938230D-02 -0.363462D-01
     19  0.193290D-03  0.336996D-02 -0.223491D-02 -0.173293D-02 -0.180579D-02
     20  0.488296D-02  0.530819D-03 -0.782131D-02  0.298940D-02  0.208451D-02
     21  0.387296D-03  0.941298D-02  0.253336D-02  0.374733D-02  0.731962D-02
               16            17            18            19            20 
     16  0.151614D+00
     17 -0.103444D-01  0.133735D+00
     18 -0.202321D-01  0.346903D-01  0.141369D+00
     19 -0.278657D-01  0.684179D-02  0.900298D-02  0.744158D-01
     20 -0.183248D-01 -0.326986D-01 -0.115534D-01  0.860704D-02  0.441659D-01
     21 -0.171432D-01 -0.171194D-01 -0.271623D-01  0.112731D-02  0.142453D-01
               21 
     21  0.485706D-01
 Leave Link  716 at Mon Nov 13 17:04:51 2023, MaxMem=  1879048192 cpu:               0.5 elap:               0.0
 (Enter /home/sekinelabo/g16/l103.exe)

 GradGradGradGradGradGradGradGradGradGradGradGradGradGradGradGradGradGrad
 Berny optimization.
 Search for a local minimum.
 Step number   1 out of a maximum of    2
 All quantities printed in internal units (Hartrees-Bohrs-Radians)
 Second derivative matrix not updated -- first step.
 ITU=  0
     Eigenvalues ---    0.05876   0.06928   0.08301   0.11576   0.14156
     Eigenvalues ---    0.15668   0.16397   0.17183   0.19452   0.20586
     Eigenvalues ---    0.20945   0.23322   0.24731   0.25274   0.29969
 Quadratic step=3.316D-01 exceeds max=3.000D-01 adjusted using Lamda=-1.068D-02.
 Angle between NR and scaled steps=   1.96 degrees.
 Angle between quadratic step and forces=  19.05 degrees.
 Linear search not attempted -- first point.
 B after Tr=    -0.000000    0.000000   -0.000000
         Rot=    1.000000   -0.000000   -0.000000    0.000000 Ang=   0.00 deg.
 Variable       Old X    -DE/DX   Delta X   Delta X   Delta X     New X
                                 (Linear)    (Quad)   (Total)
    X1        5.66076   0.00488   0.00000   0.02709   0.02709   5.68785
    Y1        5.02042   0.00745   0.00000   0.02812   0.02812   5.04854
    Z1        5.36292   0.01119   0.00000   0.05544   0.05544   5.41836
    X2        1.51375  -0.00719   0.00000  -0.06684  -0.06684   1.44690
    Y2        2.77430  -0.00506   0.00000  -0.03452  -0.03452   2.73978
    Z2        0.00000  -0.01304   0.00000  -0.06949  -0.06949  -0.06949
    X3        2.77034   0.00290   0.00000  -0.00720  -0.00720   2.76314
    Y3        8.09029   0.01506   0.00000   0.11058   0.11058   8.20087
    Z3        1.55223  -0.00578   0.00000  -0.03734  -0.03734   1.51489
    X4        0.00000  -0.01396   0.00000  -0.10625  -0.10625  -0.10625
    Y4        4.70833   0.00480   0.00000   0.03327   0.03327   4.74160
    Z4        5.11908   0.00976   0.00000   0.05782   0.05782   5.17689
    X5        3.08903  -0.00140   0.00000  -0.03283  -0.03283   3.05620
    Y5        0.00000  -0.01916   0.00000  -0.12508  -0.12508  -0.12508
    Z5        4.69238   0.00740   0.00000   0.03980   0.03980   4.73218
    X6        7.00265   0.00701   0.00000   0.05805   0.05805   7.06069
    Y6        1.67247  -0.00723   0.00000  -0.05576  -0.05576   1.61672
    Z6        0.97550  -0.01012   0.00000  -0.05305  -0.05305   0.92245
    X7       10.98093   0.00777   0.00000   0.12799   0.12799  11.10892
    Y7        4.87303   0.00414   0.00000   0.04338   0.04338   4.91641
    Z7        3.42828   0.00060   0.00000   0.00682   0.00682   3.43510
         Item               Value     Threshold  Converged?
 Maximum Force            0.019155     0.000450     NO 
 RMS     Force            0.009100     0.000300     NO 
 Maximum Displacement     0.127987     0.001800     NO 
 RMS     Displacement     0.065613     0.001200     NO 
 Predicted change in Energy=-6.408931D-03
 GradGradGradGradGradGradGradGradGradGradGradGradGradGradGradGradGradGrad

 Leave Link  103 at Mon Nov 13 17:04:51 2023, MaxMem=  1879048192 cpu:               0.3 elap:               0.0
 (Enter /home/sekinelabo/g16/l9999.exe)
 1\1\GINC-SEKINELABO-XA7R-R37\Force\UB3LYP\6-311+G(d)\Na7(2)\SEKINELABO
 \13-Nov-2023\0\\#P B3LYP/6-311+g(d) force\\Gaussian input prepared by 
 ASE\\0,2\Na,2.9955442811,2.6566917549,2.8379363136\Na,0.8010408466,1.4
 680970648,0.\Na,1.4659991985,4.2811969865,0.8214070578\Na,0.,2.4915426
 878,2.7088988768\Na,1.6346438358,0.,2.483099297\Na,3.7056403603,0.8850
 352724,0.5162148704\Na,5.8108603571,2.5786979231,1.8141682214\\Version
 =ES64L-G16RevB.01\State=2-A\HF=-1136.1022692\S2=0.761431\S2-1=0.\S2A=0
 .750067\RMSD=5.050e-09\RMSF=9.100e-03\Dipole=0.1569338,0.0467168,-0.05
 43639\Quadrupole=7.416965,-5.9841436,-1.4328214,0.9330656,-0.7538051,-
 1.0795668\PG=C01 [X(Na7)]\\@


 A leading authority is anyone who has guessed right more than once.
 -- Frank A. Clark
 Job cpu time:       0 days  0 hours  4 minutes 35.9 seconds.
 Elapsed time:       0 days  0 hours  0 minutes 22.4 seconds.
 File lengths (MBytes):  RWF=     32 Int=      0 D2E=      0 Chk=      5 Scr=      1
 Normal termination of Gaussian 16 at Mon Nov 13 17:04:51 2023.
